<event>
 4    1  0.7119201E+004  0.2182985E+02  0.7546771E-02  0.1711211E+00
         21   -1    0    0  501  502  0.00000000000E+00  0.00000000000E+00  0.27149834932E+02  0.27149834932E+02  0.00000000000E+00 0. -1.
         21   -1    0    0  502  503 -0.00000000000E+00 -0.00000000000E+00 -0.19819845367E+02  0.19819845367E+02  0.00000000000E+00 0. -1.
          2    1    1    2  501    0  0.21283189792E+02 -0.48547236032E+01  0.11608530321E+02  0.24724491606E+02  0.00000000000E+00 0.  1.
         -2    1    1    2    0  503 -0.21283189792E+02  0.48547236032E+01 -0.42785407554E+01  0.22245188692E+02  0.00000000000E+00 0. -1.
<mgrwt>
<rscale>  2 0.21829854E+02</rscale>
<asrwt>0</asrwt>
<pdfrwt beam="1">  1       21 0.41768977E-02 0.21829854E+02</pdfrwt>
<pdfrwt beam="2">  1       21 0.30492070E-02 0.21829854E+02</pdfrwt>
<totfact> 0.14627263E+08</totfact>
</mgrwt>
</event>
<event>
 4    1  0.7119201E+004  0.3654840E+02  0.7546771E-02  0.1535265E+00
         21   -1    0    0  503  502  0.00000000000E+00  0.00000000000E+00  0.13506712584E+03  0.13506712584E+03  0.00000000000E+00 0. -1.
         21   -1    0    0  501  503 -0.00000000000E+00 -0.00000000000E+00 -0.10911647309E+02  0.10911647309E+02  0.00000000000E+00 0. -1.
          1    1    1    2  501    0 -0.42499945577E+01  0.36300453486E+02  0.39741508322E+02  0.53992340760E+02  0.00000000000E+00 0. -1.
         -1    1    1    2    0  502  0.42499945577E+01 -0.36300453486E+02  0.84413970209E+02  0.91986432388E+02  0.00000000000E+00 0.  1.
<mgrwt>
<rscale>  2 0.36548398E+02</rscale>
<asrwt>0</asrwt>
<pdfrwt beam="1">  1       21 0.20779557E-01 0.36548398E+02</pdfrwt>
<pdfrwt beam="2">  1       21 0.16787151E-02 0.36548398E+02</pdfrwt>
<totfact> 0.28856121E+07</totfact>
</mgrwt>
</event>
<event>
 4    1  0.7119201E+004  0.2625132E+02  0.7546771E-02  0.1643653E+00
         21   -1    0    0  503  502  0.00000000000E+00  0.00000000000E+00  0.14489706865E+02  0.14489706865E+02  0.00000000000E+00 0.  1.
         21   -1    0    0  501  503 -0.00000000000E+00 -0.00000000000E+00 -0.55488907198E+02  0.55488907198E+02  0.00000000000E+00 0.  1.
          2    1    1    2  501    0 -0.11361207523E+02 -0.23665471346E+02 -0.72733473104E+01  0.27240285452E+02  0.00000000000E+00 0.  1.
         -2    1    1    2    0  502  0.11361207523E+02  0.23665471346E+02 -0.33725853022E+02  0.42738328611E+02  0.00000000000E+00 0. -1.
<mgrwt>
<rscale>  2 0.26251316E+02</rscale>
<asrwt>0</asrwt>
<pdfrwt beam="1">  1       21 0.22291857E-02 0.26251316E+02</pdfrwt>
<pdfrwt beam="2">  1       21 0.85367549E-02 0.26251316E+02</pdfrwt>
<totfact> 0.79281944E+07</totfact>
</mgrwt>
</event>
<event>
 4    1  0.7119201E+004  0.2992041E+02  0.7546771E-02  0.1598970E+00
         21   -1    0    0  503  502  0.00000000000E+00  0.00000000000E+00  0.19363916987E+02  0.19363916987E+02  0.00000000000E+00 0. -1.
         21   -1    0    0  501  503 -0.00000000000E+00 -0.00000000000E+00 -0.50031067456E+02  0.50031067456E+02  0.00000000000E+00 0. -1.
          4    1    1    2  501    0  0.24354814311E+02 -0.17380275822E+02 -0.57721737882E+01  0.30472101306E+02  0.00000000000E+00 0.  1.
         -4    1    1    2    0  502 -0.24354814311E+02  0.17380275822E+02 -0.24894976681E+02  0.38922883137E+02  0.00000000000E+00 0. -1.
<mgrwt>
<rscale>  2 0.29920411E+02</rscale>
<asrwt>0</asrwt>
<pdfrwt beam="1">  1       21 0.29790642E-02 0.29920411E+02</pdfrwt>
<pdfrwt beam="2">  1       21 0.76970872E-02 0.29920411E+02</pdfrwt>
<totfact> 0.61754521E+07</totfact>
</mgrwt>
</event>
<event>
 4    1  0.7119201E+004  0.2785713E+02  0.7546771E-02  0.1623059E+00
         21   -1    0    0  503  502  0.00000000000E+00  0.00000000000E+00  0.69351691860E+00  0.69351691860E+00  0.00000000000E+00 0.  1.
         21   -1    0    0  501  503 -0.00000000000E+00 -0.00000000000E+00 -0.13188739350E+04  0.13188739350E+04  0.00000000000E+00 0.  1.
          1    1    1    2  501    0 -0.37512607969E+01 -0.27603402143E+02 -0.40221733877E+03  0.40318086186E+03  0.00000000000E+00 0.  1.
         -1    1    1    2    0  502  0.37512607969E+01  0.27603402143E+02 -0.91596307927E+03  0.91638659002E+03  0.00000000000E+00 0. -1.
<mgrwt>
<rscale>  2 0.27857131E+02</rscale>
<asrwt>0</asrwt>
<pdfrwt beam="1">  1       21 0.10669465E-03 0.27857131E+02</pdfrwt>
<pdfrwt beam="2">  1       21 0.20290419E+00 0.27857131E+02</pdfrwt>
<totfact> 0.13963195E+07</totfact>
</mgrwt>
</event>
<event>
 4    1  0.7119201E+004  0.3248332E+02  0.7546771E-02  0.1572157E+00
         21   -1    0    0  503  502  0.00000000000E+00  0.00000000000E+00  0.95297082099E+03  0.95297082099E+03  0.00000000000E+00 0. -1.
         21   -1    0    0  501  503 -0.00000000000E+00 -0.00000000000E+00 -0.11902914284E+01  0.11902914284E+01  0.00000000000E+00 0. -1.
          5    1    1    2  501    0 -0.24712344916E+02 -0.21082360705E+02  0.60191120013E+03  0.60278707582E+03  0.00000000000E+00 0.  1.
         -5    1    1    2    0  502  0.24712344916E+02  0.21082360705E+02  0.34986932942E+03  0.35137403660E+03  0.00000000000E+00 0. -1.
<mgrwt>
<rscale>  2 0.32483318E+02</rscale>
<asrwt>0</asrwt>
<pdfrwt beam="1">  1       21 0.14661029E+00 0.32483318E+02</pdfrwt>
<pdfrwt beam="2">  1       21 0.18312252E-03 0.32483318E+02</pdfrwt>
<totfact> 0.14718591E+07</totfact>
</mgrwt>
</event>
<event>
 4    1  0.7119201E+004  0.2048401E+02  0.7546771E-02  0.1735871E+00
         21   -1    0    0  501  502  0.00000000000E+00  0.00000000000E+00  0.39849928960E+02  0.39849928960E+02  0.00000000000E+00 0. -1.
         21   -1    0    0  502  503 -0.00000000000E+00 -0.00000000000E+00 -0.16247753963E+02  0.16247753963E+02  0.00000000000E+00 0. -1.
          2    1    1    2  501    0 -0.16843952090E+01  0.20414639080E+02 -0.48389725448E+01  0.21047810605E+02  0.00000000000E+00 0. -1.
         -2    1    1    2    0  503  0.16843952090E+01 -0.20414639080E+02  0.28441147542E+02  0.35049872318E+02  0.00000000000E+00 0.  1.
<mgrwt>
<rscale>  2 0.20484010E+02</rscale>
<asrwt>0</asrwt>
<pdfrwt beam="1">  1       21 0.61307583E-02 0.20484010E+02</pdfrwt>
<pdfrwt beam="2">  1       21 0.24996545E-02 0.20484010E+02</pdfrwt>
<totfact> 0.10611114E+08</totfact>
</mgrwt>
</event>
<event>
 4    1  0.7119201E+004  0.2206516E+02  0.7546771E-02  0.1707128E+00
         21   -1    0    0  503  502  0.00000000000E+00  0.00000000000E+00  0.14339249121E+04  0.14339249121E+04  0.00000000000E+00 0.  1.
         21   -1    0    0  501  503 -0.00000000000E+00 -0.00000000000E+00 -0.36048715924E+00  0.36048715924E+00  0.00000000000E+00 0.  1.
          1    1    1    2  501    0 -0.18891997971E+02  0.11400156573E+02  0.88966432059E+03  0.88993790485E+03  0.00000000000E+00 0. -1.
         -1    1    1    2    0  502  0.18891997971E+02 -0.11400156573E+02  0.54390010430E+03  0.54434749436E+03  0.00000000000E+00 0.  1.
<mgrwt>
<rscale>  2 0.22065157E+02</rscale>
<asrwt>0</asrwt>
<pdfrwt beam="1">  1       21 0.22059927E+00 0.22065157E+02</pdfrwt>
<pdfrwt beam="2">  1       21 0.55460711E-04 0.22065157E+02</pdfrwt>
<totfact> 0.27552327E+07</totfact>
</mgrwt>
</event>
<event>
 4    1  0.7119201E+004  0.2412948E+02  0.7546771E-02  0.1673830E+00
         21   -1    0    0  501  502  0.00000000000E+00  0.00000000000E+00  0.14789807578E+02  0.14789807578E+02  0.00000000000E+00 0.  1.
         21   -1    0    0  502  503 -0.00000000000E+00 -0.00000000000E+00 -0.49565799104E+02  0.49565799104E+02  0.00000000000E+00 0.  1.
          4    1    1    2  501    0  0.22667058148E+02 -0.82726167605E+01 -0.31984131726E+02  0.40065151883E+02  0.00000000000E+00 0.  1.
         -4    1    1    2    0  503 -0.22667058148E+02  0.82726167605E+01 -0.27918598000E+01  0.24290454798E+02  0.00000000000E+00 0. -1.
<mgrwt>
<rscale>  2 0.24129478E+02</rscale>
<asrwt>0</asrwt>
<pdfrwt beam="1">  1       21 0.22753550E-02 0.24129478E+02</pdfrwt>
<pdfrwt beam="2">  1       21 0.76255075E-02 0.24129478E+02</pdfrwt>
<totfact> 0.90405601E+07</totfact>
</mgrwt>
</event>
<event>
 4    1  0.7119201E+004  0.2112372E+02  0.7546771E-02  0.1723863E+00
         21   -1    0    0  503  502  0.00000000000E+00  0.00000000000E+00  0.40854013569E+03  0.40854013569E+03  0.00000000000E+00 0.  1.
         21   -1    0    0  501  503 -0.00000000000E+00 -0.00000000000E+00 -0.13401387848E+01  0.13401387848E+01  0.00000000000E+00 0.  1.
          3    1    1    2  501    0 -0.21102317059E+02 -0.95076150461E+00  0.29174858894E+03  0.29251230894E+03  0.00000000000E+00 0.  1.
         -3    1    1    2    0  502  0.21102317059E+02  0.95076150461E+00  0.11545140796E+03  0.11736796553E+03  0.00000000000E+00 0. -1.
<mgrwt>
<rscale>  2 0.21123724E+02</rscale>
<asrwt>0</asrwt>
<pdfrwt beam="1">  1       21 0.62852229E-01 0.21123724E+02</pdfrwt>
<pdfrwt beam="2">  1       21 0.20617552E-03 0.21123724E+02</pdfrwt>
<totfact> 0.72988963E+07</totfact>
</mgrwt>
</event>
<event>
 4    1  0.7119201E+004  0.2406095E+02  0.7546771E-02  0.1674868E+00
         21   -1    0    0  501  502  0.00000000000E+00  0.00000000000E+00  0.76646872800E+02  0.76646872800E+02  0.00000000000E+00 0.  1.
         21   -1    0    0  502  503 -0.00000000000E+00 -0.00000000000E+00 -0.75575487053E+01  0.75575487053E+01  0.00000000000E+00 0.  1.
          1    1    1    2  501    0 -0.17537174808E+02 -0.16473518265E+02  0.35554380199E+02  0.42930679655E+02  0.00000000000E+00 0. -1.
         -1    1    1    2    0  503  0.17537174808E+02  0.16473518265E+02  0.33534943896E+02  0.41273741851E+02  0.00000000000E+00 0.  1.
<mgrwt>
<rscale>  2 0.24060950E+02</rscale>
<asrwt>0</asrwt>
<pdfrwt beam="1">  1       21 0.11791826E-01 0.24060950E+02</pdfrwt>
<pdfrwt beam="2">  1       21 0.11626999E-02 0.24060950E+02</pdfrwt>
<totfact> 0.12253566E+08</totfact>
</mgrwt>
</event>
<event>
 4    1  0.7119201E+004  0.2293527E+02  0.7546771E-02  0.1692562E+00
         21   -1    0    0  503  502  0.00000000000E+00  0.00000000000E+00  0.71450036192E+00  0.71450036192E+00  0.00000000000E+00 0.  1.
         21   -1    0    0  501  503 -0.00000000000E+00 -0.00000000000E+00 -0.79146301015E+03  0.79146301015E+03  0.00000000000E+00 0.  1.
          3    1    1    2  501    0 -0.21449357354E+02  0.81210644586E+01 -0.29072612305E+03  0.29162939708E+03  0.00000000000E+00 0.  1.
         -3    1    1    2    0  502  0.21449357354E+02 -0.81210644586E+01 -0.50002238674E+03  0.50054811343E+03  0.00000000000E+00 0. -1.
<mgrwt>
<rscale>  2 0.22935270E+02</rscale>
<asrwt>0</asrwt>
<pdfrwt beam="1">  1       21 0.10992369E-03 0.22935270E+02</pdfrwt>
<pdfrwt beam="2">  1       21 0.12176292E+00 0.22935270E+02</pdfrwt>
<totfact> 0.44760016E+07</totfact>
</mgrwt>
</event>
<event>
 4    1  0.7119201E+004  0.2051867E+02  0.7546771E-02  0.1735206E+00
         21   -1    0    0  501  502  0.00000000000E+00  0.00000000000E+00  0.19849735731E+01  0.19849735731E+01  0.00000000000E+00 0.  1.
         21   -1    0    0  502  503 -0.00000000000E+00 -0.00000000000E+00 -0.22905775295E+03  0.22905775295E+03  0.00000000000E+00 0.  1.
          2    1    1    2  501    0  0.58882718416E+01  0.19655638457E+02 -0.14496714195E+03  0.14641204907E+03  0.00000000000E+00 0.  1.
         -2    1    1    2    0  503 -0.58882718416E+01 -0.19655638457E+02 -0.82105637424E+02  0.84630677448E+02  0.00000000000E+00 0. -1.
<mgrwt>
<rscale>  2 0.20518671E+02</rscale>
<asrwt>0</asrwt>
<pdfrwt beam="1">  1       21 0.30538084E-03 0.20518671E+02</pdfrwt>
<pdfrwt beam="2">  1       21 0.35239621E-01 0.20518671E+02</pdfrwt>
<totfact> 0.12467201E+08</totfact>
</mgrwt>
</event>
<event>
 4    1  0.7119201E+004  0.2120194E+02  0.7546771E-02  0.1722431E+00
         21   -1    0    0  501  502  0.00000000000E+00  0.00000000000E+00  0.24294275113E+03  0.24294275113E+03  0.00000000000E+00 0.  1.
         21   -1    0    0  502  503 -0.00000000000E+00 -0.00000000000E+00 -0.29571722063E+01  0.29571722063E+01  0.00000000000E+00 0.  1.
          3    1    1    2  501    0 -0.21171329413E+02  0.11388789234E+01  0.44772572473E+02  0.49538928936E+02  0.00000000000E+00 0. -1.
         -3    1    1    2    0  503  0.21171329413E+02 -0.11388789234E+01  0.19521300645E+03  0.19636099440E+03  0.00000000000E+00 0.  1.
<mgrwt>
<rscale>  2 0.21201939E+02</rscale>
<asrwt>0</asrwt>
<pdfrwt beam="1">  1       21 0.37375792E-01 0.21201939E+02</pdfrwt>
<pdfrwt beam="2">  1       21 0.45494976E-03 0.21201939E+02</pdfrwt>
<totfact> 0.63034114E+07</totfact>
</mgrwt>
</event>
<event>
 4    1  0.7119201E+004  0.2413318E+02  0.7546771E-02  0.1673774E+00
         21   -1    0    0  501  502  0.00000000000E+00  0.00000000000E+00  0.66522688185E+01  0.66522688185E+01  0.00000000000E+00 0.  1.
         21   -1    0    0  502  503 -0.00000000000E+00 -0.00000000000E+00 -0.96545058594E+02  0.96545058594E+02  0.00000000000E+00 0.  1.
          1    1    1    2  501    0  0.88103934513E-01  0.24133017227E+02 -0.29197126818E+02  0.37879842888E+02  0.00000000000E+00 0. -1.
         -1    1    1    2    0  503 -0.88103934513E-01 -0.24133017227E+02 -0.60695662957E+02  0.65317484524E+02  0.00000000000E+00 0.  1.
<mgrwt>
<rscale>  2 0.24133178E+02</rscale>
<asrwt>0</asrwt>
<pdfrwt beam="1">  1       21 0.10234260E-02 0.24133178E+02</pdfrwt>
<pdfrwt beam="2">  1       21 0.14853085E-01 0.24133178E+02</pdfrwt>
<totfact> 0.10064939E+08</totfact>
</mgrwt>
</event>
<event>
 4    1  0.7119201E+004  0.2156714E+02  0.7546771E-02  0.1715847E+00
         21   -1    0    0  503  502  0.00000000000E+00  0.00000000000E+00  0.78786099901E+01  0.78786099901E+01  0.00000000000E+00 0. -1.
         21   -1    0    0  501  503 -0.00000000000E+00 -0.00000000000E+00 -0.63181464680E+02  0.63181464680E+02  0.00000000000E+00 0. -1.
          4    1    1    2  501    0 -0.20298438806E+02  0.72879859019E+01 -0.18553212991E+02  0.28449307000E+02  0.00000000000E+00 0.  1.
         -4    1    1    2    0  502  0.20298438806E+02 -0.72879859019E+01 -0.36749641698E+02  0.42610767670E+02  0.00000000000E+00 0. -1.
<mgrwt>
<rscale>  2 0.21567136E+02</rscale>
<asrwt>0</asrwt>
<pdfrwt beam="1">  1       21 0.12120939E-02 0.21567136E+02</pdfrwt>
<pdfrwt beam="2">  1       21 0.97202252E-02 0.21567136E+02</pdfrwt>
<totfact> 0.15356022E+08</totfact>
</mgrwt>
</event>
<event>
 4    1  0.7119201E+004  0.2173480E+02  0.7546771E-02  0.1712879E+00
         21   -1    0    0  501  502  0.00000000000E+00  0.00000000000E+00  0.43651919317E+02  0.43651919317E+02  0.00000000000E+00 0.  1.
         21   -1    0    0  502  503 -0.00000000000E+00 -0.00000000000E+00 -0.10822434918E+02  0.10822434918E+02  0.00000000000E+00 0.  1.
          4    1    1    2  501    0 -0.59099661814E+00 -0.21726760401E+02  0.16585928467E+02  0.27340344139E+02  0.00000000000E+00 0.  1.
         -4    1    1    2    0  503  0.59099661814E+00  0.21726760401E+02  0.16243555932E+02  0.27134010095E+02  0.00000000000E+00 0. -1.
<mgrwt>
<rscale>  2 0.21734797E+02</rscale>
<asrwt>0</asrwt>
<pdfrwt beam="1">  1       21 0.67156798E-02 0.21734797E+02</pdfrwt>
<pdfrwt beam="2">  1       21 0.16649900E-02 0.21734797E+02</pdfrwt>
<totfact> 0.17382496E+08</totfact>
</mgrwt>
</event>
<event>
 4    1  0.7119201E+004  0.2677091E+02  0.7546771E-02  0.1636796E+00
         21   -1    0    0  501  502  0.00000000000E+00  0.00000000000E+00  0.31610107743E+02  0.31610107743E+02  0.00000000000E+00 0. -1.
         21   -1    0    0  502  503 -0.00000000000E+00 -0.00000000000E+00 -0.24393406997E+02  0.24393406997E+02  0.00000000000E+00 0. -1.
          1    1    1    2  501    0  0.83985860876E+01 -0.25419389131E+02  0.11045766341E+02  0.28960154457E+02  0.00000000000E+00 0. -1.
         -1    1    1    2    0  503 -0.83985860876E+01  0.25419389131E+02 -0.38290655950E+01  0.27043360283E+02  0.00000000000E+00 0.  1.
<mgrwt>
<rscale>  2 0.26770909E+02</rscale>
<asrwt>0</asrwt>
<pdfrwt beam="1">  1       21 0.48630935E-02 0.26770909E+02</pdfrwt>
<pdfrwt beam="2">  1       21 0.37528318E-02 0.26770909E+02</pdfrwt>
<totfact> 0.87903375E+07</totfact>
</mgrwt>
</event>
<event>
 4    1  0.7119201E+004  0.3663229E+02  0.7546771E-02  0.1534565E+00
         21   -1    0    0  501  502  0.00000000000E+00  0.00000000000E+00  0.65132450968E+01  0.65132450968E+01  0.00000000000E+00 0.  1.
         21   -1    0    0  502  503 -0.00000000000E+00 -0.00000000000E+00 -0.37144303470E+03  0.37144303470E+03  0.00000000000E+00 0.  1.
          1    1    1    2  501    0 -0.36625988735E+02  0.67933937153E+00 -0.30857508801E+03  0.31074186955E+03  0.00000000000E+00 0.  1.
         -1    1    1    2    0  503  0.36625988735E+02 -0.67933937153E+00 -0.56354701595E+02  0.67214410246E+02  0.00000000000E+00 0. -1.
<mgrwt>
<rscale>  2 0.36632288E+02</rscale>
<asrwt>0</asrwt>
<pdfrwt beam="1">  1       21 0.10020373E-02 0.36632288E+02</pdfrwt>
<pdfrwt beam="2">  1       21 0.57145103E-01 0.36632288E+02</pdfrwt>
<totfact> 0.94293019E+06</totfact>
</mgrwt>
</event>
<event>
 4    1  0.7119201E+004  0.2434566E+02  0.7546771E-02  0.1670582E+00
         21   -1    0    0  503  502  0.00000000000E+00  0.00000000000E+00  0.16091457991E+03  0.16091457991E+03  0.00000000000E+00 0. -1.
         21   -1    0    0  501  503 -0.00000000000E+00 -0.00000000000E+00 -0.37327693951E+01  0.37327693951E+01  0.00000000000E+00 0. -1.
          3    1    1    2  501    0 -0.24315003738E+02  0.12212780598E+01  0.69122250740E+02  0.73284353543E+02  0.00000000000E+00 0.  1.
         -3    1    1    2    0  502  0.24315003738E+02 -0.12212780598E+01  0.88059559778E+02  0.91362995765E+02  0.00000000000E+00 0. -1.
<mgrwt>
<rscale>  2 0.24345655E+02</rscale>
<asrwt>0</asrwt>
<pdfrwt beam="1">  1       21 0.24756084E-01 0.24345655E+02</pdfrwt>
<pdfrwt beam="2">  1       21 0.57427234E-03 0.24345655E+02</pdfrwt>
<totfact> 0.98173058E+07</totfact>
</mgrwt>
</event>
<event>
 4    1  0.7119201E+004  0.3784306E+02  0.7546771E-02  0.1524712E+00
         21   -1    0    0  501  502  0.00000000000E+00  0.00000000000E+00  0.57016520490E+02  0.57016520490E+02  0.00000000000E+00 0.  1.
         21   -1    0    0  502  503 -0.00000000000E+00 -0.00000000000E+00 -0.25733081412E+02  0.25733081412E+02  0.00000000000E+00 0.  1.
          5    1    1    2  501    0  0.31177192881E+02 -0.21449474496E+02  0.92410349647E+01  0.38955025854E+02  0.00000000000E+00 0.  1.
         -5    1    1    2    0  503 -0.31177192881E+02  0.21449474496E+02  0.22042404114E+02  0.43794576048E+02  0.00000000000E+00 0. -1.
<mgrwt>
<rscale>  2 0.37843062E+02</rscale>
<asrwt>0</asrwt>
<pdfrwt beam="1">  1       21 0.87717723E-02 0.37843062E+02</pdfrwt>
<pdfrwt beam="2">  1       21 0.39589356E-02 0.37843062E+02</pdfrwt>
<totfact> 0.33218104E+07</totfact>
</mgrwt>
</event>
<event>
 4    1  0.7119201E+004  0.2552711E+02  0.7546771E-02  0.1653544E+00
         21   -1    0    0  503  502  0.00000000000E+00  0.00000000000E+00  0.21421030069E+01  0.21421030069E+01  0.00000000000E+00 0. -1.
         21   -1    0    0  501  503 -0.00000000000E+00 -0.00000000000E+00 -0.32562425820E+03  0.32562425820E+03  0.00000000000E+00 0. -1.
          2    1    1    2  501    0  0.12645491541E+02  0.22174866400E+02 -0.11970683258E+03  0.12239836160E+03  0.00000000000E+00 0. -1.
         -2    1    1    2    0  502 -0.12645491541E+02 -0.22174866400E+02 -0.20377532262E+03  0.20536799961E+03  0.00000000000E+00 0.  1.
<mgrwt>
<rscale>  2 0.25527106E+02</rscale>
<asrwt>0</asrwt>
<pdfrwt beam="1">  1       21 0.32955403E-03 0.25527106E+02</pdfrwt>
<pdfrwt beam="2">  1       21 0.50096083E-01 0.25527106E+02</pdfrwt>
<totfact> 0.60541524E+07</totfact>
</mgrwt>
</event>
<event>
 4    1  0.7119201E+004  0.2398326E+02  0.7546771E-02  0.1676050E+00
         21   -1    0    0  503  502  0.00000000000E+00  0.00000000000E+00  0.13206384893E+03  0.13206384893E+03  0.00000000000E+00 0.  1.
         21   -1    0    0  501  503 -0.00000000000E+00 -0.00000000000E+00 -0.46828428005E+01  0.46828428005E+01  0.00000000000E+00 0.  1.
          4    1    1    2  501    0 -0.17053422865E+02 -0.16863490347E+02  0.45611628552E+02  0.51532680866E+02  0.00000000000E+00 0.  1.
         -4    1    1    2    0  502  0.17053422865E+02  0.16863490347E+02  0.81769377577E+02  0.85214010863E+02  0.00000000000E+00 0. -1.
<mgrwt>
<rscale>  2 0.23983255E+02</rscale>
<asrwt>0</asrwt>
<pdfrwt beam="1">  1       21 0.20317512E-01 0.23983255E+02</pdfrwt>
<pdfrwt beam="2">  1       21 0.72043745E-03 0.23983255E+02</pdfrwt>
<totfact> 0.98971160E+07</totfact>
</mgrwt>
</event>
<event>
 4    1  0.7119201E+004  0.2644037E+02  0.7546771E-02  0.1641136E+00
         21   -1    0    0  501  502  0.00000000000E+00  0.00000000000E+00  0.63583823180E+02  0.63583823180E+02  0.00000000000E+00 0.  1.
         21   -1    0    0  502  503 -0.00000000000E+00 -0.00000000000E+00 -0.11068386698E+02  0.11068386698E+02  0.00000000000E+00 0.  1.
          2    1    1    2  501    0 -0.23283098303E+02  0.12529581315E+02  0.29300657816E+02  0.39466715381E+02  0.00000000000E+00 0. -1.
         -2    1    1    2    0  503  0.23283098303E+02 -0.12529581315E+02  0.23214778666E+02  0.35185494497E+02  0.00000000000E+00 0.  1.
<mgrwt>
<rscale>  2 0.26440368E+02</rscale>
<asrwt>0</asrwt>
<pdfrwt beam="1">  1       21 0.97821265E-02 0.26440368E+02</pdfrwt>
<pdfrwt beam="2">  1       21 0.17028288E-02 0.26440368E+02</pdfrwt>
<totfact> 0.96023371E+07</totfact>
</mgrwt>
</event>
<event>
 4    1  0.7119201E+004  0.2353040E+02  0.7546771E-02  0.1683054E+00
         21   -1    0    0  503  502  0.00000000000E+00  0.00000000000E+00  0.17565549346E+01  0.17565549346E+01  0.00000000000E+00 0.  1.
         21   -1    0    0  501  503 -0.00000000000E+00 -0.00000000000E+00 -0.36921456169E+03  0.36921456169E+03  0.00000000000E+00 0.  1.
          2    1    1    2  501    0 -0.14498126034E+02 -0.18533321836E+02 -0.25466963966E+03  0.25575438421E+03  0.00000000000E+00 0. -1.
         -2    1    1    2    0  502  0.14498126034E+02  0.18533321836E+02 -0.11278836709E+03  0.11521673241E+03  0.00000000000E+00 0.  1.
<mgrwt>
<rscale>  2 0.23530399E+02</rscale>
<asrwt>0</asrwt>
<pdfrwt beam="1">  1       21 0.27023878E-03 0.23530399E+02</pdfrwt>
<pdfrwt beam="2">  1       21 0.56802332E-01 0.23530399E+02</pdfrwt>
<totfact> 0.61990035E+07</totfact>
</mgrwt>
</event>
<event>
 4    1  0.7119201E+004  0.2188515E+02  0.7546771E-02  0.1710246E+00
         21   -1    0    0  501  502  0.00000000000E+00  0.00000000000E+00  0.14698818380E+03  0.14698818380E+03  0.00000000000E+00 0. -1.
         21   -1    0    0  502  503 -0.00000000000E+00 -0.00000000000E+00 -0.33343128174E+01  0.33343128174E+01  0.00000000000E+00 0. -1.
          3    1    1    2  501    0 -0.19873845811E+02 -0.91646182404E+01  0.60492965792E+02  0.64330077609E+02  0.00000000000E+00 0.  1.
         -3    1    1    2    0  503  0.19873845811E+02  0.91646182404E+01  0.83160905187E+02  0.85992419005E+02  0.00000000000E+00 0. -1.
<mgrwt>
<rscale>  2 0.21885154E+02</rscale>
<asrwt>0</asrwt>
<pdfrwt beam="1">  1       21 0.22613562E-01 0.21885154E+02</pdfrwt>
<pdfrwt beam="2">  1       21 0.51297132E-03 0.21885154E+02</pdfrwt>
<totfact> 0.13222414E+08</totfact>
</mgrwt>
</event>
<event>
 4    1  0.7119201E+004  0.3341642E+02  0.7546771E-02  0.1563130E+00
         21   -1    0    0  503  502  0.00000000000E+00  0.00000000000E+00  0.43243922815E+03  0.43243922815E+03  0.00000000000E+00 0.  1.
         21   -1    0    0  501  503 -0.00000000000E+00 -0.00000000000E+00 -0.28076734924E+01  0.28076734924E+01  0.00000000000E+00 0.  1.
          4    1    1    2  501    0 -0.31111525510E+02 -0.12195486617E+02  0.15314880062E+03  0.15675207190E+03  0.00000000000E+00 0. -1.
         -4    1    1    2    0  502  0.31111525510E+02  0.12195486617E+02  0.27648275403E+03  0.27849482974E+03  0.00000000000E+00 0.  1.
<mgrwt>
<rscale>  2 0.33416417E+02</rscale>
<asrwt>0</asrwt>
<pdfrwt beam="1">  1       21 0.66529059E-01 0.33416417E+02</pdfrwt>
<pdfrwt beam="2">  1       21 0.43195011E-03 0.33416417E+02</pdfrwt>
<totfact> 0.24207197E+07</totfact>
</mgrwt>
</event>
<event>
 4    1  0.7119201E+004  0.2406841E+02  0.7546771E-02  0.1674755E+00
         21   -1    0    0  503  502  0.00000000000E+00  0.00000000000E+00  0.22774621878E+01  0.22774621878E+01  0.00000000000E+00 0.  1.
         21   -1    0    0  501  503 -0.00000000000E+00 -0.00000000000E+00 -0.26433793993E+03  0.26433793993E+03  0.00000000000E+00 0.  1.
          5    1    1    2  501    0  0.13353673238E+02 -0.20024184946E+02 -0.10512664374E+03  0.10784664945E+03  0.00000000000E+00 0. -1.
         -5    1    1    2    0  502 -0.13353673238E+02  0.20024184946E+02 -0.15693383399E+03  0.15876875267E+03  0.00000000000E+00 0.  1.
<mgrwt>
<rscale>  2 0.24068414E+02</rscale>
<asrwt>0</asrwt>
<pdfrwt beam="1">  1       21 0.35037890E-03 0.24068414E+02</pdfrwt>
<pdfrwt beam="2">  1       21 0.40667363E-01 0.24068414E+02</pdfrwt>
<totfact> 0.81488749E+07</totfact>
</mgrwt>
</event>
<event>
 4    1  0.7119201E+004  0.2290349E+02  0.7546771E-02  0.1693079E+00
         21   -1    0    0  503  502  0.00000000000E+00  0.00000000000E+00  0.66716313759E+02  0.66716313759E+02  0.00000000000E+00 0.  1.
         21   -1    0    0  501  503 -0.00000000000E+00 -0.00000000000E+00 -0.90154568452E+01  0.90154568452E+01  0.00000000000E+00 0.  1.
          3    1    1    2  501    0  0.21480507983E+02  0.79471667194E+01  0.15310230456E+02  0.27549461677E+02  0.00000000000E+00 0. -1.
         -3    1    1    2    0  502 -0.21480507983E+02 -0.79471667194E+01  0.42390626458E+02  0.48182308927E+02  0.00000000000E+00 0.  1.
<mgrwt>
<rscale>  2 0.22903486E+02</rscale>
<asrwt>0</asrwt>
<pdfrwt beam="1">  1       21 0.10264048E-01 0.22903486E+02</pdfrwt>
<pdfrwt beam="2">  1       21 0.13869934E-02 0.22903486E+02</pdfrwt>
<totfact> 0.11655446E+08</totfact>
</mgrwt>
</event>
<event>
 4    1  0.7119201E+004  0.2024531E+02  0.7546771E-02  0.1740493E+00
         21   -1    0    0  503  502  0.00000000000E+00  0.00000000000E+00  0.20646683893E+01  0.20646683893E+01  0.00000000000E+00 0.  1.
         21   -1    0    0  501  503 -0.00000000000E+00 -0.00000000000E+00 -0.21872859759E+03  0.21872859759E+03  0.00000000000E+00 0.  1.
          3    1    1    2  501    0  0.15451273872E+02 -0.13081698607E+02 -0.74773774041E+02  0.77466057000E+02  0.00000000000E+00 0.  1.
         -3    1    1    2    0  502 -0.15451273872E+02  0.13081698607E+02 -0.14189015516E+03  0.14332720898E+03  0.00000000000E+00 0. -1.
<mgrwt>
<rscale>  2 0.20245313E+02</rscale>
<asrwt>0</asrwt>
<pdfrwt beam="1">  1       21 0.31764132E-03 0.20245313E+02</pdfrwt>
<pdfrwt beam="2">  1       21 0.33650551E-01 0.20245313E+02</pdfrwt>
<totfact> 0.12768035E+08</totfact>
</mgrwt>
</event>
<event>
 4    1  0.7119201E+004  0.4340893E+02  0.7546771E-02  0.1484526E+00
         21   -1    0    0  501  502  0.00000000000E+00  0.00000000000E+00  0.16878249342E+02  0.16878249342E+02  0.00000000000E+00 0. -1.
         21   -1    0    0  502  503 -0.00000000000E+00 -0.00000000000E+00 -0.13940428881E+03  0.13940428881E+03  0.00000000000E+00 0. -1.
          3    1    1    2  501    0  0.36912791591E+02 -0.22842528999E+02 -0.26392081642E+02  0.50802335453E+02  0.00000000000E+00 0.  1.
         -3    1    1    2    0  503 -0.36912791591E+02  0.22842528999E+02 -0.96133957823E+02  0.10548020270E+03  0.00000000000E+00 0. -1.
<mgrwt>
<rscale>  2 0.43408931E+02</rscale>
<asrwt>0</asrwt>
<pdfrwt beam="1">  1       21 0.25966536E-02 0.43408931E+02</pdfrwt>
<pdfrwt beam="2">  1       21 0.21446815E-01 0.43408931E+02</pdfrwt>
<totfact> 0.14149377E+07</totfact>
</mgrwt>
</event>
<event>
 4    1  0.7119201E+004  0.2275123E+02  0.7546771E-02  0.1695575E+00
         21   -1    0    0  503  502  0.00000000000E+00  0.00000000000E+00  0.53193795826E+02  0.53193795826E+02  0.00000000000E+00 0.  1.
         21   -1    0    0  501  503 -0.00000000000E+00 -0.00000000000E+00 -0.10099758958E+02  0.10099758958E+02  0.00000000000E+00 0.  1.
          3    1    1    2  501    0 -0.10526311869E+02 -0.20169658913E+02  0.15498334760E+02  0.27528471854E+02  0.00000000000E+00 0. -1.
         -3    1    1    2    0  502  0.10526311869E+02  0.20169658913E+02  0.27595702107E+02  0.35765082931E+02  0.00000000000E+00 0.  1.
<mgrwt>
<rscale>  2 0.22751228E+02</rscale>
<asrwt>0</asrwt>
<pdfrwt beam="1">  1       21 0.81836608E-02 0.22751228E+02</pdfrwt>
<pdfrwt beam="2">  1       21 0.15538091E-02 0.22751228E+02</pdfrwt>
<totfact> 0.14208674E+08</totfact>
</mgrwt>
</event>
<event>
 4    1  0.7119201E+004  0.2553235E+02  0.7546771E-02  0.1653471E+00
         21   -1    0    0  503  502  0.00000000000E+00  0.00000000000E+00  0.51938232298E+03  0.51938232298E+03  0.00000000000E+00 0.  1.
         21   -1    0    0  501  503 -0.00000000000E+00 -0.00000000000E+00 -0.12551945574E+01  0.12551945574E+01  0.00000000000E+00 0.  1.
          4    1    1    2  501    0  0.34967749644E+01  0.25291770836E+02  0.26066777923E+03  0.26191523865E+03  0.00000000000E+00 0. -1.
         -4    1    1    2    0  502 -0.34967749644E+01 -0.25291770836E+02  0.25745934919E+03  0.25872227888E+03  0.00000000000E+00 0.  1.
<mgrwt>
<rscale>  2 0.25532354E+02</rscale>
<asrwt>0</asrwt>
<pdfrwt beam="1">  1       21 0.79904801E-01 0.25532354E+02</pdfrwt>
<pdfrwt beam="2">  1       21 0.19310727E-03 0.25532354E+02</pdfrwt>
<totfact> 0.51186244E+07</totfact>
</mgrwt>
</event>
<event>
 4    1  0.7119201E+004  0.2319994E+02  0.7546771E-02  0.1688290E+00
         21   -1    0    0  501  502  0.00000000000E+00  0.00000000000E+00  0.61119605121E+01  0.61119605121E+01  0.00000000000E+00 0.  1.
         21   -1    0    0  502  503 -0.00000000000E+00 -0.00000000000E+00 -0.99079449602E+02  0.99079449602E+02  0.00000000000E+00 0.  1.
          1    1    1    2  501    0 -0.19653107238E+02  0.12328525785E+02 -0.64021767144E+02  0.68095696196E+02  0.00000000000E+00 0. -1.
         -1    1    1    2    0  503  0.19653107238E+02 -0.12328525785E+02 -0.28945721946E+02  0.37095713918E+02  0.00000000000E+00 0.  1.
<mgrwt>
<rscale>  2 0.23199939E+02</rscale>
<asrwt>0</asrwt>
<pdfrwt beam="1">  1       21 0.94030180E-03 0.23199939E+02</pdfrwt>
<pdfrwt beam="2">  1       21 0.15242989E-01 0.23199939E+02</pdfrwt>
<totfact> 0.10816966E+08</totfact>
</mgrwt>
</event>
<event>
 4    1  0.7119201E+004  0.2342904E+02  0.7546771E-02  0.1684648E+00
         21   -1    0    0  503  502  0.00000000000E+00  0.00000000000E+00  0.10654386016E+03  0.10654386016E+03  0.00000000000E+00 0.  1.
         21   -1    0    0  501  503 -0.00000000000E+00 -0.00000000000E+00 -0.55276925574E+01  0.55276925574E+01  0.00000000000E+00 0.  1.
          5    1    1    2  501    0 -0.97640481944E+01 -0.21297500081E+02  0.35900572730E+02  0.42869234530E+02  0.00000000000E+00 0.  1.
         -5    1    1    2    0  502  0.97640481944E+01  0.21297500081E+02  0.65115594871E+02  0.69202318185E+02  0.00000000000E+00 0. -1.
<mgrwt>
<rscale>  2 0.23429045E+02</rscale>
<asrwt>0</asrwt>
<pdfrwt beam="1">  1       21 0.16391362E-01 0.23429045E+02</pdfrwt>
<pdfrwt beam="2">  1       21 0.85041432E-03 0.23429045E+02</pdfrwt>
<totfact> 0.11135542E+08</totfact>
</mgrwt>
</event>
<event>
 4    1  0.7119201E+004  0.3795750E+02  0.7546771E-02  0.1523804E+00
         21   -1    0    0  501  502  0.00000000000E+00  0.00000000000E+00  0.49190084044E+03  0.49190084044E+03  0.00000000000E+00 0. -1.
         21   -1    0    0  502  503 -0.00000000000E+00 -0.00000000000E+00 -0.39945055505E+01  0.39945055505E+01  0.00000000000E+00 0. -1.
          3    1    1    2  501    0 -0.35810818185E+02  0.12583998066E+02  0.37201178417E+03  0.37394323001E+03  0.00000000000E+00 0.  1.
         -3    1    1    2    0  503  0.35810818185E+02 -0.12583998066E+02  0.11589455071E+03  0.12195211598E+03  0.00000000000E+00 0. -1.
<mgrwt>
<rscale>  2 0.37957499E+02</rscale>
<asrwt>0</asrwt>
<pdfrwt beam="1">  1       21 0.75677004E-01 0.37957499E+02</pdfrwt>
<pdfrwt beam="2">  1       21 0.61453971E-03 0.37957499E+02</pdfrwt>
<totfact> 0.11108639E+07</totfact>
</mgrwt>
</event>
<event>
 4    1  0.7119201E+004  0.2692905E+02  0.7546771E-02  0.1634746E+00
         21   -1    0    0  501  502  0.00000000000E+00  0.00000000000E+00  0.35521887327E+02  0.35521887327E+02  0.00000000000E+00 0.  1.
         21   -1    0    0  502  503 -0.00000000000E+00 -0.00000000000E+00 -0.21256823003E+02  0.21256823003E+02  0.00000000000E+00 0.  1.
          3    1    1    2  501    0 -0.30840749614E+01  0.26751866737E+02  0.12782633355E+02  0.29808884712E+02  0.00000000000E+00 0.  1.
         -3    1    1    2    0  503  0.30840749614E+01 -0.26751866737E+02  0.14824309689E+01  0.26969825618E+02  0.00000000000E+00 0. -1.
<mgrwt>
<rscale>  2 0.26929053E+02</rscale>
<asrwt>0</asrwt>
<pdfrwt beam="1">  1       21 0.54649057E-02 0.26929053E+02</pdfrwt>
<pdfrwt beam="2">  1       21 0.32702805E-02 0.26929053E+02</pdfrwt>
<totfact> 0.90701591E+07</totfact>
</mgrwt>
</event>
<event>
 4    1  0.7119201E+004  0.4129371E+02  0.7546771E-02  0.1498901E+00
         21   -1    0    0  501  502  0.00000000000E+00  0.00000000000E+00  0.95268427626E+00  0.95268427626E+00  0.00000000000E+00 0. -1.
         21   -1    0    0  502  503 -0.00000000000E+00 -0.00000000000E+00 -0.17917738444E+04  0.17917738444E+04  0.00000000000E+00 0. -1.
          2    1    1    2  501    0  0.68682252429E+01  0.40718518717E+02 -0.92471532506E+03  0.92563686329E+03  0.00000000000E+00 0.  1.
         -2    1    1    2    0  503 -0.68682252429E+01 -0.40718518717E+02 -0.86610583506E+03  0.86708966538E+03  0.00000000000E+00 0. -1.
<mgrwt>
<rscale>  2 0.41293708E+02</rscale>
<asrwt>0</asrwt>
<pdfrwt beam="1">  1       21 0.14656666E-03 0.41293708E+02</pdfrwt>
<pdfrwt beam="2">  1       21 0.27565780E+00 0.41293708E+02</pdfrwt>
<totfact> 0.36937374E+06</totfact>
</mgrwt>
</event>
<event>
 4    1  0.7119201E+004  0.2535262E+02  0.7546771E-02  0.1655988E+00
         21   -1    0    0  501  502  0.00000000000E+00  0.00000000000E+00  0.12237750505E+03  0.12237750505E+03  0.00000000000E+00 0. -1.
         21   -1    0    0  502  503 -0.00000000000E+00 -0.00000000000E+00 -0.58562421247E+01  0.58562421247E+01  0.00000000000E+00 0. -1.
          4    1    1    2  501    0  0.20500710480E+02 -0.14915629398E+02  0.37669287529E+02  0.45406280991E+02  0.00000000000E+00 0.  1.
         -4    1    1    2    0  503 -0.20500710480E+02  0.14915629398E+02  0.78851975400E+02  0.82827466188E+02  0.00000000000E+00 0. -1.
<mgrwt>
<rscale>  2 0.25352616E+02</rscale>
<asrwt>0</asrwt>
<pdfrwt beam="1">  1       21 0.18827307E-01 0.25352616E+02</pdfrwt>
<pdfrwt beam="2">  1       21 0.90096042E-03 0.25352616E+02</pdfrwt>
<totfact> 0.82071536E+07</totfact>
</mgrwt>
</event>
<event>
 4    1  0.7119201E+004  0.2958700E+02  0.7546771E-02  0.1602699E+00
         21   -1    0    0  501  502  0.00000000000E+00  0.00000000000E+00  0.19876813643E+03  0.19876813643E+03  0.00000000000E+00 0. -1.
         21   -1    0    0  502  503 -0.00000000000E+00 -0.00000000000E+00 -0.74789188752E+01  0.74789188752E+01  0.00000000000E+00 0. -1.
          5    1    1    2  501    0 -0.15891816305E+02  0.24956772994E+02  0.16176717258E+03  0.16445062624E+03  0.00000000000E+00 0.  1.
         -5    1    1    2    0  503  0.15891816305E+02 -0.24956772994E+02  0.29522044974E+02  0.41796429072E+02  0.00000000000E+00 0. -1.
<mgrwt>
<rscale>  2 0.29586996E+02</rscale>
<asrwt>0</asrwt>
<pdfrwt beam="1">  1       21 0.30579709E-01 0.29586996E+02</pdfrwt>
<pdfrwt beam="2">  1       21 0.11506031E-02 0.29586996E+02</pdfrwt>
<totfact> 0.24629010E+07</totfact>
</mgrwt>
</event>
<event>
 4    1  0.7119201E+004  0.2321393E+02  0.7546771E-02  0.1688066E+00
         21   -1    0    0  503  502  0.00000000000E+00  0.00000000000E+00  0.60941754751E+02  0.60941754751E+02  0.00000000000E+00 0.  1.
         21   -1    0    0  501  503 -0.00000000000E+00 -0.00000000000E+00 -0.90922368421E+01  0.90922368421E+01  0.00000000000E+00 0.  1.
          4    1    1    2  501    0  0.64053239002E+01  0.22312745063E+02  0.20123101424E+02  0.30721750885E+02  0.00000000000E+00 0. -1.
         -4    1    1    2    0  502 -0.64053239002E+01 -0.22312745063E+02  0.31726416484E+02  0.39312240708E+02  0.00000000000E+00 0.  1.
<mgrwt>
<rscale>  2 0.23213935E+02</rscale>
<asrwt>0</asrwt>
<pdfrwt beam="1">  1       21 0.93756543E-02 0.23213935E+02</pdfrwt>
<pdfrwt beam="2">  1       21 0.13988057E-02 0.23213935E+02</pdfrwt>
<totfact> 0.13416004E+08</totfact>
</mgrwt>
</event>
<event>
 4    1  0.7119201E+004  0.2390903E+02  0.7546771E-02  0.1677185E+00
         21   -1    0    0  501  502  0.00000000000E+00  0.00000000000E+00  0.98850192111E+01  0.98850192111E+01  0.00000000000E+00 0. -1.
         21   -1    0    0  502  503 -0.00000000000E+00 -0.00000000000E+00 -0.74538903366E+02  0.74538903366E+02  0.00000000000E+00 0. -1.
          3    1    1    2  501    0 -0.19811134283E+02  0.13385084949E+02 -0.52313131332E+02  0.57517868967E+02  0.00000000000E+00 0.  1.
         -3    1    1    2    0  503  0.19811134283E+02 -0.13385084949E+02 -0.12340752823E+02  0.26906053611E+02  0.00000000000E+00 0. -1.
<mgrwt>
<rscale>  2 0.23909026E+02</rscale>
<asrwt>0</asrwt>
<pdfrwt beam="1">  1       21 0.15207722E-02 0.23909026E+02</pdfrwt>
<pdfrwt beam="2">  1       21 0.11467524E-01 0.23909026E+02</pdfrwt>
<totfact> 0.85292707E+07</totfact>
</mgrwt>
</event>
<event>
 4    1  0.7119201E+004  0.2853667E+02  0.7546771E-02  0.1614851E+00
         21   -1    0    0  503  502  0.00000000000E+00  0.00000000000E+00  0.21191879383E+01  0.21191879383E+01  0.00000000000E+00 0. -1.
         21   -1    0    0  501  503 -0.00000000000E+00 -0.00000000000E+00 -0.46408585077E+03  0.46408585077E+03  0.00000000000E+00 0. -1.
          5    1    1    2  501    0 -0.20958654405E+02 -0.19366881882E+02 -0.13431345894E+03  0.13731149464E+03  0.00000000000E+00 0. -1.
         -5    1    1    2    0  502  0.20958654405E+02  0.19366881882E+02 -0.32765320390E+03  0.32889354407E+03  0.00000000000E+00 0.  1.
<mgrwt>
<rscale>  2 0.28536666E+02</rscale>
<asrwt>0</asrwt>
<pdfrwt beam="1">  1       21 0.32602890E-03 0.28536666E+02</pdfrwt>
<pdfrwt beam="2">  1       21 0.71397826E-01 0.28536666E+02</pdfrwt>
<totfact> 0.30844892E+07</totfact>
</mgrwt>
</event>
<event>
 4    1  0.7119201E+004  0.2952406E+02  0.7546771E-02  0.1603410E+00
         21   -1    0    0  501  502  0.00000000000E+00  0.00000000000E+00  0.24662302002E+02  0.24662302002E+02  0.00000000000E+00 0.  1.
         21   -1    0    0  502  503 -0.00000000000E+00 -0.00000000000E+00 -0.39125802749E+02  0.39125802749E+02  0.00000000000E+00 0.  1.
          5    1    1    2  501    0  0.16011487002E+02  0.24805290704E+02 -0.17147238433E+02  0.34142319031E+02  0.00000000000E+00 0.  1.
         -5    1    1    2    0  503 -0.16011487002E+02 -0.24805290704E+02  0.26837376860E+01  0.29645785719E+02  0.00000000000E+00 0. -1.
<mgrwt>
<rscale>  2 0.29524061E+02</rscale>
<asrwt>0</asrwt>
<pdfrwt beam="1">  1       21 0.37942003E-02 0.29524061E+02</pdfrwt>
<pdfrwt beam="2">  1       21 0.60193543E-02 0.29524061E+02</pdfrwt>
<totfact> 0.62788591E+07</totfact>
</mgrwt>
</event>
<event>
 4    1  0.7119201E+004  0.2971128E+02  0.7546771E-02  0.1601302E+00
         21   -1    0    0  503  502  0.00000000000E+00  0.00000000000E+00  0.24561249633E+03  0.24561249633E+03  0.00000000000E+00 0.  1.
         21   -1    0    0  501  503 -0.00000000000E+00 -0.00000000000E+00 -0.36756716626E+01  0.36756716626E+01  0.00000000000E+00 0.  1.
          2    1    1    2  501    0  0.24806829252E+02  0.16351805471E+02  0.10240213759E+03  0.10662531643E+03  0.00000000000E+00 0.  1.
         -2    1    1    2    0  502 -0.24806829252E+02 -0.16351805471E+02  0.13953468707E+03  0.14266285156E+03  0.00000000000E+00 0. -1.
<mgrwt>
<rscale>  2 0.29711283E+02</rscale>
<asrwt>0</asrwt>
<pdfrwt beam="1">  1       21 0.37786525E-01 0.29711283E+02</pdfrwt>
<pdfrwt beam="2">  1       21 0.56548814E-03 0.29711283E+02</pdfrwt>
<totfact> 0.48412226E+07</totfact>
</mgrwt>
</event>
<event>
 4    1  0.7119201E+004  0.2584294E+02  0.7546771E-02  0.1649182E+00
         21   -1    0    0  501  502  0.00000000000E+00  0.00000000000E+00  0.34300138181E+01  0.34300138181E+01  0.00000000000E+00 0. -1.
         21   -1    0    0  502  503 -0.00000000000E+00 -0.00000000000E+00 -0.20044104249E+03  0.20044104249E+03  0.00000000000E+00 0. -1.
          1    1    1    2  501    0  0.80207381358E+01  0.24566752401E+02 -0.81268827972E+02  0.85278836552E+02  0.00000000000E+00 0.  1.
         -1    1    1    2    0  503 -0.80207381358E+01 -0.24566752401E+02 -0.11574220070E+03  0.11859221975E+03  0.00000000000E+00 0. -1.
<mgrwt>
<rscale>  2 0.25842940E+02</rscale>
<asrwt>0</asrwt>
<pdfrwt beam="1">  1       21 0.52769435E-03 0.25842940E+02</pdfrwt>
<pdfrwt beam="2">  1       21 0.30837088E-01 0.25842940E+02</pdfrwt>
<totfact> 0.75910165E+07</totfact>
</mgrwt>
</event>
<event>
 4    1  0.7119201E+004  0.3291654E+02  0.7546771E-02  0.1567921E+00
         21   -1    0    0  501  502  0.00000000000E+00  0.00000000000E+00  0.21404852592E+03  0.21404852592E+03  0.00000000000E+00 0.  1.
         21   -1    0    0  502  503 -0.00000000000E+00 -0.00000000000E+00 -0.65656229817E+01  0.65656229817E+01  0.00000000000E+00 0.  1.
          5    1    1    2  501    0 -0.13345185494E+02 -0.30089939074E+02  0.50952243249E+02  0.60659949732E+02  0.00000000000E+00 0.  1.
         -5    1    1    2    0  503  0.13345185494E+02  0.30089939074E+02  0.15653065969E+03  0.15995419917E+03  0.00000000000E+00 0. -1.
<mgrwt>
<rscale>  2 0.32916537E+02</rscale>
<asrwt>0</asrwt>
<pdfrwt beam="1">  1       21 0.32930537E-01 0.32916537E+02</pdfrwt>
<pdfrwt beam="2">  1       21 0.10100960E-02 0.32916537E+02</pdfrwt>
<totfact> 0.26682408E+07</totfact>
</mgrwt>
</event>
<event>
 4    1  0.7119201E+004  0.2070329E+02  0.7546771E-02  0.1731693E+00
         21   -1    0    0  501  502  0.00000000000E+00  0.00000000000E+00  0.59238386349E+01  0.59238386349E+01  0.00000000000E+00 0.  1.
         21   -1    0    0  502  503 -0.00000000000E+00 -0.00000000000E+00 -0.72850205915E+02  0.72850205915E+02  0.00000000000E+00 0.  1.
          1    1    1    2  501    0 -0.11748709947E+02  0.17046821694E+02 -0.30219682510E+02  0.36631346225E+02  0.00000000000E+00 0. -1.
         -1    1    1    2    0  503  0.11748709947E+02 -0.17046821694E+02 -0.36706684770E+02  0.42142698325E+02  0.00000000000E+00 0.  1.
<mgrwt>
<rscale>  2 0.20703292E+02</rscale>
<asrwt>0</asrwt>
<pdfrwt beam="1">  1       21 0.91135980E-03 0.20703292E+02</pdfrwt>
<pdfrwt beam="2">  1       21 0.11207724E-01 0.20703292E+02</pdfrwt>
<totfact> 0.18377529E+08</totfact>
</mgrwt>
</event>
<event>
 4    1  0.7119201E+004  0.2216265E+02  0.7546771E-02  0.1705454E+00
         21   -1    0    0  503  502  0.00000000000E+00  0.00000000000E+00  0.12125183590E+01  0.12125183590E+01  0.00000000000E+00 0.  1.
         21   -1    0    0  501  503 -0.00000000000E+00 -0.00000000000E+00 -0.40762889552E+03  0.40762889552E+03  0.00000000000E+00 0.  1.
          5    1    1    2  501    0 -0.20177126405E+02  0.91687973231E+01 -0.18708624141E+03  0.18839438686E+03  0.00000000000E+00 0.  1.
         -5    1    1    2    0  502  0.20177126405E+02 -0.91687973231E+01 -0.21933013575E+03  0.22044702702E+03  0.00000000000E+00 0. -1.
<mgrwt>
<rscale>  2 0.22162655E+02</rscale>
<asrwt>0</asrwt>
<pdfrwt beam="1">  1       21 0.18654145E-03 0.22162655E+02</pdfrwt>
<pdfrwt beam="2">  1       21 0.62712084E-01 0.22162655E+02</pdfrwt>
<totfact> 0.85717158E+07</totfact>
</mgrwt>
</event>
<event>
 4    1  0.7119201E+004  0.2318886E+02  0.7546771E-02  0.1688467E+00
         21   -1    0    0  503  502  0.00000000000E+00  0.00000000000E+00  0.17028941198E+02  0.17028941198E+02  0.00000000000E+00 0. -1.
         21   -1    0    0  501  503 -0.00000000000E+00 -0.00000000000E+00 -0.35957515388E+02  0.35957515388E+02  0.00000000000E+00 0. -1.
          4    1    1    2  501    0  0.11498248443E+02 -0.20137366813E+02 -0.21727269492E+00  0.23189878543E+02  0.00000000000E+00 0. -1.
         -4    1    1    2    0  502 -0.11498248443E+02  0.20137366813E+02 -0.18711301494E+02  0.29796578042E+02  0.00000000000E+00 0.  1.
<mgrwt>
<rscale>  2 0.23188861E+02</rscale>
<asrwt>0</asrwt>
<pdfrwt beam="1">  1       21 0.26198371E-02 0.23188861E+02</pdfrwt>
<pdfrwt beam="2">  1       21 0.55319254E-02 0.23188861E+02</pdfrwt>
<totfact> 0.12068017E+08</totfact>
</mgrwt>
</event>
<event>
 4    1  0.7119201E+004  0.2266991E+02  0.7546771E-02  0.1696917E+00
         21   -1    0    0  503  502  0.00000000000E+00  0.00000000000E+00  0.40076088354E+01  0.40076088354E+01  0.00000000000E+00 0.  1.
         21   -1    0    0  501  503 -0.00000000000E+00 -0.00000000000E+00 -0.13005033343E+03  0.13005033343E+03  0.00000000000E+00 0.  1.
          5    1    1    2  501    0 -0.60907928596E+01  0.21836374800E+02 -0.70935564979E+02  0.74469989935E+02  0.00000000000E+00 0.  1.
         -5    1    1    2    0  502  0.60907928596E+01 -0.21836374800E+02 -0.55107159619E+02  0.59587952333E+02  0.00000000000E+00 0. -1.
<mgrwt>
<rscale>  2 0.22669914E+02</rscale>
<asrwt>0</asrwt>
<pdfrwt beam="1">  1       21 0.61655533E-03 0.22669914E+02</pdfrwt>
<pdfrwt beam="2">  1       21 0.20007739E-01 0.22669914E+02</pdfrwt>
<totfact> 0.12613963E+08</totfact>
</mgrwt>
</event>
<event>
 4    1  0.7119201E+004  0.3297145E+02  0.7546771E-02  0.1567389E+00
         21   -1    0    0  501  502  0.00000000000E+00  0.00000000000E+00  0.48458185923E+01  0.48458185923E+01  0.00000000000E+00 0.  1.
         21   -1    0    0  502  503 -0.00000000000E+00 -0.00000000000E+00 -0.23266478775E+03  0.23266478775E+03  0.00000000000E+00 0.  1.
          5    1    1    2  501    0 -0.11866395718E+02  0.30762072930E+02 -0.13637128008E+03  0.14030054351E+03  0.00000000000E+00 0.  1.
         -5    1    1    2    0  503  0.11866395718E+02 -0.30762072930E+02 -0.91447689076E+02  0.97210062831E+02  0.00000000000E+00 0. -1.
<mgrwt>
<rscale>  2 0.32971449E+02</rscale>
<asrwt>0</asrwt>
<pdfrwt beam="1">  1       21 0.74551055E-03 0.32971449E+02</pdfrwt>
<pdfrwt beam="2">  1       21 0.35794583E-01 0.32971449E+02</pdfrwt>
<totfact> 0.36153080E+07</totfact>
</mgrwt>
</event>
<event>
 4    1  0.7119201E+004  0.4659514E+02  0.7546771E-02  0.1464622E+00
         21   -1    0    0  501  502  0.00000000000E+00  0.00000000000E+00  0.12277472556E+01  0.12277472556E+01  0.00000000000E+00 0. -1.
         21   -1    0    0  502  503 -0.00000000000E+00 -0.00000000000E+00 -0.21940712344E+04  0.21940712344E+04  0.00000000000E+00 0. -1.
          1    1    1    2  501    0  0.26981899142E+01 -0.46516949883E+02 -0.61292598630E+03  0.61469453515E+03  0.00000000000E+00 0. -1.
         -1    1    1    2    0  503 -0.26981899142E+01  0.46516949883E+02 -0.15799175008E+04  0.15806044465E+04  0.00000000000E+00 0.  1.
<mgrwt>
<rscale>  2 0.46595138E+02</rscale>
<asrwt>0</asrwt>
<pdfrwt beam="1">  1       21 0.18888435E-03 0.46595138E+02</pdfrwt>
<pdfrwt beam="2">  1       21 0.33754914E+00 0.46595138E+02</pdfrwt>
<totfact> 0.12073729E+06</totfact>
</mgrwt>
</event>
<event>
 4    1  0.7119201E+004  0.2115830E+02  0.7546771E-02  0.1723229E+00
         21   -1    0    0  503  502  0.00000000000E+00  0.00000000000E+00  0.32694799084E+03  0.32694799084E+03  0.00000000000E+00 0.  1.
         21   -1    0    0  501  503 -0.00000000000E+00 -0.00000000000E+00 -0.14737285896E+01  0.14737285896E+01  0.00000000000E+00 0.  1.
          1    1    1    2  501    0  0.21157989925E+02 -0.11485768694E+00  0.11901457528E+03  0.12088069680E+03  0.00000000000E+00 0.  1.
         -1    1    1    2    0  502 -0.21157989925E+02  0.11485768694E+00  0.20645968696E+03  0.20754102262E+03  0.00000000000E+00 0. -1.
<mgrwt>
<rscale>  2 0.21158302E+02</rscale>
<asrwt>0</asrwt>
<pdfrwt beam="1">  1       21 0.50299633E-01 0.21158302E+02</pdfrwt>
<pdfrwt beam="2">  1       21 0.22672774E-03 0.21158302E+02</pdfrwt>
<totfact> 0.98782515E+07</totfact>
</mgrwt>
</event>
<event>
 4    1  0.7119201E+004  0.2090321E+02  0.7546771E-02  0.1727941E+00
         21   -1    0    0  503  502  0.00000000000E+00  0.00000000000E+00  0.51729926109E+02  0.51729926109E+02  0.00000000000E+00 0.  1.
         21   -1    0    0  501  503 -0.00000000000E+00 -0.00000000000E+00 -0.86458372411E+01  0.86458372411E+01  0.00000000000E+00 0.  1.
          1    1    1    2  501    0  0.63701891597E+01  0.19908915227E+02  0.26124176051E+02  0.33457686558E+02  0.00000000000E+00 0.  1.
         -1    1    1    2    0  502 -0.63701891597E+01 -0.19908915227E+02  0.16959912817E+02  0.26918076793E+02  0.00000000000E+00 0. -1.
<mgrwt>
<rscale>  2 0.20903211E+02</rscale>
<asrwt>0</asrwt>
<pdfrwt beam="1">  1       21 0.79584500E-02 0.20903211E+02</pdfrwt>
<pdfrwt beam="2">  1       21 0.13301288E-02 0.20903211E+02</pdfrwt>
<totfact> 0.18333774E+08</totfact>
</mgrwt>
</event>
<event>
 4    1  0.7119201E+004  0.2861969E+02  0.7546771E-02  0.1613867E+00
         21   -1    0    0  501  502  0.00000000000E+00  0.00000000000E+00  0.52634728027E+02  0.52634728027E+02  0.00000000000E+00 0. -1.
         21   -1    0    0  502  503 -0.00000000000E+00 -0.00000000000E+00 -0.15584754762E+02  0.15584754762E+02  0.00000000000E+00 0. -1.
          4    1    1    2  501    0 -0.14317867039E+02 -0.24780741735E+02  0.17213403175E+02  0.33397420954E+02  0.00000000000E+00 0. -1.
         -4    1    1    2    0  503  0.14317867039E+02  0.24780741735E+02  0.19836570090E+02  0.34822061835E+02  0.00000000000E+00 0.  1.
<mgrwt>
<rscale>  2 0.28619687E+02</rscale>
<asrwt>0</asrwt>
<pdfrwt beam="1">  1       21 0.80976504E-02 0.28619687E+02</pdfrwt>
<pdfrwt beam="2">  1       21 0.23976546E-02 0.28619687E+02</pdfrwt>
<totfact> 0.78934843E+07</totfact>
</mgrwt>
</event>
<event>
 4    1  0.7119201E+004  0.2267173E+02  0.7546771E-02  0.1696887E+00
         21   -1    0    0  501  502  0.00000000000E+00  0.00000000000E+00  0.14648782701E+01  0.14648782701E+01  0.00000000000E+00 0.  1.
         21   -1    0    0  502  503 -0.00000000000E+00 -0.00000000000E+00 -0.35960278450E+03  0.35960278450E+03  0.00000000000E+00 0.  1.
          2    1    1    2  501    0  0.99245715238E+01 -0.20384067083E+02 -0.15096349706E+03  0.15265642717E+03  0.00000000000E+00 0. -1.
         -2    1    1    2    0  503 -0.99245715238E+01  0.20384067083E+02 -0.20717440917E+03  0.20841123560E+03  0.00000000000E+00 0.  1.
<mgrwt>
<rscale>  2 0.22671729E+02</rscale>
<asrwt>0</asrwt>
<pdfrwt beam="1">  1       21 0.22536557E-03 0.22671729E+02</pdfrwt>
<pdfrwt beam="2">  1       21 0.55323585E-01 0.22671729E+02</pdfrwt>
<totfact> 0.84222977E+07</totfact>
</mgrwt>
</event>
<event>
 4    1  0.7119201E+004  0.2291860E+02  0.7546771E-02  0.1692833E+00
         21   -1    0    0  501  502  0.00000000000E+00  0.00000000000E+00  0.28846643872E+02  0.28846643872E+02  0.00000000000E+00 0. -1.
         21   -1    0    0  502  503 -0.00000000000E+00 -0.00000000000E+00 -0.22420957825E+02  0.22420957825E+02  0.00000000000E+00 0. -1.
          2    1    1    2  501    0  0.39094096370E+01 -0.22582704977E+02 -0.78978086264E+01  0.24241234063E+02  0.00000000000E+00 0. -1.
         -2    1    1    2    0  503 -0.39094096370E+01  0.22582704977E+02  0.14323494674E+02  0.27026367634E+02  0.00000000000E+00 0.  1.
<mgrwt>
<rscale>  2 0.22918596E+02</rscale>
<asrwt>0</asrwt>
<pdfrwt beam="1">  1       21 0.44379452E-02 0.22918596E+02</pdfrwt>
<pdfrwt beam="2">  1       21 0.34493781E-02 0.22918596E+02</pdfrwt>
<totfact> 0.11126415E+08</totfact>
</mgrwt>
</event>
<event>
 4    1  0.7119201E+004  0.5938050E+02  0.7546771E-02  0.1400450E+00
         21   -1    0    0  501  502  0.00000000000E+00  0.00000000000E+00  0.20543447423E+02  0.20543447423E+02  0.00000000000E+00 0.  1.
         21   -1    0    0  502  503 -0.00000000000E+00 -0.00000000000E+00 -0.17188002357E+03  0.17188002357E+03  0.00000000000E+00 0.  1.
          1    1    1    2  501    0  0.58074896934E+02 -0.12383476682E+02 -0.79275718820E+02  0.99048895718E+02  0.00000000000E+00 0.  1.
         -1    1    1    2    0  503 -0.58074896934E+02  0.12383476682E+02 -0.72060857323E+02  0.93374575270E+02  0.00000000000E+00 0. -1.
<mgrwt>
<rscale>  2 0.59380503E+02</rscale>
<asrwt>0</asrwt>
<pdfrwt beam="1">  1       21 0.31605303E-02 0.59380503E+02</pdfrwt>
<pdfrwt beam="2">  1       21 0.26443081E-01 0.59380503E+02</pdfrwt>
<totfact> 0.73091668E+06</totfact>
</mgrwt>
</event>
<event>
 4    1  0.7119201E+004  0.2471412E+02  0.7546771E-02  0.1665142E+00
         21   -1    0    0  503  502  0.00000000000E+00  0.00000000000E+00  0.40451565999E+03  0.40451565999E+03  0.00000000000E+00 0. -1.
         21   -1    0    0  501  503 -0.00000000000E+00 -0.00000000000E+00 -0.15100080267E+01  0.15100080267E+01  0.00000000000E+00 0. -1.
          5    1    1    2  501    0  0.50259851496E+01  0.24197670360E+02  0.20302003311E+03  0.20451875616E+03  0.00000000000E+00 0.  1.
         -5    1    1    2    0  502 -0.50259851496E+01 -0.24197670360E+02  0.19998561885E+03  0.20150691186E+03  0.00000000000E+00 0. -1.
<mgrwt>
<rscale>  2 0.24714121E+02</rscale>
<asrwt>0</asrwt>
<pdfrwt beam="1">  1       21 0.62233092E-01 0.24714121E+02</pdfrwt>
<pdfrwt beam="2">  1       21 0.23230925E-03 0.24714121E+02</pdfrwt>
<totfact> 0.65078493E+07</totfact>
</mgrwt>
</event>
<event>
 4    1  0.7119201E+004  0.2022473E+02  0.7546771E-02  0.1740896E+00
         21   -1    0    0  503  502  0.00000000000E+00  0.00000000000E+00  0.14778495037E+02  0.14778495037E+02  0.00000000000E+00 0. -1.
         21   -1    0    0  501  503 -0.00000000000E+00 -0.00000000000E+00 -0.28112951547E+02  0.28112951547E+02  0.00000000000E+00 0. -1.
          2    1    1    2  501    0 -0.10903517267E+01  0.20195317987E+02 -0.93346355870E+01  0.22274989495E+02  0.00000000000E+00 0.  1.
         -2    1    1    2    0  502  0.10903517267E+01 -0.20195317987E+02 -0.39998209232E+01  0.20616457089E+02  0.00000000000E+00 0. -1.
<mgrwt>
<rscale>  2 0.20224731E+02</rscale>
<asrwt>0</asrwt>
<pdfrwt beam="1">  1       21 0.22736147E-02 0.20224731E+02</pdfrwt>
<pdfrwt beam="2">  1       21 0.43250694E-02 0.20224731E+02</pdfrwt>
<totfact> 0.21264607E+08</totfact>
</mgrwt>
</event>
<event>
 4    1  0.7119201E+004  0.3308965E+02  0.7546771E-02  0.1566250E+00
         21   -1    0    0  501  502  0.00000000000E+00  0.00000000000E+00  0.16695700542E+02  0.16695700542E+02  0.00000000000E+00 0. -1.
         21   -1    0    0  502  503 -0.00000000000E+00 -0.00000000000E+00 -0.68772921717E+02  0.68772921717E+02  0.00000000000E+00 0. -1.
          1    1    1    2  501    0 -0.80852296011E+01 -0.32086662636E+02 -0.16832476435E+02  0.37124885450E+02  0.00000000000E+00 0.  1.
         -1    1    1    2    0  503  0.80852296011E+01  0.32086662636E+02 -0.35244744741E+02  0.48343736809E+02  0.00000000000E+00 0. -1.
<mgrwt>
<rscale>  2 0.33089649E+02</rscale>
<asrwt>0</asrwt>
<pdfrwt beam="1">  1       21 0.25685694E-02 0.33089649E+02</pdfrwt>
<pdfrwt beam="2">  1       21 0.10580449E-01 0.33089649E+02</pdfrwt>
<totfact> 0.46911716E+07</totfact>
</mgrwt>
</event>
<event>
 4    1  0.7119201E+004  0.3237037E+02  0.7546771E-02  0.1573274E+00
         21   -1    0    0  503  502  0.00000000000E+00  0.00000000000E+00  0.32052826239E+03  0.32052826239E+03  0.00000000000E+00 0. -1.
         21   -1    0    0  501  503 -0.00000000000E+00 -0.00000000000E+00 -0.33106272965E+01  0.33106272965E+01  0.00000000000E+00 0. -1.
          2    1    1    2  501    0  0.13798108499E+02 -0.29282298910E+02  0.14047538856E+03  0.14415677445E+03  0.00000000000E+00 0.  1.
         -2    1    1    2    0  502 -0.13798108499E+02  0.29282298910E+02  0.17674224652E+03  0.17968211523E+03  0.00000000000E+00 0. -1.
<mgrwt>
<rscale>  2 0.32370370E+02</rscale>
<asrwt>0</asrwt>
<pdfrwt beam="1">  1       21 0.49312016E-01 0.32370370E+02</pdfrwt>
<pdfrwt beam="2">  1       21 0.50932753E-03 0.32370370E+02</pdfrwt>
<totfact> 0.34432845E+07</totfact>
</mgrwt>
</event>
<event>
 4    1  0.7119201E+004  0.2258229E+02  0.7546771E-02  0.1698372E+00
         21   -1    0    0  501  502  0.00000000000E+00  0.00000000000E+00  0.66216307630E+00  0.66216307630E+00  0.00000000000E+00 0.  1.
         21   -1    0    0  502  503 -0.00000000000E+00 -0.00000000000E+00 -0.85592744417E+03  0.85592744417E+03  0.00000000000E+00 0.  1.
          3    1    1    2  501    0  0.17912999020E+02  0.13750799455E+02 -0.29204206254E+03  0.29291385477E+03  0.00000000000E+00 0.  1.
         -3    1    1    2    0  503 -0.17912999020E+02 -0.13750799455E+02 -0.56322321855E+03  0.56367575248E+03  0.00000000000E+00 0. -1.
<mgrwt>
<rscale>  2 0.22582294E+02</rscale>
<asrwt>0</asrwt>
<pdfrwt beam="1">  1       21 0.10187130E-03 0.22582294E+02</pdfrwt>
<pdfrwt beam="2">  1       21 0.13168107E+00 0.22582294E+02</pdfrwt>
<totfact> 0.41566582E+07</totfact>
</mgrwt>
</event>
<event>
 4    1  0.7119201E+004  0.2823409E+02  0.7546771E-02  0.1618471E+00
         21   -1    0    0  503  502  0.00000000000E+00  0.00000000000E+00  0.14764941221E+03  0.14764941221E+03  0.00000000000E+00 0. -1.
         21   -1    0    0  501  503 -0.00000000000E+00 -0.00000000000E+00 -0.66025490711E+01  0.66025490711E+01  0.00000000000E+00 0. -1.
          5    1    1    2  501    0  0.27189568672E+02  0.76086243025E+01  0.10345186891E+03  0.10723550246E+03  0.00000000000E+00 0. -1.
         -5    1    1    2    0  502 -0.27189568672E+02 -0.76086243025E+01  0.37594994228E+02  0.47016458814E+02  0.00000000000E+00 0.  1.
<mgrwt>
<rscale>  2 0.28234089E+02</rscale>
<asrwt>0</asrwt>
<pdfrwt beam="1">  1       21 0.22715292E-01 0.28234089E+02</pdfrwt>
<pdfrwt beam="2">  1       21 0.10157769E-02 0.28234089E+02</pdfrwt>
<totfact> 0.50478191E+07</totfact>
</mgrwt>
</event>
<event>
 4    1  0.7119201E+004  0.2217569E+02  0.7546771E-02  0.1705231E+00
         21   -1    0    0  503  502  0.00000000000E+00  0.00000000000E+00  0.14202682969E+03  0.14202682969E+03  0.00000000000E+00 0. -1.
         21   -1    0    0  501  503 -0.00000000000E+00 -0.00000000000E+00 -0.34933827216E+01  0.34933827216E+01  0.00000000000E+00 0. -1.
          4    1    1    2  501    0 -0.18622102228E+02  0.12040695884E+02  0.62420251476E+02  0.66242349318E+02  0.00000000000E+00 0.  1.
         -4    1    1    2    0  502  0.18622102228E+02 -0.12040695884E+02  0.76113195495E+02  0.79277863097E+02  0.00000000000E+00 0. -1.
<mgrwt>
<rscale>  2 0.22175686E+02</rscale>
<asrwt>0</asrwt>
<pdfrwt beam="1">  1       21 0.21850277E-01 0.22175686E+02</pdfrwt>
<pdfrwt beam="2">  1       21 0.53744360E-03 0.22175686E+02</pdfrwt>
<totfact> 0.13162636E+08</totfact>
</mgrwt>
</event>
<event>
 4    1  0.7119201E+004  0.2118913E+02  0.7546771E-02  0.1722665E+00
         21   -1    0    0  501  502  0.00000000000E+00  0.00000000000E+00  0.47638931055E+02  0.47638931055E+02  0.00000000000E+00 0. -1.
         21   -1    0    0  502  503 -0.00000000000E+00 -0.00000000000E+00 -0.14728826522E+02  0.14728826522E+02  0.00000000000E+00 0. -1.
          2    1    1    2  501    0 -0.44364107720E+01 -0.20719497305E+02  0.35168588160E+02  0.41058603267E+02  0.00000000000E+00 0. -1.
         -2    1    1    2    0  503  0.44364107720E+01  0.20719497305E+02 -0.22584836271E+01  0.21309154310E+02  0.00000000000E+00 0.  1.
<mgrwt>
<rscale>  2 0.21189132E+02</rscale>
<asrwt>0</asrwt>
<pdfrwt beam="1">  1       21 0.73290662E-02 0.21189132E+02</pdfrwt>
<pdfrwt beam="2">  1       21 0.22659733E-02 0.21189132E+02</pdfrwt>
<totfact> 0.93508289E+07</totfact>
</mgrwt>
</event>
<event>
 4    1  0.7119201E+004  0.2269204E+02  0.7546771E-02  0.1696551E+00
         21   -1    0    0  503  502  0.00000000000E+00  0.00000000000E+00  0.15919888559E+02  0.15919888559E+02  0.00000000000E+00 0. -1.
         21   -1    0    0  501  503 -0.00000000000E+00 -0.00000000000E+00 -0.32896439788E+02  0.32896439788E+02  0.00000000000E+00 0. -1.
          2    1    1    2  501    0 -0.22494648964E+02  0.29865257373E+01 -0.11648481232E+02  0.25507169248E+02  0.00000000000E+00 0.  1.
         -2    1    1    2    0  502  0.22494648964E+02 -0.29865257373E+01 -0.53280699974E+01  0.23309159099E+02  0.00000000000E+00 0. -1.
<mgrwt>
<rscale>  2 0.22692038E+02</rscale>
<asrwt>0</asrwt>
<pdfrwt beam="1">  1       21 0.24492136E-02 0.22692038E+02</pdfrwt>
<pdfrwt beam="2">  1       21 0.50609907E-02 0.22692038E+02</pdfrwt>
<totfact> 0.15336670E+08</totfact>
</mgrwt>
</event>
<event>
 4    1  0.7119201E+004  0.4715612E+02  0.7546771E-02  0.1461313E+00
         21   -1    0    0  503  502  0.00000000000E+00  0.00000000000E+00  0.73068044027E+01  0.73068044027E+01  0.00000000000E+00 0. -1.
         21   -1    0    0  501  503 -0.00000000000E+00 -0.00000000000E+00 -0.30503319161E+03  0.30503319161E+03  0.00000000000E+00 0. -1.
          3    1    1    2  501    0 -0.29697731530E+02  0.36629832903E+02 -0.15634675579E+03  0.16330342300E+03  0.00000000000E+00 0. -1.
         -3    1    1    2    0  502  0.29697731530E+02 -0.36629832903E+02 -0.14137963142E+03  0.14903657302E+03  0.00000000000E+00 0.  1.
<mgrwt>
<rscale>  2 0.47156123E+02</rscale>
<asrwt>0</asrwt>
<pdfrwt beam="1">  1       21 0.11241240E-02 0.47156123E+02</pdfrwt>
<pdfrwt beam="2">  1       21 0.46928174E-01 0.47156123E+02</pdfrwt>
<totfact> 0.12095009E+07</totfact>
</mgrwt>
</event>
<event>
 4    1  0.7119201E+004  0.2409096E+02  0.7546771E-02  0.1674413E+00
         21   -1    0    0  503  502  0.00000000000E+00  0.00000000000E+00  0.20681501891E+03  0.20681501891E+03  0.00000000000E+00 0. -1.
         21   -1    0    0  501  503 -0.00000000000E+00 -0.00000000000E+00 -0.29792039482E+01  0.29792039482E+01  0.00000000000E+00 0. -1.
          2    1    1    2  501    0 -0.13595565589E+02  0.19888057768E+02  0.76643493862E+02  0.80340521512E+02  0.00000000000E+00 0.  1.
         -2    1    1    2    0  502  0.13595565589E+02 -0.19888057768E+02  0.12719232110E+03  0.12945370134E+03  0.00000000000E+00 0. -1.
<mgrwt>
<rscale>  2 0.24090958E+02</rscale>
<asrwt>0</asrwt>
<pdfrwt beam="1">  1       21 0.31817684E-01 0.24090958E+02</pdfrwt>
<pdfrwt beam="2">  1       21 0.45833923E-03 0.24090958E+02</pdfrwt>
<totfact> 0.86763116E+07</totfact>
</mgrwt>
</event>
<event>
 4    1  0.7119201E+004  0.4203010E+02  0.7546771E-02  0.1493782E+00
         21   -1    0    0  503  502  0.00000000000E+00  0.00000000000E+00  0.26156273518E+02  0.26156273518E+02  0.00000000000E+00 0.  1.
         21   -1    0    0  501  503 -0.00000000000E+00 -0.00000000000E+00 -0.67983067710E+02  0.67983067710E+02  0.00000000000E+00 0.  1.
          3    1    1    2  501    0 -0.38116900028E+02 -0.17709638906E+02 -0.17102768634E+02  0.45376580665E+02  0.00000000000E+00 0. -1.
         -3    1    1    2    0  502  0.38116900028E+02  0.17709638906E+02 -0.24724025558E+02  0.48762760563E+02  0.00000000000E+00 0.  1.
<mgrwt>
<rscale>  2 0.42030101E+02</rscale>
<asrwt>0</asrwt>
<pdfrwt beam="1">  1       21 0.40240421E-02 0.42030101E+02</pdfrwt>
<pdfrwt beam="2">  1       21 0.10458934E-01 0.42030101E+02</pdfrwt>
<totfact> 0.24502229E+07</totfact>
</mgrwt>
</event>
<event>
 4    1  0.7119201E+004  0.2005479E+02  0.7546771E-02  0.1744241E+00
         21   -1    0    0  501  502  0.00000000000E+00  0.00000000000E+00  0.29435767270E+03  0.29435767270E+03  0.00000000000E+00 0. -1.
         21   -1    0    0  502  503 -0.00000000000E+00 -0.00000000000E+00 -0.16878335684E+01  0.16878335684E+01  0.00000000000E+00 0. -1.
          5    1    1    2  501    0  0.16794063136E+02 -0.10961479105E+02  0.81733001839E+02  0.84157460574E+02  0.00000000000E+00 0. -1.
         -5    1    1    2    0  503 -0.16794063136E+02  0.10961479105E+02  0.21093683729E+03  0.21188804569E+03  0.00000000000E+00 0.  1.
<mgrwt>
<rscale>  2 0.20054789E+02</rscale>
<asrwt>0</asrwt>
<pdfrwt beam="1">  1       21 0.45285755E-01 0.20054789E+02</pdfrwt>
<pdfrwt beam="2">  1       21 0.25966694E-03 0.20054789E+02</pdfrwt>
<totfact> 0.97917720E+07</totfact>
</mgrwt>
</event>
<event>
 4    1  0.7119201E+004  0.2119577E+02  0.7546771E-02  0.1722544E+00
         21   -1    0    0  503  502  0.00000000000E+00  0.00000000000E+00  0.59348117722E+03  0.59348117722E+03  0.00000000000E+00 0. -1.
         21   -1    0    0  501  503 -0.00000000000E+00 -0.00000000000E+00 -0.80460603302E+00  0.80460603302E+00  0.00000000000E+00 0. -1.
          3    1    1    2  501    0 -0.20638793039E+02 -0.48270858263E+01  0.22405449173E+03  0.22505482843E+03  0.00000000000E+00 0.  1.
         -3    1    1    2    0  502  0.20638793039E+02  0.48270858263E+01  0.36862207946E+03  0.36923095482E+03  0.00000000000E+00 0. -1.
<mgrwt>
<rscale>  2 0.21195767E+02</rscale>
<asrwt>0</asrwt>
<pdfrwt beam="1">  1       21 0.91304447E-01 0.21195767E+02</pdfrwt>
<pdfrwt beam="2">  1       21 0.12378602E-03 0.21195767E+02</pdfrwt>
<totfact> 0.70027945E+07</totfact>
</mgrwt>
</event>
<event>
 4    1  0.7119201E+004  0.2148816E+02  0.7546771E-02  0.1717257E+00
         21   -1    0    0  501  502  0.00000000000E+00  0.00000000000E+00  0.13428307466E+01  0.13428307466E+01  0.00000000000E+00 0. -1.
         21   -1    0    0  502  503 -0.00000000000E+00 -0.00000000000E+00 -0.35245261695E+03  0.35245261695E+03  0.00000000000E+00 0. -1.
          4    1    1    2  501    0  0.27667043356E+01  0.21309304838E+02 -0.14792862722E+03  0.14948116897E+03  0.00000000000E+00 0. -1.
         -4    1    1    2    0  503 -0.27667043356E+01 -0.21309304838E+02 -0.20318115898E+03  0.20431427872E+03  0.00000000000E+00 0.  1.
<mgrwt>
<rscale>  2 0.21488162E+02</rscale>
<asrwt>0</asrwt>
<pdfrwt beam="1">  1       21 0.20658924E-03 0.21488162E+02</pdfrwt>
<pdfrwt beam="2">  1       21 0.54223507E-01 0.21488162E+02</pdfrwt>
<totfact> 0.97980757E+07</totfact>
</mgrwt>
</event>
<event>
 4    1  0.7119201E+004  0.4707823E+02  0.7546771E-02  0.1461770E+00
         21   -1    0    0  501  502  0.00000000000E+00  0.00000000000E+00  0.13326844957E+03  0.13326844957E+03  0.00000000000E+00 0. -1.
         21   -1    0    0  502  503 -0.00000000000E+00 -0.00000000000E+00 -0.20024700888E+02  0.20024700888E+02  0.00000000000E+00 0. -1.
          1    1    1    2  501    0  0.41433992240E+02 -0.22351375651E+02  0.25067476192E+02  0.53336085993E+02  0.00000000000E+00 0.  1.
         -1    1    1    2    0  503 -0.41433992240E+02  0.22351375651E+02  0.88176272495E+02  0.99957064470E+02  0.00000000000E+00 0. -1.
<mgrwt>
<rscale>  2 0.47078230E+02</rscale>
<asrwt>0</asrwt>
<pdfrwt beam="1">  1       21 0.20502838E-01 0.47078230E+02</pdfrwt>
<pdfrwt beam="2">  1       21 0.30807233E-02 0.47078230E+02</pdfrwt>
<totfact> 0.11814956E+07</totfact>
</mgrwt>
</event>
<event>
 4    1  0.7119201E+004  0.2140294E+02  0.7546771E-02  0.1718787E+00
         21   -1    0    0  501  502  0.00000000000E+00  0.00000000000E+00  0.63335789336E+00  0.63335789336E+00  0.00000000000E+00 0. -1.
         21   -1    0    0  502  503 -0.00000000000E+00 -0.00000000000E+00 -0.78420379517E+03  0.78420379517E+03  0.00000000000E+00 0. -1.
          2    1    1    2  501    0 -0.99968590908E+01 -0.18924814460E+02 -0.28239439056E+03  0.28320430366E+03  0.00000000000E+00 0. -1.
         -2    1    1    2    0  503  0.99968590908E+01  0.18924814460E+02 -0.50117604672E+03  0.50163284940E+03  0.00000000000E+00 0.  1.
<mgrwt>
<rscale>  2 0.21402939E+02</rscale>
<asrwt>0</asrwt>
<pdfrwt beam="1">  1       21 0.97439585E-04 0.21402939E+02</pdfrwt>
<pdfrwt beam="2">  1       21 0.12064685E+00 0.21402939E+02</pdfrwt>
<totfact> 0.53457059E+07</totfact>
</mgrwt>
</event>
<event>
 4    1  0.7119201E+004  0.2901652E+02  0.7546771E-02  0.1609221E+00
         21   -1    0    0  501  502  0.00000000000E+00  0.00000000000E+00  0.12685771094E+03  0.12685771094E+03  0.00000000000E+00 0. -1.
         21   -1    0    0  502  503 -0.00000000000E+00 -0.00000000000E+00 -0.67596606555E+01  0.67596606555E+01  0.00000000000E+00 0. -1.
          2    1    1    2  501    0  0.11317693860E+02  0.26718312857E+02  0.69047521910E+02  0.74896720343E+02  0.00000000000E+00 0.  1.
         -2    1    1    2    0  503 -0.11317693860E+02 -0.26718312857E+02  0.51050528375E+02  0.58720651253E+02  0.00000000000E+00 0. -1.
<mgrwt>
<rscale>  2 0.29016520E+02</rscale>
<asrwt>0</asrwt>
<pdfrwt beam="1">  1       21 0.19516569E-01 0.29016520E+02</pdfrwt>
<pdfrwt beam="2">  1       21 0.10399479E-02 0.29016520E+02</pdfrwt>
<totfact> 0.64119047E+07</totfact>
</mgrwt>
</event>
<event>
 4    1  0.7119201E+004  0.2684002E+02  0.7546771E-02  0.1635898E+00
         21   -1    0    0  503  502  0.00000000000E+00  0.00000000000E+00  0.76457868417E+02  0.76457868417E+02  0.00000000000E+00 0.  1.
         21   -1    0    0  501  503 -0.00000000000E+00 -0.00000000000E+00 -0.94222329717E+01  0.94222329717E+01  0.00000000000E+00 0.  1.
          3    1    1    2  501    0 -0.22571961752E+02 -0.14522158927E+02  0.33728191184E+02  0.43104262409E+02  0.00000000000E+00 0. -1.
         -3    1    1    2    0  502  0.22571961752E+02  0.14522158927E+02  0.33307444261E+02  0.42775838980E+02  0.00000000000E+00 0.  1.
<mgrwt>
<rscale>  2 0.26840018E+02</rscale>
<asrwt>0</asrwt>
<pdfrwt beam="1">  1       21 0.11762749E-01 0.26840018E+02</pdfrwt>
<pdfrwt beam="2">  1       21 0.14495744E-02 0.26840018E+02</pdfrwt>
<totfact> 0.90614502E+07</totfact>
</mgrwt>
</event>
<event>
 4    1  0.7119201E+004  0.2277915E+02  0.7546771E-02  0.1695115E+00
         21   -1    0    0  501  502  0.00000000000E+00  0.00000000000E+00  0.28891593296E+03  0.28891593296E+03  0.00000000000E+00 0.  1.
         21   -1    0    0  502  503 -0.00000000000E+00 -0.00000000000E+00 -0.17960003397E+01  0.17960003397E+01  0.00000000000E+00 0.  1.
          4    1    1    2  501    0 -0.88097381430E+01  0.21006620961E+02  0.14393766057E+03  0.14572899417E+03  0.00000000000E+00 0.  1.
         -4    1    1    2    0  503  0.88097381430E+01 -0.21006620961E+02  0.14318227205E+03  0.14498293913E+03  0.00000000000E+00 0. -1.
<mgrwt>
<rscale>  2 0.22779149E+02</rscale>
<asrwt>0</asrwt>
<pdfrwt beam="1">  1       21 0.44448568E-01 0.22779149E+02</pdfrwt>
<pdfrwt beam="2">  1       21 0.27630797E-03 0.22779149E+02</pdfrwt>
<totfact> 0.95949819E+07</totfact>
</mgrwt>
</event>
<event>
 4    1  0.7119201E+004  0.2502707E+02  0.7546771E-02  0.1660613E+00
         21   -1    0    0  501  502  0.00000000000E+00  0.00000000000E+00  0.27706312829E+01  0.27706312829E+01  0.00000000000E+00 0.  1.
         21   -1    0    0  502  503 -0.00000000000E+00 -0.00000000000E+00 -0.23619991375E+03  0.23619991375E+03  0.00000000000E+00 0.  1.
          1    1    1    2  501    0 -0.22762226228E+02  0.10403623912E+02 -0.91969209786E+02  0.95313639538E+02  0.00000000000E+00 0.  1.
         -1    1    1    2    0  503  0.22762226228E+02 -0.10403623912E+02 -0.14146007268E+03  0.14365690550E+03  0.00000000000E+00 0. -1.
<mgrwt>
<rscale>  2 0.25027072E+02</rscale>
<asrwt>0</asrwt>
<pdfrwt beam="1">  1       21 0.42625092E-03 0.25027072E+02</pdfrwt>
<pdfrwt beam="2">  1       21 0.36338452E-01 0.25027072E+02</pdfrwt>
<totfact> 0.76222279E+07</totfact>
</mgrwt>
</event>
<event>
 4    1  0.7119201E+004  0.4042312E+02  0.7546771E-02  0.1505121E+00
         21   -1    0    0  501  502  0.00000000000E+00  0.00000000000E+00  0.42731324243E+02  0.42731324243E+02  0.00000000000E+00 0. -1.
         21   -1    0    0  502  503 -0.00000000000E+00 -0.00000000000E+00 -0.44933040088E+02  0.44933040088E+02  0.00000000000E+00 0. -1.
          4    1    1    2  501    0  0.28881084700E+02 -0.28282705588E+02 -0.18018314740E+02  0.44257068982E+02  0.00000000000E+00 0.  1.
         -4    1    1    2    0  503 -0.28881084700E+02  0.28282705588E+02  0.15816598895E+02  0.43407295348E+02  0.00000000000E+00 0. -1.
<mgrwt>
<rscale>  2 0.40423118E+02</rscale>
<asrwt>0</asrwt>
<pdfrwt beam="1">  1       21 0.65740499E-02 0.40423118E+02</pdfrwt>
<pdfrwt beam="2">  1       21 0.69127754E-02 0.40423118E+02</pdfrwt>
<totfact> 0.21892772E+07</totfact>
</mgrwt>
</event>
<event>
 4    1  0.7119201E+004  0.3122761E+02  0.7546771E-02  0.1584902E+00
         21   -1    0    0  501  502  0.00000000000E+00  0.00000000000E+00  0.49096030368E+01  0.49096030368E+01  0.00000000000E+00 0. -1.
         21   -1    0    0  502  503 -0.00000000000E+00 -0.00000000000E+00 -0.20057782953E+03  0.20057782953E+03  0.00000000000E+00 0. -1.
          5    1    1    2  501    0 -0.38050727983E+01  0.30994919464E+02 -0.87692934814E+02  0.93087133525E+02  0.00000000000E+00 0. -1.
         -5    1    1    2    0  503  0.38050727983E+01 -0.30994919464E+02 -0.10797529168E+03  0.11240029905E+03  0.00000000000E+00 0.  1.
<mgrwt>
<rscale>  2 0.31227610E+02</rscale>
<asrwt>0</asrwt>
<pdfrwt beam="1">  1       21 0.75532363E-03 0.31227610E+02</pdfrwt>
<pdfrwt beam="2">  1       21 0.30858124E-01 0.31227610E+02</pdfrwt>
<totfact> 0.46267890E+07</totfact>
</mgrwt>
</event>
<event>
 4    1  0.7119201E+004  0.2471892E+02  0.7546771E-02  0.1665072E+00
         21   -1    0    0  503  502  0.00000000000E+00  0.00000000000E+00  0.10588285932E+01  0.10588285932E+01  0.00000000000E+00 0.  1.
         21   -1    0    0  501  503 -0.00000000000E+00 -0.00000000000E+00 -0.63308971721E+03  0.63308971721E+03  0.00000000000E+00 0.  1.
          3    1    1    2  501    0 -0.10241770468E+00  0.24718708335E+02 -0.22170194004E+03  0.22307571640E+03  0.00000000000E+00 0.  1.
         -3    1    1    2    0  502  0.10241770468E+00 -0.24718708335E+02 -0.41032894858E+03  0.41107282941E+03  0.00000000000E+00 0. -1.
<mgrwt>
<rscale>  2 0.24718921E+02</rscale>
<asrwt>0</asrwt>
<pdfrwt beam="1">  1       21 0.16289633E-03 0.24718921E+02</pdfrwt>
<pdfrwt beam="2">  1       21 0.97398644E-01 0.24718921E+02</pdfrwt>
<totfact> 0.42530055E+07</totfact>
</mgrwt>
</event>
<event>
 4    1  0.7119201E+004  0.2659944E+02  0.7546771E-02  0.1639037E+00
         21   -1    0    0  501  502  0.00000000000E+00  0.00000000000E+00  0.34562322143E+01  0.34562322143E+01  0.00000000000E+00 0.  1.
         21   -1    0    0  502  503 -0.00000000000E+00 -0.00000000000E+00 -0.21775791753E+03  0.21775791753E+03  0.00000000000E+00 0.  1.
          2    1    1    2  501    0  0.99581474692E+01 -0.24665062002E+02 -0.80077370541E+02  0.84379590289E+02  0.00000000000E+00 0. -1.
         -2    1    1    2    0  503 -0.99581474692E+01  0.24665062002E+02 -0.13422431478E+03  0.13683455946E+03  0.00000000000E+00 0.  1.
<mgrwt>
<rscale>  2 0.26599436E+02</rscale>
<asrwt>0</asrwt>
<pdfrwt beam="1">  1       21 0.53172799E-03 0.26599436E+02</pdfrwt>
<pdfrwt beam="2">  1       21 0.33501220E-01 0.26599436E+02</pdfrwt>
<totfact> 0.64861255E+07</totfact>
</mgrwt>
</event>
<event>
 4    1  0.7119201E+004  0.2915373E+02  0.7546771E-02  0.1607636E+00
         21   -1    0    0  503  502  0.00000000000E+00  0.00000000000E+00  0.14681118591E+01  0.14681118591E+01  0.00000000000E+00 0.  1.
         21   -1    0    0  501  503 -0.00000000000E+00 -0.00000000000E+00 -0.59166636981E+03  0.59166636981E+03  0.00000000000E+00 0.  1.
          2    1    1    2  501    0  0.53455097013E+01  0.28659474599E+02 -0.25159421217E+03  0.25327768862E+03  0.00000000000E+00 0. -1.
         -2    1    1    2    0  502 -0.53455097013E+01 -0.28659474599E+02 -0.33860404578E+03  0.33985679304E+03  0.00000000000E+00 0.  1.
<mgrwt>
<rscale>  2 0.29153730E+02</rscale>
<asrwt>0</asrwt>
<pdfrwt beam="1">  1       21 0.22586325E-03 0.29153730E+02</pdfrwt>
<pdfrwt beam="2">  1       21 0.91025642E-01 0.29153730E+02</pdfrwt>
<totfact> 0.31661091E+07</totfact>
</mgrwt>
</event>
<event>
 4    1  0.7119201E+004  0.2095241E+02  0.7546771E-02  0.1727026E+00
         21   -1    0    0  503  502  0.00000000000E+00  0.00000000000E+00  0.90734472899E+02  0.90734472899E+02  0.00000000000E+00 0. -1.
         21   -1    0    0  501  503 -0.00000000000E+00 -0.00000000000E+00 -0.50186736993E+01  0.50186736993E+01  0.00000000000E+00 0. -1.
          4    1    1    2  501    0  0.17179064317E+02 -0.11995135897E+02  0.33782281150E+02  0.39752308810E+02  0.00000000000E+00 0. -1.
         -4    1    1    2    0  502 -0.17179064317E+02  0.11995135897E+02  0.51933518050E+02  0.56000837789E+02  0.00000000000E+00 0.  1.
<mgrwt>
<rscale>  2 0.20952411E+02</rscale>
<asrwt>0</asrwt>
<pdfrwt beam="1">  1       21 0.13959148E-01 0.20952411E+02</pdfrwt>
<pdfrwt beam="2">  1       21 0.77210371E-03 0.20952411E+02</pdfrwt>
<totfact> 0.16356737E+08</totfact>
</mgrwt>
</event>
<event>
 4    1  0.7119201E+004  0.3627545E+02  0.7546771E-02  0.1537557E+00
         21   -1    0    0  503  502  0.00000000000E+00  0.00000000000E+00  0.20617388896E+02  0.20617388896E+02  0.00000000000E+00 0. -1.
         21   -1    0    0  501  503 -0.00000000000E+00 -0.00000000000E+00 -0.68756445610E+02  0.68756445610E+02  0.00000000000E+00 0. -1.
          4    1    1    2  501    0 -0.26601226586E+02  0.24663390547E+02 -0.12102015998E+02  0.38240905852E+02  0.00000000000E+00 0.  1.
         -4    1    1    2    0  502  0.26601226586E+02 -0.24663390547E+02 -0.36037040717E+02  0.51132928654E+02  0.00000000000E+00 0. -1.
<mgrwt>
<rscale>  2 0.36275447E+02</rscale>
<asrwt>0</asrwt>
<pdfrwt beam="1">  1       21 0.31719060E-02 0.36275447E+02</pdfrwt>
<pdfrwt beam="2">  1       21 0.10577915E-01 0.36275447E+02</pdfrwt>
<totfact> 0.34268626E+07</totfact>
</mgrwt>
</event>
<event>
 4    1  0.7119201E+004  0.2296450E+02  0.7546771E-02  0.1692086E+00
         21   -1    0    0  503  502  0.00000000000E+00  0.00000000000E+00  0.75708786182E+00  0.75708786182E+00  0.00000000000E+00 0. -1.
         21   -1    0    0  501  503 -0.00000000000E+00 -0.00000000000E+00 -0.74423892905E+03  0.74423892905E+03  0.00000000000E+00 0. -1.
          3    1    1    2  501    0  0.67419511746E+00 -0.22954598140E+02 -0.27747279652E+03  0.27842148071E+03  0.00000000000E+00 0. -1.
         -3    1    1    2    0  502 -0.67419511746E+00  0.22954598140E+02 -0.46600904467E+03  0.46657453620E+03  0.00000000000E+00 0.  1.
<mgrwt>
<rscale>  2 0.22964497E+02</rscale>
<asrwt>0</asrwt>
<pdfrwt beam="1">  1       21 0.11647471E-03 0.22964497E+02</pdfrwt>
<pdfrwt beam="2">  1       21 0.11449864E+00 0.22964497E+02</pdfrwt>
<totfact> 0.47358809E+07</totfact>
</mgrwt>
</event>
<event>
 4    1  0.7119201E+004  0.2769749E+02  0.7546771E-02  0.1625029E+00
         21   -1    0    0  501  502  0.00000000000E+00  0.00000000000E+00  0.23833097298E+01  0.23833097298E+01  0.00000000000E+00 0. -1.
         21   -1    0    0  502  503 -0.00000000000E+00 -0.00000000000E+00 -0.35343089096E+03  0.35343089096E+03  0.00000000000E+00 0. -1.
          4    1    1    2  501    0  0.22767492586E+02  0.15773157322E+02 -0.22867506765E+03  0.23034634309E+03  0.00000000000E+00 0. -1.
         -4    1    1    2    0  503 -0.22767492586E+02 -0.15773157322E+02 -0.12237251358E+03  0.12546785760E+03  0.00000000000E+00 0.  1.
<mgrwt>
<rscale>  2 0.27697495E+02</rscale>
<asrwt>0</asrwt>
<pdfrwt beam="1">  1       21 0.36666307E-03 0.27697495E+02</pdfrwt>
<pdfrwt beam="2">  1       21 0.54373979E-01 0.27697495E+02</pdfrwt>
<totfact> 0.44831917E+07</totfact>
</mgrwt>
</event>
<event>
 4    1  0.7119201E+004  0.2452660E+02  0.7546771E-02  0.1667896E+00
         21   -1    0    0  501  502  0.00000000000E+00  0.00000000000E+00  0.17601331242E+02  0.17601331242E+02  0.00000000000E+00 0. -1.
         21   -1    0    0  502  503 -0.00000000000E+00 -0.00000000000E+00 -0.44500501012E+02  0.44500501012E+02  0.00000000000E+00 0. -1.
          2    1    1    2  501    0  0.23756088207E+02 -0.60993940870E+01  0.15063330608E+01  0.24572817795E+02  0.00000000000E+00 0.  1.
         -2    1    1    2    0  503 -0.23756088207E+02  0.60993940870E+01 -0.28405502831E+02  0.37529014458E+02  0.00000000000E+00 0. -1.
<mgrwt>
<rscale>  2 0.24526605E+02</rscale>
<asrwt>0</asrwt>
<pdfrwt beam="1">  1       21 0.27078971E-02 0.24526605E+02</pdfrwt>
<pdfrwt beam="2">  1       21 0.68462309E-02 0.24526605E+02</pdfrwt>
<totfact> 0.82634320E+07</totfact>
</mgrwt>
</event>
<event>
 4    1  0.7119201E+004  0.2589884E+02  0.7546771E-02  0.1648417E+00
         21   -1    0    0  501  502  0.00000000000E+00  0.00000000000E+00  0.36880433038E+01  0.36880433038E+01  0.00000000000E+00 0. -1.
         21   -1    0    0  502  503 -0.00000000000E+00 -0.00000000000E+00 -0.22158633726E+03  0.22158633726E+03  0.00000000000E+00 0. -1.
          3    1    1    2  501    0  0.19539510725E+02  0.16998755100E+02 -0.15663465745E+03  0.15876134941E+03  0.00000000000E+00 0. -1.
         -3    1    1    2    0  503 -0.19539510725E+02 -0.16998755100E+02 -0.61263636508E+02  0.66513031148E+02  0.00000000000E+00 0.  1.
<mgrwt>
<rscale>  2 0.25898845E+02</rscale>
<asrwt>0</asrwt>
<pdfrwt beam="1">  1       21 0.56739108E-03 0.25898845E+02</pdfrwt>
<pdfrwt beam="2">  1       21 0.34090217E-01 0.25898845E+02</pdfrwt>
<totfact> 0.56679632E+07</totfact>
</mgrwt>
</event>
<event>
 4    1  0.7119201E+004  0.4915548E+02  0.7546771E-02  0.1449951E+00
         21   -1    0    0  503  502  0.00000000000E+00  0.00000000000E+00  0.53816766685E+03  0.53816766685E+03  0.00000000000E+00 0.  1.
         21   -1    0    0  501  503 -0.00000000000E+00 -0.00000000000E+00 -0.46089261029E+01  0.46089261029E+01  0.00000000000E+00 0.  1.
          1    1    1    2  501    0 -0.45704284842E+02  0.18093628757E+02  0.31041173188E+03  0.31427965945E+03  0.00000000000E+00 0.  1.
         -1    1    1    2    0  502  0.45704284842E+02 -0.18093628757E+02  0.22314700886E+03  0.22849693350E+03  0.00000000000E+00 0. -1.
<mgrwt>
<rscale>  2 0.49155478E+02</rscale>
<asrwt>0</asrwt>
<pdfrwt beam="1">  1       21 0.82794976E-01 0.49155478E+02</pdfrwt>
<pdfrwt beam="2">  1       21 0.70906598E-03 0.49155478E+02</pdfrwt>
<totfact> 0.75849329E+06</totfact>
</mgrwt>
</event>
<event>
 4    1  0.7119201E+004  0.2105738E+02  0.7546771E-02  0.1725083E+00
         21   -1    0    0  503  502  0.00000000000E+00  0.00000000000E+00  0.24363176440E+00  0.24363176440E+00  0.00000000000E+00 0. -1.
         21   -1    0    0  501  503 -0.00000000000E+00 -0.00000000000E+00 -0.18704135579E+04  0.18704135579E+04  0.00000000000E+00 0. -1.
          3    1    1    2  501    0  0.20583380794E+02 -0.44427256503E+01 -0.10886194810E+04  0.10888231205E+04  0.00000000000E+00 0. -1.
         -3    1    1    2    0  502 -0.20583380794E+02  0.44427256503E+01 -0.78155044518E+03  0.78183406919E+03  0.00000000000E+00 0.  1.
<mgrwt>
<rscale>  2 0.21057383E+02</rscale>
<asrwt>0</asrwt>
<pdfrwt beam="1">  1       21 0.37483243E-04 0.21057383E+02</pdfrwt>
<pdfrwt beam="2">  1       21 0.28774493E+00 0.21057383E+02</pdfrwt>
<totfact> 0.22133977E+07</totfact>
</mgrwt>
</event>
<event>
 4    1  0.7119201E+004  0.2036065E+02  0.7546771E-02  0.1738250E+00
         21   -1    0    0  503  502  0.00000000000E+00  0.00000000000E+00  0.29910130678E+01  0.29910130678E+01  0.00000000000E+00 0.  1.
         21   -1    0    0  501  503 -0.00000000000E+00 -0.00000000000E+00 -0.13884662361E+03  0.13884662361E+03  0.00000000000E+00 0.  1.
          2    1    1    2  501    0  0.18819682438E+02 -0.77701772660E+01 -0.70913276621E+02  0.73778376934E+02  0.00000000000E+00 0. -1.
         -2    1    1    2    0  502 -0.18819682438E+02  0.77701772660E+01 -0.64942333919E+02  0.68059259743E+02  0.00000000000E+00 0.  1.
<mgrwt>
<rscale>  2 0.20360651E+02</rscale>
<asrwt>0</asrwt>
<pdfrwt beam="1">  1       21 0.46015581E-03 0.20360651E+02</pdfrwt>
<pdfrwt beam="2">  1       21 0.21361021E-01 0.20360651E+02</pdfrwt>
<totfact> 0.16780008E+08</totfact>
</mgrwt>
</event>
<event>
 4    1  0.7119201E+004  0.2170343E+02  0.7546771E-02  0.1713432E+00
         21   -1    0    0  503  502  0.00000000000E+00  0.00000000000E+00  0.17563869520E+03  0.17563869520E+03  0.00000000000E+00 0. -1.
         21   -1    0    0  501  503 -0.00000000000E+00 -0.00000000000E+00 -0.27036340440E+01  0.27036340440E+01  0.00000000000E+00 0. -1.
          1    1    1    2  501    0  0.21327568869E+02  0.40216501196E+01  0.78465628982E+02  0.81411877482E+02  0.00000000000E+00 0. -1.
         -1    1    1    2    0  502 -0.21327568869E+02 -0.40216501196E+01  0.94469432172E+02  0.96930451761E+02  0.00000000000E+00 0.  1.
<mgrwt>
<rscale>  2 0.21703430E+02</rscale>
<asrwt>0</asrwt>
<pdfrwt beam="1">  1       21 0.27021329E-01 0.21703430E+02</pdfrwt>
<pdfrwt beam="2">  1       21 0.41594384E-03 0.21703430E+02</pdfrwt>
<totfact> 0.13081522E+08</totfact>
</mgrwt>
</event>
<event>
 4    1  0.7119201E+004  0.3948945E+02  0.7546771E-02  0.1512003E+00
         21   -1    0    0  503  502  0.00000000000E+00  0.00000000000E+00  0.26625675356E+02  0.26625675356E+02  0.00000000000E+00 0.  1.
         21   -1    0    0  501  503 -0.00000000000E+00 -0.00000000000E+00 -0.58691043282E+02  0.58691043282E+02  0.00000000000E+00 0.  1.
          3    1    1    2  501    0  0.51140586080E+01 -0.39156899466E+02 -0.17984747925E+02  0.43392021492E+02  0.00000000000E+00 0.  1.
         -3    1    1    2    0  502 -0.51140586080E+01  0.39156899466E+02 -0.14080620001E+02  0.41924697146E+02  0.00000000000E+00 0. -1.
<mgrwt>
<rscale>  2 0.39489446E+02</rscale>
<asrwt>0</asrwt>
<pdfrwt beam="1">  1       21 0.40962578E-02 0.39489446E+02</pdfrwt>
<pdfrwt beam="2">  1       21 0.90293912E-02 0.39489446E+02</pdfrwt>
<totfact> 0.30187939E+07</totfact>
</mgrwt>
</event>
<event>
 4    1  0.7119201E+004  0.5151537E+02  0.7546771E-02  0.1437335E+00
         21   -1    0    0  501  502  0.00000000000E+00  0.00000000000E+00  0.29150977027E+03  0.29150977027E+03  0.00000000000E+00 0.  1.
         21   -1    0    0  502  503 -0.00000000000E+00 -0.00000000000E+00 -0.13008579460E+02  0.13008579460E+02  0.00000000000E+00 0.  1.
          2    1    1    2  501    0 -0.42358542506E+02 -0.29318726554E+02  0.55830778725E+02  0.75966503822E+02  0.00000000000E+00 0.  1.
         -2    1    1    2    0  503  0.42358542506E+02  0.29318726554E+02  0.22267041208E+03  0.22855184591E+03  0.00000000000E+00 0. -1.
<mgrwt>
<rscale>  2 0.51515375E+02</rscale>
<asrwt>0</asrwt>
<pdfrwt beam="1">  1       21 0.44847652E-01 0.51515375E+02</pdfrwt>
<pdfrwt beam="2">  1       21 0.20013201E-02 0.51515375E+02</pdfrwt>
<totfact> 0.54363085E+06</totfact>
</mgrwt>
</event>
<event>
 4    1  0.7119201E+004  0.2087734E+02  0.7546771E-02  0.1728424E+00
         21   -1    0    0  503  502  0.00000000000E+00  0.00000000000E+00  0.10501116851E+02  0.10501116851E+02  0.00000000000E+00 0.  1.
         21   -1    0    0  501  503 -0.00000000000E+00 -0.00000000000E+00 -0.43494214805E+02  0.43494214805E+02  0.00000000000E+00 0.  1.
          1    1    1    2  501    0  0.41811620631E+01 -0.20454366428E+02 -0.10724873448E+02  0.23470963607E+02  0.00000000000E+00 0.  1.
         -1    1    1    2    0  502 -0.41811620631E+01  0.20454366428E+02 -0.22268224506E+02  0.30524368049E+02  0.00000000000E+00 0. -1.
<mgrwt>
<rscale>  2 0.20877338E+02</rscale>
<asrwt>0</asrwt>
<pdfrwt beam="1">  1       21 0.16155564E-02 0.20877338E+02</pdfrwt>
<pdfrwt beam="2">  1       21 0.66914177E-02 0.20877338E+02</pdfrwt>
<totfact> 0.18073935E+08</totfact>
</mgrwt>
</event>
<event>
 4    1  0.7119201E+004  0.5234624E+02  0.7546771E-02  0.1433082E+00
         21   -1    0    0  503  502  0.00000000000E+00  0.00000000000E+00  0.56646178581E+02  0.56646178581E+02  0.00000000000E+00 0.  1.
         21   -1    0    0  501  503 -0.00000000000E+00 -0.00000000000E+00 -0.62422719958E+02  0.62422719958E+02  0.00000000000E+00 0.  1.
          2    1    1    2  501    0  0.52326715544E+02  0.14295450166E+01 -0.31132870409E+02  0.60904715569E+02  0.00000000000E+00 0. -1.
         -2    1    1    2    0  502 -0.52326715544E+02 -0.14295450166E+01  0.25356329032E+02  0.58164182970E+02  0.00000000000E+00 0.  1.
<mgrwt>
<rscale>  2 0.52346239E+02</rscale>
<asrwt>0</asrwt>
<pdfrwt beam="1">  1       21 0.87147967E-02 0.52346239E+02</pdfrwt>
<pdfrwt beam="2">  1       21 0.96034954E-02 0.52346239E+02</pdfrwt>
<totfact> 0.81675050E+06</totfact>
</mgrwt>
</event>
<event>
 4    1  0.7119201E+004  0.3102357E+02  0.7546771E-02  0.1587042E+00
         21   -1    0    0  501  502  0.00000000000E+00  0.00000000000E+00  0.51829932123E+03  0.51829932123E+03  0.00000000000E+00 0. -1.
         21   -1    0    0  502  503 -0.00000000000E+00 -0.00000000000E+00 -0.21267344509E+01  0.21267344509E+01  0.00000000000E+00 0. -1.
          5    1    1    2  501    0 -0.26756069370E+02 -0.15702702549E+02  0.35076313960E+03  0.35213242143E+03  0.00000000000E+00 0.  1.
         -5    1    1    2    0  503  0.26756069370E+02  0.15702702549E+02  0.16540944718E+03  0.16829363426E+03  0.00000000000E+00 0. -1.
<mgrwt>
<rscale>  2 0.31023574E+02</rscale>
<asrwt>0</asrwt>
<pdfrwt beam="1">  1       21 0.79738257E-01 0.31023574E+02</pdfrwt>
<pdfrwt beam="2">  1       21 0.32719033E-03 0.31023574E+02</pdfrwt>
<totfact> 0.24690838E+07</totfact>
</mgrwt>
</event>
<event>
 4    1  0.7119201E+004  0.2265003E+02  0.7546771E-02  0.1697247E+00
         21   -1    0    0  501  502  0.00000000000E+00  0.00000000000E+00  0.15057284011E+02  0.15057284011E+02  0.00000000000E+00 0.  1.
         21   -1    0    0  502  503 -0.00000000000E+00 -0.00000000000E+00 -0.46576842202E+02  0.46576842202E+02  0.00000000000E+00 0.  1.
          1    1    1    2  501    0  0.23908131621E+01 -0.22523495161E+02  0.20836759755E+00  0.22650987593E+02  0.00000000000E+00 0.  1.
         -1    1    1    2    0  503 -0.23908131621E+01  0.22523495161E+02 -0.31727925789E+02  0.38983138621E+02  0.00000000000E+00 0. -1.
<mgrwt>
<rscale>  2 0.22650029E+02</rscale>
<asrwt>0</asrwt>
<pdfrwt beam="1">  1       21 0.23165053E-02 0.22650029E+02</pdfrwt>
<pdfrwt beam="2">  1       21 0.71656679E-02 0.22650029E+02</pdfrwt>
<totfact> 0.95565572E+07</totfact>
</mgrwt>
</event>
<event>
 4    1  0.7119201E+004  0.2031330E+02  0.7546771E-02  0.1739168E+00
         21   -1    0    0  503  502  0.00000000000E+00  0.00000000000E+00  0.16698655900E+01  0.16698655900E+01  0.00000000000E+00 0. -1.
         21   -1    0    0  501  503 -0.00000000000E+00 -0.00000000000E+00 -0.28108028006E+03  0.28108028006E+03  0.00000000000E+00 0. -1.
          2    1    1    2  501    0  0.13738622540E+02  0.14962638706E+02 -0.18885777162E+03  0.18994706686E+03  0.00000000000E+00 0. -1.
         -2    1    1    2    0  502 -0.13738622540E+02 -0.14962638706E+02 -0.90552642850E+02  0.92803078793E+02  0.00000000000E+00 0.  1.
<mgrwt>
<rscale>  2 0.20313304E+02</rscale>
<asrwt>0</asrwt>
<pdfrwt beam="1">  1       21 0.25690223E-03 0.20313304E+02</pdfrwt>
<pdfrwt beam="2">  1       21 0.43243148E-01 0.20313304E+02</pdfrwt>
<totfact> 0.10894948E+08</totfact>
</mgrwt>
</event>
<event>
 4    1  0.7119201E+004  0.3018274E+02  0.7546771E-02  0.1596077E+00
         21   -1    0    0  503  502  0.00000000000E+00  0.00000000000E+00  0.56016700552E+02  0.56016700552E+02  0.00000000000E+00 0.  1.
         21   -1    0    0  501  503 -0.00000000000E+00 -0.00000000000E+00 -0.17746618872E+02  0.17746618872E+02  0.00000000000E+00 0.  1.
          5    1    1    2  501    0 -0.14958284870E+02 -0.26215410094E+02  0.84710940320E+01  0.31348962451E+02  0.00000000000E+00 0. -1.
         -5    1    1    2    0  502  0.14958284870E+02  0.26215410094E+02  0.29798987648E+02  0.42414356974E+02  0.00000000000E+00 0.  1.
<mgrwt>
<rscale>  2 0.30182744E+02</rscale>
<asrwt>0</asrwt>
<pdfrwt beam="1">  1       21 0.86179539E-02 0.30182744E+02</pdfrwt>
<pdfrwt beam="2">  1       21 0.27302491E-02 0.30182744E+02</pdfrwt>
<totfact> 0.58877477E+07</totfact>
</mgrwt>
</event>
<event>
 4    1  0.7119201E+004  0.2237821E+02  0.7546771E-02  0.1701792E+00
         21   -1    0    0  501  502  0.00000000000E+00  0.00000000000E+00  0.21169156358E+04  0.21169156358E+04  0.00000000000E+00 0. -1.
         21   -1    0    0  502  503 -0.00000000000E+00 -0.00000000000E+00 -0.24374564903E+00  0.24374564903E+00  0.00000000000E+00 0. -1.
          1    1    1    2  501    0 -0.18898676115E+02  0.11984332545E+02  0.87661978053E+03  0.87690536764E+03  0.00000000000E+00 0. -1.
         -1    1    1    2    0  503  0.18898676115E+02 -0.11984332545E+02  0.12400521096E+04  0.12402540138E+04  0.00000000000E+00 0.  1.
<mgrwt>
<rscale>  2 0.22378208E+02</rscale>
<asrwt>0</asrwt>
<pdfrwt beam="1">  1       21 0.32566461E+00 0.22378208E+02</pdfrwt>
<pdfrwt beam="2">  1       21 0.37501026E-04 0.22378208E+02</pdfrwt>
<totfact> 0.14586867E+07</totfact>
</mgrwt>
</event>
<event>
 4    1  0.7119201E+004  0.3247735E+02  0.7546771E-02  0.1572216E+00
         21   -1    0    0  503  502  0.00000000000E+00  0.00000000000E+00  0.56689698843E+01  0.56689698843E+01  0.00000000000E+00 0.  1.
         21   -1    0    0  501  503 -0.00000000000E+00 -0.00000000000E+00 -0.19700678684E+03  0.19700678684E+03  0.00000000000E+00 0.  1.
          4    1    1    2  501    0 -0.19169823079E+02 -0.26216331349E+02 -0.71783046628E+02  0.78788222022E+02  0.00000000000E+00 0.  1.
         -4    1    1    2    0  502  0.19169823079E+02  0.26216331349E+02 -0.11955477033E+03  0.12388753470E+03  0.00000000000E+00 0. -1.
<mgrwt>
<rscale>  2 0.32477348E+02</rscale>
<asrwt>0</asrwt>
<pdfrwt beam="1">  1       21 0.87214930E-03 0.32477348E+02</pdfrwt>
<pdfrwt beam="2">  1       21 0.30308733E-01 0.32477348E+02</pdfrwt>
<totfact> 0.38794141E+07</totfact>
</mgrwt>
</event>
<event>
 4    1  0.7119201E+004  0.2512339E+02  0.7546771E-02  0.1659236E+00
         21   -1    0    0  503  502  0.00000000000E+00  0.00000000000E+00  0.71708248172E+00  0.71708248172E+00  0.00000000000E+00 0. -1.
         21   -1    0    0  501  503 -0.00000000000E+00 -0.00000000000E+00 -0.11581747030E+04  0.11581747030E+04  0.00000000000E+00 0. -1.
          3    1    1    2  501    0  0.23377181275E+02 -0.92028291549E+01 -0.29485910588E+03  0.29592748604E+03  0.00000000000E+00 0.  1.
         -3    1    1    2    0  502 -0.23377181275E+02  0.92028291549E+01 -0.86259851463E+03  0.86296429944E+03  0.00000000000E+00 0. -1.
<mgrwt>
<rscale>  2 0.25123389E+02</rscale>
<asrwt>0</asrwt>
<pdfrwt beam="1">  1       21 0.11032093E-03 0.25123389E+02</pdfrwt>
<pdfrwt beam="2">  1       21 0.17817983E+00 0.25123389E+02</pdfrwt>
<totfact> 0.18331170E+07</totfact>
</mgrwt>
</event>
<event>
 4    1  0.7119201E+004  0.3085306E+02  0.7546771E-02  0.1588846E+00
         21   -1    0    0  503  502  0.00000000000E+00  0.00000000000E+00  0.10886817537E+02  0.10886817537E+02  0.00000000000E+00 0.  1.
         21   -1    0    0  501  503 -0.00000000000E+00 -0.00000000000E+00 -0.87489072382E+02  0.87489072382E+02  0.00000000000E+00 0.  1.
          5    1    1    2  501    0 -0.23138109975E+02 -0.20409296022E+02 -0.39500257905E+02  0.50121670682E+02  0.00000000000E+00 0. -1.
         -5    1    1    2    0  502  0.23138109975E+02  0.20409296022E+02 -0.37101996939E+02  0.48254219237E+02  0.00000000000E+00 0.  1.
<mgrwt>
<rscale>  2 0.30853063E+02</rscale>
<asrwt>0</asrwt>
<pdfrwt beam="1">  1       21 0.16748950E-02 0.30853063E+02</pdfrwt>
<pdfrwt beam="2">  1       21 0.13459858E-01 0.30853063E+02</pdfrwt>
<totfact> 0.59725139E+07</totfact>
</mgrwt>
</event>
<event>
 4    1  0.7119201E+004  0.2180361E+02  0.7546771E-02  0.1711671E+00
         21   -1    0    0  503  502  0.00000000000E+00  0.00000000000E+00  0.70760314018E+01  0.70760314018E+01  0.00000000000E+00 0.  1.
         21   -1    0    0  501  503 -0.00000000000E+00 -0.00000000000E+00 -0.71437926648E+02  0.71437926648E+02  0.00000000000E+00 0.  1.
          3    1    1    2  501    0  0.19915296459E+02  0.88757263691E+01 -0.41760317353E+02  0.47109676894E+02  0.00000000000E+00 0.  1.
         -3    1    1    2    0  502 -0.19915296459E+02 -0.88757263691E+01 -0.22601577893E+02  0.31404281156E+02  0.00000000000E+00 0. -1.
<mgrwt>
<rscale>  2 0.21803613E+02</rscale>
<asrwt>0</asrwt>
<pdfrwt beam="1">  1       21 0.10886202E-02 0.21803613E+02</pdfrwt>
<pdfrwt beam="2">  1       21 0.10990450E-01 0.21803613E+02</pdfrwt>
<totfact> 0.14781572E+08</totfact>
</mgrwt>
</event>
<event>
 4    1  0.7119201E+004  0.2128724E+02  0.7546771E-02  0.1720879E+00
         21   -1    0    0  503  502  0.00000000000E+00  0.00000000000E+00  0.80227300317E+01  0.80227300317E+01  0.00000000000E+00 0. -1.
         21   -1    0    0  501  503 -0.00000000000E+00 -0.00000000000E+00 -0.58790137311E+02  0.58790137311E+02  0.00000000000E+00 0. -1.
          2    1    1    2  501    0 -0.15011717004E+02  0.15092870669E+02 -0.18765626586E+02  0.28377722488E+02  0.00000000000E+00 0. -1.
         -2    1    1    2    0  502  0.15011717004E+02 -0.15092870669E+02 -0.32001780694E+02  0.38435144855E+02  0.00000000000E+00 0.  1.
<mgrwt>
<rscale>  2 0.21287235E+02</rscale>
<asrwt>0</asrwt>
<pdfrwt beam="1">  1       21 0.12342661E-02 0.21287235E+02</pdfrwt>
<pdfrwt beam="2">  1       21 0.90446368E-02 0.21287235E+02</pdfrwt>
<totfact> 0.16751882E+08</totfact>
</mgrwt>
</event>
<event>
 4    1  0.7119201E+004  0.2104642E+02  0.7546771E-02  0.1725285E+00
         21   -1    0    0  501  502  0.00000000000E+00  0.00000000000E+00  0.62785773636E+01  0.62785773636E+01  0.00000000000E+00 0. -1.
         21   -1    0    0  502  503 -0.00000000000E+00 -0.00000000000E+00 -0.80416473201E+02  0.80416473201E+02  0.00000000000E+00 0. -1.
          3    1    1    2  501    0  0.95720207972E+01  0.18743756369E+02 -0.21885215398E+02  0.30363047244E+02  0.00000000000E+00 0. -1.
         -3    1    1    2    0  503 -0.95720207972E+01 -0.18743756369E+02 -0.52252680440E+02  0.56332003320E+02  0.00000000000E+00 0.  1.
<mgrwt>
<rscale>  2 0.21046425E+02</rscale>
<asrwt>0</asrwt>
<pdfrwt beam="1">  1       21 0.96593512E-03 0.21046425E+02</pdfrwt>
<pdfrwt beam="2">  1       21 0.12371763E-01 0.21046425E+02</pdfrwt>
<totfact> 0.14364183E+08</totfact>
</mgrwt>
</event>
<event>
 4    1  0.7119201E+004  0.2200933E+02  0.7546771E-02  0.1708091E+00
         21   -1    0    0  501  502  0.00000000000E+00  0.00000000000E+00  0.18097138523E+02  0.18097138523E+02  0.00000000000E+00 0.  1.
         21   -1    0    0  502  503 -0.00000000000E+00 -0.00000000000E+00 -0.26780792078E+02  0.26780792078E+02  0.00000000000E+00 0.  1.
          3    1    1    2  501    0 -0.20119283626E+02  0.89232976664E+01 -0.38374316132E+01  0.22341367376E+02  0.00000000000E+00 0.  1.
         -3    1    1    2    0  503  0.20119283626E+02 -0.89232976664E+01 -0.48462219419E+01  0.22536563224E+02  0.00000000000E+00 0. -1.
<mgrwt>
<rscale>  2 0.22009335E+02</rscale>
<asrwt>0</asrwt>
<pdfrwt beam="1">  1       21 0.27841752E-02 0.22009335E+02</pdfrwt>
<pdfrwt beam="2">  1       21 0.41201219E-02 0.22009335E+02</pdfrwt>
<totfact> 0.17255953E+08</totfact>
</mgrwt>
</event>
<event>
 4    1  0.7119201E+004  0.2027312E+02  0.7546771E-02  0.1739951E+00
         21   -1    0    0  501  502  0.00000000000E+00  0.00000000000E+00  0.31314625750E+01  0.31314625750E+01  0.00000000000E+00 0.  1.
         21   -1    0    0  502  503 -0.00000000000E+00 -0.00000000000E+00 -0.13145401457E+03  0.13145401457E+03  0.00000000000E+00 0.  1.
          2    1    1    2  501    0 -0.19712180944E+02 -0.47359533144E+01 -0.61499637294E+02  0.64754959027E+02  0.00000000000E+00 0.  1.
         -2    1    1    2    0  503  0.19712180944E+02  0.47359533144E+01 -0.66822914697E+02  0.69830518113E+02  0.00000000000E+00 0. -1.
<mgrwt>
<rscale>  2 0.20273118E+02</rscale>
<asrwt>0</asrwt>
<pdfrwt beam="1">  1       21 0.48176349E-03 0.20273118E+02</pdfrwt>
<pdfrwt beam="2">  1       21 0.20223694E-01 0.20273118E+02</pdfrwt>
<totfact> 0.17233904E+08</totfact>
</mgrwt>
</event>
<event>
 4    1  0.7119201E+004  0.2063509E+02  0.7546771E-02  0.1732986E+00
         21   -1    0    0  501  502  0.00000000000E+00  0.00000000000E+00  0.10985042685E+02  0.10985042685E+02  0.00000000000E+00 0. -1.
         21   -1    0    0  502  503 -0.00000000000E+00 -0.00000000000E+00 -0.58500299126E+02  0.58500299126E+02  0.00000000000E+00 0. -1.
          5    1    1    2  501    0  0.11513219677E+02 -0.17124619027E+02 -0.35770114192E+01  0.20942822514E+02  0.00000000000E+00 0.  1.
         -5    1    1    2    0  503 -0.11513219677E+02  0.17124619027E+02 -0.43938245022E+02  0.48542519298E+02  0.00000000000E+00 0. -1.
<mgrwt>
<rscale>  2 0.20635087E+02</rscale>
<asrwt>0</asrwt>
<pdfrwt beam="1">  1       21 0.16900066E-02 0.20635087E+02</pdfrwt>
<pdfrwt beam="2">  1       21 0.90000461E-02 0.20635087E+02</pdfrwt>
<totfact> 0.10399016E+08</totfact>
</mgrwt>
</event>
<event>
 4    1  0.7119201E+004  0.3137070E+02  0.7546771E-02  0.1583414E+00
         21   -1    0    0  501  502  0.00000000000E+00  0.00000000000E+00  0.14946575999E+02  0.14946575999E+02  0.00000000000E+00 0.  1.
         21   -1    0    0  502  503 -0.00000000000E+00 -0.00000000000E+00 -0.78126640453E+02  0.78126640453E+02  0.00000000000E+00 0.  1.
          2    1    1    2  501    0 -0.30104440201E+02 -0.88228911893E+01 -0.13137048680E+02  0.34010333382E+02  0.00000000000E+00 0. -1.
         -2    1    1    2    0  503  0.30104440201E+02  0.88228911893E+01 -0.50043015774E+02  0.59062883070E+02  0.00000000000E+00 0.  1.
<mgrwt>
<rscale>  2 0.31370699E+02</rscale>
<asrwt>0</asrwt>
<pdfrwt beam="1">  1       21 0.22994732E-02 0.31370699E+02</pdfrwt>
<pdfrwt beam="2">  1       21 0.12019483E-01 0.31370699E+02</pdfrwt>
<totfact> 0.44465270E+07</totfact>
</mgrwt>
</event>
<event>
 4    1  0.7119201E+004  0.4156838E+02  0.7546771E-02  0.1496977E+00
         21   -1    0    0  503  502  0.00000000000E+00  0.00000000000E+00  0.40582419283E+01  0.40582419283E+01  0.00000000000E+00 0. -1.
         21   -1    0    0  501  503 -0.00000000000E+00 -0.00000000000E+00 -0.48962228607E+03  0.48962228607E+03  0.00000000000E+00 0. -1.
          3    1    1    2  501    0 -0.39878942512E+02 -0.11730295312E+02 -0.33191324721E+03  0.33450610391E+03  0.00000000000E+00 0.  1.
         -3    1    1    2    0  502  0.39878942512E+02  0.11730295312E+02 -0.15365079693E+03  0.15917442408E+03  0.00000000000E+00 0. -1.
<mgrwt>
<rscale>  2 0.41568376E+02</rscale>
<asrwt>0</asrwt>
<pdfrwt beam="1">  1       21 0.62434478E-03 0.41568376E+02</pdfrwt>
<pdfrwt beam="2">  1       21 0.75326521E-01 0.41568376E+02</pdfrwt>
<totfact> 0.11076861E+07</totfact>
</mgrwt>
</event>
<event>
 4    1  0.7119201E+004  0.2163980E+02  0.7546771E-02  0.1714557E+00
         21   -1    0    0  503  502  0.00000000000E+00  0.00000000000E+00  0.32189112239E+03  0.32189112239E+03  0.00000000000E+00 0. -1.
         21   -1    0    0  501  503 -0.00000000000E+00 -0.00000000000E+00 -0.21942597676E+01  0.21942597676E+01  0.00000000000E+00 0. -1.
          5    1    1    2  501    0 -0.17576145317E+02 -0.12623781623E+02  0.25391787886E+03  0.25483832119E+03  0.00000000000E+00 0. -1.
         -5    1    1    2    0  502  0.17576145317E+02  0.12623781623E+02  0.65778983770E+02  0.69247060967E+02  0.00000000000E+00 0.  1.
<mgrwt>
<rscale>  2 0.21639795E+02</rscale>
<asrwt>0</asrwt>
<pdfrwt beam="1">  1       21 0.49521674E-01 0.21639795E+02</pdfrwt>
<pdfrwt beam="2">  1       21 0.33757868E-03 0.21639795E+02</pdfrwt>
<totfact> 0.57475564E+07</totfact>
</mgrwt>
</event>
<event>
 4    1  0.7119201E+004  0.2308000E+02  0.7546771E-02  0.1690217E+00
         21   -1    0    0  503  502  0.00000000000E+00  0.00000000000E+00  0.35386097991E+02  0.35386097991E+02  0.00000000000E+00 0.  1.
         21   -1    0    0  501  503 -0.00000000000E+00 -0.00000000000E+00 -0.16017754649E+02  0.16017754649E+02  0.00000000000E+00 0.  1.
          4    1    1    2  501    0  0.21196501923E+02 -0.91320746065E+01  0.15990098476E+02  0.28077922460E+02  0.00000000000E+00 0. -1.
         -4    1    1    2    0  502 -0.21196501923E+02  0.91320746065E+01  0.33782448669E+01  0.23325930180E+02  0.00000000000E+00 0.  1.
<mgrwt>
<rscale>  2 0.23080002E+02</rscale>
<asrwt>0</asrwt>
<pdfrwt beam="1">  1       21 0.54440151E-02 0.23080002E+02</pdfrwt>
<pdfrwt beam="2">  1       21 0.24642699E-02 0.23080002E+02</pdfrwt>
<totfact> 0.13592619E+08</totfact>
</mgrwt>
</event>
<event>
 4    1  0.7119201E+004  0.4098034E+02  0.7546771E-02  0.1501119E+00
         21   -1    0    0  503  502  0.00000000000E+00  0.00000000000E+00  0.73584391760E+01  0.73584391760E+01  0.00000000000E+00 0.  1.
         21   -1    0    0  501  503 -0.00000000000E+00 -0.00000000000E+00 -0.49731242385E+03  0.49731242385E+03  0.00000000000E+00 0.  1.
          5    1    1    2  501    0 -0.40920388925E+02  0.22158866564E+01 -0.43059039768E+03  0.43253610133E+03  0.00000000000E+00 0.  1.
         -5    1    1    2    0  502  0.40920388925E+02 -0.22158866564E+01 -0.59363586992E+02  0.72134761690E+02  0.00000000000E+00 0. -1.
<mgrwt>
<rscale>  2 0.40980341E+02</rscale>
<asrwt>0</asrwt>
<pdfrwt beam="1">  1       21 0.11320675E-02 0.40980341E+02</pdfrwt>
<pdfrwt beam="2">  1       21 0.76509607E-01 0.40980341E+02</pdfrwt>
<totfact> 0.43220612E+06</totfact>
</mgrwt>
</event>
<event>
 4    1  0.7119201E+004  0.2023962E+02  0.7546771E-02  0.1740604E+00
         21   -1    0    0  503  502  0.00000000000E+00  0.00000000000E+00  0.45929583806E+02  0.45929583806E+02  0.00000000000E+00 0. -1.
         21   -1    0    0  501  503 -0.00000000000E+00 -0.00000000000E+00 -0.95749250112E+01  0.95749250112E+01  0.00000000000E+00 0. -1.
          1    1    1    2  501    0 -0.14081136518E+02  0.14538359947E+02  0.25441464711E+02  0.32510159061E+02  0.00000000000E+00 0. -1.
         -1    1    1    2    0  502  0.14081136518E+02 -0.14538359947E+02  0.10913194084E+02  0.22994349756E+02  0.00000000000E+00 0.  1.
<mgrwt>
<rscale>  2 0.20239622E+02</rscale>
<asrwt>0</asrwt>
<pdfrwt beam="1">  1       21 0.70660897E-02 0.20239622E+02</pdfrwt>
<pdfrwt beam="2">  1       21 0.14730654E-02 0.20239622E+02</pdfrwt>
<totfact> 0.18854804E+08</totfact>
</mgrwt>
</event>
<event>
 4    1  0.7119201E+004  0.2653832E+02  0.7546771E-02  0.1639841E+00
         21   -1    0    0  503  502  0.00000000000E+00  0.00000000000E+00  0.14366808625E+03  0.14366808625E+03  0.00000000000E+00 0.  1.
         21   -1    0    0  501  503 -0.00000000000E+00 -0.00000000000E+00 -0.49162169886E+01  0.49162169886E+01  0.00000000000E+00 0.  1.
          1    1    1    2  501    0 -0.12248658394E+02 -0.23542575339E+02  0.65401910955E+02  0.70581105422E+02  0.00000000000E+00 0.  1.
         -1    1    1    2    0  502  0.12248658394E+02  0.23542575339E+02  0.73349958306E+02  0.78003197816E+02  0.00000000000E+00 0. -1.
<mgrwt>
<rscale>  2 0.26538321E+02</rscale>
<asrwt>0</asrwt>
<pdfrwt beam="1">  1       21 0.22102779E-01 0.26538321E+02</pdfrwt>
<pdfrwt beam="2">  1       21 0.75634119E-03 0.26538321E+02</pdfrwt>
<totfact> 0.81412944E+07</totfact>
</mgrwt>
</event>
<event>
 4    1  0.7119201E+004  0.3065939E+02  0.7546771E-02  0.1590912E+00
         21   -1    0    0  501  502  0.00000000000E+00  0.00000000000E+00  0.21501759172E+02  0.21501759172E+02  0.00000000000E+00 0.  1.
         21   -1    0    0  502  503 -0.00000000000E+00 -0.00000000000E+00 -0.53852072318E+02  0.53852072318E+02  0.00000000000E+00 0.  1.
          2    1    1    2  501    0  0.54024356862E+01 -0.30179659868E+02 -0.32520039147E+02  0.44693971933E+02  0.00000000000E+00 0. -1.
         -2    1    1    2    0  503 -0.54024356862E+01  0.30179659868E+02  0.16972600041E+00  0.30659859556E+02  0.00000000000E+00 0.  1.
<mgrwt>
<rscale>  2 0.30659390E+02</rscale>
<asrwt>0</asrwt>
<pdfrwt beam="1">  1       21 0.33079629E-02 0.30659390E+02</pdfrwt>
<pdfrwt beam="2">  1       21 0.82849343E-02 0.30659390E+02</pdfrwt>
<totfact> 0.46621458E+07</totfact>
</mgrwt>
</event>
<event>
 4    1  0.7119201E+004  0.2396529E+02  0.7546771E-02  0.1676324E+00
         21   -1    0    0  503  502  0.00000000000E+00  0.00000000000E+00  0.25804890636E+01  0.25804890636E+01  0.00000000000E+00 0. -1.
         21   -1    0    0  501  503 -0.00000000000E+00 -0.00000000000E+00 -0.22917601920E+03  0.22917601920E+03  0.00000000000E+00 0. -1.
          3    1    1    2  501    0  0.23931964218E+02  0.12634985152E+01 -0.13297389288E+03  0.13511621489E+03  0.00000000000E+00 0. -1.
         -3    1    1    2    0  502 -0.23931964218E+02 -0.12634985152E+01 -0.93621637258E+02  0.96640293371E+02  0.00000000000E+00 0.  1.
<mgrwt>
<rscale>  2 0.23965294E+02</rscale>
<asrwt>0</asrwt>
<pdfrwt beam="1">  1       21 0.39699819E-03 0.23965294E+02</pdfrwt>
<pdfrwt beam="2">  1       21 0.35257860E-01 0.23965294E+02</pdfrwt>
<totfact> 0.88561424E+07</totfact>
</mgrwt>
</event>
<event>
 4    1  0.7119201E+004  0.2142147E+02  0.7546771E-02  0.1718454E+00
         21   -1    0    0  501  502  0.00000000000E+00  0.00000000000E+00  0.55094592194E+01  0.55094592194E+01  0.00000000000E+00 0.  1.
         21   -1    0    0  502  503 -0.00000000000E+00 -0.00000000000E+00 -0.83500309135E+02  0.83500309135E+02  0.00000000000E+00 0.  1.
          5    1    1    2  501    0  0.84229936779E+01  0.19696000052E+02 -0.41232443851E+02  0.46464972468E+02  0.00000000000E+00 0.  1.
         -5    1    1    2    0  503 -0.84229936779E+01 -0.19696000052E+02 -0.36758406065E+02  0.42544795886E+02  0.00000000000E+00 0. -1.
<mgrwt>
<rscale>  2 0.21421467E+02</rscale>
<asrwt>0</asrwt>
<pdfrwt beam="1">  1       21 0.84760921E-03 0.21421467E+02</pdfrwt>
<pdfrwt beam="2">  1       21 0.12846200E-01 0.21421467E+02</pdfrwt>
<totfact> 0.16481606E+08</totfact>
</mgrwt>
</event>
<event>
 4    1  0.7119201E+004  0.2219029E+02  0.7546771E-02  0.1704982E+00
         21   -1    0    0  501  502  0.00000000000E+00  0.00000000000E+00  0.35373443414E+01  0.35373443414E+01  0.00000000000E+00 0. -1.
         21   -1    0    0  502  503 -0.00000000000E+00 -0.00000000000E+00 -0.14868095738E+03  0.14868095738E+03  0.00000000000E+00 0. -1.
          5    1    1    2  501    0  0.18652727370E+02 -0.12020173262E+02 -0.91788005605E+02  0.94432233779E+02  0.00000000000E+00 0. -1.
         -5    1    1    2    0  503 -0.18652727370E+02  0.12020173262E+02 -0.53355607431E+02  0.57786067940E+02  0.00000000000E+00 0.  1.
<mgrwt>
<rscale>  2 0.22190286E+02</rscale>
<asrwt>0</asrwt>
<pdfrwt beam="1">  1       21 0.54420689E-03 0.22190286E+02</pdfrwt>
<pdfrwt beam="2">  1       21 0.22873991E-01 0.22190286E+02</pdfrwt>
<totfact> 0.11923451E+08</totfact>
</mgrwt>
</event>
<event>
 4    1  0.7119201E+004  0.2150223E+02  0.7546771E-02  0.1717006E+00
         21   -1    0    0  503  502  0.00000000000E+00  0.00000000000E+00  0.61095421452E+02  0.61095421452E+02  0.00000000000E+00 0.  1.
         21   -1    0    0  501  503 -0.00000000000E+00 -0.00000000000E+00 -0.85819897024E+01  0.85819897024E+01  0.00000000000E+00 0.  1.
          5    1    1    2  501    0  0.69207480240E+01 -0.20358018977E+02  0.14279096521E+02  0.25811592112E+02  0.00000000000E+00 0.  1.
         -5    1    1    2    0  502 -0.69207480240E+01  0.20358018977E+02  0.38234335229E+02  0.43865819043E+02  0.00000000000E+00 0. -1.
<mgrwt>
<rscale>  2 0.21502225E+02</rscale>
<asrwt>0</asrwt>
<pdfrwt beam="1">  1       21 0.93992953E-02 0.21502225E+02</pdfrwt>
<pdfrwt beam="2">  1       21 0.13203061E-02 0.21502225E+02</pdfrwt>
<totfact> 0.14250907E+08</totfact>
</mgrwt>
</event>
<event>
 4    1  0.7119201E+004  0.3211253E+02  0.7546771E-02  0.1575846E+00
         21   -1    0    0  503  502  0.00000000000E+00  0.00000000000E+00  0.35100400621E+02  0.35100400621E+02  0.00000000000E+00 0. -1.
         21   -1    0    0  501  503 -0.00000000000E+00 -0.00000000000E+00 -0.38940599774E+02  0.38940599774E+02  0.00000000000E+00 0. -1.
          1    1    1    2  501    0  0.31101387156E+02 -0.79949054993E+01 -0.20264611550E+02  0.37971953837E+02  0.00000000000E+00 0. -1.
         -1    1    1    2    0  502 -0.31101387156E+02  0.79949054993E+01  0.16424412397E+02  0.36069046557E+02  0.00000000000E+00 0.  1.
<mgrwt>
<rscale>  2 0.32112533E+02</rscale>
<asrwt>0</asrwt>
<pdfrwt beam="1">  1       21 0.54000616E-02 0.32112533E+02</pdfrwt>
<pdfrwt beam="2">  1       21 0.59908615E-02 0.32112533E+02</pdfrwt>
<totfact> 0.36597061E+07</totfact>
</mgrwt>
</event>
<event>
 4    1  0.7119201E+004  0.2032374E+02  0.7546771E-02  0.1738966E+00
         21   -1    0    0  503  502  0.00000000000E+00  0.00000000000E+00  0.92214182084E+01  0.92214182084E+01  0.00000000000E+00 0.  1.
         21   -1    0    0  501  503 -0.00000000000E+00 -0.00000000000E+00 -0.44998247666E+02  0.44998247666E+02  0.00000000000E+00 0.  1.
          1    1    1    2  501    0 -0.11637323972E+02  0.16662151696E+02 -0.16057317300E+02  0.25901583875E+02  0.00000000000E+00 0. -1.
         -1    1    1    2    0  502  0.11637323972E+02 -0.16662151696E+02 -0.19719512158E+02  0.28318081999E+02  0.00000000000E+00 0.  1.
<mgrwt>
<rscale>  2 0.20323745E+02</rscale>
<asrwt>0</asrwt>
<pdfrwt beam="1">  1       21 0.14186797E-02 0.20323745E+02</pdfrwt>
<pdfrwt beam="2">  1       21 0.69228074E-02 0.20323745E+02</pdfrwt>
<totfact> 0.20654945E+08</totfact>
</mgrwt>
</event>
<event>
 4    1  0.7119201E+004  0.2244276E+02  0.7546771E-02  0.1700705E+00
         21   -1    0    0  501  502  0.00000000000E+00  0.00000000000E+00  0.14166787454E+04  0.14166787454E+04  0.00000000000E+00 0.  1.
         21   -1    0    0  502  503 -0.00000000000E+00 -0.00000000000E+00 -0.37802557423E+00  0.37802557423E+00  0.00000000000E+00 0.  1.
          5    1    1    2  501    0  0.18875799288E+02  0.12140082960E+02  0.53532522000E+03  0.53579545405E+03  0.00000000000E+00 0. -1.
         -5    1    1    2    0  503 -0.18875799288E+02 -0.12140082960E+02  0.88097549981E+03  0.88126131691E+03  0.00000000000E+00 0.  1.
<mgrwt>
<rscale>  2 0.22442759E+02</rscale>
<asrwt>0</asrwt>
<pdfrwt beam="1">  1       21 0.21794633E+00 0.22442759E+02</pdfrwt>
<pdfrwt beam="2">  1       21 0.58158915E-04 0.22442759E+02</pdfrwt>
<totfact> 0.26673621E+07</totfact>
</mgrwt>
</event>
<event>
 4    1  0.7119201E+004  0.2233897E+02  0.7546771E-02  0.1702455E+00
         21   -1    0    0  501  502  0.00000000000E+00  0.00000000000E+00  0.64840532195E+01  0.64840532195E+01  0.00000000000E+00 0. -1.
         21   -1    0    0  502  503 -0.00000000000E+00 -0.00000000000E+00 -0.92955159074E+02  0.92955159074E+02  0.00000000000E+00 0. -1.
          4    1    1    2  501    0 -0.10726934082E+02 -0.19594963912E+02 -0.22612657595E+02  0.31786192112E+02  0.00000000000E+00 0. -1.
         -4    1    1    2    0  503  0.10726934082E+02  0.19594963912E+02 -0.63858448260E+02  0.67653020181E+02  0.00000000000E+00 0.  1.
<mgrwt>
<rscale>  2 0.22338973E+02</rscale>
<asrwt>0</asrwt>
<pdfrwt beam="1">  1       21 0.99754661E-03 0.22338973E+02</pdfrwt>
<pdfrwt beam="2">  1       21 0.14300794E-01 0.22338973E+02</pdfrwt>
<totfact> 0.10915327E+08</totfact>
</mgrwt>
</event>
<event>
 4    1  0.7119201E+004  0.2593662E+02  0.7546771E-02  0.1647902E+00
         21   -1    0    0  503  502  0.00000000000E+00  0.00000000000E+00  0.27430448125E+02  0.27430448125E+02  0.00000000000E+00 0. -1.
         21   -1    0    0  501  503 -0.00000000000E+00 -0.00000000000E+00 -0.31019426406E+02  0.31019426406E+02  0.00000000000E+00 0. -1.
          5    1    1    2  501    0  0.21168933786E+02  0.14986138227E+02  0.11578728862E+02  0.28403785991E+02  0.00000000000E+00 0. -1.
         -5    1    1    2    0  502 -0.21168933786E+02 -0.14986138227E+02 -0.15167707142E+02  0.30046088540E+02  0.00000000000E+00 0.  1.
<mgrwt>
<rscale>  2 0.25936617E+02</rscale>
<asrwt>0</asrwt>
<pdfrwt beam="1">  1       21 0.42200689E-02 0.25936617E+02</pdfrwt>
<pdfrwt beam="2">  1       21 0.47722195E-02 0.25936617E+02</pdfrwt>
<totfact> 0.74623330E+07</totfact>
</mgrwt>
</event>
<event>
 4    1  0.7119201E+004  0.2096094E+02  0.7546771E-02  0.1726867E+00
         21   -1    0    0  501  502  0.00000000000E+00  0.00000000000E+00  0.10786258668E+03  0.10786258668E+03  0.00000000000E+00 0. -1.
         21   -1    0    0  502  503 -0.00000000000E+00 -0.00000000000E+00 -0.45786333621E+01  0.45786333621E+01  0.00000000000E+00 0. -1.
          5    1    1    2  501    0  0.25139152570E+01  0.20809645497E+02  0.70318623678E+02  0.73376221976E+02  0.00000000000E+00 0. -1.
         -5    1    1    2    0  503 -0.25139152570E+01 -0.20809645497E+02  0.32965329642E+02  0.39064998068E+02  0.00000000000E+00 0.  1.
<mgrwt>
<rscale>  2 0.20960943E+02</rscale>
<asrwt>0</asrwt>
<pdfrwt beam="1">  1       21 0.16594242E-01 0.20960943E+02</pdfrwt>
<pdfrwt beam="2">  1       21 0.70440521E-03 0.20960943E+02</pdfrwt>
<totfact> 0.13977074E+08</totfact>
</mgrwt>
</event>
<event>
 4    1  0.7119201E+004  0.2431636E+02  0.7546771E-02  0.1671020E+00
         21   -1    0    0  503  502  0.00000000000E+00  0.00000000000E+00  0.23174340715E+01  0.23174340715E+01  0.00000000000E+00 0. -1.
         21   -1    0    0  501  503 -0.00000000000E+00 -0.00000000000E+00 -0.39283092359E+03  0.39283092359E+03  0.00000000000E+00 0. -1.
          4    1    1    2  501    0  0.88339499164E+01  0.22654951161E+02 -0.31222541670E+03  0.31317087399E+03  0.00000000000E+00 0.  1.
         -4    1    1    2    0  502 -0.88339499164E+01 -0.22654951161E+02 -0.78288072821E+02  0.81977483672E+02  0.00000000000E+00 0. -1.
<mgrwt>
<rscale>  2 0.24316362E+02</rscale>
<asrwt>0</asrwt>
<pdfrwt beam="1">  1       21 0.35652890E-03 0.24316362E+02</pdfrwt>
<pdfrwt beam="2">  1       21 0.60435428E-01 0.24316362E+02</pdfrwt>
<totfact> 0.36823707E+07</totfact>
</mgrwt>
</event>
<event>
 4    1  0.7119201E+004  0.3512384E+02  0.7546771E-02  0.1547504E+00
         21   -1    0    0  503  502  0.00000000000E+00  0.00000000000E+00  0.91193783587E+03  0.91193783587E+03  0.00000000000E+00 0. -1.
         21   -1    0    0  501  503 -0.00000000000E+00 -0.00000000000E+00 -0.19463301585E+01  0.19463301585E+01  0.00000000000E+00 0. -1.
          3    1    1    2  501    0 -0.29449097687E+02 -0.19142478866E+02  0.20266595449E+03  0.20568707533E+03  0.00000000000E+00 0. -1.
         -3    1    1    2    0  502  0.29449097687E+02  0.19142478866E+02  0.70732555122E+03  0.70819709069E+03  0.00000000000E+00 0.  1.
<mgrwt>
<rscale>  2 0.35123836E+02</rscale>
<asrwt>0</asrwt>
<pdfrwt beam="1">  1       21 0.14029779E+00 0.35123836E+02</pdfrwt>
<pdfrwt beam="2">  1       21 0.29943614E-03 0.35123836E+02</pdfrwt>
<totfact> 0.80247776E+06</totfact>
</mgrwt>
</event>
<event>
 4    1  0.7119201E+004  0.2423871E+02  0.7546771E-02  0.1672184E+00
         21   -1    0    0  503  502  0.00000000000E+00  0.00000000000E+00  0.14356731390E+03  0.14356731390E+03  0.00000000000E+00 0.  1.
         21   -1    0    0  501  503 -0.00000000000E+00 -0.00000000000E+00 -0.45271887122E+01  0.45271887122E+01  0.00000000000E+00 0.  1.
          4    1    1    2  501    0  0.11123288998E+02 -0.21535729612E+02  0.46569032647E+02  0.52499428661E+02  0.00000000000E+00 0. -1.
         -4    1    1    2    0  502 -0.11123288998E+02  0.21535729612E+02  0.92471092539E+02  0.95595073949E+02  0.00000000000E+00 0.  1.
<mgrwt>
<rscale>  2 0.24238713E+02</rscale>
<asrwt>0</asrwt>
<pdfrwt beam="1">  1       21 0.22087276E-01 0.24238713E+02</pdfrwt>
<pdfrwt beam="2">  1       21 0.69649068E-03 0.24238713E+02</pdfrwt>
<totfact> 0.90130634E+07</totfact>
</mgrwt>
</event>
<event>
 4    1  0.7119201E+004  0.2834372E+02  0.7546771E-02  0.1617153E+00
         21   -1    0    0  501  502  0.00000000000E+00  0.00000000000E+00  0.75703980384E+02  0.75703980384E+02  0.00000000000E+00 0.  1.
         21   -1    0    0  502  503 -0.00000000000E+00 -0.00000000000E+00 -0.10634764735E+02  0.10634764735E+02  0.00000000000E+00 0.  1.
          4    1    1    2  501    0 -0.13901021291E+02  0.24700767108E+02  0.34534426650E+02  0.44676536489E+02  0.00000000000E+00 0.  1.
         -4    1    1    2    0  503  0.13901021291E+02 -0.24700767108E+02  0.30534789000E+02  0.41662208630E+02  0.00000000000E+00 0. -1.
<mgrwt>
<rscale>  2 0.28343717E+02</rscale>
<asrwt>0</asrwt>
<pdfrwt beam="1">  1       21 0.11646766E-01 0.28343717E+02</pdfrwt>
<pdfrwt beam="2">  1       21 0.16361177E-02 0.28343717E+02</pdfrwt>
<totfact> 0.77603489E+07</totfact>
</mgrwt>
</event>
<event>
 4    1  0.7119201E+004  0.2211059E+02  0.7546771E-02  0.1706346E+00
         21   -1    0    0  503  502  0.00000000000E+00  0.00000000000E+00  0.68136261258E+01  0.68136261258E+01  0.00000000000E+00 0. -1.
         21   -1    0    0  501  503 -0.00000000000E+00 -0.00000000000E+00 -0.72024465384E+02  0.72024465384E+02  0.00000000000E+00 0. -1.
          4    1    1    2  501    0 -0.86609754628E+01 -0.20343692036E+02 -0.35038391269E+02  0.41431475527E+02  0.00000000000E+00 0.  1.
         -4    1    1    2    0  502  0.86609754628E+01  0.20343692036E+02 -0.30172447988E+02  0.37406615982E+02  0.00000000000E+00 0. -1.
<mgrwt>
<rscale>  2 0.22110593E+02</rscale>
<asrwt>0</asrwt>
<pdfrwt beam="1">  1       21 0.10482502E-02 0.22110593E+02</pdfrwt>
<pdfrwt beam="2">  1       21 0.11080687E-01 0.22110593E+02</pdfrwt>
<totfact> 0.15499152E+08</totfact>
</mgrwt>
</event>
<event>
 4    1  0.7119201E+004  0.2059826E+02  0.7546771E-02  0.1733686E+00
         21   -1    0    0  501  502  0.00000000000E+00  0.00000000000E+00  0.10142984964E+04  0.10142984964E+04  0.00000000000E+00 0.  1.
         21   -1    0    0  502  503 -0.00000000000E+00 -0.00000000000E+00 -0.41935628553E+00  0.41935628553E+00  0.00000000000E+00 0.  1.
          1    1    1    2  501    0 -0.87457724115E+01 -0.18649389620E+02  0.48156207753E+03  0.48200240952E+03  0.00000000000E+00 0. -1.
         -1    1    1    2    0  503  0.87457724115E+01  0.18649389620E+02  0.53231706262E+03  0.53271544320E+03  0.00000000000E+00 0.  1.
<mgrwt>
<rscale>  2 0.20598259E+02</rscale>
<asrwt>0</asrwt>
<pdfrwt beam="1">  1       21 0.15604396E+00 0.20598259E+02</pdfrwt>
<pdfrwt beam="2">  1       21 0.64517164E-04 0.20598259E+02</pdfrwt>
<totfact> 0.52345011E+07</totfact>
</mgrwt>
</event>
<event>
 4    1  0.7119201E+004  0.3244626E+02  0.7546771E-02  0.1572523E+00
         21   -1    0    0  501  502  0.00000000000E+00  0.00000000000E+00  0.13278279746E+03  0.13278279746E+03  0.00000000000E+00 0. -1.
         21   -1    0    0  502  503 -0.00000000000E+00 -0.00000000000E+00 -0.88193473196E+01  0.88193473196E+01  0.00000000000E+00 0. -1.
          4    1    1    2  501    0 -0.32221312951E+02  0.38140550372E+01  0.39478817071E+02  0.51101242856E+02  0.00000000000E+00 0.  1.
         -4    1    1    2    0  503  0.32221312951E+02 -0.38140550372E+01  0.84484633067E+02  0.90500901921E+02  0.00000000000E+00 0. -1.
<mgrwt>
<rscale>  2 0.32446264E+02</rscale>
<asrwt>0</asrwt>
<pdfrwt beam="1">  1       21 0.20428121E-01 0.32446264E+02</pdfrwt>
<pdfrwt beam="2">  1       21 0.13568228E-02 0.32446264E+02</pdfrwt>
<totfact> 0.40380108E+07</totfact>
</mgrwt>
</event>
<event>
 4    1  0.7119201E+004  0.2458670E+02  0.7546771E-02  0.1667010E+00
         21   -1    0    0  501  502  0.00000000000E+00  0.00000000000E+00  0.59854421382E+01  0.59854421382E+01  0.00000000000E+00 0.  1.
         21   -1    0    0  502  503 -0.00000000000E+00 -0.00000000000E+00 -0.10409292070E+03  0.10409292070E+03  0.00000000000E+00 0.  1.
          3    1    1    2  501    0 -0.23867559000E+02  0.59029961608E+01 -0.39560243705E+02  0.46578091613E+02  0.00000000000E+00 0. -1.
         -3    1    1    2    0  503  0.23867559000E+02 -0.59029961608E+01 -0.58547234855E+02  0.63500271224E+02  0.00000000000E+00 0.  1.
<mgrwt>
<rscale>  2 0.24586698E+02</rscale>
<asrwt>0</asrwt>
<pdfrwt beam="1">  1       21 0.92083728E-03 0.24586698E+02</pdfrwt>
<pdfrwt beam="2">  1       21 0.16014295E-01 0.24586698E+02</pdfrwt>
<totfact> 0.10424811E+08</totfact>
</mgrwt>
</event>
<event>
 4    1  0.7119201E+004  0.2293019E+02  0.7546771E-02  0.1692644E+00
         21   -1    0    0  503  502  0.00000000000E+00  0.00000000000E+00  0.33705343040E+02  0.33705343040E+02  0.00000000000E+00 0.  1.
         21   -1    0    0  501  503 -0.00000000000E+00 -0.00000000000E+00 -0.15683986613E+02  0.15683986613E+02  0.00000000000E+00 0.  1.
          3    1    1    2  501    0 -0.44671852485E+01 -0.22490840723E+02  0.72004970060E+01  0.24034159390E+02  0.00000000000E+00 0.  1.
         -3    1    1    2    0  502  0.44671852485E+01  0.22490840723E+02  0.10820859421E+02  0.25355170263E+02  0.00000000000E+00 0. -1.
<mgrwt>
<rscale>  2 0.22930191E+02</rscale>
<asrwt>0</asrwt>
<pdfrwt beam="1">  1       21 0.51854374E-02 0.22930191E+02</pdfrwt>
<pdfrwt beam="2">  1       21 0.24129210E-02 0.22930191E+02</pdfrwt>
<totfact> 0.15146773E+08</totfact>
</mgrwt>
</event>
<event>
 4    1  0.7119201E+004  0.2060648E+02  0.7546771E-02  0.1733530E+00
         21   -1    0    0  501  502  0.00000000000E+00  0.00000000000E+00  0.10797093567E+03  0.10797093567E+03  0.00000000000E+00 0. -1.
         21   -1    0    0  502  503 -0.00000000000E+00 -0.00000000000E+00 -0.39332945945E+01  0.39332945945E+01  0.00000000000E+00 0. -1.
          2    1    1    2  501    0 -0.19771775328E+02 -0.58055024593E+01  0.51384747387E+02  0.55362615747E+02  0.00000000000E+00 0.  1.
         -2    1    1    2    0  503  0.19771775328E+02  0.58055024593E+01  0.52652893693E+02  0.56541614521E+02  0.00000000000E+00 0. -1.
<mgrwt>
<rscale>  2 0.20606479E+02</rscale>
<asrwt>0</asrwt>
<pdfrwt beam="1">  1       21 0.16610911E-01 0.20606479E+02</pdfrwt>
<pdfrwt beam="2">  1       21 0.60512233E-03 0.20606479E+02</pdfrwt>
<totfact> 0.17380091E+08</totfact>
</mgrwt>
</event>
<event>
 4    1  0.7119201E+004  0.4620016E+02  0.7546771E-02  0.1466985E+00
         21   -1    0    0  501  502  0.00000000000E+00  0.00000000000E+00  0.33806021556E+03  0.33806021556E+03  0.00000000000E+00 0. -1.
         21   -1    0    0  502  503 -0.00000000000E+00 -0.00000000000E+00 -0.64867721603E+01  0.64867721603E+01  0.00000000000E+00 0. -1.
          3    1    1    2  501    0 -0.29508916133E+02  0.35548251829E+02  0.19391583439E+03  0.19934343522E+03  0.00000000000E+00 0. -1.
         -3    1    1    2    0  503  0.29508916133E+02 -0.35548251829E+02  0.13765760901E+03  0.14520355249E+03  0.00000000000E+00 0.  1.
<mgrwt>
<rscale>  2 0.46200155E+02</rscale>
<asrwt>0</asrwt>
<pdfrwt beam="1">  1       21 0.52009250E-01 0.46200155E+02</pdfrwt>
<pdfrwt beam="2">  1       21 0.99796522E-03 0.46200155E+02</pdfrwt>
<totfact> 0.11804137E+07</totfact>
</mgrwt>
</event>
<event>
 4    1  0.7119201E+004  0.2350370E+02  0.7546771E-02  0.1683473E+00
         21   -1    0    0  501  502  0.00000000000E+00  0.00000000000E+00  0.65632497503E+01  0.65632497503E+01  0.00000000000E+00 0.  1.
         21   -1    0    0  502  503 -0.00000000000E+00 -0.00000000000E+00 -0.88857906453E+02  0.88857906453E+02  0.00000000000E+00 0.  1.
          2    1    1    2  501    0 -0.18854675111E+02 -0.14032997738E+02 -0.30187823906E+02  0.38258705038E+02  0.00000000000E+00 0.  1.
         -2    1    1    2    0  503  0.18854675111E+02  0.14032997738E+02 -0.52106832797E+02  0.57162451165E+02  0.00000000000E+00 0. -1.
<mgrwt>
<rscale>  2 0.23503698E+02</rscale>
<asrwt>0</asrwt>
<pdfrwt beam="1">  1       21 0.10097307E-02 0.23503698E+02</pdfrwt>
<pdfrwt beam="2">  1       21 0.13670447E-01 0.23503698E+02</pdfrwt>
<totfact> 0.11737630E+08</totfact>
</mgrwt>
</event>
<event>
 4    1  0.7119201E+004  0.2517008E+02  0.7546771E-02  0.1658571E+00
         21   -1    0    0  501  502  0.00000000000E+00  0.00000000000E+00  0.55085615200E+02  0.55085615200E+02  0.00000000000E+00 0.  1.
         21   -1    0    0  502  503 -0.00000000000E+00 -0.00000000000E+00 -0.14284178494E+02  0.14284178494E+02  0.00000000000E+00 0.  1.
          5    1    1    2  501    0 -0.88866692236E+00 -0.25154388309E+02  0.50900988188E+01  0.25679604477E+02  0.00000000000E+00 0. -1.
         -5    1    1    2    0  503  0.88866692236E+00  0.25154388309E+02  0.35711337887E+02  0.43690189217E+02  0.00000000000E+00 0.  1.
<mgrwt>
<rscale>  2 0.25170081E+02</rscale>
<asrwt>0</asrwt>
<pdfrwt beam="1">  1       21 0.84747099E-02 0.25170081E+02</pdfrwt>
<pdfrwt beam="2">  1       21 0.21975659E-02 0.25170081E+02</pdfrwt>
<totfact> 0.81156579E+07</totfact>
</mgrwt>
</event>
<event>
 4    1  0.7119201E+004  0.2088404E+02  0.7546771E-02  0.1728298E+00
         21   -1    0    0  501  502  0.00000000000E+00  0.00000000000E+00  0.11569831494E+02  0.11569831494E+02  0.00000000000E+00 0.  1.
         21   -1    0    0  502  503 -0.00000000000E+00 -0.00000000000E+00 -0.44613801980E+02  0.44613801980E+02  0.00000000000E+00 0.  1.
          5    1    1    2  501    0  0.20096756401E+02  0.56801102716E+01 -0.27583396622E+02  0.34597500484E+02  0.00000000000E+00 0. -1.
         -5    1    1    2    0  503 -0.20096756401E+02 -0.56801102716E+01 -0.54605738640E+01  0.21586132990E+02  0.00000000000E+00 0.  1.
<mgrwt>
<rscale>  2 0.20884043E+02</rscale>
<asrwt>0</asrwt>
<pdfrwt beam="1">  1       21 0.17799741E-02 0.20884043E+02</pdfrwt>
<pdfrwt beam="2">  1       21 0.68636618E-02 0.20884043E+02</pdfrwt>
<totfact> 0.14973520E+08</totfact>
</mgrwt>
</event>
<event>
 4    1  0.7119201E+004  0.6527832E+02  0.7546771E-02  0.1376928E+00
         21   -1    0    0  501  502  0.00000000000E+00  0.00000000000E+00  0.99404417583E+03  0.99404417583E+03  0.00000000000E+00 0.  1.
         21   -1    0    0  502  503 -0.00000000000E+00 -0.00000000000E+00 -0.49215061512E+01  0.49215061512E+01  0.00000000000E+00 0.  1.
          1    1    1    2  501    0 -0.44696116276E+01 -0.65125126828E+02  0.31518670888E+03  0.32187562975E+03  0.00000000000E+00 0.  1.
         -1    1    1    2    0  503  0.44696116276E+01  0.65125126828E+02  0.67393596079E+03  0.67709005222E+03  0.00000000000E+00 0. -1.
<mgrwt>
<rscale>  2 0.65278324E+02</rscale>
<asrwt>0</asrwt>
<pdfrwt beam="1">  1       21 0.15292971E+00 0.65278324E+02</pdfrwt>
<pdfrwt beam="2">  1       21 0.75715558E-03 0.65278324E+02</pdfrwt>
<totfact> 0.16628119E+06</totfact>
</mgrwt>
</event>
<event>
 4    1  0.7119201E+004  0.2180731E+02  0.7546771E-02  0.1711606E+00
         21   -1    0    0  503  502  0.00000000000E+00  0.00000000000E+00  0.13767791694E+03  0.13767791694E+03  0.00000000000E+00 0.  1.
         21   -1    0    0  501  503 -0.00000000000E+00 -0.00000000000E+00 -0.46832373843E+01  0.46832373843E+01  0.00000000000E+00 0.  1.
          4    1    1    2  501    0 -0.18375936431E+02  0.11742385914E+02  0.30031876328E+02  0.37114313445E+02  0.00000000000E+00 0.  1.
         -4    1    1    2    0  502  0.18375936431E+02 -0.11742385914E+02  0.10296280322E+03  0.10524684088E+03  0.00000000000E+00 0. -1.
<mgrwt>
<rscale>  2 0.21807308E+02</rscale>
<asrwt>0</asrwt>
<pdfrwt beam="1">  1       21 0.21181215E-01 0.21807308E+02</pdfrwt>
<pdfrwt beam="2">  1       21 0.72049816E-03 0.21807308E+02</pdfrwt>
<totfact> 0.89635911E+07</totfact>
</mgrwt>
</event>
<event>
 4    1  0.7119201E+004  0.2318118E+02  0.7546771E-02  0.1688590E+00
         21   -1    0    0  501  502  0.00000000000E+00  0.00000000000E+00  0.10172596428E+02  0.10172596428E+02  0.00000000000E+00 0.  1.
         21   -1    0    0  502  503 -0.00000000000E+00 -0.00000000000E+00 -0.61908495492E+02  0.61908495492E+02  0.00000000000E+00 0.  1.
          1    1    1    2  501    0  0.19091356990E+02 -0.13148656363E+02 -0.12062723703E+02  0.26131903471E+02  0.00000000000E+00 0. -1.
         -1    1    1    2    0  503 -0.19091356990E+02  0.13148656363E+02 -0.39673175362E+02  0.45949188449E+02  0.00000000000E+00 0.  1.
<mgrwt>
<rscale>  2 0.23181179E+02</rscale>
<asrwt>0</asrwt>
<pdfrwt beam="1">  1       21 0.15650148E-02 0.23181179E+02</pdfrwt>
<pdfrwt beam="2">  1       21 0.95243840E-02 0.23181179E+02</pdfrwt>
<totfact> 0.11016889E+08</totfact>
</mgrwt>
</event>
<event>
 4    1  0.7119201E+004  0.2100389E+02  0.7546771E-02  0.1726071E+00
         21   -1    0    0  501  502  0.00000000000E+00  0.00000000000E+00  0.17705885606E+01  0.17705885606E+01  0.00000000000E+00 0.  1.
         21   -1    0    0  502  503 -0.00000000000E+00 -0.00000000000E+00 -0.32710976248E+03  0.32710976248E+03  0.00000000000E+00 0.  1.
          4    1    1    2  501    0  0.19225231754E+02 -0.84589439098E+01 -0.24294142222E+03  0.24384769406E+03  0.00000000000E+00 0.  1.
         -4    1    1    2    0  503 -0.19225231754E+02  0.84589439098E+01 -0.82397751690E+02  0.85032656971E+02  0.00000000000E+00 0. -1.
<mgrwt>
<rscale>  2 0.21003887E+02</rscale>
<asrwt>0</asrwt>
<pdfrwt beam="1">  1       21 0.27239813E-03 0.21003887E+02</pdfrwt>
<pdfrwt beam="2">  1       21 0.50324599E-01 0.21003887E+02</pdfrwt>
<totfact> 0.75532068E+07</totfact>
</mgrwt>
</event>
<event>
 4    1  0.7119201E+004  0.2321605E+02  0.7546771E-02  0.1688032E+00
         21   -1    0    0  503  502  0.00000000000E+00  0.00000000000E+00  0.69711997046E+00  0.69711997046E+00  0.00000000000E+00 0. -1.
         21   -1    0    0  501  503 -0.00000000000E+00 -0.00000000000E+00 -0.78592561337E+03  0.78592561337E+03  0.00000000000E+00 0. -1.
          2    1    1    2  501    0 -0.22370147626E+02 -0.62097954549E+01 -0.34248723771E+03  0.34327320469E+03  0.00000000000E+00 0. -1.
         -2    1    1    2    0  502  0.22370147626E+02  0.62097954549E+01 -0.44274125569E+03  0.44334952865E+03  0.00000000000E+00 0.  1.
<mgrwt>
<rscale>  2 0.23216052E+02</rscale>
<asrwt>0</asrwt>
<pdfrwt beam="1">  1       21 0.10724906E-03 0.23216052E+02</pdfrwt>
<pdfrwt beam="2">  1       21 0.12091182E+00 0.23216052E+02</pdfrwt>
<totfact> 0.47225150E+07</totfact>
</mgrwt>
</event>
<event>
 4    1  0.7119201E+004  0.2539770E+02  0.7546771E-02  0.1655354E+00
         21   -1    0    0  503  502  0.00000000000E+00  0.00000000000E+00  0.54872703942E+01  0.54872703942E+01  0.00000000000E+00 0.  1.
         21   -1    0    0  501  503 -0.00000000000E+00 -0.00000000000E+00 -0.11759176202E+03  0.11759176202E+03  0.00000000000E+00 0.  1.
          5    1    1    2  501    0  0.16242440008E+02 -0.19525014979E+02 -0.54929631119E+02  0.60517001266E+02  0.00000000000E+00 0. -1.
         -5    1    1    2    0  502 -0.16242440008E+02  0.19525014979E+02 -0.57174860503E+02  0.62562031144E+02  0.00000000000E+00 0.  1.
<mgrwt>
<rscale>  2 0.25397698E+02</rscale>
<asrwt>0</asrwt>
<pdfrwt beam="1">  1       21 0.84419547E-03 0.25397698E+02</pdfrwt>
<pdfrwt beam="2">  1       21 0.18091040E-01 0.25397698E+02</pdfrwt>
<totfact> 0.97039413E+07</totfact>
</mgrwt>
</event>
<event>
 4    1  0.7119201E+004  0.2105162E+02  0.7546771E-02  0.1725189E+00
         21   -1    0    0  501  502  0.00000000000E+00  0.00000000000E+00  0.57638973003E+03  0.57638973003E+03  0.00000000000E+00 0.  1.
         21   -1    0    0  502  503 -0.00000000000E+00 -0.00000000000E+00 -0.88904225458E+00  0.88904225458E+00  0.00000000000E+00 0.  1.
          5    1    1    2  501    0 -0.19504228684E+02 -0.79218417288E+01  0.18163185997E+03  0.18284775927E+03  0.00000000000E+00 0.  1.
         -5    1    1    2    0  503  0.19504228684E+02  0.79218417288E+01  0.39386882781E+03  0.39443101302E+03  0.00000000000E+00 0. -1.
<mgrwt>
<rscale>  2 0.21051615E+02</rscale>
<asrwt>0</asrwt>
<pdfrwt beam="1">  1       21 0.88675044E-01 0.21051615E+02</pdfrwt>
<pdfrwt beam="2">  1       21 0.13677619E-03 0.21051615E+02</pdfrwt>
<totfact> 0.64534309E+07</totfact>
</mgrwt>
</event>
<event>
 4    1  0.7119201E+004  0.2272007E+02  0.7546771E-02  0.1696088E+00
         21   -1    0    0  503  502  0.00000000000E+00  0.00000000000E+00  0.61430748942E+01  0.61430748942E+01  0.00000000000E+00 0.  1.
         21   -1    0    0  501  503 -0.00000000000E+00 -0.00000000000E+00 -0.84030815215E+02  0.84030815215E+02  0.00000000000E+00 0.  1.
          2    1    1    2  501    0 -0.52789837528E+01 -0.22098281353E+02 -0.38791660972E+02  0.44955474296E+02  0.00000000000E+00 0.  1.
         -2    1    1    2    0  502  0.52789837528E+01  0.22098281353E+02 -0.39096079349E+02  0.45218415813E+02  0.00000000000E+00 0. -1.
<mgrwt>
<rscale>  2 0.22720073E+02</rscale>
<asrwt>0</asrwt>
<pdfrwt beam="1">  1       21 0.94508845E-03 0.22720073E+02</pdfrwt>
<pdfrwt beam="2">  1       21 0.12927818E-01 0.22720073E+02</pdfrwt>
<totfact> 0.14104892E+08</totfact>
</mgrwt>
</event>
<event>
 4    1  0.7119201E+004  0.2005400E+02  0.7546771E-02  0.1744256E+00
         21   -1    0    0  501  502  0.00000000000E+00  0.00000000000E+00  0.21992148848E+02  0.21992148848E+02  0.00000000000E+00 0. -1.
         21   -1    0    0  502  503 -0.00000000000E+00 -0.00000000000E+00 -0.38644943400E+02  0.38644943400E+02  0.00000000000E+00 0. -1.
          3    1    1    2  501    0 -0.18653485087E+02 -0.73627703580E+01 -0.30331968094E+02  0.36361946891E+02  0.00000000000E+00 0. -1.
         -3    1    1    2    0  503  0.18653485087E+02  0.73627703580E+01  0.13679173543E+02  0.24275145356E+02  0.00000000000E+00 0.  1.
<mgrwt>
<rscale>  2 0.20053999E+02</rscale>
<asrwt>0</asrwt>
<pdfrwt beam="1">  1       21 0.33834075E-02 0.20053999E+02</pdfrwt>
<pdfrwt beam="2">  1       21 0.59453759E-02 0.20053999E+02</pdfrwt>
<totfact> 0.69317642E+07</totfact>
</mgrwt>
</event>
<event>
 4    1  0.7119201E+004  0.2503139E+02  0.7546771E-02  0.1660551E+00
         21   -1    0    0  501  502  0.00000000000E+00  0.00000000000E+00  0.68027393510E+01  0.68027393510E+01  0.00000000000E+00 0.  1.
         21   -1    0    0  502  503 -0.00000000000E+00 -0.00000000000E+00 -0.10373712891E+03  0.10373712891E+03  0.00000000000E+00 0.  1.
          2    1    1    2  501    0  0.24081798104E+02  0.68291750807E+01 -0.66974345899E+02  0.71499186294E+02  0.00000000000E+00 0.  1.
         -2    1    1    2    0  503 -0.24081798104E+02 -0.68291750807E+01 -0.29960043656E+02  0.39040681962E+02  0.00000000000E+00 0. -1.
<mgrwt>
<rscale>  2 0.25031393E+02</rscale>
<asrwt>0</asrwt>
<pdfrwt beam="1">  1       21 0.10465752E-02 0.25031393E+02</pdfrwt>
<pdfrwt beam="2">  1       21 0.15959560E-01 0.25031393E+02</pdfrwt>
<totfact> 0.86887934E+07</totfact>
</mgrwt>
</event>
<event>
 4    1  0.7119201E+004  0.2189616E+02  0.7546771E-02  0.1710054E+00
         21   -1    0    0  501  502  0.00000000000E+00  0.00000000000E+00  0.26788972646E+01  0.26788972646E+01  0.00000000000E+00 0.  1.
         21   -1    0    0  502  503 -0.00000000000E+00 -0.00000000000E+00 -0.21655670710E+03  0.21655670710E+03  0.00000000000E+00 0.  1.
          3    1    1    2  501    0 -0.15806888362E+02 -0.15152034635E+02 -0.15260703284E+03  0.15416986848E+03  0.00000000000E+00 0. -1.
         -3    1    1    2    0  503  0.15806888362E+02  0.15152034635E+02 -0.61270776992E+02  0.65065735887E+02  0.00000000000E+00 0.  1.
<mgrwt>
<rscale>  2 0.21896161E+02</rscale>
<asrwt>0</asrwt>
<pdfrwt beam="1">  1       21 0.41213796E-03 0.21896161E+02</pdfrwt>
<pdfrwt beam="2">  1       21 0.33316423E-01 0.21896161E+02</pdfrwt>
<totfact> 0.90886368E+07</totfact>
</mgrwt>
</event>
<event>
 4    1  0.7119201E+004  0.2135653E+02  0.7546771E-02  0.1719624E+00
         21   -1    0    0  503  502  0.00000000000E+00  0.00000000000E+00  0.43366350032E+02  0.43366350032E+02  0.00000000000E+00 0.  1.
         21   -1    0    0  501  503 -0.00000000000E+00 -0.00000000000E+00 -0.15249187166E+02  0.15249187166E+02  0.00000000000E+00 0.  1.
          2    1    1    2  501    0  0.20542215229E+02 -0.58411383165E+01 -0.22671158410E+01  0.21476529458E+02  0.00000000000E+00 0.  1.
         -2    1    1    2    0  502 -0.20542215229E+02  0.58411383165E+01  0.30384278706E+02  0.37139007739E+02  0.00000000000E+00 0. -1.
<mgrwt>
<rscale>  2 0.21356533E+02</rscale>
<asrwt>0</asrwt>
<pdfrwt beam="1">  1       21 0.66717461E-02 0.21356533E+02</pdfrwt>
<pdfrwt beam="2">  1       21 0.23460288E-02 0.21356533E+02</pdfrwt>
<totfact> 0.10340438E+08</totfact>
</mgrwt>
</event>
<event>
 4    1  0.7119201E+004  0.2152586E+02  0.7546771E-02  0.1716583E+00
         21   -1    0    0  503  502  0.00000000000E+00  0.00000000000E+00  0.11033672714E+03  0.11033672714E+03  0.00000000000E+00 0.  1.
         21   -1    0    0  501  503 -0.00000000000E+00 -0.00000000000E+00 -0.42058878675E+01  0.42058878675E+01  0.00000000000E+00 0.  1.
          4    1    1    2  501    0 -0.19017766817E+02 -0.10084000557E+02  0.50838908255E+02  0.55208306572E+02  0.00000000000E+00 0. -1.
         -4    1    1    2    0  502  0.19017766817E+02  0.10084000557E+02  0.55291931015E+02  0.59334308434E+02  0.00000000000E+00 0.  1.
<mgrwt>
<rscale>  2 0.21525857E+02</rscale>
<asrwt>0</asrwt>
<pdfrwt beam="1">  1       21 0.16974879E-01 0.21525857E+02</pdfrwt>
<pdfrwt beam="2">  1       21 0.64705976E-03 0.21525857E+02</pdfrwt>
<totfact> 0.15369151E+08</totfact>
</mgrwt>
</event>
<event>
 4    1  0.7119201E+004  0.2210228E+02  0.7546771E-02  0.1706489E+00
         21   -1    0    0  501  502  0.00000000000E+00  0.00000000000E+00  0.52638744610E+02  0.52638744610E+02  0.00000000000E+00 0.  1.
         21   -1    0    0  502  503 -0.00000000000E+00 -0.00000000000E+00 -0.10082302719E+02  0.10082302719E+02  0.00000000000E+00 0.  1.
          5    1    1    2  501    0 -0.16495697616E+01 -0.22040641430E+02  0.12434150454E+02  0.25359792045E+02  0.00000000000E+00 0. -1.
         -5    1    1    2    0  503  0.16495697616E+01  0.22040641430E+02  0.30122291437E+02  0.37361255285E+02  0.00000000000E+00 0.  1.
<mgrwt>
<rscale>  2 0.22102284E+02</rscale>
<asrwt>0</asrwt>
<pdfrwt beam="1">  1       21 0.80982682E-02 0.22102284E+02</pdfrwt>
<pdfrwt beam="2">  1       21 0.15511235E-02 0.22102284E+02</pdfrwt>
<totfact> 0.14366200E+08</totfact>
</mgrwt>
</event>
<event>
 4    1  0.7119201E+004  0.2517056E+02  0.7546771E-02  0.1658564E+00
         21   -1    0    0  501  502  0.00000000000E+00  0.00000000000E+00  0.91739749496E+02  0.91739749496E+02  0.00000000000E+00 0.  1.
         21   -1    0    0  502  503 -0.00000000000E+00 -0.00000000000E+00 -0.11259360326E+02  0.11259360326E+02  0.00000000000E+00 0.  1.
          2    1    1    2  501    0  0.20534781156E+02  0.14556089009E+02  0.82175128887E+01  0.26477999971E+02  0.00000000000E+00 0.  1.
         -2    1    1    2    0  503 -0.20534781156E+02 -0.14556089009E+02  0.72262876282E+02  0.76521109851E+02  0.00000000000E+00 0. -1.
<mgrwt>
<rscale>  2 0.25170557E+02</rscale>
<asrwt>0</asrwt>
<pdfrwt beam="1">  1       21 0.14113807E-01 0.25170557E+02</pdfrwt>
<pdfrwt beam="2">  1       21 0.17322093E-02 0.25170557E+02</pdfrwt>
<totfact> 0.49908542E+07</totfact>
</mgrwt>
</event>
<event>
 4    1  0.7119201E+004  0.2279914E+02  0.7546771E-02  0.1694787E+00
         21   -1    0    0  501  502  0.00000000000E+00  0.00000000000E+00  0.11473228200E+02  0.11473228200E+02  0.00000000000E+00 0.  1.
         21   -1    0    0  502  503 -0.00000000000E+00 -0.00000000000E+00 -0.67778120746E+02  0.67778120746E+02  0.00000000000E+00 0.  1.
          4    1    1    2  501    0 -0.18137928150E+02 -0.13813637026E+02 -0.50969428645E+02  0.55836221773E+02  0.00000000000E+00 0. -1.
         -4    1    1    2    0  503  0.18137928150E+02  0.13813637026E+02 -0.53354639011E+01  0.23415127173E+02  0.00000000000E+00 0.  1.
<mgrwt>
<rscale>  2 0.22799145E+02</rscale>
<asrwt>0</asrwt>
<pdfrwt beam="1">  1       21 0.17651120E-02 0.22799145E+02</pdfrwt>
<pdfrwt beam="2">  1       21 0.10427403E-01 0.22799145E+02</pdfrwt>
<totfact> 0.78573243E+07</totfact>
</mgrwt>
</event>
<event>
 4    1  0.7119201E+004  0.2033737E+02  0.7546771E-02  0.1738701E+00
         21   -1    0    0  501  502  0.00000000000E+00  0.00000000000E+00  0.35952815628E+02  0.35952815628E+02  0.00000000000E+00 0.  1.
         21   -1    0    0  502  503 -0.00000000000E+00 -0.00000000000E+00 -0.13183281166E+02  0.13183281166E+02  0.00000000000E+00 0.  1.
          1    1    1    2  501    0  0.89942905072E+01 -0.18240372744E+02  0.26168898788E+01  0.20505037727E+02  0.00000000000E+00 0.  1.
         -1    1    1    2    0  503 -0.89942905072E+01  0.18240372744E+02  0.20152644583E+02  0.28631059066E+02  0.00000000000E+00 0. -1.
<mgrwt>
<rscale>  2 0.20337366E+02</rscale>
<asrwt>0</asrwt>
<pdfrwt beam="1">  1       21 0.55312024E-02 0.20337366E+02</pdfrwt>
<pdfrwt beam="2">  1       21 0.20281971E-02 0.20337366E+02</pdfrwt>
<totfact> 0.17192813E+08</totfact>
</mgrwt>
</event>
<event>
 4    1  0.7119201E+004  0.2196004E+02  0.7546771E-02  0.1708944E+00
         21   -1    0    0  501  502  0.00000000000E+00  0.00000000000E+00  0.41869730888E+01  0.41869730888E+01  0.00000000000E+00 0. -1.
         21   -1    0    0  502  503 -0.00000000000E+00 -0.00000000000E+00 -0.12730011620E+03  0.12730011620E+03  0.00000000000E+00 0. -1.
          4    1    1    2  501    0  0.21716516865E+02  0.32613293132E+01 -0.41268337376E+02  0.46747396114E+02  0.00000000000E+00 0. -1.
         -4    1    1    2    0  503 -0.21716516865E+02 -0.32613293132E+01 -0.81844805735E+02  0.84739693176E+02  0.00000000000E+00 0.  1.
<mgrwt>
<rscale>  2 0.21960040E+02</rscale>
<asrwt>0</asrwt>
<pdfrwt beam="1">  1       21 0.64414958E-03 0.21960040E+02</pdfrwt>
<pdfrwt beam="2">  1       21 0.19584637E-01 0.21960040E+02</pdfrwt>
<totfact> 0.12158554E+08</totfact>
</mgrwt>
</event>
<event>
 4    1  0.7119201E+004  0.5351413E+02  0.7546771E-02  0.1427259E+00
         21   -1    0    0  501  502  0.00000000000E+00  0.00000000000E+00  0.17066193913E+02  0.17066193913E+02  0.00000000000E+00 0.  1.
         21   -1    0    0  502  503 -0.00000000000E+00 -0.00000000000E+00 -0.18159713006E+03  0.18159713006E+03  0.00000000000E+00 0.  1.
          3    1    1    2  501    0  0.52464265446E+02 -0.10548122232E+02 -0.54889017078E+02  0.76658764842E+02  0.00000000000E+00 0.  1.
         -3    1    1    2    0  503 -0.52464265446E+02  0.10548122232E+02 -0.10964191907E+03  0.12200455913E+03  0.00000000000E+00 0. -1.
<mgrwt>
<rscale>  2 0.53514129E+02</rscale>
<asrwt>0</asrwt>
<pdfrwt beam="1">  1       21 0.26255684E-02 0.53514129E+02</pdfrwt>
<pdfrwt beam="2">  1       21 0.27938019E-01 0.53514129E+02</pdfrwt>
<totfact> 0.87884708E+06</totfact>
</mgrwt>
</event>
<event>
 4    1  0.7119201E+004  0.2044734E+02  0.7546771E-02  0.1736576E+00
         21   -1    0    0  503  502  0.00000000000E+00  0.00000000000E+00  0.90067452942E+01  0.90067452942E+01  0.00000000000E+00 0.  1.
         21   -1    0    0  501  503 -0.00000000000E+00 -0.00000000000E+00 -0.46599909258E+02  0.46599909258E+02  0.00000000000E+00 0.  1.
          1    1    1    2  501    0 -0.30779940739E+01 -0.20214344930E+02 -0.17069388723E+02  0.26635649416E+02  0.00000000000E+00 0. -1.
         -1    1    1    2    0  502  0.30779940739E+01  0.20214344930E+02 -0.20523775241E+02  0.28971005136E+02  0.00000000000E+00 0.  1.
<mgrwt>
<rscale>  2 0.20447342E+02</rscale>
<asrwt>0</asrwt>
<pdfrwt beam="1">  1       21 0.13856531E-02 0.20447342E+02</pdfrwt>
<pdfrwt beam="2">  1       21 0.71692170E-02 0.20447342E+02</pdfrwt>
<totfact> 0.20269143E+08</totfact>
</mgrwt>
</event>
<event>
 4    1  0.7119201E+004  0.2833637E+02  0.7546771E-02  0.1617241E+00
         21   -1    0    0  501  502  0.00000000000E+00  0.00000000000E+00  0.13119038545E+02  0.13119038545E+02  0.00000000000E+00 0. -1.
         21   -1    0    0  502  503 -0.00000000000E+00 -0.00000000000E+00 -0.72093363099E+02  0.72093363099E+02  0.00000000000E+00 0. -1.
          2    1    1    2  501    0 -0.21921144746E+02  0.17955872549E+02 -0.12929169329E+02  0.31146642926E+02  0.00000000000E+00 0. -1.
         -2    1    1    2    0  503  0.21921144746E+02 -0.17955872549E+02 -0.46045155225E+02  0.54065758717E+02  0.00000000000E+00 0.  1.
<mgrwt>
<rscale>  2 0.28336371E+02</rscale>
<asrwt>0</asrwt>
<pdfrwt beam="1">  1       21 0.20183136E-02 0.28336371E+02</pdfrwt>
<pdfrwt beam="2">  1       21 0.11091287E-01 0.28336371E+02</pdfrwt>
<totfact> 0.60963643E+07</totfact>
</mgrwt>
</event>
<event>
 4    1  0.7119201E+004  0.2877203E+02  0.7546771E-02  0.1612073E+00
         21   -1    0    0  503  502  0.00000000000E+00  0.00000000000E+00  0.82546026346E+02  0.82546026346E+02  0.00000000000E+00 0.  1.
         21   -1    0    0  501  503 -0.00000000000E+00 -0.00000000000E+00 -0.10882944158E+02  0.10882944158E+02  0.00000000000E+00 0.  1.
          1    1    1    2  501    0 -0.28394244073E+02  0.46472451030E+01  0.22743719176E+02  0.36675696932E+02  0.00000000000E+00 0.  1.
         -1    1    1    2    0  502  0.28394244073E+02 -0.46472451030E+01  0.48919363012E+02  0.56753273571E+02  0.00000000000E+00 0. -1.
<mgrwt>
<rscale>  2 0.28772035E+02</rscale>
<asrwt>0</asrwt>
<pdfrwt beam="1">  1       21 0.12699388E-01 0.28772035E+02</pdfrwt>
<pdfrwt beam="2">  1       21 0.16742992E-02 0.28772035E+02</pdfrwt>
<totfact> 0.64943805E+07</totfact>
</mgrwt>
</event>
<event>
 4    1  0.7119201E+004  0.2015836E+02  0.7546771E-02  0.1742197E+00
         21   -1    0    0  501  502  0.00000000000E+00  0.00000000000E+00  0.10263282545E+04  0.10263282545E+04  0.00000000000E+00 0.  1.
         21   -1    0    0  502  503 -0.00000000000E+00 -0.00000000000E+00 -0.44159950019E+00  0.44159950019E+00  0.00000000000E+00 0.  1.
          4    1    1    2  501    0 -0.97687396171E+01  0.17633243648E+02  0.67803185512E+03  0.67833145004E+03  0.00000000000E+00 0.  1.
         -4    1    1    2    0  503  0.97687396171E+01 -0.17633243648E+02  0.34785479990E+03  0.34843840398E+03  0.00000000000E+00 0. -1.
<mgrwt>
<rscale>  2 0.20158362E+02</rscale>
<asrwt>0</asrwt>
<pdfrwt beam="1">  1       21 0.15789475E+00 0.20158362E+02</pdfrwt>
<pdfrwt beam="2">  1       21 0.67939206E-04 0.20158362E+02</pdfrwt>
<totfact> 0.47105778E+07</totfact>
</mgrwt>
</event>
<event>
 4    1  0.7119201E+004  0.2128529E+02  0.7546771E-02  0.1720914E+00
         21   -1    0    0  501  502  0.00000000000E+00  0.00000000000E+00  0.91164489613E+02  0.91164489613E+02  0.00000000000E+00 0. -1.
         21   -1    0    0  502  503 -0.00000000000E+00 -0.00000000000E+00 -0.53027985284E+01  0.53027985284E+01  0.00000000000E+00 0. -1.
          2    1    1    2  501    0  0.20985029889E+02 -0.35626162136E+01  0.30842733327E+02  0.37474496832E+02  0.00000000000E+00 0.  1.
         -2    1    1    2    0  503 -0.20985029889E+02  0.35626162136E+01  0.55018957757E+02  0.58992791309E+02  0.00000000000E+00 0. -1.
<mgrwt>
<rscale>  2 0.21285293E+02</rscale>
<asrwt>0</asrwt>
<pdfrwt beam="1">  1       21 0.14025305E-01 0.21285293E+02</pdfrwt>
<pdfrwt beam="2">  1       21 0.81581523E-03 0.21285293E+02</pdfrwt>
<totfact> 0.15021803E+08</totfact>
</mgrwt>
</event>
<event>
 4    1  0.7119201E+004  0.2053671E+02  0.7546771E-02  0.1734861E+00
         21   -1    0    0  503  502  0.00000000000E+00  0.00000000000E+00  0.54130765305E+01  0.54130765305E+01  0.00000000000E+00 0. -1.
         21   -1    0    0  501  503 -0.00000000000E+00 -0.00000000000E+00 -0.78068259575E+02  0.78068259575E+02  0.00000000000E+00 0. -1.
          1    1    1    2  501    0 -0.65862728554E+01  0.19451927134E+02 -0.38180797488E+02  0.43353543756E+02  0.00000000000E+00 0. -1.
         -1    1    1    2    0  502  0.65862728554E+01 -0.19451927134E+02 -0.34474385557E+02  0.40127792350E+02  0.00000000000E+00 0.  1.
<mgrwt>
<rscale>  2 0.20536710E+02</rscale>
<asrwt>0</asrwt>
<pdfrwt beam="1">  1       21 0.83278101E-03 0.20536710E+02</pdfrwt>
<pdfrwt beam="2">  1       21 0.12010501E-01 0.20536710E+02</pdfrwt>
<totfact> 0.18689317E+08</totfact>
</mgrwt>
</event>
<event>
 4    1  0.7119201E+004  0.4012262E+02  0.7546771E-02  0.1507311E+00
         21   -1    0    0  501  502  0.00000000000E+00  0.00000000000E+00  0.20927518446E+02  0.20927518446E+02  0.00000000000E+00 0. -1.
         21   -1    0    0  502  503 -0.00000000000E+00 -0.00000000000E+00 -0.80005067536E+02  0.80005067536E+02  0.00000000000E+00 0. -1.
          2    1    1    2  501    0  0.39741733690E+02 -0.55154000653E+01 -0.19634909892E+02  0.44669393560E+02  0.00000000000E+00 0.  1.
         -2    1    1    2    0  503 -0.39741733690E+02  0.55154000653E+01 -0.39442639198E+02  0.56263192421E+02  0.00000000000E+00 0. -1.
<mgrwt>
<rscale>  2 0.40122625E+02</rscale>
<asrwt>0</asrwt>
<pdfrwt beam="1">  1       21 0.32196182E-02 0.40122625E+02</pdfrwt>
<pdfrwt beam="2">  1       21 0.12308472E-01 0.40122625E+02</pdfrwt>
<totfact> 0.26321807E+07</totfact>
</mgrwt>
</event>
<event>
 4    1  0.7119201E+004  0.2100877E+02  0.7546771E-02  0.1725981E+00
         21   -1    0    0  503  502  0.00000000000E+00  0.00000000000E+00  0.22815066028E+01  0.22815066028E+01  0.00000000000E+00 0. -1.
         21   -1    0    0  501  503 -0.00000000000E+00 -0.00000000000E+00 -0.19741501584E+03  0.19741501584E+03  0.00000000000E+00 0. -1.
          3    1    1    2  501    0  0.65263016387E+01 -0.19969368720E+02 -0.11170880331E+03  0.11366716780E+03  0.00000000000E+00 0.  1.
         -3    1    1    2    0  502 -0.65263016387E+01  0.19969368720E+02 -0.83424705930E+02  0.86029354639E+02  0.00000000000E+00 0. -1.
<mgrwt>
<rscale>  2 0.21008767E+02</rscale>
<asrwt>0</asrwt>
<pdfrwt beam="1">  1       21 0.35100108E-03 0.21008767E+02</pdfrwt>
<pdfrwt beam="2">  1       21 0.30371536E-01 0.21008767E+02</pdfrwt>
<totfact> 0.13452930E+08</totfact>
</mgrwt>
</event>
<event>
 4    1  0.7119201E+004  0.3901146E+02  0.7546771E-02  0.1515615E+00
         21   -1    0    0  503  502  0.00000000000E+00  0.00000000000E+00  0.18790488205E+04  0.18790488205E+04  0.00000000000E+00 0. -1.
         21   -1    0    0  501  503 -0.00000000000E+00 -0.00000000000E+00 -0.84674545956E+00  0.84674545956E+00  0.00000000000E+00 0. -1.
          2    1    1    2  501    0 -0.39007074915E+02  0.58479353031E+00  0.11351007254E+04  0.11357709059E+04  0.00000000000E+00 0. -1.
         -2    1    1    2    0  502  0.39007074915E+02 -0.58479353031E+00  0.74310134968E+03  0.74412466011E+03  0.00000000000E+00 0.  1.
<mgrwt>
<rscale>  2 0.39011458E+02</rscale>
<asrwt>0</asrwt>
<pdfrwt beam="1">  1       21 0.28908110E+00 0.39011458E+02</pdfrwt>
<pdfrwt beam="2">  1       21 0.13027004E-03 0.39011458E+02</pdfrwt>
<totfact> 0.37474550E+06</totfact>
</mgrwt>
</event>
<event>
 4    1  0.7119201E+004  0.2502235E+02  0.7546771E-02  0.1660681E+00
         21   -1    0    0  503  502  0.00000000000E+00  0.00000000000E+00  0.18717911010E+03  0.18717911010E+03  0.00000000000E+00 0.  1.
         21   -1    0    0  501  503 -0.00000000000E+00 -0.00000000000E+00 -0.39443174983E+01  0.39443174983E+01  0.00000000000E+00 0.  1.
          3    1    1    2  501    0  0.83641962024E+01 -0.23583004034E+02  0.54367999240E+02  0.59849788628E+02  0.00000000000E+00 0. -1.
         -3    1    1    2    0  502 -0.83641962024E+01  0.23583004034E+02  0.12886679336E+03  0.13127363897E+03  0.00000000000E+00 0.  1.
<mgrwt>
<rscale>  2 0.25022347E+02</rscale>
<asrwt>0</asrwt>
<pdfrwt beam="1">  1       21 0.28796779E-01 0.25022347E+02</pdfrwt>
<pdfrwt beam="2">  1       21 0.60681822E-03 0.25022347E+02</pdfrwt>
<totfact> 0.69366749E+07</totfact>
</mgrwt>
</event>
<event>
 4    1  0.7119201E+004  0.5452618E+02  0.7546771E-02  0.1422353E+00
         21   -1    0    0  503  502  0.00000000000E+00  0.00000000000E+00  0.14924960063E+01  0.14924960063E+01  0.00000000000E+00 0. -1.
         21   -1    0    0  501  503 -0.00000000000E+00 -0.00000000000E+00 -0.20045605425E+04  0.20045605425E+04  0.00000000000E+00 0. -1.
          4    1    1    2  501    0 -0.43350299565E+02 -0.33073497329E+02 -0.92224806729E+03  0.92385854021E+03  0.00000000000E+00 0.  1.
         -4    1    1    2    0  502  0.43350299565E+02  0.33073497329E+02 -0.10808199792E+04  0.10821944983E+04  0.00000000000E+00 0. -1.
<mgrwt>
<rscale>  2 0.54526184E+02</rscale>
<asrwt>0</asrwt>
<pdfrwt beam="1">  1       21 0.22961496E-03 0.54526184E+02</pdfrwt>
<pdfrwt beam="2">  1       21 0.30839367E+00 0.54526184E+02</pdfrwt>
<totfact> 0.12712076E+06</totfact>
</mgrwt>
</event>
<event>
 4    1  0.7119201E+004  0.2348745E+02  0.7546771E-02  0.1683728E+00
         21   -1    0    0  501  502  0.00000000000E+00  0.00000000000E+00  0.36301397722E+03  0.36301397722E+03  0.00000000000E+00 0. -1.
         21   -1    0    0  502  503 -0.00000000000E+00 -0.00000000000E+00 -0.15196898242E+01  0.15196898242E+01  0.00000000000E+00 0. -1.
          2    1    1    2  501    0 -0.10505116073E+02 -0.21007210765E+02  0.18004104169E+03  0.18156661880E+03  0.00000000000E+00 0. -1.
         -2    1    1    2    0  503  0.10505116073E+02  0.21007210765E+02  0.18145324570E+03  0.18296704824E+03  0.00000000000E+00 0.  1.
<mgrwt>
<rscale>  2 0.23487451E+02</rscale>
<asrwt>0</asrwt>
<pdfrwt beam="1">  1       21 0.55848235E-01 0.23487451E+02</pdfrwt>
<pdfrwt beam="2">  1       21 0.23379872E-03 0.23487451E+02</pdfrwt>
<totfact> 0.79078350E+07</totfact>
</mgrwt>
</event>
<event>
 4    1  0.7119201E+004  0.2549750E+02  0.7546771E-02  0.1653957E+00
         21   -1    0    0  501  502  0.00000000000E+00  0.00000000000E+00  0.98142590321E+02  0.98142590321E+02  0.00000000000E+00 0.  1.
         21   -1    0    0  502  503 -0.00000000000E+00 -0.00000000000E+00 -0.69224261220E+01  0.69224261220E+01  0.00000000000E+00 0.  1.
          2    1    1    2  501    0 -0.20917247643E+02 -0.14580501480E+02  0.34707575403E+02  0.43066669975E+02  0.00000000000E+00 0. -1.
         -2    1    1    2    0  503  0.20917247643E+02  0.14580501480E+02  0.56512588796E+02  0.61998346469E+02  0.00000000000E+00 0.  1.
<mgrwt>
<rscale>  2 0.25497495E+02</rscale>
<asrwt>0</asrwt>
<pdfrwt beam="1">  1       21 0.15098859E-01 0.25497495E+02</pdfrwt>
<pdfrwt beam="2">  1       21 0.10649887E-02 0.25497495E+02</pdfrwt>
<totfact> 0.93505703E+07</totfact>
</mgrwt>
</event>
<event>
 4    1  0.7119201E+004  0.5059213E+02  0.7546771E-02  0.1442174E+00
         21   -1    0    0  503  502  0.00000000000E+00  0.00000000000E+00  0.10135302401E+03  0.10135302401E+03  0.00000000000E+00 0. -1.
         21   -1    0    0  501  503 -0.00000000000E+00 -0.00000000000E+00 -0.34866043771E+02  0.34866043771E+02  0.00000000000E+00 0. -1.
          5    1    1    2  501    0 -0.36901001107E+02  0.34610397949E+02  0.69004989715E+02  0.85564315777E+02  0.00000000000E+00 0.  1.
         -5    1    1    2    0  502  0.36901001107E+02 -0.34610397949E+02 -0.25180094757E+01  0.50654752004E+02  0.00000000000E+00 0. -1.
<mgrwt>
<rscale>  2 0.50592129E+02</rscale>
<asrwt>0</asrwt>
<pdfrwt beam="1">  1       21 0.15592773E-01 0.50592129E+02</pdfrwt>
<pdfrwt beam="2">  1       21 0.53640068E-02 0.50592129E+02</pdfrwt>
<totfact> 0.78990840E+06</totfact>
</mgrwt>
</event>
<event>
 4    1  0.7119201E+004  0.3719897E+02  0.7546771E-02  0.1529897E+00
         21   -1    0    0  501  502  0.00000000000E+00  0.00000000000E+00  0.15920958285E+03  0.15920958285E+03  0.00000000000E+00 0.  1.
         21   -1    0    0  502  503 -0.00000000000E+00 -0.00000000000E+00 -0.93446672887E+01  0.93446672887E+01  0.00000000000E+00 0.  1.
          3    1    1    2  501    0  0.37127726052E+02 -0.23011380575E+01  0.52650454892E+02  0.64465755859E+02  0.00000000000E+00 0.  1.
         -3    1    1    2    0  503 -0.37127726052E+02  0.23011380575E+01  0.97214460672E+02  0.10408849428E+03  0.00000000000E+00 0. -1.
<mgrwt>
<rscale>  2 0.37198969E+02</rscale>
<asrwt>0</asrwt>
<pdfrwt beam="1">  1       21 0.24493780E-01 0.37198969E+02</pdfrwt>
<pdfrwt beam="2">  1       21 0.14376412E-02 0.37198969E+02</pdfrwt>
<totfact> 0.27365191E+07</totfact>
</mgrwt>
</event>
<event>
 4    1  0.7119201E+004  0.2278365E+02  0.7546771E-02  0.1695041E+00
         21   -1    0    0  503  502  0.00000000000E+00  0.00000000000E+00  0.48527204075E+02  0.48527204075E+02  0.00000000000E+00 0. -1.
         21   -1    0    0  501  503 -0.00000000000E+00 -0.00000000000E+00 -0.11487505069E+02  0.11487505069E+02  0.00000000000E+00 0. -1.
          1    1    1    2  501    0  0.63835939955E+01 -0.21871090486E+02  0.10648109315E+02  0.25149097465E+02  0.00000000000E+00 0.  1.
         -1    1    1    2    0  502 -0.63835939955E+01  0.21871090486E+02  0.26391589691E+02  0.34865611679E+02  0.00000000000E+00 0. -1.
<mgrwt>
<rscale>  2 0.22783654E+02</rscale>
<asrwt>0</asrwt>
<pdfrwt beam="1">  1       21 0.74657236E-02 0.22783654E+02</pdfrwt>
<pdfrwt beam="2">  1       21 0.17673085E-02 0.22783654E+02</pdfrwt>
<totfact> 0.13566173E+08</totfact>
</mgrwt>
</event>
<event>
 4    1  0.7119201E+004  0.2051752E+02  0.7546771E-02  0.1735228E+00
         21   -1    0    0  501  502  0.00000000000E+00  0.00000000000E+00  0.72336002569E+02  0.72336002569E+02  0.00000000000E+00 0. -1.
         21   -1    0    0  502  503 -0.00000000000E+00 -0.00000000000E+00 -0.58256183450E+01  0.58256183450E+01  0.00000000000E+00 0. -1.
          4    1    1    2  501    0  0.18218758222E+02 -0.94363908110E+01  0.32001992946E+02  0.38014420622E+02  0.00000000000E+00 0.  1.
         -4    1    1    2    0  503 -0.18218758222E+02  0.94363908110E+01  0.34508391278E+02  0.40147200293E+02  0.00000000000E+00 0. -1.
<mgrwt>
<rscale>  2 0.20517520E+02</rscale>
<asrwt>0</asrwt>
<pdfrwt beam="1">  1       21 0.11128615E-01 0.20517520E+02</pdfrwt>
<pdfrwt beam="2">  1       21 0.89624903E-03 0.20517520E+02</pdfrwt>
<totfact> 0.19010418E+08</totfact>
</mgrwt>
</event>
<event>
 4    1  0.7119201E+004  0.6031608E+02  0.7546771E-02  0.1396510E+00
         21   -1    0    0  501  502  0.00000000000E+00  0.00000000000E+00  0.39078941319E+02  0.39078941319E+02  0.00000000000E+00 0. -1.
         21   -1    0    0  502  503 -0.00000000000E+00 -0.00000000000E+00 -0.98373906500E+02  0.98373906500E+02  0.00000000000E+00 0. -1.
          2    1    1    2  501    0 -0.41653389807E+02 -0.43623665976E+02 -0.45568910284E+02  0.75594673754E+02  0.00000000000E+00 0. -1.
         -2    1    1    2    0  503  0.41653389807E+02  0.43623665976E+02 -0.13726054897E+02  0.61858174065E+02  0.00000000000E+00 0.  1.
<mgrwt>
<rscale>  2 0.60316077E+02</rscale>
<asrwt>0</asrwt>
<pdfrwt beam="1">  1       21 0.60121448E-02 0.60316077E+02</pdfrwt>
<pdfrwt beam="2">  1       21 0.15134447E-01 0.60316077E+02</pdfrwt>
<totfact> 0.70213026E+06</totfact>
</mgrwt>
</event>
<event>
 4    1  0.7119201E+004  0.2664914E+02  0.7546771E-02  0.1638385E+00
         21   -1    0    0  503  502  0.00000000000E+00  0.00000000000E+00  0.14896428128E+02  0.14896428128E+02  0.00000000000E+00 0. -1.
         21   -1    0    0  501  503 -0.00000000000E+00 -0.00000000000E+00 -0.48251705940E+02  0.48251705940E+02  0.00000000000E+00 0. -1.
          2    1    1    2  501    0  0.10771185665E+02 -0.24375358063E+02 -0.20131631738E+02  0.33398489753E+02  0.00000000000E+00 0. -1.
         -2    1    1    2    0  502 -0.10771185665E+02  0.24375358063E+02 -0.13223646074E+02  0.29749644314E+02  0.00000000000E+00 0.  1.
<mgrwt>
<rscale>  2 0.26649137E+02</rscale>
<asrwt>0</asrwt>
<pdfrwt beam="1">  1       21 0.22917582E-02 0.26649137E+02</pdfrwt>
<pdfrwt beam="2">  1       21 0.74233394E-02 0.26649137E+02</pdfrwt>
<totfact> 0.95893572E+07</totfact>
</mgrwt>
</event>
<event>
 4    1  0.7119201E+004  0.3481268E+02  0.7546771E-02  0.1550270E+00
         21   -1    0    0  501  502  0.00000000000E+00  0.00000000000E+00  0.11092118143E+04  0.11092118143E+04  0.00000000000E+00 0.  1.
         21   -1    0    0  502  503 -0.00000000000E+00 -0.00000000000E+00 -0.11270248301E+01  0.11270248301E+01  0.00000000000E+00 0.  1.
          2    1    1    2  501    0  0.21774299866E+02 -0.27162521784E+02  0.65107253546E+03  0.65200258370E+03  0.00000000000E+00 0.  1.
         -2    1    1    2    0  503 -0.21774299866E+02  0.27162521784E+02  0.45701225401E+03  0.45833625543E+03  0.00000000000E+00 0. -1.
<mgrwt>
<rscale>  2 0.34812681E+02</rscale>
<asrwt>0</asrwt>
<pdfrwt beam="1">  1       21 0.17064710E+00 0.34812681E+02</pdfrwt>
<pdfrwt beam="2">  1       21 0.17338932E-03 0.34812681E+02</pdfrwt>
<totfact> 0.11054589E+07</totfact>
</mgrwt>
</event>
<event>
 4    1  0.7119201E+004  0.2428854E+02  0.7546771E-02  0.1671436E+00
         21   -1    0    0  503  502  0.00000000000E+00  0.00000000000E+00  0.46337091179E+02  0.46337091179E+02  0.00000000000E+00 0.  1.
         21   -1    0    0  501  503 -0.00000000000E+00 -0.00000000000E+00 -0.12747957402E+02  0.12747957402E+02  0.00000000000E+00 0.  1.
          1    1    1    2  501    0  0.18205999500E+02 -0.16077156464E+02  0.15728028903E+02  0.28936210377E+02  0.00000000000E+00 0. -1.
         -1    1    1    2    0  502 -0.18205999500E+02  0.16077156464E+02  0.17861104874E+02  0.30148838205E+02  0.00000000000E+00 0.  1.
<mgrwt>
<rscale>  2 0.24288544E+02</rscale>
<asrwt>0</asrwt>
<pdfrwt beam="1">  1       21 0.71287832E-02 0.24288544E+02</pdfrwt>
<pdfrwt beam="2">  1       21 0.19612242E-02 0.24288544E+02</pdfrwt>
<totfact> 0.12705877E+08</totfact>
</mgrwt>
</event>
<event>
 4    1  0.7119201E+004  0.2303330E+02  0.7546771E-02  0.1690971E+00
         21   -1    0    0  503  502  0.00000000000E+00  0.00000000000E+00  0.45931944670E+02  0.45931944670E+02  0.00000000000E+00 0. -1.
         21   -1    0    0  501  503 -0.00000000000E+00 -0.00000000000E+00 -0.27726266299E+02  0.27726266299E+02  0.00000000000E+00 0. -1.
          4    1    1    2  501    0  0.15020152990E+02  0.17462186687E+02 -0.19027765454E+02  0.29876224961E+02  0.00000000000E+00 0. -1.
         -4    1    1    2    0  502 -0.15020152990E+02 -0.17462186687E+02  0.37233443825E+02  0.43781986008E+02  0.00000000000E+00 0.  1.
<mgrwt>
<rscale>  2 0.23033301E+02</rscale>
<asrwt>0</asrwt>
<pdfrwt beam="1">  1       21 0.70664531E-02 0.23033301E+02</pdfrwt>
<pdfrwt beam="2">  1       21 0.42655794E-02 0.23033301E+02</pdfrwt>
<totfact> 0.37881521E+07</totfact>
</mgrwt>
</event>
<event>
 4    1  0.7119201E+004  0.2288445E+02  0.7546771E-02  0.1693390E+00
         21   -1    0    0  501  502  0.00000000000E+00  0.00000000000E+00  0.17430212772E+02  0.17430212772E+02  0.00000000000E+00 0. -1.
         21   -1    0    0  502  503 -0.00000000000E+00 -0.00000000000E+00 -0.36002916668E+02  0.36002916668E+02  0.00000000000E+00 0. -1.
          5    1    1    2  501    0 -0.19867857490E+01 -0.22798046437E+02 -0.20154193778E+02  0.30494093950E+02  0.00000000000E+00 0.  1.
         -5    1    1    2    0  503  0.19867857490E+01  0.22798046437E+02  0.15814898824E+01  0.22939035490E+02  0.00000000000E+00 0. -1.
<mgrwt>
<rscale>  2 0.22884454E+02</rscale>
<asrwt>0</asrwt>
<pdfrwt beam="1">  1       21 0.26815712E-02 0.22884454E+02</pdfrwt>
<pdfrwt beam="2">  1       21 0.55389102E-02 0.22884454E+02</pdfrwt>
<totfact> 0.11571523E+08</totfact>
</mgrwt>
</event>
<event>
 4    1  0.7119201E+004  0.2200448E+02  0.7546771E-02  0.1708175E+00
         21   -1    0    0  501  502  0.00000000000E+00  0.00000000000E+00  0.56904138582E+01  0.56904138582E+01  0.00000000000E+00 0.  1.
         21   -1    0    0  502  503 -0.00000000000E+00 -0.00000000000E+00 -0.86379250841E+02  0.86379250841E+02  0.00000000000E+00 0.  1.
          2    1    1    2  501    0 -0.17382710756E+02  0.13492157190E+02 -0.45968630711E+02  0.50963829804E+02  0.00000000000E+00 0. -1.
         -2    1    1    2    0  503  0.17382710756E+02 -0.13492157190E+02 -0.34720206272E+02  0.41105834895E+02  0.00000000000E+00 0.  1.
<mgrwt>
<rscale>  2 0.22004475E+02</rscale>
<asrwt>0</asrwt>
<pdfrwt beam="1">  1       21 0.87544838E-03 0.22004475E+02</pdfrwt>
<pdfrwt beam="2">  1       21 0.13289114E-01 0.22004475E+02</pdfrwt>
<totfact> 0.14956524E+08</totfact>
</mgrwt>
</event>
<event>
 4    1  0.7119201E+004  0.4481911E+02  0.7546771E-02  0.1475474E+00
         21   -1    0    0  503  502  0.00000000000E+00  0.00000000000E+00  0.21525923750E+01  0.21525923750E+01  0.00000000000E+00 0.  1.
         21   -1    0    0  501  503 -0.00000000000E+00 -0.00000000000E+00 -0.93804810630E+03  0.93804810630E+03  0.00000000000E+00 0.  1.
          3    1    1    2  501    0  0.39573794633E+02 -0.21039668049E+02 -0.43407688312E+03  0.43638457043E+03  0.00000000000E+00 0.  1.
         -3    1    1    2    0  502 -0.39573794633E+02  0.21039668049E+02 -0.50181863080E+03  0.50381612824E+03  0.00000000000E+00 0. -1.
<mgrwt>
<rscale>  2 0.44819113E+02</rscale>
<asrwt>0</asrwt>
<pdfrwt beam="1">  1       21 0.33116680E-03 0.44819113E+02</pdfrwt>
<pdfrwt beam="2">  1       21 0.14431564E+00 0.44819113E+02</pdfrwt>
<totfact> 0.65969287E+06</totfact>
</mgrwt>
</event>
<event>
 4    1  0.7119201E+004  0.2468475E+02  0.7546771E-02  0.1665572E+00
         21   -1    0    0  503  502  0.00000000000E+00  0.00000000000E+00  0.94705500318E+02  0.94705500318E+02  0.00000000000E+00 0.  1.
         21   -1    0    0  501  503 -0.00000000000E+00 -0.00000000000E+00 -0.84853895146E+01  0.84853895146E+01  0.00000000000E+00 0.  1.
          3    1    1    2  501    0  0.18187655092E+02  0.16689706834E+02  0.17741403651E+02  0.30398922933E+02  0.00000000000E+00 0. -1.
         -3    1    1    2    0  502 -0.18187655092E+02 -0.16689706834E+02  0.68478707152E+02  0.72791966900E+02  0.00000000000E+00 0.  1.
<mgrwt>
<rscale>  2 0.24684755E+02</rscale>
<asrwt>0</asrwt>
<pdfrwt beam="1">  1       21 0.14570076E-01 0.24684755E+02</pdfrwt>
<pdfrwt beam="2">  1       21 0.13054446E-02 0.24684755E+02</pdfrwt>
<totfact> 0.72425119E+07</totfact>
</mgrwt>
</event>
<event>
 4    1  0.7119201E+004  0.2047854E+02  0.7546771E-02  0.1735976E+00
         21   -1    0    0  503  502  0.00000000000E+00  0.00000000000E+00  0.17609939867E+03  0.17609939867E+03  0.00000000000E+00 0.  1.
         21   -1    0    0  501  503 -0.00000000000E+00 -0.00000000000E+00 -0.23910590667E+01  0.23910590667E+01  0.00000000000E+00 0.  1.
          4    1    1    2  501    0  0.20196356435E+02  0.33878891290E+01  0.92513931037E+02  0.94753353724E+02  0.00000000000E+00 0. -1.
         -4    1    1    2    0  502 -0.20196356435E+02 -0.33878891290E+01  0.81194408569E+02  0.83737104015E+02  0.00000000000E+00 0.  1.
<mgrwt>
<rscale>  2 0.20478540E+02</rscale>
<asrwt>0</asrwt>
<pdfrwt beam="1">  1       21 0.27092205E-01 0.20478540E+02</pdfrwt>
<pdfrwt beam="2">  1       21 0.36785538E-03 0.20478540E+02</pdfrwt>
<totfact> 0.15321073E+08</totfact>
</mgrwt>
</event>
<event>
 4    1  0.7119201E+004  0.2211623E+02  0.7546771E-02  0.1706250E+00
         21   -1    0    0  501  502  0.00000000000E+00  0.00000000000E+00  0.49611673595E+00  0.49611673595E+00  0.00000000000E+00 0.  1.
         21   -1    0    0  502  503 -0.00000000000E+00 -0.00000000000E+00 -0.12381673158E+04  0.12381673158E+04  0.00000000000E+00 0.  1.
          4    1    1    2  501    0 -0.16624191486E+02  0.14586430259E+02 -0.89838166774E+03  0.89865385362E+03  0.00000000000E+00 0. -1.
         -4    1    1    2    0  503  0.16624191486E+02 -0.14586430259E+02 -0.33928953136E+03  0.34000957895E+03  0.00000000000E+00 0.  1.
<mgrwt>
<rscale>  2 0.22116231E+02</rscale>
<asrwt>0</asrwt>
<pdfrwt beam="1">  1       21 0.76325609E-04 0.22116231E+02</pdfrwt>
<pdfrwt beam="2">  1       21 0.19048739E+00 0.22116231E+02</pdfrwt>
<totfact> 0.25684055E+07</totfact>
</mgrwt>
</event>
<event>
 4    1  0.7119201E+004  0.2547493E+02  0.7546771E-02  0.1654273E+00
         21   -1    0    0  501  502  0.00000000000E+00  0.00000000000E+00  0.35683304366E+03  0.35683304366E+03  0.00000000000E+00 0. -1.
         21   -1    0    0  502  503 -0.00000000000E+00 -0.00000000000E+00 -0.18965646942E+01  0.18965646942E+01  0.00000000000E+00 0. -1.
          2    1    1    2  501    0  0.22199187144E+02  0.12496719598E+02  0.21381170957E+03  0.21532398626E+03  0.00000000000E+00 0. -1.
         -2    1    1    2    0  503 -0.22199187144E+02 -0.12496719598E+02  0.14112476940E+03  0.14340562210E+03  0.00000000000E+00 0.  1.
<mgrwt>
<rscale>  2 0.25474927E+02</rscale>
<asrwt>0</asrwt>
<pdfrwt beam="1">  1       21 0.54897338E-01 0.25474927E+02</pdfrwt>
<pdfrwt beam="2">  1       21 0.29177947E-03 0.25474927E+02</pdfrwt>
<totfact> 0.60404077E+07</totfact>
</mgrwt>
</event>
<event>
 4    1  0.7119201E+004  0.2761199E+02  0.7546771E-02  0.1626091E+00
         21   -1    0    0  503  502  0.00000000000E+00  0.00000000000E+00  0.46389269543E+00  0.46389269543E+00  0.00000000000E+00 0.  1.
         21   -1    0    0  501  503 -0.00000000000E+00 -0.00000000000E+00 -0.19800861383E+04  0.19800861383E+04  0.00000000000E+00 0.  1.
          2    1    1    2  501    0  0.27517572674E+02  0.22814478310E+01 -0.13980761629E+04  0.13983488046E+04  0.00000000000E+00 0. -1.
         -2    1    1    2    0  502 -0.27517572674E+02 -0.22814478310E+01 -0.58154608266E+03  0.58220122644E+03  0.00000000000E+00 0.  1.
<mgrwt>
<rscale>  2 0.27611987E+02</rscale>
<asrwt>0</asrwt>
<pdfrwt beam="1">  1       21 0.71369236E-04 0.27611987E+02</pdfrwt>
<pdfrwt beam="2">  1       21 0.30462382E+00 0.27611987E+02</pdfrwt>
<totfact> 0.74679786E+06</totfact>
</mgrwt>
</event>
<event>
 4    1  0.7119201E+004  0.3355182E+02  0.7546771E-02  0.1561850E+00
         21   -1    0    0  503  502  0.00000000000E+00  0.00000000000E+00  0.13093005212E+04  0.13093005212E+04  0.00000000000E+00 0. -1.
         21   -1    0    0  501  503 -0.00000000000E+00 -0.00000000000E+00 -0.88706402972E+00  0.88706402972E+00  0.00000000000E+00 0. -1.
          1    1    1    2  501    0 -0.23720715372E+02 -0.23728723658E+02  0.76907327015E+03  0.76980479313E+03  0.00000000000E+00 0. -1.
         -1    1    1    2    0  502  0.23720715372E+02  0.23728723658E+02  0.53934018703E+03  0.54038279211E+03  0.00000000000E+00 0.  1.
<mgrwt>
<rscale>  2 0.33551821E+02</rscale>
<asrwt>0</asrwt>
<pdfrwt beam="1">  1       21 0.20142930E+00 0.33551821E+02</pdfrwt>
<pdfrwt beam="2">  1       21 0.13647244E-03 0.33551821E+02</pdfrwt>
<totfact> 0.10158417E+07</totfact>
</mgrwt>
</event>
<event>
 4    1  0.7119201E+004  0.2111204E+02  0.7546771E-02  0.1724077E+00
         21   -1    0    0  501  502  0.00000000000E+00  0.00000000000E+00  0.24851831459E+03  0.24851831459E+03  0.00000000000E+00 0. -1.
         21   -1    0    0  502  503 -0.00000000000E+00 -0.00000000000E+00 -0.19599803771E+01  0.19599803771E+01  0.00000000000E+00 0. -1.
          2    1    1    2  501    0 -0.18813360132E+02 -0.95799695537E+01  0.15977908508E+03  0.16116784532E+03  0.00000000000E+00 0.  1.
         -2    1    1    2    0  503  0.18813360132E+02  0.95799695537E+01  0.86779249134E+02  0.89310449648E+02  0.00000000000E+00 0. -1.
<mgrwt>
<rscale>  2 0.21112042E+02</rscale>
<asrwt>0</asrwt>
<pdfrwt beam="1">  1       21 0.38233562E-01 0.21112042E+02</pdfrwt>
<pdfrwt beam="2">  1       21 0.30153564E-03 0.21112042E+02</pdfrwt>
<totfact> 0.11003685E+08</totfact>
</mgrwt>
</event>
<event>
 4    1  0.7119201E+004  0.3405833E+02  0.7546771E-02  0.1557125E+00
         21   -1    0    0  501  502  0.00000000000E+00  0.00000000000E+00  0.28723127775E+02  0.28723127775E+02  0.00000000000E+00 0.  1.
         21   -1    0    0  502  503 -0.00000000000E+00 -0.00000000000E+00 -0.41930809330E+02  0.41930809330E+02  0.00000000000E+00 0.  1.
          1    1    1    2  501    0  0.21559655712E+02 -0.26365720004E+02  0.18013150059E+00  0.34058807864E+02  0.00000000000E+00 0.  1.
         -1    1    1    2    0  503 -0.21559655712E+02  0.26365720004E+02 -0.13387813056E+02  0.36595129241E+02  0.00000000000E+00 0. -1.
<mgrwt>
<rscale>  2 0.34058332E+02</rscale>
<asrwt>0</asrwt>
<pdfrwt beam="1">  1       21 0.44189427E-02 0.34058332E+02</pdfrwt>
<pdfrwt beam="2">  1       21 0.64508938E-02 0.34058332E+02</pdfrwt>
<totfact> 0.45358817E+07</totfact>
</mgrwt>
</event>
<event>
 4    1  0.7119201E+004  0.2174145E+02  0.7546771E-02  0.1712762E+00
         21   -1    0    0  503  502  0.00000000000E+00  0.00000000000E+00  0.18541477826E+02  0.18541477826E+02  0.00000000000E+00 0.  1.
         21   -1    0    0  501  503 -0.00000000000E+00 -0.00000000000E+00 -0.35698720149E+02  0.35698720149E+02  0.00000000000E+00 0.  1.
          1    1    1    2  501    0 -0.21663390325E+02 -0.18407474954E+01  0.59215099153E+01  0.22533422097E+02  0.00000000000E+00 0.  1.
         -1    1    1    2    0  502  0.21663390325E+02  0.18407474954E+01 -0.23078752238E+02  0.31706775878E+02  0.00000000000E+00 0. -1.
<mgrwt>
<rscale>  2 0.21741454E+02</rscale>
<asrwt>0</asrwt>
<pdfrwt beam="1">  1       21 0.28525351E-02 0.21741454E+02</pdfrwt>
<pdfrwt beam="2">  1       21 0.54921107E-02 0.21741454E+02</pdfrwt>
<totfact> 0.10498370E+08</totfact>
</mgrwt>
</event>
<event>
 4    1  0.7119201E+004  0.2168812E+02  0.7546771E-02  0.1713702E+00
         21   -1    0    0  501  502  0.00000000000E+00  0.00000000000E+00  0.15398380698E+02  0.15398380698E+02  0.00000000000E+00 0.  1.
         21   -1    0    0  502  503 -0.00000000000E+00 -0.00000000000E+00 -0.31469900901E+02  0.31469900901E+02  0.00000000000E+00 0.  1.
          4    1    1    2  501    0  0.13174164052E+02  0.17228342241E+02 -0.40226758624E+01  0.22058021125E+02  0.00000000000E+00 0. -1.
         -4    1    1    2    0  503 -0.13174164052E+02 -0.17228342241E+02 -0.12048844341E+02  0.24810260474E+02  0.00000000000E+00 0.  1.
<mgrwt>
<rscale>  2 0.21688116E+02</rscale>
<asrwt>0</asrwt>
<pdfrwt beam="1">  1       21 0.23689816E-02 0.21688116E+02</pdfrwt>
<pdfrwt beam="2">  1       21 0.48415232E-02 0.21688116E+02</pdfrwt>
<totfact> 0.17082580E+08</totfact>
</mgrwt>
</event>
<event>
 4    1  0.7119201E+004  0.2030733E+02  0.7546771E-02  0.1739285E+00
         21   -1    0    0  501  502  0.00000000000E+00  0.00000000000E+00  0.76833833180E+02  0.76833833180E+02  0.00000000000E+00 0. -1.
         21   -1    0    0  502  503 -0.00000000000E+00 -0.00000000000E+00 -0.56247145475E+01  0.56247145475E+01  0.00000000000E+00 0. -1.
          4    1    1    2  501    0  0.13484378917E+02 -0.15184174161E+02  0.44425211021E+02  0.48846565836E+02  0.00000000000E+00 0.  1.
         -4    1    1    2    0  503 -0.13484378917E+02  0.15184174161E+02  0.26783907612E+02  0.33611981891E+02  0.00000000000E+00 0. -1.
<mgrwt>
<rscale>  2 0.20307329E+02</rscale>
<asrwt>0</asrwt>
<pdfrwt beam="1">  1       21 0.11820589E-01 0.20307329E+02</pdfrwt>
<pdfrwt beam="2">  1       21 0.86534076E-03 0.20307329E+02</pdfrwt>
<totfact> 0.18063135E+08</totfact>
</mgrwt>
</event>
<event>
 4    1  0.7119201E+004  0.3083439E+02  0.7546771E-02  0.1589045E+00
         21   -1    0    0  501  502  0.00000000000E+00  0.00000000000E+00  0.10177238253E+02  0.10177238253E+02  0.00000000000E+00 0. -1.
         21   -1    0    0  502  503 -0.00000000000E+00 -0.00000000000E+00 -0.11968911549E+03  0.11968911549E+03  0.00000000000E+00 0. -1.
          4    1    1    2  501    0 -0.30239622648E+02  0.60270112914E+01 -0.24335856213E+02  0.39280956463E+02  0.00000000000E+00 0.  1.
         -4    1    1    2    0  503  0.30239622648E+02 -0.60270112914E+01 -0.85176021025E+02  0.90585397282E+02  0.00000000000E+00 0. -1.
<mgrwt>
<rscale>  2 0.30834391E+02</rscale>
<asrwt>0</asrwt>
<pdfrwt beam="1">  1       21 0.15657289E-02 0.30834391E+02</pdfrwt>
<pdfrwt beam="2">  1       21 0.18413711E-01 0.30834391E+02</pdfrwt>
<totfact> 0.38522663E+07</totfact>
</mgrwt>
</event>
<event>
 4    1  0.7119201E+004  0.2073624E+02  0.7546771E-02  0.1731071E+00
         21   -1    0    0  501  502  0.00000000000E+00  0.00000000000E+00  0.41251503971E+01  0.41251503971E+01  0.00000000000E+00 0. -1.
         21   -1    0    0  502  503 -0.00000000000E+00 -0.00000000000E+00 -0.12289912315E+03  0.12289912315E+03  0.00000000000E+00 0. -1.
          1    1    1    2  501    0 -0.66127239952E+01  0.19653586293E+02 -0.34637411993E+02  0.40370061709E+02  0.00000000000E+00 0.  1.
         -1    1    1    2    0  503  0.66127239952E+01 -0.19653586293E+02 -0.84136560763E+02  0.86654211842E+02  0.00000000000E+00 0. -1.
<mgrwt>
<rscale>  2 0.20736238E+02</rscale>
<asrwt>0</asrwt>
<pdfrwt beam="1">  1       21 0.63463851E-03 0.20736238E+02</pdfrwt>
<pdfrwt beam="2">  1       21 0.18907558E-01 0.20736238E+02</pdfrwt>
<totfact> 0.12992579E+08</totfact>
</mgrwt>
</event>
<event>
 4    1  0.7119201E+004  0.2424602E+02  0.7546771E-02  0.1672074E+00
         21   -1    0    0  501  502  0.00000000000E+00  0.00000000000E+00  0.50810276291E+02  0.50810276291E+02  0.00000000000E+00 0.  1.
         21   -1    0    0  502  503 -0.00000000000E+00 -0.00000000000E+00 -0.12119978888E+02  0.12119978888E+02  0.00000000000E+00 0.  1.
          4    1    1    2  501    0  0.23455734496E+02  0.61398588517E+01  0.12641755547E+02  0.27343798763E+02  0.00000000000E+00 0. -1.
         -4    1    1    2    0  503 -0.23455734496E+02 -0.61398588517E+01  0.26048541856E+02  0.35586456417E+02  0.00000000000E+00 0.  1.
<mgrwt>
<rscale>  2 0.24246017E+02</rscale>
<asrwt>0</asrwt>
<pdfrwt beam="1">  1       21 0.78169655E-02 0.24246017E+02</pdfrwt>
<pdfrwt beam="2">  1       21 0.18646122E-02 0.24246017E+02</pdfrwt>
<totfact> 0.11810473E+08</totfact>
</mgrwt>
</event>
<event>
 4    1  0.7119201E+004  0.2431799E+02  0.7546771E-02  0.1670996E+00
         21   -1    0    0  503  502  0.00000000000E+00  0.00000000000E+00  0.18695903418E+03  0.18695903418E+03  0.00000000000E+00 0. -1.
         21   -1    0    0  501  503 -0.00000000000E+00 -0.00000000000E+00 -0.34217782299E+01  0.34217782299E+01  0.00000000000E+00 0. -1.
          5    1    1    2  501    0  0.63638111668E+01  0.23470547716E+02  0.11794271355E+03  0.12042362053E+03  0.00000000000E+00 0. -1.
         -5    1    1    2    0  502 -0.63638111668E+01 -0.23470547716E+02  0.65594542396E+02  0.69957191873E+02  0.00000000000E+00 0.  1.
<mgrwt>
<rscale>  2 0.24317991E+02</rscale>
<asrwt>0</asrwt>
<pdfrwt beam="1">  1       21 0.28762920E-01 0.24317991E+02</pdfrwt>
<pdfrwt beam="2">  1       21 0.52642757E-03 0.24317991E+02</pdfrwt>
<totfact> 0.85223195E+07</totfact>
</mgrwt>
</event>
<event>
 4    1  0.7119201E+004  0.2192364E+02  0.7546771E-02  0.1709576E+00
         21   -1    0    0  501  502  0.00000000000E+00  0.00000000000E+00  0.75050451162E+02  0.75050451162E+02  0.00000000000E+00 0.  1.
         21   -1    0    0  502  503 -0.00000000000E+00 -0.00000000000E+00 -0.69109657955E+01  0.69109657955E+01  0.00000000000E+00 0.  1.
          4    1    1    2  501    0 -0.20761192369E+02  0.70440659157E+01  0.22973683166E+02  0.31755882784E+02  0.00000000000E+00 0. -1.
         -4    1    1    2    0  503  0.20761192369E+02 -0.70440659157E+01  0.45165802201E+02  0.50205534173E+02  0.00000000000E+00 0.  1.
<mgrwt>
<rscale>  2 0.21923640E+02</rscale>
<asrwt>0</asrwt>
<pdfrwt beam="1">  1       21 0.11546223E-01 0.21923640E+02</pdfrwt>
<pdfrwt beam="2">  1       21 0.10632256E-02 0.21923640E+02</pdfrwt>
<totfact> 0.14131759E+08</totfact>
</mgrwt>
</event>
<event>
 4    1  0.7119201E+004  0.3537075E+02  0.7546771E-02  0.1545333E+00
         21   -1    0    0  501  502  0.00000000000E+00  0.00000000000E+00  0.61064984982E+02  0.61064984982E+02  0.00000000000E+00 0. -1.
         21   -1    0    0  502  503 -0.00000000000E+00 -0.00000000000E+00 -0.23511399207E+02  0.23511399207E+02  0.00000000000E+00 0. -1.
          3    1    1    2  501    0 -0.82346546655E+01  0.34398846952E+02  0.33941654532E+02  0.49021690316E+02  0.00000000000E+00 0. -1.
         -3    1    1    2    0  503  0.82346546655E+01 -0.34398846952E+02  0.36119312425E+01  0.35554693873E+02  0.00000000000E+00 0.  1.
<mgrwt>
<rscale>  2 0.35370754E+02</rscale>
<asrwt>0</asrwt>
<pdfrwt beam="1">  1       21 0.93946130E-02 0.35370754E+02</pdfrwt>
<pdfrwt beam="2">  1       21 0.36171384E-02 0.35370754E+02</pdfrwt>
<totfact> 0.33794617E+07</totfact>
</mgrwt>
</event>
<event>
 4    1  0.7119201E+004  0.2157824E+02  0.7546771E-02  0.1715650E+00
         21   -1    0    0  501  502  0.00000000000E+00  0.00000000000E+00  0.27971733533E+02  0.27971733533E+02  0.00000000000E+00 0.  1.
         21   -1    0    0  502  503 -0.00000000000E+00 -0.00000000000E+00 -0.16646628744E+02  0.16646628744E+02  0.00000000000E+00 0.  1.
          4    1    1    2  501    0  0.16211763450E+02  0.14240756133E+02  0.57877049216E+01  0.22340947555E+02  0.00000000000E+00 0.  1.
         -4    1    1    2    0  503 -0.16211763450E+02 -0.14240756133E+02  0.55373998666E+01  0.22277414722E+02  0.00000000000E+00 0. -1.
<mgrwt>
<rscale>  2 0.21578239E+02</rscale>
<asrwt>0</asrwt>
<pdfrwt beam="1">  1       21 0.43033436E-02 0.21578239E+02</pdfrwt>
<pdfrwt beam="2">  1       21 0.25610198E-02 0.21578239E+02</pdfrwt>
<totfact> 0.18221732E+08</totfact>
</mgrwt>
</event>
<event>
 4    1  0.7119201E+004  0.2981561E+02  0.7546771E-02  0.1600136E+00
         21   -1    0    0  501  502  0.00000000000E+00  0.00000000000E+00  0.72388959740E+01  0.72388959740E+01  0.00000000000E+00 0.  1.
         21   -1    0    0  502  503 -0.00000000000E+00 -0.00000000000E+00 -0.12299536585E+03  0.12299536585E+03  0.00000000000E+00 0.  1.
          1    1    1    2  501    0 -0.38698169372E-01  0.29815581111E+02 -0.55314347428E+02  0.62838263868E+02  0.00000000000E+00 0.  1.
         -1    1    1    2    0  503  0.38698169372E-01 -0.29815581111E+02 -0.60442122446E+02  0.67395997955E+02  0.00000000000E+00 0. -1.
<mgrwt>
<rscale>  2 0.29815606E+02</rscale>
<asrwt>0</asrwt>
<pdfrwt beam="1">  1       21 0.11136763E-02 0.29815606E+02</pdfrwt>
<pdfrwt beam="2">  1       21 0.18922364E-01 0.29815606E+02</pdfrwt>
<totfact> 0.61389666E+07</totfact>
</mgrwt>
</event>
<event>
 4    1  0.7119201E+004  0.2074582E+02  0.7546771E-02  0.1730891E+00
         21   -1    0    0  503  502  0.00000000000E+00  0.00000000000E+00  0.11229561655E+02  0.11229561655E+02  0.00000000000E+00 0.  1.
         21   -1    0    0  501  503 -0.00000000000E+00 -0.00000000000E+00 -0.40617440206E+02  0.40617440206E+02  0.00000000000E+00 0.  1.
          5    1    1    2  501    0  0.15125243927E+02  0.14199149792E+02 -0.85371802564E+01  0.22433731419E+02  0.00000000000E+00 0.  1.
         -5    1    1    2    0  502 -0.15125243927E+02 -0.14199149792E+02 -0.20850698295E+02  0.29413270441E+02  0.00000000000E+00 0. -1.
<mgrwt>
<rscale>  2 0.20745815E+02</rscale>
<asrwt>0</asrwt>
<pdfrwt beam="1">  1       21 0.17276249E-02 0.20745815E+02</pdfrwt>
<pdfrwt beam="2">  1       21 0.62488369E-02 0.20745815E+02</pdfrwt>
<totfact> 0.18182551E+08</totfact>
</mgrwt>
</event>
<event>
 4    1  0.7119201E+004  0.2505783E+02  0.7546771E-02  0.1660173E+00
         21   -1    0    0  503  502  0.00000000000E+00  0.00000000000E+00  0.81358944969E+01  0.81358944969E+01  0.00000000000E+00 0. -1.
         21   -1    0    0  501  503 -0.00000000000E+00 -0.00000000000E+00 -0.77222990620E+02  0.77222990620E+02  0.00000000000E+00 0. -1.
          5    1    1    2  501    0  0.20170841327E+02  0.14867139543E+02 -0.33489200526E+02  0.41826083129E+02  0.00000000000E+00 0.  1.
         -5    1    1    2    0  502 -0.20170841327E+02 -0.14867139543E+02 -0.35597895597E+02  0.43532801989E+02  0.00000000000E+00 0. -1.
<mgrwt>
<rscale>  2 0.25057827E+02</rscale>
<asrwt>0</asrwt>
<pdfrwt beam="1">  1       21 0.12516761E-02 0.25057827E+02</pdfrwt>
<pdfrwt beam="2">  1       21 0.11880460E-01 0.25057827E+02</pdfrwt>
<totfact> 0.10943839E+08</totfact>
</mgrwt>
</event>
<event>
 4    1  0.7119201E+004  0.2571426E+02  0.7546771E-02  0.1650950E+00
         21   -1    0    0  501  502  0.00000000000E+00  0.00000000000E+00  0.16410453219E+03  0.16410453219E+03  0.00000000000E+00 0.  1.
         21   -1    0    0  502  503 -0.00000000000E+00 -0.00000000000E+00 -0.56192846348E+01  0.56192846348E+01  0.00000000000E+00 0.  1.
          1    1    1    2  501    0 -0.90805063839E+01 -0.24057589891E+02  0.34101603011E+02  0.42709981919E+02  0.00000000000E+00 0.  1.
         -1    1    1    2    0  503  0.90805063839E+01  0.24057589891E+02  0.12438364454E+03  0.12701383491E+03  0.00000000000E+00 0. -1.
<mgrwt>
<rscale>  2 0.25714261E+02</rscale>
<asrwt>0</asrwt>
<pdfrwt beam="1">  1       21 0.25246847E-01 0.25714261E+02</pdfrwt>
<pdfrwt beam="2">  1       21 0.86450545E-03 0.25714261E+02</pdfrwt>
<totfact> 0.52171940E+07</totfact>
</mgrwt>
</event>
<event>
 4    1  0.7119201E+004  0.2042893E+02  0.7546771E-02  0.1736930E+00
         21   -1    0    0  503  502  0.00000000000E+00  0.00000000000E+00  0.23614590878E+01  0.23614590878E+01  0.00000000000E+00 0.  1.
         21   -1    0    0  501  503 -0.00000000000E+00 -0.00000000000E+00 -0.22647462397E+03  0.22647462397E+03  0.00000000000E+00 0.  1.
          4    1    1    2  501    0 -0.14331599385E+02 -0.14558374197E+02 -0.16568033371E+03  0.16693505917E+03  0.00000000000E+00 0.  1.
         -4    1    1    2    0  502  0.14331599385E+02  0.14558374197E+02 -0.58432831176E+02  0.61901023897E+02  0.00000000000E+00 0. -1.
<mgrwt>
<rscale>  2 0.20428926E+02</rscale>
<asrwt>0</asrwt>
<pdfrwt beam="1">  1       21 0.36330138E-03 0.20428926E+02</pdfrwt>
<pdfrwt beam="2">  1       21 0.34842252E-01 0.20428926E+02</pdfrwt>
<totfact> 0.98760190E+07</totfact>
</mgrwt>
</event>
<event>
 4    1  0.7119201E+004  0.2119679E+02  0.7546771E-02  0.1722525E+00
         21   -1    0    0  501  502  0.00000000000E+00  0.00000000000E+00  0.11221043127E+04  0.11221043127E+04  0.00000000000E+00 0.  1.
         21   -1    0    0  502  503 -0.00000000000E+00 -0.00000000000E+00 -0.40133800426E+00  0.40133800426E+00  0.00000000000E+00 0.  1.
          2    1    1    2  501    0  0.60590404953E+01  0.20312355512E+02  0.58781441977E+03  0.58819647725E+03  0.00000000000E+00 0.  1.
         -2    1    1    2    0  503 -0.60590404953E+01 -0.20312355512E+02  0.53388855493E+03  0.53430917346E+03  0.00000000000E+00 0. -1.
<mgrwt>
<rscale>  2 0.21196787E+02</rscale>
<asrwt>0</asrwt>
<pdfrwt beam="1">  1       21 0.17262892E+00 0.21196787E+02</pdfrwt>
<pdfrwt beam="2">  1       21 0.61745207E-04 0.21196787E+02</pdfrwt>
<totfact> 0.43914713E+07</totfact>
</mgrwt>
</event>
<event>
 4    1  0.7119201E+004  0.2359456E+02  0.7546771E-02  0.1682050E+00
         21   -1    0    0  501  502  0.00000000000E+00  0.00000000000E+00  0.40785020832E+03  0.40785020832E+03  0.00000000000E+00 0. -1.
         21   -1    0    0  502  503 -0.00000000000E+00 -0.00000000000E+00 -0.13789253875E+01  0.13789253875E+01  0.00000000000E+00 0. -1.
          4    1    1    2  501    0 -0.15402794910E+02 -0.17873364389E+02  0.18265119720E+03  0.18416884396E+03  0.00000000000E+00 0.  1.
         -4    1    1    2    0  503  0.15402794910E+02  0.17873364389E+02  0.22382008574E+03  0.22506028975E+03  0.00000000000E+00 0. -1.
<mgrwt>
<rscale>  2 0.23594560E+02</rscale>
<asrwt>0</asrwt>
<pdfrwt beam="1">  1       21 0.62746090E-01 0.23594560E+02</pdfrwt>
<pdfrwt beam="2">  1       21 0.21214269E-03 0.23594560E+02</pdfrwt>
<totfact> 0.72224377E+07</totfact>
</mgrwt>
</event>
<event>
 4    1  0.7119201E+004  0.2062135E+02  0.7546771E-02  0.1733247E+00
         21   -1    0    0  501  502  0.00000000000E+00  0.00000000000E+00  0.15444259282E+01  0.15444259282E+01  0.00000000000E+00 0.  1.
         21   -1    0    0  502  503 -0.00000000000E+00 -0.00000000000E+00 -0.27619246947E+03  0.27619246947E+03  0.00000000000E+00 0.  1.
          1    1    1    2  501    0  0.19369760152E+02 -0.70747833193E+01 -0.12960294544E+03  0.13123324134E+03  0.00000000000E+00 0.  1.
         -1    1    1    2    0  503 -0.19369760152E+02  0.70747833193E+01 -0.14504509810E+03  0.14650365405E+03  0.00000000000E+00 0. -1.
<mgrwt>
<rscale>  2 0.20621352E+02</rscale>
<asrwt>0</asrwt>
<pdfrwt beam="1">  1       21 0.23760411E-03 0.20621352E+02</pdfrwt>
<pdfrwt beam="2">  1       21 0.42491128E-01 0.20621352E+02</pdfrwt>
<totfact> 0.12661091E+08</totfact>
</mgrwt>
</event>
<event>
 4    1  0.7119201E+004  0.2228299E+02  0.7546771E-02  0.1703403E+00
         21   -1    0    0  501  502  0.00000000000E+00  0.00000000000E+00  0.68878119850E+02  0.68878119850E+02  0.00000000000E+00 0. -1.
         21   -1    0    0  502  503 -0.00000000000E+00 -0.00000000000E+00 -0.92608732479E+01  0.92608732479E+01  0.00000000000E+00 0. -1.
          2    1    1    2  501    0 -0.74216989159E+01  0.21010708390E+02  0.48199559255E+02  0.53101120461E+02  0.00000000000E+00 0. -1.
         -2    1    1    2    0  503  0.74216989159E+01 -0.21010708390E+02  0.11417687347E+02  0.25037872637E+02  0.00000000000E+00 0.  1.
<mgrwt>
<rscale>  2 0.22282986E+02</rscale>
<asrwt>0</asrwt>
<pdfrwt beam="1">  1       21 0.10596634E-01 0.22282986E+02</pdfrwt>
<pdfrwt beam="2">  1       21 0.14247498E-02 0.22282986E+02</pdfrwt>
<totfact> 0.10530262E+08</totfact>
</mgrwt>
</event>
<event>
 4    1  0.7119201E+004  0.2203443E+02  0.7546771E-02  0.1707657E+00
         21   -1    0    0  503  502  0.00000000000E+00  0.00000000000E+00  0.16827805378E+03  0.16827805378E+03  0.00000000000E+00 0.  1.
         21   -1    0    0  501  503 -0.00000000000E+00 -0.00000000000E+00 -0.29873035006E+01  0.29873035006E+01  0.00000000000E+00 0.  1.
          5    1    1    2  501    0  0.21749855416E+02 -0.35298835677E+01  0.66814150495E+02  0.70353727655E+02  0.00000000000E+00 0.  1.
         -5    1    1    2    0  502 -0.21749855416E+02  0.35298835677E+01  0.98476599788E+02  0.10091162963E+03  0.00000000000E+00 0. -1.
<mgrwt>
<rscale>  2 0.22034434E+02</rscale>
<asrwt>0</asrwt>
<pdfrwt beam="1">  1       21 0.25888924E-01 0.22034434E+02</pdfrwt>
<pdfrwt beam="2">  1       21 0.45958528E-03 0.22034434E+02</pdfrwt>
<totfact> 0.12251892E+08</totfact>
</mgrwt>
</event>
<event>
 4    1  0.7119201E+004  0.3622100E+02  0.7546771E-02  0.1538018E+00
         21   -1    0    0  501  502  0.00000000000E+00  0.00000000000E+00  0.93585707023E+03  0.93585707023E+03  0.00000000000E+00 0.  1.
         21   -1    0    0  502  503 -0.00000000000E+00 -0.00000000000E+00 -0.17932059933E+01  0.17932059933E+01  0.00000000000E+00 0.  1.
          4    1    1    2  501    0  0.35360911363E+02 -0.78464470254E+01  0.24802176645E+03  0.25065266290E+03  0.00000000000E+00 0. -1.
         -4    1    1    2    0  503 -0.35360911363E+02  0.78464470254E+01  0.68604209779E+03  0.68699761333E+03  0.00000000000E+00 0.  1.
<mgrwt>
<rscale>  2 0.36220999E+02</rscale>
<asrwt>0</asrwt>
<pdfrwt beam="1">  1       21 0.14397762E+00 0.36220999E+02</pdfrwt>
<pdfrwt beam="2">  1       21 0.27587859E-03 0.36220999E+02</pdfrwt>
<totfact> 0.85360867E+06</totfact>
</mgrwt>
</event>
<event>
 4    1  0.7119201E+004  0.2596467E+02  0.7546771E-02  0.1647520E+00
         21   -1    0    0  501  502  0.00000000000E+00  0.00000000000E+00  0.94101359790E+01  0.94101359790E+01  0.00000000000E+00 0. -1.
         21   -1    0    0  502  503 -0.00000000000E+00 -0.00000000000E+00 -0.92475324926E+02  0.92475324926E+02  0.00000000000E+00 0. -1.
          2    1    1    2  501    0 -0.25870345979E+02 -0.22111702212E+01 -0.65711972843E+02  0.70655696513E+02  0.00000000000E+00 0.  1.
         -2    1    1    2    0  503  0.25870345979E+02  0.22111702212E+01 -0.17353216104E+02  0.31229764392E+02  0.00000000000E+00 0. -1.
<mgrwt>
<rscale>  2 0.25964670E+02</rscale>
<asrwt>0</asrwt>
<pdfrwt beam="1">  1       21 0.14477132E-02 0.25964670E+02</pdfrwt>
<pdfrwt beam="2">  1       21 0.14226974E-01 0.25964670E+02</pdfrwt>
<totfact> 0.65251965E+07</totfact>
</mgrwt>
</event>
<event>
 4    1  0.7119201E+004  0.2088725E+02  0.7546771E-02  0.1728239E+00
         21   -1    0    0  503  502  0.00000000000E+00  0.00000000000E+00  0.29623016921E+01  0.29623016921E+01  0.00000000000E+00 0. -1.
         21   -1    0    0  501  503 -0.00000000000E+00 -0.00000000000E+00 -0.17850263824E+03  0.17850263824E+03  0.00000000000E+00 0. -1.
          5    1    1    2  501    0 -0.17976246757E+02 -0.10636344318E+02 -0.12571913208E+03  0.12744244756E+03  0.00000000000E+00 0.  1.
         -5    1    1    2    0  502  0.17976246757E+02  0.10636344318E+02 -0.49821204461E+02  0.54022492370E+02  0.00000000000E+00 0. -1.
<mgrwt>
<rscale>  2 0.20887251E+02</rscale>
<asrwt>0</asrwt>
<pdfrwt beam="1">  1       21 0.45573883E-03 0.20887251E+02</pdfrwt>
<pdfrwt beam="2">  1       21 0.27461938E-01 0.20887251E+02</pdfrwt>
<totfact> 0.10994274E+08</totfact>
</mgrwt>
</event>
<event>
 4    1  0.7119201E+004  0.2125778E+02  0.7546771E-02  0.1721414E+00
         21   -1    0    0  503  502  0.00000000000E+00  0.00000000000E+00  0.45648591804E+01  0.45648591804E+01  0.00000000000E+00 0. -1.
         21   -1    0    0  501  503 -0.00000000000E+00 -0.00000000000E+00 -0.99213444556E+02  0.99213444556E+02  0.00000000000E+00 0. -1.
          3    1    1    2  501    0  0.20114304108E+02  0.68780858923E+01 -0.49765107677E+02  0.54115240343E+02  0.00000000000E+00 0. -1.
         -3    1    1    2    0  502 -0.20114304108E+02 -0.68780858923E+01 -0.44883477699E+02  0.49663063393E+02  0.00000000000E+00 0.  1.
<mgrwt>
<rscale>  2 0.21257782E+02</rscale>
<asrwt>0</asrwt>
<pdfrwt beam="1">  1       21 0.70228607E-03 0.21257782E+02</pdfrwt>
<pdfrwt beam="2">  1       21 0.15263606E-01 0.21257782E+02</pdfrwt>
<totfact> 0.16257617E+08</totfact>
</mgrwt>
</event>
<event>
 4    1  0.7119201E+004  0.2456494E+02  0.7546771E-02  0.1667331E+00
         21   -1    0    0  503  502  0.00000000000E+00  0.00000000000E+00  0.58954281063E+01  0.58954281063E+01  0.00000000000E+00 0. -1.
         21   -1    0    0  501  503 -0.00000000000E+00 -0.00000000000E+00 -0.11198659932E+03  0.11198659932E+03  0.00000000000E+00 0. -1.
          4    1    1    2  501    0  0.95201004490E+01 -0.22645178058E+02 -0.35761513323E+02  0.43385737714E+02  0.00000000000E+00 0.  1.
         -4    1    1    2    0  502 -0.95201004490E+01  0.22645178058E+02 -0.70329657895E+02  0.74496289716E+02  0.00000000000E+00 0. -1.
<mgrwt>
<rscale>  2 0.24564943E+02</rscale>
<asrwt>0</asrwt>
<pdfrwt beam="1">  1       21 0.90698900E-03 0.24564943E+02</pdfrwt>
<pdfrwt beam="2">  1       21 0.17228707E-01 0.24564943E+02</pdfrwt>
<totfact> 0.94016411E+07</totfact>
</mgrwt>
</event>
<event>
 4    1  0.7119201E+004  0.2325791E+02  0.7546771E-02  0.1687363E+00
         21   -1    0    0  501  502  0.00000000000E+00  0.00000000000E+00  0.26118938363E+02  0.26118938363E+02  0.00000000000E+00 0. -1.
         21   -1    0    0  502  503 -0.00000000000E+00 -0.00000000000E+00 -0.21147004850E+02  0.21147004850E+02  0.00000000000E+00 0. -1.
          5    1    1    2  501    0  0.16159302345E+02  0.16727438123E+02  0.58822456177E+01  0.23990228260E+02  0.00000000000E+00 0.  1.
         -5    1    1    2    0  503 -0.16159302345E+02 -0.16727438123E+02 -0.91031210453E+00  0.23275714953E+02  0.00000000000E+00 0. -1.
<mgrwt>
<rscale>  2 0.23257907E+02</rscale>
<asrwt>0</asrwt>
<pdfrwt beam="1">  1       21 0.40182982E-02 0.23257907E+02</pdfrwt>
<pdfrwt beam="2">  1       21 0.32533854E-02 0.23257907E+02</pdfrwt>
<totfact> 0.14326956E+08</totfact>
</mgrwt>
</event>
<event>
 4    1  0.7119201E+004  0.2539232E+02  0.7546771E-02  0.1655430E+00
         21   -1    0    0  501  502  0.00000000000E+00  0.00000000000E+00  0.38241526009E+02  0.38241526009E+02  0.00000000000E+00 0. -1.
         21   -1    0    0  502  503 -0.00000000000E+00 -0.00000000000E+00 -0.20051957402E+02  0.20051957402E+02  0.00000000000E+00 0. -1.
          4    1    1    2  501    0  0.18682998573E+02  0.17196385992E+02 -0.25332993833E+01  0.25518380290E+02  0.00000000000E+00 0.  1.
         -4    1    1    2    0  503 -0.18682998573E+02 -0.17196385992E+02  0.20722867991E+02  0.32775103121E+02  0.00000000000E+00 0. -1.
<mgrwt>
<rscale>  2 0.25392324E+02</rscale>
<asrwt>0</asrwt>
<pdfrwt beam="1">  1       21 0.58833117E-02 0.25392324E+02</pdfrwt>
<pdfrwt beam="2">  1       21 0.30849165E-02 0.25392324E+02</pdfrwt>
<totfact> 0.86930123E+07</totfact>
</mgrwt>
</event>
<event>
 4    1  0.7119201E+004  0.3111249E+02  0.7546771E-02  0.1586107E+00
         21   -1    0    0  503  502  0.00000000000E+00  0.00000000000E+00  0.57208724346E+02  0.57208724346E+02  0.00000000000E+00 0. -1.
         21   -1    0    0  501  503 -0.00000000000E+00 -0.00000000000E+00 -0.24697525156E+02  0.24697525156E+02  0.00000000000E+00 0. -1.
          2    1    1    2  501    0 -0.68416889983E+00 -0.31104967809E+02  0.39236840578E+02  0.50075111263E+02  0.00000000000E+00 0. -1.
         -2    1    1    2    0  502  0.68416889983E+00  0.31104967809E+02 -0.67256413877E+01  0.31831138238E+02  0.00000000000E+00 0.  1.
<mgrwt>
<rscale>  2 0.31112491E+02</rscale>
<asrwt>0</asrwt>
<pdfrwt beam="1">  1       21 0.88013422E-02 0.31112491E+02</pdfrwt>
<pdfrwt beam="2">  1       21 0.37996193E-02 0.31112491E+02</pdfrwt>
<totfact> 0.33963137E+07</totfact>
</mgrwt>
</event>
<event>
 4    1  0.7119201E+004  0.2245073E+02  0.7546771E-02  0.1700572E+00
         21   -1    0    0  503  502  0.00000000000E+00  0.00000000000E+00  0.19277705907E+01  0.19277705907E+01  0.00000000000E+00 0. -1.
         21   -1    0    0  501  503 -0.00000000000E+00 -0.00000000000E+00 -0.26663476099E+03  0.26663476099E+03  0.00000000000E+00 0. -1.
          3    1    1    2  501    0  0.74138340835E+00  0.22438481115E+02 -0.11364675334E+03  0.11584308192E+03  0.00000000000E+00 0. -1.
         -3    1    1    2    0  502 -0.74138340835E+00 -0.22438481115E+02 -0.15106023707E+03  0.15271944967E+03  0.00000000000E+00 0.  1.
<mgrwt>
<rscale>  2 0.22450726E+02</rscale>
<asrwt>0</asrwt>
<pdfrwt beam="1">  1       21 0.29658004E-03 0.22450726E+02</pdfrwt>
<pdfrwt beam="2">  1       21 0.41020739E-01 0.22450726E+02</pdfrwt>
<totfact> 0.10043051E+08</totfact>
</mgrwt>
</event>
<event>
 4    1  0.7119201E+004  0.2144668E+02  0.7546771E-02  0.1718001E+00
         21   -1    0    0  503  502  0.00000000000E+00  0.00000000000E+00  0.50668849749E+03  0.50668849749E+03  0.00000000000E+00 0. -1.
         21   -1    0    0  501  503 -0.00000000000E+00 -0.00000000000E+00 -0.10660869805E+01  0.10660869805E+01  0.00000000000E+00 0. -1.
          5    1    1    2  501    0 -0.21401942628E+02 -0.13844971183E+01  0.35064348701E+03  0.35129875457E+03  0.00000000000E+00 0. -1.
         -5    1    1    2    0  502  0.21401942628E+02  0.13844971183E+01  0.15497892350E+03  0.15645582990E+03  0.00000000000E+00 0.  1.
<mgrwt>
<rscale>  2 0.21446678E+02</rscale>
<asrwt>0</asrwt>
<pdfrwt beam="1">  1       21 0.77951884E-01 0.21446678E+02</pdfrwt>
<pdfrwt beam="2">  1       21 0.16401379E-03 0.21446678E+02</pdfrwt>
<totfact> 0.65560296E+07</totfact>
</mgrwt>
</event>
<event>
 4    1  0.7119201E+004  0.3497683E+02  0.7546771E-02  0.1548806E+00
         21   -1    0    0  503  502  0.00000000000E+00  0.00000000000E+00  0.56357961932E+01  0.56357961932E+01  0.00000000000E+00 0.  1.
         21   -1    0    0  501  503 -0.00000000000E+00 -0.00000000000E+00 -0.22245054443E+03  0.22245054443E+03  0.00000000000E+00 0.  1.
          5    1    1    2  501    0 -0.12632560273E+02 -0.32615902098E+02 -0.90675754508E+02  0.97187813559E+02  0.00000000000E+00 0.  1.
         -5    1    1    2    0  502  0.12632560273E+02  0.32615902098E+02 -0.12613899373E+03  0.13089852706E+03  0.00000000000E+00 0. -1.
<mgrwt>
<rscale>  2 0.34976830E+02</rscale>
<asrwt>0</asrwt>
<pdfrwt beam="1">  1       21 0.86704582E-03 0.34976830E+02</pdfrwt>
<pdfrwt beam="2">  1       21 0.34223151E-01 0.34976830E+02</pdfrwt>
<totfact> 0.31651677E+07</totfact>
</mgrwt>
</event>
<event>
 4    1  0.7119201E+004  0.2536863E+02  0.7546771E-02  0.1655763E+00
         21   -1    0    0  503  502  0.00000000000E+00  0.00000000000E+00  0.16637905518E+02  0.16637905518E+02  0.00000000000E+00 0. -1.
         21   -1    0    0  501  503 -0.00000000000E+00 -0.00000000000E+00 -0.38681306064E+02  0.38681306064E+02  0.00000000000E+00 0. -1.
          5    1    1    2  501    0 -0.23724709545E+02  0.89836125020E+01 -0.10919543024E+02  0.27618898537E+02  0.00000000000E+00 0. -1.
         -5    1    1    2    0  502  0.23724709545E+02 -0.89836125020E+01 -0.11123857522E+02  0.27700313044E+02  0.00000000000E+00 0.  1.
<mgrwt>
<rscale>  2 0.25368625E+02</rscale>
<asrwt>0</asrwt>
<pdfrwt beam="1">  1       21 0.25596778E-02 0.25368625E+02</pdfrwt>
<pdfrwt beam="2">  1       21 0.59509702E-02 0.25368625E+02</pdfrwt>
<totfact> 0.11413955E+08</totfact>
</mgrwt>
</event>
<event>
 4    1  0.7119201E+004  0.2669157E+02  0.7546771E-02  0.1637830E+00
         21   -1    0    0  501  502  0.00000000000E+00  0.00000000000E+00  0.92425002969E+02  0.92425002969E+02  0.00000000000E+00 0. -1.
         21   -1    0    0  502  503 -0.00000000000E+00 -0.00000000000E+00 -0.77408717139E+01  0.77408717139E+01  0.00000000000E+00 0. -1.
          4    1    1    2  501    0 -0.25739794532E+02 -0.70642056493E+01  0.45590605568E+02  0.52829379517E+02  0.00000000000E+00 0. -1.
         -4    1    1    2    0  503  0.25739794532E+02  0.70642056493E+01  0.39093525687E+02  0.47336495166E+02  0.00000000000E+00 0.  1.
<mgrwt>
<rscale>  2 0.26691572E+02</rscale>
<asrwt>0</asrwt>
<pdfrwt beam="1">  1       21 0.14219230E-01 0.26691572E+02</pdfrwt>
<pdfrwt beam="2">  1       21 0.11909034E-02 0.26691572E+02</pdfrwt>
<totfact> 0.88504629E+07</totfact>
</mgrwt>
</event>
<event>
 4    1  0.7119201E+004  0.2310335E+02  0.7546771E-02  0.1689840E+00
         21   -1    0    0  503  502  0.00000000000E+00  0.00000000000E+00  0.58430292319E+03  0.58430292319E+03  0.00000000000E+00 0.  1.
         21   -1    0    0  501  503 -0.00000000000E+00 -0.00000000000E+00 -0.91619528101E+00  0.91619528101E+00  0.00000000000E+00 0.  1.
          3    1    1    2  501    0  0.82856543904E+00 -0.23088487008E+02  0.27584298105E+03  0.27680880577E+03  0.00000000000E+00 0.  1.
         -3    1    1    2    0  502 -0.82856543904E+00  0.23088487008E+02  0.30754374686E+03  0.30841031271E+03  0.00000000000E+00 0. -1.
<mgrwt>
<rscale>  2 0.23103349E+02</rscale>
<asrwt>0</asrwt>
<pdfrwt beam="1">  1       21 0.89892459E-01 0.23103349E+02</pdfrwt>
<pdfrwt beam="2">  1       21 0.14095359E-03 0.23103349E+02</pdfrwt>
<totfact> 0.61366208E+07</totfact>
</mgrwt>
</event>
<event>
 4    1  0.7119201E+004  0.2997205E+02  0.7546771E-02  0.1598398E+00
         21   -1    0    0  503  502  0.00000000000E+00  0.00000000000E+00  0.35719612900E+02  0.35719612900E+02  0.00000000000E+00 0.  1.
         21   -1    0    0  501  503 -0.00000000000E+00 -0.00000000000E+00 -0.25607728100E+02  0.25607728100E+02  0.00000000000E+00 0.  1.
          1    1    1    2  501    0 -0.29315094361E+02 -0.62409029598E+01  0.91586387071E+01  0.31340138642E+02  0.00000000000E+00 0.  1.
         -1    1    1    2    0  502  0.29315094361E+02  0.62409029598E+01  0.95324609361E+00  0.29987202358E+02  0.00000000000E+00 0. -1.
<mgrwt>
<rscale>  2 0.29972047E+02</rscale>
<asrwt>0</asrwt>
<pdfrwt beam="1">  1       21 0.54953251E-02 0.29972047E+02</pdfrwt>
<pdfrwt beam="2">  1       21 0.39396505E-02 0.29972047E+02</pdfrwt>
<totfact> 0.68776187E+07</totfact>
</mgrwt>
</event>
<event>
 4    1  0.7119201E+004  0.2297912E+02  0.7546771E-02  0.1691849E+00
         21   -1    0    0  503  502  0.00000000000E+00  0.00000000000E+00  0.13002633034E+04  0.13002633034E+04  0.00000000000E+00 0.  1.
         21   -1    0    0  501  503 -0.00000000000E+00 -0.00000000000E+00 -0.53206381727E+00  0.53206381727E+00  0.00000000000E+00 0.  1.
          1    1    1    2  501    0  0.16365807741E+02 -0.16130722406E+02  0.33340758230E+03  0.33419852753E+03  0.00000000000E+00 0. -1.
         -1    1    1    2    0  502 -0.16365807741E+02  0.16130722406E+02  0.96632365732E+03  0.96659683972E+03  0.00000000000E+00 0.  1.
<mgrwt>
<rscale>  2 0.22979118E+02</rscale>
<asrwt>0</asrwt>
<pdfrwt beam="1">  1       21 0.20003796E+00 0.22979118E+02</pdfrwt>
<pdfrwt beam="2">  1       21 0.81857013E-04 0.22979118E+02</pdfrwt>
<totfact> 0.20648427E+07</totfact>
</mgrwt>
</event>
<event>
 4    1  0.7119201E+004  0.3335142E+02  0.7546771E-02  0.1563747E+00
         21   -1    0    0  501  502  0.00000000000E+00  0.00000000000E+00  0.57592739066E+02  0.57592739066E+02  0.00000000000E+00 0.  1.
         21   -1    0    0  502  503 -0.00000000000E+00 -0.00000000000E+00 -0.22771047331E+02  0.22771047331E+02  0.00000000000E+00 0.  1.
          1    1    1    2  501    0  0.39049341156E+01 -0.33122026552E+02  0.17533180933E+01  0.33397474122E+02  0.00000000000E+00 0.  1.
         -1    1    1    2    0  503 -0.39049341156E+01  0.33122026552E+02  0.33068373642E+02  0.46966312275E+02  0.00000000000E+00 0. -1.
<mgrwt>
<rscale>  2 0.33351419E+02</rscale>
<asrwt>0</asrwt>
<pdfrwt beam="1">  1       21 0.88604213E-02 0.33351419E+02</pdfrwt>
<pdfrwt beam="2">  1       21 0.35032381E-02 0.33351419E+02</pdfrwt>
<totfact> 0.38754745E+07</totfact>
</mgrwt>
</event>
<event>
 4    1  0.7119201E+004  0.2496715E+02  0.7546771E-02  0.1661474E+00
         21   -1    0    0  503  502  0.00000000000E+00  0.00000000000E+00  0.32463066095E+00  0.32463066095E+00  0.00000000000E+00 0. -1.
         21   -1    0    0  501  503 -0.00000000000E+00 -0.00000000000E+00 -0.19205043000E+04  0.19205043000E+04  0.00000000000E+00 0. -1.
          2    1    1    2  501    0 -0.24368075840E+02  0.54364808751E+01 -0.94816372236E+03  0.94849238417E+03  0.00000000000E+00 0.  1.
         -2    1    1    2    0  502  0.24368075840E+02 -0.54364808751E+01 -0.97201594694E+03  0.97233654644E+03  0.00000000000E+00 0. -1.
<mgrwt>
<rscale>  2 0.24967147E+02</rscale>
<asrwt>0</asrwt>
<pdfrwt beam="1">  1       21 0.49942313E-04 0.24967147E+02</pdfrwt>
<pdfrwt beam="2">  1       21 0.29546732E+00 0.24967147E+02</pdfrwt>
<totfact> 0.13702236E+07</totfact>
</mgrwt>
</event>
<event>
 4    1  0.7119201E+004  0.3187312E+02  0.7546771E-02  0.1578261E+00
         21   -1    0    0  503  502  0.00000000000E+00  0.00000000000E+00  0.30409675025E+02  0.30409675025E+02  0.00000000000E+00 0. -1.
         21   -1    0    0  501  503 -0.00000000000E+00 -0.00000000000E+00 -0.35112882136E+02  0.35112882136E+02  0.00000000000E+00 0. -1.
          3    1    1    2  501    0  0.19294997045E+02  0.25369252580E+02 -0.95726916280E+01  0.33279608057E+02  0.00000000000E+00 0.  1.
         -3    1    1    2    0  502 -0.19294997045E+02 -0.25369252580E+02  0.48694845167E+01  0.32242949104E+02  0.00000000000E+00 0. -1.
<mgrwt>
<rscale>  2 0.31873122E+02</rscale>
<asrwt>0</asrwt>
<pdfrwt beam="1">  1       21 0.46784115E-02 0.31873122E+02</pdfrwt>
<pdfrwt beam="2">  1       21 0.54019819E-02 0.31873122E+02</pdfrwt>
<totfact> 0.54463268E+07</totfact>
</mgrwt>
</event>
<event>
 4    1  0.7119201E+004  0.2017084E+02  0.7546771E-02  0.1741952E+00
         21   -1    0    0  503  502  0.00000000000E+00  0.00000000000E+00  0.10046553513E+01  0.10046553513E+01  0.00000000000E+00 0.  1.
         21   -1    0    0  501  503 -0.00000000000E+00 -0.00000000000E+00 -0.55180004674E+03  0.55180004674E+03  0.00000000000E+00 0.  1.
          5    1    1    2  501    0  0.20154792291E+02  0.80448856032E+00 -0.13282144776E+03  0.13434433311E+03  0.00000000000E+00 0. -1.
         -5    1    1    2    0  502 -0.20154792291E+02 -0.80448856032E+00 -0.41797394363E+03  0.41846036898E+03  0.00000000000E+00 0.  1.
<mgrwt>
<rscale>  2 0.20170842E+02</rscale>
<asrwt>0</asrwt>
<pdfrwt beam="1">  1       21 0.15456209E-03 0.20170842E+02</pdfrwt>
<pdfrwt beam="2">  1       21 0.84892465E-01 0.20170842E+02</pdfrwt>
<totfact> 0.58815957E+07</totfact>
</mgrwt>
</event>
<event>
 4    1  0.7119201E+004  0.2557237E+02  0.7546771E-02  0.1652914E+00
         21   -1    0    0  503  502  0.00000000000E+00  0.00000000000E+00  0.57446853382E+02  0.57446853382E+02  0.00000000000E+00 0. -1.
         21   -1    0    0  501  503 -0.00000000000E+00 -0.00000000000E+00 -0.13436048113E+02  0.13436048113E+02  0.00000000000E+00 0. -1.
          3    1    1    2  501    0  0.25506200835E+02  0.18383766314E+01  0.35857738899E+02  0.44042290456E+02  0.00000000000E+00 0.  1.
         -3    1    1    2    0  502 -0.25506200835E+02 -0.18383766314E+01  0.81530663700E+01  0.26840611038E+02  0.00000000000E+00 0. -1.
<mgrwt>
<rscale>  2 0.25572366E+02</rscale>
<asrwt>0</asrwt>
<pdfrwt beam="1">  1       21 0.88379773E-02 0.25572366E+02</pdfrwt>
<pdfrwt beam="2">  1       21 0.20670844E-02 0.25572366E+02</pdfrwt>
<totfact> 0.83583389E+07</totfact>
</mgrwt>
</event>
<event>
 4    1  0.7119201E+004  0.2251592E+02  0.7546771E-02  0.1699479E+00
         21   -1    0    0  501  502  0.00000000000E+00  0.00000000000E+00  0.34680981394E+02  0.34680981394E+02  0.00000000000E+00 0. -1.
         21   -1    0    0  502  503 -0.00000000000E+00 -0.00000000000E+00 -0.15229755822E+02  0.15229755822E+02  0.00000000000E+00 0. -1.
          1    1    1    2  501    0 -0.99476702023E+01  0.20199270142E+02  0.47240485536E+01  0.23006157686E+02  0.00000000000E+00 0. -1.
         -1    1    1    2    0  503  0.99476702023E+01 -0.20199270142E+02  0.14727177018E+02  0.26904579530E+02  0.00000000000E+00 0.  1.
<mgrwt>
<rscale>  2 0.22515920E+02</rscale>
<asrwt>0</asrwt>
<pdfrwt beam="1">  1       21 0.53355356E-02 0.22515920E+02</pdfrwt>
<pdfrwt beam="2">  1       21 0.23430394E-02 0.22515920E+02</pdfrwt>
<totfact> 0.15060269E+08</totfact>
</mgrwt>
</event>
<event>
 4    1  0.7119201E+004  0.2167319E+02  0.7546771E-02  0.1713966E+00
         21   -1    0    0  503  502  0.00000000000E+00  0.00000000000E+00  0.11420713592E+03  0.11420713592E+03  0.00000000000E+00 0.  1.
         21   -1    0    0  501  503 -0.00000000000E+00 -0.00000000000E+00 -0.51740605659E+01  0.51740605659E+01  0.00000000000E+00 0.  1.
          5    1    1    2  501    0 -0.40541680576E+01 -0.21290627694E+02  0.27484889401E+02  0.35002089247E+02  0.00000000000E+00 0.  1.
         -5    1    1    2    0  502  0.40541680576E+01  0.21290627694E+02  0.81548185956E+02  0.84379107242E+02  0.00000000000E+00 0. -1.
<mgrwt>
<rscale>  2 0.21673189E+02</rscale>
<asrwt>0</asrwt>
<pdfrwt beam="1">  1       21 0.17570327E-01 0.21673189E+02</pdfrwt>
<pdfrwt beam="2">  1       21 0.79600940E-03 0.21673189E+02</pdfrwt>
<totfact> 0.10670027E+08</totfact>
</mgrwt>
</event>
<event>
 4    1  0.7119201E+004  0.5235650E+02  0.7546771E-02  0.1433030E+00
         21   -1    0    0  503  502  0.00000000000E+00  0.00000000000E+00  0.87742308291E+01  0.87742308291E+01  0.00000000000E+00 0.  1.
         21   -1    0    0  501  503 -0.00000000000E+00 -0.00000000000E+00 -0.31570344848E+03  0.31570344848E+03  0.00000000000E+00 0.  1.
          2    1    1    2  501    0 -0.17361618523E+02  0.49394103922E+02 -0.17002214916E+03  0.17790091204E+03  0.00000000000E+00 0. -1.
         -2    1    1    2    0  502  0.17361618523E+02 -0.49394103922E+02 -0.13690706848E+03  0.14657676726E+03  0.00000000000E+00 0.  1.
<mgrwt>
<rscale>  2 0.52356502E+02</rscale>
<asrwt>0</asrwt>
<pdfrwt beam="1">  1       21 0.13498817E-02 0.52356502E+02</pdfrwt>
<pdfrwt beam="2">  1       21 0.48569761E-01 0.52356502E+02</pdfrwt>
<totfact> 0.86079569E+06</totfact>
</mgrwt>
</event>
<event>
 4    1  0.7119201E+004  0.2458479E+02  0.7546771E-02  0.1667038E+00
         21   -1    0    0  503  502  0.00000000000E+00  0.00000000000E+00  0.70099715743E+01  0.70099715743E+01  0.00000000000E+00 0.  1.
         21   -1    0    0  501  503 -0.00000000000E+00 -0.00000000000E+00 -0.93447247482E+02  0.93447247482E+02  0.00000000000E+00 0.  1.
          1    1    1    2  501    0  0.22668265355E+02  0.95163961704E+01 -0.57185589664E+02  0.62246314875E+02  0.00000000000E+00 0. -1.
         -1    1    1    2    0  502 -0.22668265355E+02 -0.95163961704E+01 -0.29251686244E+02  0.38210904182E+02  0.00000000000E+00 0.  1.
<mgrwt>
<rscale>  2 0.24584793E+02</rscale>
<asrwt>0</asrwt>
<pdfrwt beam="1">  1       21 0.10784573E-02 0.24584793E+02</pdfrwt>
<pdfrwt beam="2">  1       21 0.14376498E-01 0.24584793E+02</pdfrwt>
<totfact> 0.98819125E+07</totfact>
</mgrwt>
</event>
<event>
 4    1  0.7119201E+004  0.2325052E+02  0.7546771E-02  0.1687481E+00
         21   -1    0    0  503  502  0.00000000000E+00  0.00000000000E+00  0.23579210662E+03  0.23579210662E+03  0.00000000000E+00 0.  1.
         21   -1    0    0  501  503 -0.00000000000E+00 -0.00000000000E+00 -0.23896774212E+01  0.23896774212E+01  0.00000000000E+00 0.  1.
          5    1    1    2  501    0 -0.22841904152E+02  0.43398490087E+01  0.14069916612E+03  0.14260730074E+03  0.00000000000E+00 0.  1.
         -5    1    1    2    0  502  0.22841904152E+02 -0.43398490087E+01  0.92703263074E+02  0.95574483307E+02  0.00000000000E+00 0. -1.
<mgrwt>
<rscale>  2 0.23250524E+02</rscale>
<asrwt>0</asrwt>
<pdfrwt beam="1">  1       21 0.36275690E-01 0.23250524E+02</pdfrwt>
<pdfrwt beam="2">  1       21 0.36764287E-03 0.23250524E+02</pdfrwt>
<totfact> 0.93275250E+07</totfact>
</mgrwt>
</event>
<event>
 4    1  0.7119201E+004  0.2023895E+02  0.7546771E-02  0.1740618E+00
         21   -1    0    0  501  502  0.00000000000E+00  0.00000000000E+00  0.21910745064E+01  0.21910745064E+01  0.00000000000E+00 0.  1.
         21   -1    0    0  502  503 -0.00000000000E+00 -0.00000000000E+00 -0.20009872533E+03  0.20009872533E+03  0.00000000000E+00 0.  1.
          4    1    1    2  501    0 -0.52935860107E+01 -0.19534408716E+02 -0.12488429594E+03  0.12651364570E+03  0.00000000000E+00 0. -1.
         -4    1    1    2    0  503  0.52935860107E+01  0.19534408716E+02 -0.73023354884E+02  0.75776154133E+02  0.00000000000E+00 0.  1.
<mgrwt>
<rscale>  2 0.20238952E+02</rscale>
<asrwt>0</asrwt>
<pdfrwt beam="1">  1       21 0.33708833E-03 0.20238952E+02</pdfrwt>
<pdfrwt beam="2">  1       21 0.30784424E-01 0.20238952E+02</pdfrwt>
<totfact> 0.13774299E+08</totfact>
</mgrwt>
</event>
<event>
 4    1  0.7119201E+004  0.2107572E+02  0.7546771E-02  0.1724745E+00
         21   -1    0    0  503  502  0.00000000000E+00  0.00000000000E+00  0.15635456741E+03  0.15635456741E+03  0.00000000000E+00 0. -1.
         21   -1    0    0  501  503 -0.00000000000E+00 -0.00000000000E+00 -0.51178253899E+01  0.51178253899E+01  0.00000000000E+00 0. -1.
          5    1    1    2  501    0  0.10656486306E+02 -0.18183107760E+02  0.21766484960E+02  0.30297953325E+02  0.00000000000E+00 0.  1.
         -5    1    1    2    0  502 -0.10656486306E+02  0.18183107760E+02  0.12947025706E+03  0.13117443947E+03  0.00000000000E+00 0. -1.
<mgrwt>
<rscale>  2 0.21075723E+02</rscale>
<asrwt>0</asrwt>
<pdfrwt beam="1">  1       21 0.24054545E-01 0.21075723E+02</pdfrwt>
<pdfrwt beam="2">  1       21 0.78735787E-03 0.21075723E+02</pdfrwt>
<totfact> 0.62228636E+07</totfact>
</mgrwt>
</event>
<event>
 4    1  0.7119201E+004  0.8262640E+02  0.7546771E-02  0.1321759E+00
         21   -1    0    0  503  502  0.00000000000E+00  0.00000000000E+00  0.21294269890E+03  0.21294269890E+03  0.00000000000E+00 0.  1.
         21   -1    0    0  501  503 -0.00000000000E+00 -0.00000000000E+00 -0.32249173212E+02  0.32249173212E+02  0.00000000000E+00 0.  1.
          3    1    1    2  501    0  0.76387414145E+02 -0.31497374742E+02  0.80978026599E+02  0.11569166974E+03  0.00000000000E+00 0. -1.
         -3    1    1    2    0  502 -0.76387414145E+02  0.31497374742E+02  0.99715499085E+02  0.12950020237E+03  0.00000000000E+00 0.  1.
<mgrwt>
<rscale>  2 0.82626398E+02</rscale>
<asrwt>0</asrwt>
<pdfrwt beam="1">  1       21 0.32760414E-01 0.82626398E+02</pdfrwt>
<pdfrwt beam="2">  1       21 0.49614114E-02 0.82626398E+02</pdfrwt>
<totfact> 0.23867136E+06</totfact>
</mgrwt>
</event>
<event>
 4    1  0.7119201E+004  0.4107070E+02  0.7546771E-02  0.1500477E+00
         21   -1    0    0  503  502  0.00000000000E+00  0.00000000000E+00  0.37126703433E+03  0.37126703433E+03  0.00000000000E+00 0.  1.
         21   -1    0    0  501  503 -0.00000000000E+00 -0.00000000000E+00 -0.47293146506E+01  0.47293146506E+01  0.00000000000E+00 0.  1.
          3    1    1    2  501    0  0.35756595666E+01 -0.40914756076E+02  0.22054656780E+03  0.22433811797E+03  0.00000000000E+00 0.  1.
         -3    1    1    2    0  502 -0.35756595666E+01  0.40914756076E+02  0.14599115188E+03  0.15165823101E+03  0.00000000000E+00 0. -1.
<mgrwt>
<rscale>  2 0.41070703E+02</rscale>
<asrwt>0</asrwt>
<pdfrwt beam="1">  1       21 0.57117982E-01 0.41070703E+02</pdfrwt>
<pdfrwt beam="2">  1       21 0.72758717E-03 0.41070703E+02</pdfrwt>
<totfact> 0.15589056E+07</totfact>
</mgrwt>
</event>
<event>
 4    1  0.7119201E+004  0.2157195E+02  0.7546771E-02  0.1715762E+00
         21   -1    0    0  501  502  0.00000000000E+00  0.00000000000E+00  0.37561587373E+00  0.37561587373E+00  0.00000000000E+00 0.  1.
         21   -1    0    0  502  503 -0.00000000000E+00 -0.00000000000E+00 -0.14487100960E+04  0.14487100960E+04  0.00000000000E+00 0.  1.
          4    1    1    2  501    0  0.15787421960E+02 -0.14700553486E+02 -0.44843295334E+03  0.44895151477E+03  0.00000000000E+00 0.  1.
         -4    1    1    2    0  503 -0.15787421960E+02  0.14700553486E+02 -0.99990152678E+03  0.10001341971E+04  0.00000000000E+00 0. -1.
<mgrwt>
<rscale>  2 0.21571949E+02</rscale>
<asrwt>0</asrwt>
<pdfrwt beam="1">  1       21 0.57786997E-04 0.21571949E+02</pdfrwt>
<pdfrwt beam="2">  1       21 0.22287871E+00 0.21571949E+02</pdfrwt>
<totfact> 0.25219791E+07</totfact>
</mgrwt>
</event>
<event>
 4    1  0.7119201E+004  0.2597999E+02  0.7546771E-02  0.1647312E+00
         21   -1    0    0  503  502  0.00000000000E+00  0.00000000000E+00  0.26320649209E+02  0.26320649209E+02  0.00000000000E+00 0.  1.
         21   -1    0    0  501  503 -0.00000000000E+00 -0.00000000000E+00 -0.29551172347E+02  0.29551172347E+02  0.00000000000E+00 0.  1.
          4    1    1    2  501    0  0.25946856292E+02 -0.13117240673E+01 -0.11773561432E+02  0.28523266297E+02  0.00000000000E+00 0. -1.
         -4    1    1    2    0  502 -0.25946856292E+02  0.13117240673E+01  0.85430382949E+01  0.27348555259E+02  0.00000000000E+00 0.  1.
<mgrwt>
<rscale>  2 0.25979992E+02</rscale>
<asrwt>0</asrwt>
<pdfrwt beam="1">  1       21 0.40493306E-02 0.25979992E+02</pdfrwt>
<pdfrwt beam="2">  1       21 0.45463342E-02 0.25979992E+02</pdfrwt>
<totfact> 0.86112949E+07</totfact>
</mgrwt>
</event>
<event>
 4    1  0.7119201E+004  0.2686672E+02  0.7546771E-02  0.1635552E+00
         21   -1    0    0  501  502  0.00000000000E+00  0.00000000000E+00  0.25575953279E+02  0.25575953279E+02  0.00000000000E+00 0. -1.
         21   -1    0    0  502  503 -0.00000000000E+00 -0.00000000000E+00 -0.30894678930E+02  0.30894678930E+02  0.00000000000E+00 0. -1.
          1    1    1    2  501    0  0.12914053376E+02  0.23559451108E+02  0.56443726847E+01  0.27453223018E+02  0.00000000000E+00 0. -1.
         -1    1    1    2    0  503 -0.12914053376E+02 -0.23559451108E+02 -0.10963098336E+02  0.29017409192E+02  0.00000000000E+00 0.  1.
<mgrwt>
<rscale>  2 0.26866718E+02</rscale>
<asrwt>0</asrwt>
<pdfrwt beam="1">  1       21 0.39347621E-02 0.26866718E+02</pdfrwt>
<pdfrwt beam="2">  1       21 0.47530275E-02 0.26866718E+02</pdfrwt>
<totfact> 0.84677442E+07</totfact>
</mgrwt>
</event>
<event>
 4    1  0.7119201E+004  0.2215139E+02  0.7546771E-02  0.1705647E+00
         21   -1    0    0  501  502  0.00000000000E+00  0.00000000000E+00  0.47521333870E+01  0.47521333870E+01  0.00000000000E+00 0.  1.
         21   -1    0    0  502  503 -0.00000000000E+00 -0.00000000000E+00 -0.13448371998E+03  0.13448371998E+03  0.00000000000E+00 0.  1.
          2    1    1    2  501    0  0.10792038060E+02  0.19344659116E+02 -0.98413267260E+02  0.10087544347E+03  0.00000000000E+00 0.  1.
         -2    1    1    2    0  503 -0.10792038060E+02 -0.19344659116E+02 -0.31318319329E+02  0.38360409897E+02  0.00000000000E+00 0. -1.
<mgrwt>
<rscale>  2 0.22151386E+02</rscale>
<asrwt>0</asrwt>
<pdfrwt beam="1">  1       21 0.73109755E-03 0.22151386E+02</pdfrwt>
<pdfrwt beam="2">  1       21 0.20689800E-01 0.22151386E+02</pdfrwt>
<totfact> 0.91781423E+07</totfact>
</mgrwt>
</event>
<event>
 4    1  0.7119201E+004  0.3294373E+02  0.7546771E-02  0.1567658E+00
         21   -1    0    0  501  502  0.00000000000E+00  0.00000000000E+00  0.17565227610E+01  0.17565227610E+01  0.00000000000E+00 0. -1.
         21   -1    0    0  502  503 -0.00000000000E+00 -0.00000000000E+00 -0.72838578659E+03  0.72838578659E+03  0.00000000000E+00 0. -1.
          2    1    1    2  501    0  0.32853474521E+02 -0.24368898414E+01 -0.50552263771E+03  0.50659493331E+03  0.00000000000E+00 0.  1.
         -2    1    1    2    0  503 -0.32853474521E+02  0.24368898414E+01 -0.22110662613E+03  0.22354737605E+03  0.00000000000E+00 0. -1.
<mgrwt>
<rscale>  2 0.32943728E+02</rscale>
<asrwt>0</asrwt>
<pdfrwt beam="1">  1       21 0.27023479E-03 0.32943728E+02</pdfrwt>
<pdfrwt beam="2">  1       21 0.11205914E+00 0.32943728E+02</pdfrwt>
<totfact> 0.15637544E+07</totfact>
</mgrwt>
</event>
<event>
 4    1  0.7119201E+004  0.2336578E+02  0.7546771E-02  0.1685649E+00
         21   -1    0    0  501  502  0.00000000000E+00  0.00000000000E+00  0.12357300062E+03  0.12357300062E+03  0.00000000000E+00 0. -1.
         21   -1    0    0  502  503 -0.00000000000E+00 -0.00000000000E+00 -0.51192456903E+01  0.51192456903E+01  0.00000000000E+00 0. -1.
          2    1    1    2  501    0  0.17506949684E+02 -0.15474704333E+02  0.83040134700E+02  0.86264846447E+02  0.00000000000E+00 0. -1.
         -2    1    1    2    0  503 -0.17506949684E+02  0.15474704333E+02  0.35413620230E+02  0.42427399864E+02  0.00000000000E+00 0.  1.
<mgrwt>
<rscale>  2 0.23365782E+02</rscale>
<asrwt>0</asrwt>
<pdfrwt beam="1">  1       21 0.19011229E-01 0.23365782E+02</pdfrwt>
<pdfrwt beam="2">  1       21 0.78757635E-03 0.23365782E+02</pdfrwt>
<totfact> 0.96609311E+07</totfact>
</mgrwt>
</event>
<event>
 4    1  0.7119201E+004  0.2222616E+02  0.7546771E-02  0.1704370E+00
         21   -1    0    0  503  502  0.00000000000E+00  0.00000000000E+00  0.31110556962E+03  0.31110556962E+03  0.00000000000E+00 0. -1.
         21   -1    0    0  501  503 -0.00000000000E+00 -0.00000000000E+00 -0.18348225257E+01  0.18348225257E+01  0.00000000000E+00 0. -1.
          3    1    1    2  501    0  0.49729864490E+01 -0.21662676539E+02  0.21203666875E+03  0.21319838424E+03  0.00000000000E+00 0.  1.
         -3    1    1    2    0  502 -0.49729864490E+01  0.21662676539E+02  0.97234078341E+02  0.99742007899E+02  0.00000000000E+00 0. -1.
<mgrwt>
<rscale>  2 0.22226159E+02</rscale>
<asrwt>0</asrwt>
<pdfrwt beam="1">  1       21 0.47862353E-01 0.22226159E+02</pdfrwt>
<pdfrwt beam="2">  1       21 0.28228064E-03 0.22226159E+02</pdfrwt>
<totfact> 0.80185857E+07</totfact>
</mgrwt>
</event>
<event>
 4    1  0.7119201E+004  0.2132166E+02  0.7546771E-02  0.1720255E+00
         21   -1    0    0  501  502  0.00000000000E+00  0.00000000000E+00  0.11986431340E+02  0.11986431340E+02  0.00000000000E+00 0. -1.
         21   -1    0    0  502  503 -0.00000000000E+00 -0.00000000000E+00 -0.50980299090E+02  0.50980299090E+02  0.00000000000E+00 0. -1.
          5    1    1    2  501    0  0.33636138289E+01  0.21054674536E+02 -0.35427630892E+02  0.41348884488E+02  0.00000000000E+00 0. -1.
         -5    1    1    2    0  503 -0.33636138289E+01 -0.21054674536E+02 -0.35662368580E+01  0.21617845942E+02  0.00000000000E+00 0.  1.
<mgrwt>
<rscale>  2 0.21321661E+02</rscale>
<asrwt>0</asrwt>
<pdfrwt beam="1">  1       21 0.18440664E-02 0.21321661E+02</pdfrwt>
<pdfrwt beam="2">  1       21 0.78431229E-02 0.21321661E+02</pdfrwt>
<totfact> 0.11505316E+08</totfact>
</mgrwt>
</event>
<event>
 4    1  0.7119201E+004  0.2147904E+02  0.7546771E-02  0.1717421E+00
         21   -1    0    0  503  502  0.00000000000E+00  0.00000000000E+00  0.18999852262E+01  0.18999852262E+01  0.00000000000E+00 0.  1.
         21   -1    0    0  501  503 -0.00000000000E+00 -0.00000000000E+00 -0.39546149447E+03  0.39546149447E+03  0.00000000000E+00 0.  1.
          1    1    1    2  501    0  0.12831158890E+02 -0.17225288549E+02 -0.73344177164E+02  0.76424587195E+02  0.00000000000E+00 0.  1.
         -1    1    1    2    0  502 -0.12831158890E+02  0.17225288549E+02 -0.32021733208E+03  0.32093689250E+03  0.00000000000E+00 0. -1.
<mgrwt>
<rscale>  2 0.21479041E+02</rscale>
<asrwt>0</asrwt>
<pdfrwt beam="1">  1       21 0.29230481E-03 0.21479041E+02</pdfrwt>
<pdfrwt beam="2">  1       21 0.60840357E-01 0.21479041E+02</pdfrwt>
<totfact> 0.47205195E+07</totfact>
</mgrwt>
</event>
<event>
 4    1  0.7119201E+004  0.2522771E+02  0.7546771E-02  0.1657753E+00
         21   -1    0    0  501  502  0.00000000000E+00  0.00000000000E+00  0.66657443911E+01  0.66657443911E+01  0.00000000000E+00 0.  1.
         21   -1    0    0  502  503 -0.00000000000E+00 -0.00000000000E+00 -0.95901188387E+02  0.95901188387E+02  0.00000000000E+00 0.  1.
          2    1    1    2  501    0  0.10420286053E+02  0.22975099658E+02 -0.41214431791E+02  0.48322530496E+02  0.00000000000E+00 0. -1.
         -2    1    1    2    0  503 -0.10420286053E+02 -0.22975099658E+02 -0.48021012204E+02  0.54244402281E+02  0.00000000000E+00 0.  1.
<mgrwt>
<rscale>  2 0.25227714E+02</rscale>
<asrwt>0</asrwt>
<pdfrwt beam="1">  1       21 0.10254992E-02 0.25227714E+02</pdfrwt>
<pdfrwt beam="2">  1       21 0.14754029E-01 0.25227714E+02</pdfrwt>
<totfact> 0.10269627E+08</totfact>
</mgrwt>
</event>
<event>
 4    1  0.7119201E+004  0.2206536E+02  0.7546771E-02  0.1707124E+00
         21   -1    0    0  503  502  0.00000000000E+00  0.00000000000E+00  0.16411832901E+04  0.16411832901E+04  0.00000000000E+00 0. -1.
         21   -1    0    0  501  503 -0.00000000000E+00 -0.00000000000E+00 -0.30513286032E+00  0.30513286032E+00  0.00000000000E+00 0. -1.
          3    1    1    2  501    0  0.21660731940E+02 -0.42062556343E+01  0.95717337588E+03  0.95742767424E+03  0.00000000000E+00 0. -1.
         -3    1    1    2    0  502 -0.21660731940E+02  0.42062556343E+01  0.68370478133E+03  0.68406074870E+03  0.00000000000E+00 0.  1.
<mgrwt>
<rscale>  2 0.22065355E+02</rscale>
<asrwt>0</asrwt>
<pdfrwt beam="1">  1       21 0.25248267E+00 0.22065355E+02</pdfrwt>
<pdfrwt beam="2">  1       21 0.46944831E-04 0.22065355E+02</pdfrwt>
<totfact> 0.24015992E+07</totfact>
</mgrwt>
</event>
<event>
 4    1  0.7119201E+004  0.5668106E+02  0.7546771E-02  0.1412312E+00
         21   -1    0    0  501  502  0.00000000000E+00  0.00000000000E+00  0.33561872488E+03  0.33561872488E+03  0.00000000000E+00 0.  1.
         21   -1    0    0  502  503 -0.00000000000E+00 -0.00000000000E+00 -0.95726398208E+01  0.95726398208E+01  0.00000000000E+00 0.  1.
          5    1    1    2  501    0 -0.56649891805E+02  0.18794417097E+01  0.16265476134E+03  0.17224782707E+03  0.00000000000E+00 0.  1.
         -5    1    1    2    0  503  0.56649891805E+02 -0.18794417097E+01  0.16339132372E+03  0.17294353764E+03  0.00000000000E+00 0. -1.
<mgrwt>
<rscale>  2 0.56681060E+02</rscale>
<asrwt>0</asrwt>
<pdfrwt beam="1">  1       21 0.51633641E-01 0.56681060E+02</pdfrwt>
<pdfrwt beam="2">  1       21 0.14727141E-02 0.56681060E+02</pdfrwt>
<totfact> 0.66952485E+06</totfact>
</mgrwt>
</event>
<event>
 4    1  0.7119201E+004  0.7464695E+02  0.7546771E-02  0.1344968E+00
         21   -1    0    0  503  502  0.00000000000E+00  0.00000000000E+00  0.44194206553E+02  0.44194206553E+02  0.00000000000E+00 0.  1.
         21   -1    0    0  501  503 -0.00000000000E+00 -0.00000000000E+00 -0.13145751973E+03  0.13145751973E+03  0.00000000000E+00 0.  1.
          5    1    1    2  501    0 -0.70719365692E+02 -0.23894328826E+02 -0.25874534552E+02  0.79004171866E+02  0.00000000000E+00 0. -1.
         -5    1    1    2    0  502  0.70719365692E+02  0.23894328826E+02 -0.61388778626E+02  0.96647554419E+02  0.00000000000E+00 0.  1.
<mgrwt>
<rscale>  2 0.74646953E+02</rscale>
<asrwt>0</asrwt>
<pdfrwt beam="1">  1       21 0.67991087E-02 0.74646953E+02</pdfrwt>
<pdfrwt beam="2">  1       21 0.20224234E-01 0.74646953E+02</pdfrwt>
<totfact> 0.34568586E+06</totfact>
</mgrwt>
</event>
<event>
 4    1  0.7119201E+004  0.2391335E+02  0.7546771E-02  0.1677119E+00
         21   -1    0    0  501  502  0.00000000000E+00  0.00000000000E+00  0.26393317776E+02  0.26393317776E+02  0.00000000000E+00 0.  1.
         21   -1    0    0  502  503 -0.00000000000E+00 -0.00000000000E+00 -0.22442587639E+02  0.22442587639E+02  0.00000000000E+00 0.  1.
          1    1    1    2  501    0 -0.15552572330E+02  0.18164957737E+02 -0.25656817682E+01  0.24050590816E+02  0.00000000000E+00 0. -1.
         -1    1    1    2    0  503  0.15552572330E+02 -0.18164957737E+02  0.65164119047E+01  0.24785314599E+02  0.00000000000E+00 0.  1.
<mgrwt>
<rscale>  2 0.23913348E+02</rscale>
<asrwt>0</asrwt>
<pdfrwt beam="1">  1       21 0.40605104E-02 0.23913348E+02</pdfrwt>
<pdfrwt beam="2">  1       21 0.34527058E-02 0.23913348E+02</pdfrwt>
<totfact> 0.12947186E+08</totfact>
</mgrwt>
</event>
<event>
 4    1  0.7119201E+004  0.2146755E+02  0.7546771E-02  0.1717627E+00
         21   -1    0    0  501  502  0.00000000000E+00  0.00000000000E+00  0.10085994614E+02  0.10085994614E+02  0.00000000000E+00 0. -1.
         21   -1    0    0  502  503 -0.00000000000E+00 -0.00000000000E+00 -0.46430823388E+02  0.46430823388E+02  0.00000000000E+00 0. -1.
          1    1    1    2  501    0  0.64630526182E+00  0.21457817170E+02 -0.14609303371E+02  0.25967043982E+02  0.00000000000E+00 0. -1.
         -1    1    1    2    0  503 -0.64630526182E+00 -0.21457817170E+02 -0.21735525403E+02  0.30549774021E+02  0.00000000000E+00 0.  1.
<mgrwt>
<rscale>  2 0.21467548E+02</rscale>
<asrwt>0</asrwt>
<pdfrwt beam="1">  1       21 0.15516915E-02 0.21467548E+02</pdfrwt>
<pdfrwt beam="2">  1       21 0.71432035E-02 0.21467548E+02</pdfrwt>
<totfact> 0.17445367E+08</totfact>
</mgrwt>
</event>
<event>
 4    1  0.7119201E+004  0.2996346E+02  0.7546771E-02  0.1598493E+00
         21   -1    0    0  501  502  0.00000000000E+00  0.00000000000E+00  0.55703877384E+01  0.55703877384E+01  0.00000000000E+00 0. -1.
         21   -1    0    0  502  503 -0.00000000000E+00 -0.00000000000E+00 -0.20668969333E+03  0.20668969333E+03  0.00000000000E+00 0. -1.
          3    1    1    2  501    0 -0.25506059442E+02 -0.15724184411E+02 -0.15036238722E+03  0.15331880685E+03  0.00000000000E+00 0.  1.
         -3    1    1    2    0  503  0.25506059442E+02  0.15724184411E+02 -0.50756918363E+02  0.58941274209E+02  0.00000000000E+00 0. -1.
<mgrwt>
<rscale>  2 0.29963462E+02</rscale>
<asrwt>0</asrwt>
<pdfrwt beam="1">  1       21 0.85698272E-03 0.29963462E+02</pdfrwt>
<pdfrwt beam="2">  1       21 0.31798415E-01 0.29963462E+02</pdfrwt>
<totfact> 0.35889702E+07</totfact>
</mgrwt>
</event>
<event>
 4    1  0.7119201E+004  0.2235581E+02  0.7546771E-02  0.1702170E+00
         21   -1    0    0  501  502  0.00000000000E+00  0.00000000000E+00  0.93002439436E+01  0.93002439436E+01  0.00000000000E+00 0. -1.
         21   -1    0    0  502  503 -0.00000000000E+00 -0.00000000000E+00 -0.90156854423E+02  0.90156854423E+02  0.00000000000E+00 0. -1.
          2    1    1    2  501    0  0.74737884151E+01 -0.21069516557E+02 -0.72034048446E+02  0.75423379510E+02  0.00000000000E+00 0. -1.
         -2    1    1    2    0  503 -0.74737884151E+01  0.21069516557E+02 -0.88225620337E+01  0.24033718856E+02  0.00000000000E+00 0.  1.
<mgrwt>
<rscale>  2 0.22355806E+02</rscale>
<asrwt>0</asrwt>
<pdfrwt beam="1">  1       21 0.14308068E-02 0.22355806E+02</pdfrwt>
<pdfrwt beam="2">  1       21 0.13870285E-01 0.22355806E+02</pdfrwt>
<totfact> 0.66734305E+07</totfact>
</mgrwt>
</event>
<event>
 4    1  0.7119201E+004  0.2482437E+02  0.7546771E-02  0.1663537E+00
         21   -1    0    0  501  502  0.00000000000E+00  0.00000000000E+00  0.51104923150E+02  0.51104923150E+02  0.00000000000E+00 0. -1.
         21   -1    0    0  502  503 -0.00000000000E+00 -0.00000000000E+00 -0.12691950433E+02  0.12691950433E+02  0.00000000000E+00 0. -1.
          5    1    1    2  501    0  0.10096568011E+02 -0.22678377512E+02  0.12080313909E+02  0.27607670607E+02  0.00000000000E+00 0. -1.
         -5    1    1    2    0  503 -0.10096568011E+02  0.22678377512E+02  0.26332658807E+02  0.36189202976E+02  0.00000000000E+00 0.  1.
<mgrwt>
<rscale>  2 0.24824373E+02</rscale>
<asrwt>0</asrwt>
<pdfrwt beam="1">  1       21 0.78622958E-02 0.24824373E+02</pdfrwt>
<pdfrwt beam="2">  1       21 0.19526078E-02 0.24824373E+02</pdfrwt>
<totfact> 0.10970736E+08</totfact>
</mgrwt>
</event>
<event>
 4    1  0.7119201E+004  0.2103478E+02  0.7546771E-02  0.1725500E+00
         21   -1    0    0  503  502  0.00000000000E+00  0.00000000000E+00  0.12016159889E+04  0.12016159889E+04  0.00000000000E+00 0.  1.
         21   -1    0    0  501  503 -0.00000000000E+00 -0.00000000000E+00 -0.37036935864E+00  0.37036935864E+00  0.00000000000E+00 0.  1.
          5    1    1    2  501    0 -0.19980972465E+02 -0.65743949374E+01  0.64638042090E+03  0.64672259157E+03  0.00000000000E+00 0.  1.
         -5    1    1    2    0  502  0.19980972465E+02  0.65743949374E+01  0.55486519865E+03  0.55526376669E+03  0.00000000000E+00 0. -1.
<mgrwt>
<rscale>  2 0.21034779E+02</rscale>
<asrwt>0</asrwt>
<pdfrwt beam="1">  1       21 0.18486088E+00 0.21034779E+02</pdfrwt>
<pdfrwt beam="2">  1       21 0.56980863E-04 0.21034779E+02</pdfrwt>
<totfact> 0.41462686E+07</totfact>
</mgrwt>
</event>
<event>
 4    1  0.7119201E+004  0.2612922E+02  0.7546771E-02  0.1645293E+00
         21   -1    0    0  501  502  0.00000000000E+00  0.00000000000E+00  0.29785820884E+03  0.29785820884E+03  0.00000000000E+00 0. -1.
         21   -1    0    0  502  503 -0.00000000000E+00 -0.00000000000E+00 -0.22950585151E+01  0.22950585151E+01  0.00000000000E+00 0. -1.
          3    1    1    2  501    0 -0.18325614323E+02  0.18625464122E+02  0.15312305317E+03  0.15533642672E+03  0.00000000000E+00 0. -1.
         -3    1    1    2    0  503  0.18325614323E+02 -0.18625464122E+02  0.14244009716E+03  0.14481684064E+03  0.00000000000E+00 0.  1.
<mgrwt>
<rscale>  2 0.26129218E+02</rscale>
<asrwt>0</asrwt>
<pdfrwt beam="1">  1       21 0.45824309E-01 0.26129218E+02</pdfrwt>
<pdfrwt beam="2">  1       21 0.35308616E-03 0.26129218E+02</pdfrwt>
<totfact> 0.65394701E+07</totfact>
</mgrwt>
</event>
<event>
 4    1  0.7119201E+004  0.2544584E+02  0.7546771E-02  0.1654679E+00
         21   -1    0    0  503  502  0.00000000000E+00  0.00000000000E+00  0.42430717674E+01  0.42430717674E+01  0.00000000000E+00 0. -1.
         21   -1    0    0  501  503 -0.00000000000E+00 -0.00000000000E+00 -0.16619508701E+03  0.16619508701E+03  0.00000000000E+00 0. -1.
          3    1    1    2  501    0 -0.25423261050E+02 -0.10717928205E+01 -0.10534993734E+03  0.10837942720E+03  0.00000000000E+00 0. -1.
         -3    1    1    2    0  502  0.25423261050E+02  0.10717928205E+01 -0.56602077897E+02  0.62058731573E+02  0.00000000000E+00 0.  1.
<mgrwt>
<rscale>  2 0.25445843E+02</rscale>
<asrwt>0</asrwt>
<pdfrwt beam="1">  1       21 0.65278026E-03 0.25445843E+02</pdfrwt>
<pdfrwt beam="2">  1       21 0.25568476E-01 0.25445843E+02</pdfrwt>
<totfact> 0.77442216E+07</totfact>
</mgrwt>
</event>
<event>
 4    1  0.7119201E+004  0.2200071E+02  0.7546771E-02  0.1708240E+00
         21   -1    0    0  503  502  0.00000000000E+00  0.00000000000E+00  0.93163824675E+00  0.93163824675E+00  0.00000000000E+00 0. -1.
         21   -1    0    0  501  503 -0.00000000000E+00 -0.00000000000E+00 -0.52009075765E+03  0.52009075765E+03  0.00000000000E+00 0. -1.
          1    1    1    2  501    0  0.21974835613E+02 -0.10667331048E+01 -0.26799082374E+03  0.26889238168E+03  0.00000000000E+00 0. -1.
         -1    1    1    2    0  502 -0.21974835613E+02  0.10667331048E+01 -0.25116829566E+03  0.25213001421E+03  0.00000000000E+00 0.  1.
<mgrwt>
<rscale>  2 0.22000712E+02</rscale>
<asrwt>0</asrwt>
<pdfrwt beam="1">  1       21 0.14332916E-03 0.22000712E+02</pdfrwt>
<pdfrwt beam="2">  1       21 0.80013849E-01 0.22000712E+02</pdfrwt>
<totfact> 0.75781121E+07</totfact>
</mgrwt>
</event>
<event>
 4    1  0.7119201E+004  0.3138146E+02  0.7546771E-02  0.1583302E+00
         21   -1    0    0  501  502  0.00000000000E+00  0.00000000000E+00  0.96149356180E+02  0.96149356180E+02  0.00000000000E+00 0.  1.
         21   -1    0    0  502  503 -0.00000000000E+00 -0.00000000000E+00 -0.11550371305E+02  0.11550371305E+02  0.00000000000E+00 0.  1.
          4    1    1    2  501    0  0.22112902256E+02 -0.22266914967E+02  0.60420945816E+02  0.68084408213E+02  0.00000000000E+00 0.  1.
         -4    1    1    2    0  503 -0.22112902256E+02  0.22266914967E+02  0.24178039058E+02  0.39615319272E+02  0.00000000000E+00 0. -1.
<mgrwt>
<rscale>  2 0.31381459E+02</rscale>
<asrwt>0</asrwt>
<pdfrwt beam="1">  1       21 0.14792208E-01 0.31381459E+02</pdfrwt>
<pdfrwt beam="2">  1       21 0.17769803E-02 0.31381459E+02</pdfrwt>
<totfact> 0.46532580E+07</totfact>
</mgrwt>
</event>
<event>
 4    1  0.7119201E+004  0.2192802E+02  0.7546771E-02  0.1709500E+00
         21   -1    0    0  501  502  0.00000000000E+00  0.00000000000E+00  0.22124280675E+02  0.22124280675E+02  0.00000000000E+00 0. -1.
         21   -1    0    0  502  503 -0.00000000000E+00 -0.00000000000E+00 -0.29532122197E+02  0.29532122197E+02  0.00000000000E+00 0. -1.
          1    1    1    2  501    0 -0.21845737834E+02  0.18978475235E+01 -0.16976512508E+02  0.27731571605E+02  0.00000000000E+00 0.  1.
         -1    1    1    2    0  503  0.21845737834E+02 -0.18978475235E+01  0.95686709852E+01  0.23924831267E+02  0.00000000000E+00 0. -1.
<mgrwt>
<rscale>  2 0.21928021E+02</rscale>
<asrwt>0</asrwt>
<pdfrwt beam="1">  1       21 0.34037355E-02 0.21928021E+02</pdfrwt>
<pdfrwt beam="2">  1       21 0.45434034E-02 0.21928021E+02</pdfrwt>
<totfact> 0.10804984E+08</totfact>
</mgrwt>
</event>
<event>
 4    1  0.7119201E+004  0.3667963E+02  0.7546771E-02  0.1534172E+00
         21   -1    0    0  503  502  0.00000000000E+00  0.00000000000E+00  0.36055203782E+03  0.36055203782E+03  0.00000000000E+00 0.  1.
         21   -1    0    0  501  503 -0.00000000000E+00 -0.00000000000E+00 -0.38463195875E+01  0.38463195875E+01  0.00000000000E+00 0.  1.
          3    1    1    2  501    0  0.69474347999E+00  0.36673053124E+02  0.14687139041E+03  0.15138230020E+03  0.00000000000E+00 0. -1.
         -3    1    1    2    0  502 -0.69474347999E+00 -0.36673053124E+02  0.20983432783E+03  0.21301605721E+03  0.00000000000E+00 0.  1.
<mgrwt>
<rscale>  2 0.36679633E+02</rscale>
<asrwt>0</asrwt>
<pdfrwt beam="1">  1       21 0.55469517E-01 0.36679633E+02</pdfrwt>
<pdfrwt beam="2">  1       21 0.59174176E-03 0.36679633E+02</pdfrwt>
<totfact> 0.22230645E+07</totfact>
</mgrwt>
</event>
<event>
 4    1  0.7119201E+004  0.5547279E+02  0.7546771E-02  0.1417876E+00
         21   -1    0    0  503  502  0.00000000000E+00  0.00000000000E+00  0.40804443645E+02  0.40804443645E+02  0.00000000000E+00 0. -1.
         21   -1    0    0  501  503 -0.00000000000E+00 -0.00000000000E+00 -0.78055192366E+02  0.78055192366E+02  0.00000000000E+00 0. -1.
          1    1    1    2  501    0  0.30459300175E+02 -0.46362290710E+02 -0.76935123686E+01  0.56003759691E+02  0.00000000000E+00 0.  1.
         -1    1    1    2    0  502 -0.30459300175E+02  0.46362290710E+02 -0.29557236353E+02  0.62855876319E+02  0.00000000000E+00 0. -1.
<mgrwt>
<rscale>  2 0.55472795E+02</rscale>
<asrwt>0</asrwt>
<pdfrwt beam="1">  1       21 0.62776067E-02 0.55472795E+02</pdfrwt>
<pdfrwt beam="2">  1       21 0.12008491E-01 0.55472795E+02</pdfrwt>
<totfact> 0.97049165E+06</totfact>
</mgrwt>
</event>
<event>
 4    1  0.7119201E+004  0.2788067E+02  0.7546771E-02  0.1622770E+00
         21   -1    0    0  503  502  0.00000000000E+00  0.00000000000E+00  0.52672651714E+03  0.52672651714E+03  0.00000000000E+00 0. -1.
         21   -1    0    0  501  503 -0.00000000000E+00 -0.00000000000E+00 -0.14809963796E+01  0.14809963796E+01  0.00000000000E+00 0. -1.
          5    1    1    2  501    0 -0.14482977794E+02 -0.23823835731E+02  0.24694678012E+03  0.24851568161E+03  0.00000000000E+00 0.  1.
         -5    1    1    2    0  502  0.14482977794E+02  0.23823835731E+02  0.27829874064E+03  0.27969183191E+03  0.00000000000E+00 0. -1.
<mgrwt>
<rscale>  2 0.27880671E+02</rscale>
<asrwt>0</asrwt>
<pdfrwt beam="1">  1       21 0.81034699E-01 0.27880671E+02</pdfrwt>
<pdfrwt beam="2">  1       21 0.22784602E-03 0.27880671E+02</pdfrwt>
<totfact> 0.39777910E+07</totfact>
</mgrwt>
</event>
<event>
 4    1  0.7119201E+004  0.2015317E+02  0.7546771E-02  0.1742299E+00
         21   -1    0    0  503  502  0.00000000000E+00  0.00000000000E+00  0.21219851866E+03  0.21219851866E+03  0.00000000000E+00 0.  1.
         21   -1    0    0  501  503 -0.00000000000E+00 -0.00000000000E+00 -0.21975811685E+01  0.21975811685E+01  0.00000000000E+00 0.  1.
          3    1    1    2  501    0 -0.49844226273E+00 -0.20147007882E+02  0.66493047845E+02  0.69480038738E+02  0.00000000000E+00 0.  1.
         -3    1    1    2    0  502  0.49844226273E+00  0.20147007882E+02  0.14350788964E+03  0.14491606109E+03  0.00000000000E+00 0. -1.
<mgrwt>
<rscale>  2 0.20153173E+02</rscale>
<asrwt>0</asrwt>
<pdfrwt beam="1">  1       21 0.32645910E-01 0.20153173E+02</pdfrwt>
<pdfrwt beam="2">  1       21 0.33808958E-03 0.20153173E+02</pdfrwt>
<totfact> 0.12309296E+08</totfact>
</mgrwt>
</event>
<event>
 4    1  0.7119201E+004  0.3877760E+02  0.7546771E-02  0.1517405E+00
         21   -1    0    0  503  502  0.00000000000E+00  0.00000000000E+00  0.30103993890E+02  0.30103993890E+02  0.00000000000E+00 0. -1.
         21   -1    0    0  501  503 -0.00000000000E+00 -0.00000000000E+00 -0.68834485797E+02  0.68834485797E+02  0.00000000000E+00 0. -1.
          5    1    1    2  501    0 -0.29521711199E+02  0.25143012149E+02  0.65456080929E+01  0.39326167845E+02  0.00000000000E+00 0. -1.
         -5    1    1    2    0  502  0.29521711199E+02 -0.25143012149E+02 -0.45276099999E+02  0.59612311842E+02  0.00000000000E+00 0.  1.
<mgrwt>
<rscale>  2 0.38777603E+02</rscale>
<asrwt>0</asrwt>
<pdfrwt beam="1">  1       21 0.46313837E-02 0.38777603E+02</pdfrwt>
<pdfrwt beam="2">  1       21 0.10589921E-01 0.38777603E+02</pdfrwt>
<totfact> 0.18871245E+07</totfact>
</mgrwt>
</event>
<event>
 4    1  0.7119201E+004  0.4517913E+02  0.7546771E-02  0.1473226E+00
         21   -1    0    0  503  502  0.00000000000E+00  0.00000000000E+00  0.23925008995E+02  0.23925008995E+02  0.00000000000E+00 0. -1.
         21   -1    0    0  501  503 -0.00000000000E+00 -0.00000000000E+00 -0.88329906171E+02  0.88329906171E+02  0.00000000000E+00 0. -1.
          2    1    1    2  501    0  0.12253773689E+02 -0.43485620248E+02 -0.42572537538E+02  0.62077170444E+02  0.00000000000E+00 0. -1.
         -2    1    1    2    0  502 -0.12253773689E+02  0.43485620248E+02 -0.21832359638E+02  0.50177744722E+02  0.00000000000E+00 0.  1.
<mgrwt>
<rscale>  2 0.45179134E+02</rscale>
<asrwt>0</asrwt>
<pdfrwt beam="1">  1       21 0.36807706E-02 0.45179134E+02</pdfrwt>
<pdfrwt beam="2">  1       21 0.13589216E-01 0.45179134E+02</pdfrwt>
<totfact> 0.18251201E+07</totfact>
</mgrwt>
</event>
<event>
 4    1  0.7119201E+004  0.2252586E+02  0.7546771E-02  0.1699313E+00
         21   -1    0    0  503  502  0.00000000000E+00  0.00000000000E+00  0.26667460186E+01  0.26667460186E+01  0.00000000000E+00 0. -1.
         21   -1    0    0  501  503 -0.00000000000E+00 -0.00000000000E+00 -0.19038495246E+03  0.19038495246E+03  0.00000000000E+00 0. -1.
          3    1    1    2  501    0  0.18565136582E+02 -0.12757362083E+02 -0.96180828891E+02  0.98783431960E+02  0.00000000000E+00 0.  1.
         -3    1    1    2    0  502 -0.18565136582E+02  0.12757362083E+02 -0.91537377553E+02  0.94268266521E+02  0.00000000000E+00 0. -1.
<mgrwt>
<rscale>  2 0.22525865E+02</rscale>
<asrwt>0</asrwt>
<pdfrwt beam="1">  1       21 0.41026860E-03 0.22525865E+02</pdfrwt>
<pdfrwt beam="2">  1       21 0.29289994E-01 0.22525865E+02</pdfrwt>
<totfact> 0.11663262E+08</totfact>
</mgrwt>
</event>
<event>
 4    1  0.7119201E+004  0.3758835E+02  0.7546771E-02  0.1526748E+00
         21   -1    0    0  503  502  0.00000000000E+00  0.00000000000E+00  0.43422354400E+02  0.43422354400E+02  0.00000000000E+00 0.  1.
         21   -1    0    0  501  503 -0.00000000000E+00 -0.00000000000E+00 -0.37138413936E+02  0.37138413936E+02  0.00000000000E+00 0.  1.
          1    1    1    2  501    0 -0.26241034983E+02 -0.26912680244E+02  0.17318567579E+02  0.41386194050E+02  0.00000000000E+00 0.  1.
         -1    1    1    2    0  502  0.26241034983E+02  0.26912680244E+02 -0.11034627115E+02  0.39174574286E+02  0.00000000000E+00 0. -1.
<mgrwt>
<rscale>  2 0.37588353E+02</rscale>
<asrwt>0</asrwt>
<pdfrwt beam="1">  1       21 0.66803622E-02 0.37588353E+02</pdfrwt>
<pdfrwt beam="2">  1       21 0.57136021E-02 0.37588353E+02</pdfrwt>
<totfact> 0.28794703E+07</totfact>
</mgrwt>
</event>
<event>
 4    1  0.7119201E+004  0.2159610E+02  0.7546771E-02  0.1715332E+00
         21   -1    0    0  501  502  0.00000000000E+00  0.00000000000E+00  0.12821004941E+04  0.12821004941E+04  0.00000000000E+00 0.  1.
         21   -1    0    0  502  503 -0.00000000000E+00 -0.00000000000E+00 -0.39482437303E+00  0.39482437303E+00  0.00000000000E+00 0.  1.
          2    1    1    2  501    0 -0.17495297116E+02  0.12661201557E+02  0.82068843049E+03  0.82097252779E+03  0.00000000000E+00 0. -1.
         -2    1    1    2    0  503  0.17495297116E+02 -0.12661201557E+02  0.46101723925E+03  0.46152279069E+03  0.00000000000E+00 0.  1.
<mgrwt>
<rscale>  2 0.21596098E+02</rscale>
<asrwt>0</asrwt>
<pdfrwt beam="1">  1       21 0.19724290E+00 0.21596098E+02</pdfrwt>
<pdfrwt beam="2">  1       21 0.60743238E-04 0.21596098E+02</pdfrwt>
<totfact> 0.32330292E+07</totfact>
</mgrwt>
</event>
<event>
 4    1  0.7119201E+004  0.2923344E+02  0.7546771E-02  0.1606720E+00
         21   -1    0    0  501  502  0.00000000000E+00  0.00000000000E+00  0.26805311517E+03  0.26805311517E+03  0.00000000000E+00 0. -1.
         21   -1    0    0  502  503 -0.00000000000E+00 -0.00000000000E+00 -0.33164138742E+01  0.33164138742E+01  0.00000000000E+00 0. -1.
          1    1    1    2  501    0  0.21630996579E+02 -0.19664531159E+02  0.10568457618E+03  0.10965319622E+03  0.00000000000E+00 0.  1.
         -1    1    1    2    0  503 -0.21630996579E+02  0.19664531159E+02  0.15905212511E+03  0.16171633282E+03  0.00000000000E+00 0. -1.
<mgrwt>
<rscale>  2 0.29233436E+02</rscale>
<asrwt>0</asrwt>
<pdfrwt beam="1">  1       21 0.41238924E-01 0.29233436E+02</pdfrwt>
<pdfrwt beam="2">  1       21 0.51021773E-03 0.29233436E+02</pdfrwt>
<totfact> 0.47628661E+07</totfact>
</mgrwt>
</event>
<event>
 4    1  0.7119201E+004  0.2261654E+02  0.7546771E-02  0.1697802E+00
         21   -1    0    0  503  502  0.00000000000E+00  0.00000000000E+00  0.23575755671E+02  0.23575755671E+02  0.00000000000E+00 0.  1.
         21   -1    0    0  501  503 -0.00000000000E+00 -0.00000000000E+00 -0.22427051013E+02  0.22427051013E+02  0.00000000000E+00 0.  1.
          1    1    1    2  501    0 -0.21675218572E+02  0.64569985114E+01  0.47261583293E+01  0.23105075253E+02  0.00000000000E+00 0.  1.
         -1    1    1    2    0  502  0.21675218572E+02 -0.64569985114E+01 -0.35774536719E+01  0.22897731431E+02  0.00000000000E+00 0. -1.
<mgrwt>
<rscale>  2 0.22616541E+02</rscale>
<asrwt>0</asrwt>
<pdfrwt beam="1">  1       21 0.36270393E-02 0.22616541E+02</pdfrwt>
<pdfrwt beam="2">  1       21 0.34503156E-02 0.22616541E+02</pdfrwt>
<totfact> 0.15222879E+08</totfact>
</mgrwt>
</event>
<event>
 4    1  0.7119201E+004  0.2020595E+02  0.7546771E-02  0.1741263E+00
         21   -1    0    0  501  502  0.00000000000E+00  0.00000000000E+00  0.14037291721E+02  0.14037291721E+02  0.00000000000E+00 0.  1.
         21   -1    0    0  502  503 -0.00000000000E+00 -0.00000000000E+00 -0.29423330504E+02  0.29423330504E+02  0.00000000000E+00 0.  1.
          5    1    1    2  501    0 -0.97898059768E+01  0.17675976014E+02 -0.10021782336E+02  0.22554745627E+02  0.00000000000E+00 0. -1.
         -5    1    1    2    0  503  0.97898059768E+01 -0.17675976014E+02 -0.53642564472E+01  0.20905876598E+02  0.00000000000E+00 0.  1.
<mgrwt>
<rscale>  2 0.20205950E+02</rscale>
<asrwt>0</asrwt>
<pdfrwt beam="1">  1       21 0.21595834E-02 0.20205950E+02</pdfrwt>
<pdfrwt beam="2">  1       21 0.45266662E-02 0.20205950E+02</pdfrwt>
<totfact> 0.21409195E+08</totfact>
</mgrwt>
</event>
<event>
 4    1  0.7119201E+004  0.7941613E+02  0.7546771E-02  0.1330717E+00
         21   -1    0    0  503  502  0.00000000000E+00  0.00000000000E+00  0.17012547895E+03  0.17012547895E+03  0.00000000000E+00 0. -1.
         21   -1    0    0  501  503 -0.00000000000E+00 -0.00000000000E+00 -0.38916865235E+02  0.38916865235E+02  0.00000000000E+00 0. -1.
          3    1    1    2  501    0  0.65713620557E+02 -0.44594189845E+02  0.88360360819E+02  0.11880435623E+03  0.00000000000E+00 0. -1.
         -3    1    1    2    0  502 -0.65713620557E+02  0.44594189845E+02  0.42848252898E+02  0.90237987960E+02  0.00000000000E+00 0.  1.
<mgrwt>
<rscale>  2 0.79416130E+02</rscale>
<asrwt>0</asrwt>
<pdfrwt beam="1">  1       21 0.26173150E-01 0.79416130E+02</pdfrwt>
<pdfrwt beam="2">  1       21 0.59872101E-02 0.79416130E+02</pdfrwt>
<totfact> 0.26670380E+06</totfact>
</mgrwt>
</event>
<event>
 4    1  0.7119201E+004  0.2410434E+02  0.7546771E-02  0.1674210E+00
         21   -1    0    0  503  502  0.00000000000E+00  0.00000000000E+00  0.11768285246E+02  0.11768285246E+02  0.00000000000E+00 0.  1.
         21   -1    0    0  501  503 -0.00000000000E+00 -0.00000000000E+00 -0.58071655671E+02  0.58071655671E+02  0.00000000000E+00 0.  1.
          1    1    1    2  501    0 -0.82461549081E+01 -0.22649943605E+02 -0.36667831935E+02  0.43881076957E+02  0.00000000000E+00 0. -1.
         -1    1    1    2    0  502  0.82461549081E+01  0.22649943605E+02 -0.96355384901E+01  0.25958863960E+02  0.00000000000E+00 0.  1.
<mgrwt>
<rscale>  2 0.24104336E+02</rscale>
<asrwt>0</asrwt>
<pdfrwt beam="1">  1       21 0.18105054E-02 0.24104336E+02</pdfrwt>
<pdfrwt beam="2">  1       21 0.89341009E-02 0.24104336E+02</pdfrwt>
<totfact> 0.99094226E+07</totfact>
</mgrwt>
</event>
<event>
 4    1  0.7119201E+004  0.3210133E+02  0.7546771E-02  0.1575959E+00
         21   -1    0    0  501  502  0.00000000000E+00  0.00000000000E+00  0.17526947909E+02  0.17526947909E+02  0.00000000000E+00 0. -1.
         21   -1    0    0  502  503 -0.00000000000E+00 -0.00000000000E+00 -0.60898109793E+02  0.60898109793E+02  0.00000000000E+00 0. -1.
          5    1    1    2  501    0 -0.31885718204E+02  0.37143373335E+01 -0.28972823013E+02  0.43242569310E+02  0.00000000000E+00 0.  1.
         -5    1    1    2    0  503  0.31885718204E+02 -0.37143373335E+01 -0.14398338872E+02  0.35182488392E+02  0.00000000000E+00 0. -1.
<mgrwt>
<rscale>  2 0.32101329E+02</rscale>
<asrwt>0</asrwt>
<pdfrwt beam="1">  1       21 0.26964535E-02 0.32101329E+02</pdfrwt>
<pdfrwt beam="2">  1       21 0.93689399E-02 0.32101329E+02</pdfrwt>
<totfact> 0.52957789E+07</totfact>
</mgrwt>
</event>
<event>
 4    1  0.7119201E+004  0.2459181E+02  0.7546771E-02  0.1666935E+00
         21   -1    0    0  501  502  0.00000000000E+00  0.00000000000E+00  0.11238189840E+03  0.11238189840E+03  0.00000000000E+00 0.  1.
         21   -1    0    0  502  503 -0.00000000000E+00 -0.00000000000E+00 -0.68630002802E+01  0.68630002802E+01  0.00000000000E+00 0.  1.
          1    1    1    2  501    0  0.79546672143E+01 -0.23269726439E+02  0.25055737559E+02  0.35107647082E+02  0.00000000000E+00 0.  1.
         -1    1    1    2    0  503 -0.79546672143E+01  0.23269726439E+02  0.80463160561E+02  0.84137251598E+02  0.00000000000E+00 0. -1.
<mgrwt>
<rscale>  2 0.24591806E+02</rscale>
<asrwt>0</asrwt>
<pdfrwt beam="1">  1       21 0.17289522E-01 0.24591806E+02</pdfrwt>
<pdfrwt beam="2">  1       21 0.10558463E-02 0.24591806E+02</pdfrwt>
<totfact> 0.74367890E+07</totfact>
</mgrwt>
</event>
<event>
 4    1  0.7119201E+004  0.2502394E+02  0.7546771E-02  0.1660658E+00
         21   -1    0    0  503  502  0.00000000000E+00  0.00000000000E+00  0.74745959333E+02  0.74745959333E+02  0.00000000000E+00 0.  1.
         21   -1    0    0  501  503 -0.00000000000E+00 -0.00000000000E+00 -0.85170324112E+01  0.85170324112E+01  0.00000000000E+00 0.  1.
          2    1    1    2  501    0  0.20813354588E+02  0.13892508934E+02  0.38439703305E+02  0.45867290348E+02  0.00000000000E+00 0. -1.
         -2    1    1    2    0  502 -0.20813354588E+02 -0.13892508934E+02  0.27789223617E+02  0.37395701396E+02  0.00000000000E+00 0.  1.
<mgrwt>
<rscale>  2 0.25023939E+02</rscale>
<asrwt>0</asrwt>
<pdfrwt beam="1">  1       21 0.11499378E-01 0.25023939E+02</pdfrwt>
<pdfrwt beam="2">  1       21 0.13103127E-02 0.25023939E+02</pdfrwt>
<totfact> 0.10779407E+08</totfact>
</mgrwt>
</event>
<event>
 4    1  0.7119201E+004  0.3682236E+02  0.7546771E-02  0.1532988E+00
         21   -1    0    0  501  502  0.00000000000E+00  0.00000000000E+00  0.96675820951E+02  0.96675820951E+02  0.00000000000E+00 0. -1.
         21   -1    0    0  502  503 -0.00000000000E+00 -0.00000000000E+00 -0.14771994001E+02  0.14771994001E+02  0.00000000000E+00 0. -1.
          5    1    1    2  501    0 -0.33759673405E+02  0.14702741000E+02  0.53482091630E+02  0.64932428466E+02  0.00000000000E+00 0. -1.
         -5    1    1    2    0  503  0.33759673405E+02 -0.14702741000E+02  0.28421735320E+02  0.46515386486E+02  0.00000000000E+00 0.  1.
<mgrwt>
<rscale>  2 0.36822359E+02</rscale>
<asrwt>0</asrwt>
<pdfrwt beam="1">  1       21 0.14873203E-01 0.36822359E+02</pdfrwt>
<pdfrwt beam="2">  1       21 0.22726145E-02 0.36822359E+02</pdfrwt>
<totfact> 0.32441112E+07</totfact>
</mgrwt>
</event>
<event>
 4    1  0.7119201E+004  0.2208906E+02  0.7546771E-02  0.1706716E+00
         21   -1    0    0  501  502  0.00000000000E+00  0.00000000000E+00  0.85377589421E+01  0.85377589421E+01  0.00000000000E+00 0.  1.
         21   -1    0    0  502  503 -0.00000000000E+00 -0.00000000000E+00 -0.57277958108E+02  0.57277958108E+02  0.00000000000E+00 0.  1.
          5    1    1    2  501    0 -0.12007630680E+02  0.18540314926E+02 -0.22810122122E+02  0.31752608449E+02  0.00000000000E+00 0. -1.
         -5    1    1    2    0  503  0.12007630680E+02 -0.18540314926E+02 -0.25930077044E+02  0.34063108602E+02  0.00000000000E+00 0.  1.
<mgrwt>
<rscale>  2 0.22089058E+02</rscale>
<asrwt>0</asrwt>
<pdfrwt beam="1">  1       21 0.13135014E-02 0.22089058E+02</pdfrwt>
<pdfrwt beam="2">  1       21 0.88119937E-02 0.22089058E+02</pdfrwt>
<totfact> 0.16097822E+08</totfact>
</mgrwt>
</event>
<event>
 4    1  0.7119201E+004  0.2609916E+02  0.7546771E-02  0.1645698E+00
         21   -1    0    0  503  502  0.00000000000E+00  0.00000000000E+00  0.37929704690E+01  0.37929704690E+01  0.00000000000E+00 0.  1.
         21   -1    0    0  501  503 -0.00000000000E+00 -0.00000000000E+00 -0.18057982804E+03  0.18057982804E+03  0.00000000000E+00 0.  1.
          2    1    1    2  501    0 -0.88625365521E+01  0.24548347751E+02 -0.95230959849E+02  0.98742602990E+02  0.00000000000E+00 0. -1.
         -2    1    1    2    0  502  0.88625365521E+01 -0.24548347751E+02 -0.81555897719E+02  0.85630195517E+02  0.00000000000E+00 0.  1.
<mgrwt>
<rscale>  2 0.26099156E+02</rscale>
<asrwt>0</asrwt>
<pdfrwt beam="1">  1       21 0.58353400E-03 0.26099156E+02</pdfrwt>
<pdfrwt beam="2">  1       21 0.27781508E-01 0.26099156E+02</pdfrwt>
<totfact> 0.79269175E+07</totfact>
</mgrwt>
</event>
<event>
 4    1  0.7119201E+004  0.2508233E+02  0.7546771E-02  0.1659822E+00
         21   -1    0    0  503  502  0.00000000000E+00  0.00000000000E+00  0.16096520430E+01  0.16096520430E+01  0.00000000000E+00 0. -1.
         21   -1    0    0  501  503 -0.00000000000E+00 -0.00000000000E+00 -0.40634692455E+03  0.40634692455E+03  0.00000000000E+00 0. -1.
          5    1    1    2  501    0  0.19988057912E+02 -0.15152586619E+02 -0.16252692861E+03  0.16445098316E+03  0.00000000000E+00 0.  1.
         -5    1    1    2    0  502 -0.19988057912E+02  0.15152586619E+02 -0.24221034390E+03  0.24350559343E+03  0.00000000000E+00 0. -1.
<mgrwt>
<rscale>  2 0.25082331E+02</rscale>
<asrwt>0</asrwt>
<pdfrwt beam="1">  1       21 0.24763893E-03 0.25082331E+02</pdfrwt>
<pdfrwt beam="2">  1       21 0.62514874E-01 0.25082331E+02</pdfrwt>
<totfact> 0.58962532E+07</totfact>
</mgrwt>
</event>
<event>
 4    1  0.7119201E+004  0.2009372E+02  0.7546771E-02  0.1743471E+00
         21   -1    0    0  501  502  0.00000000000E+00  0.00000000000E+00  0.70616652375E+03  0.70616652375E+03  0.00000000000E+00 0. -1.
         21   -1    0    0  502  503 -0.00000000000E+00 -0.00000000000E+00 -0.58765604516E+00  0.58765604516E+00  0.00000000000E+00 0. -1.
          3    1    1    2  501    0  0.75145063307E+01 -0.18635717734E+02  0.29467002993E+03  0.29535433689E+03  0.00000000000E+00 0.  1.
         -3    1    1    2    0  503 -0.75145063307E+01  0.18635717734E+02  0.41090883777E+03  0.41139984290E+03  0.00000000000E+00 0. -1.
<mgrwt>
<rscale>  2 0.20093725E+02</rscale>
<asrwt>0</asrwt>
<pdfrwt beam="1">  1       21 0.10864032E+00 0.20093725E+02</pdfrwt>
<pdfrwt beam="2">  1       21 0.90409188E-04 0.20093725E+02</pdfrwt>
<totfact> 0.73992128E+07</totfact>
</mgrwt>
</event>
<event>
 4    1  0.7119201E+004  0.5615955E+02  0.7546771E-02  0.1414694E+00
         21   -1    0    0  503  502  0.00000000000E+00  0.00000000000E+00  0.47334848454E+02  0.47334848454E+02  0.00000000000E+00 0. -1.
         21   -1    0    0  501  503 -0.00000000000E+00 -0.00000000000E+00 -0.80688283650E+02  0.80688283650E+02  0.00000000000E+00 0. -1.
          5    1    1    2  501    0  0.41669813904E+02 -0.37649995230E+02  0.10042741346E+02  0.57050435453E+02  0.00000000000E+00 0. -1.
         -5    1    1    2    0  502 -0.41669813904E+02  0.37649995230E+02 -0.43396176541E+02  0.70972696652E+02  0.00000000000E+00 0.  1.
<mgrwt>
<rscale>  2 0.56159554E+02</rscale>
<asrwt>0</asrwt>
<pdfrwt beam="1">  1       21 0.72822844E-02 0.56159554E+02</pdfrwt>
<pdfrwt beam="2">  1       21 0.12413582E-01 0.56159554E+02</pdfrwt>
<totfact> 0.71623155E+06</totfact>
</mgrwt>
</event>
<event>
 4    1  0.7119201E+004  0.2612777E+02  0.7546771E-02  0.1645312E+00
         21   -1    0    0  503  502  0.00000000000E+00  0.00000000000E+00  0.63203979007E+00  0.63203979007E+00  0.00000000000E+00 0. -1.
         21   -1    0    0  501  503 -0.00000000000E+00 -0.00000000000E+00 -0.11077958017E+04  0.11077958017E+04  0.00000000000E+00 0. -1.
          3    1    1    2  501    0  0.87587945691E+01 -0.24615925808E+02 -0.46593678604E+03  0.46666877855E+03  0.00000000000E+00 0. -1.
         -3    1    1    2    0  502 -0.87587945691E+01  0.24615925808E+02 -0.64122697589E+03  0.64175906296E+03  0.00000000000E+00 0.  1.
<mgrwt>
<rscale>  2 0.26127768E+02</rscale>
<asrwt>0</asrwt>
<pdfrwt beam="1">  1       21 0.97236981E-04 0.26127768E+02</pdfrwt>
<pdfrwt beam="2">  1       21 0.17042997E+00 0.26127768E+02</pdfrwt>
<totfact> 0.24663641E+07</totfact>
</mgrwt>
</event>
<event>
 4    1  0.7119201E+004  0.2447159E+02  0.7546771E-02  0.1668710E+00
         21   -1    0    0  501  502  0.00000000000E+00  0.00000000000E+00  0.48934360932E+00  0.48934360932E+00  0.00000000000E+00 0. -1.
         21   -1    0    0  502  503 -0.00000000000E+00 -0.00000000000E+00 -0.12467705308E+04  0.12467705308E+04  0.00000000000E+00 0. -1.
          2    1    1    2  501    0  0.14325038223E+02  0.19840666378E+02 -0.70778888102E+03  0.70821180367E+03  0.00000000000E+00 0.  1.
         -2    1    1    2    0  503 -0.14325038223E+02 -0.19840666378E+02 -0.53849230615E+03  0.53904807071E+03  0.00000000000E+00 0. -1.
<mgrwt>
<rscale>  2 0.24471591E+02</rscale>
<asrwt>0</asrwt>
<pdfrwt beam="1">  1       21 0.75284065E-04 0.24471591E+02</pdfrwt>
<pdfrwt beam="2">  1       21 0.19180975E+00 0.24471591E+02</pdfrwt>
<totfact> 0.26130878E+07</totfact>
</mgrwt>
</event>
<event>
 4    1  0.7119201E+004  0.2634226E+02  0.7546771E-02  0.1642439E+00
         21   -1    0    0  503  502  0.00000000000E+00  0.00000000000E+00  0.21365659286E+03  0.21365659286E+03  0.00000000000E+00 0. -1.
         21   -1    0    0  501  503 -0.00000000000E+00 -0.00000000000E+00 -0.34260386768E+01  0.34260386768E+01  0.00000000000E+00 0. -1.
          3    1    1    2  501    0 -0.14810265593E+02  0.21784643489E+02  0.12987213351E+03  0.13251673752E+03  0.00000000000E+00 0. -1.
         -3    1    1    2    0  502  0.14810265593E+02 -0.21784643489E+02  0.80358420674E+02  0.84565894024E+02  0.00000000000E+00 0.  1.
<mgrwt>
<rscale>  2 0.26342260E+02</rscale>
<asrwt>0</asrwt>
<pdfrwt beam="1">  1       21 0.32870235E-01 0.26342260E+02</pdfrwt>
<pdfrwt beam="2">  1       21 0.52708304E-03 0.26342260E+02</pdfrwt>
<totfact> 0.67912515E+07</totfact>
</mgrwt>
</event>
<event>
 4    1  0.7119201E+004  0.4439923E+02  0.7546771E-02  0.1478127E+00
         21   -1    0    0  501  502  0.00000000000E+00  0.00000000000E+00  0.76084600141E+03  0.76084600141E+03  0.00000000000E+00 0.  1.
         21   -1    0    0  502  503 -0.00000000000E+00 -0.00000000000E+00 -0.34748717705E+01  0.34748717705E+01  0.00000000000E+00 0.  1.
          3    1    1    2  501    0  0.29189138149E+02  0.33455734318E+02  0.57143377429E+03  0.57315604362E+03  0.00000000000E+00 0.  1.
         -3    1    1    2    0  503 -0.29189138149E+02 -0.33455734318E+02  0.18593735535E+03  0.19116482955E+03  0.00000000000E+00 0. -1.
<mgrwt>
<rscale>  2 0.44399234E+02</rscale>
<asrwt>0</asrwt>
<pdfrwt beam="1">  1       21 0.11705310E+00 0.44399234E+02</pdfrwt>
<pdfrwt beam="2">  1       21 0.53459626E-03 0.44399234E+02</pdfrwt>
<totfact> 0.52942573E+06</totfact>
</mgrwt>
</event>
<event>
 4    1  0.7119201E+004  0.3257227E+02  0.7546771E-02  0.1571280E+00
         21   -1    0    0  503  502  0.00000000000E+00  0.00000000000E+00  0.36350968413E+03  0.36350968413E+03  0.00000000000E+00 0.  1.
         21   -1    0    0  501  503 -0.00000000000E+00 -0.00000000000E+00 -0.30659478305E+01  0.30659478305E+01  0.00000000000E+00 0.  1.
          4    1    1    2  501    0  0.32543198079E+02 -0.13758989989E+01  0.22039803067E+03  0.22279193155E+03  0.00000000000E+00 0.  1.
         -4    1    1    2    0  502 -0.32543198079E+02  0.13758989989E+01  0.14004570562E+03  0.14378370041E+03  0.00000000000E+00 0. -1.
<mgrwt>
<rscale>  2 0.32572271E+02</rscale>
<asrwt>0</asrwt>
<pdfrwt beam="1">  1       21 0.55924533E-01 0.32572271E+02</pdfrwt>
<pdfrwt beam="2">  1       21 0.47168457E-03 0.32572271E+02</pdfrwt>
<totfact> 0.30104420E+07</totfact>
</mgrwt>
</event>
<event>
 4    1  0.7119201E+004  0.2178522E+02  0.7546771E-02  0.1711993E+00
         21   -1    0    0  501  502  0.00000000000E+00  0.00000000000E+00  0.69937449651E+02  0.69937449651E+02  0.00000000000E+00 0.  1.
         21   -1    0    0  502  503 -0.00000000000E+00 -0.00000000000E+00 -0.68355898878E+01  0.68355898878E+01  0.00000000000E+00 0.  1.
          3    1    1    2  501    0  0.16594189214E+02 -0.14114837768E+02  0.34820367500E+02  0.41073759917E+02  0.00000000000E+00 0.  1.
         -3    1    1    2    0  503 -0.16594189214E+02  0.14114837768E+02  0.28281492264E+02  0.35699279622E+02  0.00000000000E+00 0. -1.
<mgrwt>
<rscale>  2 0.21785219E+02</rscale>
<asrwt>0</asrwt>
<pdfrwt beam="1">  1       21 0.10759607E-01 0.21785219E+02</pdfrwt>
<pdfrwt beam="2">  1       21 0.10516293E-02 0.21785219E+02</pdfrwt>
<totfact> 0.16123437E+08</totfact>
</mgrwt>
</event>
<event>
 4    1  0.7119201E+004  0.2759264E+02  0.7546771E-02  0.1626332E+00
         21   -1    0    0  501  502  0.00000000000E+00  0.00000000000E+00  0.19820155797E+02  0.19820155797E+02  0.00000000000E+00 0. -1.
         21   -1    0    0  502  503 -0.00000000000E+00 -0.00000000000E+00 -0.49304771607E+02  0.49304771607E+02  0.00000000000E+00 0. -1.
          2    1    1    2  501    0 -0.26816276739E+02  0.64993286476E+01 -0.30986837501E+02  0.41491421636E+02  0.00000000000E+00 0. -1.
         -2    1    1    2    0  503  0.26816276739E+02 -0.64993286476E+01  0.15022216909E+01  0.27633505768E+02  0.00000000000E+00 0.  1.
<mgrwt>
<rscale>  2 0.27592643E+02</rscale>
<asrwt>0</asrwt>
<pdfrwt beam="1">  1       21 0.30492548E-02 0.27592643E+02</pdfrwt>
<pdfrwt beam="2">  1       21 0.75853494E-02 0.27592643E+02</pdfrwt>
<totfact> 0.59820862E+07</totfact>
</mgrwt>
</event>
<event>
 4    1  0.7119201E+004  0.3715676E+02  0.7546771E-02  0.1530242E+00
         21   -1    0    0  503  502  0.00000000000E+00  0.00000000000E+00  0.22753595631E+02  0.22753595631E+02  0.00000000000E+00 0.  1.
         21   -1    0    0  501  503 -0.00000000000E+00 -0.00000000000E+00 -0.60821543307E+02  0.60821543307E+02  0.00000000000E+00 0.  1.
          4    1    1    2  501    0  0.17449594004E+02 -0.32804522018E+02 -0.21069525573E+02  0.42714750421E+02  0.00000000000E+00 0. -1.
         -4    1    1    2    0  502 -0.17449594004E+02  0.32804522018E+02 -0.16998422104E+02  0.40860388517E+02  0.00000000000E+00 0.  1.
<mgrwt>
<rscale>  2 0.37156762E+02</rscale>
<asrwt>0</asrwt>
<pdfrwt beam="1">  1       21 0.35005533E-02 0.37156762E+02</pdfrwt>
<pdfrwt beam="2">  1       21 0.93571603E-02 0.37156762E+02</pdfrwt>
<totfact> 0.36172757E+07</totfact>
</mgrwt>
</event>
<event>
 4    1  0.7119201E+004  0.2250683E+02  0.7546771E-02  0.1699631E+00
         21   -1    0    0  503  502  0.00000000000E+00  0.00000000000E+00  0.52145563719E+01  0.52145563719E+01  0.00000000000E+00 0.  1.
         21   -1    0    0  501  503 -0.00000000000E+00 -0.00000000000E+00 -0.13804038171E+03  0.13804038171E+03  0.00000000000E+00 0.  1.
          4    1    1    2  501    0 -0.10412884787E+02 -0.19953174016E+02 -0.10540034330E+03  0.10777657301E+03  0.00000000000E+00 0. -1.
         -4    1    1    2    0  502  0.10412884787E+02  0.19953174016E+02 -0.27425482042E+02  0.35478365071E+02  0.00000000000E+00 0.  1.
<mgrwt>
<rscale>  2 0.22506828E+02</rscale>
<asrwt>0</asrwt>
<pdfrwt beam="1">  1       21 0.80223950E-03 0.22506828E+02</pdfrwt>
<pdfrwt beam="2">  1       21 0.21236980E-01 0.22506828E+02</pdfrwt>
<totfact> 0.76686830E+07</totfact>
</mgrwt>
</event>
<event>
 4    1  0.7119201E+004  0.2232928E+02  0.7546771E-02  0.1702619E+00
         21   -1    0    0  501  502  0.00000000000E+00  0.00000000000E+00  0.47274466910E+01  0.47274466910E+01  0.00000000000E+00 0. -1.
         21   -1    0    0  502  503 -0.00000000000E+00 -0.00000000000E+00 -0.10844268591E+03  0.10844268591E+03  0.00000000000E+00 0. -1.
          2    1    1    2  501    0  0.11803818245E+02 -0.18954324801E+02 -0.61228668079E+02  0.65173202688E+02  0.00000000000E+00 0.  1.
         -2    1    1    2    0  503 -0.11803818245E+02  0.18954324801E+02 -0.42486571136E+02  0.47996929909E+02  0.00000000000E+00 0. -1.
<mgrwt>
<rscale>  2 0.22329276E+02</rscale>
<asrwt>0</asrwt>
<pdfrwt beam="1">  1       21 0.72729949E-03 0.22329276E+02</pdfrwt>
<pdfrwt beam="2">  1       21 0.16683490E-01 0.22329276E+02</pdfrwt>
<totfact> 0.13455035E+08</totfact>
</mgrwt>
</event>
<event>
 4    1  0.7119201E+004  0.2164198E+02  0.7546771E-02  0.1714518E+00
         21   -1    0    0  503  502  0.00000000000E+00  0.00000000000E+00  0.17052161583E+01  0.17052161583E+01  0.00000000000E+00 0. -1.
         21   -1    0    0  501  503 -0.00000000000E+00 -0.00000000000E+00 -0.27615029534E+03  0.27615029534E+03  0.00000000000E+00 0. -1.
          1    1    1    2  501    0  0.37236516606E+01  0.21319231140E+02 -0.12705791768E+03  0.12888789565E+03  0.00000000000E+00 0. -1.
         -1    1    1    2    0  502 -0.37236516606E+01 -0.21319231140E+02 -0.14738716149E+03  0.14896761585E+03  0.00000000000E+00 0.  1.
<mgrwt>
<rscale>  2 0.21641978E+02</rscale>
<asrwt>0</asrwt>
<pdfrwt beam="1">  1       21 0.26234112E-03 0.21641978E+02</pdfrwt>
<pdfrwt beam="2">  1       21 0.42484633E-01 0.21641978E+02</pdfrwt>
<totfact> 0.11121517E+08</totfact>
</mgrwt>
</event>
<event>
 4    1  0.7119201E+004  0.2582522E+02  0.7546771E-02  0.1649424E+00
         21   -1    0    0  501  502  0.00000000000E+00  0.00000000000E+00  0.13496218778E+02  0.13496218778E+02  0.00000000000E+00 0. -1.
         21   -1    0    0  502  503 -0.00000000000E+00 -0.00000000000E+00 -0.51027836517E+02  0.51027836517E+02  0.00000000000E+00 0. -1.
          2    1    1    2  501    0 -0.25792449031E+02 -0.13005435135E+01 -0.24498015461E+02  0.35596272304E+02  0.00000000000E+00 0.  1.
         -2    1    1    2    0  503  0.25792449031E+02  0.13005435135E+01 -0.13033602277E+02  0.28927782991E+02  0.00000000000E+00 0. -1.
<mgrwt>
<rscale>  2 0.25825217E+02</rscale>
<asrwt>0</asrwt>
<pdfrwt beam="1">  1       21 0.20763413E-02 0.25825217E+02</pdfrwt>
<pdfrwt beam="2">  1       21 0.78504364E-02 0.25825217E+02</pdfrwt>
<totfact> 0.10110538E+08</totfact>
</mgrwt>
</event>
<event>
 4    1  0.7119201E+004  0.2295218E+02  0.7546771E-02  0.1692286E+00
         21   -1    0    0  501  502  0.00000000000E+00  0.00000000000E+00  0.33343760862E+03  0.33343760862E+03  0.00000000000E+00 0. -1.
         21   -1    0    0  502  503 -0.00000000000E+00 -0.00000000000E+00 -0.16078436643E+01  0.16078436643E+01  0.00000000000E+00 0. -1.
          4    1    1    2  501    0  0.21289881377E+02 -0.85757624493E+01  0.18799414541E+03  0.18939007751E+03  0.00000000000E+00 0. -1.
         -4    1    1    2    0  503 -0.21289881377E+02  0.85757624493E+01  0.14383561954E+03  0.14565537477E+03  0.00000000000E+00 0.  1.
<mgrwt>
<rscale>  2 0.22952184E+02</rscale>
<asrwt>0</asrwt>
<pdfrwt beam="1">  1       21 0.51298039E-01 0.22952184E+02</pdfrwt>
<pdfrwt beam="2">  1       21 0.24736083E-03 0.22952184E+02</pdfrwt>
<totfact> 0.85611632E+07</totfact>
</mgrwt>
</event>
<event>
 4    1  0.7119201E+004  0.2160919E+02  0.7546771E-02  0.1715100E+00
         21   -1    0    0  503  502  0.00000000000E+00  0.00000000000E+00  0.61004121031E+00  0.61004121031E+00  0.00000000000E+00 0. -1.
         21   -1    0    0  501  503 -0.00000000000E+00 -0.00000000000E+00 -0.11658859241E+04  0.11658859241E+04  0.00000000000E+00 0. -1.
          2    1    1    2  501    0  0.17001797132E+02  0.13337765786E+02 -0.92445268555E+03  0.92470520974E+03  0.00000000000E+00 0. -1.
         -2    1    1    2    0  502 -0.17001797132E+02 -0.13337765786E+02 -0.24082319738E+03  0.24179075561E+03  0.00000000000E+00 0.  1.
<mgrwt>
<rscale>  2 0.21609190E+02</rscale>
<asrwt>0</asrwt>
<pdfrwt beam="1">  1       21 0.93853070E-04 0.21609190E+02</pdfrwt>
<pdfrwt beam="2">  1       21 0.17936597E+00 0.21609190E+02</pdfrwt>
<totfact> 0.22186692E+07</totfact>
</mgrwt>
</event>
<event>
 4    1  0.7119201E+004  0.2450097E+02  0.7546771E-02  0.1668275E+00
         21   -1    0    0  501  502  0.00000000000E+00  0.00000000000E+00  0.55221049182E+03  0.55221049182E+03  0.00000000000E+00 0. -1.
         21   -1    0    0  502  503 -0.00000000000E+00 -0.00000000000E+00 -0.10892721308E+01  0.10892721308E+01  0.00000000000E+00 0. -1.
          2    1    1    2  501    0 -0.20165745919E+02  0.13915468071E+02  0.26315289816E+03  0.26429102400E+03  0.00000000000E+00 0. -1.
         -2    1    1    2    0  503  0.20165745919E+02 -0.13915468071E+02  0.28796832154E+03  0.28900873995E+03  0.00000000000E+00 0.  1.
<mgrwt>
<rscale>  2 0.24500971E+02</rscale>
<asrwt>0</asrwt>
<pdfrwt beam="1">  1       21 0.84955237E-01 0.24500971E+02</pdfrwt>
<pdfrwt beam="2">  1       21 0.16758077E-03 0.24500971E+02</pdfrwt>
<totfact> 0.54695901E+07</totfact>
</mgrwt>
</event>
<event>
 4    1  0.7119201E+004  0.2854576E+02  0.7546771E-02  0.1614743E+00
         21   -1    0    0  501  502  0.00000000000E+00  0.00000000000E+00  0.13890204991E+02  0.13890204991E+02  0.00000000000E+00 0. -1.
         21   -1    0    0  502  503 -0.00000000000E+00 -0.00000000000E+00 -0.66558815571E+02  0.66558815571E+02  0.00000000000E+00 0. -1.
          4    1    1    2  501    0 -0.25845750783E+02 -0.12118485878E+02 -0.40187437571E+02  0.49293921248E+02  0.00000000000E+00 0.  1.
         -4    1    1    2    0  503  0.25845750783E+02  0.12118485878E+02 -0.12481173010E+02  0.31155099314E+02  0.00000000000E+00 0. -1.
<mgrwt>
<rscale>  2 0.28545762E+02</rscale>
<asrwt>0</asrwt>
<pdfrwt beam="1">  1       21 0.21369546E-02 0.28545762E+02</pdfrwt>
<pdfrwt beam="2">  1       21 0.10239818E-01 0.28545762E+02</pdfrwt>
<totfact> 0.63906886E+07</totfact>
</mgrwt>
</event>
<event>
 4    1  0.7119201E+004  0.2054139E+02  0.7546771E-02  0.1734771E+00
         21   -1    0    0  501  502  0.00000000000E+00  0.00000000000E+00  0.11687477485E+02  0.11687477485E+02  0.00000000000E+00 0. -1.
         21   -1    0    0  502  503 -0.00000000000E+00 -0.00000000000E+00 -0.36650306492E+02  0.36650306492E+02  0.00000000000E+00 0. -1.
          4    1    1    2  501    0 -0.51335181513E+01 -0.19889592364E+02 -0.15435836984E+02  0.25694628941E+02  0.00000000000E+00 0.  1.
         -4    1    1    2    0  503  0.51335181513E+01  0.19889592364E+02 -0.95269920224E+01  0.22643155036E+02  0.00000000000E+00 0. -1.
<mgrwt>
<rscale>  2 0.20541395E+02</rscale>
<asrwt>0</asrwt>
<pdfrwt beam="1">  1       21 0.17980734E-02 0.20541395E+02</pdfrwt>
<pdfrwt beam="2">  1       21 0.56385087E-02 0.20541395E+02</pdfrwt>
<totfact> 0.20100438E+08</totfact>
</mgrwt>
</event>
<event>
 4    1  0.7119201E+004  0.4075932E+02  0.7546771E-02  0.1502697E+00
         21   -1    0    0  501  502  0.00000000000E+00  0.00000000000E+00  0.47204091066E+03  0.47204091066E+03  0.00000000000E+00 0. -1.
         21   -1    0    0  502  503 -0.00000000000E+00 -0.00000000000E+00 -0.37224614125E+01  0.37224614125E+01  0.00000000000E+00 0. -1.
          5    1    1    2  501    0 -0.36830305533E+02  0.17459986471E+02  0.17860586559E+03  0.18319764670E+03  0.00000000000E+00 0. -1.
         -5    1    1    2    0  503  0.36830305533E+02 -0.17459986471E+02  0.28971258366E+03  0.29256572537E+03  0.00000000000E+00 0.  1.
<mgrwt>
<rscale>  2 0.40759324E+02</rscale>
<asrwt>0</asrwt>
<pdfrwt beam="1">  1       21 0.72621631E-01 0.40759324E+02</pdfrwt>
<pdfrwt beam="2">  1       21 0.57268674E-03 0.40759324E+02</pdfrwt>
<totfact> 0.13602134E+07</totfact>
</mgrwt>
</event>
<event>
 4    1  0.7119201E+004  0.2122315E+02  0.7546771E-02  0.1722044E+00
         21   -1    0    0  501  502  0.00000000000E+00  0.00000000000E+00  0.53587332478E+03  0.53587332478E+03  0.00000000000E+00 0.  1.
         21   -1    0    0  502  503 -0.00000000000E+00 -0.00000000000E+00 -0.85834621129E+00  0.85834621129E+00  0.00000000000E+00 0.  1.
          1    1    1    2  501    0  0.15454728883E+01  0.21166801835E+02  0.22885263884E+03  0.22983461944E+03  0.00000000000E+00 0. -1.
         -1    1    1    2    0  503 -0.15454728883E+01 -0.21166801835E+02  0.30616233972E+03  0.30689705155E+03  0.00000000000E+00 0.  1.
<mgrwt>
<rscale>  2 0.21223147E+02</rscale>
<asrwt>0</asrwt>
<pdfrwt beam="1">  1       21 0.82441783E-01 0.21223147E+02</pdfrwt>
<pdfrwt beam="2">  1       21 0.13205369E-03 0.21223147E+02</pdfrwt>
<totfact> 0.79313669E+07</totfact>
</mgrwt>
</event>
<event>
 4    1  0.7119201E+004  0.2685478E+02  0.7546771E-02  0.1635707E+00
         21   -1    0    0  503  502  0.00000000000E+00  0.00000000000E+00  0.28228919406E+03  0.28228919406E+03  0.00000000000E+00 0. -1.
         21   -1    0    0  501  503 -0.00000000000E+00 -0.00000000000E+00 -0.25587290044E+01  0.25587290044E+01  0.00000000000E+00 0. -1.
          4    1    1    2  501    0 -0.15995145530E+02  0.21571607876E+02  0.13425040249E+03  0.13691000517E+03  0.00000000000E+00 0. -1.
         -4    1    1    2    0  502  0.15995145530E+02 -0.21571607876E+02  0.14548006257E+03  0.14793791789E+03  0.00000000000E+00 0.  1.
<mgrwt>
<rscale>  2 0.26854775E+02</rscale>
<asrwt>0</asrwt>
<pdfrwt beam="1">  1       21 0.43429082E-01 0.26854775E+02</pdfrwt>
<pdfrwt beam="2">  1       21 0.39365084E-03 0.26854775E+02</pdfrwt>
<totfact> 0.62171830E+07</totfact>
</mgrwt>
</event>
<event>
 4    1  0.7119201E+004  0.2216526E+02  0.7546771E-02  0.1705409E+00
         21   -1    0    0  503  502  0.00000000000E+00  0.00000000000E+00  0.30900042060E+02  0.30900042060E+02  0.00000000000E+00 0. -1.
         21   -1    0    0  501  503 -0.00000000000E+00 -0.00000000000E+00 -0.16721449622E+02  0.16721449622E+02  0.00000000000E+00 0. -1.
          4    1    1    2  501    0  0.21246861326E+02 -0.63142506854E+01  0.12368000704E+02  0.25382401765E+02  0.00000000000E+00 0.  1.
         -4    1    1    2    0  502 -0.21246861326E+02  0.63142506854E+01  0.18105917337E+01  0.22239089917E+02  0.00000000000E+00 0. -1.
<mgrwt>
<rscale>  2 0.22165263E+02</rscale>
<asrwt>0</asrwt>
<pdfrwt beam="1">  1       21 0.47538526E-02 0.22165263E+02</pdfrwt>
<pdfrwt beam="2">  1       21 0.25725307E-02 0.22165263E+02</pdfrwt>
<totfact> 0.15589668E+08</totfact>
</mgrwt>
</event>
<event>
 4    1  0.7119201E+004  0.2359165E+02  0.7546771E-02  0.1682095E+00
         21   -1    0    0  503  502  0.00000000000E+00  0.00000000000E+00  0.99433538308E+02  0.99433538308E+02  0.00000000000E+00 0. -1.
         21   -1    0    0  501  503 -0.00000000000E+00 -0.00000000000E+00 -0.64657621611E+01  0.64657621611E+01  0.00000000000E+00 0. -1.
          2    1    1    2  501    0  0.19277403522E+02  0.13599544540E+02  0.65888823479E+02  0.69985019523E+02  0.00000000000E+00 0. -1.
         -2    1    1    2    0  502 -0.19277403522E+02 -0.13599544540E+02  0.27078952668E+02  0.35914280946E+02  0.00000000000E+00 0.  1.
<mgrwt>
<rscale>  2 0.23591649E+02</rscale>
<asrwt>0</asrwt>
<pdfrwt beam="1">  1       21 0.15297466E-01 0.23591649E+02</pdfrwt>
<pdfrwt beam="2">  1       21 0.99473271E-03 0.23591649E+02</pdfrwt>
<totfact> 0.99267481E+07</totfact>
</mgrwt>
</event>
<event>
 4    1  0.7119201E+004  0.2097181E+02  0.7546771E-02  0.1726665E+00
         21   -1    0    0  501  502  0.00000000000E+00  0.00000000000E+00  0.86619980488E+02  0.86619980488E+02  0.00000000000E+00 0.  1.
         21   -1    0    0  502  503 -0.00000000000E+00 -0.00000000000E+00 -0.51031201247E+01  0.51031201247E+01  0.00000000000E+00 0.  1.
          5    1    1    2  501    0 -0.14390206851E+02 -0.15255783744E+02  0.37511852529E+02  0.42976226812E+02  0.00000000000E+00 0. -1.
         -5    1    1    2    0  503  0.14390206851E+02  0.15255783744E+02  0.44005007835E+02  0.48746873801E+02  0.00000000000E+00 0.  1.
<mgrwt>
<rscale>  2 0.20971814E+02</rscale>
<asrwt>0</asrwt>
<pdfrwt beam="1">  1       21 0.13326150E-01 0.20971814E+02</pdfrwt>
<pdfrwt beam="2">  1       21 0.78509547E-03 0.20971814E+02</pdfrwt>
<totfact> 0.17257477E+08</totfact>
</mgrwt>
</event>
<event>
 4    1  0.7119201E+004  0.2115784E+02  0.7546771E-02  0.1723237E+00
         21   -1    0    0  503  502  0.00000000000E+00  0.00000000000E+00  0.39286096230E+02  0.39286096230E+02  0.00000000000E+00 0.  1.
         21   -1    0    0  501  503 -0.00000000000E+00 -0.00000000000E+00 -0.12699747850E+02  0.12699747850E+02  0.00000000000E+00 0.  1.
          3    1    1    2  501    0  0.21138459906E+02 -0.90538639781E+00  0.21625511247E+02  0.30254205467E+02  0.00000000000E+00 0.  1.
         -3    1    1    2    0  502 -0.21138459906E+02  0.90538639781E+00  0.49608371339E+01  0.21731638613E+02  0.00000000000E+00 0. -1.
<mgrwt>
<rscale>  2 0.21157840E+02</rscale>
<asrwt>0</asrwt>
<pdfrwt beam="1">  1       21 0.60440148E-02 0.21157840E+02</pdfrwt>
<pdfrwt beam="2">  1       21 0.19538074E-02 0.21157840E+02</pdfrwt>
<totfact> 0.15997950E+08</totfact>
</mgrwt>
</event>
<event>
 4    1  0.7119201E+004  0.4186102E+02  0.7546771E-02  0.1494946E+00
         21   -1    0    0  503  502  0.00000000000E+00  0.00000000000E+00  0.30719847287E+03  0.30719847287E+03  0.00000000000E+00 0. -1.
         21   -1    0    0  501  503 -0.00000000000E+00 -0.00000000000E+00 -0.65420938578E+01  0.65420938578E+01  0.00000000000E+00 0. -1.
          5    1    1    2  501    0 -0.32233322171E+02  0.26708760004E+02  0.94190172743E+02  0.10307343771E+03  0.00000000000E+00 0. -1.
         -5    1    1    2    0  502  0.32233322171E+02 -0.26708760004E+02  0.20646620627E+03  0.21066712902E+03  0.00000000000E+00 0.  1.
<mgrwt>
<rscale>  2 0.41861019E+02</rscale>
<asrwt>0</asrwt>
<pdfrwt beam="1">  1       21 0.47261292E-01 0.41861019E+02</pdfrwt>
<pdfrwt beam="2">  1       21 0.10064762E-02 0.41861019E+02</pdfrwt>
<totfact> 0.13926659E+07</totfact>
</mgrwt>
</event>
<event>
 4    1  0.7119201E+004  0.2152788E+02  0.7546771E-02  0.1716547E+00
         21   -1    0    0  501  502  0.00000000000E+00  0.00000000000E+00  0.10072201549E+03  0.10072201549E+03  0.00000000000E+00 0. -1.
         21   -1    0    0  502  503 -0.00000000000E+00 -0.00000000000E+00 -0.53107460753E+01  0.53107460753E+01  0.00000000000E+00 0. -1.
          1    1    1    2  501    0  0.17923923104E+02  0.11924026819E+02  0.67083254742E+02  0.70452909817E+02  0.00000000000E+00 0.  1.
         -1    1    1    2    0  503 -0.17923923104E+02 -0.11924026819E+02  0.28328014669E+02  0.35579851744E+02  0.00000000000E+00 0. -1.
<mgrwt>
<rscale>  2 0.21527876E+02</rscale>
<asrwt>0</asrwt>
<pdfrwt beam="1">  1       21 0.15495693E-01 0.21527876E+02</pdfrwt>
<pdfrwt beam="2">  1       21 0.81703793E-03 0.21527876E+02</pdfrwt>
<totfact> 0.12700450E+08</totfact>
</mgrwt>
</event>
<event>
 4    1  0.7119201E+004  0.2361310E+02  0.7546771E-02  0.1681761E+00
         21   -1    0    0  501  502  0.00000000000E+00  0.00000000000E+00  0.43179748620E+00  0.43179748620E+00  0.00000000000E+00 0. -1.
         21   -1    0    0  502  503 -0.00000000000E+00 -0.00000000000E+00 -0.13181074682E+04  0.13181074682E+04  0.00000000000E+00 0. -1.
          5    1    1    2  501    0 -0.23257460908E+02  0.40827405431E+01 -0.56481139504E+03  0.56530477641E+03  0.00000000000E+00 0.  1.
         -5    1    1    2    0  503  0.23257460908E+02 -0.40827405431E+01 -0.75286427565E+03  0.75323448926E+03  0.00000000000E+00 0. -1.
<mgrwt>
<rscale>  2 0.23613095E+02</rscale>
<asrwt>0</asrwt>
<pdfrwt beam="1">  1       21 0.66431267E-04 0.23613095E+02</pdfrwt>
<pdfrwt beam="2">  1       21 0.20278306E+00 0.23613095E+02</pdfrwt>
<totfact> 0.26899478E+07</totfact>
</mgrwt>
</event>
<event>
 4    1  0.7119201E+004  0.3413076E+02  0.7546771E-02  0.1556458E+00
         21   -1    0    0  503  502  0.00000000000E+00  0.00000000000E+00  0.41740496635E+01  0.41740496635E+01  0.00000000000E+00 0. -1.
         21   -1    0    0  501  503 -0.00000000000E+00 -0.00000000000E+00 -0.32260432145E+03  0.32260432145E+03  0.00000000000E+00 0. -1.
          3    1    1    2  501    0  0.34027859702E+02 -0.26483505605E+01 -0.99203421512E+02  0.10491057066E+03  0.00000000000E+00 0. -1.
         -3    1    1    2    0  502 -0.34027859702E+02  0.26483505605E+01 -0.21922685028E+03  0.22186780045E+03  0.00000000000E+00 0.  1.
<mgrwt>
<rscale>  2 0.34130763E+02</rscale>
<asrwt>0</asrwt>
<pdfrwt beam="1">  1       21 0.64216145E-03 0.34130763E+02</pdfrwt>
<pdfrwt beam="2">  1       21 0.49631437E-01 0.34130763E+02</pdfrwt>
<totfact> 0.24252696E+07</totfact>
</mgrwt>
</event>
<event>
 4    1  0.7119201E+004  0.2139951E+02  0.7546771E-02  0.1718849E+00
         21   -1    0    0  503  502  0.00000000000E+00  0.00000000000E+00  0.36238991581E+03  0.36238991581E+03  0.00000000000E+00 0. -1.
         21   -1    0    0  501  503 -0.00000000000E+00 -0.00000000000E+00 -0.12941366262E+01  0.12941366262E+01  0.00000000000E+00 0. -1.
          3    1    1    2  501    0  0.20638758081E+02 -0.56551314777E+01  0.15264405259E+03  0.15413677575E+03  0.00000000000E+00 0. -1.
         -3    1    1    2    0  502 -0.20638758081E+02  0.56551314777E+01  0.20845172659E+03  0.20954727669E+03  0.00000000000E+00 0.  1.
<mgrwt>
<rscale>  2 0.21399506E+02</rscale>
<asrwt>0</asrwt>
<pdfrwt beam="1">  1       21 0.55752214E-01 0.21399506E+02</pdfrwt>
<pdfrwt beam="2">  1       21 0.19909823E-03 0.21399506E+02</pdfrwt>
<totfact> 0.97734986E+07</totfact>
</mgrwt>
</event>
<event>
 4    1  0.7119201E+004  0.2170070E+02  0.7546771E-02  0.1713480E+00
         21   -1    0    0  503  502  0.00000000000E+00  0.00000000000E+00  0.53909788436E+01  0.53909788436E+01  0.00000000000E+00 0. -1.
         21   -1    0    0  501  503 -0.00000000000E+00 -0.00000000000E+00 -0.89547281771E+02  0.89547281771E+02  0.00000000000E+00 0. -1.
          4    1    1    2  501    0 -0.94263484141E+01 -0.19546467430E+02 -0.49508168452E+02  0.54055334398E+02  0.00000000000E+00 0.  1.
         -4    1    1    2    0  502  0.94263484141E+01  0.19546467430E+02 -0.34648134475E+02  0.40882926216E+02  0.00000000000E+00 0. -1.
<mgrwt>
<rscale>  2 0.21700701E+02</rscale>
<asrwt>0</asrwt>
<pdfrwt beam="1">  1       21 0.82938142E-03 0.21700701E+02</pdfrwt>
<pdfrwt beam="2">  1       21 0.13776504E-01 0.21700701E+02</pdfrwt>
<totfact> 0.15194704E+08</totfact>
</mgrwt>
</event>
<event>
 4    1  0.7119201E+004  0.2328535E+02  0.7546771E-02  0.1686926E+00
         21   -1    0    0  503  502  0.00000000000E+00  0.00000000000E+00  0.16724843258E+01  0.16724843258E+01  0.00000000000E+00 0. -1.
         21   -1    0    0  501  503 -0.00000000000E+00 -0.00000000000E+00 -0.35847167508E+03  0.35847167508E+03  0.00000000000E+00 0. -1.
          5    1    1    2  501    0  0.22312277193E+02  0.66610632969E+01 -0.12271541200E+03  0.12490508324E+03  0.00000000000E+00 0. -1.
         -5    1    1    2    0  502 -0.22312277193E+02 -0.66610632969E+01 -0.23408377876E+03  0.23523907617E+03  0.00000000000E+00 0.  1.
<mgrwt>
<rscale>  2 0.23285349E+02</rscale>
<asrwt>0</asrwt>
<pdfrwt beam="1">  1       21 0.25730513E-03 0.23285349E+02</pdfrwt>
<pdfrwt beam="2">  1       21 0.55149520E-01 0.23285349E+02</pdfrwt>
<totfact> 0.70397385E+07</totfact>
</mgrwt>
</event>
<event>
 4    1  0.7119201E+004  0.2152627E+02  0.7546771E-02  0.1716576E+00
         21   -1    0    0  503  502  0.00000000000E+00  0.00000000000E+00  0.33469992631E+02  0.33469992631E+02  0.00000000000E+00 0.  1.
         21   -1    0    0  501  503 -0.00000000000E+00 -0.00000000000E+00 -0.13869091443E+02  0.13869091443E+02  0.00000000000E+00 0.  1.
          5    1    1    2  501    0  0.20779466135E+02 -0.56208542668E+01  0.88067384949E+01  0.23258092322E+02  0.00000000000E+00 0.  1.
         -5    1    1    2    0  502 -0.20779466135E+02  0.56208542668E+01  0.10794162693E+02  0.24080991752E+02  0.00000000000E+00 0. -1.
<mgrwt>
<rscale>  2 0.21526268E+02</rscale>
<asrwt>0</asrwt>
<pdfrwt beam="1">  1       21 0.51492296E-02 0.21526268E+02</pdfrwt>
<pdfrwt beam="2">  1       21 0.21337064E-02 0.21526268E+02</pdfrwt>
<totfact> 0.18149409E+08</totfact>
</mgrwt>
</event>
<event>
 4    1  0.7119201E+004  0.2960399E+02  0.7546771E-02  0.1602508E+00
         21   -1    0    0  503  502  0.00000000000E+00  0.00000000000E+00  0.54817505306E+01  0.54817505306E+01  0.00000000000E+00 0.  1.
         21   -1    0    0  501  503 -0.00000000000E+00 -0.00000000000E+00 -0.16381566157E+03  0.16381566157E+03  0.00000000000E+00 0.  1.
          5    1    1    2  501    0  0.24205070056E+02  0.17044375420E+02 -0.66038480645E+02  0.72370415749E+02  0.00000000000E+00 0. -1.
         -5    1    1    2    0  502 -0.24205070056E+02 -0.17044375420E+02 -0.92295430396E+02  0.96926996353E+02  0.00000000000E+00 0.  1.
<mgrwt>
<rscale>  2 0.29603989E+02</rscale>
<asrwt>0</asrwt>
<pdfrwt beam="1">  1       21 0.84334621E-03 0.29603989E+02</pdfrwt>
<pdfrwt beam="2">  1       21 0.25202410E-01 0.29603989E+02</pdfrwt>
<totfact> 0.56087201E+07</totfact>
</mgrwt>
</event>
<event>
 4    1  0.7119201E+004  0.2337502E+02  0.7546771E-02  0.1685502E+00
         21   -1    0    0  501  502  0.00000000000E+00  0.00000000000E+00  0.62165762546E+02  0.62165762546E+02  0.00000000000E+00 0.  1.
         21   -1    0    0  502  503 -0.00000000000E+00 -0.00000000000E+00 -0.11003651200E+02  0.11003651200E+02  0.00000000000E+00 0.  1.
          4    1    1    2  501    0 -0.19104087739E+02  0.13469416627E+02  0.91691932274E+01  0.25109071210E+02  0.00000000000E+00 0. -1.
         -4    1    1    2    0  503  0.19104087739E+02 -0.13469416627E+02  0.41992918119E+02  0.48060342537E+02  0.00000000000E+00 0.  1.
<mgrwt>
<rscale>  2 0.23375016E+02</rscale>
<asrwt>0</asrwt>
<pdfrwt beam="1">  1       21 0.95639633E-02 0.23375016E+02</pdfrwt>
<pdfrwt beam="2">  1       21 0.16928695E-02 0.23375016E+02</pdfrwt>
<totfact> 0.97302132E+07</totfact>
</mgrwt>
</event>
<event>
 4    1  0.7119201E+004  0.2491067E+02  0.7546771E-02  0.1662288E+00
         21   -1    0    0  501  502  0.00000000000E+00  0.00000000000E+00  0.83719481964E+00  0.83719481964E+00  0.00000000000E+00 0. -1.
         21   -1    0    0  502  503 -0.00000000000E+00 -0.00000000000E+00 -0.99978970667E+03  0.99978970667E+03  0.00000000000E+00 0. -1.
          5    1    1    2  501    0 -0.18549971725E+01  0.24841507941E+02 -0.75391350713E+03  0.75432494177E+03  0.00000000000E+00 0.  1.
         -5    1    1    2    0  503  0.18549971725E+01 -0.24841507941E+02 -0.24503900471E+03  0.24630195972E+03  0.00000000000E+00 0. -1.
<mgrwt>
<rscale>  2 0.24910671E+02</rscale>
<asrwt>0</asrwt>
<pdfrwt beam="1">  1       21 0.12879982E-03 0.24910671E+02</pdfrwt>
<pdfrwt beam="2">  1       21 0.15381307E+00 0.24910671E+02</pdfrwt>
<totfact> 0.21013264E+07</totfact>
</mgrwt>
</event>
<event>
 4    1  0.7119201E+004  0.2318171E+02  0.7546771E-02  0.1688581E+00
         21   -1    0    0  501  502  0.00000000000E+00  0.00000000000E+00  0.39182466056E+02  0.39182466056E+02  0.00000000000E+00 0.  1.
         21   -1    0    0  502  503 -0.00000000000E+00 -0.00000000000E+00 -0.13855536476E+02  0.13855536476E+02  0.00000000000E+00 0.  1.
          5    1    1    2  501    0 -0.10636489884E+02  0.20597492714E+02  0.99936678430E+01  0.25244108622E+02  0.00000000000E+00 0. -1.
         -5    1    1    2    0  503  0.10636489884E+02 -0.20597492714E+02  0.15333261737E+02  0.27793893910E+02  0.00000000000E+00 0.  1.
<mgrwt>
<rscale>  2 0.23181709E+02</rscale>
<asrwt>0</asrwt>
<pdfrwt beam="1">  1       21 0.60280717E-02 0.23181709E+02</pdfrwt>
<pdfrwt beam="2">  1       21 0.21316210E-02 0.23181709E+02</pdfrwt>
<totfact> 0.14456213E+08</totfact>
</mgrwt>
</event>
<event>
 4    1  0.7119201E+004  0.2716791E+02  0.7546771E-02  0.1631684E+00
         21   -1    0    0  501  502  0.00000000000E+00  0.00000000000E+00  0.36828585107E+01  0.36828585107E+01  0.00000000000E+00 0. -1.
         21   -1    0    0  502  503 -0.00000000000E+00 -0.00000000000E+00 -0.25415338746E+03  0.25415338746E+03  0.00000000000E+00 0. -1.
          4    1    1    2  501    0  0.19511171374E+02  0.18905271687E+02 -0.65954498819E+02  0.71330856019E+02  0.00000000000E+00 0.  1.
         -4    1    1    2    0  503 -0.19511171374E+02 -0.18905271687E+02 -0.18451603013E+03  0.18650538995E+03  0.00000000000E+00 0. -1.
<mgrwt>
<rscale>  2 0.27167906E+02</rscale>
<asrwt>0</asrwt>
<pdfrwt beam="1">  1       21 0.56659338E-03 0.27167906E+02</pdfrwt>
<pdfrwt beam="2">  1       21 0.39100537E-01 0.27167906E+02</pdfrwt>
<totfact> 0.44398552E+07</totfact>
</mgrwt>
</event>
<event>
 4    1  0.7119201E+004  0.2431041E+02  0.7546771E-02  0.1671109E+00
         21   -1    0    0  503  502  0.00000000000E+00  0.00000000000E+00  0.72107660791E+01  0.72107660791E+01  0.00000000000E+00 0.  1.
         21   -1    0    0  501  503 -0.00000000000E+00 -0.00000000000E+00 -0.82291548658E+02  0.82291548658E+02  0.00000000000E+00 0.  1.
          2    1    1    2  501    0  0.23348121475E+02 -0.67720772492E+01 -0.40380084216E+02  0.47133289807E+02  0.00000000000E+00 0.  1.
         -2    1    1    2    0  502 -0.23348121475E+02  0.67720772492E+01 -0.34700698362E+02  0.42369024930E+02  0.00000000000E+00 0. -1.
<mgrwt>
<rscale>  2 0.24310405E+02</rscale>
<asrwt>0</asrwt>
<pdfrwt beam="1">  1       21 0.11093486E-02 0.24310405E+02</pdfrwt>
<pdfrwt beam="2">  1       21 0.12660238E-01 0.24310405E+02</pdfrwt>
<totfact> 0.11708528E+08</totfact>
</mgrwt>
</event>
<event>
 4    1  0.7119201E+004  0.3166752E+02  0.7546771E-02  0.1580356E+00
         21   -1    0    0  503  502  0.00000000000E+00  0.00000000000E+00  0.19666559024E+02  0.19666559024E+02  0.00000000000E+00 0. -1.
         21   -1    0    0  501  503 -0.00000000000E+00 -0.00000000000E+00 -0.64322144546E+02  0.64322144546E+02  0.00000000000E+00 0. -1.
          5    1    1    2  501    0 -0.25781355646E+02  0.18388956488E+02 -0.41445346777E+02  0.52158880252E+02  0.00000000000E+00 0. -1.
         -5    1    1    2    0  502  0.25781355646E+02 -0.18388956488E+02 -0.32102387454E+01  0.31829823318E+02  0.00000000000E+00 0.  1.
<mgrwt>
<rscale>  2 0.31667523E+02</rscale>
<asrwt>0</asrwt>
<pdfrwt beam="1">  1       21 0.30256245E-02 0.31667523E+02</pdfrwt>
<pdfrwt beam="2">  1       21 0.98957145E-02 0.31667523E+02</pdfrwt>
<totfact> 0.40206974E+07</totfact>
</mgrwt>
</event>
<event>
 4    1  0.7119201E+004  0.2258877E+02  0.7546771E-02  0.1698264E+00
         21   -1    0    0  501  502  0.00000000000E+00  0.00000000000E+00  0.29543572541E+03  0.29543572541E+03  0.00000000000E+00 0. -1.
         21   -1    0    0  502  503 -0.00000000000E+00 -0.00000000000E+00 -0.17371040477E+01  0.17371040477E+01  0.00000000000E+00 0. -1.
          5    1    1    2  501    0 -0.22425937020E+02  0.27073632328E+01  0.13558369121E+03  0.13745250012E+03  0.00000000000E+00 0. -1.
         -5    1    1    2    0  503  0.22425937020E+02 -0.27073632328E+01  0.15811493015E+03  0.15972032933E+03  0.00000000000E+00 0.  1.
<mgrwt>
<rscale>  2 0.22588769E+02</rscale>
<asrwt>0</asrwt>
<pdfrwt beam="1">  1       21 0.45451610E-01 0.22588769E+02</pdfrwt>
<pdfrwt beam="2">  1       21 0.26724701E-03 0.22588769E+02</pdfrwt>
<totfact> 0.96292237E+07</totfact>
</mgrwt>
</event>
<event>
 4    1  0.7119201E+004  0.2814032E+02  0.7546771E-02  0.1619604E+00
         21   -1    0    0  501  502  0.00000000000E+00  0.00000000000E+00  0.22925864799E+02  0.22925864799E+02  0.00000000000E+00 0. -1.
         21   -1    0    0  502  503 -0.00000000000E+00 -0.00000000000E+00 -0.36422117941E+02  0.36422117941E+02  0.00000000000E+00 0. -1.
          3    1    1    2  501    0  0.19145901013E+02  0.20623097918E+02 -0.40179772873E-02  0.28140321772E+02  0.00000000000E+00 0.  1.
         -3    1    1    2    0  503 -0.19145901013E+02 -0.20623097918E+02 -0.13492235165E+02  0.31207660967E+02  0.00000000000E+00 0. -1.
<mgrwt>
<rscale>  2 0.28140321E+02</rscale>
<asrwt>0</asrwt>
<pdfrwt beam="1">  1       21 0.35270561E-02 0.28140321E+02</pdfrwt>
<pdfrwt beam="2">  1       21 0.56034027E-02 0.28140321E+02</pdfrwt>
<totfact> 0.78209135E+07</totfact>
</mgrwt>
</event>
<event>
 4    1  0.7119201E+004  0.2194172E+02  0.7546771E-02  0.1709262E+00
         21   -1    0    0  503  502  0.00000000000E+00  0.00000000000E+00  0.37094866747E+01  0.37094866747E+01  0.00000000000E+00 0.  1.
         21   -1    0    0  501  503 -0.00000000000E+00 -0.00000000000E+00 -0.17336881648E+03  0.17336881648E+03  0.00000000000E+00 0.  1.
          4    1    1    2  501    0 -0.21809522786E+02 -0.24049449087E+01 -0.40437324862E+02  0.46006698275E+02  0.00000000000E+00 0. -1.
         -4    1    1    2    0  502  0.21809522786E+02  0.24049449087E+01 -0.12922200494E+03  0.13107160488E+03  0.00000000000E+00 0.  1.
<mgrwt>
<rscale>  2 0.21941719E+02</rscale>
<asrwt>0</asrwt>
<pdfrwt beam="1">  1       21 0.57069039E-03 0.21941719E+02</pdfrwt>
<pdfrwt beam="2">  1       21 0.26672120E-01 0.21941719E+02</pdfrwt>
<totfact> 0.84330842E+07</totfact>
</mgrwt>
</event>
<event>
 4    1  0.7119201E+004  0.2301914E+02  0.7546771E-02  0.1691200E+00
         21   -1    0    0  501  502  0.00000000000E+00  0.00000000000E+00  0.89609920259E+02  0.89609920259E+02  0.00000000000E+00 0. -1.
         21   -1    0    0  502  503 -0.00000000000E+00 -0.00000000000E+00 -0.12264158754E+02  0.12264158754E+02  0.00000000000E+00 0. -1.
          1    1    1    2  501    0 -0.21509970102E+02  0.81976777251E+01  0.20177552412E+01  0.23107402928E+02  0.00000000000E+00 0.  1.
         -1    1    1    2    0  503  0.21509970102E+02 -0.81976777251E+01  0.75328006264E+02  0.78766676085E+02  0.00000000000E+00 0. -1.
<mgrwt>
<rscale>  2 0.23019138E+02</rscale>
<asrwt>0</asrwt>
<pdfrwt beam="1">  1       21 0.13786141E-01 0.23019138E+02</pdfrwt>
<pdfrwt beam="2">  1       21 0.18867937E-02 0.23019138E+02</pdfrwt>
<totfact> 0.44571750E+07</totfact>
</mgrwt>
</event>
<event>
 4    1  0.7119201E+004  0.2537987E+02  0.7546771E-02  0.1655605E+00
         21   -1    0    0  503  502  0.00000000000E+00  0.00000000000E+00  0.35662812721E+01  0.35662812721E+01  0.00000000000E+00 0. -1.
         21   -1    0    0  501  503 -0.00000000000E+00 -0.00000000000E+00 -0.18474873685E+03  0.18474873685E+03  0.00000000000E+00 0. -1.
          2    1    1    2  501    0 -0.14383908721E+02 -0.20910302697E+02 -0.76513460325E+02  0.80612946851E+02  0.00000000000E+00 0. -1.
         -2    1    1    2    0  502  0.14383908721E+02  0.20910302697E+02 -0.10466899525E+03  0.10770207127E+03  0.00000000000E+00 0.  1.
<mgrwt>
<rscale>  2 0.25379866E+02</rscale>
<asrwt>0</asrwt>
<pdfrwt beam="1">  1       21 0.54865873E-03 0.25379866E+02</pdfrwt>
<pdfrwt beam="2">  1       21 0.28422879E-01 0.25379866E+02</pdfrwt>
<totfact> 0.82778138E+07</totfact>
</mgrwt>
</event>
<event>
 4    1  0.7119201E+004  0.2416705E+02  0.7546771E-02  0.1673262E+00
         21   -1    0    0  503  502  0.00000000000E+00  0.00000000000E+00  0.23337883326E+03  0.23337883326E+03  0.00000000000E+00 0.  1.
         21   -1    0    0  501  503 -0.00000000000E+00 -0.00000000000E+00 -0.25383659977E+01  0.25383659977E+01  0.00000000000E+00 0.  1.
          4    1    1    2  501    0 -0.98298331897E+01 -0.22077610567E+02  0.10141214035E+03  0.10425194827E+03  0.00000000000E+00 0. -1.
         -4    1    1    2    0  502  0.98298331897E+01  0.22077610567E+02  0.12942832691E+03  0.13166525098E+03  0.00000000000E+00 0.  1.
<mgrwt>
<rscale>  2 0.24167054E+02</rscale>
<asrwt>0</asrwt>
<pdfrwt beam="1">  1       21 0.35904419E-01 0.24167054E+02</pdfrwt>
<pdfrwt beam="2">  1       21 0.39051803E-03 0.24167054E+02</pdfrwt>
<totfact> 0.87903322E+07</totfact>
</mgrwt>
</event>
<event>
 4    1  0.7119201E+004  0.2122694E+02  0.7546771E-02  0.1721975E+00
         21   -1    0    0  501  502  0.00000000000E+00  0.00000000000E+00  0.73065145673E+01  0.73065145673E+01  0.00000000000E+00 0.  1.
         21   -1    0    0  502  503 -0.00000000000E+00 -0.00000000000E+00 -0.66824317789E+02  0.66824317789E+02  0.00000000000E+00 0.  1.
          4    1    1    2  501    0  0.19538469961E+02 -0.82964437007E+01 -0.40054335896E+02  0.45331364535E+02  0.00000000000E+00 0. -1.
         -4    1    1    2    0  503 -0.19538469961E+02  0.82964437007E+01 -0.19463467325E+02  0.28799467822E+02  0.00000000000E+00 0.  1.
<mgrwt>
<rscale>  2 0.21226935E+02</rscale>
<asrwt>0</asrwt>
<pdfrwt beam="1">  1       21 0.11240792E-02 0.21226935E+02</pdfrwt>
<pdfrwt beam="2">  1       21 0.10280664E-01 0.21226935E+02</pdfrwt>
<totfact> 0.15605669E+08</totfact>
</mgrwt>
</event>
<event>
 4    1  0.7119201E+004  0.2723378E+02  0.7546771E-02  0.1630846E+00
         21   -1    0    0  501  502  0.00000000000E+00  0.00000000000E+00  0.27007582781E+04  0.27007582781E+04  0.00000000000E+00 0. -1.
         21   -1    0    0  502  503 -0.00000000000E+00 -0.00000000000E+00 -0.28026757943E+00  0.28026757943E+00  0.00000000000E+00 0. -1.
          4    1    1    2  501    0 -0.13167697640E+01  0.27201923514E+02  0.11585053372E+04  0.11588253944E+04  0.00000000000E+00 0. -1.
         -4    1    1    2    0  503  0.13167697640E+01 -0.27201923514E+02  0.15419726734E+04  0.15422131513E+04  0.00000000000E+00 0.  1.
<mgrwt>
<rscale>  2 0.27233775E+02</rscale>
<asrwt>0</asrwt>
<pdfrwt beam="1">  1       21 0.41548043E+00 0.27233775E+02</pdfrwt>
<pdfrwt beam="2">  1       21 0.43120252E-04 0.27233775E+02</pdfrwt>
<totfact> 0.40362330E+06</totfact>
</mgrwt>
</event>
<event>
 4    1  0.7119201E+004  0.2119655E+02  0.7546771E-02  0.1722529E+00
         21   -1    0    0  501  502  0.00000000000E+00  0.00000000000E+00  0.33290645391E+01  0.33290645391E+01  0.00000000000E+00 0. -1.
         21   -1    0    0  502  503 -0.00000000000E+00 -0.00000000000E+00 -0.19328345945E+03  0.19328345945E+03  0.00000000000E+00 0. -1.
          4    1    1    2  501    0 -0.18901131619E+02  0.95937937021E+01 -0.14897822260E+03  0.15047858473E+03  0.00000000000E+00 0. -1.
         -4    1    1    2    0  503  0.18901131619E+02 -0.95937937021E+01 -0.40976172313E+02  0.46133939258E+02  0.00000000000E+00 0.  1.
<mgrwt>
<rscale>  2 0.21196548E+02</rscale>
<asrwt>0</asrwt>
<pdfrwt beam="1">  1       21 0.51216387E-03 0.21196548E+02</pdfrwt>
<pdfrwt beam="2">  1       21 0.29735911E-01 0.21196548E+02</pdfrwt>
<totfact> 0.80572247E+07</totfact>
</mgrwt>
</event>
<event>
 4    1  0.7119201E+004  0.2426316E+02  0.7546771E-02  0.1671817E+00
         21   -1    0    0  501  502  0.00000000000E+00  0.00000000000E+00  0.20017742004E+02  0.20017742004E+02  0.00000000000E+00 0. -1.
         21   -1    0    0  502  503 -0.00000000000E+00 -0.00000000000E+00 -0.30406758626E+02  0.30406758626E+02  0.00000000000E+00 0. -1.
          1    1    1    2  501    0 -0.23809421101E+02  0.46703810805E+01 -0.97616847950E+01  0.26153230826E+02  0.00000000000E+00 0.  1.
         -1    1    1    2    0  503  0.23809421101E+02 -0.46703810805E+01 -0.62733182707E+00  0.24271269803E+02  0.00000000000E+00 0. -1.
<mgrwt>
<rscale>  2 0.24263161E+02</rscale>
<asrwt>0</asrwt>
<pdfrwt beam="1">  1       21 0.30796526E-02 0.24263161E+02</pdfrwt>
<pdfrwt beam="2">  1       21 0.46779628E-02 0.24263161E+02</pdfrwt>
<totfact> 0.12426259E+08</totfact>
</mgrwt>
</event>
<event>
 4    1  0.7119201E+004  0.3134910E+02  0.7546771E-02  0.1583638E+00
         21   -1    0    0  501  502  0.00000000000E+00  0.00000000000E+00  0.47675036969E+02  0.47675036969E+02  0.00000000000E+00 0. -1.
         21   -1    0    0  502  503 -0.00000000000E+00 -0.00000000000E+00 -0.21170744323E+02  0.21170744323E+02  0.00000000000E+00 0. -1.
          1    1    1    2  501    0  0.31304770198E+02  0.16666510515E+01  0.76692032669E+01  0.32273565679E+02  0.00000000000E+00 0.  1.
         -1    1    1    2    0  503 -0.31304770198E+02 -0.16666510515E+01  0.18835089379E+02  0.36572215612E+02  0.00000000000E+00 0. -1.
<mgrwt>
<rscale>  2 0.31349105E+02</rscale>
<asrwt>0</asrwt>
<pdfrwt beam="1">  1       21 0.73346211E-02 0.31349105E+02</pdfrwt>
<pdfrwt beam="2">  1       21 0.32570376E-02 0.31349105E+02</pdfrwt>
<totfact> 0.58686570E+07</totfact>
</mgrwt>
</event>
<event>
 4    1  0.7119201E+004  0.3045965E+02  0.7546771E-02  0.1593063E+00
         21   -1    0    0  503  502  0.00000000000E+00  0.00000000000E+00  0.50262289412E+02  0.50262289412E+02  0.00000000000E+00 0. -1.
         21   -1    0    0  501  503 -0.00000000000E+00 -0.00000000000E+00 -0.29272840970E+02  0.29272840970E+02  0.00000000000E+00 0. -1.
          2    1    1    2  501    0 -0.17879220544E+02 -0.24660161853E+02 -0.13675860107E+02  0.33388909230E+02  0.00000000000E+00 0. -1.
         -2    1    1    2    0  502  0.17879220544E+02  0.24660161853E+02  0.34665308548E+02  0.46146221152E+02  0.00000000000E+00 0.  1.
<mgrwt>
<rscale>  2 0.30459647E+02</rscale>
<asrwt>0</asrwt>
<pdfrwt beam="1">  1       21 0.77326599E-02 0.30459647E+02</pdfrwt>
<pdfrwt beam="2">  1       21 0.45035140E-02 0.30459647E+02</pdfrwt>
<totfact> 0.31941050E+07</totfact>
</mgrwt>
</event>
<event>
 4    1  0.7119201E+004  0.3057517E+02  0.7546771E-02  0.1591817E+00
         21   -1    0    0  503  502  0.00000000000E+00  0.00000000000E+00  0.81760103590E+03  0.81760103590E+03  0.00000000000E+00 0. -1.
         21   -1    0    0  501  503 -0.00000000000E+00 -0.00000000000E+00 -0.18506908334E+01  0.18506908334E+01  0.00000000000E+00 0. -1.
          4    1    1    2  501    0  0.25305043541E+02 -0.17160884973E+02  0.15458001192E+03  0.15757481171E+03  0.00000000000E+00 0.  1.
         -4    1    1    2    0  502 -0.25305043541E+02  0.17160884973E+02  0.66117033315E+03  0.66187691502E+03  0.00000000000E+00 0. -1.
<mgrwt>
<rscale>  2 0.30575173E+02</rscale>
<asrwt>0</asrwt>
<pdfrwt beam="1">  1       21 0.12578449E+00 0.30575173E+02</pdfrwt>
<pdfrwt beam="2">  1       21 0.28472232E-03 0.30575173E+02</pdfrwt>
<totfact> 0.10998356E+07</totfact>
</mgrwt>
</event>
<event>
 4    1  0.7119201E+004  0.2308113E+02  0.7546771E-02  0.1690198E+00
         21   -1    0    0  501  502  0.00000000000E+00  0.00000000000E+00  0.13322927428E+02  0.13322927428E+02  0.00000000000E+00 0.  1.
         21   -1    0    0  502  503 -0.00000000000E+00 -0.00000000000E+00 -0.56223244042E+02  0.56223244042E+02  0.00000000000E+00 0.  1.
          2    1    1    2  501    0  0.14344947905E+02  0.18082061853E+02 -0.27634203796E+01  0.23245967036E+02  0.00000000000E+00 0.  1.
         -2    1    1    2    0  503 -0.14344947905E+02 -0.18082061853E+02 -0.40136896235E+02  0.46300204434E+02  0.00000000000E+00 0. -1.
<mgrwt>
<rscale>  2 0.23081128E+02</rscale>
<asrwt>0</asrwt>
<pdfrwt beam="1">  1       21 0.20496812E-02 0.23081128E+02</pdfrwt>
<pdfrwt beam="2">  1       21 0.86497297E-02 0.23081128E+02</pdfrwt>
<totfact> 0.85342846E+07</totfact>
</mgrwt>
</event>
<event>
 4    1  0.7119201E+004  0.2347607E+02  0.7546771E-02  0.1683907E+00
         21   -1    0    0  503  502  0.00000000000E+00  0.00000000000E+00  0.34914925775E+03  0.34914925775E+03  0.00000000000E+00 0. -1.
         21   -1    0    0  501  503 -0.00000000000E+00 -0.00000000000E+00 -0.21727779500E+01  0.21727779500E+01  0.00000000000E+00 0. -1.
          3    1    1    2  501    0 -0.18074106388E+02 -0.14981736748E+02  0.81619201337E+02  0.84928321452E+02  0.00000000000E+00 0. -1.
         -3    1    1    2    0  502  0.18074106388E+02  0.14981736748E+02  0.26535727846E+03  0.26639371425E+03  0.00000000000E+00 0.  1.
<mgrwt>
<rscale>  2 0.23476068E+02</rscale>
<asrwt>0</asrwt>
<pdfrwt beam="1">  1       21 0.53715226E-01 0.23476068E+02</pdfrwt>
<pdfrwt beam="2">  1       21 0.33427381E-03 0.23476068E+02</pdfrwt>
<totfact> 0.50738206E+07</totfact>
</mgrwt>
</event>
<event>
 4    1  0.7119201E+004  0.2275339E+02  0.7546771E-02  0.1695539E+00
         21   -1    0    0  503  502  0.00000000000E+00  0.00000000000E+00  0.25264118436E+01  0.25264118436E+01  0.00000000000E+00 0.  1.
         21   -1    0    0  501  503 -0.00000000000E+00 -0.00000000000E+00 -0.20517069114E+03  0.20517069114E+03  0.00000000000E+00 0.  1.
          3    1    1    2  501    0 -0.19593054007E+02  0.11568443173E+02 -0.97704515986E+02  0.10031893683E+03  0.00000000000E+00 0. -1.
         -3    1    1    2    0  502  0.19593054007E+02 -0.11568443173E+02 -0.10493976331E+03  0.10737816615E+03  0.00000000000E+00 0.  1.
<mgrwt>
<rscale>  2 0.22753388E+02</rscale>
<asrwt>0</asrwt>
<pdfrwt beam="1">  1       21 0.38867874E-03 0.22753388E+02</pdfrwt>
<pdfrwt beam="2">  1       21 0.31564722E-01 0.22753388E+02</pdfrwt>
<totfact> 0.11048487E+08</totfact>
</mgrwt>
</event>
<event>
 4    1  0.7119201E+004  0.2058836E+02  0.7546771E-02  0.1733875E+00
         21   -1    0    0  501  502  0.00000000000E+00  0.00000000000E+00  0.36809395380E+00  0.36809395380E+00  0.00000000000E+00 0. -1.
         21   -1    0    0  502  503 -0.00000000000E+00 -0.00000000000E+00 -0.11827686724E+04  0.11827686724E+04  0.00000000000E+00 0. -1.
          3    1    1    2  501    0  0.13753994798E+02  0.15320193374E+02 -0.68730008710E+03  0.68760838450E+03  0.00000000000E+00 0.  1.
         -3    1    1    2    0  503 -0.13753994798E+02 -0.15320193374E+02 -0.49510049131E+03  0.49552838182E+03  0.00000000000E+00 0. -1.
<mgrwt>
<rscale>  2 0.20588363E+02</rscale>
<asrwt>0</asrwt>
<pdfrwt beam="1">  1       21 0.56629929E-04 0.20588363E+02</pdfrwt>
<pdfrwt beam="2">  1       21 0.18196412E+00 0.20588363E+02</pdfrwt>
<totfact> 0.43320692E+07</totfact>
</mgrwt>
</event>
<event>
 4    1  0.7119201E+004  0.3207253E+02  0.7546771E-02  0.1576248E+00
         21   -1    0    0  503  502  0.00000000000E+00  0.00000000000E+00  0.35940467025E+03  0.35940467025E+03  0.00000000000E+00 0. -1.
         21   -1    0    0  501  503 -0.00000000000E+00 -0.00000000000E+00 -0.35445067145E+01  0.35445067145E+01  0.00000000000E+00 0. -1.
          5    1    1    2  501    0  0.24856176341E+02 -0.20268632857E+02  0.25755776922E+03  0.25954701205E+03  0.00000000000E+00 0.  1.
         -5    1    1    2    0  502 -0.24856176341E+02  0.20268632857E+02  0.98302394318E+02  0.10340216491E+03  0.00000000000E+00 0. -1.
<mgrwt>
<rscale>  2 0.32072527E+02</rscale>
<asrwt>0</asrwt>
<pdfrwt beam="1">  1       21 0.55292997E-01 0.32072527E+02</pdfrwt>
<pdfrwt beam="2">  1       21 0.54530901E-03 0.32072527E+02</pdfrwt>
<totfact> 0.24738888E+07</totfact>
</mgrwt>
</event>
<event>
 4    1  0.7119201E+004  0.2084480E+02  0.7546771E-02  0.1729032E+00
         21   -1    0    0  501  502  0.00000000000E+00  0.00000000000E+00  0.44026373367E+01  0.44026373367E+01  0.00000000000E+00 0. -1.
         21   -1    0    0  502  503 -0.00000000000E+00 -0.00000000000E+00 -0.10359422497E+03  0.10359422497E+03  0.00000000000E+00 0. -1.
          3    1    1    2  501    0 -0.19349869374E+02 -0.77516472526E+01 -0.37849360836E+02  0.43209716449E+02  0.00000000000E+00 0.  1.
         -3    1    1    2    0  503  0.19349869374E+02  0.77516472526E+01 -0.61342226793E+02  0.64787145854E+02  0.00000000000E+00 0. -1.
<mgrwt>
<rscale>  2 0.20844795E+02</rscale>
<asrwt>0</asrwt>
<pdfrwt beam="1">  1       21 0.67732887E-03 0.20844795E+02</pdfrwt>
<pdfrwt beam="2">  1       21 0.15937572E-01 0.20844795E+02</pdfrwt>
<totfact> 0.15843248E+08</totfact>
</mgrwt>
</event>
<event>
 4    1  0.7119201E+004  0.3142466E+02  0.7546771E-02  0.1582854E+00
         21   -1    0    0  501  502  0.00000000000E+00  0.00000000000E+00  0.10909253155E+03  0.10909253155E+03  0.00000000000E+00 0.  1.
         21   -1    0    0  502  503 -0.00000000000E+00 -0.00000000000E+00 -0.91723996426E+01  0.91723996426E+01  0.00000000000E+00 0.  1.
          5    1    1    2  501    0  0.18475025852E+02 -0.25420128274E+02  0.43186263667E+02  0.53409389355E+02  0.00000000000E+00 0.  1.
         -5    1    1    2    0  503 -0.18475025852E+02  0.25420128274E+02  0.56733868241E+02  0.64855541839E+02  0.00000000000E+00 0. -1.
<mgrwt>
<rscale>  2 0.31424664E+02</rscale>
<asrwt>0</asrwt>
<pdfrwt beam="1">  1       21 0.16783465E-01 0.31424664E+02</pdfrwt>
<pdfrwt beam="2">  1       21 0.14111385E-02 0.31424664E+02</pdfrwt>
<totfact> 0.53339156E+07</totfact>
</mgrwt>
</event>
<event>
 4    1  0.7119201E+004  0.3249782E+02  0.7546771E-02  0.1572014E+00
         21   -1    0    0  503  502  0.00000000000E+00  0.00000000000E+00  0.53227147763E+02  0.53227147763E+02  0.00000000000E+00 0.  1.
         21   -1    0    0  501  503 -0.00000000000E+00 -0.00000000000E+00 -0.19861736642E+02  0.19861736642E+02  0.00000000000E+00 0.  1.
          2    1    1    2  501    0 -0.62161101452E+01 -0.31897780899E+02  0.17848115005E+02  0.37076456962E+02  0.00000000000E+00 0.  1.
         -2    1    1    2    0  502  0.62161101452E+01  0.31897780899E+02  0.15517296115E+02  0.36012427443E+02  0.00000000000E+00 0. -1.
<mgrwt>
<rscale>  2 0.32497822E+02</rscale>
<asrwt>0</asrwt>
<pdfrwt beam="1">  1       21 0.81887919E-02 0.32497822E+02</pdfrwt>
<pdfrwt beam="2">  1       21 0.30556518E-02 0.32497822E+02</pdfrwt>
<totfact> 0.54551328E+07</totfact>
</mgrwt>
</event>
<event>
 4    1  0.7119201E+004  0.2957352E+02  0.7546771E-02  0.1602851E+00
         21   -1    0    0  501  502  0.00000000000E+00  0.00000000000E+00  0.51886728705E+03  0.51886728705E+03  0.00000000000E+00 0.  1.
         21   -1    0    0  502  503 -0.00000000000E+00 -0.00000000000E+00 -0.21775149469E+01  0.21775149469E+01  0.00000000000E+00 0.  1.
          2    1    1    2  501    0 -0.26983447306E+02 -0.12103176752E+02  0.38217249634E+03  0.38331502745E+03  0.00000000000E+00 0. -1.
         -2    1    1    2    0  503  0.26983447306E+02  0.12103176752E+02  0.13451727577E+03  0.13772977455E+03  0.00000000000E+00 0.  1.
<mgrwt>
<rscale>  2 0.29573524E+02</rscale>
<asrwt>0</asrwt>
<pdfrwt beam="1">  1       21 0.79825638E-01 0.29573524E+02</pdfrwt>
<pdfrwt beam="2">  1       21 0.33500271E-03 0.29573524E+02</pdfrwt>
<totfact> 0.23602489E+07</totfact>
</mgrwt>
</event>
<event>
 4    1  0.7119201E+004  0.2932810E+02  0.7546771E-02  0.1605637E+00
         21   -1    0    0  503  502  0.00000000000E+00  0.00000000000E+00  0.43397700883E+02  0.43397700883E+02  0.00000000000E+00 0.  1.
         21   -1    0    0  501  503 -0.00000000000E+00 -0.00000000000E+00 -0.21703686419E+02  0.21703686419E+02  0.00000000000E+00 0.  1.
          2    1    1    2  501    0  0.22804130813E+02  0.18442048900E+02  0.20436834065E+02  0.35746352770E+02  0.00000000000E+00 0. -1.
         -2    1    1    2    0  502 -0.22804130813E+02 -0.18442048900E+02  0.12571803988E+01  0.29355034531E+02  0.00000000000E+00 0.  1.
<mgrwt>
<rscale>  2 0.29328102E+02</rscale>
<asrwt>0</asrwt>
<pdfrwt beam="1">  1       21 0.66765694E-02 0.29328102E+02</pdfrwt>
<pdfrwt beam="2">  1       21 0.33390287E-02 0.29328102E+02</pdfrwt>
<totfact> 0.64837296E+07</totfact>
</mgrwt>
</event>
<event>
 4    1  0.7119201E+004  0.2398177E+02  0.7546771E-02  0.1676073E+00
         21   -1    0    0  503  502  0.00000000000E+00  0.00000000000E+00  0.45578906971E+02  0.45578906971E+02  0.00000000000E+00 0.  1.
         21   -1    0    0  501  503 -0.00000000000E+00 -0.00000000000E+00 -0.19358357776E+02  0.19358357776E+02  0.00000000000E+00 0.  1.
          5    1    1    2  501    0 -0.46600056748E+01 -0.23524663402E+02  0.32268866463E+02  0.40204541831E+02  0.00000000000E+00 0.  1.
         -5    1    1    2    0  502  0.46600056748E+01  0.23524663402E+02 -0.60483172676E+01  0.24732722916E+02  0.00000000000E+00 0. -1.
<mgrwt>
<rscale>  2 0.23981773E+02</rscale>
<asrwt>0</asrwt>
<pdfrwt beam="1">  1       21 0.70121395E-02 0.23981773E+02</pdfrwt>
<pdfrwt beam="2">  1       21 0.29782089E-02 0.23981773E+02</pdfrwt>
<totfact> 0.68126071E+07</totfact>
</mgrwt>
</event>
<event>
 4    1  0.7119201E+004  0.2983187E+02  0.7546771E-02  0.1599955E+00
         21   -1    0    0  503  502  0.00000000000E+00  0.00000000000E+00  0.18514262865E+03  0.18514262865E+03  0.00000000000E+00 0.  1.
         21   -1    0    0  501  503 -0.00000000000E+00 -0.00000000000E+00 -0.57719616354E+01  0.57719616354E+01  0.00000000000E+00 0.  1.
          1    1    1    2  501    0  0.50483624866E+01  0.29401609603E+02  0.50650615312E+02  0.58782866913E+02  0.00000000000E+00 0. -1.
         -1    1    1    2    0  502 -0.50483624866E+01 -0.29401609603E+02  0.12872005170E+03  0.13213172337E+03  0.00000000000E+00 0.  1.
<mgrwt>
<rscale>  2 0.29831872E+02</rscale>
<asrwt>0</asrwt>
<pdfrwt beam="1">  1       21 0.28483477E-01 0.29831872E+02</pdfrwt>
<pdfrwt beam="2">  1       21 0.88799424E-03 0.29831872E+02</pdfrwt>
<totfact> 0.41615356E+07</totfact>
</mgrwt>
</event>
<event>
 4    1  0.7119201E+004  0.4367825E+02  0.7546771E-02  0.1482766E+00
         21   -1    0    0  501  502  0.00000000000E+00  0.00000000000E+00  0.30203507840E+02  0.30203507840E+02  0.00000000000E+00 0. -1.
         21   -1    0    0  502  503 -0.00000000000E+00 -0.00000000000E+00 -0.65645509366E+02  0.65645509366E+02  0.00000000000E+00 0. -1.
          3    1    1    2  501    0 -0.69517663769E+01  0.43121485554E+02 -0.84041515709E+01  0.44479425983E+02  0.00000000000E+00 0.  1.
         -3    1    1    2    0  503  0.69517663769E+01 -0.43121485554E+02 -0.27037849956E+02  0.51369591223E+02  0.00000000000E+00 0. -1.
<mgrwt>
<rscale>  2 0.43678251E+02</rscale>
<asrwt>0</asrwt>
<pdfrwt beam="1">  1       21 0.46466936E-02 0.43678251E+02</pdfrwt>
<pdfrwt beam="2">  1       21 0.10099309E-01 0.43678251E+02</pdfrwt>
<totfact> 0.20730411E+07</totfact>
</mgrwt>
</event>
<event>
 4    1  0.7119201E+004  0.2134923E+02  0.7546771E-02  0.1719756E+00
         21   -1    0    0  501  502  0.00000000000E+00  0.00000000000E+00  0.43933167921E+02  0.43933167921E+02  0.00000000000E+00 0.  1.
         21   -1    0    0  502  503 -0.00000000000E+00 -0.00000000000E+00 -0.18656463760E+02  0.18656463760E+02  0.00000000000E+00 0.  1.
          2    1    1    2  501    0 -0.12593908013E+02 -0.17239003036E+02  0.33489086591E+02  0.39715345465E+02  0.00000000000E+00 0. -1.
         -2    1    1    2    0  503  0.12593908013E+02  0.17239003036E+02 -0.82123824298E+01  0.22874286216E+02  0.00000000000E+00 0.  1.
<mgrwt>
<rscale>  2 0.21349233E+02</rscale>
<asrwt>0</asrwt>
<pdfrwt beam="1">  1       21 0.67589489E-02 0.21349233E+02</pdfrwt>
<pdfrwt beam="2">  1       21 0.28702252E-02 0.21349233E+02</pdfrwt>
<totfact> 0.74159399E+07</totfact>
</mgrwt>
</event>
<event>
 4    1  0.7119201E+004  0.2943524E+02  0.7546771E-02  0.1604416E+00
         21   -1    0    0  501  502  0.00000000000E+00  0.00000000000E+00  0.10223573428E+02  0.10223573428E+02  0.00000000000E+00 0.  1.
         21   -1    0    0  502  503 -0.00000000000E+00 -0.00000000000E+00 -0.91840927907E+02  0.91840927907E+02  0.00000000000E+00 0.  1.
          1    1    1    2  501    0 -0.70711089423E+01 -0.28573292138E+02 -0.26627222477E+02  0.39691845285E+02  0.00000000000E+00 0. -1.
         -1    1    1    2    0  503  0.70711089423E+01  0.28573292138E+02 -0.54990132001E+02  0.62372656051E+02  0.00000000000E+00 0.  1.
<mgrwt>
<rscale>  2 0.29435244E+02</rscale>
<asrwt>0</asrwt>
<pdfrwt beam="1">  1       21 0.15728575E-02 0.29435244E+02</pdfrwt>
<pdfrwt beam="2">  1       21 0.14129373E-01 0.29435244E+02</pdfrwt>
<totfact> 0.59925607E+07</totfact>
</mgrwt>
</event>
<event>
 4    1  0.7119201E+004  0.2108950E+02  0.7546771E-02  0.1724492E+00
         21   -1    0    0  503  502  0.00000000000E+00  0.00000000000E+00  0.44135462906E+03  0.44135462906E+03  0.00000000000E+00 0.  1.
         21   -1    0    0  501  503 -0.00000000000E+00 -0.00000000000E+00 -0.14282216634E+01  0.14282216634E+01  0.00000000000E+00 0.  1.
          5    1    1    2  501    0  0.19810103607E+02  0.72337199652E+01  0.34009029753E+03  0.34074356543E+03  0.00000000000E+00 0.  1.
         -5    1    1    2    0  502 -0.19810103607E+02 -0.72337199652E+01  0.99836109867E+02  0.10203928529E+03  0.00000000000E+00 0. -1.
<mgrwt>
<rscale>  2 0.21089498E+02</rscale>
<asrwt>0</asrwt>
<pdfrwt beam="1">  1       21 0.67900604E-01 0.21089498E+02</pdfrwt>
<pdfrwt beam="2">  1       21 0.21972676E-03 0.21089498E+02</pdfrwt>
<totfact> 0.56948040E+07</totfact>
</mgrwt>
</event>
<event>
 4    1  0.7119201E+004  0.2597718E+02  0.7546771E-02  0.1647350E+00
         21   -1    0    0  503  502  0.00000000000E+00  0.00000000000E+00  0.11145085711E+02  0.11145085711E+02  0.00000000000E+00 0. -1.
         21   -1    0    0  501  503 -0.00000000000E+00 -0.00000000000E+00 -0.83797973759E+02  0.83797973759E+02  0.00000000000E+00 0. -1.
          5    1    1    2  501    0  0.39331020770E+01 -0.25677705905E+02 -0.11321454509E+02  0.28337064151E+02  0.00000000000E+00 0. -1.
         -5    1    1    2    0  502 -0.39331020770E+01  0.25677705905E+02 -0.61331433539E+02  0.66605995319E+02  0.00000000000E+00 0.  1.
<mgrwt>
<rscale>  2 0.25977180E+02</rscale>
<asrwt>0</asrwt>
<pdfrwt beam="1">  1       21 0.17146286E-02 0.25977180E+02</pdfrwt>
<pdfrwt beam="2">  1       21 0.12891996E-01 0.25977180E+02</pdfrwt>
<totfact> 0.59557507E+07</totfact>
</mgrwt>
</event>
<event>
 4    1  0.7119201E+004  0.2055514E+02  0.7546771E-02  0.1734509E+00
         21   -1    0    0  501  502  0.00000000000E+00  0.00000000000E+00  0.85431468071E+02  0.85431468071E+02  0.00000000000E+00 0. -1.
         21   -1    0    0  502  503 -0.00000000000E+00 -0.00000000000E+00 -0.59112073176E+01  0.59112073176E+01  0.00000000000E+00 0. -1.
          1    1    1    2  501    0 -0.15061145380E+02 -0.13988409155E+02  0.58218606701E+02  0.61740747137E+02  0.00000000000E+00 0. -1.
         -1    1    1    2    0  503  0.15061145380E+02  0.13988409155E+02  0.21301654052E+02  0.29601928251E+02  0.00000000000E+00 0.  1.
<mgrwt>
<rscale>  2 0.20555138E+02</rscale>
<asrwt>0</asrwt>
<pdfrwt beam="1">  1       21 0.13143302E-01 0.20555138E+02</pdfrwt>
<pdfrwt beam="2">  1       21 0.90941657E-03 0.20555138E+02</pdfrwt>
<totfact> 0.14102801E+08</totfact>
</mgrwt>
</event>
<event>
 4    1  0.7119201E+004  0.4520699E+02  0.7546771E-02  0.1473054E+00
         21   -1    0    0  503  502  0.00000000000E+00  0.00000000000E+00  0.56017192331E+03  0.56017192331E+03  0.00000000000E+00 0. -1.
         21   -1    0    0  501  503 -0.00000000000E+00 -0.00000000000E+00 -0.38767342493E+01  0.38767342493E+01  0.00000000000E+00 0. -1.
          5    1    1    2  501    0 -0.13445358009E+02  0.43161263094E+02  0.20968723687E+03  0.21450503395E+03  0.00000000000E+00 0. -1.
         -5    1    1    2    0  502  0.13445358009E+02 -0.43161263094E+02  0.34660795219E+03  0.34954362361E+03  0.00000000000E+00 0.  1.
<mgrwt>
<rscale>  2 0.45206994E+02</rscale>
<asrwt>0</asrwt>
<pdfrwt beam="1">  1       21 0.86180231E-01 0.45206994E+02</pdfrwt>
<pdfrwt beam="2">  1       21 0.59642110E-03 0.45206994E+02</pdfrwt>
<totfact> 0.89627813E+06</totfact>
</mgrwt>
</event>
<event>
 4    1  0.7119201E+004  0.2193825E+02  0.7546771E-02  0.1709322E+00
         21   -1    0    0  503  502  0.00000000000E+00  0.00000000000E+00  0.39848704486E+03  0.39848704486E+03  0.00000000000E+00 0.  1.
         21   -1    0    0  501  503 -0.00000000000E+00 -0.00000000000E+00 -0.13096824891E+01  0.13096824891E+01  0.00000000000E+00 0.  1.
          3    1    1    2  501    0  0.14014037439E+02  0.16878796871E+02  0.25434653881E+03  0.25529091020E+03  0.00000000000E+00 0. -1.
         -3    1    1    2    0  502 -0.14014037439E+02 -0.16878796871E+02  0.14283082356E+03  0.14450581715E+03  0.00000000000E+00 0.  1.
<mgrwt>
<rscale>  2 0.21938255E+02</rscale>
<asrwt>0</asrwt>
<pdfrwt beam="1">  1       21 0.61305602E-01 0.21938255E+02</pdfrwt>
<pdfrwt beam="2">  1       21 0.20148993E-03 0.21938255E+02</pdfrwt>
<totfact> 0.80071465E+07</totfact>
</mgrwt>
</event>
<event>
 4    1  0.7119201E+004  0.3828384E+02  0.7546771E-02  0.1521234E+00
         21   -1    0    0  503  502  0.00000000000E+00  0.00000000000E+00  0.78129598694E+02  0.78129598694E+02  0.00000000000E+00 0. -1.
         21   -1    0    0  501  503 -0.00000000000E+00 -0.00000000000E+00 -0.21542150575E+02  0.21542150575E+02  0.00000000000E+00 0. -1.
          3    1    1    2  501    0  0.24320544217E+02 -0.29566250523E+02  0.46205845862E+02  0.60005268376E+02  0.00000000000E+00 0. -1.
         -3    1    1    2    0  502 -0.24320544217E+02  0.29566250523E+02  0.10381602256E+02  0.39666480893E+02  0.00000000000E+00 0.  1.
<mgrwt>
<rscale>  2 0.38283835E+02</rscale>
<asrwt>0</asrwt>
<pdfrwt beam="1">  1       21 0.12019938E-01 0.38283835E+02</pdfrwt>
<pdfrwt beam="2">  1       21 0.33141771E-02 0.38283835E+02</pdfrwt>
<totfact> 0.25968687E+07</totfact>
</mgrwt>
</event>
<event>
 4    1  0.7119201E+004  0.2291673E+02  0.7546771E-02  0.1692863E+00
         21   -1    0    0  503  502  0.00000000000E+00  0.00000000000E+00  0.16695367063E+02  0.16695367063E+02  0.00000000000E+00 0.  1.
         21   -1    0    0  501  503 -0.00000000000E+00 -0.00000000000E+00 -0.35530578213E+02  0.35530578213E+02  0.00000000000E+00 0.  1.
          2    1    1    2  501    0  0.19262854734E+02 -0.12414471640E+02 -0.18260073274E+02  0.29301995743E+02  0.00000000000E+00 0.  1.
         -2    1    1    2    0  502 -0.19262854734E+02  0.12414471640E+02 -0.57513787679E+00  0.22923949532E+02  0.00000000000E+00 0. -1.
<mgrwt>
<rscale>  2 0.22916734E+02</rscale>
<asrwt>0</asrwt>
<pdfrwt beam="1">  1       21 0.25685180E-02 0.22916734E+02</pdfrwt>
<pdfrwt beam="2">  1       21 0.54662428E-02 0.22916734E+02</pdfrwt>
<totfact> 0.12639174E+08</totfact>
</mgrwt>
</event>
<event>
 4    1  0.7119201E+004  0.3136206E+02  0.7546771E-02  0.1583503E+00
         21   -1    0    0  503  502  0.00000000000E+00  0.00000000000E+00  0.91059523321E+02  0.91059523321E+02  0.00000000000E+00 0.  1.
         21   -1    0    0  501  503 -0.00000000000E+00 -0.00000000000E+00 -0.10828888834E+02  0.10828888834E+02  0.00000000000E+00 0.  1.
          4    1    1    2  501    0 -0.20697115212E+02  0.23562863337E+02  0.37553083582E+02  0.48926610278E+02  0.00000000000E+00 0. -1.
         -4    1    1    2    0  502  0.20697115212E+02 -0.23562863337E+02  0.42677550905E+02  0.52961801876E+02  0.00000000000E+00 0.  1.
<mgrwt>
<rscale>  2 0.31362065E+02</rscale>
<asrwt>0</asrwt>
<pdfrwt beam="1">  1       21 0.14009157E-01 0.31362065E+02</pdfrwt>
<pdfrwt beam="2">  1       21 0.16659830E-02 0.31362065E+02</pdfrwt>
<totfact> 0.56432554E+07</totfact>
</mgrwt>
</event>
<event>
 4    1  0.7119201E+004  0.2065060E+02  0.7546771E-02  0.1732691E+00
         21   -1    0    0  503  502  0.00000000000E+00  0.00000000000E+00  0.15814467814E+01  0.15814467814E+01  0.00000000000E+00 0. -1.
         21   -1    0    0  501  503 -0.00000000000E+00 -0.00000000000E+00 -0.27053023880E+03  0.27053023880E+03  0.00000000000E+00 0. -1.
          3    1    1    2  501    0  0.18282844543E+02 -0.96012990635E+01 -0.12674209320E+03  0.12841341650E+03  0.00000000000E+00 0.  1.
         -3    1    1    2    0  502 -0.18282844543E+02  0.96012990635E+01 -0.14220669882E+03  0.14369826908E+03  0.00000000000E+00 0. -1.
<mgrwt>
<rscale>  2 0.20650602E+02</rscale>
<asrwt>0</asrwt>
<pdfrwt beam="1">  1       21 0.24329967E-03 0.20650602E+02</pdfrwt>
<pdfrwt beam="2">  1       21 0.41620008E-01 0.20650602E+02</pdfrwt>
<totfact> 0.12728276E+08</totfact>
</mgrwt>
</event>
<event>
 4    1  0.7119201E+004  0.2786835E+02  0.7546771E-02  0.1622921E+00
         21   -1    0    0  501  502  0.00000000000E+00  0.00000000000E+00  0.29228067268E+01  0.29228067268E+01  0.00000000000E+00 0. -1.
         21   -1    0    0  502  503 -0.00000000000E+00 -0.00000000000E+00 -0.27553523837E+03  0.27553523837E+03  0.00000000000E+00 0. -1.
          4    1    1    2  501    0  0.14971987359E+02 -0.23504995229E+02 -0.16258554718E+03  0.16495667721E+03  0.00000000000E+00 0.  1.
         -4    1    1    2    0  503 -0.14971987359E+02  0.23504995229E+02 -0.11002688446E+03  0.11350136788E+03  0.00000000000E+00 0. -1.
<mgrwt>
<rscale>  2 0.27868355E+02</rscale>
<asrwt>0</asrwt>
<pdfrwt beam="1">  1       21 0.44966232E-03 0.27868355E+02</pdfrwt>
<pdfrwt beam="2">  1       21 0.42390060E-01 0.27868355E+02</pdfrwt>
<totfact> 0.53946386E+07</totfact>
</mgrwt>
</event>
<event>
 4    1  0.7119201E+004  0.3329630E+02  0.7546771E-02  0.1564272E+00
         21   -1    0    0  503  502  0.00000000000E+00  0.00000000000E+00  0.36852984803E+03  0.36852984803E+03  0.00000000000E+00 0. -1.
         21   -1    0    0  501  503 -0.00000000000E+00 -0.00000000000E+00 -0.38747412896E+01  0.38747412896E+01  0.00000000000E+00 0. -1.
          5    1    1    2  501    0  0.51114671317E+01  0.32901613674E+02  0.94276067991E+02  0.99983099944E+02  0.00000000000E+00 0.  1.
         -5    1    1    2    0  502 -0.51114671317E+01 -0.32901613674E+02  0.27037903875E+03  0.27242148938E+03  0.00000000000E+00 0. -1.
<mgrwt>
<rscale>  2 0.33296295E+02</rscale>
<asrwt>0</asrwt>
<pdfrwt beam="1">  1       21 0.56696872E-01 0.33296295E+02</pdfrwt>
<pdfrwt beam="2">  1       21 0.59611434E-03 0.33296295E+02</pdfrwt>
<totfact> 0.20718159E+07</totfact>
</mgrwt>
</event>
<event>
 4    1  0.7119201E+004  0.2403140E+02  0.7546771E-02  0.1675317E+00
         21   -1    0    0  501  502  0.00000000000E+00  0.00000000000E+00  0.10652538194E+02  0.10652538194E+02  0.00000000000E+00 0.  1.
         21   -1    0    0  502  503 -0.00000000000E+00 -0.00000000000E+00 -0.66674303491E+02  0.66674303491E+02  0.00000000000E+00 0.  1.
          3    1    1    2  501    0  0.22631717628E+02  0.80816898244E+01 -0.11296166453E+02  0.26553940004E+02  0.00000000000E+00 0. -1.
         -3    1    1    2    0  503 -0.22631717628E+02 -0.80816898244E+01 -0.44725598844E+02  0.50772901681E+02  0.00000000000E+00 0.  1.
<mgrwt>
<rscale>  2 0.24031403E+02</rscale>
<asrwt>0</asrwt>
<pdfrwt beam="1">  1       21 0.16388520E-02 0.24031403E+02</pdfrwt>
<pdfrwt beam="2">  1       21 0.10257585E-01 0.24031403E+02</pdfrwt>
<totfact> 0.91764665E+07</totfact>
</mgrwt>
</event>
<event>
 4    1  0.7119201E+004  0.5922801E+02  0.7546771E-02  0.1401100E+00
         21   -1    0    0  501  502  0.00000000000E+00  0.00000000000E+00  0.59144131467E+02  0.59144131467E+02  0.00000000000E+00 0.  1.
         21   -1    0    0  502  503 -0.00000000000E+00 -0.00000000000E+00 -0.60685080850E+02  0.60685080850E+02  0.00000000000E+00 0.  1.
          2    1    1    2  501    0  0.49001685934E+02  0.33268482350E+02  0.82418884454E+01  0.59798711252E+02  0.00000000000E+00 0. -1.
         -2    1    1    2    0  503 -0.49001685934E+02 -0.33268482350E+02 -0.97828378286E+01  0.60030501066E+02  0.00000000000E+00 0.  1.
<mgrwt>
<rscale>  2 0.59228010E+02</rscale>
<asrwt>0</asrwt>
<pdfrwt beam="1">  1       21 0.90990972E-02 0.59228010E+02</pdfrwt>
<pdfrwt beam="2">  1       21 0.93361662E-02 0.59228010E+02</pdfrwt>
<totfact> 0.80685085E+06</totfact>
</mgrwt>
</event>
<event>
 4    1  0.7119201E+004  0.2420458E+02  0.7546771E-02  0.1672697E+00
         21   -1    0    0  501  502  0.00000000000E+00  0.00000000000E+00  0.74902484822E+01  0.74902484822E+01  0.00000000000E+00 0.  1.
         21   -1    0    0  502  503 -0.00000000000E+00 -0.00000000000E+00 -0.86699964634E+02  0.86699964634E+02  0.00000000000E+00 0.  1.
          3    1    1    2  501    0  0.17347929688E+02 -0.16879303482E+02 -0.54336499490E+02  0.59483751793E+02  0.00000000000E+00 0.  1.
         -3    1    1    2    0  503 -0.17347929688E+02  0.16879303482E+02 -0.24873216662E+02  0.34706461324E+02  0.00000000000E+00 0. -1.
<mgrwt>
<rscale>  2 0.24204577E+02</rscale>
<asrwt>0</asrwt>
<pdfrwt beam="1">  1       21 0.11523459E-02 0.24204577E+02</pdfrwt>
<pdfrwt beam="2">  1       21 0.13338456E-01 0.24204577E+02</pdfrwt>
<totfact> 0.10110550E+08</totfact>
</mgrwt>
</event>
<event>
 4    1  0.7119201E+004  0.2095207E+02  0.7546771E-02  0.1727032E+00
         21   -1    0    0  501  502  0.00000000000E+00  0.00000000000E+00  0.99376950520E+02  0.99376950520E+02  0.00000000000E+00 0. -1.
         21   -1    0    0  502  503 -0.00000000000E+00 -0.00000000000E+00 -0.44441814414E+01  0.44441814414E+01  0.00000000000E+00 0. -1.
          2    1    1    2  501    0 -0.20881689302E+02  0.17159538508E+01  0.51494832265E+02  0.55594129148E+02  0.00000000000E+00 0.  1.
         -2    1    1    2    0  503  0.20881689302E+02 -0.17159538508E+01  0.43437936814E+02  0.48227002814E+02  0.00000000000E+00 0. -1.
<mgrwt>
<rscale>  2 0.20952075E+02</rscale>
<asrwt>0</asrwt>
<pdfrwt beam="1">  1       21 0.15288760E-01 0.20952075E+02</pdfrwt>
<pdfrwt beam="2">  1       21 0.68372030E-03 0.20952075E+02</pdfrwt>
<totfact> 0.16795022E+08</totfact>
</mgrwt>
</event>
<event>
 4    1  0.7119201E+004  0.2287845E+02  0.7546771E-02  0.1693488E+00
         21   -1    0    0  503  502  0.00000000000E+00  0.00000000000E+00  0.20954213481E+02  0.20954213481E+02  0.00000000000E+00 0. -1.
         21   -1    0    0  501  503 -0.00000000000E+00 -0.00000000000E+00 -0.25027926511E+02  0.25027926511E+02  0.00000000000E+00 0. -1.
          2    1    1    2  501    0 -0.14583146019E+02 -0.17628257544E+02 -0.30492535920E+01  0.23080761671E+02  0.00000000000E+00 0.  1.
         -2    1    1    2    0  502  0.14583146019E+02  0.17628257544E+02 -0.10244594375E+01  0.22901378321E+02  0.00000000000E+00 0. -1.
<mgrwt>
<rscale>  2 0.22878453E+02</rscale>
<asrwt>0</asrwt>
<pdfrwt beam="1">  1       21 0.32237252E-02 0.22878453E+02</pdfrwt>
<pdfrwt beam="2">  1       21 0.38504502E-02 0.22878453E+02</pdfrwt>
<totfact> 0.15465905E+08</totfact>
</mgrwt>
</event>
<event>
 4    1  0.7119201E+004  0.2640783E+02  0.7546771E-02  0.1641567E+00
         21   -1    0    0  501  502  0.00000000000E+00  0.00000000000E+00  0.42925149923E+02  0.42925149923E+02  0.00000000000E+00 0.  1.
         21   -1    0    0  502  503 -0.00000000000E+00 -0.00000000000E+00 -0.16548871695E+02  0.16548871695E+02  0.00000000000E+00 0.  1.
          3    1    1    2  501    0 -0.26373876554E+02  0.13386863126E+01  0.17209295532E+02  0.31520363231E+02  0.00000000000E+00 0.  1.
         -3    1    1    2    0  503  0.26373876554E+02 -0.13386863126E+01  0.91669826967E+01  0.27953658388E+02  0.00000000000E+00 0. -1.
<mgrwt>
<rscale>  2 0.26407829E+02</rscale>
<asrwt>0</asrwt>
<pdfrwt beam="1">  1       21 0.66038692E-02 0.26407829E+02</pdfrwt>
<pdfrwt beam="2">  1       21 0.25459803E-02 0.26407829E+02</pdfrwt>
<totfact> 0.98302210E+07</totfact>
</mgrwt>
</event>
<event>
 4    1  0.7119201E+004  0.4289682E+02  0.7546771E-02  0.1487915E+00
         21   -1    0    0  501  502  0.00000000000E+00  0.00000000000E+00  0.94007498080E+03  0.94007498080E+03  0.00000000000E+00 0.  1.
         21   -1    0    0  502  503 -0.00000000000E+00 -0.00000000000E+00 -0.20202794156E+01  0.20202794156E+01  0.00000000000E+00 0.  1.
          5    1    1    2  501    0  0.29818584001E+02 -0.30838110134E+02  0.38594905019E+03  0.38832564470E+03  0.00000000000E+00 0.  1.
         -5    1    1    2    0  503 -0.29818584001E+02  0.30838110134E+02  0.55210565120E+03  0.55376961552E+03  0.00000000000E+00 0. -1.
<mgrwt>
<rscale>  2 0.42896818E+02</rscale>
<asrwt>0</asrwt>
<pdfrwt beam="1">  1       21 0.14462657E+00 0.42896818E+02</pdfrwt>
<pdfrwt beam="2">  1       21 0.31081297E-03 0.42896818E+02</pdfrwt>
<totfact> 0.71869041E+06</totfact>
</mgrwt>
</event>
<event>
 4    1  0.7119201E+004  0.2413117E+02  0.7546771E-02  0.1673804E+00
         21   -1    0    0  501  502  0.00000000000E+00  0.00000000000E+00  0.10612713485E+03  0.10612713485E+03  0.00000000000E+00 0. -1.
         21   -1    0    0  502  503 -0.00000000000E+00 -0.00000000000E+00 -0.55243304270E+01  0.55243304270E+01  0.00000000000E+00 0. -1.
          5    1    1    2  501    0 -0.18158679853E+02 -0.15892626260E+02  0.54894172300E+02  0.59964017343E+02  0.00000000000E+00 0.  1.
         -5    1    1    2    0  503  0.18158679853E+02  0.15892626260E+02  0.45708632128E+02  0.51687447938E+02  0.00000000000E+00 0. -1.
<mgrwt>
<rscale>  2 0.24131167E+02</rscale>
<asrwt>0</asrwt>
<pdfrwt beam="1">  1       21 0.16327250E-01 0.24131167E+02</pdfrwt>
<pdfrwt beam="2">  1       21 0.84989707E-03 0.24131167E+02</pdfrwt>
<totfact> 0.11314486E+08</totfact>
</mgrwt>
</event>
<event>
 4    1  0.7119201E+004  0.2102784E+02  0.7546771E-02  0.1725628E+00
         21   -1    0    0  501  502  0.00000000000E+00  0.00000000000E+00  0.15736835554E+02  0.15736835554E+02  0.00000000000E+00 0. -1.
         21   -1    0    0  502  503 -0.00000000000E+00 -0.00000000000E+00 -0.39549564497E+02  0.39549564497E+02  0.00000000000E+00 0. -1.
          5    1    1    2  501    0 -0.50932450407E+01  0.20401689633E+02  0.29685376668E+01  0.21236343866E+02  0.00000000000E+00 0.  1.
         -5    1    1    2    0  503  0.50932450407E+01 -0.20401689633E+02 -0.26781266610E+02  0.34050056185E+02  0.00000000000E+00 0. -1.
<mgrwt>
<rscale>  2 0.21027841E+02</rscale>
<asrwt>0</asrwt>
<pdfrwt beam="1">  1       21 0.24210517E-02 0.21027841E+02</pdfrwt>
<pdfrwt beam="2">  1       21 0.60845483E-02 0.21027841E+02</pdfrwt>
<totfact> 0.11370193E+08</totfact>
</mgrwt>
</event>
<event>
 4    1  0.7119201E+004  0.3893209E+02  0.7546771E-02  0.1516220E+00
         21   -1    0    0  503  502  0.00000000000E+00  0.00000000000E+00  0.16708855332E+02  0.16708855332E+02  0.00000000000E+00 0. -1.
         21   -1    0    0  501  503 -0.00000000000E+00 -0.00000000000E+00 -0.93720834659E+02  0.93720834659E+02  0.00000000000E+00 0. -1.
          2    1    1    2  501    0 -0.11343505494E+02  0.37242880706E+02 -0.48397855456E+02  0.62113281131E+02  0.00000000000E+00 0. -1.
         -2    1    1    2    0  502  0.11343505494E+02 -0.37242880706E+02 -0.28614123871E+02  0.48316408859E+02  0.00000000000E+00 0.  1.
<mgrwt>
<rscale>  2 0.38932085E+02</rscale>
<asrwt>0</asrwt>
<pdfrwt beam="1">  1       21 0.25705931E-02 0.38932085E+02</pdfrwt>
<pdfrwt beam="2">  1       21 0.14418590E-01 0.38932085E+02</pdfrwt>
<totfact> 0.28483595E+07</totfact>
</mgrwt>
</event>
<event>
 4    1  0.7119201E+004  0.2230055E+02  0.7546771E-02  0.1703105E+00
         21   -1    0    0  501  502  0.00000000000E+00  0.00000000000E+00  0.35126010581E+01  0.35126010581E+01  0.00000000000E+00 0.  1.
         21   -1    0    0  502  503 -0.00000000000E+00 -0.00000000000E+00 -0.14551491538E+03  0.14551491538E+03  0.00000000000E+00 0.  1.
          2    1    1    2  501    0 -0.27363727096E+01 -0.22132033443E+02 -0.58748190114E+02  0.62838399737E+02  0.00000000000E+00 0.  1.
         -2    1    1    2    0  503  0.27363727096E+01  0.22132033443E+02 -0.83254124204E+02  0.86189116696E+02  0.00000000000E+00 0. -1.
<mgrwt>
<rscale>  2 0.22300552E+02</rscale>
<asrwt>0</asrwt>
<pdfrwt beam="1">  1       21 0.54040015E-03 0.22300552E+02</pdfrwt>
<pdfrwt beam="2">  1       21 0.22386911E-01 0.22300552E+02</pdfrwt>
<totfact> 0.12531139E+08</totfact>
</mgrwt>
</event>
<event>
 4    1  0.7119201E+004  0.2064708E+02  0.7546771E-02  0.1732758E+00
         21   -1    0    0  503  502  0.00000000000E+00  0.00000000000E+00  0.17375697638E+03  0.17375697638E+03  0.00000000000E+00 0.  1.
         21   -1    0    0  501  503 -0.00000000000E+00 -0.00000000000E+00 -0.24680703826E+01  0.24680703826E+01  0.00000000000E+00 0.  1.
          2    1    1    2  501    0  0.16949212963E+01  0.20577396701E+02  0.92428870814E+02  0.94706906682E+02  0.00000000000E+00 0. -1.
         -2    1    1    2    0  502 -0.16949212963E+01 -0.20577396701E+02  0.78860035179E+02  0.81518140077E+02  0.00000000000E+00 0.  1.
<mgrwt>
<rscale>  2 0.20647082E+02</rscale>
<asrwt>0</asrwt>
<pdfrwt beam="1">  1       21 0.26731833E-01 0.20647082E+02</pdfrwt>
<pdfrwt beam="2">  1       21 0.37970327E-03 0.20647082E+02</pdfrwt>
<totfact> 0.15019367E+08</totfact>
</mgrwt>
</event>
<event>
 4    1  0.7119201E+004  0.2033272E+02  0.7546771E-02  0.1738791E+00
         21   -1    0    0  501  502  0.00000000000E+00  0.00000000000E+00  0.49153844988E+02  0.49153844988E+02  0.00000000000E+00 0. -1.
         21   -1    0    0  502  503 -0.00000000000E+00 -0.00000000000E+00 -0.92930658640E+01  0.92930658640E+01  0.00000000000E+00 0. -1.
          1    1    1    2  501    0 -0.44716836776E+01 -0.19834904196E+02  0.10925658979E+02  0.23082231337E+02  0.00000000000E+00 0.  1.
         -1    1    1    2    0  503  0.44716836776E+01  0.19834904196E+02  0.28935120145E+02  0.35364679515E+02  0.00000000000E+00 0. -1.
<mgrwt>
<rscale>  2 0.20332717E+02</rscale>
<asrwt>0</asrwt>
<pdfrwt beam="1">  1       21 0.75621299E-02 0.20332717E+02</pdfrwt>
<pdfrwt beam="2">  1       21 0.14297025E-02 0.20332717E+02</pdfrwt>
<totfact> 0.17704576E+08</totfact>
</mgrwt>
</event>
<event>
 4    1  0.7119201E+004  0.2345839E+02  0.7546771E-02  0.1684186E+00
         21   -1    0    0  501  502  0.00000000000E+00  0.00000000000E+00  0.67957684399E+02  0.67957684399E+02  0.00000000000E+00 0.  1.
         21   -1    0    0  502  503 -0.00000000000E+00 -0.00000000000E+00 -0.85575149368E+01  0.85575149368E+01  0.00000000000E+00 0.  1.
          1    1    1    2  501    0  0.10005770293E+02 -0.21217465645E+02  0.20831225579E+02  0.31372539691E+02  0.00000000000E+00 0.  1.
         -1    1    1    2    0  503 -0.10005770293E+02  0.21217465645E+02  0.38568943883E+02  0.45142659645E+02  0.00000000000E+00 0. -1.
<mgrwt>
<rscale>  2 0.23458395E+02</rscale>
<asrwt>0</asrwt>
<pdfrwt beam="1">  1       21 0.10455028E-01 0.23458395E+02</pdfrwt>
<pdfrwt beam="2">  1       21 0.13165408E-02 0.23458395E+02</pdfrwt>
<totfact> 0.12319243E+08</totfact>
</mgrwt>
</event>
<event>
 4    1  0.7119201E+004  0.2766663E+02  0.7546771E-02  0.1625412E+00
         21   -1    0    0  501  502  0.00000000000E+00  0.00000000000E+00  0.40394454625E+01  0.40394454625E+01  0.00000000000E+00 0. -1.
         21   -1    0    0  502  503 -0.00000000000E+00 -0.00000000000E+00 -0.19052311542E+03  0.19052311542E+03  0.00000000000E+00 0. -1.
          2    1    1    2  501    0  0.71760718155E+01  0.26719773021E+02 -0.86084919320E+02  0.90421543955E+02  0.00000000000E+00 0. -1.
         -2    1    1    2    0  503 -0.71760718155E+01 -0.26719773021E+02 -0.10039875064E+03  0.10414101693E+03  0.00000000000E+00 0.  1.
<mgrwt>
<rscale>  2 0.27666627E+02</rscale>
<asrwt>0</asrwt>
<pdfrwt beam="1">  1       21 0.62145317E-03 0.27666627E+02</pdfrwt>
<pdfrwt beam="2">  1       21 0.29311248E-01 0.27666627E+02</pdfrwt>
<totfact> 0.66370678E+07</totfact>
</mgrwt>
</event>
<event>
 4    1  0.7119201E+004  0.4307849E+02  0.7546771E-02  0.1486707E+00
         21   -1    0    0  503  502  0.00000000000E+00  0.00000000000E+00  0.83616134206E+02  0.83616134206E+02  0.00000000000E+00 0.  1.
         21   -1    0    0  501  503 -0.00000000000E+00 -0.00000000000E+00 -0.22772090335E+02  0.22772090335E+02  0.00000000000E+00 0.  1.
          5    1    1    2  501    0  0.13883517871E+02 -0.40779945744E+02  0.38899209068E+02  0.58042264855E+02  0.00000000000E+00 0.  1.
         -5    1    1    2    0  502 -0.13883517871E+02  0.40779945744E+02  0.21944834804E+02  0.48345959686E+02  0.00000000000E+00 0. -1.
<mgrwt>
<rscale>  2 0.43078487E+02</rscale>
<asrwt>0</asrwt>
<pdfrwt beam="1">  1       21 0.12864021E-01 0.43078487E+02</pdfrwt>
<pdfrwt beam="2">  1       21 0.35033985E-02 0.43078487E+02</pdfrwt>
<totfact> 0.21570991E+07</totfact>
</mgrwt>
</event>
<event>
 4    1  0.7119201E+004  0.2777914E+02  0.7546771E-02  0.1624020E+00
         21   -1    0    0  503  502  0.00000000000E+00  0.00000000000E+00  0.22897918644E+02  0.22897918644E+02  0.00000000000E+00 0. -1.
         21   -1    0    0  501  503 -0.00000000000E+00 -0.00000000000E+00 -0.35850913319E+02  0.35850913319E+02  0.00000000000E+00 0. -1.
          3    1    1    2  501    0 -0.22713546913E+02 -0.15992972249E+02 -0.13669995027E+02  0.30960444744E+02  0.00000000000E+00 0.  1.
         -3    1    1    2    0  502  0.22713546913E+02  0.15992972249E+02  0.71700035231E+00  0.27788387219E+02  0.00000000000E+00 0. -1.
<mgrwt>
<rscale>  2 0.27779136E+02</rscale>
<asrwt>0</asrwt>
<pdfrwt beam="1">  1       21 0.35227567E-02 0.27779136E+02</pdfrwt>
<pdfrwt beam="2">  1       21 0.55155251E-02 0.27779136E+02</pdfrwt>
<totfact> 0.80121019E+07</totfact>
</mgrwt>
</event>
<event>
 4    1  0.7119201E+004  0.2315281E+02  0.7546771E-02  0.1689045E+00
         21   -1    0    0  501  502  0.00000000000E+00  0.00000000000E+00  0.28327243021E+01  0.28327243021E+01  0.00000000000E+00 0.  1.
         21   -1    0    0  502  503 -0.00000000000E+00 -0.00000000000E+00 -0.19036128556E+03  0.19036128556E+03  0.00000000000E+00 0.  1.
          3    1    1    2  501    0 -0.23105653847E+02 -0.14769494698E+01 -0.10119207678E+03  0.10380697964E+03  0.00000000000E+00 0.  1.
         -3    1    1    2    0  503  0.23105653847E+02  0.14769494698E+01 -0.86336484477E+02  0.89387030218E+02  0.00000000000E+00 0. -1.
<mgrwt>
<rscale>  2 0.23152810E+02</rscale>
<asrwt>0</asrwt>
<pdfrwt beam="1">  1       21 0.43580368E-03 0.23152810E+02</pdfrwt>
<pdfrwt beam="2">  1       21 0.29286355E-01 0.23152810E+02</pdfrwt>
<totfact> 0.10756717E+08</totfact>
</mgrwt>
</event>
<event>
 4    1  0.7119201E+004  0.3639224E+02  0.7546771E-02  0.1536574E+00
         21   -1    0    0  501  502  0.00000000000E+00  0.00000000000E+00  0.51593737971E+02  0.51593737971E+02  0.00000000000E+00 0.  1.
         21   -1    0    0  502  503 -0.00000000000E+00 -0.00000000000E+00 -0.32587729148E+02  0.32587729148E+02  0.00000000000E+00 0.  1.
          2    1    1    2  501    0 -0.22236298152E+02  0.28808718960E+02 -0.98902619804E+01  0.37712233104E+02  0.00000000000E+00 0. -1.
         -2    1    1    2    0  503  0.22236298152E+02 -0.28808718960E+02  0.28896270804E+02  0.46469234015E+02  0.00000000000E+00 0.  1.
<mgrwt>
<rscale>  2 0.36392242E+02</rscale>
<asrwt>0</asrwt>
<pdfrwt beam="1">  1       21 0.79374982E-02 0.36392242E+02</pdfrwt>
<pdfrwt beam="2">  1       21 0.50134968E-02 0.36392242E+02</pdfrwt>
<totfact> 0.26631016E+07</totfact>
</mgrwt>
</event>
<event>
 4    1  0.7119201E+004  0.2158301E+02  0.7546771E-02  0.1715565E+00
         21   -1    0    0  503  502  0.00000000000E+00  0.00000000000E+00  0.38186432987E+00  0.38186432987E+00  0.00000000000E+00 0. -1.
         21   -1    0    0  501  503 -0.00000000000E+00 -0.00000000000E+00 -0.12199994485E+04  0.12199994485E+04  0.00000000000E+00 0. -1.
          1    1    1    2  501    0 -0.89782552947E+00  0.21564324937E+02 -0.61600710458E+03  0.61638508994E+03  0.00000000000E+00 0.  1.
         -1    1    1    2    0  502  0.89782552947E+00 -0.21564324937E+02 -0.60361047957E+03  0.60399622287E+03  0.00000000000E+00 0. -1.
<mgrwt>
<rscale>  2 0.21583007E+02</rscale>
<asrwt>0</asrwt>
<pdfrwt beam="1">  1       21 0.58749298E-04 0.21583007E+02</pdfrwt>
<pdfrwt beam="2">  1       21 0.18768922E+00 0.21583007E+02</pdfrwt>
<totfact> 0.38417638E+07</totfact>
</mgrwt>
</event>
<event>
 4    1  0.7119201E+004  0.2170431E+02  0.7546771E-02  0.1713416E+00
         21   -1    0    0  503  502  0.00000000000E+00  0.00000000000E+00  0.46884231159E+02  0.46884231159E+02  0.00000000000E+00 0. -1.
         21   -1    0    0  501  503 -0.00000000000E+00 -0.00000000000E+00 -0.10113359067E+02  0.10113359067E+02  0.00000000000E+00 0. -1.
          3    1    1    2  501    0 -0.21388338710E+02  0.36900200583E+01  0.20682248206E+02  0.29980538215E+02  0.00000000000E+00 0.  1.
         -3    1    1    2    0  502  0.21388338710E+02 -0.36900200583E+01  0.16088623886E+02  0.27017052011E+02  0.00000000000E+00 0. -1.
<mgrwt>
<rscale>  2 0.21704315E+02</rscale>
<asrwt>0</asrwt>
<pdfrwt beam="1">  1       21 0.72129585E-02 0.21704315E+02</pdfrwt>
<pdfrwt beam="2">  1       21 0.15559014E-02 0.21704315E+02</pdfrwt>
<totfact> 0.17161369E+08</totfact>
</mgrwt>
</event>
<event>
 4    1  0.7119201E+004  0.2056138E+02  0.7546771E-02  0.1734389E+00
         21   -1    0    0  501  502  0.00000000000E+00  0.00000000000E+00  0.84933455253E+01  0.84933455253E+01  0.00000000000E+00 0. -1.
         21   -1    0    0  502  503 -0.00000000000E+00 -0.00000000000E+00 -0.54237483340E+02  0.54237483340E+02  0.00000000000E+00 0. -1.
          1    1    1    2  501    0  0.18975281790E+02 -0.79189112611E+01 -0.31867214403E+02  0.37924791738E+02  0.00000000000E+00 0.  1.
         -1    1    1    2    0  503 -0.18975281790E+02  0.79189112611E+01 -0.13876923412E+02  0.24806037127E+02  0.00000000000E+00 0. -1.
<mgrwt>
<rscale>  2 0.20561383E+02</rscale>
<asrwt>0</asrwt>
<pdfrwt beam="1">  1       21 0.13066686E-02 0.20561383E+02</pdfrwt>
<pdfrwt beam="2">  1       21 0.83442281E-02 0.20561383E+02</pdfrwt>
<totfact> 0.17346920E+08</totfact>
</mgrwt>
</event>
<event>
 4    1  0.7119201E+004  0.3043446E+02  0.7546771E-02  0.1593335E+00
         21   -1    0    0  501  502  0.00000000000E+00  0.00000000000E+00  0.73055525326E+02  0.73055525326E+02  0.00000000000E+00 0. -1.
         21   -1    0    0  502  503 -0.00000000000E+00 -0.00000000000E+00 -0.13109857998E+02  0.13109857998E+02  0.00000000000E+00 0. -1.
          3    1    1    2  501    0 -0.25570985000E+02  0.16503972829E+02  0.22160663417E+02  0.37647727635E+02  0.00000000000E+00 0.  1.
         -3    1    1    2    0  503  0.25570985000E+02 -0.16503972829E+02  0.37785003910E+02  0.48517655689E+02  0.00000000000E+00 0. -1.
<mgrwt>
<rscale>  2 0.30434461E+02</rscale>
<asrwt>0</asrwt>
<pdfrwt beam="1">  1       21 0.11239311E-01 0.30434461E+02</pdfrwt>
<pdfrwt beam="2">  1       21 0.20169013E-02 0.30434461E+02</pdfrwt>
<totfact> 0.60674039E+07</totfact>
</mgrwt>
</event>
<event>
 4    1  0.7119201E+004  0.3032962E+02  0.7546771E-02  0.1594474E+00
         21   -1    0    0  503  502  0.00000000000E+00  0.00000000000E+00  0.19590137778E+01  0.19590137778E+01  0.00000000000E+00 0.  1.
         21   -1    0    0  501  503 -0.00000000000E+00 -0.00000000000E+00 -0.46956838900E+03  0.46956838900E+03  0.00000000000E+00 0.  1.
          4    1    1    2  501    0  0.29198452375E+02  0.82058477141E+01 -0.23323421290E+03  0.23519796688E+03  0.00000000000E+00 0. -1.
         -4    1    1    2    0  502 -0.29198452375E+02 -0.82058477141E+01 -0.23437516232E+03  0.23632943589E+03  0.00000000000E+00 0.  1.
<mgrwt>
<rscale>  2 0.30329615E+02</rscale>
<asrwt>0</asrwt>
<pdfrwt beam="1">  1       21 0.30138653E-03 0.30329615E+02</pdfrwt>
<pdfrwt beam="2">  1       21 0.72241339E-01 0.30329615E+02</pdfrwt>
<totfact> 0.34166691E+07</totfact>
</mgrwt>
</event>
<event>
 4    1  0.7119201E+004  0.3579273E+02  0.7546771E-02  0.1541672E+00
         21   -1    0    0  501  502  0.00000000000E+00  0.00000000000E+00  0.15461207112E+03  0.15461207112E+03  0.00000000000E+00 0. -1.
         21   -1    0    0  502  503 -0.00000000000E+00 -0.00000000000E+00 -0.85368113396E+01  0.85368113396E+01  0.00000000000E+00 0. -1.
          5    1    1    2  501    0  0.15003315703E+02 -0.32496459815E+02  0.59055968291E+02  0.69055968412E+02  0.00000000000E+00 0. -1.
         -5    1    1    2    0  503 -0.15003315703E+02  0.32496459815E+02  0.87019291488E+02  0.94092914046E+02  0.00000000000E+00 0.  1.
<mgrwt>
<rscale>  2 0.35792728E+02</rscale>
<asrwt>0</asrwt>
<pdfrwt beam="1">  1       21 0.23786470E-01 0.35792728E+02</pdfrwt>
<pdfrwt beam="2">  1       21 0.13133557E-02 0.35792728E+02</pdfrwt>
<totfact> 0.32946849E+07</totfact>
</mgrwt>
</event>
<event>
 4    1  0.7119201E+004  0.2476006E+02  0.7546771E-02  0.1664472E+00
         21   -1    0    0  501  502  0.00000000000E+00  0.00000000000E+00  0.10679184412E+03  0.10679184412E+03  0.00000000000E+00 0.  1.
         21   -1    0    0  502  503 -0.00000000000E+00 -0.00000000000E+00 -0.57412648449E+01  0.57412648449E+01  0.00000000000E+00 0.  1.
          5    1    1    2  501    0 -0.22921844189E+02 -0.93621265803E+01  0.49969116626E+02  0.55767131641E+02  0.00000000000E+00 0. -1.
         -5    1    1    2    0  503  0.22921844189E+02  0.93621265803E+01  0.51081462650E+02  0.56765977324E+02  0.00000000000E+00 0.  1.
<mgrwt>
<rscale>  2 0.24760056E+02</rscale>
<asrwt>0</asrwt>
<pdfrwt beam="1">  1       21 0.16429513E-01 0.24760056E+02</pdfrwt>
<pdfrwt beam="2">  1       21 0.88327159E-03 0.24760056E+02</pdfrwt>
<totfact> 0.10639408E+08</totfact>
</mgrwt>
</event>
<event>
 4    1  0.7119201E+004  0.2633701E+02  0.7546771E-02  0.1642509E+00
         21   -1    0    0  501  502  0.00000000000E+00  0.00000000000E+00  0.14657643057E+02  0.14657643057E+02  0.00000000000E+00 0. -1.
         21   -1    0    0  502  503 -0.00000000000E+00 -0.00000000000E+00 -0.48680356013E+02  0.48680356013E+02  0.00000000000E+00 0. -1.
          4    1    1    2  501    0  0.13196272590E+02  0.22792463507E+02 -0.22300263081E+02  0.34509994733E+02  0.00000000000E+00 0. -1.
         -4    1    1    2    0  503 -0.13196272590E+02 -0.22792463507E+02 -0.11722449875E+02  0.28828004337E+02  0.00000000000E+00 0.  1.
<mgrwt>
<rscale>  2 0.26337008E+02</rscale>
<asrwt>0</asrwt>
<pdfrwt beam="1">  1       21 0.22550220E-02 0.26337008E+02</pdfrwt>
<pdfrwt beam="2">  1       21 0.74892854E-02 0.26337008E+02</pdfrwt>
<totfact> 0.96616441E+07</totfact>
</mgrwt>
</event>
<event>
 4    1  0.7119201E+004  0.2835704E+02  0.7546771E-02  0.1616993E+00
         21   -1    0    0  503  502  0.00000000000E+00  0.00000000000E+00  0.73063584244E+03  0.73063584244E+03  0.00000000000E+00 0. -1.
         21   -1    0    0  501  503 -0.00000000000E+00 -0.00000000000E+00 -0.15123988721E+01  0.15123988721E+01  0.00000000000E+00 0. -1.
          5    1    1    2  501    0 -0.16824212597E+00 -0.28356542803E+02  0.55558661552E+03  0.55630981402E+03  0.00000000000E+00 0.  1.
         -5    1    1    2    0  502  0.16824212597E+00  0.28356542803E+02  0.17353682805E+03  0.17583842730E+03  0.00000000000E+00 0. -1.
<mgrwt>
<rscale>  2 0.28357042E+02</rscale>
<asrwt>0</asrwt>
<pdfrwt beam="1">  1       21 0.11240523E+00 0.28357042E+02</pdfrwt>
<pdfrwt beam="2">  1       21 0.23267733E-03 0.28357042E+02</pdfrwt>
<totfact> 0.18910119E+07</totfact>
</mgrwt>
</event>
<event>
 4    1  0.7119201E+004  0.2384032E+02  0.7546771E-02  0.1678240E+00
         21   -1    0    0  503  502  0.00000000000E+00  0.00000000000E+00  0.39875663787E+02  0.39875663787E+02  0.00000000000E+00 0.  1.
         21   -1    0    0  501  503 -0.00000000000E+00 -0.00000000000E+00 -0.14258892424E+02  0.14258892424E+02  0.00000000000E+00 0.  1.
          5    1    1    2  501    0 -0.10215662195E+02  0.21540687418E+02  0.13343023374E+02  0.27320271618E+02  0.00000000000E+00 0.  1.
         -5    1    1    2    0  502  0.10215662195E+02 -0.21540687418E+02  0.12273747988E+02  0.26814284593E+02  0.00000000000E+00 0. -1.
<mgrwt>
<rscale>  2 0.23840322E+02</rscale>
<asrwt>0</asrwt>
<pdfrwt beam="1">  1       21 0.61347175E-02 0.23840322E+02</pdfrwt>
<pdfrwt beam="2">  1       21 0.21936758E-02 0.23840322E+02</pdfrwt>
<totfact> 0.13559927E+08</totfact>
</mgrwt>
</event>
<event>
 4    1  0.7119201E+004  0.2241625E+02  0.7546771E-02  0.1701151E+00
         21   -1    0    0  503  502  0.00000000000E+00  0.00000000000E+00  0.14264580472E+03  0.14264580472E+03  0.00000000000E+00 0.  1.
         21   -1    0    0  501  503 -0.00000000000E+00 -0.00000000000E+00 -0.36469888829E+01  0.36469888829E+01  0.00000000000E+00 0.  1.
          3    1    1    2  501    0 -0.19433692502E+02  0.11172272192E+02  0.55992123266E+02  0.60312568657E+02  0.00000000000E+00 0.  1.
         -3    1    1    2    0  502  0.19433692502E+02 -0.11172272192E+02  0.83006692575E+02  0.85980224950E+02  0.00000000000E+00 0. -1.
<mgrwt>
<rscale>  2 0.22416246E+02</rscale>
<asrwt>0</asrwt>
<pdfrwt beam="1">  1       21 0.21945504E-01 0.22416246E+02</pdfrwt>
<pdfrwt beam="2">  1       21 0.56107532E-03 0.22416246E+02</pdfrwt>
<totfact> 0.12296006E+08</totfact>
</mgrwt>
</event>
<event>
 4    1  0.7119201E+004  0.2282556E+02  0.7546771E-02  0.1694353E+00
         21   -1    0    0  501  502  0.00000000000E+00  0.00000000000E+00  0.42983991293E+01  0.42983991293E+01  0.00000000000E+00 0.  1.
         21   -1    0    0  502  503 -0.00000000000E+00 -0.00000000000E+00 -0.12197676347E+03  0.12197676347E+03  0.00000000000E+00 0.  1.
          1    1    1    2  501    0 -0.41798647904E+01 -0.22439587243E+02 -0.63847042362E+02  0.67804506957E+02  0.00000000000E+00 0. -1.
         -1    1    1    2    0  503  0.41798647904E+01  0.22439587243E+02 -0.53831321982E+02  0.58470655645E+02  0.00000000000E+00 0.  1.
<mgrwt>
<rscale>  2 0.22825563E+02</rscale>
<asrwt>0</asrwt>
<pdfrwt beam="1">  1       21 0.66129210E-03 0.22825563E+02</pdfrwt>
<pdfrwt beam="2">  1       21 0.18765658E-01 0.22825563E+02</pdfrwt>
<totfact> 0.12734536E+08</totfact>
</mgrwt>
</event>
<event>
 4    1  0.7119201E+004  0.2369527E+02  0.7546771E-02  0.1680482E+00
         21   -1    0    0  503  502  0.00000000000E+00  0.00000000000E+00  0.27166168004E+01  0.27166168004E+01  0.00000000000E+00 0. -1.
         21   -1    0    0  501  503 -0.00000000000E+00 -0.00000000000E+00 -0.22072177573E+03  0.22072177573E+03  0.00000000000E+00 0. -1.
          1    1    1    2  501    0 -0.11082921339E+00  0.23695011098E+02 -0.80822514346E+02  0.84224370934E+02  0.00000000000E+00 0. -1.
         -1    1    1    2    0  502  0.11082921339E+00 -0.23695011098E+02 -0.13718264459E+03  0.13921402160E+03  0.00000000000E+00 0.  1.
<mgrwt>
<rscale>  2 0.23695270E+02</rscale>
<asrwt>0</asrwt>
<pdfrwt beam="1">  1       21 0.41794085E-03 0.23695270E+02</pdfrwt>
<pdfrwt beam="2">  1       21 0.33957212E-01 0.23695270E+02</pdfrwt>
<totfact> 0.87781687E+07</totfact>
</mgrwt>
</event>
<event>
 4    1  0.7119201E+004  0.2181123E+02  0.7546771E-02  0.1711537E+00
         21   -1    0    0  501  502  0.00000000000E+00  0.00000000000E+00  0.83036355737E+01  0.83036355737E+01  0.00000000000E+00 0. -1.
         21   -1    0    0  502  503 -0.00000000000E+00 -0.00000000000E+00 -0.68747785210E+02  0.68747785210E+02  0.00000000000E+00 0. -1.
          2    1    1    2  501    0  0.21313770848E+02  0.46317419700E+01 -0.14495347380E+02  0.26188641758E+02  0.00000000000E+00 0.  1.
         -2    1    1    2    0  503 -0.21313770848E+02 -0.46317419700E+01 -0.45948802257E+02  0.50862779026E+02  0.00000000000E+00 0. -1.
<mgrwt>
<rscale>  2 0.21811232E+02</rscale>
<asrwt>0</asrwt>
<pdfrwt beam="1">  1       21 0.12774824E-02 0.21811232E+02</pdfrwt>
<pdfrwt beam="2">  1       21 0.10576582E-01 0.21811232E+02</pdfrwt>
<totfact> 0.12381393E+08</totfact>
</mgrwt>
</event>
<event>
 4    1  0.7119201E+004  0.3658374E+02  0.7546771E-02  0.1534970E+00
         21   -1    0    0  501  502  0.00000000000E+00  0.00000000000E+00  0.88117031416E+01  0.88117031416E+01  0.00000000000E+00 0.  1.
         21   -1    0    0  502  503 -0.00000000000E+00 -0.00000000000E+00 -0.19843714834E+03  0.19843714834E+03  0.00000000000E+00 0.  1.
          4    1    1    2  501    0  0.36201935383E+02 -0.52716060332E+01 -0.44622609968E+02  0.57702229385E+02  0.00000000000E+00 0. -1.
         -4    1    1    2    0  503 -0.36201935383E+02  0.52716060332E+01 -0.14500283523E+03  0.14954662210E+03  0.00000000000E+00 0.  1.
<mgrwt>
<rscale>  2 0.36583739E+02</rscale>
<asrwt>0</asrwt>
<pdfrwt beam="1">  1       21 0.13556466E-02 0.36583739E+02</pdfrwt>
<pdfrwt beam="2">  1       21 0.30528792E-01 0.36583739E+02</pdfrwt>
<totfact> 0.19943795E+07</totfact>
</mgrwt>
</event>
<event>
 4    1  0.7119201E+004  0.3342546E+02  0.7546771E-02  0.1563044E+00
         21   -1    0    0  503  502  0.00000000000E+00  0.00000000000E+00  0.24421707798E+03  0.24421707798E+03  0.00000000000E+00 0. -1.
         21   -1    0    0  501  503 -0.00000000000E+00 -0.00000000000E+00 -0.48221409225E+01  0.48221409225E+01  0.00000000000E+00 0. -1.
          3    1    1    2  501    0 -0.33193994282E+02 -0.39268665407E+01  0.14789452492E+03  0.15162470788E+03  0.00000000000E+00 0.  1.
         -3    1    1    2    0  502  0.33193994282E+02  0.39268665407E+01  0.91500412142E+02  0.97414511030E+02  0.00000000000E+00 0. -1.
<mgrwt>
<rscale>  2 0.33425462E+02</rscale>
<asrwt>0</asrwt>
<pdfrwt beam="1">  1       21 0.37571848E-01 0.33425462E+02</pdfrwt>
<pdfrwt beam="2">  1       21 0.74186803E-03 0.33425462E+02</pdfrwt>
<totfact> 0.33316414E+07</totfact>
</mgrwt>
</event>
<event>
 4    1  0.7119201E+004  0.2766689E+02  0.7546771E-02  0.1625409E+00
         21   -1    0    0  501  502  0.00000000000E+00  0.00000000000E+00  0.21997752529E+02  0.21997752529E+02  0.00000000000E+00 0.  1.
         21   -1    0    0  502  503 -0.00000000000E+00 -0.00000000000E+00 -0.41647396717E+02  0.41647396717E+02  0.00000000000E+00 0.  1.
          5    1    1    2  501    0 -0.11168142525E+02  0.25312630647E+02 -0.22731009669E+02  0.35807198694E+02  0.00000000000E+00 0. -1.
         -5    1    1    2    0  503  0.11168142525E+02 -0.25312630647E+02  0.30813654814E+01  0.27837950552E+02  0.00000000000E+00 0.  1.
<mgrwt>
<rscale>  2 0.27666888E+02</rscale>
<asrwt>0</asrwt>
<pdfrwt beam="1">  1       21 0.33842696E-02 0.27666888E+02</pdfrwt>
<pdfrwt beam="2">  1       21 0.64072918E-02 0.27666888E+02</pdfrwt>
<totfact> 0.66913136E+07</totfact>
</mgrwt>
</event>
<event>
 4    1  0.7119201E+004  0.3536037E+02  0.7546771E-02  0.1545424E+00
         21   -1    0    0  501  502  0.00000000000E+00  0.00000000000E+00  0.10340291949E+03  0.10340291949E+03  0.00000000000E+00 0. -1.
         21   -1    0    0  502  503 -0.00000000000E+00 -0.00000000000E+00 -0.12725512978E+02  0.12725512978E+02  0.00000000000E+00 0. -1.
          5    1    1    2  501    0 -0.75933242557E+01 -0.34535444406E+02  0.58293308249E+02  0.68179654444E+02  0.00000000000E+00 0. -1.
         -5    1    1    2    0  503  0.75933242557E+01  0.34535444406E+02  0.32384098262E+02  0.47948778022E+02  0.00000000000E+00 0.  1.
<mgrwt>
<rscale>  2 0.35360366E+02</rscale>
<asrwt>0</asrwt>
<pdfrwt beam="1">  1       21 0.15908141E-01 0.35360366E+02</pdfrwt>
<pdfrwt beam="2">  1       21 0.19577713E-02 0.35360366E+02</pdfrwt>
<totfact> 0.36165199E+07</totfact>
</mgrwt>
</event>
<event>
 4    1  0.7119201E+004  0.2248198E+02  0.7546771E-02  0.1700047E+00
         21   -1    0    0  503  502  0.00000000000E+00  0.00000000000E+00  0.69664236131E+03  0.69664236131E+03  0.00000000000E+00 0. -1.
         21   -1    0    0  501  503 -0.00000000000E+00 -0.00000000000E+00 -0.75672719119E+00  0.75672719119E+00  0.00000000000E+00 0. -1.
          2    1    1    2  501    0  0.22378964919E+02  0.21497249050E+01  0.41873656981E+03  0.41933966457E+03  0.00000000000E+00 0.  1.
         -2    1    1    2    0  502 -0.22378964919E+02 -0.21497249050E+01  0.27714906431E+03  0.27805942393E+03  0.00000000000E+00 0. -1.
<mgrwt>
<rscale>  2 0.22481979E+02</rscale>
<asrwt>0</asrwt>
<pdfrwt beam="1">  1       21 0.10717523E+00 0.22481979E+02</pdfrwt>
<pdfrwt beam="2">  1       21 0.11642013E-03 0.22481979E+02</pdfrwt>
<totfact> 0.54654375E+07</totfact>
</mgrwt>
</event>
<event>
 4    1  0.7119201E+004  0.2132732E+02  0.7546771E-02  0.1720152E+00
         21   -1    0    0  501  502  0.00000000000E+00  0.00000000000E+00  0.26364409875E+01  0.26364409875E+01  0.00000000000E+00 0.  1.
         21   -1    0    0  502  503 -0.00000000000E+00 -0.00000000000E+00 -0.17923051886E+03  0.17923051886E+03  0.00000000000E+00 0.  1.
          5    1    1    2  501    0  0.79678252490E+01 -0.19783032596E+02 -0.70709639067E+02  0.73855992816E+02  0.00000000000E+00 0.  1.
         -5    1    1    2    0  503 -0.79678252490E+01  0.19783032596E+02 -0.10588443881E+03  0.10801096703E+03  0.00000000000E+00 0. -1.
<mgrwt>
<rscale>  2 0.21327321E+02</rscale>
<asrwt>0</asrwt>
<pdfrwt beam="1">  1       21 0.40560621E-03 0.21327321E+02</pdfrwt>
<pdfrwt beam="2">  1       21 0.27573932E-01 0.21327321E+02</pdfrwt>
<totfact> 0.13023208E+08</totfact>
</mgrwt>
</event>
<event>
 4    1  0.7119201E+004  0.2263653E+02  0.7546771E-02  0.1697470E+00
         21   -1    0    0  501  502  0.00000000000E+00  0.00000000000E+00  0.30982003794E+01  0.30982003794E+01  0.00000000000E+00 0.  1.
         21   -1    0    0  502  503 -0.00000000000E+00 -0.00000000000E+00 -0.16672410984E+03  0.16672410984E+03  0.00000000000E+00 0.  1.
          5    1    1    2  501    0  0.22566761607E+02 -0.17759161129E+01 -0.89407396083E+02  0.92228493871E+02  0.00000000000E+00 0. -1.
         -5    1    1    2    0  503 -0.22566761607E+02  0.17759161129E+01 -0.74218513377E+02  0.77593816347E+02  0.00000000000E+00 0.  1.
<mgrwt>
<rscale>  2 0.22636533E+02</rscale>
<asrwt>0</asrwt>
<pdfrwt beam="1">  1       21 0.47664627E-03 0.22636533E+02</pdfrwt>
<pdfrwt beam="2">  1       21 0.25649860E-01 0.22636533E+02</pdfrwt>
<totfact> 0.11895994E+08</totfact>
</mgrwt>
</event>
<event>
 4    1  0.7119201E+004  0.2099662E+02  0.7546771E-02  0.1726206E+00
         21   -1    0    0  503  502  0.00000000000E+00  0.00000000000E+00  0.65902604068E+01  0.65902604068E+01  0.00000000000E+00 0.  1.
         21   -1    0    0  501  503 -0.00000000000E+00 -0.00000000000E+00 -0.71775764736E+02  0.71775764736E+02  0.00000000000E+00 0.  1.
          4    1    1    2  501    0  0.67106827199E+01  0.19895340918E+02 -0.42810066601E+02  0.47681858764E+02  0.00000000000E+00 0. -1.
         -4    1    1    2    0  502 -0.67106827199E+01 -0.19895340918E+02 -0.22375437728E+02  0.30684166379E+02  0.00000000000E+00 0.  1.
<mgrwt>
<rscale>  2 0.20996615E+02</rscale>
<asrwt>0</asrwt>
<pdfrwt beam="1">  1       21 0.10138863E-02 0.20996615E+02</pdfrwt>
<pdfrwt beam="2">  1       21 0.11042425E-01 0.20996615E+02</pdfrwt>
<totfact> 0.16131300E+08</totfact>
</mgrwt>
</event>
<event>
 4    1  0.7119201E+004  0.3012599E+02  0.7546771E-02  0.1596700E+00
         21   -1    0    0  503  502  0.00000000000E+00  0.00000000000E+00  0.84654555396E+02  0.84654555396E+02  0.00000000000E+00 0. -1.
         21   -1    0    0  501  503 -0.00000000000E+00 -0.00000000000E+00 -0.10908396629E+02  0.10908396629E+02  0.00000000000E+00 0. -1.
          3    1    1    2  501    0  0.58460101393E+01  0.29553336839E+02  0.30609231258E+02  0.42947649424E+02  0.00000000000E+00 0. -1.
         -3    1    1    2    0  502 -0.58460101393E+01 -0.29553336839E+02  0.43136927509E+02  0.52615302601E+02  0.00000000000E+00 0.  1.
<mgrwt>
<rscale>  2 0.30125995E+02</rscale>
<asrwt>0</asrwt>
<pdfrwt beam="1">  1       21 0.13023777E-01 0.30125995E+02</pdfrwt>
<pdfrwt beam="2">  1       21 0.16782149E-02 0.30125995E+02</pdfrwt>
<totfact> 0.62655652E+07</totfact>
</mgrwt>
</event>
<event>
 4    1  0.7119201E+004  0.2275304E+02  0.7546771E-02  0.1695545E+00
         21   -1    0    0  503  502  0.00000000000E+00  0.00000000000E+00  0.19218323717E+02  0.19218323717E+02  0.00000000000E+00 0.  1.
         21   -1    0    0  501  503 -0.00000000000E+00 -0.00000000000E+00 -0.28065871830E+02  0.28065871830E+02  0.00000000000E+00 0.  1.
          2    1    1    2  501    0  0.22135922760E+02 -0.52632381122E+01 -0.91634776396E+01  0.24528963988E+02  0.00000000000E+00 0. -1.
         -2    1    1    2    0  502 -0.22135922760E+02  0.52632381122E+01  0.31592952654E+00  0.22755231559E+02  0.00000000000E+00 0.  1.
<mgrwt>
<rscale>  2 0.22753038E+02</rscale>
<asrwt>0</asrwt>
<pdfrwt beam="1">  1       21 0.29566652E-02 0.22753038E+02</pdfrwt>
<pdfrwt beam="2">  1       21 0.43178264E-02 0.22753038E+02</pdfrwt>
<totfact> 0.14748236E+08</totfact>
</mgrwt>
</event>
<event>
 4    1  0.7119201E+004  0.2550446E+02  0.7546771E-02  0.1653860E+00
         21   -1    0    0  503  502  0.00000000000E+00  0.00000000000E+00  0.43724907484E+01  0.43724907484E+01  0.00000000000E+00 0.  1.
         21   -1    0    0  501  503 -0.00000000000E+00 -0.00000000000E+00 -0.15210718263E+03  0.15210718263E+03  0.00000000000E+00 0.  1.
          2    1    1    2  501    0 -0.54170129280E+00  0.25498705801E+02 -0.62271273393E+02  0.67291819174E+02  0.00000000000E+00 0. -1.
         -2    1    1    2    0  502  0.54170129280E+00 -0.25498705801E+02 -0.85463418492E+02  0.89187854207E+02  0.00000000000E+00 0.  1.
<mgrwt>
<rscale>  2 0.25504459E+02</rscale>
<asrwt>0</asrwt>
<pdfrwt beam="1">  1       21 0.67269081E-03 0.25504459E+02</pdfrwt>
<pdfrwt beam="2">  1       21 0.23401108E-01 0.25504459E+02</pdfrwt>
<totfact> 0.86797162E+07</totfact>
</mgrwt>
</event>
<event>
 4    1  0.7119201E+004  0.2008040E+02  0.7546771E-02  0.1743734E+00
         21   -1    0    0  501  502  0.00000000000E+00  0.00000000000E+00  0.50295726789E+01  0.50295726789E+01  0.00000000000E+00 0. -1.
         21   -1    0    0  502  503 -0.00000000000E+00 -0.00000000000E+00 -0.96604637296E+02  0.96604637296E+02  0.00000000000E+00 0. -1.
          4    1    1    2  501    0  0.18648640264E+02 -0.74465290996E+01 -0.66747298314E+02  0.69702398893E+02  0.00000000000E+00 0. -1.
         -4    1    1    2    0  503 -0.18648640264E+02  0.74465290996E+01 -0.24827766303E+02  0.31931811081E+02  0.00000000000E+00 0.  1.
<mgrwt>
<rscale>  2 0.20080403E+02</rscale>
<asrwt>0</asrwt>
<pdfrwt beam="1">  1       21 0.77378042E-03 0.20080403E+02</pdfrwt>
<pdfrwt beam="2">  1       21 0.14862252E-01 0.20080403E+02</pdfrwt>
<totfact> 0.14475636E+08</totfact>
</mgrwt>
</event>
<event>
 4    1  0.7119201E+004  0.2354348E+02  0.7546771E-02  0.1682849E+00
         21   -1    0    0  501  502  0.00000000000E+00  0.00000000000E+00  0.18930810703E+01  0.18930810703E+01  0.00000000000E+00 0.  1.
         21   -1    0    0  502  503 -0.00000000000E+00 -0.00000000000E+00 -0.29292170501E+03  0.29292170501E+03  0.00000000000E+00 0.  1.
          4    1    1    2  501    0  0.23339030774E+02  0.30959631441E+01 -0.14851110190E+03  0.15036569666E+03  0.00000000000E+00 0.  1.
         -4    1    1    2    0  503 -0.23339030774E+02 -0.30959631441E+01 -0.14251752204E+03  0.14444908941E+03  0.00000000000E+00 0. -1.
<mgrwt>
<rscale>  2 0.23543478E+02</rscale>
<asrwt>0</asrwt>
<pdfrwt beam="1">  1       21 0.29124328E-03 0.23543478E+02</pdfrwt>
<pdfrwt beam="2">  1       21 0.45064872E-01 0.23543478E+02</pdfrwt>
<totfact> 0.87300522E+07</totfact>
</mgrwt>
</event>
<event>
 4    1  0.7119201E+004  0.2865855E+02  0.7546771E-02  0.1613408E+00
         21   -1    0    0  501  502  0.00000000000E+00  0.00000000000E+00  0.12302301047E+03  0.12302301047E+03  0.00000000000E+00 0.  1.
         21   -1    0    0  502  503 -0.00000000000E+00 -0.00000000000E+00 -0.96905814387E+01  0.96905814387E+01  0.00000000000E+00 0.  1.
          2    1    1    2  501    0  0.14774481661E+01  0.28620444975E+02  0.19656349788E+02  0.34751759821E+02  0.00000000000E+00 0. -1.
         -2    1    1    2    0  503 -0.14774481661E+01 -0.28620444975E+02  0.93676079241E+02  0.97961832086E+02  0.00000000000E+00 0.  1.
<mgrwt>
<rscale>  2 0.28658554E+02</rscale>
<asrwt>0</asrwt>
<pdfrwt beam="1">  1       21 0.18926616E-01 0.28658554E+02</pdfrwt>
<pdfrwt beam="2">  1       21 0.14908588E-02 0.28658554E+02</pdfrwt>
<totfact> 0.38982125E+07</totfact>
</mgrwt>
</event>
<event>
 4    1  0.7119201E+004  0.7474539E+02  0.7546771E-02  0.1344661E+00
         21   -1    0    0  501  502  0.00000000000E+00  0.00000000000E+00  0.16930961270E+02  0.16930961270E+02  0.00000000000E+00 0. -1.
         21   -1    0    0  502  503 -0.00000000000E+00 -0.00000000000E+00 -0.33119831282E+03  0.33119831282E+03  0.00000000000E+00 0. -1.
          2    1    1    2  501    0 -0.65304212405E+02  0.36362516896E+02 -0.16769229238E+03  0.18359623557E+03  0.00000000000E+00 0. -1.
         -2    1    1    2    0  503  0.65304212405E+02 -0.36362516896E+02 -0.14657505917E+03  0.16453303851E+03  0.00000000000E+00 0.  1.
<mgrwt>
<rscale>  2 0.74745386E+02</rscale>
<asrwt>0</asrwt>
<pdfrwt beam="1">  1       21 0.26047633E-02 0.74745386E+02</pdfrwt>
<pdfrwt beam="2">  1       21 0.50953586E-01 0.74745386E+02</pdfrwt>
<totfact> 0.28401781E+06</totfact>
</mgrwt>
</event>
<event>
 4    1  0.7119201E+004  0.2952510E+02  0.7546771E-02  0.1603398E+00
         21   -1    0    0  503  502  0.00000000000E+00  0.00000000000E+00  0.22693942416E+01  0.22693942416E+01  0.00000000000E+00 0.  1.
         21   -1    0    0  501  503 -0.00000000000E+00 -0.00000000000E+00 -0.38556752465E+03  0.38556752465E+03  0.00000000000E+00 0.  1.
          1    1    1    2  501    0  0.16486585379E+02  0.24493346305E+02 -0.20350950672E+03  0.20564010026E+03  0.00000000000E+00 0. -1.
         -1    1    1    2    0  502 -0.16486585379E+02 -0.24493346305E+02 -0.17978862369E+03  0.18219681863E+03  0.00000000000E+00 0.  1.
<mgrwt>
<rscale>  2 0.29525100E+02</rscale>
<asrwt>0</asrwt>
<pdfrwt beam="1">  1       21 0.34913740E-03 0.29525100E+02</pdfrwt>
<pdfrwt beam="2">  1       21 0.59318110E-01 0.29525100E+02</pdfrwt>
<totfact> 0.41015808E+07</totfact>
</mgrwt>
</event>
<event>
 4    1  0.7119201E+004  0.2975575E+02  0.7546771E-02  0.1600804E+00
         21   -1    0    0  501  502  0.00000000000E+00  0.00000000000E+00  0.48284271882E+03  0.48284271882E+03  0.00000000000E+00 0. -1.
         21   -1    0    0  502  503 -0.00000000000E+00 -0.00000000000E+00 -0.18349021976E+01  0.18349021976E+01  0.00000000000E+00 0. -1.
          5    1    1    2  501    0 -0.29746503331E+02  0.74160907505E+00  0.23438560799E+03  0.23626683576E+03  0.00000000000E+00 0.  1.
         -5    1    1    2    0  503  0.29746503331E+02 -0.74160907505E+00  0.24662220863E+03  0.24841078526E+03  0.00000000000E+00 0. -1.
<mgrwt>
<rscale>  2 0.29755746E+02</rscale>
<asrwt>0</asrwt>
<pdfrwt beam="1">  1       21 0.74283394E-01 0.29755746E+02</pdfrwt>
<pdfrwt beam="2">  1       21 0.28229303E-03 0.29755746E+02</pdfrwt>
<totfact> 0.35362867E+07</totfact>
</mgrwt>
</event>
<event>
 4    1  0.7119201E+004  0.2205212E+02  0.7546771E-02  0.1707352E+00
         21   -1    0    0  501  502  0.00000000000E+00  0.00000000000E+00  0.43755030868E+02  0.43755030868E+02  0.00000000000E+00 0. -1.
         21   -1    0    0  502  503 -0.00000000000E+00 -0.00000000000E+00 -0.11406723133E+02  0.11406723133E+02  0.00000000000E+00 0. -1.
          5    1    1    2  501    0  0.12940157828E+02  0.17856320653E+02  0.20592039345E+02  0.30171641591E+02  0.00000000000E+00 0. -1.
         -5    1    1    2    0  503 -0.12940157828E+02 -0.17856320653E+02  0.11756268390E+02  0.24990112411E+02  0.00000000000E+00 0.  1.
<mgrwt>
<rscale>  2 0.22052117E+02</rscale>
<asrwt>0</asrwt>
<pdfrwt beam="1">  1       21 0.67315431E-02 0.22052117E+02</pdfrwt>
<pdfrwt beam="2">  1       21 0.17548805E-02 0.22052117E+02</pdfrwt>
<totfact> 0.16055291E+08</totfact>
</mgrwt>
</event>
<event>
 4    1  0.7119201E+004  0.2647669E+02  0.7546771E-02  0.1640655E+00
         21   -1    0    0  503  502  0.00000000000E+00  0.00000000000E+00  0.20549250442E+02  0.20549250442E+02  0.00000000000E+00 0. -1.
         21   -1    0    0  501  503 -0.00000000000E+00 -0.00000000000E+00 -0.42246030294E+02  0.42246030294E+02  0.00000000000E+00 0. -1.
          3    1    1    2  501    0 -0.12360629473E+02  0.23414309463E+02 -0.24623854545E+02  0.36157285037E+02  0.00000000000E+00 0.  1.
         -3    1    1    2    0  502  0.12360629473E+02 -0.23414309463E+02  0.29270746922E+01  0.26637995699E+02  0.00000000000E+00 0. -1.
<mgrwt>
<rscale>  2 0.26476689E+02</rscale>
<asrwt>0</asrwt>
<pdfrwt beam="1">  1       21 0.31614232E-02 0.26476689E+02</pdfrwt>
<pdfrwt beam="2">  1       21 0.64993891E-02 0.26476689E+02</pdfrwt>
<totfact> 0.71981250E+07</totfact>
</mgrwt>
</event>
<event>
 4    1  0.7119201E+004  0.2237593E+02  0.7546771E-02  0.1701830E+00
         21   -1    0    0  501  502  0.00000000000E+00  0.00000000000E+00  0.32208522690E+02  0.32208522690E+02  0.00000000000E+00 0. -1.
         21   -1    0    0  502  503 -0.00000000000E+00 -0.00000000000E+00 -0.21266182438E+02  0.21266182438E+02  0.00000000000E+00 0. -1.
          4    1    1    2  501    0 -0.12810100048E+01  0.22339235849E+02  0.19339220248E+02  0.29575122734E+02  0.00000000000E+00 0.  1.
         -4    1    1    2    0  503  0.12810100048E+01 -0.22339235849E+02 -0.83968799960E+01  0.23899582394E+02  0.00000000000E+00 0. -1.
<mgrwt>
<rscale>  2 0.22375935E+02</rscale>
<asrwt>0</asrwt>
<pdfrwt beam="1">  1       21 0.49551573E-02 0.22375935E+02</pdfrwt>
<pdfrwt beam="2">  1       21 0.32717204E-02 0.22375935E+02</pdfrwt>
<totfact> 0.10075753E+08</totfact>
</mgrwt>
</event>
<event>
 4    1  0.7119201E+004  0.3045465E+02  0.7546771E-02  0.1593117E+00
         21   -1    0    0  501  502  0.00000000000E+00  0.00000000000E+00  0.82306273296E+03  0.82306273296E+03  0.00000000000E+00 0.  1.
         21   -1    0    0  502  503 -0.00000000000E+00 -0.00000000000E+00 -0.11380497230E+01  0.11380497230E+01  0.00000000000E+00 0.  1.
          1    1    1    2  501    0 -0.30182322106E+02  0.40636025079E+01  0.37011905580E+03  0.37136989768E+03  0.00000000000E+00 0.  1.
         -1    1    1    2    0  503  0.30182322106E+02 -0.40636025079E+01  0.45180562743E+03  0.45283088500E+03  0.00000000000E+00 0. -1.
<mgrwt>
<rscale>  2 0.30454646E+02</rscale>
<asrwt>0</asrwt>
<pdfrwt beam="1">  1       21 0.12662456E+00 0.30454646E+02</pdfrwt>
<pdfrwt beam="2">  1       21 0.17508523E-03 0.30454646E+02</pdfrwt>
<totfact> 0.22017941E+07</totfact>
</mgrwt>
</event>
<event>
 4    1  0.7119201E+004  0.2753167E+02  0.7546771E-02  0.1627093E+00
         21   -1    0    0  501  502  0.00000000000E+00  0.00000000000E+00  0.16273652334E+01  0.16273652334E+01  0.00000000000E+00 0. -1.
         21   -1    0    0  502  503 -0.00000000000E+00 -0.00000000000E+00 -0.46669385141E+03  0.46669385141E+03  0.00000000000E+00 0. -1.
          1    1    1    2  501    0  0.12039076272E+02 -0.24759918073E+02 -0.22216698290E+03  0.22386639138E+03  0.00000000000E+00 0. -1.
         -1    1    1    2    0  503 -0.12039076272E+02  0.24759918073E+02 -0.24289950328E+03  0.24445482526E+03  0.00000000000E+00 0.  1.
<mgrwt>
<rscale>  2 0.27531671E+02</rscale>
<asrwt>0</asrwt>
<pdfrwt beam="1">  1       21 0.25036386E-03 0.27531671E+02</pdfrwt>
<pdfrwt beam="2">  1       21 0.71799061E-01 0.27531671E+02</pdfrwt>
<totfact> 0.44575381E+07</totfact>
</mgrwt>
</event>
<event>
 4    1  0.7119201E+004  0.2829253E+02  0.7546771E-02  0.1617767E+00
         21   -1    0    0  503  502  0.00000000000E+00  0.00000000000E+00  0.99910960325E+02  0.99910960325E+02  0.00000000000E+00 0.  1.
         21   -1    0    0  501  503 -0.00000000000E+00 -0.00000000000E+00 -0.80401924913E+01  0.80401924913E+01  0.00000000000E+00 0.  1.
          3    1    1    2  501    0  0.27015233417E+02 -0.84050120200E+01  0.42728134243E+02  0.51246078089E+02  0.00000000000E+00 0. -1.
         -3    1    1    2    0  502 -0.27015233417E+02  0.84050120200E+01  0.49142633591E+02  0.56705074727E+02  0.00000000000E+00 0.  1.
<mgrwt>
<rscale>  2 0.28292527E+02</rscale>
<asrwt>0</asrwt>
<pdfrwt beam="1">  1       21 0.15370916E-01 0.28292527E+02</pdfrwt>
<pdfrwt beam="2">  1       21 0.12369528E-02 0.28292527E+02</pdfrwt>
<totfact> 0.74171807E+07</totfact>
</mgrwt>
</event>
<event>
 4    1  0.7119201E+004  0.2999866E+02  0.7546771E-02  0.1598103E+00
         21   -1    0    0  503  502  0.00000000000E+00  0.00000000000E+00  0.28129232787E+03  0.28129232787E+03  0.00000000000E+00 0.  1.
         21   -1    0    0  501  503 -0.00000000000E+00 -0.00000000000E+00 -0.32088037473E+01  0.32088037473E+01  0.00000000000E+00 0.  1.
          3    1    1    2  501    0 -0.56013719746E+01 -0.29471074034E+02  0.14681076794E+03  0.14984432307E+03  0.00000000000E+00 0. -1.
         -3    1    1    2    0  502  0.56013719746E+01  0.29471074034E+02  0.13127275618E+03  0.13465680855E+03  0.00000000000E+00 0.  1.
<mgrwt>
<rscale>  2 0.29998660E+02</rscale>
<asrwt>0</asrwt>
<pdfrwt beam="1">  1       21 0.43275723E-01 0.29998660E+02</pdfrwt>
<pdfrwt beam="2">  1       21 0.49366234E-03 0.29998660E+02</pdfrwt>
<totfact> 0.45843432E+07</totfact>
</mgrwt>
</event>
<event>
 4    1  0.7119201E+004  0.4242035E+02  0.7546771E-02  0.1491120E+00
         21   -1    0    0  501  502  0.00000000000E+00  0.00000000000E+00  0.18960881961E+03  0.18960881961E+03  0.00000000000E+00 0. -1.
         21   -1    0    0  502  503 -0.00000000000E+00 -0.00000000000E+00 -0.10614206645E+02  0.10614206645E+02  0.00000000000E+00 0. -1.
          3    1    1    2  501    0  0.39250737273E+02 -0.16089300106E+02  0.56923897456E+02  0.70991661876E+02  0.00000000000E+00 0. -1.
         -3    1    1    2    0  503 -0.39250737273E+02  0.16089300106E+02  0.12207071551E+03  0.12923136438E+03  0.00000000000E+00 0.  1.
<mgrwt>
<rscale>  2 0.42420348E+02</rscale>
<asrwt>0</asrwt>
<pdfrwt beam="1">  1       21 0.29170585E-01 0.42420348E+02</pdfrwt>
<pdfrwt beam="2">  1       21 0.16329550E-02 0.42420348E+02</pdfrwt>
<totfact> 0.16641767E+07</totfact>
</mgrwt>
</event>
<event>
 4    1  0.7119201E+004  0.2200085E+02  0.7546771E-02  0.1708237E+00
         21   -1    0    0  501  502  0.00000000000E+00  0.00000000000E+00  0.31589574132E+01  0.31589574132E+01  0.00000000000E+00 0. -1.
         21   -1    0    0  502  503 -0.00000000000E+00 -0.00000000000E+00 -0.16359769625E+03  0.16359769625E+03  0.00000000000E+00 0. -1.
          2    1    1    2  501    0 -0.11495942691E+02 -0.18758484759E+02 -0.59226619695E+02  0.63180930108E+02  0.00000000000E+00 0.  1.
         -2    1    1    2    0  503  0.11495942691E+02  0.18758484759E+02 -0.10121211914E+03  0.10357572356E+03  0.00000000000E+00 0. -1.
<mgrwt>
<rscale>  2 0.22000851E+02</rscale>
<asrwt>0</asrwt>
<pdfrwt beam="1">  1       21 0.48599346E-03 0.22000851E+02</pdfrwt>
<pdfrwt beam="2">  1       21 0.25168876E-01 0.22000851E+02</pdfrwt>
<totfact> 0.11862489E+08</totfact>
</mgrwt>
</event>
<event>
 4    1  0.7119201E+004  0.2176484E+02  0.7546771E-02  0.1712351E+00
         21   -1    0    0  503  502  0.00000000000E+00  0.00000000000E+00  0.97916424679E+02  0.97916424679E+02  0.00000000000E+00 0. -1.
         21   -1    0    0  501  503 -0.00000000000E+00 -0.00000000000E+00 -0.48453614918E+01  0.48453614918E+01  0.00000000000E+00 0. -1.
          5    1    1    2  501    0  0.11811673872E+02  0.18280931952E+02  0.44516824353E+02  0.49552555567E+02  0.00000000000E+00 0. -1.
         -5    1    1    2    0  502 -0.11811673872E+02 -0.18280931952E+02  0.48554238835E+02  0.53209230604E+02  0.00000000000E+00 0.  1.
<mgrwt>
<rscale>  2 0.21764837E+02</rscale>
<asrwt>0</asrwt>
<pdfrwt beam="1">  1       21 0.15064064E-01 0.21764837E+02</pdfrwt>
<pdfrwt beam="2">  1       21 0.74544031E-03 0.21764837E+02</pdfrwt>
<totfact> 0.15324350E+08</totfact>
</mgrwt>
</event>
<event>
 4    1  0.7119201E+004  0.2239621E+02  0.7546771E-02  0.1701488E+00
         21   -1    0    0  501  502  0.00000000000E+00  0.00000000000E+00  0.13834653083E+02  0.13834653083E+02  0.00000000000E+00 0.  1.
         21   -1    0    0  502  503 -0.00000000000E+00 -0.00000000000E+00 -0.44519213944E+02  0.44519213944E+02  0.00000000000E+00 0.  1.
          3    1    1    2  501    0  0.22032123283E+02  0.40219076471E+01 -0.27912372885E+02  0.35786739969E+02  0.00000000000E+00 0.  1.
         -3    1    1    2    0  503 -0.22032123283E+02 -0.40219076471E+01 -0.27721879749E+01  0.22567127058E+02  0.00000000000E+00 0. -1.
<mgrwt>
<rscale>  2 0.22396209E+02</rscale>
<asrwt>0</asrwt>
<pdfrwt beam="1">  1       21 0.21284082E-02 0.22396209E+02</pdfrwt>
<pdfrwt beam="2">  1       21 0.68491098E-02 0.22396209E+02</pdfrwt>
<totfact> 0.11674183E+08</totfact>
</mgrwt>
</event>
<event>
 4    1  0.7119201E+004  0.2559154E+02  0.7546771E-02  0.1652648E+00
         21   -1    0    0  501  502  0.00000000000E+00  0.00000000000E+00  0.25350202941E+02  0.25350202941E+02  0.00000000000E+00 0. -1.
         21   -1    0    0  502  503 -0.00000000000E+00 -0.00000000000E+00 -0.26401021911E+02  0.26401021911E+02  0.00000000000E+00 0. -1.
          2    1    1    2  501    0  0.24987205332E+02 -0.55286969540E+01  0.32627641679E+01  0.25798692802E+02  0.00000000000E+00 0.  1.
         -2    1    1    2    0  503 -0.24987205332E+02  0.55286969540E+01 -0.43135831376E+01  0.25952532049E+02  0.00000000000E+00 0. -1.
<mgrwt>
<rscale>  2 0.25591540E+02</rscale>
<asrwt>0</asrwt>
<pdfrwt beam="1">  1       21 0.39000312E-02 0.25591540E+02</pdfrwt>
<pdfrwt beam="2">  1       21 0.40616957E-02 0.25591540E+02</pdfrwt>
<totfact> 0.10886596E+08</totfact>
</mgrwt>
</event>
<event>
 4    1  0.7119201E+004  0.2022128E+02  0.7546771E-02  0.1740963E+00
         21   -1    0    0  501  502  0.00000000000E+00  0.00000000000E+00  0.44376285936E+02  0.44376285936E+02  0.00000000000E+00 0. -1.
         21   -1    0    0  502  503 -0.00000000000E+00 -0.00000000000E+00 -0.10992449301E+02  0.10992449301E+02  0.00000000000E+00 0. -1.
          5    1    1    2  501    0  0.18665266495E+02  0.77786848639E+01  0.27826176849E+02  0.34397619534E+02  0.00000000000E+00 0. -1.
         -5    1    1    2    0  503 -0.18665266495E+02 -0.77786848639E+01  0.55576597863E+01  0.20971115704E+02  0.00000000000E+00 0.  1.
<mgrwt>
<rscale>  2 0.20221279E+02</rscale>
<asrwt>0</asrwt>
<pdfrwt beam="1">  1       21 0.68271208E-02 0.20221279E+02</pdfrwt>
<pdfrwt beam="2">  1       21 0.16911461E-02 0.20221279E+02</pdfrwt>
<totfact> 0.16162187E+08</totfact>
</mgrwt>
</event>
<event>
 4    1  0.7119201E+004  0.3823121E+02  0.7546771E-02  0.1521646E+00
         21   -1    0    0  501  502  0.00000000000E+00  0.00000000000E+00  0.46171852470E+02  0.46171852470E+02  0.00000000000E+00 0. -1.
         21   -1    0    0  502  503 -0.00000000000E+00 -0.00000000000E+00 -0.37458459355E+02  0.37458459355E+02  0.00000000000E+00 0. -1.
          2    1    1    2  501    0  0.33417911907E+02 -0.18570638027E+02 -0.12100554853E+02  0.40100484545E+02  0.00000000000E+00 0. -1.
         -2    1    1    2    0  503 -0.33417911907E+02  0.18570638027E+02  0.20813947969E+02  0.43529827280E+02  0.00000000000E+00 0.  1.
<mgrwt>
<rscale>  2 0.38231210E+02</rscale>
<asrwt>0</asrwt>
<pdfrwt beam="1">  1       21 0.71033619E-02 0.38231210E+02</pdfrwt>
<pdfrwt beam="2">  1       21 0.57628399E-02 0.38231210E+02</pdfrwt>
<totfact> 0.25736324E+07</totfact>
</mgrwt>
</event>
<event>
 4    1  0.7119201E+004  0.2059884E+02  0.7546771E-02  0.1733675E+00
         21   -1    0    0  501  502  0.00000000000E+00  0.00000000000E+00  0.53828878248E+01  0.53828878248E+01  0.00000000000E+00 0. -1.
         21   -1    0    0  502  503 -0.00000000000E+00 -0.00000000000E+00 -0.11715291831E+03  0.11715291831E+03  0.00000000000E+00 0. -1.
          4    1    1    2  501    0 -0.33451299661E+01  0.20325407835E+02 -0.20841489171E+02  0.29303238200E+02  0.00000000000E+00 0.  1.
         -4    1    1    2    0  503  0.33451299661E+01 -0.20325407835E+02 -0.90928541319E+02  0.93232567939E+02  0.00000000000E+00 0. -1.
<mgrwt>
<rscale>  2 0.20598837E+02</rscale>
<asrwt>0</asrwt>
<pdfrwt beam="1">  1       21 0.82813666E-03 0.20598837E+02</pdfrwt>
<pdfrwt beam="2">  1       21 0.18023524E-01 0.20598837E+02</pdfrwt>
<totfact> 0.94903602E+07</totfact>
</mgrwt>
</event>
<event>
 4    1  0.7119201E+004  0.2025168E+02  0.7546771E-02  0.1740369E+00
         21   -1    0    0  501  502  0.00000000000E+00  0.00000000000E+00  0.10614512857E+02  0.10614512857E+02  0.00000000000E+00 0.  1.
         21   -1    0    0  502  503 -0.00000000000E+00 -0.00000000000E+00 -0.40642127032E+02  0.40642127032E+02  0.00000000000E+00 0.  1.
          3    1    1    2  501    0 -0.19128586982E+02  0.66503818634E+01 -0.20703966010E+02  0.28961778733E+02  0.00000000000E+00 0. -1.
         -3    1    1    2    0  503  0.19128586982E+02 -0.66503818634E+01 -0.93236481641E+01  0.22294861156E+02  0.00000000000E+00 0.  1.
<mgrwt>
<rscale>  2 0.20251677E+02</rscale>
<asrwt>0</asrwt>
<pdfrwt beam="1">  1       21 0.16330020E-02 0.20251677E+02</pdfrwt>
<pdfrwt beam="2">  1       21 0.62526350E-02 0.20251677E+02</pdfrwt>
<totfact> 0.19635684E+08</totfact>
</mgrwt>
</event>
<event>
 4    1  0.7119201E+004  0.3276390E+02  0.7546771E-02  0.1569404E+00
         21   -1    0    0  503  502  0.00000000000E+00  0.00000000000E+00  0.17170788888E+03  0.17170788888E+03  0.00000000000E+00 0. -1.
         21   -1    0    0  501  503 -0.00000000000E+00 -0.00000000000E+00 -0.69900869952E+01  0.69900869952E+01  0.00000000000E+00 0. -1.
          1    1    1    2  501    0 -0.14893915895E+02 -0.29182952678E+02  0.53320148697E+02  0.62582039874E+02  0.00000000000E+00 0. -1.
         -1    1    1    2    0  502  0.14893915895E+02  0.29182952678E+02  0.11139765319E+03  0.11611593600E+03  0.00000000000E+00 0.  1.
<mgrwt>
<rscale>  2 0.32763905E+02</rscale>
<asrwt>0</asrwt>
<pdfrwt beam="1">  1       21 0.26416595E-01 0.32763905E+02</pdfrwt>
<pdfrwt beam="2">  1       21 0.10753981E-02 0.32763905E+02</pdfrwt>
<totfact> 0.36374851E+07</totfact>
</mgrwt>
</event>
<event>
 4    1  0.7119201E+004  0.2170053E+02  0.7546771E-02  0.1713483E+00
         21   -1    0    0  503  502  0.00000000000E+00  0.00000000000E+00  0.92836743177E+01  0.92836743177E+01  0.00000000000E+00 0.  1.
         21   -1    0    0  501  503 -0.00000000000E+00 -0.00000000000E+00 -0.50943161743E+02  0.50943161743E+02  0.00000000000E+00 0.  1.
          3    1    1    2  501    0  0.17639542988E+02 -0.12639606128E+02 -0.18858494921E+02  0.28749886096E+02  0.00000000000E+00 0.  1.
         -3    1    1    2    0  502 -0.17639542988E+02  0.12639606128E+02 -0.22800992504E+02  0.31476949964E+02  0.00000000000E+00 0. -1.
<mgrwt>
<rscale>  2 0.21700533E+02</rscale>
<asrwt>0</asrwt>
<pdfrwt beam="1">  1       21 0.14282576E-02 0.21700533E+02</pdfrwt>
<pdfrwt beam="2">  1       21 0.78374092E-02 0.21700533E+02</pdfrwt>
<totfact> 0.17077315E+08</totfact>
</mgrwt>
</event>
<event>
 4    1  0.7119201E+004  0.2149895E+02  0.7546771E-02  0.1717064E+00
         21   -1    0    0  501  502  0.00000000000E+00  0.00000000000E+00  0.10878560473E+01  0.10878560473E+01  0.00000000000E+00 0. -1.
         21   -1    0    0  502  503 -0.00000000000E+00 -0.00000000000E+00 -0.57452800454E+03  0.57452800454E+03  0.00000000000E+00 0. -1.
          4    1    1    2  501    0 -0.10690694711E+02  0.18652445209E+02 -0.43360845307E+03  0.43414110061E+03  0.00000000000E+00 0. -1.
         -4    1    1    2    0  503  0.10690694711E+02 -0.18652445209E+02 -0.13983169542E+03  0.14147475998E+03  0.00000000000E+00 0.  1.
<mgrwt>
<rscale>  2 0.21498946E+02</rscale>
<asrwt>0</asrwt>
<pdfrwt beam="1">  1       21 0.16736254E-03 0.21498946E+02</pdfrwt>
<pdfrwt beam="2">  1       21 0.88388885E-01 0.21498946E+02</pdfrwt>
<totfact> 0.48916223E+07</totfact>
</mgrwt>
</event>
<event>
 4    1  0.7119201E+004  0.2671073E+02  0.7546771E-02  0.1637580E+00
         21   -1    0    0  501  502  0.00000000000E+00  0.00000000000E+00  0.21537526418E+02  0.21537526418E+02  0.00000000000E+00 0. -1.
         21   -1    0    0  502  503 -0.00000000000E+00 -0.00000000000E+00 -0.34695180133E+02  0.34695180133E+02  0.00000000000E+00 0. -1.
          5    1    1    2  501    0  0.23358869524E+02  0.12954789413E+02 -0.60037828940E+00  0.26717481323E+02  0.00000000000E+00 0.  1.
         -5    1    1    2    0  503 -0.23358869524E+02 -0.12954789413E+02 -0.12557275426E+02  0.29515225228E+02  0.00000000000E+00 0. -1.
<mgrwt>
<rscale>  2 0.26710735E+02</rscale>
<asrwt>0</asrwt>
<pdfrwt beam="1">  1       21 0.33134656E-02 0.26710735E+02</pdfrwt>
<pdfrwt beam="2">  1       21 0.53377200E-02 0.26710735E+02</pdfrwt>
<totfact> 0.92083029E+07</totfact>
</mgrwt>
</event>
<event>
 4    1  0.7119201E+004  0.2202044E+02  0.7546771E-02  0.1707899E+00
         21   -1    0    0  501  502  0.00000000000E+00  0.00000000000E+00  0.72708508817E+01  0.72708508817E+01  0.00000000000E+00 0. -1.
         21   -1    0    0  502  503 -0.00000000000E+00 -0.00000000000E+00 -0.69138060626E+02  0.69138060626E+02  0.00000000000E+00 0. -1.
          4    1    1    2  501    0 -0.93986735370E+01  0.19913933226E+02 -0.38121207766E+02  0.44024155669E+02  0.00000000000E+00 0. -1.
         -4    1    1    2    0  503  0.93986735370E+01 -0.19913933226E+02 -0.23746001978E+02  0.32384755839E+02  0.00000000000E+00 0.  1.
<mgrwt>
<rscale>  2 0.22020441E+02</rscale>
<asrwt>0</asrwt>
<pdfrwt beam="1">  1       21 0.11185924E-02 0.22020441E+02</pdfrwt>
<pdfrwt beam="2">  1       21 0.10636625E-01 0.22020441E+02</pdfrwt>
<totfact> 0.15026648E+08</totfact>
</mgrwt>
</event>
<event>
 4    1  0.7119201E+004  0.5623588E+02  0.7546771E-02  0.1414343E+00
         21   -1    0    0  501  502  0.00000000000E+00  0.00000000000E+00  0.16212770859E+02  0.16212770859E+02  0.00000000000E+00 0. -1.
         21   -1    0    0  502  503 -0.00000000000E+00 -0.00000000000E+00 -0.19619057947E+03  0.19619057947E+03  0.00000000000E+00 0. -1.
          5    1    1    2  501    0 -0.49363383085E+01  0.56018806148E+02 -0.81929321646E+02  0.99372470149E+02  0.00000000000E+00 0.  1.
         -5    1    1    2    0  503  0.49363383085E+01 -0.56018806148E+02 -0.98048486960E+02  0.11303088018E+03  0.00000000000E+00 0. -1.
<mgrwt>
<rscale>  2 0.56235879E+02</rscale>
<asrwt>0</asrwt>
<pdfrwt beam="1">  1       21 0.24942723E-02 0.56235879E+02</pdfrwt>
<pdfrwt beam="2">  1       21 0.30183168E-01 0.56235879E+02</pdfrwt>
<totfact> 0.82931660E+06</totfact>
</mgrwt>
</event>
<event>
 4    1  0.7119201E+004  0.2267412E+02  0.7546771E-02  0.1696848E+00
         21   -1    0    0  503  502  0.00000000000E+00  0.00000000000E+00  0.67095811135E+02  0.67095811135E+02  0.00000000000E+00 0.  1.
         21   -1    0    0  501  503 -0.00000000000E+00 -0.00000000000E+00 -0.10526919057E+02  0.10526919057E+02  0.00000000000E+00 0.  1.
          2    1    1    2  501    0 -0.22323759791E+02 -0.39705627117E+01  0.48530172761E+02  0.53565784673E+02  0.00000000000E+00 0.  1.
         -2    1    1    2    0  502  0.22323759791E+02  0.39705627117E+01  0.80387193167E+01  0.24056945519E+02  0.00000000000E+00 0. -1.
<mgrwt>
<rscale>  2 0.22674118E+02</rscale>
<asrwt>0</asrwt>
<pdfrwt beam="1">  1       21 0.10322432E-01 0.22674118E+02</pdfrwt>
<pdfrwt beam="2">  1       21 0.16195261E-02 0.22674118E+02</pdfrwt>
<totfact> 0.90972202E+07</totfact>
</mgrwt>
</event>
<event>
 4    1  0.7119201E+004  0.3339343E+02  0.7546771E-02  0.1563348E+00
         21   -1    0    0  503  502  0.00000000000E+00  0.00000000000E+00  0.22842764237E+01  0.22842764237E+01  0.00000000000E+00 0.  1.
         21   -1    0    0  501  503 -0.00000000000E+00 -0.00000000000E+00 -0.69779036654E+03  0.69779036654E+03  0.00000000000E+00 0.  1.
          1    1    1    2  501    0  0.25836436573E+02 -0.21156554942E+02 -0.53960483770E+03  0.54063712613E+03  0.00000000000E+00 0. -1.
         -1    1    1    2    0  502 -0.25836436573E+02  0.21156554942E+02 -0.15590125242E+03  0.15943751684E+03  0.00000000000E+00 0.  1.
<mgrwt>
<rscale>  2 0.33393432E+02</rscale>
<asrwt>0</asrwt>
<pdfrwt beam="1">  1       21 0.35142691E-03 0.33393432E+02</pdfrwt>
<pdfrwt beam="2">  1       21 0.10735244E+00 0.33393432E+02</pdfrwt>
<totfact> 0.11718306E+07</totfact>
</mgrwt>
</event>
<event>
 4    1  0.7119201E+004  0.2180205E+02  0.7546771E-02  0.1711698E+00
         21   -1    0    0  503  502  0.00000000000E+00  0.00000000000E+00  0.84213781083E+02  0.84213781083E+02  0.00000000000E+00 0.  1.
         21   -1    0    0  501  503 -0.00000000000E+00 -0.00000000000E+00 -0.62424382566E+01  0.62424382566E+01  0.00000000000E+00 0.  1.
          2    1    1    2  501    0  0.19294890704E+02 -0.10150685941E+02  0.24985733280E+02  0.33160459886E+02  0.00000000000E+00 0. -1.
         -2    1    1    2    0  502 -0.19294890704E+02  0.10150685941E+02  0.52985609546E+02  0.57295759453E+02  0.00000000000E+00 0.  1.
<mgrwt>
<rscale>  2 0.21802047E+02</rscale>
<asrwt>0</asrwt>
<pdfrwt beam="1">  1       21 0.12955965E-01 0.21802047E+02</pdfrwt>
<pdfrwt beam="2">  1       21 0.96037518E-03 0.21802047E+02</pdfrwt>
<totfact> 0.13553132E+08</totfact>
</mgrwt>
</event>
<event>
 4    1  0.7119201E+004  0.2212583E+02  0.7546771E-02  0.1706085E+00
         21   -1    0    0  501  502  0.00000000000E+00  0.00000000000E+00  0.95751199423E+01  0.95751199423E+01  0.00000000000E+00 0.  1.
         21   -1    0    0  502  503 -0.00000000000E+00 -0.00000000000E+00 -0.63973211807E+02  0.63973211807E+02  0.00000000000E+00 0.  1.
          4    1    1    2  501    0  0.12422359992E+02 -0.18309483299E+02 -0.10720367518E+02  0.24586144191E+02  0.00000000000E+00 0. -1.
         -4    1    1    2    0  503 -0.12422359992E+02  0.18309483299E+02 -0.43677724346E+02  0.48962187558E+02  0.00000000000E+00 0.  1.
<mgrwt>
<rscale>  2 0.22125827E+02</rscale>
<asrwt>0</asrwt>
<pdfrwt beam="1">  1       21 0.14730953E-02 0.22125827E+02</pdfrwt>
<pdfrwt beam="2">  1       21 0.98420328E-02 0.22125827E+02</pdfrwt>
<totfact> 0.11288461E+08</totfact>
</mgrwt>
</event>
<event>
 4    1  0.7119201E+004  0.2148926E+02  0.7546771E-02  0.1717238E+00
         21   -1    0    0  501  502  0.00000000000E+00  0.00000000000E+00  0.46153631718E+00  0.46153631718E+00  0.00000000000E+00 0.  1.
         21   -1    0    0  502  503 -0.00000000000E+00 -0.00000000000E+00 -0.11413483526E+04  0.11413483526E+04  0.00000000000E+00 0.  1.
          2    1    1    2  501    0  0.12492974067E+02 -0.17484680439E+02 -0.77096410271E+03  0.77126353221E+03  0.00000000000E+00 0.  1.
         -2    1    1    2    0  503 -0.12492974067E+02  0.17484680439E+02 -0.36992271354E+03  0.37054635668E+03  0.00000000000E+00 0. -1.
<mgrwt>
<rscale>  2 0.21489264E+02</rscale>
<asrwt>0</asrwt>
<pdfrwt beam="1">  1       21 0.71005095E-04 0.21489264E+02</pdfrwt>
<pdfrwt beam="2">  1       21 0.17559327E+00 0.21489264E+02</pdfrwt>
<totfact> 0.34673811E+07</totfact>
</mgrwt>
</event>
<event>
 4    1  0.7119201E+004  0.2030446E+02  0.7546771E-02  0.1739340E+00
         21   -1    0    0  501  502  0.00000000000E+00  0.00000000000E+00  0.73258307395E+01  0.73258307395E+01  0.00000000000E+00 0.  1.
         21   -1    0    0  502  503 -0.00000000000E+00 -0.00000000000E+00 -0.72341018774E+02  0.72341018774E+02  0.00000000000E+00 0.  1.
          1    1    1    2  501    0  0.17316792323E+02 -0.10601881634E+02 -0.13736443139E+02  0.24514507146E+02  0.00000000000E+00 0.  1.
         -1    1    1    2    0  503 -0.17316792323E+02  0.10601881634E+02 -0.51278744895E+02  0.55152342367E+02  0.00000000000E+00 0. -1.
<mgrwt>
<rscale>  2 0.20304462E+02</rscale>
<asrwt>0</asrwt>
<pdfrwt beam="1">  1       21 0.11270510E-02 0.20304462E+02</pdfrwt>
<pdfrwt beam="2">  1       21 0.11129387E-01 0.20304462E+02</pdfrwt>
<totfact> 0.13449290E+08</totfact>
</mgrwt>
</event>
<event>
 4    1  0.7119201E+004  0.2566462E+02  0.7546771E-02  0.1651635E+00
         21   -1    0    0  503  502  0.00000000000E+00  0.00000000000E+00  0.28636323524E+01  0.28636323524E+01  0.00000000000E+00 0.  1.
         21   -1    0    0  501  503 -0.00000000000E+00 -0.00000000000E+00 -0.23002017435E+03  0.23002017435E+03  0.00000000000E+00 0.  1.
          2    1    1    2  501    0 -0.11860262122E+02 -0.22759761136E+02 -0.11292601045E+03  0.11580568372E+03  0.00000000000E+00 0. -1.
         -2    1    1    2    0  502  0.11860262122E+02  0.22759761136E+02 -0.11423053154E+03  0.11707812298E+03  0.00000000000E+00 0.  1.
<mgrwt>
<rscale>  2 0.25664617E+02</rscale>
<asrwt>0</asrwt>
<pdfrwt beam="1">  1       21 0.44055882E-03 0.25664617E+02</pdfrwt>
<pdfrwt beam="2">  1       21 0.35387719E-01 0.25664617E+02</pdfrwt>
<totfact> 0.76740207E+07</totfact>
</mgrwt>
</event>
<event>
 4    1  0.7119201E+004  0.2004512E+02  0.7546771E-02  0.1744432E+00
         21   -1    0    0  503  502  0.00000000000E+00  0.00000000000E+00  0.92805084405E+00  0.92805084405E+00  0.00000000000E+00 0. -1.
         21   -1    0    0  501  503 -0.00000000000E+00 -0.00000000000E+00 -0.72969302165E+03  0.72969302165E+03  0.00000000000E+00 0. -1.
          2    1    1    2  501    0  0.54910723456E+00 -0.20037599769E+02 -0.59733993061E+03  0.59767616619E+03  0.00000000000E+00 0. -1.
         -2    1    1    2    0  502 -0.54910723456E+00  0.20037599769E+02 -0.13142504019E+03  0.13294490631E+03  0.00000000000E+00 0.  1.
<mgrwt>
<rscale>  2 0.20045122E+02</rscale>
<asrwt>0</asrwt>
<pdfrwt beam="1">  1       21 0.14277675E-03 0.20045122E+02</pdfrwt>
<pdfrwt beam="2">  1       21 0.11226070E+00 0.20045122E+02</pdfrwt>
<totfact> 0.35934904E+07</totfact>
</mgrwt>
</event>
<event>
 4    1  0.7119201E+004  0.2143769E+02  0.7546771E-02  0.1718162E+00
         21   -1    0    0  503  502  0.00000000000E+00  0.00000000000E+00  0.25506828213E+02  0.25506828213E+02  0.00000000000E+00 0. -1.
         21   -1    0    0  501  503 -0.00000000000E+00 -0.00000000000E+00 -0.55299289083E+02  0.55299289083E+02  0.00000000000E+00 0. -1.
          2    1    1    2  501    0  0.18903003311E+02  0.10111917915E+02 -0.48070522857E+02  0.52634110478E+02  0.00000000000E+00 0.  1.
         -2    1    1    2    0  502 -0.18903003311E+02 -0.10111917915E+02  0.18278061987E+02  0.28172006817E+02  0.00000000000E+00 0. -1.
<mgrwt>
<rscale>  2 0.21437687E+02</rscale>
<asrwt>0</asrwt>
<pdfrwt beam="1">  1       21 0.39241274E-02 0.21437687E+02</pdfrwt>
<pdfrwt beam="2">  1       21 0.85075829E-02 0.21437687E+02</pdfrwt>
<totfact> 0.31382525E+07</totfact>
</mgrwt>
</event>
<event>
 4    1  0.7119201E+004  0.2027697E+02  0.7546771E-02  0.1739876E+00
         21   -1    0    0  501  502  0.00000000000E+00  0.00000000000E+00  0.86670864243E+00  0.86670864243E+00  0.00000000000E+00 0.  1.
         21   -1    0    0  502  503 -0.00000000000E+00 -0.00000000000E+00 -0.48269218803E+03  0.48269218803E+03  0.00000000000E+00 0.  1.
          5    1    1    2  501    0 -0.23178485327E+01  0.20144060905E+02 -0.27262666268E+03  0.27337968618E+03  0.00000000000E+00 0. -1.
         -5    1    1    2    0  503  0.23178485327E+01 -0.20144060905E+02 -0.20919881671E+03  0.21017921049E+03  0.00000000000E+00 0.  1.
<mgrwt>
<rscale>  2 0.20276972E+02</rscale>
<asrwt>0</asrwt>
<pdfrwt beam="1">  1       21 0.13333970E-03 0.20276972E+02</pdfrwt>
<pdfrwt beam="2">  1       21 0.74260389E-01 0.20276972E+02</pdfrwt>
<totfact> 0.96088582E+07</totfact>
</mgrwt>
</event>
<event>
 4    1  0.7119201E+004  0.3995594E+02  0.7546771E-02  0.1508536E+00
         21   -1    0    0  501  502  0.00000000000E+00  0.00000000000E+00  0.32443837259E+01  0.32443837259E+01  0.00000000000E+00 0.  1.
         21   -1    0    0  502  503 -0.00000000000E+00 -0.00000000000E+00 -0.49296145076E+03  0.49296145076E+03  0.00000000000E+00 0.  1.
          1    1    1    2  501    0 -0.34028064046E+02 -0.20942016906E+02 -0.23433232216E+03  0.23771435469E+03  0.00000000000E+00 0. -1.
         -1    1    1    2    0  503  0.34028064046E+02  0.20942016906E+02 -0.25538474487E+03  0.25849147979E+03  0.00000000000E+00 0.  1.
<mgrwt>
<rscale>  2 0.39955941E+02</rscale>
<asrwt>0</asrwt>
<pdfrwt beam="1">  1       21 0.49913583E-03 0.39955941E+02</pdfrwt>
<pdfrwt beam="2">  1       21 0.75840242E-01 0.39955941E+02</pdfrwt>
<totfact> 0.15217136E+07</totfact>
</mgrwt>
</event>
<event>
 4    1  0.7119201E+004  0.3169838E+02  0.7546771E-02  0.1580040E+00
         21   -1    0    0  503  502  0.00000000000E+00  0.00000000000E+00  0.26527775924E+02  0.26527775924E+02  0.00000000000E+00 0. -1.
         21   -1    0    0  501  503 -0.00000000000E+00 -0.00000000000E+00 -0.38865520976E+02  0.38865520976E+02  0.00000000000E+00 0. -1.
          2    1    1    2  501    0  0.30565835696E+02 -0.83974310964E+01 -0.11383925352E+02  0.33680571807E+02  0.00000000000E+00 0. -1.
         -2    1    1    2    0  502 -0.30565835696E+02  0.83974310964E+01 -0.95381970018E+00  0.31712725093E+02  0.00000000000E+00 0.  1.
<mgrwt>
<rscale>  2 0.31698378E+02</rscale>
<asrwt>0</asrwt>
<pdfrwt beam="1">  1       21 0.40811963E-02 0.31698378E+02</pdfrwt>
<pdfrwt beam="2">  1       21 0.59793109E-02 0.31698378E+02</pdfrwt>
<totfact> 0.57418169E+07</totfact>
</mgrwt>
</event>
<event>
 4    1  0.7119201E+004  0.2115799E+02  0.7546771E-02  0.1723234E+00
         21   -1    0    0  501  502  0.00000000000E+00  0.00000000000E+00  0.93854421464E+03  0.93854421464E+03  0.00000000000E+00 0.  1.
         21   -1    0    0  502  503 -0.00000000000E+00 -0.00000000000E+00 -0.48419461851E+00  0.48419461851E+00  0.00000000000E+00 0.  1.
          3    1    1    2  501    0  0.20355623856E+01 -0.21059848846E+02  0.52636768439E+03  0.52679274855E+03  0.00000000000E+00 0.  1.
         -3    1    1    2    0  503 -0.20355623856E+01  0.21059848846E+02  0.41169233562E+03  0.41223566071E+03  0.00000000000E+00 0. -1.
<mgrwt>
<rscale>  2 0.21157995E+02</rscale>
<asrwt>0</asrwt>
<pdfrwt beam="1">  1       21 0.14438996E+00 0.21157995E+02</pdfrwt>
<pdfrwt beam="2">  1       21 0.74492231E-04 0.21157995E+02</pdfrwt>
<totfact> 0.51606504E+07</totfact>
</mgrwt>
</event>
<event>
 4    1  0.7119201E+004  0.2902671E+02  0.7546771E-02  0.1609103E+00
         21   -1    0    0  503  502  0.00000000000E+00  0.00000000000E+00  0.77629328855E+03  0.77629328855E+03  0.00000000000E+00 0.  1.
         21   -1    0    0  501  503 -0.00000000000E+00 -0.00000000000E+00 -0.10882266338E+01  0.10882266338E+01  0.00000000000E+00 0.  1.
          4    1    1    2  501    0 -0.19265894475E+02  0.21711177491E+02  0.40758674601E+03  0.40861902237E+03  0.00000000000E+00 0.  1.
         -4    1    1    2    0  502  0.19265894475E+02 -0.21711177491E+02  0.36761831590E+03  0.36876249281E+03  0.00000000000E+00 0. -1.
<mgrwt>
<rscale>  2 0.29026710E+02</rscale>
<asrwt>0</asrwt>
<pdfrwt beam="1">  1       21 0.11942929E+00 0.29026710E+02</pdfrwt>
<pdfrwt beam="2">  1       21 0.16742010E-03 0.29026710E+02</pdfrwt>
<totfact> 0.26692378E+07</totfact>
</mgrwt>
</event>
<event>
 4    1  0.7119201E+004  0.2851485E+02  0.7546771E-02  0.1615110E+00
         21   -1    0    0  501  502  0.00000000000E+00  0.00000000000E+00  0.32570826428E+03  0.32570826428E+03  0.00000000000E+00 0. -1.
         21   -1    0    0  502  503 -0.00000000000E+00 -0.00000000000E+00 -0.25090794536E+01  0.25090794536E+01  0.00000000000E+00 0. -1.
          4    1    1    2  501    0 -0.25944868474E+02 -0.11830485844E+02  0.17326780310E+03  0.17559848572E+03  0.00000000000E+00 0.  1.
         -4    1    1    2    0  503  0.25944868474E+02  0.11830485844E+02  0.14993138172E+03  0.15261885801E+03  0.00000000000E+00 0. -1.
<mgrwt>
<rscale>  2 0.28514849E+02</rscale>
<asrwt>0</asrwt>
<pdfrwt beam="1">  1       21 0.50108930E-01 0.28514849E+02</pdfrwt>
<pdfrwt beam="2">  1       21 0.38601248E-03 0.28514849E+02</pdfrwt>
<totfact> 0.49121670E+07</totfact>
</mgrwt>
</event>
<event>
 4    1  0.7119201E+004  0.2476004E+02  0.7546771E-02  0.1664473E+00
         21   -1    0    0  503  502  0.00000000000E+00  0.00000000000E+00  0.80529663016E+02  0.80529663016E+02  0.00000000000E+00 0.  1.
         21   -1    0    0  501  503 -0.00000000000E+00 -0.00000000000E+00 -0.76167203463E+01  0.76167203463E+01  0.00000000000E+00 0.  1.
          2    1    1    2  501    0  0.36199930030E+01  0.24493980629E+02  0.35461688905E+02  0.43250327355E+02  0.00000000000E+00 0. -1.
         -2    1    1    2    0  502 -0.36199930030E+01 -0.24493980629E+02  0.37451253765E+02  0.44896056007E+02  0.00000000000E+00 0.  1.
<mgrwt>
<rscale>  2 0.24760037E+02</rscale>
<asrwt>0</asrwt>
<pdfrwt beam="1">  1       21 0.12389178E-01 0.24760037E+02</pdfrwt>
<pdfrwt beam="2">  1       21 0.11718032E-02 0.24760037E+02</pdfrwt>
<totfact> 0.11234343E+08</totfact>
</mgrwt>
</event>
<event>
 4    1  0.7119201E+004  0.2862889E+02  0.7546771E-02  0.1613758E+00
         21   -1    0    0  503  502  0.00000000000E+00  0.00000000000E+00  0.12935624456E+03  0.12935624456E+03  0.00000000000E+00 0.  1.
         21   -1    0    0  501  503 -0.00000000000E+00 -0.00000000000E+00 -0.64670185141E+01  0.64670185141E+01  0.00000000000E+00 0.  1.
          3    1    1    2  501    0 -0.23400826303E+02  0.16492872117E+02  0.71107353698E+02  0.76654218750E+02  0.00000000000E+00 0. -1.
         -3    1    1    2    0  502  0.23400826303E+02 -0.16492872117E+02  0.51781872349E+02  0.59169044324E+02  0.00000000000E+00 0.  1.
<mgrwt>
<rscale>  2 0.28628893E+02</rscale>
<asrwt>0</asrwt>
<pdfrwt beam="1">  1       21 0.19900959E-01 0.28628893E+02</pdfrwt>
<pdfrwt beam="2">  1       21 0.99492602E-03 0.28628893E+02</pdfrwt>
<totfact> 0.66042817E+07</totfact>
</mgrwt>
</event>
<event>
 4    1  0.7119201E+004  0.3101204E+02  0.7546771E-02  0.1587164E+00
         21   -1    0    0  501  502  0.00000000000E+00  0.00000000000E+00  0.58675834346E+02  0.58675834346E+02  0.00000000000E+00 0.  1.
         21   -1    0    0  502  503 -0.00000000000E+00 -0.00000000000E+00 -0.29887561527E+02  0.29887561527E+02  0.00000000000E+00 0.  1.
          1    1    1    2  501    0 -0.70229741247E+01 -0.30206360824E+02 -0.15363135669E+02  0.34608847675E+02  0.00000000000E+00 0. -1.
         -1    1    1    2    0  503  0.70229741247E+01  0.30206360824E+02  0.44151408488E+02  0.53954548198E+02  0.00000000000E+00 0.  1.
<mgrwt>
<rscale>  2 0.31012036E+02</rscale>
<asrwt>0</asrwt>
<pdfrwt beam="1">  1       21 0.90270514E-02 0.31012036E+02</pdfrwt>
<pdfrwt beam="2">  1       21 0.45980864E-02 0.31012036E+02</pdfrwt>
<totfact> 0.23998626E+07</totfact>
</mgrwt>
</event>
<event>
 4    1  0.7119201E+004  0.2537361E+02  0.7546771E-02  0.1655693E+00
         21   -1    0    0  503  502  0.00000000000E+00  0.00000000000E+00  0.18230066609E+02  0.18230066609E+02  0.00000000000E+00 0. -1.
         21   -1    0    0  501  503 -0.00000000000E+00 -0.00000000000E+00 -0.51055027432E+02  0.51055027432E+02  0.00000000000E+00 0. -1.
          4    1    1    2  501    0  0.21459448643E+02 -0.13539276433E+02 -0.35646686925E+02  0.43755070919E+02  0.00000000000E+00 0.  1.
         -4    1    1    2    0  502 -0.21459448643E+02  0.13539276433E+02  0.28217261020E+01  0.25530023122E+02  0.00000000000E+00 0. -1.
<mgrwt>
<rscale>  2 0.25373607E+02</rscale>
<asrwt>0</asrwt>
<pdfrwt beam="1">  1       21 0.28046257E-02 0.25373607E+02</pdfrwt>
<pdfrwt beam="2">  1       21 0.78546195E-02 0.25373607E+02</pdfrwt>
<totfact> 0.63088389E+07</totfact>
</mgrwt>
</event>
<event>
 4    1  0.7119201E+004  0.2113181E+02  0.7546771E-02  0.1723714E+00
         21   -1    0    0  503  502  0.00000000000E+00  0.00000000000E+00  0.85672990649E+02  0.85672990649E+02  0.00000000000E+00 0.  1.
         21   -1    0    0  501  503 -0.00000000000E+00 -0.00000000000E+00 -0.52316362418E+01  0.52316362418E+01  0.00000000000E+00 0.  1.
          2    1    1    2  501    0 -0.21247721155E+01  0.21024719789E+02  0.37457549070E+02  0.43007225917E+02  0.00000000000E+00 0. -1.
         -2    1    1    2    0  502  0.21247721155E+01 -0.21024719789E+02  0.42983805337E+02  0.47897400974E+02  0.00000000000E+00 0.  1.
<mgrwt>
<rscale>  2 0.21131812E+02</rscale>
<asrwt>0</asrwt>
<pdfrwt beam="1">  1       21 0.13180459E-01 0.21131812E+02</pdfrwt>
<pdfrwt beam="2">  1       21 0.80486718E-03 0.21131812E+02</pdfrwt>
<totfact> 0.16980201E+08</totfact>
</mgrwt>
</event>
<event>
 4    1  0.7119201E+004  0.2278298E+02  0.7546771E-02  0.1695052E+00
         21   -1    0    0  501  502  0.00000000000E+00  0.00000000000E+00  0.17502406742E+02  0.17502406742E+02  0.00000000000E+00 0. -1.
         21   -1    0    0  502  503 -0.00000000000E+00 -0.00000000000E+00 -0.33015144075E+02  0.33015144075E+02  0.00000000000E+00 0. -1.
          3    1    1    2  501    0  0.12099275855E+02  0.19304707399E+02  0.29968996190E+00  0.22784951570E+02  0.00000000000E+00 0. -1.
         -3    1    1    2    0  503 -0.12099275855E+02 -0.19304707399E+02 -0.15812427295E+02  0.27732599246E+02  0.00000000000E+00 0.  1.
<mgrwt>
<rscale>  2 0.22782981E+02</rscale>
<asrwt>0</asrwt>
<pdfrwt beam="1">  1       21 0.26926780E-02 0.22782981E+02</pdfrwt>
<pdfrwt beam="2">  1       21 0.50792529E-02 0.22782981E+02</pdfrwt>
<totfact> 0.13185051E+08</totfact>
</mgrwt>
</event>
<event>
 4    1  0.7119201E+004  0.2844044E+02  0.7546771E-02  0.1615996E+00
         21   -1    0    0  503  502  0.00000000000E+00  0.00000000000E+00  0.79734116789E+02  0.79734116789E+02  0.00000000000E+00 0.  1.
         21   -1    0    0  501  503 -0.00000000000E+00 -0.00000000000E+00 -0.10212135307E+02  0.10212135307E+02  0.00000000000E+00 0.  1.
          1    1    1    2  501    0  0.10623315932E+02 -0.26381888011E+02  0.38422314724E+02  0.47803066065E+02  0.00000000000E+00 0.  1.
         -1    1    1    2    0  502 -0.10623315932E+02  0.26381888011E+02  0.31099666758E+02  0.42143186031E+02  0.00000000000E+00 0. -1.
<mgrwt>
<rscale>  2 0.28440444E+02</rscale>
<asrwt>0</asrwt>
<pdfrwt beam="1">  1       21 0.12266787E-01 0.28440444E+02</pdfrwt>
<pdfrwt beam="2">  1       21 0.15710978E-02 0.28440444E+02</pdfrwt>
<totfact> 0.75725777E+07</totfact>
</mgrwt>
</event>
<event>
 4    1  0.7119201E+004  0.3666515E+02  0.7546771E-02  0.1534292E+00
         21   -1    0    0  503  502  0.00000000000E+00  0.00000000000E+00  0.24122947223E+03  0.24122947223E+03  0.00000000000E+00 0.  1.
         21   -1    0    0  501  503 -0.00000000000E+00 -0.00000000000E+00 -0.63199051632E+01  0.63199051632E+01  0.00000000000E+00 0.  1.
          3    1    1    2  501    0  0.33877388509E+02 -0.14023399273E+02  0.16001030259E+03  0.16415733342E+03  0.00000000000E+00 0.  1.
         -3    1    1    2    0  502 -0.33877388509E+02  0.14023399273E+02  0.74899264470E+02  0.83392043970E+02  0.00000000000E+00 0. -1.
<mgrwt>
<rscale>  2 0.36665149E+02</rscale>
<asrwt>0</asrwt>
<pdfrwt beam="1">  1       21 0.37112220E-01 0.36665149E+02</pdfrwt>
<pdfrwt beam="2">  1       21 0.97229328E-03 0.36665149E+02</pdfrwt>
<totfact> 0.22998001E+07</totfact>
</mgrwt>
</event>
<event>
 4    1  0.7119201E+004  0.2395833E+02  0.7546771E-02  0.1676431E+00
         21   -1    0    0  501  502  0.00000000000E+00  0.00000000000E+00  0.11737641326E+03  0.11737641326E+03  0.00000000000E+00 0. -1.
         21   -1    0    0  502  503 -0.00000000000E+00 -0.00000000000E+00 -0.49365114781E+01  0.49365114781E+01  0.00000000000E+00 0. -1.
          1    1    1    2  501    0  0.85104029350E+01 -0.22395860374E+02  0.50300499817E+02  0.55714825691E+02  0.00000000000E+00 0.  1.
         -1    1    1    2    0  503 -0.85104029350E+01  0.22395860374E+02  0.62139401964E+02  0.66598099045E+02  0.00000000000E+00 0. -1.
<mgrwt>
<rscale>  2 0.23958329E+02</rscale>
<asrwt>0</asrwt>
<pdfrwt beam="1">  1       21 0.18057908E-01 0.23958329E+02</pdfrwt>
<pdfrwt beam="2">  1       21 0.75946340E-03 0.23958329E+02</pdfrwt>
<totfact> 0.11229448E+08</totfact>
</mgrwt>
</event>
<event>
 4    1  0.7119201E+004  0.6117219E+02  0.7546771E-02  0.1392977E+00
         21   -1    0    0  503  502  0.00000000000E+00  0.00000000000E+00  0.13507829364E+02  0.13507829364E+02  0.00000000000E+00 0. -1.
         21   -1    0    0  501  503 -0.00000000000E+00 -0.00000000000E+00 -0.28981368489E+03  0.28981368489E+03  0.00000000000E+00 0. -1.
          5    1    1    2  501    0 -0.48418942804E+02  0.37385061576E+02 -0.10629713082E+03  0.12264223120E+03  0.00000000000E+00 0.  1.
         -5    1    1    2    0  502  0.48418942804E+02 -0.37385061576E+02 -0.17000872471E+03  0.18067928306E+03  0.00000000000E+00 0. -1.
<mgrwt>
<rscale>  2 0.61172190E+02</rscale>
<asrwt>0</asrwt>
<pdfrwt beam="1">  1       21 0.20781277E-02 0.61172190E+02</pdfrwt>
<pdfrwt beam="2">  1       21 0.44586719E-01 0.61172190E+02</pdfrwt>
<totfact> 0.52576564E+06</totfact>
</mgrwt>
</event>
<event>
 4    1  0.7119201E+004  0.2314390E+02  0.7546771E-02  0.1689188E+00
         21   -1    0    0  501  502  0.00000000000E+00  0.00000000000E+00  0.34133124299E+03  0.34133124299E+03  0.00000000000E+00 0.  1.
         21   -1    0    0  502  503 -0.00000000000E+00 -0.00000000000E+00 -0.19752461585E+01  0.19752461585E+01  0.00000000000E+00 0.  1.
          5    1    1    2  501    0 -0.22383882894E+02  0.58823457921E+01  0.24749826700E+03  0.24857802070E+03  0.00000000000E+00 0. -1.
         -5    1    1    2    0  503  0.22383882894E+02 -0.58823457921E+01  0.91857729827E+02  0.94728468448E+02  0.00000000000E+00 0.  1.
<mgrwt>
<rscale>  2 0.23143902E+02</rscale>
<asrwt>0</asrwt>
<pdfrwt beam="1">  1       21 0.52512452E-01 0.23143902E+02</pdfrwt>
<pdfrwt beam="2">  1       21 0.30388430E-03 0.23143902E+02</pdfrwt>
<totfact> 0.60756533E+07</totfact>
</mgrwt>
</event>
<event>
 4    1  0.7119201E+004  0.2587365E+02  0.7546771E-02  0.1648761E+00
         21   -1    0    0  503  502  0.00000000000E+00  0.00000000000E+00  0.13920955593E+03  0.13920955593E+03  0.00000000000E+00 0. -1.
         21   -1    0    0  501  503 -0.00000000000E+00 -0.00000000000E+00 -0.52544395373E+01  0.52544395373E+01  0.00000000000E+00 0. -1.
          2    1    1    2  501    0 -0.83106044833E+00  0.25860304684E+02  0.45944355928E+02  0.52728833302E+02  0.00000000000E+00 0.  1.
         -2    1    1    2    0  502  0.83106044833E+00 -0.25860304684E+02  0.88010760463E+02  0.91735162163E+02  0.00000000000E+00 0. -1.
<mgrwt>
<rscale>  2 0.25873655E+02</rscale>
<asrwt>0</asrwt>
<pdfrwt beam="1">  1       21 0.21416852E-01 0.25873655E+02</pdfrwt>
<pdfrwt beam="2">  1       21 0.80837542E-03 0.25873655E+02</pdfrwt>
<totfact> 0.77430080E+07</totfact>
</mgrwt>
</event>
<event>
 4    1  0.7119201E+004  0.2230883E+02  0.7546771E-02  0.1702965E+00
         21   -1    0    0  503  502  0.00000000000E+00  0.00000000000E+00  0.92566034767E+02  0.92566034767E+02  0.00000000000E+00 0.  1.
         21   -1    0    0  501  503 -0.00000000000E+00 -0.00000000000E+00 -0.55546019860E+01  0.55546019860E+01  0.00000000000E+00 0.  1.
          4    1    1    2  501    0 -0.18190954867E+02  0.12914067617E+02  0.52289927506E+02  0.56849982409E+02  0.00000000000E+00 0.  1.
         -4    1    1    2    0  502  0.18190954867E+02 -0.12914067617E+02  0.34721505275E+02  0.41270654344E+02  0.00000000000E+00 0. -1.
<mgrwt>
<rscale>  2 0.22308832E+02</rscale>
<asrwt>0</asrwt>
<pdfrwt beam="1">  1       21 0.14240927E-01 0.22308832E+02</pdfrwt>
<pdfrwt beam="2">  1       21 0.85455422E-03 0.22308832E+02</pdfrwt>
<totfact> 0.13852929E+08</totfact>
</mgrwt>
</event>
<event>
 4    1  0.7119201E+004  0.3636212E+02  0.7546771E-02  0.1536827E+00
         21   -1    0    0  501  502  0.00000000000E+00  0.00000000000E+00  0.97774164331E+02  0.97774164331E+02  0.00000000000E+00 0. -1.
         21   -1    0    0  502  503 -0.00000000000E+00 -0.00000000000E+00 -0.15276861632E+02  0.15276861632E+02  0.00000000000E+00 0. -1.
          5    1    1    2  501    0  0.31360980733E+02  0.18403600623E+02  0.60400933869E+02  0.70501605944E+02  0.00000000000E+00 0.  1.
         -5    1    1    2    0  503 -0.31360980733E+02 -0.18403600623E+02  0.22096368830E+02  0.42549420018E+02  0.00000000000E+00 0. -1.
<mgrwt>
<rscale>  2 0.36362118E+02</rscale>
<asrwt>0</asrwt>
<pdfrwt beam="1">  1       21 0.15042179E-01 0.36362118E+02</pdfrwt>
<pdfrwt beam="2">  1       21 0.23502865E-02 0.36362118E+02</pdfrwt>
<totfact> 0.30112571E+07</totfact>
</mgrwt>
</event>
<event>
 4    1  0.7119201E+004  0.2429072E+02  0.7546771E-02  0.1671404E+00
         21   -1    0    0  503  502  0.00000000000E+00  0.00000000000E+00  0.85106881558E+01  0.85106881558E+01  0.00000000000E+00 0. -1.
         21   -1    0    0  501  503 -0.00000000000E+00 -0.00000000000E+00 -0.70098095600E+02  0.70098095600E+02  0.00000000000E+00 0. -1.
          3    1    1    2  501    0 -0.23553826732E+02 -0.59377079811E+01 -0.34910164981E+02  0.42529504450E+02  0.00000000000E+00 0. -1.
         -3    1    1    2    0  502  0.23553826732E+02  0.59377079811E+01 -0.26677242463E+02  0.36079279306E+02  0.00000000000E+00 0.  1.
<mgrwt>
<rscale>  2 0.24290721E+02</rscale>
<asrwt>0</asrwt>
<pdfrwt beam="1">  1       21 0.13093366E-02 0.24290721E+02</pdfrwt>
<pdfrwt beam="2">  1       21 0.10784323E-01 0.24290721E+02</pdfrwt>
<totfact> 0.11917194E+08</totfact>
</mgrwt>
</event>
<event>
 4    1  0.7119201E+004  0.2115313E+02  0.7546771E-02  0.1723324E+00
         21   -1    0    0  503  502  0.00000000000E+00  0.00000000000E+00  0.22499317601E+02  0.22499317601E+02  0.00000000000E+00 0.  1.
         21   -1    0    0  501  503 -0.00000000000E+00 -0.00000000000E+00 -0.23725848627E+02  0.23725848627E+02  0.00000000000E+00 0.  1.
          4    1    1    2  501    0 -0.12385988937E+01  0.21116831874E+02  0.86830527155E+01  0.22865916121E+02  0.00000000000E+00 0.  1.
         -4    1    1    2    0  502  0.12385988937E+01 -0.21116831874E+02 -0.99095837421E+01  0.23359250107E+02  0.00000000000E+00 0. -1.
<mgrwt>
<rscale>  2 0.21153125E+02</rscale>
<asrwt>0</asrwt>
<pdfrwt beam="1">  1       21 0.34614335E-02 0.21153125E+02</pdfrwt>
<pdfrwt beam="2">  1       21 0.36501305E-02 0.21153125E+02</pdfrwt>
<totfact> 0.14691252E+08</totfact>
</mgrwt>
</event>
<event>
 4    1  0.7119201E+004  0.4337900E+02  0.7546771E-02  0.1484723E+00
         21   -1    0    0  501  502  0.00000000000E+00  0.00000000000E+00  0.17273046496E+03  0.17273046496E+03  0.00000000000E+00 0.  1.
         21   -1    0    0  502  503 -0.00000000000E+00 -0.00000000000E+00 -0.14109759674E+02  0.14109759674E+02  0.00000000000E+00 0.  1.
          5    1    1    2  501    0 -0.55717310083E+01 -0.43019689124E+02  0.34712123157E+02  0.55557801728E+02  0.00000000000E+00 0. -1.
         -5    1    1    2    0  503  0.55717310083E+01  0.43019689124E+02  0.12390858213E+03  0.13128242291E+03  0.00000000000E+00 0.  1.
<mgrwt>
<rscale>  2 0.43379002E+02</rscale>
<asrwt>0</asrwt>
<pdfrwt beam="1">  1       21 0.26573916E-01 0.43379002E+02</pdfrwt>
<pdfrwt beam="2">  1       21 0.21707324E-02 0.43379002E+02</pdfrwt>
<totfact> 0.12707643E+07</totfact>
</mgrwt>
</event>
<event>
 4    1  0.7119201E+004  0.2146403E+02  0.7546771E-02  0.1717690E+00
         21   -1    0    0  503  502  0.00000000000E+00  0.00000000000E+00  0.12622084811E+03  0.12622084811E+03  0.00000000000E+00 0. -1.
         21   -1    0    0  501  503 -0.00000000000E+00 -0.00000000000E+00 -0.45281774115E+01  0.45281774115E+01  0.00000000000E+00 0. -1.
          1    1    1    2  501    0  0.19965614321E+02  0.78790084250E+01  0.89636287840E+02  0.92170324002E+02  0.00000000000E+00 0. -1.
         -1    1    1    2    0  502 -0.19965614321E+02 -0.78790084250E+01  0.32056382860E+02  0.38578701520E+02  0.00000000000E+00 0.  1.
<mgrwt>
<rscale>  2 0.21464029E+02</rscale>
<asrwt>0</asrwt>
<pdfrwt beam="1">  1       21 0.19418589E-01 0.21464029E+02</pdfrwt>
<pdfrwt beam="2">  1       21 0.69664278E-03 0.21464029E+02</pdfrwt>
<totfact> 0.10914808E+08</totfact>
</mgrwt>
</event>
<event>
 4    1  0.7119201E+004  0.2143416E+02  0.7546771E-02  0.1718226E+00
         21   -1    0    0  501  502  0.00000000000E+00  0.00000000000E+00  0.25834780608E+03  0.25834780608E+03  0.00000000000E+00 0. -1.
         21   -1    0    0  502  503 -0.00000000000E+00 -0.00000000000E+00 -0.22158072059E+01  0.22158072059E+01  0.00000000000E+00 0. -1.
          5    1    1    2  501    0  0.61618630666E+01  0.20529360961E+02  0.70175936084E+02  0.73376326041E+02  0.00000000000E+00 0. -1.
         -5    1    1    2    0  503 -0.61618630666E+01 -0.20529360961E+02  0.18595606279E+03  0.18718728724E+03  0.00000000000E+00 0.  1.
<mgrwt>
<rscale>  2 0.21434160E+02</rscale>
<asrwt>0</asrwt>
<pdfrwt beam="1">  1       21 0.39745792E-01 0.21434160E+02</pdfrwt>
<pdfrwt beam="2">  1       21 0.34089362E-03 0.21434160E+02</pdfrwt>
<totfact> 0.85950062E+07</totfact>
</mgrwt>
</event>
<event>
 4    1  0.7119201E+004  0.2507341E+02  0.7546771E-02  0.1659950E+00
         21   -1    0    0  501  502  0.00000000000E+00  0.00000000000E+00  0.40139914236E+01  0.40139914236E+01  0.00000000000E+00 0.  1.
         21   -1    0    0  502  503 -0.00000000000E+00 -0.00000000000E+00 -0.21117584012E+03  0.21117584012E+03  0.00000000000E+00 0.  1.
          2    1    1    2  501    0 -0.67524262366E+01  0.24147063632E+02 -0.15826812485E+03  0.16024192737E+03  0.00000000000E+00 0.  1.
         -2    1    1    2    0  503  0.67524262366E+01 -0.24147063632E+02 -0.48893723850E+02  0.54947904182E+02  0.00000000000E+00 0. -1.
<mgrwt>
<rscale>  2 0.25073411E+02</rscale>
<asrwt>0</asrwt>
<pdfrwt beam="1">  1       21 0.61753707E-03 0.25073411E+02</pdfrwt>
<pdfrwt beam="2">  1       21 0.32488594E-01 0.25073411E+02</pdfrwt>
<totfact> 0.54224549E+07</totfact>
</mgrwt>
</event>
<event>
 4    1  0.7119201E+004  0.2231193E+02  0.7546771E-02  0.1702912E+00
         21   -1    0    0  503  502  0.00000000000E+00  0.00000000000E+00  0.40723081237E+03  0.40723081237E+03  0.00000000000E+00 0.  1.
         21   -1    0    0  501  503 -0.00000000000E+00 -0.00000000000E+00 -0.16458614547E+01  0.16458614547E+01  0.00000000000E+00 0.  1.
          1    1    1    2  501    0  0.21617086377E+02  0.55248386573E+01  0.30648400413E+03  0.30729508140E+03  0.00000000000E+00 0.  1.
         -1    1    1    2    0  502 -0.21617086377E+02 -0.55248386573E+01  0.99100946784E+02  0.10158159242E+03  0.00000000000E+00 0. -1.
<mgrwt>
<rscale>  2 0.22311931E+02</rscale>
<asrwt>0</asrwt>
<pdfrwt beam="1">  1       21 0.62650814E-01 0.22311931E+02</pdfrwt>
<pdfrwt beam="2">  1       21 0.25320978E-03 0.22311931E+02</pdfrwt>
<totfact> 0.55320748E+07</totfact>
</mgrwt>
</event>
<event>
 4    1  0.7119201E+004  0.3133983E+02  0.7546771E-02  0.1583734E+00
         21   -1    0    0  501  502  0.00000000000E+00  0.00000000000E+00  0.42812742706E+02  0.42812742706E+02  0.00000000000E+00 0. -1.
         21   -1    0    0  502  503 -0.00000000000E+00 -0.00000000000E+00 -0.23244335561E+02  0.23244335561E+02  0.00000000000E+00 0. -1.
          4    1    1    2  501    0 -0.31322059803E+02 -0.10551410828E+01  0.13554691857E+02  0.34145489078E+02  0.00000000000E+00 0.  1.
         -4    1    1    2    0  503  0.31322059803E+02  0.10551410828E+01  0.60137152884E+01  0.31911589189E+02  0.00000000000E+00 0. -1.
<mgrwt>
<rscale>  2 0.31339827E+02</rscale>
<asrwt>0</asrwt>
<pdfrwt beam="1">  1       21 0.65865758E-02 0.31339827E+02</pdfrwt>
<pdfrwt beam="2">  1       21 0.35760516E-02 0.31339827E+02</pdfrwt>
<totfact> 0.60367546E+07</totfact>
</mgrwt>
</event>
<event>
 4    1  0.7119201E+004  0.3610481E+02  0.7546771E-02  0.1539003E+00
         21   -1    0    0  501  502  0.00000000000E+00  0.00000000000E+00  0.23061670992E+02  0.23061670992E+02  0.00000000000E+00 0.  1.
         21   -1    0    0  502  503 -0.00000000000E+00 -0.00000000000E+00 -0.57060238987E+02  0.57060238987E+02  0.00000000000E+00 0.  1.
          2    1    1    2  501    0  0.33078976200E+02 -0.14468546872E+02 -0.20879794339E+02  0.41707593153E+02  0.00000000000E+00 0. -1.
         -2    1    1    2    0  503 -0.33078976200E+02  0.14468546872E+02 -0.13118773656E+02  0.38414316827E+02  0.00000000000E+00 0.  1.
<mgrwt>
<rscale>  2 0.36104813E+02</rscale>
<asrwt>0</asrwt>
<pdfrwt beam="1">  1       21 0.35479494E-02 0.36104813E+02</pdfrwt>
<pdfrwt beam="2">  1       21 0.87784982E-02 0.36104813E+02</pdfrwt>
<totfact> 0.39188895E+07</totfact>
</mgrwt>
</event>
<event>
 4    1  0.7119201E+004  0.2510876E+02  0.7546771E-02  0.1659445E+00
         21   -1    0    0  501  502  0.00000000000E+00  0.00000000000E+00  0.41476750822E+02  0.41476750822E+02  0.00000000000E+00 0. -1.
         21   -1    0    0  502  503 -0.00000000000E+00 -0.00000000000E+00 -0.15620215791E+02  0.15620215791E+02  0.00000000000E+00 0. -1.
          3    1    1    2  501    0 -0.22378244177E+02  0.11387003577E+02  0.82461996759E+01  0.26428194642E+02  0.00000000000E+00 0.  1.
         -3    1    1    2    0  503  0.22378244177E+02 -0.11387003577E+02  0.17610335355E+02  0.30668771971E+02  0.00000000000E+00 0. -1.
<mgrwt>
<rscale>  2 0.25108757E+02</rscale>
<asrwt>0</asrwt>
<pdfrwt beam="1">  1       21 0.63810385E-02 0.25108757E+02</pdfrwt>
<pdfrwt beam="2">  1       21 0.24031101E-02 0.25108757E+02</pdfrwt>
<totfact> 0.11215838E+08</totfact>
</mgrwt>
</event>
<event>
 4    1  0.7119201E+004  0.3910139E+02  0.7546771E-02  0.1514930E+00
         21   -1    0    0  503  502  0.00000000000E+00  0.00000000000E+00  0.57609903919E+01  0.57609903919E+01  0.00000000000E+00 0. -1.
         21   -1    0    0  501  503 -0.00000000000E+00 -0.00000000000E+00 -0.31438251601E+03  0.31438251601E+03  0.00000000000E+00 0. -1.
          2    1    1    2  501    0  0.78434984246E+01 -0.38306631259E+02 -0.91121500904E+02  0.99156675987E+02  0.00000000000E+00 0. -1.
         -2    1    1    2    0  502 -0.78434984246E+01  0.38306631259E+02 -0.21750002472E+03  0.22098683042E+03  0.00000000000E+00 0.  1.
<mgrwt>
<rscale>  2 0.39101387E+02</rscale>
<asrwt>0</asrwt>
<pdfrwt beam="1">  1       21 0.88630605E-03 0.39101387E+02</pdfrwt>
<pdfrwt beam="2">  1       21 0.48366550E-01 0.39101387E+02</pdfrwt>
<totfact> 0.16004371E+07</totfact>
</mgrwt>
</event>
<event>
 4    1  0.7119201E+004  0.2555022E+02  0.7546771E-02  0.1653222E+00
         21   -1    0    0  503  502  0.00000000000E+00  0.00000000000E+00  0.16455135989E+02  0.16455135989E+02  0.00000000000E+00 0.  1.
         21   -1    0    0  501  503 -0.00000000000E+00 -0.00000000000E+00 -0.42007695050E+02  0.42007695050E+02  0.00000000000E+00 0.  1.
          3    1    1    2  501    0  0.30613855273E+01 -0.25366153196E+02 -0.58840212841E+01  0.26218991510E+02  0.00000000000E+00 0.  1.
         -3    1    1    2    0  502 -0.30613855273E+01  0.25366153196E+02 -0.19668537777E+02  0.32243839529E+02  0.00000000000E+00 0. -1.
<mgrwt>
<rscale>  2 0.25550221E+02</rscale>
<asrwt>0</asrwt>
<pdfrwt beam="1">  1       21 0.25315594E-02 0.25550221E+02</pdfrwt>
<pdfrwt beam="2">  1       21 0.64627224E-02 0.25550221E+02</pdfrwt>
<totfact> 0.10181988E+08</totfact>
</mgrwt>
</event>
<event>
 4    1  0.7119201E+004  0.4940293E+02  0.7546771E-02  0.1448589E+00
         21   -1    0    0  501  502  0.00000000000E+00  0.00000000000E+00  0.50928440588E+03  0.50928440588E+03  0.00000000000E+00 0. -1.
         21   -1    0    0  502  503 -0.00000000000E+00 -0.00000000000E+00 -0.49615989608E+01  0.49615989608E+01  0.00000000000E+00 0. -1.
          2    1    1    2  501    0 -0.13149935573E+02 -0.47620677645E+02  0.20466705675E+03  0.21054513498E+03  0.00000000000E+00 0.  1.
         -2    1    1    2    0  503  0.13149935573E+02  0.47620677645E+02  0.29965575017E+03  0.30370086986E+03  0.00000000000E+00 0. -1.
<mgrwt>
<rscale>  2 0.49402933E+02</rscale>
<asrwt>0</asrwt>
<pdfrwt beam="1">  1       21 0.78351406E-01 0.49402933E+02</pdfrwt>
<pdfrwt beam="2">  1       21 0.76332332E-03 0.49402933E+02</pdfrwt>
<totfact> 0.76423972E+06</totfact>
</mgrwt>
</event>
<event>
 4    1  0.7119201E+004  0.2071881E+02  0.7546771E-02  0.1731400E+00
         21   -1    0    0  503  502  0.00000000000E+00  0.00000000000E+00  0.15779618362E+03  0.15779618362E+03  0.00000000000E+00 0.  1.
         21   -1    0    0  501  503 -0.00000000000E+00 -0.00000000000E+00 -0.27344963052E+01  0.27344963052E+01  0.00000000000E+00 0.  1.
          1    1    1    2  501    0  0.98256934634E+01  0.18240743998E+02  0.71768262420E+02  0.74699079542E+02  0.00000000000E+00 0.  1.
         -1    1    1    2    0  502 -0.98256934634E+01 -0.18240743998E+02  0.83293424892E+02  0.85831600380E+02  0.00000000000E+00 0. -1.
<mgrwt>
<rscale>  2 0.20718808E+02</rscale>
<asrwt>0</asrwt>
<pdfrwt beam="1">  1       21 0.24276329E-01 0.20718808E+02</pdfrwt>
<pdfrwt beam="2">  1       21 0.42069186E-03 0.20718808E+02</pdfrwt>
<totfact> 0.15361469E+08</totfact>
</mgrwt>
</event>
<event>
 4    1  0.7119201E+004  0.2137576E+02  0.7546771E-02  0.1719277E+00
         21   -1    0    0  503  502  0.00000000000E+00  0.00000000000E+00  0.44966090854E+01  0.44966090854E+01  0.00000000000E+00 0.  1.
         21   -1    0    0  501  503 -0.00000000000E+00 -0.00000000000E+00 -0.13088499681E+03  0.13088499681E+03  0.00000000000E+00 0.  1.
          2    1    1    2  501    0  0.30917567474E+01 -0.21150989743E+02 -0.95204912098E+02  0.97575092183E+02  0.00000000000E+00 0. -1.
         -2    1    1    2    0  502 -0.30917567474E+01  0.21150989743E+02 -0.31183475622E+02  0.37806513709E+02  0.00000000000E+00 0.  1.
<mgrwt>
<rscale>  2 0.21375765E+02</rscale>
<asrwt>0</asrwt>
<pdfrwt beam="1">  1       21 0.69178623E-03 0.21375765E+02</pdfrwt>
<pdfrwt beam="2">  1       21 0.20136147E-01 0.21375765E+02</pdfrwt>
<totfact> 0.10342626E+08</totfact>
</mgrwt>
</event>
<event>
 4    1  0.7119201E+004  0.2193497E+02  0.7546771E-02  0.1709379E+00
         21   -1    0    0  503  502  0.00000000000E+00  0.00000000000E+00  0.27265460709E+01  0.27265460709E+01  0.00000000000E+00 0. -1.
         21   -1    0    0  501  503 -0.00000000000E+00 -0.00000000000E+00 -0.17649451159E+03  0.17649451159E+03  0.00000000000E+00 0. -1.
          5    1    1    2  501    0 -0.19307289109E+02 -0.10410164291E+02 -0.85746899172E+02  0.88508042860E+02  0.00000000000E+00 0. -1.
         -5    1    1    2    0  502  0.19307289109E+02  0.10410164291E+02 -0.88021066343E+02  0.90713014797E+02  0.00000000000E+00 0.  1.
<mgrwt>
<rscale>  2 0.21934971E+02</rscale>
<asrwt>0</asrwt>
<pdfrwt beam="1">  1       21 0.41946854E-03 0.21934971E+02</pdfrwt>
<pdfrwt beam="2">  1       21 0.27153007E-01 0.21934971E+02</pdfrwt>
<totfact> 0.12847257E+08</totfact>
</mgrwt>
</event>
<event>
 4    1  0.7119201E+004  0.3454024E+02  0.7546771E-02  0.1552722E+00
         21   -1    0    0  501  502  0.00000000000E+00  0.00000000000E+00  0.38942790085E+03  0.38942790085E+03  0.00000000000E+00 0.  1.
         21   -1    0    0  502  503 -0.00000000000E+00 -0.00000000000E+00 -0.35762496736E+01  0.35762496736E+01  0.00000000000E+00 0.  1.
          5    1    1    2  501    0  0.72691190922E+01  0.33766675770E+02  0.11852317607E+03  0.12345352061E+03  0.00000000000E+00 0.  1.
         -5    1    1    2    0  503 -0.72691190922E+01 -0.33766675770E+02  0.26732847510E+03  0.26955062991E+03  0.00000000000E+00 0. -1.
<mgrwt>
<rscale>  2 0.34540244E+02</rscale>
<asrwt>0</asrwt>
<pdfrwt beam="1">  1       21 0.59911951E-01 0.34540244E+02</pdfrwt>
<pdfrwt beam="2">  1       21 0.55019257E-03 0.34540244E+02</pdfrwt>
<totfact> 0.21020891E+07</totfact>
</mgrwt>
</event>
<event>
 4    1  0.7119201E+004  0.2043916E+02  0.7546771E-02  0.1736733E+00
         21   -1    0    0  503  502  0.00000000000E+00  0.00000000000E+00  0.44737710145E+01  0.44737710145E+01  0.00000000000E+00 0. -1.
         21   -1    0    0  501  503 -0.00000000000E+00 -0.00000000000E+00 -0.13069282172E+03  0.13069282172E+03  0.00000000000E+00 0. -1.
          3    1    1    2  501    0 -0.95482328093E+01 -0.18071814187E+02 -0.99220942031E+02  0.10130426721E+03  0.00000000000E+00 0. -1.
         -3    1    1    2    0  502  0.95482328093E+01  0.18071814187E+02 -0.26998108673E+02  0.33862325522E+02  0.00000000000E+00 0.  1.
<mgrwt>
<rscale>  2 0.20439159E+02</rscale>
<asrwt>0</asrwt>
<pdfrwt beam="1">  1       21 0.68827262E-03 0.20439159E+02</pdfrwt>
<pdfrwt beam="2">  1       21 0.20106583E-01 0.20439159E+02</pdfrwt>
<totfact> 0.10315391E+08</totfact>
</mgrwt>
</event>
<event>
 4    1  0.7119201E+004  0.3814228E+02  0.7546771E-02  0.1522345E+00
         21   -1    0    0  501  502  0.00000000000E+00  0.00000000000E+00  0.41850648151E+02  0.41850648151E+02  0.00000000000E+00 0. -1.
         21   -1    0    0  502  503 -0.00000000000E+00 -0.00000000000E+00 -0.34792340062E+02  0.34792340062E+02  0.00000000000E+00 0. -1.
          3    1    1    2  501    0 -0.30724095788E+02  0.22602293401E+02  0.46511747673E+01  0.38424824733E+02  0.00000000000E+00 0. -1.
         -3    1    1    2    0  503  0.30724095788E+02 -0.22602293401E+02  0.24071333222E+01  0.38218163481E+02  0.00000000000E+00 0.  1.
<mgrwt>
<rscale>  2 0.38142283E+02</rscale>
<asrwt>0</asrwt>
<pdfrwt beam="1">  1       21 0.64385612E-02 0.38142283E+02</pdfrwt>
<pdfrwt beam="2">  1       21 0.53526677E-02 0.38142283E+02</pdfrwt>
<totfact> 0.34115619E+07</totfact>
</mgrwt>
</event>
<event>
 4    1  0.7119201E+004  0.2748468E+02  0.7546771E-02  0.1627681E+00
         21   -1    0    0  503  502  0.00000000000E+00  0.00000000000E+00  0.49248563209E+03  0.49248563209E+03  0.00000000000E+00 0.  1.
         21   -1    0    0  501  503 -0.00000000000E+00 -0.00000000000E+00 -0.15340797581E+01  0.15340797581E+01  0.00000000000E+00 0.  1.
          2    1    1    2  501    0  0.41721332583E+01  0.27166174946E+02  0.24838056620E+03  0.24989660547E+03  0.00000000000E+00 0.  1.
         -2    1    1    2    0  502 -0.41721332583E+01 -0.27166174946E+02  0.24257098613E+03  0.24412310638E+03  0.00000000000E+00 0. -1.
<mgrwt>
<rscale>  2 0.27484682E+02</rscale>
<asrwt>0</asrwt>
<pdfrwt beam="1">  1       21 0.75766895E-01 0.27484682E+02</pdfrwt>
<pdfrwt beam="2">  1       21 0.23601266E-03 0.27484682E+02</pdfrwt>
<totfact> 0.43415245E+07</totfact>
</mgrwt>
</event>
<event>
 4    1  0.7119201E+004  0.2482398E+02  0.7546771E-02  0.1663543E+00
         21   -1    0    0  501  502  0.00000000000E+00  0.00000000000E+00  0.14613367872E+02  0.14613367872E+02  0.00000000000E+00 0. -1.
         21   -1    0    0  502  503 -0.00000000000E+00 -0.00000000000E+00 -0.42974382188E+02  0.42974382188E+02  0.00000000000E+00 0. -1.
          3    1    1    2  501    0  0.32861171094E+01 -0.24605510957E+02 -0.18122552967E+02  0.30735267384E+02  0.00000000000E+00 0.  1.
         -3    1    1    2    0  503 -0.32861171094E+01  0.24605510957E+02 -0.10238461349E+02  0.26852482677E+02  0.00000000000E+00 0. -1.
<mgrwt>
<rscale>  2 0.24823975E+02</rscale>
<asrwt>0</asrwt>
<pdfrwt beam="1">  1       21 0.22482104E-02 0.24823975E+02</pdfrwt>
<pdfrwt beam="2">  1       21 0.66114434E-02 0.24823975E+02</pdfrwt>
<totfact> 0.11703909E+08</totfact>
</mgrwt>
</event>
<event>
 4    1  0.7119201E+004  0.2113472E+02  0.7546771E-02  0.1723661E+00
         21   -1    0    0  501  502  0.00000000000E+00  0.00000000000E+00  0.11699578296E+03  0.11699578296E+03  0.00000000000E+00 0.  1.
         21   -1    0    0  502  503 -0.00000000000E+00 -0.00000000000E+00 -0.44382976179E+01  0.44382976179E+01  0.00000000000E+00 0.  1.
          2    1    1    2  501    0 -0.57260967930E+01  0.20344244349E+02  0.78979619930E+02  0.81758527548E+02  0.00000000000E+00 0.  1.
         -2    1    1    2    0  503  0.57260967930E+01 -0.20344244349E+02  0.33577865417E+02  0.39675553034E+02  0.00000000000E+00 0. -1.
<mgrwt>
<rscale>  2 0.21134722E+02</rscale>
<asrwt>0</asrwt>
<pdfrwt beam="1">  1       21 0.17999349E-01 0.21134722E+02</pdfrwt>
<pdfrwt beam="2">  1       21 0.68281511E-03 0.21134722E+02</pdfrwt>
<totfact> 0.12763158E+08</totfact>
</mgrwt>
</event>
<event>
 4    1  0.7119201E+004  0.2700874E+02  0.7546771E-02  0.1633720E+00
         21   -1    0    0  503  502  0.00000000000E+00  0.00000000000E+00  0.32136404114E+03  0.32136404114E+03  0.00000000000E+00 0. -1.
         21   -1    0    0  501  503 -0.00000000000E+00 -0.00000000000E+00 -0.23926669593E+01  0.23926669593E+01  0.00000000000E+00 0. -1.
          5    1    1    2  501    0  0.24706631554E+01 -0.26895497564E+02  0.12282117915E+03  0.12575577129E+03  0.00000000000E+00 0. -1.
         -5    1    1    2    0  502 -0.24706631554E+01  0.26895497564E+02  0.19615019503E+03  0.19800093681E+03  0.00000000000E+00 0.  1.
<mgrwt>
<rscale>  2 0.27008739E+02</rscale>
<asrwt>0</asrwt>
<pdfrwt beam="1">  1       21 0.49440588E-01 0.27008739E+02</pdfrwt>
<pdfrwt beam="2">  1       21 0.36810286E-03 0.27008739E+02</pdfrwt>
<totfact> 0.53466074E+07</totfact>
</mgrwt>
</event>
<event>
 4    1  0.7119201E+004  0.5442619E+02  0.7546771E-02  0.1422832E+00
         21   -1    0    0  501  502  0.00000000000E+00  0.00000000000E+00  0.11365381394E+03  0.11365381394E+03  0.00000000000E+00 0. -1.
         21   -1    0    0  502  503 -0.00000000000E+00 -0.00000000000E+00 -0.35028483062E+02  0.35028483062E+02  0.00000000000E+00 0. -1.
          2    1    1    2  501    0  0.50080504785E+02 -0.21310870093E+02  0.17034196515E+01  0.54452839982E+02  0.00000000000E+00 0. -1.
         -2    1    1    2    0  503 -0.50080504785E+02  0.21310870093E+02  0.76921911230E+02  0.94229457023E+02  0.00000000000E+00 0.  1.
<mgrwt>
<rscale>  2 0.54426190E+02</rscale>
<asrwt>0</asrwt>
<pdfrwt beam="1">  1       21 0.17485202E-01 0.54426190E+02</pdfrwt>
<pdfrwt beam="2">  1       21 0.53889975E-02 0.54426190E+02</pdfrwt>
<totfact> 0.64491890E+06</totfact>
</mgrwt>
</event>
<event>
 4    1  0.7119201E+004  0.2706048E+02  0.7546771E-02  0.1633056E+00
         21   -1    0    0  503  502  0.00000000000E+00  0.00000000000E+00  0.27053792098E+03  0.27053792098E+03  0.00000000000E+00 0.  1.
         21   -1    0    0  501  503 -0.00000000000E+00 -0.00000000000E+00 -0.37798617306E+01  0.37798617306E+01  0.00000000000E+00 0.  1.
          4    1    1    2  501    0  0.26492034148E+01  0.26930491686E+02  0.60296241948E+02  0.66090138858E+02  0.00000000000E+00 0.  1.
         -4    1    1    2    0  502 -0.26492034148E+01 -0.26930491686E+02  0.20646181730E+03  0.20822764385E+03  0.00000000000E+00 0. -1.
<mgrwt>
<rscale>  2 0.27060482E+02</rscale>
<asrwt>0</asrwt>
<pdfrwt beam="1">  1       21 0.41621203E-01 0.27060482E+02</pdfrwt>
<pdfrwt beam="2">  1       21 0.58151740E-03 0.27060482E+02</pdfrwt>
<totfact> 0.37901651E+07</totfact>
</mgrwt>
</event>
<event>
 4    1  0.7119201E+004  0.2335002E+02  0.7546771E-02  0.1685898E+00
         21   -1    0    0  501  502  0.00000000000E+00  0.00000000000E+00  0.24691989515E+04  0.24691989515E+04  0.00000000000E+00 0.  1.
         21   -1    0    0  502  503 -0.00000000000E+00 -0.00000000000E+00 -0.24995638563E+00  0.24995638563E+00  0.00000000000E+00 0.  1.
          2    1    1    2  501    0 -0.13755455506E+02  0.18868253103E+02  0.81284483464E+03  0.81318014532E+03  0.00000000000E+00 0.  1.
         -2    1    1    2    0  503  0.13755455506E+02 -0.18868253103E+02  0.16561041605E+04  0.16562687626E+04  0.00000000000E+00 0. -1.
<mgrwt>
<rscale>  2 0.23350022E+02</rscale>
<asrwt>0</asrwt>
<pdfrwt beam="1">  1       21 0.37985723E+00 0.23350022E+02</pdfrwt>
<pdfrwt beam="2">  1       21 0.38456806E-04 0.23350022E+02</pdfrwt>
<totfact> 0.75106368E+06</totfact>
</mgrwt>
</event>
<event>
 4    1  0.7119201E+004  0.2701362E+02  0.7546771E-02  0.1633657E+00
         21   -1    0    0  503  502  0.00000000000E+00  0.00000000000E+00  0.34779391651E+01  0.34779391651E+01  0.00000000000E+00 0.  1.
         21   -1    0    0  501  503 -0.00000000000E+00 -0.00000000000E+00 -0.21702207651E+03  0.21702207651E+03  0.00000000000E+00 0.  1.
          5    1    1    2  501    0 -0.26964031073E+02  0.16361071990E+01 -0.86685666809E+02  0.90797250226E+02  0.00000000000E+00 0.  1.
         -5    1    1    2    0  502  0.26964031073E+02 -0.16361071990E+01 -0.12685847054E+03  0.12970276545E+03  0.00000000000E+00 0. -1.
<mgrwt>
<rscale>  2 0.27013623E+02</rscale>
<asrwt>0</asrwt>
<pdfrwt beam="1">  1       21 0.53506773E-03 0.27013623E+02</pdfrwt>
<pdfrwt beam="2">  1       21 0.33388001E-01 0.27013623E+02</pdfrwt>
<totfact> 0.64896044E+07</totfact>
</mgrwt>
</event>
<event>
 4    1  0.7119201E+004  0.2535123E+02  0.7546771E-02  0.1656008E+00
         21   -1    0    0  501  502  0.00000000000E+00  0.00000000000E+00  0.20275911465E+03  0.20275911465E+03  0.00000000000E+00 0. -1.
         21   -1    0    0  502  503 -0.00000000000E+00 -0.00000000000E+00 -0.57918582993E+01  0.57918582993E+01  0.00000000000E+00 0. -1.
          1    1    1    2  501    0 -0.18675573304E+02 -0.17143739892E+02  0.16864579675E+03  0.17054058056E+03  0.00000000000E+00 0. -1.
         -1    1    1    2    0  503  0.18675573304E+02  0.17143739892E+02  0.28321459598E+02  0.38010392388E+02  0.00000000000E+00 0.  1.
<mgrwt>
<rscale>  2 0.25351230E+02</rscale>
<asrwt>0</asrwt>
<pdfrwt beam="1">  1       21 0.31193704E-01 0.25351230E+02</pdfrwt>
<pdfrwt beam="2">  1       21 0.89105528E-03 0.25351230E+02</pdfrwt>
<totfact> 0.33864515E+07</totfact>
</mgrwt>
</event>
<event>
 4    1  0.7119201E+004  0.2010777E+02  0.7546771E-02  0.1743193E+00
         21   -1    0    0  501  502  0.00000000000E+00  0.00000000000E+00  0.64321687963E+01  0.64321687963E+01  0.00000000000E+00 0.  1.
         21   -1    0    0  502  503 -0.00000000000E+00 -0.00000000000E+00 -0.92016337509E+02  0.92016337509E+02  0.00000000000E+00 0.  1.
          3    1    1    2  501    0  0.13677052796E+02  0.14739765198E+02 -0.15083304098E+02  0.25136199271E+02  0.00000000000E+00 0.  1.
         -3    1    1    2    0  503 -0.13677052796E+02 -0.14739765198E+02 -0.70500864614E+02  0.73312307034E+02  0.00000000000E+00 0. -1.
<mgrwt>
<rscale>  2 0.20107771E+02</rscale>
<asrwt>0</asrwt>
<pdfrwt beam="1">  1       21 0.98956450E-03 0.20107771E+02</pdfrwt>
<pdfrwt beam="2">  1       21 0.14156359E-01 0.20107771E+02</pdfrwt>
<totfact> 0.10899989E+08</totfact>
</mgrwt>
</event>
<event>
 4    1  0.7119201E+004  0.2379007E+02  0.7546771E-02  0.1679014E+00
         21   -1    0    0  503  502  0.00000000000E+00  0.00000000000E+00  0.95928767975E+01  0.95928767975E+01  0.00000000000E+00 0.  1.
         21   -1    0    0  501  503 -0.00000000000E+00 -0.00000000000E+00 -0.10279790492E+03  0.10279790492E+03  0.00000000000E+00 0.  1.
          5    1    1    2  501    0  0.20680326979E+02 -0.11759732356E+02 -0.99214695395E+01  0.25776011850E+02  0.00000000000E+00 0. -1.
         -5    1    1    2    0  502 -0.20680326979E+02  0.11759732356E+02 -0.83283558587E+02  0.86614769871E+02  0.00000000000E+00 0.  1.
<mgrwt>
<rscale>  2 0.23790066E+02</rscale>
<asrwt>0</asrwt>
<pdfrwt beam="1">  1       21 0.14758272E-02 0.23790066E+02</pdfrwt>
<pdfrwt beam="2">  1       21 0.15815062E-01 0.23790066E+02</pdfrwt>
<totfact> 0.51764752E+07</totfact>
</mgrwt>
</event>
<event>
 4    1  0.7119201E+004  0.3966747E+02  0.7546771E-02  0.1510673E+00
         21   -1    0    0  501  502  0.00000000000E+00  0.00000000000E+00  0.15390211190E+03  0.15390211190E+03  0.00000000000E+00 0. -1.
         21   -1    0    0  502  503 -0.00000000000E+00 -0.00000000000E+00 -0.10433546782E+02  0.10433546782E+02  0.00000000000E+00 0. -1.
          2    1    1    2  501    0 -0.11084158185E+02  0.38087395327E+02  0.60091992430E+02  0.72003859617E+02  0.00000000000E+00 0. -1.
         -2    1    1    2    0  503  0.11084158185E+02 -0.38087395327E+02  0.83376572682E+02  0.92331799061E+02  0.00000000000E+00 0.  1.
<mgrwt>
<rscale>  2 0.39667471E+02</rscale>
<asrwt>0</asrwt>
<pdfrwt beam="1">  1       21 0.23677246E-01 0.39667471E+02</pdfrwt>
<pdfrwt beam="2">  1       21 0.16051612E-02 0.39667471E+02</pdfrwt>
<totfact> 0.24800064E+07</totfact>
</mgrwt>
</event>
<event>
 4    1  0.7119201E+004  0.2759172E+02  0.7546771E-02  0.1626344E+00
         21   -1    0    0  503  502  0.00000000000E+00  0.00000000000E+00  0.33669396563E+02  0.33669396563E+02  0.00000000000E+00 0.  1.
         21   -1    0    0  501  503 -0.00000000000E+00 -0.00000000000E+00 -0.22749124489E+02  0.22749124489E+02  0.00000000000E+00 0.  1.
          3    1    1    2  501    0  0.13570073577E+02 -0.24024073964E+02  0.32630666110E+01  0.27783999540E+02  0.00000000000E+00 0. -1.
         -3    1    1    2    0  502 -0.13570073577E+02  0.24024073964E+02  0.76572054633E+01  0.28634521512E+02  0.00000000000E+00 0.  1.
<mgrwt>
<rscale>  2 0.27591720E+02</rscale>
<asrwt>0</asrwt>
<pdfrwt beam="1">  1       21 0.51799072E-02 0.27591720E+02</pdfrwt>
<pdfrwt beam="2">  1       21 0.34998653E-02 0.27591720E+02</pdfrwt>
<totfact> 0.89396641E+07</totfact>
</mgrwt>
</event>
<event>
 4    1  0.7119201E+004  0.3670611E+02  0.7546771E-02  0.1533952E+00
         21   -1    0    0  501  502  0.00000000000E+00  0.00000000000E+00  0.36310121487E+01  0.36310121487E+01  0.00000000000E+00 0. -1.
         21   -1    0    0  502  503 -0.00000000000E+00 -0.00000000000E+00 -0.37285279347E+03  0.37285279347E+03  0.00000000000E+00 0. -1.
          1    1    1    2  501    0 -0.23758917455E+02 -0.27979503231E+02 -0.17157325950E+03  0.17545575549E+03  0.00000000000E+00 0.  1.
         -1    1    1    2    0  503  0.23758917455E+02  0.27979503231E+02 -0.19764852183E+03  0.20102805013E+03  0.00000000000E+00 0. -1.
<mgrwt>
<rscale>  2 0.36706113E+02</rscale>
<asrwt>0</asrwt>
<pdfrwt beam="1">  1       21 0.55861727E-03 0.36706113E+02</pdfrwt>
<pdfrwt beam="2">  1       21 0.57361967E-01 0.36706113E+02</pdfrwt>
<totfact> 0.22656391E+07</totfact>
</mgrwt>
</event>
<event>
 4    1  0.7119201E+004  0.2229167E+02  0.7546771E-02  0.1703256E+00
         21   -1    0    0  501  502  0.00000000000E+00  0.00000000000E+00  0.41554986064E+02  0.41554986064E+02  0.00000000000E+00 0. -1.
         21   -1    0    0  502  503 -0.00000000000E+00 -0.00000000000E+00 -0.15485320258E+02  0.15485320258E+02  0.00000000000E+00 0. -1.
          2    1    1    2  501    0  0.19701609429E+02  0.10429042002E+02 -0.57674781105E+00  0.22299124853E+02  0.00000000000E+00 0.  1.
         -2    1    1    2    0  503 -0.19701609429E+02 -0.10429042002E+02  0.26646413617E+02  0.34741181468E+02  0.00000000000E+00 0. -1.
<mgrwt>
<rscale>  2 0.22291665E+02</rscale>
<asrwt>0</asrwt>
<pdfrwt beam="1">  1       21 0.63930747E-02 0.22291665E+02</pdfrwt>
<pdfrwt beam="2">  1       21 0.23823570E-02 0.22291665E+02</pdfrwt>
<totfact> 0.10953414E+08</totfact>
</mgrwt>
</event>
<event>
 4    1  0.7119201E+004  0.3213989E+02  0.7546771E-02  0.1575572E+00
         21   -1    0    0  501  502  0.00000000000E+00  0.00000000000E+00  0.92007225316E+02  0.92007225316E+02  0.00000000000E+00 0. -1.
         21   -1    0    0  502  503 -0.00000000000E+00 -0.00000000000E+00 -0.11266552085E+02  0.11266552085E+02  0.00000000000E+00 0. -1.
          1    1    1    2  501    0 -0.20617930350E+01 -0.32073685849E+02  0.43426801670E+02  0.54026469602E+02  0.00000000000E+00 0.  1.
         -1    1    1    2    0  503  0.20617930350E+01  0.32073685849E+02  0.37313871561E+02  0.49247307798E+02  0.00000000000E+00 0. -1.
<mgrwt>
<rscale>  2 0.32139887E+02</rscale>
<asrwt>0</asrwt>
<pdfrwt beam="1">  1       21 0.14154957E-01 0.32139887E+02</pdfrwt>
<pdfrwt beam="2">  1       21 0.17333158E-02 0.32139887E+02</pdfrwt>
<totfact> 0.52423551E+07</totfact>
</mgrwt>
</event>
<event>
 4    1  0.7119201E+004  0.2047824E+02  0.7546771E-02  0.1735982E+00
         21   -1    0    0  501  502  0.00000000000E+00  0.00000000000E+00  0.63494924293E+01  0.63494924293E+01  0.00000000000E+00 0. -1.
         21   -1    0    0  502  503 -0.00000000000E+00 -0.00000000000E+00 -0.66074005708E+02  0.66074005708E+02  0.00000000000E+00 0. -1.
          1    1    1    2  501    0 -0.54546316534E+01 -0.19738422009E+02 -0.30608333176E+02  0.36827005984E+02  0.00000000000E+00 0. -1.
         -1    1    1    2    0  503  0.54546316534E+01  0.19738422009E+02 -0.29116180102E+02  0.35596492153E+02  0.00000000000E+00 0.  1.
<mgrwt>
<rscale>  2 0.20478240E+02</rscale>
<asrwt>0</asrwt>
<pdfrwt beam="1">  1       21 0.97684502E-03 0.20478240E+02</pdfrwt>
<pdfrwt beam="2">  1       21 0.10165231E-01 0.20478240E+02</pdfrwt>
<totfact> 0.19403911E+08</totfact>
</mgrwt>
</event>
<event>
 4    1  0.7119201E+004  0.2962265E+02  0.7546771E-02  0.1602298E+00
         21   -1    0    0  501  502  0.00000000000E+00  0.00000000000E+00  0.42204897902E+02  0.42204897902E+02  0.00000000000E+00 0. -1.
         21   -1    0    0  502  503 -0.00000000000E+00 -0.00000000000E+00 -0.22718381825E+02  0.22718381825E+02  0.00000000000E+00 0. -1.
          5    1    1    2  501    0  0.28922863525E+02 -0.64007515391E+01  0.28930914802E+00  0.29624067150E+02  0.00000000000E+00 0.  1.
         -5    1    1    2    0  503 -0.28922863525E+02  0.64007515391E+01  0.19197206928E+02  0.35299212577E+02  0.00000000000E+00 0. -1.
<mgrwt>
<rscale>  2 0.29622654E+02</rscale>
<asrwt>0</asrwt>
<pdfrwt beam="1">  1       21 0.64930612E-02 0.29622654E+02</pdfrwt>
<pdfrwt beam="2">  1       21 0.34951357E-02 0.29622654E+02</pdfrwt>
<totfact> 0.63272597E+07</totfact>
</mgrwt>
</event>
<event>
 4    1  0.7119201E+004  0.2033044E+02  0.7546771E-02  0.1738836E+00
         21   -1    0    0  501  502  0.00000000000E+00  0.00000000000E+00  0.44265957742E+03  0.44265957742E+03  0.00000000000E+00 0.  1.
         21   -1    0    0  502  503 -0.00000000000E+00 -0.00000000000E+00 -0.95154320978E+00  0.95154320978E+00  0.00000000000E+00 0.  1.
          2    1    1    2  501    0 -0.13762251572E+02 -0.14964194774E+02  0.25119779124E+03  0.25201916002E+03  0.00000000000E+00 0. -1.
         -2    1    1    2    0  503  0.13762251572E+02  0.14964194774E+02  0.19051024297E+03  0.19159196061E+03  0.00000000000E+00 0.  1.
<mgrwt>
<rscale>  2 0.20330438E+02</rscale>
<asrwt>0</asrwt>
<pdfrwt beam="1">  1       21 0.68101309E-01 0.20330438E+02</pdfrwt>
<pdfrwt beam="2">  1       21 0.14639162E-03 0.20330438E+02</pdfrwt>
<totfact> 0.10045639E+08</totfact>
</mgrwt>
</event>
<event>
 4    1  0.7119201E+004  0.2066053E+02  0.7546771E-02  0.1732503E+00
         21   -1    0    0  501  502  0.00000000000E+00  0.00000000000E+00  0.59776444279E+01  0.59776444279E+01  0.00000000000E+00 0. -1.
         21   -1    0    0  502  503 -0.00000000000E+00 -0.00000000000E+00 -0.71849400830E+02  0.71849400830E+02  0.00000000000E+00 0. -1.
          2    1    1    2  501    0  0.82213625400E+01 -0.18954329811E+02 -0.35982571495E+02  0.41492202544E+02  0.00000000000E+00 0. -1.
         -2    1    1    2    0  503 -0.82213625400E+01  0.18954329811E+02 -0.29889184907E+02  0.36334842713E+02  0.00000000000E+00 0.  1.
<mgrwt>
<rscale>  2 0.20660528E+02</rscale>
<asrwt>0</asrwt>
<pdfrwt beam="1">  1       21 0.91963762E-03 0.20660528E+02</pdfrwt>
<pdfrwt beam="2">  1       21 0.11053754E-01 0.20660528E+02</pdfrwt>
<totfact> 0.18539899E+08</totfact>
</mgrwt>
</event>
<event>
 4    1  0.7119201E+004  0.2407651E+02  0.7546771E-02  0.1674632E+00
         21   -1    0    0  501  502  0.00000000000E+00  0.00000000000E+00  0.33528890782E+03  0.33528890782E+03  0.00000000000E+00 0. -1.
         21   -1    0    0  502  503 -0.00000000000E+00 -0.00000000000E+00 -0.27880734219E+01  0.27880734219E+01  0.00000000000E+00 0. -1.
          2    1    1    2  501    0 -0.33344861405E+01 -0.23844490429E+02  0.27043862105E+03  0.27150824348E+03  0.00000000000E+00 0.  1.
         -2    1    1    2    0  503  0.33344861405E+01  0.23844490429E+02  0.62062213347E+02  0.66568737762E+02  0.00000000000E+00 0. -1.
<mgrwt>
<rscale>  2 0.24076514E+02</rscale>
<asrwt>0</asrwt>
<pdfrwt beam="1">  1       21 0.51582877E-01 0.24076514E+02</pdfrwt>
<pdfrwt beam="2">  1       21 0.42893464E-03 0.24076514E+02</pdfrwt>
<totfact> 0.38328172E+07</totfact>
</mgrwt>
</event>
<event>
 4    1  0.7119201E+004  0.2897755E+02  0.7546771E-02  0.1609673E+00
         21   -1    0    0  501  502  0.00000000000E+00  0.00000000000E+00  0.21194452310E+03  0.21194452310E+03  0.00000000000E+00 0.  1.
         21   -1    0    0  502  503 -0.00000000000E+00 -0.00000000000E+00 -0.41722870548E+01  0.41722870548E+01  0.00000000000E+00 0.  1.
          3    1    1    2  501    0  0.27828441927E+02 -0.80793526433E+01  0.79619750730E+02  0.84728996368E+02  0.00000000000E+00 0. -1.
         -3    1    1    2    0  503 -0.27828441927E+02  0.80793526433E+01  0.12815248532E+03  0.13138781379E+03  0.00000000000E+00 0.  1.
<mgrwt>
<rscale>  2 0.28977545E+02</rscale>
<asrwt>0</asrwt>
<pdfrwt beam="1">  1       21 0.32606841E-01 0.28977545E+02</pdfrwt>
<pdfrwt beam="2">  1       21 0.64189048E-03 0.28977545E+02</pdfrwt>
<totfact> 0.52517404E+07</totfact>
</mgrwt>
</event>
<event>
 4    1  0.7119201E+004  0.3440716E+02  0.7546771E-02  0.1553929E+00
         21   -1    0    0  503  502  0.00000000000E+00  0.00000000000E+00  0.29879042785E+03  0.29879042785E+03  0.00000000000E+00 0. -1.
         21   -1    0    0  501  503 -0.00000000000E+00 -0.00000000000E+00 -0.41161651253E+01  0.41161651253E+01  0.00000000000E+00 0. -1.
          1    1    1    2  501    0 -0.34342533015E+02 -0.21078270931E+01  0.17663351074E+03  0.17995346516E+03  0.00000000000E+00 0. -1.
         -1    1    1    2    0  502  0.34342533015E+02  0.21078270931E+01  0.11804075198E+03  0.12295312781E+03  0.00000000000E+00 0.  1.
<mgrwt>
<rscale>  2 0.34407158E+02</rscale>
<asrwt>0</asrwt>
<pdfrwt beam="1">  1       21 0.45967741E-01 0.34407158E+02</pdfrwt>
<pdfrwt beam="2">  1       21 0.63325641E-03 0.34407158E+02</pdfrwt>
<totfact> 0.28830018E+07</totfact>
</mgrwt>
</event>
<event>
 4    1  0.7119201E+004  0.2141816E+02  0.7546771E-02  0.1718513E+00
         21   -1    0    0  503  502  0.00000000000E+00  0.00000000000E+00  0.12980987354E+02  0.12980987354E+02  0.00000000000E+00 0.  1.
         21   -1    0    0  501  503 -0.00000000000E+00 -0.00000000000E+00 -0.47718448424E+02  0.47718448424E+02  0.00000000000E+00 0.  1.
          1    1    1    2  501    0 -0.19688488559E+02 -0.84321457962E+01 -0.19105384394E+01  0.21503204914E+02  0.00000000000E+00 0. -1.
         -1    1    1    2    0  502  0.19688488559E+02  0.84321457962E+01 -0.32826922631E+02  0.39196230863E+02  0.00000000000E+00 0.  1.
<mgrwt>
<rscale>  2 0.21418162E+02</rscale>
<asrwt>0</asrwt>
<pdfrwt beam="1">  1       21 0.19970750E-02 0.21418162E+02</pdfrwt>
<pdfrwt beam="2">  1       21 0.73412997E-02 0.21418162E+02</pdfrwt>
<totfact> 0.11354250E+08</totfact>
</mgrwt>
</event>
<event>
 4    1  0.7119201E+004  0.2022349E+02  0.7546771E-02  0.1740920E+00
         21   -1    0    0  501  502  0.00000000000E+00  0.00000000000E+00  0.76373518945E+01  0.76373518945E+01  0.00000000000E+00 0.  1.
         21   -1    0    0  502  503 -0.00000000000E+00 -0.00000000000E+00 -0.99919452020E+02  0.99919452020E+02  0.00000000000E+00 0.  1.
          2    1    1    2  501    0  0.54771674964E+01  0.19467673136E+02 -0.95063156173E+01  0.22346357594E+02  0.00000000000E+00 0. -1.
         -2    1    1    2    0  503 -0.54771674964E+01 -0.19467673136E+02 -0.82775784508E+02  0.85210446320E+02  0.00000000000E+00 0.  1.
<mgrwt>
<rscale>  2 0.20223493E+02</rscale>
<asrwt>0</asrwt>
<pdfrwt beam="1">  1       21 0.11749772E-02 0.20223493E+02</pdfrwt>
<pdfrwt beam="2">  1       21 0.15372224E-01 0.20223493E+02</pdfrwt>
<totfact> 0.73443010E+07</totfact>
</mgrwt>
</event>
<event>
 4    1  0.7119201E+004  0.2637479E+02  0.7546771E-02  0.1642006E+00
         21   -1    0    0  501  502  0.00000000000E+00  0.00000000000E+00  0.11878339691E+01  0.11878339691E+01  0.00000000000E+00 0.  1.
         21   -1    0    0  502  503 -0.00000000000E+00 -0.00000000000E+00 -0.58958649137E+03  0.58958649137E+03  0.00000000000E+00 0.  1.
          2    1    1    2  501    0  0.24534001575E+01  0.26260430337E+02 -0.31840168598E+03  0.31949219554E+03  0.00000000000E+00 0.  1.
         -2    1    1    2    0  503 -0.24534001575E+01 -0.26260430337E+02 -0.26999697142E+03  0.27128212980E+03  0.00000000000E+00 0. -1.
<mgrwt>
<rscale>  2 0.26374787E+02</rscale>
<asrwt>0</asrwt>
<pdfrwt beam="1">  1       21 0.18274336E-03 0.26374787E+02</pdfrwt>
<pdfrwt beam="2">  1       21 0.90705775E-01 0.26374787E+02</pdfrwt>
<totfact> 0.42590664E+07</totfact>
</mgrwt>
</event>
<event>
 4    1  0.7119201E+004  0.2303324E+02  0.7546771E-02  0.1690972E+00
         21   -1    0    0  501  502  0.00000000000E+00  0.00000000000E+00  0.51470013382E+01  0.51470013382E+01  0.00000000000E+00 0.  1.
         21   -1    0    0  502  503 -0.00000000000E+00 -0.00000000000E+00 -0.10360920962E+03  0.10360920962E+03  0.00000000000E+00 0.  1.
          2    1    1    2  501    0 -0.14558518996E+02 -0.17848794841E+02 -0.45328447739E+02  0.50844843663E+02  0.00000000000E+00 0.  1.
         -2    1    1    2    0  503  0.14558518996E+02  0.17848794841E+02 -0.53133760542E+02  0.57911367295E+02  0.00000000000E+00 0. -1.
<mgrwt>
<rscale>  2 0.23033236E+02</rscale>
<asrwt>0</asrwt>
<pdfrwt beam="1">  1       21 0.79184632E-03 0.23033236E+02</pdfrwt>
<pdfrwt beam="2">  1       21 0.15939879E-01 0.23033236E+02</pdfrwt>
<totfact> 0.12932809E+08</totfact>
</mgrwt>
</event>
<event>
 4    1  0.7119201E+004  0.2163585E+02  0.7546771E-02  0.1714627E+00
         21   -1    0    0  503  502  0.00000000000E+00  0.00000000000E+00  0.10737608421E+02  0.10737608421E+02  0.00000000000E+00 0.  1.
         21   -1    0    0  501  503 -0.00000000000E+00 -0.00000000000E+00 -0.55142111071E+02  0.55142111071E+02  0.00000000000E+00 0.  1.
          5    1    1    2  501    0 -0.21172540278E+02 -0.44534670655E+01 -0.71288909526E+01  0.22780055245E+02  0.00000000000E+00 0. -1.
         -5    1    1    2    0  502  0.21172540278E+02  0.44534670655E+01 -0.37275611698E+02  0.43099664247E+02  0.00000000000E+00 0.  1.
<mgrwt>
<rscale>  2 0.21635846E+02</rscale>
<asrwt>0</asrwt>
<pdfrwt beam="1">  1       21 0.16519397E-02 0.21635846E+02</pdfrwt>
<pdfrwt beam="2">  1       21 0.84834019E-02 0.21635846E+02</pdfrwt>
<totfact> 0.12024518E+08</totfact>
</mgrwt>
</event>
<event>
 4    1  0.7119201E+004  0.3468253E+02  0.7546771E-02  0.1551438E+00
         21   -1    0    0  503  502  0.00000000000E+00  0.00000000000E+00  0.20534277612E+03  0.20534277612E+03  0.00000000000E+00 0.  1.
         21   -1    0    0  501  503 -0.00000000000E+00 -0.00000000000E+00 -0.73776751801E+01  0.73776751801E+01  0.00000000000E+00 0.  1.
          3    1    1    2  501    0 -0.29356997501E+02 -0.18467399247E+02  0.50709062548E+02  0.61435227368E+02  0.00000000000E+00 0. -1.
         -3    1    1    2    0  502  0.29356997501E+02  0.18467399247E+02  0.14725603839E+03  0.15128522393E+03  0.00000000000E+00 0.  1.
<mgrwt>
<rscale>  2 0.34682534E+02</rscale>
<asrwt>0</asrwt>
<pdfrwt beam="1">  1       21 0.31591192E-01 0.34682534E+02</pdfrwt>
<pdfrwt beam="2">  1       21 0.11350271E-02 0.34682534E+02</pdfrwt>
<totfact> 0.24358678E+07</totfact>
</mgrwt>
</event>
<event>
 4    1  0.7119201E+004  0.2547231E+02  0.7546771E-02  0.1654309E+00
         21   -1    0    0  503  502  0.00000000000E+00  0.00000000000E+00  0.34284866836E+01  0.34284866836E+01  0.00000000000E+00 0.  1.
         21   -1    0    0  501  503 -0.00000000000E+00 -0.00000000000E+00 -0.22534369068E+03  0.22534369068E+03  0.00000000000E+00 0.  1.
          2    1    1    2  501    0 -0.70303677411E+01  0.24482899171E+02 -0.65178121322E+02  0.69978753357E+02  0.00000000000E+00 0. -1.
         -2    1    1    2    0  502  0.70303677411E+01 -0.24482899171E+02 -0.15673708267E+03  0.15879342400E+03  0.00000000000E+00 0.  1.
<mgrwt>
<rscale>  2 0.25472307E+02</rscale>
<asrwt>0</asrwt>
<pdfrwt beam="1">  1       21 0.52745946E-03 0.25472307E+02</pdfrwt>
<pdfrwt beam="2">  1       21 0.34668262E-01 0.25472307E+02</pdfrwt>
<totfact> 0.60986804E+07</totfact>
</mgrwt>
</event>
<event>
 4    1  0.7119201E+004  0.2091402E+02  0.7546771E-02  0.1727740E+00
         21   -1    0    0  501  502  0.00000000000E+00  0.00000000000E+00  0.40455918707E+01  0.40455918707E+01  0.00000000000E+00 0.  1.
         21   -1    0    0  502  503 -0.00000000000E+00 -0.00000000000E+00 -0.11338617685E+03  0.11338617685E+03  0.00000000000E+00 0.  1.
          4    1    1    2  501    0 -0.13642229610E+02  0.15851995841E+02 -0.67328076730E+02  0.70501532728E+02  0.00000000000E+00 0.  1.
         -4    1    1    2    0  503  0.13642229610E+02 -0.15851995841E+02 -0.42012508248E+02  0.46930235991E+02  0.00000000000E+00 0. -1.
<mgrwt>
<rscale>  2 0.20914019E+02</rscale>
<asrwt>0</asrwt>
<pdfrwt beam="1">  1       21 0.62239877E-03 0.20914019E+02</pdfrwt>
<pdfrwt beam="2">  1       21 0.17444027E-01 0.20914019E+02</pdfrwt>
<totfact> 0.15401159E+08</totfact>
</mgrwt>
</event>
<event>
 4    1  0.7119201E+004  0.2367268E+02  0.7546771E-02  0.1680833E+00
         21   -1    0    0  501  502  0.00000000000E+00  0.00000000000E+00  0.42370335683E+02  0.42370335683E+02  0.00000000000E+00 0. -1.
         21   -1    0    0  502  503 -0.00000000000E+00 -0.00000000000E+00 -0.15001392126E+02  0.15001392126E+02  0.00000000000E+00 0. -1.
          1    1    1    2  501    0  0.17119342687E+02  0.16350047049E+02  0.23552544543E+02  0.33393386875E+02  0.00000000000E+00 0. -1.
         -1    1    1    2    0  503 -0.17119342687E+02 -0.16350047049E+02  0.38163990136E+01  0.23978340934E+02  0.00000000000E+00 0.  1.
<mgrwt>
<rscale>  2 0.23672683E+02</rscale>
<asrwt>0</asrwt>
<pdfrwt beam="1">  1       21 0.65185131E-02 0.23672683E+02</pdfrwt>
<pdfrwt beam="2">  1       21 0.23079065E-02 0.23672683E+02</pdfrwt>
<totfact> 0.11345937E+08</totfact>
</mgrwt>
</event>
<event>
 4    1  0.7119201E+004  0.5046802E+02  0.7546771E-02  0.1442833E+00
         21   -1    0    0  503  502  0.00000000000E+00  0.00000000000E+00  0.31316499953E+02  0.31316499953E+02  0.00000000000E+00 0. -1.
         21   -1    0    0  501  503 -0.00000000000E+00 -0.00000000000E+00 -0.11087281259E+03  0.11087281259E+03  0.00000000000E+00 0. -1.
          3    1    1    2  501    0  0.44635007647E+02  0.23552853024E+02 -0.76475839348E+02  0.91627369259E+02  0.00000000000E+00 0.  1.
         -3    1    1    2    0  502 -0.44635007647E+02 -0.23552853024E+02 -0.30804732913E+01  0.50561943287E+02  0.00000000000E+00 0. -1.
<mgrwt>
<rscale>  2 0.50468018E+02</rscale>
<asrwt>0</asrwt>
<pdfrwt beam="1">  1       21 0.48179230E-02 0.50468018E+02</pdfrwt>
<pdfrwt beam="2">  1       21 0.17057356E-01 0.50468018E+02</pdfrwt>
<totfact> 0.80351837E+06</totfact>
</mgrwt>
</event>
<event>
 4    1  0.7119201E+004  0.7196233E+02  0.7546771E-02  0.1353544E+00
         21   -1    0    0  503  502  0.00000000000E+00  0.00000000000E+00  0.58412685441E+02  0.58412685441E+02  0.00000000000E+00 0.  1.
         21   -1    0    0  501  503 -0.00000000000E+00 -0.00000000000E+00 -0.89477834187E+02  0.89477834187E+02  0.00000000000E+00 0.  1.
          5    1    1    2  501    0 -0.28181268600E+02 -0.66214752762E+02 -0.84416091043E+01  0.72455766834E+02  0.00000000000E+00 0.  1.
         -5    1    1    2    0  502  0.28181268600E+02  0.66214752762E+02 -0.22623539642E+02  0.75434752794E+02  0.00000000000E+00 0. -1.
<mgrwt>
<rscale>  2 0.71962333E+02</rscale>
<asrwt>0</asrwt>
<pdfrwt beam="1">  1       21 0.89865670E-02 0.71962333E+02</pdfrwt>
<pdfrwt beam="2">  1       21 0.13765821E-01 0.71962333E+02</pdfrwt>
<totfact> 0.42785893E+06</totfact>
</mgrwt>
</event>
<event>
 4    1  0.7119201E+004  0.3484676E+02  0.7546771E-02  0.1549966E+00
         21   -1    0    0  503  502  0.00000000000E+00  0.00000000000E+00  0.29294271238E+03  0.29294271238E+03  0.00000000000E+00 0. -1.
         21   -1    0    0  501  503 -0.00000000000E+00 -0.00000000000E+00 -0.63582177293E+01  0.63582177293E+01  0.00000000000E+00 0. -1.
          2    1    1    2  501    0  0.31714231052E+02  0.14439671688E+02  0.23158113032E+03  0.23418820741E+03  0.00000000000E+00 0. -1.
         -2    1    1    2    0  502 -0.31714231052E+02 -0.14439671688E+02  0.55003364331E+02  0.65112722700E+02  0.00000000000E+00 0.  1.
<mgrwt>
<rscale>  2 0.34846758E+02</rscale>
<asrwt>0</asrwt>
<pdfrwt beam="1">  1       21 0.45068099E-01 0.34846758E+02</pdfrwt>
<pdfrwt beam="2">  1       21 0.97818757E-03 0.34846758E+02</pdfrwt>
<totfact> 0.15556661E+07</totfact>
</mgrwt>
</event>
<event>
 4    1  0.7119201E+004  0.2378333E+02  0.7546771E-02  0.1679118E+00
         21   -1    0    0  501  502  0.00000000000E+00  0.00000000000E+00  0.62472748525E+02  0.62472748525E+02  0.00000000000E+00 0.  1.
         21   -1    0    0  502  503 -0.00000000000E+00 -0.00000000000E+00 -0.11999818515E+02  0.11999818515E+02  0.00000000000E+00 0.  1.
          5    1    1    2  501    0 -0.15524285877E+02  0.18017865886E+02  0.67880124644E+01  0.24733055943E+02  0.00000000000E+00 0. -1.
         -5    1    1    2    0  503  0.15524285877E+02 -0.18017865886E+02  0.43684917546E+02  0.49739511096E+02  0.00000000000E+00 0.  1.
<mgrwt>
<rscale>  2 0.23783333E+02</rscale>
<asrwt>0</asrwt>
<pdfrwt beam="1">  1       21 0.96111919E-02 0.23783333E+02</pdfrwt>
<pdfrwt beam="2">  1       21 0.18461260E-02 0.23783333E+02</pdfrwt>
<totfact> 0.84944380E+07</totfact>
</mgrwt>
</event>
<event>
 4    1  0.7119201E+004  0.3043859E+02  0.7546771E-02  0.1593291E+00
         21   -1    0    0  503  502  0.00000000000E+00  0.00000000000E+00  0.30656906990E+03  0.30656906990E+03  0.00000000000E+00 0. -1.
         21   -1    0    0  501  503 -0.00000000000E+00 -0.00000000000E+00 -0.31026375151E+01  0.31026375151E+01  0.00000000000E+00 0. -1.
          2    1    1    2  501    0  0.25978582717E+02 -0.15862575196E+02  0.17666648867E+03  0.17926950736E+03  0.00000000000E+00 0.  1.
         -2    1    1    2    0  502 -0.25978582717E+02  0.15862575196E+02  0.12679994372E+03  0.13040220005E+03  0.00000000000E+00 0. -1.
<mgrwt>
<rscale>  2 0.30438595E+02</rscale>
<asrwt>0</asrwt>
<pdfrwt beam="1">  1       21 0.47164448E-01 0.30438595E+02</pdfrwt>
<pdfrwt beam="2">  1       21 0.47732909E-03 0.30438595E+02</pdfrwt>
<totfact> 0.40908901E+07</totfact>
</mgrwt>
</event>
<event>
 4    1  0.7119201E+004  0.2609097E+02  0.7546771E-02  0.1645809E+00
         21   -1    0    0  501  502  0.00000000000E+00  0.00000000000E+00  0.39915534141E+01  0.39915534141E+01  0.00000000000E+00 0. -1.
         21   -1    0    0  502  503 -0.00000000000E+00 -0.00000000000E+00 -0.17110495864E+03  0.17110495864E+03  0.00000000000E+00 0. -1.
          3    1    1    2  501    0  0.90211530725E+01  0.24481777649E+02 -0.88565985061E+02  0.92329152218E+02  0.00000000000E+00 0.  1.
         -3    1    1    2    0  503 -0.90211530725E+01 -0.24481777649E+02 -0.78547420166E+02  0.82767359837E+02  0.00000000000E+00 0. -1.
<mgrwt>
<rscale>  2 0.26090969E+02</rscale>
<asrwt>0</asrwt>
<pdfrwt beam="1">  1       21 0.61408512E-03 0.26090969E+02</pdfrwt>
<pdfrwt beam="2">  1       21 0.26323841E-01 0.26090969E+02</pdfrwt>
<totfact> 0.80985314E+07</totfact>
</mgrwt>
</event>
<event>
 4    1  0.7119201E+004  0.3958601E+02  0.7546771E-02  0.1511280E+00
         21   -1    0    0  501  502  0.00000000000E+00  0.00000000000E+00  0.12604216182E+02  0.12604216182E+02  0.00000000000E+00 0. -1.
         21   -1    0    0  502  503 -0.00000000000E+00 -0.00000000000E+00 -0.27244470418E+03  0.27244470418E+03  0.00000000000E+00 0. -1.
          5    1    1    2  501    0  0.32013780498E+02 -0.23284550053E+02 -0.23500815809E+03  0.23831887626E+03  0.00000000000E+00 0.  1.
         -5    1    1    2    0  503 -0.32013780498E+02  0.23284550053E+02 -0.24832329905E+02  0.46730044098E+02  0.00000000000E+00 0. -1.
<mgrwt>
<rscale>  2 0.39586013E+02</rscale>
<asrwt>0</asrwt>
<pdfrwt beam="1">  1       21 0.19391103E-02 0.39586013E+02</pdfrwt>
<pdfrwt beam="2">  1       21 0.41914567E-01 0.39586013E+02</pdfrwt>
<totfact> 0.63460902E+06</totfact>
</mgrwt>
</event>
<event>
 4    1  0.7119201E+004  0.3278442E+02  0.7546771E-02  0.1569204E+00
         21   -1    0    0  503  502  0.00000000000E+00  0.00000000000E+00  0.10702350460E+03  0.10702350460E+03  0.00000000000E+00 0. -1.
         21   -1    0    0  501  503 -0.00000000000E+00 -0.00000000000E+00 -0.11028714531E+02  0.11028714531E+02  0.00000000000E+00 0. -1.
          2    1    1    2  501    0  0.29687433239E+02 -0.13909508542E+02  0.65645426361E+02  0.73376700132E+02  0.00000000000E+00 0.  1.
         -2    1    1    2    0  502 -0.29687433239E+02  0.13909508542E+02  0.30349363705E+02  0.44675518995E+02  0.00000000000E+00 0. -1.
<mgrwt>
<rscale>  2 0.32784419E+02</rscale>
<asrwt>0</asrwt>
<pdfrwt beam="1">  1       21 0.16465154E-01 0.32784419E+02</pdfrwt>
<pdfrwt beam="2">  1       21 0.16967254E-02 0.32784419E+02</pdfrwt>
<totfact> 0.41890693E+07</totfact>
</mgrwt>
</event>
<event>
 4    1  0.7119201E+004  0.2327323E+02  0.7546771E-02  0.1687119E+00
         21   -1    0    0  503  502  0.00000000000E+00  0.00000000000E+00  0.24582424100E+00  0.24582424100E+00  0.00000000000E+00 0.  1.
         21   -1    0    0  501  503 -0.00000000000E+00 -0.00000000000E+00 -0.22714887672E+04  0.22714887672E+04  0.00000000000E+00 0.  1.
          2    1    1    2  501    0 -0.23271748323E+02  0.26245592336E+00 -0.13323138784E+04  0.13325171345E+04  0.00000000000E+00 0. -1.
         -2    1    1    2    0  502  0.23271748323E+02 -0.26245592336E+00 -0.93892906458E+03  0.93921745696E+03  0.00000000000E+00 0.  1.
<mgrwt>
<rscale>  2 0.23273228E+02</rscale>
<asrwt>0</asrwt>
<pdfrwt beam="1">  1       21 0.37819509E-04 0.23273228E+02</pdfrwt>
<pdfrwt beam="2">  1       21 0.34945616E+00 0.23273228E+02</pdfrwt>
<totfact> 0.11003580E+07</totfact>
</mgrwt>
</event>
<event>
 4    1  0.7119201E+004  0.2166457E+02  0.7546771E-02  0.1714118E+00
         21   -1    0    0  501  502  0.00000000000E+00  0.00000000000E+00  0.43312977500E+03  0.43312977500E+03  0.00000000000E+00 0.  1.
         21   -1    0    0  502  503 -0.00000000000E+00 -0.00000000000E+00 -0.11366572198E+01  0.11366572198E+01  0.00000000000E+00 0.  1.
          4    1    1    2  501    0 -0.80200485442E+01  0.20125420824E+02  0.16909919635E+03  0.17048135366E+03  0.00000000000E+00 0.  1.
         -4    1    1    2    0  503  0.80200485442E+01 -0.20125420824E+02  0.26289392144E+03  0.26378507856E+03  0.00000000000E+00 0. -1.
<mgrwt>
<rscale>  2 0.21664573E+02</rscale>
<asrwt>0</asrwt>
<pdfrwt beam="1">  1       21 0.66635218E-01 0.21664573E+02</pdfrwt>
<pdfrwt beam="2">  1       21 0.17487069E-03 0.21664573E+02</pdfrwt>
<totfact> 0.82741413E+07</totfact>
</mgrwt>
</event>
<event>
 4    1  0.7119201E+004  0.2159656E+02  0.7546771E-02  0.1715324E+00
         21   -1    0    0  501  502  0.00000000000E+00  0.00000000000E+00  0.11157784256E+02  0.11157784256E+02  0.00000000000E+00 0. -1.
         21   -1    0    0  502  503 -0.00000000000E+00 -0.00000000000E+00 -0.41895623565E+02  0.41895623565E+02  0.00000000000E+00 0. -1.
          3    1    1    2  501    0  0.12166755406E+02 -0.17843245138E+02 -0.14111123489E+02  0.25797967755E+02  0.00000000000E+00 0.  1.
         -3    1    1    2    0  503 -0.12166755406E+02  0.17843245138E+02 -0.16626715820E+02  0.27255440065E+02  0.00000000000E+00 0. -1.
<mgrwt>
<rscale>  2 0.21596558E+02</rscale>
<asrwt>0</asrwt>
<pdfrwt beam="1">  1       21 0.17165822E-02 0.21596558E+02</pdfrwt>
<pdfrwt beam="2">  1       21 0.64454807E-02 0.21596558E+02</pdfrwt>
<totfact> 0.17692419E+08</totfact>
</mgrwt>
</event>
<event>
 4    1  0.7119201E+004  0.3067286E+02  0.7546771E-02  0.1590768E+00
         21   -1    0    0  503  502  0.00000000000E+00  0.00000000000E+00  0.47097447510E+00  0.47097447510E+00  0.00000000000E+00 0. -1.
         21   -1    0    0  501  503 -0.00000000000E+00 -0.00000000000E+00 -0.20421838646E+04  0.20421838646E+04  0.00000000000E+00 0. -1.
          3    1    1    2  501    0  0.34975865661E+01 -0.30472790307E+02 -0.11717428339E+04  0.11721442287E+04  0.00000000000E+00 0.  1.
         -3    1    1    2    0  502 -0.34975865661E+01  0.30472790307E+02 -0.86997005619E+03  0.87051061035E+03  0.00000000000E+00 0. -1.
<mgrwt>
<rscale>  2 0.30672855E+02</rscale>
<asrwt>0</asrwt>
<pdfrwt beam="1">  1       21 0.72458149E-04 0.30672855E+02</pdfrwt>
<pdfrwt beam="2">  1       21 0.31417980E+00 0.30672855E+02</pdfrwt>
<totfact> 0.65463039E+06</totfact>
</mgrwt>
</event>
<event>
 4    1  0.7119201E+004  0.2059554E+02  0.7546771E-02  0.1733738E+00
         21   -1    0    0  501  502  0.00000000000E+00  0.00000000000E+00  0.71145026119E+02  0.71145026119E+02  0.00000000000E+00 0. -1.
         21   -1    0    0  502  503 -0.00000000000E+00 -0.00000000000E+00 -0.59645791659E+01  0.59645791659E+01  0.00000000000E+00 0. -1.
          5    1    1    2  501    0 -0.10169694850E+02  0.17909593337E+02  0.31809704906E+02  0.37895033356E+02  0.00000000000E+00 0.  1.
         -5    1    1    2    0  503  0.10169694850E+02 -0.17909593337E+02  0.33370742047E+02  0.39214571929E+02  0.00000000000E+00 0. -1.
<mgrwt>
<rscale>  2 0.20595539E+02</rscale>
<asrwt>0</asrwt>
<pdfrwt beam="1">  1       21 0.10945388E-01 0.20595539E+02</pdfrwt>
<pdfrwt beam="2">  1       21 0.91762761E-03 0.20595539E+02</pdfrwt>
<totfact> 0.18887938E+08</totfact>
</mgrwt>
</event>
<event>
 4    1  0.7119201E+004  0.2203481E+02  0.7546771E-02  0.1707651E+00
         21   -1    0    0  503  502  0.00000000000E+00  0.00000000000E+00  0.17877889965E+01  0.17877889965E+01  0.00000000000E+00 0. -1.
         21   -1    0    0  501  503 -0.00000000000E+00 -0.00000000000E+00 -0.33710993127E+03  0.33710993127E+03  0.00000000000E+00 0. -1.
          5    1    1    2  501    0 -0.24604318766E+01  0.21897011845E+02 -0.24236840705E+03  0.24336798801E+03  0.00000000000E+00 0. -1.
         -5    1    1    2    0  502  0.24604318766E+01 -0.21897011845E+02 -0.92953735227E+02  0.95529732259E+02  0.00000000000E+00 0.  1.
<mgrwt>
<rscale>  2 0.22034810E+02</rscale>
<asrwt>0</asrwt>
<pdfrwt beam="1">  1       21 0.27504444E-03 0.22034810E+02</pdfrwt>
<pdfrwt beam="2">  1       21 0.51863070E-01 0.22034810E+02</pdfrwt>
<totfact> 0.71107573E+07</totfact>
</mgrwt>
</event>
<event>
 4    1  0.7119201E+004  0.2141064E+02  0.7546771E-02  0.1718648E+00
         21   -1    0    0  503  502  0.00000000000E+00  0.00000000000E+00  0.33563075888E+03  0.33563075888E+03  0.00000000000E+00 0. -1.
         21   -1    0    0  501  503 -0.00000000000E+00 -0.00000000000E+00 -0.17778505038E+01  0.17778505038E+01  0.00000000000E+00 0. -1.
          2    1    1    2  501    0  0.15470827202E+02  0.14800986162E+02  0.24814144332E+03  0.24906342882E+03  0.00000000000E+00 0. -1.
         -2    1    1    2    0  502 -0.15470827202E+02 -0.14800986162E+02  0.85711465057E+02  0.88345180559E+02  0.00000000000E+00 0.  1.
<mgrwt>
<rscale>  2 0.21410644E+02</rscale>
<asrwt>0</asrwt>
<pdfrwt beam="1">  1       21 0.51635451E-01 0.21410644E+02</pdfrwt>
<pdfrwt beam="2">  1       21 0.27351573E-03 0.21410644E+02</pdfrwt>
<totfact> 0.71779172E+07</totfact>
</mgrwt>
</event>
<event>
 4    1  0.7119201E+004  0.2395227E+02  0.7546771E-02  0.1676523E+00
         21   -1    0    0  501  502  0.00000000000E+00  0.00000000000E+00  0.12091053528E+02  0.12091053528E+02  0.00000000000E+00 0. -1.
         21   -1    0    0  502  503 -0.00000000000E+00 -0.00000000000E+00 -0.48140559677E+02  0.48140559677E+02  0.00000000000E+00 0. -1.
          4    1    1    2  501    0 -0.21995587630E+02 -0.94818374824E+01 -0.21633722129E+02  0.32275827648E+02  0.00000000000E+00 0. -1.
         -4    1    1    2    0  503  0.21995587630E+02  0.94818374824E+01 -0.14415784019E+02  0.27955785557E+02  0.00000000000E+00 0.  1.
<mgrwt>
<rscale>  2 0.23952267E+02</rscale>
<asrwt>0</asrwt>
<pdfrwt beam="1">  1       21 0.18601621E-02 0.23952267E+02</pdfrwt>
<pdfrwt beam="2">  1       21 0.74062398E-02 0.23952267E+02</pdfrwt>
<totfact> 0.12897991E+08</totfact>
</mgrwt>
</event>
<event>
 4    1  0.7119201E+004  0.2543259E+02  0.7546771E-02  0.1654865E+00
         21   -1    0    0  503  502  0.00000000000E+00  0.00000000000E+00  0.11469327527E+02  0.11469327527E+02  0.00000000000E+00 0. -1.
         21   -1    0    0  501  503 -0.00000000000E+00 -0.00000000000E+00 -0.59343870073E+02  0.59343870073E+02  0.00000000000E+00 0. -1.
          2    1    1    2  501    0  0.13160174407E+02  0.21762963363E+02 -0.16045069797E+02  0.30070933300E+02  0.00000000000E+00 0.  1.
         -2    1    1    2    0  502 -0.13160174407E+02 -0.21762963363E+02 -0.31829472749E+02  0.40742264299E+02  0.00000000000E+00 0. -1.
<mgrwt>
<rscale>  2 0.25432593E+02</rscale>
<asrwt>0</asrwt>
<pdfrwt beam="1">  1       21 0.17645119E-02 0.25432593E+02</pdfrwt>
<pdfrwt beam="2">  1       21 0.91298262E-02 0.25432593E+02</pdfrwt>
<totfact> 0.10090526E+08</totfact>
</mgrwt>
</event>
<event>
 4    1  0.7119201E+004  0.3143427E+02  0.7546771E-02  0.1582755E+00
         21   -1    0    0  501  502  0.00000000000E+00  0.00000000000E+00  0.49835043132E+02  0.49835043132E+02  0.00000000000E+00 0. -1.
         21   -1    0    0  502  503 -0.00000000000E+00 -0.00000000000E+00 -0.20379866725E+02  0.20379866725E+02  0.00000000000E+00 0. -1.
          3    1    1    2  501    0  0.19368314036E+02  0.24758464512E+02  0.89487209440E+01  0.32683218326E+02  0.00000000000E+00 0.  1.
         -3    1    1    2    0  503 -0.19368314036E+02 -0.24758464512E+02  0.20506455463E+02  0.37531691532E+02  0.00000000000E+00 0. -1.
<mgrwt>
<rscale>  2 0.31434267E+02</rscale>
<asrwt>0</asrwt>
<pdfrwt beam="1">  1       21 0.76669297E-02 0.31434267E+02</pdfrwt>
<pdfrwt beam="2">  1       21 0.31353641E-02 0.31434267E+02</pdfrwt>
<totfact> 0.57975441E+07</totfact>
</mgrwt>
</event>
<event>
 4    1  0.7119201E+004  0.2700246E+02  0.7546771E-02  0.1633801E+00
         21   -1    0    0  503  502  0.00000000000E+00  0.00000000000E+00  0.16539287792E+02  0.16539287792E+02  0.00000000000E+00 0. -1.
         21   -1    0    0  501  503 -0.00000000000E+00 -0.00000000000E+00 -0.50955915561E+02  0.50955915561E+02  0.00000000000E+00 0. -1.
          4    1    1    2  501    0 -0.23230239161E+02 -0.13765490247E+02 -0.48158889754E+01  0.27428553003E+02  0.00000000000E+00 0. -1.
         -4    1    1    2    0  502  0.23230239161E+02  0.13765490247E+02 -0.29600738793E+02  0.40066650351E+02  0.00000000000E+00 0.  1.
<mgrwt>
<rscale>  2 0.27002458E+02</rscale>
<asrwt>0</asrwt>
<pdfrwt beam="1">  1       21 0.25445058E-02 0.27002458E+02</pdfrwt>
<pdfrwt beam="2">  1       21 0.78393717E-02 0.27002458E+02</pdfrwt>
<totfact> 0.74799860E+07</totfact>
</mgrwt>
</event>
<event>
 4    1  0.7119201E+004  0.3235448E+02  0.7546771E-02  0.1573432E+00
         21   -1    0    0  501  502  0.00000000000E+00  0.00000000000E+00  0.76847776600E+02  0.76847776600E+02  0.00000000000E+00 0.  1.
         21   -1    0    0  502  503 -0.00000000000E+00 -0.00000000000E+00 -0.13629205403E+02  0.13629205403E+02  0.00000000000E+00 0.  1.
          4    1    1    2  501    0  0.15221184065E+02  0.28550442942E+02  0.32657101515E+02  0.45970626664E+02  0.00000000000E+00 0. -1.
         -4    1    1    2    0  503 -0.15221184065E+02 -0.28550442942E+02  0.30561469681E+02  0.44506355339E+02  0.00000000000E+00 0.  1.
<mgrwt>
<rscale>  2 0.32354478E+02</rscale>
<asrwt>0</asrwt>
<pdfrwt beam="1">  1       21 0.11822735E-01 0.32354478E+02</pdfrwt>
<pdfrwt beam="2">  1       21 0.20968009E-02 0.32354478E+02</pdfrwt>
<totfact> 0.53138279E+07</totfact>
</mgrwt>
</event>
<event>
 4    1  0.7119201E+004  0.2503900E+02  0.7546771E-02  0.1660442E+00
         21   -1    0    0  503  502  0.00000000000E+00  0.00000000000E+00  0.21293196306E+02  0.21293196306E+02  0.00000000000E+00 0. -1.
         21   -1    0    0  501  503 -0.00000000000E+00 -0.00000000000E+00 -0.29443766722E+02  0.29443766722E+02  0.00000000000E+00 0. -1.
          3    1    1    2  501    0 -0.17548062700E+02 -0.17861045744E+02 -0.40966623080E+01  0.25371915609E+02  0.00000000000E+00 0. -1.
         -3    1    1    2    0  502  0.17548062700E+02  0.17861045744E+02 -0.40539081077E+01  0.25365047419E+02  0.00000000000E+00 0.  1.
<mgrwt>
<rscale>  2 0.25038999E+02</rscale>
<asrwt>0</asrwt>
<pdfrwt beam="1">  1       21 0.32758764E-02 0.25038999E+02</pdfrwt>
<pdfrwt beam="2">  1       21 0.45298103E-02 0.25038999E+02</pdfrwt>
<totfact> 0.11978046E+08</totfact>
</mgrwt>
</event>
<event>
 4    1  0.7119201E+004  0.2706760E+02  0.7546771E-02  0.1632965E+00
         21   -1    0    0  501  502  0.00000000000E+00  0.00000000000E+00  0.35660802229E+02  0.35660802229E+02  0.00000000000E+00 0. -1.
         21   -1    0    0  502  503 -0.00000000000E+00 -0.00000000000E+00 -0.23607163590E+02  0.23607163590E+02  0.00000000000E+00 0. -1.
          3    1    1    2  501    0 -0.11480748169E+02  0.24512191824E+02  0.16699523473E+02  0.31804547014E+02  0.00000000000E+00 0. -1.
         -3    1    1    2    0  503  0.11480748169E+02 -0.24512191824E+02 -0.46458848345E+01  0.27463418805E+02  0.00000000000E+00 0.  1.
<mgrwt>
<rscale>  2 0.27067603E+02</rscale>
<asrwt>0</asrwt>
<pdfrwt beam="1">  1       21 0.54862773E-02 0.27067603E+02</pdfrwt>
<pdfrwt beam="2">  1       21 0.36318713E-02 0.27067603E+02</pdfrwt>
<totfact> 0.76507048E+07</totfact>
</mgrwt>
</event>
<event>
 4    1  0.7119201E+004  0.2363117E+02  0.7546771E-02  0.1681479E+00
         21   -1    0    0  503  502  0.00000000000E+00  0.00000000000E+00  0.69563067430E+01  0.69563067430E+01  0.00000000000E+00 0.  1.
         21   -1    0    0  501  503 -0.00000000000E+00 -0.00000000000E+00 -0.10536913449E+03  0.10536913449E+03  0.00000000000E+00 0.  1.
          4    1    1    2  501    0  0.10828379291E+02  0.21004244118E+02 -0.21799543390E+02  0.32150461289E+02  0.00000000000E+00 0. -1.
         -4    1    1    2    0  502 -0.10828379291E+02 -0.21004244118E+02 -0.76613284352E+02  0.80174979939E+02  0.00000000000E+00 0.  1.
<mgrwt>
<rscale>  2 0.23631167E+02</rscale>
<asrwt>0</asrwt>
<pdfrwt beam="1">  1       21 0.10702011E-02 0.23631167E+02</pdfrwt>
<pdfrwt beam="2">  1       21 0.16210636E-01 0.23631167E+02</pdfrwt>
<totfact> 0.80562456E+07</totfact>
</mgrwt>
</event>
<event>
 4    1  0.7119201E+004  0.2320844E+02  0.7546771E-02  0.1688154E+00
         21   -1    0    0  503  502  0.00000000000E+00  0.00000000000E+00  0.78432305201E+02  0.78432305201E+02  0.00000000000E+00 0.  1.
         21   -1    0    0  501  503 -0.00000000000E+00 -0.00000000000E+00 -0.73304569489E+01  0.73304569489E+01  0.00000000000E+00 0.  1.
          4    1    1    2  501    0  0.19294603403E+02 -0.12897666812E+02  0.46327665372E+02  0.51815867343E+02  0.00000000000E+00 0. -1.
         -4    1    1    2    0  502 -0.19294603403E+02  0.12897666812E+02  0.24774182881E+02  0.33946894808E+02  0.00000000000E+00 0.  1.
<mgrwt>
<rscale>  2 0.23208437E+02</rscale>
<asrwt>0</asrwt>
<pdfrwt beam="1">  1       21 0.12066508E-01 0.23208437E+02</pdfrwt>
<pdfrwt beam="2">  1       21 0.11277627E-02 0.23208437E+02</pdfrwt>
<totfact> 0.12217398E+08</totfact>
</mgrwt>
</event>
<event>
 4    1  0.7119201E+004  0.2112636E+02  0.7546771E-02  0.1723814E+00
         21   -1    0    0  503  502  0.00000000000E+00  0.00000000000E+00  0.29693689110E+02  0.29693689110E+02  0.00000000000E+00 0. -1.
         21   -1    0    0  501  503 -0.00000000000E+00 -0.00000000000E+00 -0.16539222111E+02  0.16539222111E+02  0.00000000000E+00 0. -1.
          4    1    1    2  501    0  0.12233451043E+02  0.17223989089E+02  0.13558103144E+02  0.25102694784E+02  0.00000000000E+00 0.  1.
         -4    1    1    2    0  502 -0.12233451043E+02 -0.17223989089E+02 -0.40363614495E+00  0.21130216437E+02  0.00000000000E+00 0. -1.
<mgrwt>
<rscale>  2 0.21126361E+02</rscale>
<asrwt>0</asrwt>
<pdfrwt beam="1">  1       21 0.45682599E-02 0.21126361E+02</pdfrwt>
<pdfrwt beam="2">  1       21 0.25444957E-02 0.21126361E+02</pdfrwt>
<totfact> 0.16637231E+08</totfact>
</mgrwt>
</event>
<event>
 4    1  0.7119201E+004  0.3279096E+02  0.7546771E-02  0.1569140E+00
         21   -1    0    0  503  502  0.00000000000E+00  0.00000000000E+00  0.52655035170E+02  0.52655035170E+02  0.00000000000E+00 0.  1.
         21   -1    0    0  501  503 -0.00000000000E+00 -0.00000000000E+00 -0.21897065532E+02  0.21897065532E+02  0.00000000000E+00 0.  1.
          4    1    1    2  501    0  0.29337817269E+02  0.14647160996E+02  0.25058423255E+02  0.41269497493E+02  0.00000000000E+00 0.  1.
         -4    1    1    2    0  502 -0.29337817269E+02 -0.14647160996E+02  0.56995463833E+01  0.33282603208E+02  0.00000000000E+00 0. -1.
<mgrwt>
<rscale>  2 0.32790957E+02</rscale>
<asrwt>0</asrwt>
<pdfrwt beam="1">  1       21 0.81007746E-02 0.32790957E+02</pdfrwt>
<pdfrwt beam="2">  1       21 0.33687793E-02 0.32790957E+02</pdfrwt>
<totfact> 0.47687048E+07</totfact>
</mgrwt>
</event>
<event>
 4    1  0.7119201E+004  0.2205375E+02  0.7546771E-02  0.1707324E+00
         21   -1    0    0  501  502  0.00000000000E+00  0.00000000000E+00  0.65071216861E+02  0.65071216861E+02  0.00000000000E+00 0. -1.
         21   -1    0    0  502  503 -0.00000000000E+00 -0.00000000000E+00 -0.77315616126E+01  0.77315616126E+01  0.00000000000E+00 0. -1.
          4    1    1    2  501    0 -0.15955293988E+02 -0.15224864504E+02  0.22030981821E+02  0.31172617237E+02  0.00000000000E+00 0. -1.
         -4    1    1    2    0  503  0.15955293988E+02  0.15224864504E+02  0.35308673428E+02  0.41630161237E+02  0.00000000000E+00 0.  1.
<mgrwt>
<rscale>  2 0.22053750E+02</rscale>
<asrwt>0</asrwt>
<pdfrwt beam="1">  1       21 0.10010956E-01 0.22053750E+02</pdfrwt>
<pdfrwt beam="2">  1       21 0.11894711E-02 0.22053750E+02</pdfrwt>
<totfact> 0.15151154E+08</totfact>
</mgrwt>
</event>
<event>
 4    1  0.7119201E+004  0.3981771E+02  0.7546771E-02  0.1509557E+00
         21   -1    0    0  503  502  0.00000000000E+00  0.00000000000E+00  0.42179450720E+03  0.42179450720E+03  0.00000000000E+00 0.  1.
         21   -1    0    0  501  503 -0.00000000000E+00 -0.00000000000E+00 -0.37592059342E+01  0.37592059342E+01  0.00000000000E+00 0.  1.
          1    1    1    2  501    0  0.35325602075E+02  0.18372584916E+02  0.20686443841E+03  0.21066168592E+03  0.00000000000E+00 0. -1.
         -1    1    1    2    0  502 -0.35325602075E+02 -0.18372584916E+02  0.21117086285E+03  0.21489202720E+03  0.00000000000E+00 0.  1.
<mgrwt>
<rscale>  2 0.39817710E+02</rscale>
<asrwt>0</asrwt>
<pdfrwt beam="1">  1       21 0.64891425E-01 0.39817710E+02</pdfrwt>
<pdfrwt beam="2">  1       21 0.57833971E-03 0.39817710E+02</pdfrwt>
<totfact> 0.16905882E+07</totfact>
</mgrwt>
</event>
<event>
 4    1  0.7119201E+004  0.2798072E+02  0.7546771E-02  0.1621545E+00
         21   -1    0    0  503  502  0.00000000000E+00  0.00000000000E+00  0.17135749763E+02  0.17135749763E+02  0.00000000000E+00 0. -1.
         21   -1    0    0  501  503 -0.00000000000E+00 -0.00000000000E+00 -0.10137189074E+03  0.10137189074E+03  0.00000000000E+00 0. -1.
          2    1    1    2  501    0 -0.19544224074E+02 -0.20023582284E+02  0.17973726370E+01  0.28038386019E+02  0.00000000000E+00 0.  1.
         -2    1    1    2    0  502  0.19544224074E+02  0.20023582284E+02 -0.86033513618E+02  0.90469254487E+02  0.00000000000E+00 0. -1.
<mgrwt>
<rscale>  2 0.27980717E+02</rscale>
<asrwt>0</asrwt>
<pdfrwt beam="1">  1       21 0.26362692E-02 0.27980717E+02</pdfrwt>
<pdfrwt beam="2">  1       21 0.15595675E-01 0.27980717E+02</pdfrwt>
<totfact> 0.22491516E+07</totfact>
</mgrwt>
</event>
<event>
 4    1  0.7119201E+004  0.2254296E+02  0.7546771E-02  0.1699027E+00
         21   -1    0    0  501  502  0.00000000000E+00  0.00000000000E+00  0.14862868880E+03  0.14862868880E+03  0.00000000000E+00 0. -1.
         21   -1    0    0  502  503 -0.00000000000E+00 -0.00000000000E+00 -0.34954466456E+01  0.34954466456E+01  0.00000000000E+00 0. -1.
          2    1    1    2  501    0 -0.16045881680E+02 -0.15833979360E+02  0.61329839581E+02  0.65341674636E+02  0.00000000000E+00 0. -1.
         -2    1    1    2    0  503  0.16045881680E+02  0.15833979360E+02  0.83803402575E+02  0.86782460811E+02  0.00000000000E+00 0.  1.
<mgrwt>
<rscale>  2 0.22542964E+02</rscale>
<asrwt>0</asrwt>
<pdfrwt beam="1">  1       21 0.22865947E-01 0.22542964E+02</pdfrwt>
<pdfrwt beam="2">  1       21 0.53776114E-03 0.22542964E+02</pdfrwt>
<totfact> 0.12196840E+08</totfact>
</mgrwt>
</event>
<event>
 4    1  0.7119201E+004  0.2686483E+02  0.7546771E-02  0.1635576E+00
         21   -1    0    0  501  502  0.00000000000E+00  0.00000000000E+00  0.61788343426E+03  0.61788343426E+03  0.00000000000E+00 0. -1.
         21   -1    0    0  502  503 -0.00000000000E+00 -0.00000000000E+00 -0.11901842537E+01  0.11901842537E+01  0.00000000000E+00 0. -1.
          5    1    1    2  501    0  0.31004461733E+01  0.26685319511E+02  0.35055833093E+03  0.35158620909E+03  0.00000000000E+00 0.  1.
         -5    1    1    2    0  503 -0.31004461733E+01 -0.26685319511E+02  0.26613491908E+03  0.26748740942E+03  0.00000000000E+00 0. -1.
<mgrwt>
<rscale>  2 0.26864829E+02</rscale>
<asrwt>0</asrwt>
<pdfrwt beam="1">  1       21 0.95058733E-01 0.26864829E+02</pdfrwt>
<pdfrwt beam="2">  1       21 0.18310576E-03 0.26864829E+02</pdfrwt>
<totfact> 0.38501624E+07</totfact>
</mgrwt>
</event>
<event>
 4    1  0.7119201E+004  0.2732127E+02  0.7546771E-02  0.1629738E+00
         21   -1    0    0  501  502  0.00000000000E+00  0.00000000000E+00  0.21944669936E+01  0.21944669936E+01  0.00000000000E+00 0.  1.
         21   -1    0    0  502  503 -0.00000000000E+00 -0.00000000000E+00 -0.39991259813E+03  0.39991259813E+03  0.00000000000E+00 0.  1.
          3    1    1    2  501    0  0.15657289253E+02 -0.22389756119E+02 -0.27657988664E+03  0.27792604336E+03  0.00000000000E+00 0. -1.
         -3    1    1    2    0  503 -0.15657289253E+02  0.22389756119E+02 -0.12113824450E+03  0.12418102177E+03  0.00000000000E+00 0.  1.
<mgrwt>
<rscale>  2 0.27321272E+02</rscale>
<asrwt>0</asrwt>
<pdfrwt beam="1">  1       21 0.33761022E-03 0.27321272E+02</pdfrwt>
<pdfrwt beam="2">  1       21 0.61525031E-01 0.27321272E+02</pdfrwt>
<totfact> 0.39413883E+07</totfact>
</mgrwt>
</event>
<event>
 4    1  0.7119201E+004  0.2014741E+02  0.7546771E-02  0.1742412E+00
         21   -1    0    0  503  502  0.00000000000E+00  0.00000000000E+00  0.19138859135E+01  0.19138859135E+01  0.00000000000E+00 0. -1.
         21   -1    0    0  501  503 -0.00000000000E+00 -0.00000000000E+00 -0.21632615903E+03  0.21632615903E+03  0.00000000000E+00 0. -1.
          1    1    1    2  501    0  0.16583723240E+02 -0.11441072420E+02 -0.12247419412E+03  0.12412028940E+03  0.00000000000E+00 0.  1.
         -1    1    1    2    0  502 -0.16583723240E+02  0.11441072420E+02 -0.91938078996E+02  0.94119755547E+02  0.00000000000E+00 0. -1.
<mgrwt>
<rscale>  2 0.20147407E+02</rscale>
<asrwt>0</asrwt>
<pdfrwt beam="1">  1       21 0.29444426E-03 0.20147407E+02</pdfrwt>
<pdfrwt beam="2">  1       21 0.33280917E-01 0.20147407E+02</pdfrwt>
<totfact> 0.14523518E+08</totfact>
</mgrwt>
</event>
<event>
 4    1  0.7119201E+004  0.2947583E+02  0.7546771E-02  0.1603956E+00
         21   -1    0    0  503  502  0.00000000000E+00  0.00000000000E+00  0.10697997223E+03  0.10697997223E+03  0.00000000000E+00 0. -1.
         21   -1    0    0  501  503 -0.00000000000E+00 -0.00000000000E+00 -0.82388862583E+01  0.82388862583E+01  0.00000000000E+00 0. -1.
          3    1    1    2  501    0 -0.28567675813E+02  0.72603196585E+01  0.56250746550E+02  0.63505675576E+02  0.00000000000E+00 0. -1.
         -3    1    1    2    0  502  0.28567675813E+02 -0.72603196585E+01  0.42490339425E+02  0.51713182916E+02  0.00000000000E+00 0.  1.
<mgrwt>
<rscale>  2 0.29475826E+02</rscale>
<asrwt>0</asrwt>
<pdfrwt beam="1">  1       21 0.16458456E-01 0.29475826E+02</pdfrwt>
<pdfrwt beam="2">  1       21 0.12675210E-02 0.29475826E+02</pdfrwt>
<totfact> 0.64131530E+07</totfact>
</mgrwt>
</event>
<event>
 4    1  0.7119201E+004  0.2181880E+02  0.7546771E-02  0.1711405E+00
         21   -1    0    0  503  502  0.00000000000E+00  0.00000000000E+00  0.22177335530E+02  0.22177335530E+02  0.00000000000E+00 0. -1.
         21   -1    0    0  501  503 -0.00000000000E+00 -0.00000000000E+00 -0.21557051224E+02  0.21557051224E+02  0.00000000000E+00 0. -1.
          3    1    1    2  501    0 -0.16738050659E+02  0.13996348561E+02  0.17307938060E+01  0.21887342463E+02  0.00000000000E+00 0.  1.
         -3    1    1    2    0  502  0.16738050659E+02 -0.13996348561E+02 -0.11105094997E+01  0.21847044291E+02  0.00000000000E+00 0. -1.
<mgrwt>
<rscale>  2 0.21818802E+02</rscale>
<asrwt>0</asrwt>
<pdfrwt beam="1">  1       21 0.34118978E-02 0.21818802E+02</pdfrwt>
<pdfrwt beam="2">  1       21 0.33164694E-02 0.21818802E+02</pdfrwt>
<totfact> 0.17622695E+08</totfact>
</mgrwt>
</event>
<event>
 4    1  0.7119201E+004  0.4446491E+02  0.7546771E-02  0.1477710E+00
         21   -1    0    0  501  502  0.00000000000E+00  0.00000000000E+00  0.27211618930E+02  0.27211618930E+02  0.00000000000E+00 0.  1.
         21   -1    0    0  502  503 -0.00000000000E+00 -0.00000000000E+00 -0.83530139746E+02  0.83530139746E+02  0.00000000000E+00 0.  1.
          4    1    1    2  501    0 -0.35688532650E+02 -0.26522761377E+02 -0.48136123474E+02  0.65530257263E+02  0.00000000000E+00 0. -1.
         -4    1    1    2    0  503  0.35688532650E+02  0.26522761377E+02 -0.81823973423E+01  0.45211501413E+02  0.00000000000E+00 0.  1.
<mgrwt>
<rscale>  2 0.44464910E+02</rscale>
<asrwt>0</asrwt>
<pdfrwt beam="1">  1       21 0.41864029E-02 0.44464910E+02</pdfrwt>
<pdfrwt beam="2">  1       21 0.12850791E-01 0.44464910E+02</pdfrwt>
<totfact> 0.16299522E+07</totfact>
</mgrwt>
</event>
<event>
 4    1  0.7119201E+004  0.2105154E+02  0.7546771E-02  0.1725191E+00
         21   -1    0    0  503  502  0.00000000000E+00  0.00000000000E+00  0.63412483499E+02  0.63412483499E+02  0.00000000000E+00 0.  1.
         21   -1    0    0  501  503 -0.00000000000E+00 -0.00000000000E+00 -0.74920654803E+01  0.74920654803E+01  0.00000000000E+00 0.  1.
          2    1    1    2  501    0 -0.48702190541E+01 -0.20480436063E+02  0.37150072034E+02  0.42700060270E+02  0.00000000000E+00 0.  1.
         -2    1    1    2    0  502  0.48702190541E+01  0.20480436063E+02  0.18770345985E+02  0.28204488709E+02  0.00000000000E+00 0. -1.
<mgrwt>
<rscale>  2 0.21051539E+02</rscale>
<asrwt>0</asrwt>
<pdfrwt beam="1">  1       21 0.97557663E-02 0.21051539E+02</pdfrwt>
<pdfrwt beam="2">  1       21 0.11526255E-02 0.21051539E+02</pdfrwt>
<totfact> 0.16342746E+08</totfact>
</mgrwt>
</event>
<event>
 4    1  0.7119201E+004  0.2215488E+02  0.7546771E-02  0.1705587E+00
         21   -1    0    0  501  502  0.00000000000E+00  0.00000000000E+00  0.14033488150E+01  0.14033488150E+01  0.00000000000E+00 0. -1.
         21   -1    0    0  502  503 -0.00000000000E+00 -0.00000000000E+00 -0.35928583981E+03  0.35928583981E+03  0.00000000000E+00 0. -1.
          2    1    1    2  501    0 -0.20665366311E+02  0.79863175910E+01 -0.20830288225E+03  0.20947775392E+03  0.00000000000E+00 0.  1.
         -2    1    1    2    0  503  0.20665366311E+02 -0.79863175910E+01 -0.14957960875E+03  0.15121143471E+03  0.00000000000E+00 0. -1.
<mgrwt>
<rscale>  2 0.22154878E+02</rscale>
<asrwt>0</asrwt>
<pdfrwt beam="1">  1       21 0.21589951E-03 0.22154878E+02</pdfrwt>
<pdfrwt beam="2">  1       21 0.55274825E-01 0.22154878E+02</pdfrwt>
<totfact> 0.89243918E+07</totfact>
</mgrwt>
</event>
<event>
 4    1  0.7119201E+004  0.2699611E+02  0.7546771E-02  0.1633883E+00
         21   -1    0    0  503  502  0.00000000000E+00  0.00000000000E+00  0.70627012367E+02  0.70627012367E+02  0.00000000000E+00 0.  1.
         21   -1    0    0  501  503 -0.00000000000E+00 -0.00000000000E+00 -0.10547297302E+02  0.10547297302E+02  0.00000000000E+00 0.  1.
          4    1    1    2  501    0  0.33931125485E+00  0.26993980571E+02  0.24066708861E+02  0.36166235560E+02  0.00000000000E+00 0. -1.
         -4    1    1    2    0  502 -0.33931125485E+00 -0.26993980571E+02  0.36013006204E+02  0.45008074109E+02  0.00000000000E+00 0.  1.
<mgrwt>
<rscale>  2 0.26996113E+02</rscale>
<asrwt>0</asrwt>
<pdfrwt beam="1">  1       21 0.10865694E-01 0.26996113E+02</pdfrwt>
<pdfrwt beam="2">  1       21 0.16226612E-02 0.26996113E+02</pdfrwt>
<totfact> 0.87241104E+07</totfact>
</mgrwt>
</event>
<event>
 4    1  0.7119201E+004  0.2130737E+02  0.7546771E-02  0.1720513E+00
         21   -1    0    0  503  502  0.00000000000E+00  0.00000000000E+00  0.59484028613E+00  0.59484028613E+00  0.00000000000E+00 0. -1.
         21   -1    0    0  501  503 -0.00000000000E+00 -0.00000000000E+00 -0.76391402268E+03  0.76391402268E+03  0.00000000000E+00 0. -1.
          1    1    1    2  501    0 -0.18969248960E+02 -0.97042028478E+01 -0.37027765284E+03  0.37089020499E+03  0.00000000000E+00 0. -1.
         -1    1    1    2    0  502  0.18969248960E+02  0.97042028478E+01 -0.39304152955E+03  0.39361865798E+03  0.00000000000E+00 0.  1.
<mgrwt>
<rscale>  2 0.21307369E+02</rscale>
<asrwt>0</asrwt>
<pdfrwt beam="1">  1       21 0.91513696E-04 0.21307369E+02</pdfrwt>
<pdfrwt beam="2">  1       21 0.11752548E+00 0.21307369E+02</pdfrwt>
<totfact> 0.61928472E+07</totfact>
</mgrwt>
</event>
<event>
 4    1  0.7119201E+004  0.2305442E+02  0.7546771E-02  0.1690630E+00
         21   -1    0    0  503  502  0.00000000000E+00  0.00000000000E+00  0.41160008647E+00  0.41160008647E+00  0.00000000000E+00 0. -1.
         21   -1    0    0  501  503 -0.00000000000E+00 -0.00000000000E+00 -0.13124244634E+04  0.13124244634E+04  0.00000000000E+00 0. -1.
          1    1    1    2  501    0  0.86055399204E+01  0.21388099938E+02 -0.57276056467E+03  0.57322436321E+03  0.00000000000E+00 0. -1.
         -1    1    1    2    0  502 -0.86055399204E+01 -0.21388099938E+02 -0.73925229861E+03  0.73961170024E+03  0.00000000000E+00 0.  1.
<mgrwt>
<rscale>  2 0.23054417E+02</rscale>
<asrwt>0</asrwt>
<pdfrwt beam="1">  1       21 0.63324151E-04 0.23054417E+02</pdfrwt>
<pdfrwt beam="2">  1       21 0.20190807E+00 0.23054417E+02</pdfrwt>
<totfact> 0.29007800E+07</totfact>
</mgrwt>
</event>
<event>
 4    1  0.7119201E+004  0.2363260E+02  0.7546771E-02  0.1681456E+00
         21   -1    0    0  503  502  0.00000000000E+00  0.00000000000E+00  0.38935561247E+01  0.38935561247E+01  0.00000000000E+00 0. -1.
         21   -1    0    0  501  503 -0.00000000000E+00 -0.00000000000E+00 -0.18144374084E+03  0.18144374084E+03  0.00000000000E+00 0. -1.
          5    1    1    2  501    0  0.18215286673E+02 -0.15056670836E+02 -0.46365626248E+02  0.52041054011E+02  0.00000000000E+00 0. -1.
         -5    1    1    2    0  502 -0.18215286673E+02  0.15056670836E+02 -0.13118455847E+03  0.13329624296E+03  0.00000000000E+00 0.  1.
<mgrwt>
<rscale>  2 0.23632605E+02</rscale>
<asrwt>0</asrwt>
<pdfrwt beam="1">  1       21 0.59900864E-03 0.23632605E+02</pdfrwt>
<pdfrwt beam="2">  1       21 0.27914421E-01 0.23632605E+02</pdfrwt>
<totfact> 0.73755690E+07</totfact>
</mgrwt>
</event>
<event>
 4    1  0.7119201E+004  0.2140934E+02  0.7546771E-02  0.1718672E+00
         21   -1    0    0  503  502  0.00000000000E+00  0.00000000000E+00  0.23909557826E+02  0.23909557826E+02  0.00000000000E+00 0.  1.
         21   -1    0    0  501  503 -0.00000000000E+00 -0.00000000000E+00 -0.22513488730E+02  0.22513488730E+02  0.00000000000E+00 0.  1.
          2    1    1    2  501    0 -0.14482556130E+02  0.15767542320E+02 -0.82462422542E+01  0.22942544196E+02  0.00000000000E+00 0.  1.
         -2    1    1    2    0  502  0.14482556130E+02 -0.15767542320E+02  0.96423113507E+01  0.23480502360E+02  0.00000000000E+00 0. -1.
<mgrwt>
<rscale>  2 0.21409340E+02</rscale>
<asrwt>0</asrwt>
<pdfrwt beam="1">  1       21 0.36783935E-02 0.21409340E+02</pdfrwt>
<pdfrwt beam="2">  1       21 0.34636136E-02 0.21409340E+02</pdfrwt>
<totfact> 0.14554642E+08</totfact>
</mgrwt>
</event>
<event>
 4    1  0.7119201E+004  0.2143391E+02  0.7546771E-02  0.1718230E+00
         21   -1    0    0  501  502  0.00000000000E+00  0.00000000000E+00  0.86606677180E+02  0.86606677180E+02  0.00000000000E+00 0. -1.
         21   -1    0    0  502  503 -0.00000000000E+00 -0.00000000000E+00 -0.53919339937E+01  0.53919339937E+01  0.00000000000E+00 0. -1.
          2    1    1    2  501    0  0.75396631954E+01  0.20064051818E+02  0.46462032555E+02  0.51167696504E+02  0.00000000000E+00 0.  1.
         -2    1    1    2    0  503 -0.75396631954E+01 -0.20064051818E+02  0.34752710631E+02  0.40830914669E+02  0.00000000000E+00 0. -1.
<mgrwt>
<rscale>  2 0.21433915E+02</rscale>
<asrwt>0</asrwt>
<pdfrwt beam="1">  1       21 0.13324103E-01 0.21433915E+02</pdfrwt>
<pdfrwt beam="2">  1       21 0.82952837E-03 0.21433915E+02</pdfrwt>
<totfact> 0.16009856E+08</totfact>
</mgrwt>
</event>
<event>
 4    1  0.7119201E+004  0.2662401E+02  0.7546771E-02  0.1638715E+00
         21   -1    0    0  501  502  0.00000000000E+00  0.00000000000E+00  0.60912886719E+01  0.60912886719E+01  0.00000000000E+00 0.  1.
         21   -1    0    0  502  503 -0.00000000000E+00 -0.00000000000E+00 -0.11956190070E+03  0.11956190070E+03  0.00000000000E+00 0.  1.
          2    1    1    2  501    0  0.39996189346E+01  0.26321876150E+02 -0.67001968369E+02  0.72097863221E+02  0.00000000000E+00 0. -1.
         -2    1    1    2    0  503 -0.39996189346E+01 -0.26321876150E+02 -0.46468643660E+02  0.53555326153E+02  0.00000000000E+00 0.  1.
<mgrwt>
<rscale>  2 0.26624014E+02</rscale>
<asrwt>0</asrwt>
<pdfrwt beam="1">  1       21 0.93712138E-03 0.26624014E+02</pdfrwt>
<pdfrwt beam="2">  1       21 0.18394138E-01 0.26624014E+02</pdfrwt>
<totfact> 0.81538397E+07</totfact>
</mgrwt>
</event>
<event>
 4    1  0.7119201E+004  0.2276999E+02  0.7546771E-02  0.1695266E+00
         21   -1    0    0  501  502  0.00000000000E+00  0.00000000000E+00  0.14249123004E+03  0.14249123004E+03  0.00000000000E+00 0. -1.
         21   -1    0    0  502  503 -0.00000000000E+00 -0.00000000000E+00 -0.37468440116E+01  0.37468440116E+01  0.00000000000E+00 0. -1.
          3    1    1    2  501    0 -0.19919105053E+02  0.11031856010E+02  0.81798532807E+02  0.84908613006E+02  0.00000000000E+00 0. -1.
         -3    1    1    2    0  503  0.19919105053E+02 -0.11031856010E+02  0.56945853223E+02  0.61329461048E+02  0.00000000000E+00 0.  1.
<mgrwt>
<rscale>  2 0.22769993E+02</rscale>
<asrwt>0</asrwt>
<pdfrwt beam="1">  1       21 0.21921723E-01 0.22769993E+02</pdfrwt>
<pdfrwt beam="2">  1       21 0.57643765E-03 0.22769993E+02</pdfrwt>
<totfact> 0.11889619E+08</totfact>
</mgrwt>
</event>
<event>
 4    1  0.7119201E+004  0.2819938E+02  0.7546771E-02  0.1618890E+00
         21   -1    0    0  503  502  0.00000000000E+00  0.00000000000E+00  0.39458808189E+02  0.39458808189E+02  0.00000000000E+00 0.  1.
         21   -1    0    0  501  503 -0.00000000000E+00 -0.00000000000E+00 -0.21832617260E+02  0.21832617260E+02  0.00000000000E+00 0.  1.
          5    1    1    2  501    0  0.18588065457E+02  0.21205865662E+02  0.17313697003E+02  0.33090316103E+02  0.00000000000E+00 0. -1.
         -5    1    1    2    0  502 -0.18588065457E+02 -0.21205865662E+02  0.31249392622E+00  0.28201109346E+02  0.00000000000E+00 0.  1.
<mgrwt>
<rscale>  2 0.28199378E+02</rscale>
<asrwt>0</asrwt>
<pdfrwt beam="1">  1       21 0.60705859E-02 0.28199378E+02</pdfrwt>
<pdfrwt beam="2">  1       21 0.33588642E-02 0.28199378E+02</pdfrwt>
<totfact> 0.74258273E+07</totfact>
</mgrwt>
</event>
<event>
 4    1  0.7119201E+004  0.3002505E+02  0.7546771E-02  0.1597812E+00
         21   -1    0    0  503  502  0.00000000000E+00  0.00000000000E+00  0.46114929085E+02  0.46114929085E+02  0.00000000000E+00 0. -1.
         21   -1    0    0  501  503 -0.00000000000E+00 -0.00000000000E+00 -0.20264484203E+02  0.20264484203E+02  0.00000000000E+00 0. -1.
          5    1    1    2  501    0 -0.13169270359E+02  0.26982844368E+02  0.66890648714E+01  0.30761130682E+02  0.00000000000E+00 0. -1.
         -5    1    1    2    0  502  0.13169270359E+02 -0.26982844368E+02  0.19161380010E+02  0.35618282606E+02  0.00000000000E+00 0.  1.
<mgrwt>
<rscale>  2 0.30025049E+02</rscale>
<asrwt>0</asrwt>
<pdfrwt beam="1">  1       21 0.70946045E-02 0.30025049E+02</pdfrwt>
<pdfrwt beam="2">  1       21 0.31176130E-02 0.30025049E+02</pdfrwt>
<totfact> 0.65772088E+07</totfact>
</mgrwt>
</event>
<event>
 4    1  0.7119201E+004  0.2456544E+02  0.7546771E-02  0.1667323E+00
         21   -1    0    0  501  502  0.00000000000E+00  0.00000000000E+00  0.11991900897E+03  0.11991900897E+03  0.00000000000E+00 0. -1.
         21   -1    0    0  502  503 -0.00000000000E+00 -0.00000000000E+00 -0.58554847231E+01  0.58554847231E+01  0.00000000000E+00 0. -1.
          3    1    1    2  501    0  0.23736895386E+02 -0.63262007720E+01  0.33451636932E+02  0.41502687048E+02  0.00000000000E+00 0. -1.
         -3    1    1    2    0  503 -0.23736895386E+02  0.63262007720E+01  0.80611887313E+02  0.84271806643E+02  0.00000000000E+00 0.  1.
<mgrwt>
<rscale>  2 0.24565444E+02</rscale>
<asrwt>0</asrwt>
<pdfrwt beam="1">  1       21 0.18449076E-01 0.24565444E+02</pdfrwt>
<pdfrwt beam="2">  1       21 0.90084390E-03 0.24565444E+02</pdfrwt>
<totfact> 0.84366629E+07</totfact>
</mgrwt>
</event>
<event>
 4    1  0.7119201E+004  0.3367307E+02  0.7546771E-02  0.1560710E+00
         21   -1    0    0  501  502  0.00000000000E+00  0.00000000000E+00  0.61983749085E+02  0.61983749085E+02  0.00000000000E+00 0. -1.
         21   -1    0    0  502  503 -0.00000000000E+00 -0.00000000000E+00 -0.21054979944E+02  0.21054979944E+02  0.00000000000E+00 0. -1.
          3    1    1    2  501    0 -0.29581667963E+02  0.16087273338E+02  0.35501862988E+02  0.48931152843E+02  0.00000000000E+00 0. -1.
         -3    1    1    2    0  503  0.29581667963E+02 -0.16087273338E+02  0.54269061541E+01  0.34107576186E+02  0.00000000000E+00 0.  1.
<mgrwt>
<rscale>  2 0.33673067E+02</rscale>
<asrwt>0</asrwt>
<pdfrwt beam="1">  1       21 0.95359613E-02 0.33673067E+02</pdfrwt>
<pdfrwt beam="2">  1       21 0.32392277E-02 0.33673067E+02</pdfrwt>
<totfact> 0.38891993E+07</totfact>
</mgrwt>
</event>
<event>
 4    1  0.7119201E+004  0.2290377E+02  0.7546771E-02  0.1693075E+00
         21   -1    0    0  503  502  0.00000000000E+00  0.00000000000E+00  0.29042307754E+02  0.29042307754E+02  0.00000000000E+00 0.  1.
         21   -1    0    0  501  503 -0.00000000000E+00 -0.00000000000E+00 -0.18069562149E+02  0.18069562149E+02  0.00000000000E+00 0.  1.
          4    1    1    2  501    0  0.34977914861E+01 -0.22635103701E+02  0.50272947726E+01  0.23449011868E+02  0.00000000000E+00 0. -1.
         -4    1    1    2    0  502 -0.34977914861E+01  0.22635103701E+02  0.59454508320E+01  0.23662858036E+02  0.00000000000E+00 0.  1.
<mgrwt>
<rscale>  2 0.22903765E+02</rscale>
<asrwt>0</asrwt>
<pdfrwt beam="1">  1       21 0.44680473E-02 0.22903765E+02</pdfrwt>
<pdfrwt beam="2">  1       21 0.27799326E-02 0.22903765E+02</pdfrwt>
<totfact> 0.15406867E+08</totfact>
</mgrwt>
</event>
<event>
 4    1  0.7119201E+004  0.3270605E+02  0.7546771E-02  0.1569969E+00
         21   -1    0    0  503  502  0.00000000000E+00  0.00000000000E+00  0.28939004339E+01  0.28939004339E+01  0.00000000000E+00 0.  1.
         21   -1    0    0  501  503 -0.00000000000E+00 -0.00000000000E+00 -0.37023624415E+03  0.37023624415E+03  0.00000000000E+00 0.  1.
          5    1    1    2  501    0  0.16824751532E+02 -0.28046631151E+02 -0.17615054518E+03  0.17916110167E+03  0.00000000000E+00 0. -1.
         -5    1    1    2    0  502 -0.16824751532E+02  0.28046631151E+02 -0.19119179853E+03  0.19396904292E+03  0.00000000000E+00 0.  1.
<mgrwt>
<rscale>  2 0.32706051E+02</rscale>
<asrwt>0</asrwt>
<pdfrwt beam="1">  1       21 0.44521554E-03 0.32706051E+02</pdfrwt>
<pdfrwt beam="2">  1       21 0.56959411E-01 0.32706051E+02</pdfrwt>
<totfact> 0.31643401E+07</totfact>
</mgrwt>
</event>
<event>
 4    1  0.7119201E+004  0.2908197E+02  0.7546771E-02  0.1608464E+00
         21   -1    0    0  503  502  0.00000000000E+00  0.00000000000E+00  0.68250723551E+03  0.68250723551E+03  0.00000000000E+00 0.  1.
         21   -1    0    0  501  503 -0.00000000000E+00 -0.00000000000E+00 -0.13015819417E+01  0.13015819417E+01  0.00000000000E+00 0.  1.
          4    1    1    2  501    0 -0.23246458652E+02  0.17474640321E+02  0.41545578271E+03  0.41647240999E+03  0.00000000000E+00 0. -1.
         -4    1    1    2    0  502  0.23246458652E+02 -0.17474640321E+02  0.26574987085E+03  0.26733640746E+03  0.00000000000E+00 0.  1.
<mgrwt>
<rscale>  2 0.29081969E+02</rscale>
<asrwt>0</asrwt>
<pdfrwt beam="1">  1       21 0.10500083E+00 0.29081969E+02</pdfrwt>
<pdfrwt beam="2">  1       21 0.20024392E-03 0.29081969E+02</pdfrwt>
<totfact> 0.27537522E+07</totfact>
</mgrwt>
</event>
<event>
 4    1  0.7119201E+004  0.2181215E+02  0.7546771E-02  0.1711521E+00
         21   -1    0    0  503  502  0.00000000000E+00  0.00000000000E+00  0.23892554042E+01  0.23892554042E+01  0.00000000000E+00 0.  1.
         21   -1    0    0  501  503 -0.00000000000E+00 -0.00000000000E+00 -0.21479707573E+03  0.21479707573E+03  0.00000000000E+00 0.  1.
          3    1    1    2  501    0 -0.61297154645E+01  0.20933140214E+02 -0.13553294015E+03  0.13727690132E+03  0.00000000000E+00 0.  1.
         -3    1    1    2    0  502  0.61297154645E+01 -0.20933140214E+02 -0.76874880184E+02  0.79909429820E+02  0.00000000000E+00 0. -1.
<mgrwt>
<rscale>  2 0.21812147E+02</rscale>
<asrwt>0</asrwt>
<pdfrwt beam="1">  1       21 0.36757784E-03 0.21812147E+02</pdfrwt>
<pdfrwt beam="2">  1       21 0.33045697E-01 0.21812147E+02</pdfrwt>
<totfact> 0.10896189E+08</totfact>
</mgrwt>
</event>
<event>
 4    1  0.7119201E+004  0.2623555E+02  0.7546771E-02  0.1643864E+00
         21   -1    0    0  501  502  0.00000000000E+00  0.00000000000E+00  0.95382836486E+02  0.95382836486E+02  0.00000000000E+00 0.  1.
         21   -1    0    0  502  503 -0.00000000000E+00 -0.00000000000E+00 -0.78934715556E+01  0.78934715556E+01  0.00000000000E+00 0.  1.
          3    1    1    2  501    0 -0.24358638710E+02 -0.97447812383E+01  0.28619174126E+02  0.38824749437E+02  0.00000000000E+00 0.  1.
         -3    1    1    2    0  503  0.24358638710E+02  0.97447812383E+01  0.58870190804E+02  0.64451558604E+02  0.00000000000E+00 0. -1.
<mgrwt>
<rscale>  2 0.26235549E+02</rscale>
<asrwt>0</asrwt>
<pdfrwt beam="1">  1       21 0.14674282E-01 0.26235549E+02</pdfrwt>
<pdfrwt beam="2">  1       21 0.12143803E-02 0.26235549E+02</pdfrwt>
<totfact> 0.81070139E+07</totfact>
</mgrwt>
</event>
<event>
 4    1  0.7119201E+004  0.2293468E+02  0.7546771E-02  0.1692571E+00
         21   -1    0    0  503  502  0.00000000000E+00  0.00000000000E+00  0.32122084455E+02  0.32122084455E+02  0.00000000000E+00 0. -1.
         21   -1    0    0  501  503 -0.00000000000E+00 -0.00000000000E+00 -0.26477800476E+02  0.26477800476E+02  0.00000000000E+00 0. -1.
          3    1    1    2  501    0  0.17200485118E+02  0.15170466145E+02 -0.15276513053E+02  0.27556697597E+02  0.00000000000E+00 0. -1.
         -3    1    1    2    0  502 -0.17200485118E+02 -0.15170466145E+02  0.20920797032E+02  0.31043187334E+02  0.00000000000E+00 0.  1.
<mgrwt>
<rscale>  2 0.22934684E+02</rscale>
<asrwt>0</asrwt>
<pdfrwt beam="1">  1       21 0.49418592E-02 0.22934684E+02</pdfrwt>
<pdfrwt beam="2">  1       21 0.40735077E-02 0.22934684E+02</pdfrwt>
<totfact> 0.72249167E+07</totfact>
</mgrwt>
</event>
<event>
 4    1  0.7119201E+004  0.3452063E+02  0.7546771E-02  0.1552899E+00
         21   -1    0    0  503  502  0.00000000000E+00  0.00000000000E+00  0.39197409460E+01  0.39197409460E+01  0.00000000000E+00 0. -1.
         21   -1    0    0  501  503 -0.00000000000E+00 -0.00000000000E+00 -0.30402181374E+03  0.30402181374E+03  0.00000000000E+00 0. -1.
          5    1    1    2  501    0 -0.24155512192E+02  0.24661409802E+02 -0.15055662140E+03  0.15446349131E+03  0.00000000000E+00 0. -1.
         -5    1    1    2    0  502  0.24155512192E+02 -0.24661409802E+02 -0.14954545140E+03  0.15347806337E+03  0.00000000000E+00 0.  1.
<mgrwt>
<rscale>  2 0.34520630E+02</rscale>
<asrwt>0</asrwt>
<pdfrwt beam="1">  1       21 0.60303692E-03 0.34520630E+02</pdfrwt>
<pdfrwt beam="2">  1       21 0.46772599E-01 0.34520630E+02</pdfrwt>
<totfact> 0.30009384E+07</totfact>
</mgrwt>
</event>
<event>
 4    1  0.7119201E+004  0.2016321E+02  0.7546771E-02  0.1742102E+00
         21   -1    0    0  501  502  0.00000000000E+00  0.00000000000E+00  0.31746227069E+02  0.31746227069E+02  0.00000000000E+00 0.  1.
         21   -1    0    0  502  503 -0.00000000000E+00 -0.00000000000E+00 -0.13410257939E+02  0.13410257939E+02  0.00000000000E+00 0.  1.
          1    1    1    2  501    0  0.17882017890E+02  0.93160425286E+01  0.13959084407E+02  0.24523687522E+02  0.00000000000E+00 0. -1.
         -1    1    1    2    0  503 -0.17882017890E+02 -0.93160425286E+01  0.43768847234E+01  0.20632797486E+02  0.00000000000E+00 0.  1.
<mgrwt>
<rscale>  2 0.20163214E+02</rscale>
<asrwt>0</asrwt>
<pdfrwt beam="1">  1       21 0.48840349E-02 0.20163214E+02</pdfrwt>
<pdfrwt beam="2">  1       21 0.20631166E-02 0.20163214E+02</pdfrwt>
<totfact> 0.20348430E+08</totfact>
</mgrwt>
</event>
<event>
 4    1  0.7119201E+004  0.2113325E+02  0.7546771E-02  0.1723688E+00
         21   -1    0    0  501  502  0.00000000000E+00  0.00000000000E+00  0.58367298212E+02  0.58367298212E+02  0.00000000000E+00 0. -1.
         21   -1    0    0  502  503 -0.00000000000E+00 -0.00000000000E+00 -0.89660763135E+01  0.89660763135E+01  0.00000000000E+00 0. -1.
          1    1    1    2  501    0 -0.50723774218E+01  0.20515492562E+02  0.37590339409E+02  0.43123636960E+02  0.00000000000E+00 0.  1.
         -1    1    1    2    0  503  0.50723774218E+01 -0.20515492562E+02  0.11810882489E+02  0.24209737565E+02  0.00000000000E+00 0. -1.
<mgrwt>
<rscale>  2 0.21133255E+02</rscale>
<asrwt>0</asrwt>
<pdfrwt beam="1">  1       21 0.89795841E-02 0.21133255E+02</pdfrwt>
<pdfrwt beam="2">  1       21 0.13793964E-02 0.21133255E+02</pdfrwt>
<totfact> 0.14301257E+08</totfact>
</mgrwt>
</event>
<event>
 4    1  0.7119201E+004  0.3291948E+02  0.7546771E-02  0.1567892E+00
         21   -1    0    0  503  502  0.00000000000E+00  0.00000000000E+00  0.78892410814E+02  0.78892410814E+02  0.00000000000E+00 0.  1.
         21   -1    0    0  501  503 -0.00000000000E+00 -0.00000000000E+00 -0.16800981033E+02  0.16800981033E+02  0.00000000000E+00 0.  1.
          4    1    1    2  501    0  0.29863138132E+02  0.13852258144E+02  0.51480743476E+02  0.61106129182E+02  0.00000000000E+00 0. -1.
         -4    1    1    2    0  502 -0.29863138132E+02 -0.13852258144E+02  0.10610686305E+02  0.34587262665E+02  0.00000000000E+00 0.  1.
<mgrwt>
<rscale>  2 0.32919479E+02</rscale>
<asrwt>0</asrwt>
<pdfrwt beam="1">  1       21 0.12137294E-01 0.32919479E+02</pdfrwt>
<pdfrwt beam="2">  1       21 0.25847664E-02 0.32919479E+02</pdfrwt>
<totfact> 0.36785697E+07</totfact>
</mgrwt>
</event>
<event>
 4    1  0.7119201E+004  0.2066130E+02  0.7546771E-02  0.1732488E+00
         21   -1    0    0  503  502  0.00000000000E+00  0.00000000000E+00  0.33744348121E+01  0.33744348121E+01  0.00000000000E+00 0.  1.
         21   -1    0    0  501  503 -0.00000000000E+00 -0.00000000000E+00 -0.15303916235E+03  0.15303916235E+03  0.00000000000E+00 0.  1.
          4    1    1    2  501    0 -0.34410414945E+01  0.20372741777E+02 -0.42268933373E+02  0.47048401700E+02  0.00000000000E+00 0.  1.
         -4    1    1    2    0  502  0.34410414945E+01 -0.20372741777E+02 -0.10739579416E+03  0.10936519546E+03  0.00000000000E+00 0. -1.
<mgrwt>
<rscale>  2 0.20661301E+02</rscale>
<asrwt>0</asrwt>
<pdfrwt beam="1">  1       21 0.51914371E-03 0.20661301E+02</pdfrwt>
<pdfrwt beam="2">  1       21 0.23544491E-01 0.20661301E+02</pdfrwt>
<totfact> 0.11901104E+08</totfact>
</mgrwt>
</event>
<event>
 4    1  0.7119201E+004  0.2320313E+02  0.7546771E-02  0.1688238E+00
         21   -1    0    0  503  502  0.00000000000E+00  0.00000000000E+00  0.28787386440E+02  0.28787386440E+02  0.00000000000E+00 0. -1.
         21   -1    0    0  501  503 -0.00000000000E+00 -0.00000000000E+00 -0.19597667398E+02  0.19597667398E+02  0.00000000000E+00 0. -1.
          2    1    1    2  501    0 -0.16967247694E+01  0.23141012877E+02 -0.57670178003E+00  0.23210298078E+02  0.00000000000E+00 0. -1.
         -2    1    1    2    0  502  0.16967247694E+01 -0.23141012877E+02  0.97664208220E+01  0.25174755760E+02  0.00000000000E+00 0.  1.
<mgrwt>
<rscale>  2 0.23203132E+02</rscale>
<asrwt>0</asrwt>
<pdfrwt beam="1">  1       21 0.44288287E-02 0.23203132E+02</pdfrwt>
<pdfrwt beam="2">  1       21 0.30150257E-02 0.23203132E+02</pdfrwt>
<totfact> 0.13824752E+08</totfact>
</mgrwt>
</event>
<event>
 4    1  0.7119201E+004  0.3147829E+02  0.7546771E-02  0.1582300E+00
         21   -1    0    0  501  502  0.00000000000E+00  0.00000000000E+00  0.11424690251E+01  0.11424690251E+01  0.00000000000E+00 0. -1.
         21   -1    0    0  502  503 -0.00000000000E+00 -0.00000000000E+00 -0.11395969444E+04  0.11395969444E+04  0.00000000000E+00 0. -1.
          1    1    1    2  501    0 -0.31248586108E+02 -0.37958484204E+01 -0.84802468014E+03  0.84860870884E+03  0.00000000000E+00 0.  1.
         -1    1    1    2    0  503  0.31248586108E+02  0.37958484204E+01 -0.29042979525E+03  0.29213070460E+03  0.00000000000E+00 0. -1.
<mgrwt>
<rscale>  2 0.31478288E+02</rscale>
<asrwt>0</asrwt>
<pdfrwt beam="1">  1       21 0.17576378E-03 0.31478288E+02</pdfrwt>
<pdfrwt beam="2">  1       21 0.17532329E+00 0.31478288E+02</pdfrwt>
<totfact> 0.10022856E+07</totfact>
</mgrwt>
</event>
<event>
 4    1  0.7119201E+004  0.2100546E+02  0.7546771E-02  0.1726042E+00
         21   -1    0    0  501  502  0.00000000000E+00  0.00000000000E+00  0.23751820794E+02  0.23751820794E+02  0.00000000000E+00 0. -1.
         21   -1    0    0  502  503 -0.00000000000E+00 -0.00000000000E+00 -0.18581718983E+02  0.18581718983E+02  0.00000000000E+00 0. -1.
          5    1    1    2  501    0 -0.17452673124E+02 -0.11689030279E+02  0.29347003836E+01  0.21209471808E+02  0.00000000000E+00 0. -1.
         -5    1    1    2    0  503  0.17452673124E+02  0.11689030279E+02  0.22354014275E+01  0.21124067969E+02  0.00000000000E+00 0.  1.
<mgrwt>
<rscale>  2 0.21005457E+02</rscale>
<asrwt>0</asrwt>
<pdfrwt beam="1">  1       21 0.36541263E-02 0.21005457E+02</pdfrwt>
<pdfrwt beam="2">  1       21 0.28587260E-02 0.21005457E+02</pdfrwt>
<totfact> 0.19703609E+08</totfact>
</mgrwt>
</event>
<event>
 4    1  0.7119201E+004  0.2665270E+02  0.7546771E-02  0.1638339E+00
         21   -1    0    0  503  502  0.00000000000E+00  0.00000000000E+00  0.59594337800E+01  0.59594337800E+01  0.00000000000E+00 0. -1.
         21   -1    0    0  501  503 -0.00000000000E+00 -0.00000000000E+00 -0.12925535138E+03  0.12925535138E+03  0.00000000000E+00 0. -1.
          2    1    1    2  501    0  0.12312120574E+01 -0.26624245547E+02 -0.42791422404E+02  0.50413015833E+02  0.00000000000E+00 0.  1.
         -2    1    1    2    0  502 -0.12312120574E+01  0.26624245547E+02 -0.80504495194E+02  0.84801769324E+02  0.00000000000E+00 0. -1.
<mgrwt>
<rscale>  2 0.26652698E+02</rscale>
<asrwt>0</asrwt>
<pdfrwt beam="1">  1       21 0.91683605E-03 0.26652698E+02</pdfrwt>
<pdfrwt beam="2">  1       21 0.19885437E-01 0.26652698E+02</pdfrwt>
<totfact> 0.73551879E+07</totfact>
</mgrwt>
</event>
<event>
 4    1  0.7119201E+004  0.4457458E+02  0.7546771E-02  0.1477015E+00
         21   -1    0    0  501  502  0.00000000000E+00  0.00000000000E+00  0.38389807463E+02  0.38389807463E+02  0.00000000000E+00 0.  1.
         21   -1    0    0  502  503 -0.00000000000E+00 -0.00000000000E+00 -0.51851414740E+02  0.51851414740E+02  0.00000000000E+00 0.  1.
          2    1    1    2  501    0  0.42476721564E+02  0.13513731400E+02 -0.86690018630E+01  0.45409739093E+02  0.00000000000E+00 0.  1.
         -2    1    1    2    0  503 -0.42476721564E+02 -0.13513731400E+02 -0.47926054143E+01  0.44831483110E+02  0.00000000000E+00 0. -1.
<mgrwt>
<rscale>  2 0.44574576E+02</rscale>
<asrwt>0</asrwt>
<pdfrwt beam="1">  1       21 0.59061242E-02 0.44574576E+02</pdfrwt>
<pdfrwt beam="2">  1       21 0.79771408E-02 0.44574576E+02</pdfrwt>
<totfact> 0.20904727E+07</totfact>
</mgrwt>
</event>
<event>
 4    1  0.7119201E+004  0.3195083E+02  0.7546771E-02  0.1577475E+00
         21   -1    0    0  503  502  0.00000000000E+00  0.00000000000E+00  0.21324036812E+02  0.21324036812E+02  0.00000000000E+00 0.  1.
         21   -1    0    0  501  503 -0.00000000000E+00 -0.00000000000E+00 -0.60001191307E+02  0.60001191307E+02  0.00000000000E+00 0.  1.
          5    1    1    2  501    0 -0.74401386635E+01  0.31072498780E+02 -0.10573735354E+01  0.31968326239E+02  0.00000000000E+00 0. -1.
         -5    1    1    2    0  502  0.74401386635E+01 -0.31072498780E+02 -0.37619780960E+02  0.49356901880E+02  0.00000000000E+00 0.  1.
<mgrwt>
<rscale>  2 0.31950835E+02</rscale>
<asrwt>0</asrwt>
<pdfrwt beam="1">  1       21 0.32806211E-02 0.31950835E+02</pdfrwt>
<pdfrwt beam="2">  1       21 0.92309524E-02 0.31950835E+02</pdfrwt>
<totfact> 0.39816744E+07</totfact>
</mgrwt>
</event>
<event>
 4    1  0.7119201E+004  0.2394347E+02  0.7546771E-02  0.1676658E+00
         21   -1    0    0  503  502  0.00000000000E+00  0.00000000000E+00  0.13366723116E+01  0.13366723116E+01  0.00000000000E+00 0. -1.
         21   -1    0    0  501  503 -0.00000000000E+00 -0.00000000000E+00 -0.48724136703E+03  0.48724136703E+03  0.00000000000E+00 0. -1.
          5    1    1    2  501    0  0.20682892795E+02 -0.12062658662E+02 -0.32748901721E+03  0.32836313158E+03  0.00000000000E+00 0. -1.
         -5    1    1    2    0  502 -0.20682892795E+02  0.12062658662E+02 -0.15841567751E+03  0.16021490776E+03  0.00000000000E+00 0.  1.
<mgrwt>
<rscale>  2 0.23943471E+02</rscale>
<asrwt>0</asrwt>
<pdfrwt beam="1">  1       21 0.20564188E-03 0.23943471E+02</pdfrwt>
<pdfrwt beam="2">  1       21 0.74960216E-01 0.23943471E+02</pdfrwt>
<totfact> 0.52679752E+07</totfact>
</mgrwt>
</event>
<event>
 4    1  0.7119201E+004  0.3593244E+02  0.7546771E-02  0.1540473E+00
         21   -1    0    0  503  502  0.00000000000E+00  0.00000000000E+00  0.79866689973E+03  0.79866689973E+03  0.00000000000E+00 0. -1.
         21   -1    0    0  501  503 -0.00000000000E+00 -0.00000000000E+00 -0.16237310608E+01  0.16237310608E+01  0.00000000000E+00 0. -1.
          2    1    1    2  501    0  0.27118500077E+02 -0.23573863672E+02  0.42500402645E+03  0.42652029564E+03  0.00000000000E+00 0.  1.
         -2    1    1    2    0  502 -0.27118500077E+02  0.23573863672E+02  0.37203914222E+03  0.37377033516E+03  0.00000000000E+00 0. -1.
<mgrwt>
<rscale>  2 0.35932438E+02</rscale>
<asrwt>0</asrwt>
<pdfrwt beam="1">  1       21 0.12287152E+00 0.35932438E+02</pdfrwt>
<pdfrwt beam="2">  1       21 0.24980542E-03 0.35932438E+02</pdfrwt>
<totfact> 0.14367970E+07</totfact>
</mgrwt>
</event>
<event>
 4    1  0.7119201E+004  0.2051650E+02  0.7546771E-02  0.1735248E+00
         21   -1    0    0  503  502  0.00000000000E+00  0.00000000000E+00  0.29895210096E+01  0.29895210096E+01  0.00000000000E+00 0. -1.
         21   -1    0    0  501  503 -0.00000000000E+00 -0.00000000000E+00 -0.14631301923E+03  0.14631301923E+03  0.00000000000E+00 0. -1.
          3    1    1    2  501    0  0.28984940582E+01 -0.20310720275E+02 -0.57171921320E+02  0.60741709009E+02  0.00000000000E+00 0.  1.
         -3    1    1    2    0  502 -0.28984940582E+01  0.20310720275E+02 -0.86151576897E+02  0.88560831227E+02  0.00000000000E+00 0. -1.
<mgrwt>
<rscale>  2 0.20516496E+02</rscale>
<asrwt>0</asrwt>
<pdfrwt beam="1">  1       21 0.45992628E-03 0.20516496E+02</pdfrwt>
<pdfrwt beam="2">  1       21 0.22509696E-01 0.20516496E+02</pdfrwt>
<totfact> 0.15355975E+08</totfact>
</mgrwt>
</event>
<event>
 4    1  0.7119201E+004  0.2175358E+02  0.7546771E-02  0.1712549E+00
         21   -1    0    0  501  502  0.00000000000E+00  0.00000000000E+00  0.20290937045E+02  0.20290937045E+02  0.00000000000E+00 0.  1.
         21   -1    0    0  502  503 -0.00000000000E+00 -0.00000000000E+00 -0.24568160959E+02  0.24568160959E+02  0.00000000000E+00 0.  1.
          2    1    1    2  501    0 -0.21717056718E+02  0.12599571548E+01  0.29136169320E+01  0.21947829235E+02  0.00000000000E+00 0.  1.
         -2    1    1    2    0  503  0.21717056718E+02 -0.12599571548E+01 -0.71908408456E+01  0.22911268768E+02  0.00000000000E+00 0. -1.
<mgrwt>
<rscale>  2 0.21753575E+02</rscale>
<asrwt>0</asrwt>
<pdfrwt beam="1">  1       21 0.31216826E-02 0.21753575E+02</pdfrwt>
<pdfrwt beam="2">  1       21 0.37797171E-02 0.21753575E+02</pdfrwt>
<totfact> 0.16482896E+08</totfact>
</mgrwt>
</event>
<event>
 4    1  0.7119201E+004  0.2594076E+02  0.7546771E-02  0.1647846E+00
         21   -1    0    0  503  502  0.00000000000E+00  0.00000000000E+00  0.21099952168E+02  0.21099952168E+02  0.00000000000E+00 0.  1.
         21   -1    0    0  501  503 -0.00000000000E+00 -0.00000000000E+00 -0.31903829493E+02  0.31903829493E+02  0.00000000000E+00 0.  1.
          3    1    1    2  501    0  0.25533208296E+02 -0.45802147943E+01 -0.48951305017E+01  0.26398587009E+02  0.00000000000E+00 0.  1.
         -3    1    1    2    0  502 -0.25533208296E+02  0.45802147943E+01 -0.59087468235E+01  0.26605194652E+02  0.00000000000E+00 0. -1.
<mgrwt>
<rscale>  2 0.25940761E+02</rscale>
<asrwt>0</asrwt>
<pdfrwt beam="1">  1       21 0.32461465E-02 0.25940761E+02</pdfrwt>
<pdfrwt beam="2">  1       21 0.49082815E-02 0.25940761E+02</pdfrwt>
<totfact> 0.10794314E+08</totfact>
</mgrwt>
</event>
<event>
 4    1  0.7119201E+004  0.2181495E+02  0.7546771E-02  0.1711472E+00
         21   -1    0    0  501  502  0.00000000000E+00  0.00000000000E+00  0.93736856343E+01  0.93736856343E+01  0.00000000000E+00 0.  1.
         21   -1    0    0  502  503 -0.00000000000E+00 -0.00000000000E+00 -0.51063538686E+02  0.51063538686E+02  0.00000000000E+00 0.  1.
          2    1    1    2  501    0 -0.95040879022E+01  0.19635791741E+02 -0.18549619910E+02  0.28635299945E+02  0.00000000000E+00 0.  1.
         -2    1    1    2    0  503  0.95040879022E+01 -0.19635791741E+02 -0.23140233142E+02  0.31801924376E+02  0.00000000000E+00 0. -1.
<mgrwt>
<rscale>  2 0.21814949E+02</rscale>
<asrwt>0</asrwt>
<pdfrwt beam="1">  1       21 0.14421055E-02 0.21814949E+02</pdfrwt>
<pdfrwt beam="2">  1       21 0.78559289E-02 0.21814949E+02</pdfrwt>
<totfact> 0.16792365E+08</totfact>
</mgrwt>
</event>
<event>
 4    1  0.7119201E+004  0.2040362E+02  0.7546771E-02  0.1737419E+00
         21   -1    0    0  501  502  0.00000000000E+00  0.00000000000E+00  0.13173846819E+01  0.13173846819E+01  0.00000000000E+00 0. -1.
         21   -1    0    0  502  503 -0.00000000000E+00 -0.00000000000E+00 -0.31983723965E+03  0.31983723965E+03  0.00000000000E+00 0. -1.
          4    1    1    2  501    0  0.90997935212E+01  0.18262019154E+02 -0.17682402279E+03  0.17799731071E+03  0.00000000000E+00 0.  1.
         -4    1    1    2    0  503 -0.90997935212E+01 -0.18262019154E+02 -0.14169583218E+03  0.14315731362E+03  0.00000000000E+00 0. -1.
<mgrwt>
<rscale>  2 0.20403617E+02</rscale>
<asrwt>0</asrwt>
<pdfrwt beam="1">  1       21 0.20267479E-03 0.20403617E+02</pdfrwt>
<pdfrwt beam="2">  1       21 0.49205674E-01 0.20403617E+02</pdfrwt>
<totfact> 0.11995953E+08</totfact>
</mgrwt>
</event>
<event>
 4    1  0.7119201E+004  0.2242675E+02  0.7546771E-02  0.1700974E+00
         21   -1    0    0  503  502  0.00000000000E+00  0.00000000000E+00  0.12248801116E+03  0.12248801116E+03  0.00000000000E+00 0.  1.
         21   -1    0    0  501  503 -0.00000000000E+00 -0.00000000000E+00 -0.41724137318E+01  0.41724137318E+01  0.00000000000E+00 0.  1.
          5    1    1    2  501    0 -0.14087761902E+02  0.17449755778E+02  0.51179229649E+02  0.55877299143E+02  0.00000000000E+00 0.  1.
         -5    1    1    2    0  502  0.14087761902E+02 -0.17449755778E+02  0.67136367783E+02  0.70783125752E+02  0.00000000000E+00 0. -1.
<mgrwt>
<rscale>  2 0.22426748E+02</rscale>
<asrwt>0</asrwt>
<pdfrwt beam="1">  1       21 0.18844307E-01 0.22426748E+02</pdfrwt>
<pdfrwt beam="2">  1       21 0.64190990E-03 0.22426748E+02</pdfrwt>
<totfact> 0.13146298E+08</totfact>
</mgrwt>
</event>
<event>
 4    1  0.7119201E+004  0.2446651E+02  0.7546771E-02  0.1668785E+00
         21   -1    0    0  501  502  0.00000000000E+00  0.00000000000E+00  0.13272590089E+02  0.13272590089E+02  0.00000000000E+00 0. -1.
         21   -1    0    0  502  503 -0.00000000000E+00 -0.00000000000E+00 -0.46419970182E+02  0.46419970182E+02  0.00000000000E+00 0. -1.
          3    1    1    2  501    0 -0.23930889135E+02  0.50914132084E+01 -0.21604290452E+02  0.32639781084E+02  0.00000000000E+00 0. -1.
         -3    1    1    2    0  503  0.23930889135E+02 -0.50914132084E+01 -0.11543089642E+02  0.27052779187E+02  0.00000000000E+00 0.  1.
<mgrwt>
<rscale>  2 0.24466507E+02</rscale>
<asrwt>0</asrwt>
<pdfrwt beam="1">  1       21 0.20419369E-02 0.24466507E+02</pdfrwt>
<pdfrwt beam="2">  1       21 0.71415339E-02 0.24466507E+02</pdfrwt>
<totfact> 0.11932237E+08</totfact>
</mgrwt>
</event>
<event>
 4    1  0.7119201E+004  0.2300225E+02  0.7546771E-02  0.1691474E+00
         21   -1    0    0  501  502  0.00000000000E+00  0.00000000000E+00  0.40320417636E+01  0.40320417636E+01  0.00000000000E+00 0.  1.
         21   -1    0    0  502  503 -0.00000000000E+00 -0.00000000000E+00 -0.14019076692E+03  0.14019076692E+03  0.00000000000E+00 0.  1.
          2    1    1    2  501    0  0.20441718706E+02 -0.10547015634E+02 -0.86316037066E+02  0.89328392224E+02  0.00000000000E+00 0.  1.
         -2    1    1    2    0  503 -0.20441718706E+02  0.10547015634E+02 -0.49842688091E+02  0.54894416461E+02  0.00000000000E+00 0. -1.
<mgrwt>
<rscale>  2 0.23002248E+02</rscale>
<asrwt>0</asrwt>
<pdfrwt beam="1">  1       21 0.62031418E-03 0.23002248E+02</pdfrwt>
<pdfrwt beam="2">  1       21 0.21567808E-01 0.23002248E+02</pdfrwt>
<totfact> 0.11006261E+08</totfact>
</mgrwt>
</event>
<event>
 4    1  0.7119201E+004  0.2303402E+02  0.7546771E-02  0.1690959E+00
         21   -1    0    0  503  502  0.00000000000E+00  0.00000000000E+00  0.33774991509E+03  0.33774991509E+03  0.00000000000E+00 0. -1.
         21   -1    0    0  501  503 -0.00000000000E+00 -0.00000000000E+00 -0.30081094561E+01  0.30081094561E+01  0.00000000000E+00 0. -1.
          5    1    1    2  501    0  0.17546172213E+02  0.14923061756E+02  0.28514010471E+03  0.28606895191E+03  0.00000000000E+00 0.  1.
         -5    1    1    2    0  502 -0.17546172213E+02 -0.14923061756E+02  0.49601700924E+02  0.54689072638E+02  0.00000000000E+00 0. -1.
<mgrwt>
<rscale>  2 0.23034017E+02</rscale>
<asrwt>0</asrwt>
<pdfrwt beam="1">  1       21 0.51961495E-01 0.23034017E+02</pdfrwt>
<pdfrwt beam="2">  1       21 0.46278634E-03 0.23034017E+02</pdfrwt>
<totfact> 0.33456262E+07</totfact>
</mgrwt>
</event>
<event>
 4    1  0.7119201E+004  0.2515384E+02  0.7546771E-02  0.1658802E+00
         21   -1    0    0  501  502  0.00000000000E+00  0.00000000000E+00  0.44014239633E+02  0.44014239633E+02  0.00000000000E+00 0.  1.
         21   -1    0    0  502  503 -0.00000000000E+00 -0.00000000000E+00 -0.19377144953E+02  0.19377144953E+02  0.00000000000E+00 0.  1.
          4    1    1    2  501    0  0.13248445548E+02 -0.21382106050E+02  0.28422132045E+02  0.37954358887E+02  0.00000000000E+00 0. -1.
         -4    1    1    2    0  503 -0.13248445548E+02  0.21382106050E+02 -0.37850373648E+01  0.25437025699E+02  0.00000000000E+00 0.  1.
<mgrwt>
<rscale>  2 0.25153842E+02</rscale>
<asrwt>0</asrwt>
<pdfrwt beam="1">  1       21 0.67714215E-02 0.25153842E+02</pdfrwt>
<pdfrwt beam="2">  1       21 0.29810992E-02 0.25153842E+02</pdfrwt>
<totfact> 0.72887640E+07</totfact>
</mgrwt>
</event>
<event>
 4    1  0.7119201E+004  0.2601476E+02  0.7546771E-02  0.1646840E+00
         21   -1    0    0  501  502  0.00000000000E+00  0.00000000000E+00  0.25581304440E+03  0.25581304440E+03  0.00000000000E+00 0.  1.
         21   -1    0    0  502  503 -0.00000000000E+00 -0.00000000000E+00 -0.27436377704E+01  0.27436377704E+01  0.00000000000E+00 0.  1.
          4    1    1    2  501    0 -0.13030001590E+02  0.22516367621E+02  0.10209159804E+03  0.10535398494E+03  0.00000000000E+00 0.  1.
         -4    1    1    2    0  503  0.13030001590E+02 -0.22516367621E+02  0.15097780858E+03  0.15320269722E+03  0.00000000000E+00 0. -1.
<mgrwt>
<rscale>  2 0.26014760E+02</rscale>
<asrwt>0</asrwt>
<pdfrwt beam="1">  1       21 0.39355834E-01 0.26014760E+02</pdfrwt>
<pdfrwt beam="2">  1       21 0.42209832E-03 0.26014760E+02</pdfrwt>
<totfact> 0.67176956E+07</totfact>
</mgrwt>
</event>
<event>
 4    1  0.7119201E+004  0.2202795E+02  0.7546771E-02  0.1707769E+00
         21   -1    0    0  501  502  0.00000000000E+00  0.00000000000E+00  0.35886850424E+02  0.35886850424E+02  0.00000000000E+00 0. -1.
         21   -1    0    0  502  503 -0.00000000000E+00 -0.00000000000E+00 -0.13731178477E+02  0.13731178477E+02  0.00000000000E+00 0. -1.
          2    1    1    2  501    0 -0.64980974757E+01  0.21047695378E+02  0.80094082156E+01  0.23438885884E+02  0.00000000000E+00 0. -1.
         -2    1    1    2    0  503  0.64980974757E+01 -0.21047695378E+02  0.14146263731E+02  0.26179143016E+02  0.00000000000E+00 0.  1.
<mgrwt>
<rscale>  2 0.22027954E+02</rscale>
<asrwt>0</asrwt>
<pdfrwt beam="1">  1       21 0.55210539E-02 0.22027954E+02</pdfrwt>
<pdfrwt beam="2">  1       21 0.21124890E-02 0.22027954E+02</pdfrwt>
<totfact> 0.16611478E+08</totfact>
</mgrwt>
</event>
<event>
 4    1  0.7119201E+004  0.2490145E+02  0.7546771E-02  0.1662421E+00
         21   -1    0    0  501  502  0.00000000000E+00  0.00000000000E+00  0.34983590965E+02  0.34983590965E+02  0.00000000000E+00 0.  1.
         21   -1    0    0  502  503 -0.00000000000E+00 -0.00000000000E+00 -0.17883985457E+02  0.17883985457E+02  0.00000000000E+00 0.  1.
          2    1    1    2  501    0 -0.22938948747E+02  0.96895198920E+01  0.60570258193E+01  0.25627518942E+02  0.00000000000E+00 0.  1.
         -2    1    1    2    0  503  0.22938948747E+02 -0.96895198920E+01  0.11042579689E+02  0.27240057480E+02  0.00000000000E+00 0. -1.
<mgrwt>
<rscale>  2 0.24901449E+02</rscale>
<asrwt>0</asrwt>
<pdfrwt beam="1">  1       21 0.53820909E-02 0.24901449E+02</pdfrwt>
<pdfrwt beam="2">  1       21 0.27513824E-02 0.24901449E+02</pdfrwt>
<totfact> 0.11928930E+08</totfact>
</mgrwt>
</event>
<event>
 4    1  0.7119201E+004  0.2136822E+02  0.7546771E-02  0.1719413E+00
         21   -1    0    0  501  502  0.00000000000E+00  0.00000000000E+00  0.11745223142E+02  0.11745223142E+02  0.00000000000E+00 0. -1.
         21   -1    0    0  502  503 -0.00000000000E+00 -0.00000000000E+00 -0.39367996797E+02  0.39367996797E+02  0.00000000000E+00 0. -1.
          2    1    1    2  501    0 -0.74620351505E+01  0.20022957196E+02 -0.16670012380E+02  0.27101477749E+02  0.00000000000E+00 0. -1.
         -2    1    1    2    0  503  0.74620351505E+01 -0.20022957196E+02 -0.10952761275E+02  0.24011742190E+02  0.00000000000E+00 0.  1.
<mgrwt>
<rscale>  2 0.21368219E+02</rscale>
<asrwt>0</asrwt>
<pdfrwt beam="1">  1       21 0.18069574E-02 0.21368219E+02</pdfrwt>
<pdfrwt beam="2">  1       21 0.60566149E-02 0.21368219E+02</pdfrwt>
<totfact> 0.18020301E+08</totfact>
</mgrwt>
</event>
<event>
 4    1  0.7119201E+004  0.2296067E+02  0.7546771E-02  0.1692148E+00
         21   -1    0    0  501  502  0.00000000000E+00  0.00000000000E+00  0.58586171419E+00  0.58586171419E+00  0.00000000000E+00 0. -1.
         21   -1    0    0  502  503 -0.00000000000E+00 -0.00000000000E+00 -0.97377894368E+03  0.97377894368E+03  0.00000000000E+00 0. -1.
          3    1    1    2  501    0 -0.17394807649E+02 -0.14987091516E+02 -0.35236774898E+03  0.35311502767E+03  0.00000000000E+00 0. -1.
         -3    1    1    2    0  503  0.17394807649E+02  0.14987091516E+02 -0.62082533299E+03  0.62124977773E+03  0.00000000000E+00 0.  1.
<mgrwt>
<rscale>  2 0.22960667E+02</rscale>
<asrwt>0</asrwt>
<pdfrwt beam="1">  1       21 0.90132158E-04 0.22960667E+02</pdfrwt>
<pdfrwt beam="2">  1       21 0.14981283E+00 0.22960667E+02</pdfrwt>
<totfact> 0.36719568E+07</totfact>
</mgrwt>
</event>
<event>
 4    1  0.7119201E+004  0.2104987E+02  0.7546771E-02  0.1725222E+00
         21   -1    0    0  503  502  0.00000000000E+00  0.00000000000E+00  0.90114261794E+00  0.90114261794E+00  0.00000000000E+00 0. -1.
         21   -1    0    0  501  503 -0.00000000000E+00 -0.00000000000E+00 -0.49883020187E+03  0.49883020187E+03  0.00000000000E+00 0. -1.
          1    1    1    2  501    0 -0.14197977158E+02 -0.15540742212E+02 -0.21910392398E+03  0.22011275912E+03  0.00000000000E+00 0.  1.
         -1    1    1    2    0  502  0.14197977158E+02  0.15540742212E+02 -0.27882513527E+03  0.27961858537E+03  0.00000000000E+00 0. -1.
<mgrwt>
<rscale>  2 0.21049875E+02</rscale>
<asrwt>0</asrwt>
<pdfrwt beam="1">  1       21 0.13863691E-03 0.21049875E+02</pdfrwt>
<pdfrwt beam="2">  1       21 0.76743340E-01 0.21049875E+02</pdfrwt>
<totfact> 0.85747155E+07</totfact>
</mgrwt>
</event>
<event>
 4    1  0.7119201E+004  0.2048702E+02  0.7546771E-02  0.1735813E+00
         21   -1    0    0  503  502  0.00000000000E+00  0.00000000000E+00  0.95074389820E+03  0.95074389820E+03  0.00000000000E+00 0. -1.
         21   -1    0    0  501  503 -0.00000000000E+00 -0.00000000000E+00 -0.49674771224E+00  0.49674771224E+00  0.00000000000E+00 0. -1.
          3    1    1    2  501    0 -0.20400447955E+02  0.18814289811E+01  0.63379394210E+03  0.63412497120E+03  0.00000000000E+00 0. -1.
         -3    1    1    2    0  502  0.20400447955E+02 -0.18814289811E+01  0.31645320839E+03  0.31711567471E+03  0.00000000000E+00 0.  1.
<mgrwt>
<rscale>  2 0.20487022E+02</rscale>
<asrwt>0</asrwt>
<pdfrwt beam="1">  1       21 0.14626684E+00 0.20487022E+02</pdfrwt>
<pdfrwt beam="2">  1       21 0.76423486E-04 0.20487022E+02</pdfrwt>
<totfact> 0.47957865E+07</totfact>
</mgrwt>
</event>
<event>
 4    1  0.7119201E+004  0.2246173E+02  0.7546771E-02  0.1700387E+00
         21   -1    0    0  503  502  0.00000000000E+00  0.00000000000E+00  0.39582466511E+02  0.39582466511E+02  0.00000000000E+00 0. -1.
         21   -1    0    0  501  503 -0.00000000000E+00 -0.00000000000E+00 -0.13011183841E+02  0.13011183841E+02  0.00000000000E+00 0. -1.
          1    1    1    2  501    0  0.22395902285E+02  0.17184496730E+01  0.95334698517E+01  0.24401158904E+02  0.00000000000E+00 0.  1.
         -1    1    1    2    0  502 -0.22395902285E+02 -0.17184496730E+01  0.17037812818E+02  0.28192491448E+02  0.00000000000E+00 0. -1.
<mgrwt>
<rscale>  2 0.22461734E+02</rscale>
<asrwt>0</asrwt>
<pdfrwt beam="1">  1       21 0.60896101E-02 0.22461734E+02</pdfrwt>
<pdfrwt beam="2">  1       21 0.20017206E-02 0.22461734E+02</pdfrwt>
<totfact> 0.15514562E+08</totfact>
</mgrwt>
</event>
<event>
 4    1  0.7119201E+004  0.2931907E+02  0.7546771E-02  0.1605740E+00
         21   -1    0    0  501  502  0.00000000000E+00  0.00000000000E+00  0.40660573399E+03  0.40660573399E+03  0.00000000000E+00 0.  1.
         21   -1    0    0  502  503 -0.00000000000E+00 -0.00000000000E+00 -0.23585693180E+01  0.23585693180E+01  0.00000000000E+00 0.  1.
          1    1    1    2  501    0 -0.29257505489E+02 -0.18990233598E+01  0.26795561880E+03  0.26955485817E+03  0.00000000000E+00 0.  1.
         -1    1    1    2    0  503  0.29257505489E+02  0.18990233598E+01  0.13629154587E+03  0.13940944514E+03  0.00000000000E+00 0. -1.
<mgrwt>
<rscale>  2 0.29319071E+02</rscale>
<asrwt>0</asrwt>
<pdfrwt beam="1">  1       21 0.62554673E-01 0.29319071E+02</pdfrwt>
<pdfrwt beam="2">  1       21 0.36285714E-03 0.29319071E+02</pdfrwt>
<totfact> 0.34750015E+07</totfact>
</mgrwt>
</event>
<event>
 4    1  0.7119201E+004  0.2212747E+02  0.7546771E-02  0.1706057E+00
         21   -1    0    0  501  502  0.00000000000E+00  0.00000000000E+00  0.15955440162E+03  0.15955440162E+03  0.00000000000E+00 0. -1.
         21   -1    0    0  502  503 -0.00000000000E+00 -0.00000000000E+00 -0.31168320662E+01  0.31168320662E+01  0.00000000000E+00 0. -1.
          5    1    1    2  501    0  0.20333213895E+02  0.87284280026E+01  0.88325931693E+02  0.91055451524E+02  0.00000000000E+00 0. -1.
         -5    1    1    2    0  503 -0.20333213895E+02 -0.87284280026E+01  0.68111637859E+02  0.71615782161E+02  0.00000000000E+00 0.  1.
<mgrwt>
<rscale>  2 0.22127473E+02</rscale>
<asrwt>0</asrwt>
<pdfrwt beam="1">  1       21 0.24546825E-01 0.22127473E+02</pdfrwt>
<pdfrwt beam="2">  1       21 0.47951275E-03 0.22127473E+02</pdfrwt>
<totfact> 0.12670419E+08</totfact>
</mgrwt>
</event>
<event>
 4    1  0.7119201E+004  0.2293815E+02  0.7546771E-02  0.1692515E+00
         21   -1    0    0  503  502  0.00000000000E+00  0.00000000000E+00  0.26480049818E+02  0.26480049818E+02  0.00000000000E+00 0. -1.
         21   -1    0    0  501  503 -0.00000000000E+00 -0.00000000000E+00 -0.40766858127E+02  0.40766858127E+02  0.00000000000E+00 0. -1.
          1    1    1    2  501    0  0.20851254629E+02  0.95594899865E+01 -0.31216346164E+02  0.38737823070E+02  0.00000000000E+00 0.  1.
         -1    1    1    2    0  502 -0.20851254629E+02 -0.95594899865E+01  0.16929537855E+02  0.28509084875E+02  0.00000000000E+00 0. -1.
<mgrwt>
<rscale>  2 0.22938149E+02</rscale>
<asrwt>0</asrwt>
<pdfrwt beam="1">  1       21 0.40738538E-02 0.22938149E+02</pdfrwt>
<pdfrwt beam="2">  1       21 0.62718243E-02 0.22938149E+02</pdfrwt>
<totfact> 0.49337240E+07</totfact>
</mgrwt>
</event>
<event>
 4    1  0.7119201E+004  0.2484003E+02  0.7546771E-02  0.1663310E+00
         21   -1    0    0  501  502  0.00000000000E+00  0.00000000000E+00  0.23905239032E+03  0.23905239032E+03  0.00000000000E+00 0. -1.
         21   -1    0    0  502  503 -0.00000000000E+00 -0.00000000000E+00 -0.27106982621E+01  0.27106982621E+01  0.00000000000E+00 0. -1.
          1    1    1    2  501    0  0.23598259857E+02  0.77555992026E+01  0.91743383251E+02  0.95046701981E+02  0.00000000000E+00 0. -1.
         -1    1    1    2    0  503 -0.23598259857E+02 -0.77555992026E+01  0.14459830880E+03  0.14671638660E+03  0.00000000000E+00 0.  1.
<mgrwt>
<rscale>  2 0.24840032E+02</rscale>
<asrwt>0</asrwt>
<pdfrwt beam="1">  1       21 0.36777274E-01 0.24840032E+02</pdfrwt>
<pdfrwt beam="2">  1       21 0.41703069E-03 0.24840032E+02</pdfrwt>
<totfact> 0.76832921E+07</totfact>
</mgrwt>
</event>
<event>
 4    1  0.7119201E+004  0.2399409E+02  0.7546771E-02  0.1675885E+00
         21   -1    0    0  503  502  0.00000000000E+00  0.00000000000E+00  0.44139603206E+01  0.44139603206E+01  0.00000000000E+00 0. -1.
         21   -1    0    0  501  503 -0.00000000000E+00 -0.00000000000E+00 -0.13137163193E+03  0.13137163193E+03  0.00000000000E+00 0. -1.
          1    1    1    2  501    0  0.35448652670E+00 -0.23991467476E+02 -0.69224490990E+02  0.73264905140E+02  0.00000000000E+00 0. -1.
         -1    1    1    2    0  502 -0.35448652670E+00  0.23991467476E+02 -0.57733180617E+02  0.62520687109E+02  0.00000000000E+00 0.  1.
<mgrwt>
<rscale>  2 0.23994086E+02</rscale>
<asrwt>0</asrwt>
<pdfrwt beam="1">  1       21 0.67907088E-03 0.23994086E+02</pdfrwt>
<pdfrwt beam="2">  1       21 0.20211018E-01 0.23994086E+02</pdfrwt>
<totfact> 0.10909716E+08</totfact>
</mgrwt>
</event>
<event>
 4    1  0.7119201E+004  0.2689070E+02  0.7546771E-02  0.1635242E+00
         21   -1    0    0  503  502  0.00000000000E+00  0.00000000000E+00  0.26417705576E+02  0.26417705576E+02  0.00000000000E+00 0.  1.
         21   -1    0    0  501  503 -0.00000000000E+00 -0.00000000000E+00 -0.32995790368E+02  0.32995790368E+02  0.00000000000E+00 0.  1.
          2    1    1    2  501    0 -0.21563009510E+02 -0.16066932317E+02  0.89750152920E+01  0.28348908140E+02  0.00000000000E+00 0. -1.
         -2    1    1    2    0  502  0.21563009510E+02  0.16066932317E+02 -0.15553100085E+02  0.31064587805E+02  0.00000000000E+00 0.  1.
<mgrwt>
<rscale>  2 0.26890699E+02</rscale>
<asrwt>0</asrwt>
<pdfrwt beam="1">  1       21 0.40642624E-02 0.26890699E+02</pdfrwt>
<pdfrwt beam="2">  1       21 0.50762754E-02 0.26890699E+02</pdfrwt>
<totfact> 0.72417970E+07</totfact>
</mgrwt>
</event>
<event>
 4    1  0.7119201E+004  0.3045101E+02  0.7546771E-02  0.1593156E+00
         21   -1    0    0  503  502  0.00000000000E+00  0.00000000000E+00  0.95841813844E+01  0.95841813844E+01  0.00000000000E+00 0.  1.
         21   -1    0    0  501  503 -0.00000000000E+00 -0.00000000000E+00 -0.96934269264E+02  0.96934269264E+02  0.00000000000E+00 0.  1.
          4    1    1    2  501    0  0.30380640566E+02  0.20690210020E+01 -0.46000687191E+02  0.55166361047E+02  0.00000000000E+00 0.  1.
         -4    1    1    2    0  502 -0.30380640566E+02 -0.20690210020E+01 -0.41349400689E+02  0.51352089602E+02  0.00000000000E+00 0. -1.
<mgrwt>
<rscale>  2 0.30451013E+02</rscale>
<asrwt>0</asrwt>
<pdfrwt beam="1">  1       21 0.14744894E-02 0.30451013E+02</pdfrwt>
<pdfrwt beam="2">  1       21 0.14912965E-01 0.30451013E+02</pdfrwt>
<totfact> 0.60765590E+07</totfact>
</mgrwt>
</event>
<event>
 4    1  0.7119201E+004  0.2112443E+02  0.7546771E-02  0.1723850E+00
         21   -1    0    0  501  502  0.00000000000E+00  0.00000000000E+00  0.74131311366E+02  0.74131311366E+02  0.00000000000E+00 0. -1.
         21   -1    0    0  502  503 -0.00000000000E+00 -0.00000000000E+00 -0.60302897146E+01  0.60302897146E+01  0.00000000000E+00 0. -1.
          3    1    1    2  501    0 -0.19861439980E+02 -0.71947867044E+01  0.32363956542E+02  0.38647993956E+02  0.00000000000E+00 0.  1.
         -3    1    1    2    0  503  0.19861439980E+02  0.71947867044E+01  0.35737065110E+02  0.41513607124E+02  0.00000000000E+00 0. -1.
<mgrwt>
<rscale>  2 0.21124435E+02</rscale>
<asrwt>0</asrwt>
<pdfrwt beam="1">  1       21 0.11404816E-01 0.21124435E+02</pdfrwt>
<pdfrwt beam="2">  1       21 0.92773693E-03 0.21124435E+02</pdfrwt>
<totfact> 0.17493845E+08</totfact>
</mgrwt>
</event>
<event>
 4    1  0.7119201E+004  0.2430425E+02  0.7546771E-02  0.1671201E+00
         21   -1    0    0  503  502  0.00000000000E+00  0.00000000000E+00  0.65010129753E+02  0.65010129753E+02  0.00000000000E+00 0.  1.
         21   -1    0    0  501  503 -0.00000000000E+00 -0.00000000000E+00 -0.10210357314E+02  0.10210357314E+02  0.00000000000E+00 0.  1.
          1    1    1    2  501    0  0.21092933674E+02  0.12074127785E+02  0.14920444866E+02  0.28518697161E+02  0.00000000000E+00 0. -1.
         -1    1    1    2    0  502 -0.21092933674E+02 -0.12074127785E+02  0.39879327573E+02  0.46701789906E+02  0.00000000000E+00 0.  1.
<mgrwt>
<rscale>  2 0.24304247E+02</rscale>
<asrwt>0</asrwt>
<pdfrwt beam="1">  1       21 0.10001558E-01 0.24304247E+02</pdfrwt>
<pdfrwt beam="2">  1       21 0.15708242E-02 0.24304247E+02</pdfrwt>
<totfact> 0.10241458E+08</totfact>
</mgrwt>
</event>
<event>
 4    1  0.7119201E+004  0.2098709E+02  0.7546771E-02  0.1726382E+00
         21   -1    0    0  503  502  0.00000000000E+00  0.00000000000E+00  0.25658686459E+02  0.25658686459E+02  0.00000000000E+00 0. -1.
         21   -1    0    0  501  503 -0.00000000000E+00 -0.00000000000E+00 -0.19768223662E+02  0.19768223662E+02  0.00000000000E+00 0. -1.
          2    1    1    2  501    0  0.15512942393E+02 -0.14135293100E+02  0.11186020971E+02  0.23782030146E+02  0.00000000000E+00 0.  1.
         -2    1    1    2    0  502 -0.15512942393E+02  0.14135293100E+02 -0.52955581746E+01  0.21644879974E+02  0.00000000000E+00 0. -1.
<mgrwt>
<rscale>  2 0.20987089E+02</rscale>
<asrwt>0</asrwt>
<pdfrwt beam="1">  1       21 0.39474902E-02 0.20987089E+02</pdfrwt>
<pdfrwt beam="2">  1       21 0.30412652E-02 0.20987089E+02</pdfrwt>
<totfact> 0.15856272E+08</totfact>
</mgrwt>
</event>
<event>
 4    1  0.7119201E+004  0.2248014E+02  0.7546771E-02  0.1700078E+00
         21   -1    0    0  503  502  0.00000000000E+00  0.00000000000E+00  0.15422766312E+02  0.15422766312E+02  0.00000000000E+00 0.  1.
         21   -1    0    0  501  503 -0.00000000000E+00 -0.00000000000E+00 -0.32811568241E+02  0.32811568241E+02  0.00000000000E+00 0.  1.
          3    1    1    2  501    0  0.22255415971E+02 -0.31706420458E+01 -0.95840674934E+01  0.24437898042E+02  0.00000000000E+00 0. -1.
         -3    1    1    2    0  502 -0.22255415971E+02  0.31706420458E+01 -0.78047344348E+01  0.23796436511E+02  0.00000000000E+00 0.  1.
<mgrwt>
<rscale>  2 0.22480136E+02</rscale>
<asrwt>0</asrwt>
<pdfrwt beam="1">  1       21 0.23727333E-02 0.22480136E+02</pdfrwt>
<pdfrwt beam="2">  1       21 0.50479336E-02 0.22480136E+02</pdfrwt>
<totfact> 0.16126130E+08</totfact>
</mgrwt>
</event>
<event>
 4    1  0.7119201E+004  0.2441220E+02  0.7546771E-02  0.1669591E+00
         21   -1    0    0  503  502  0.00000000000E+00  0.00000000000E+00  0.43013535027E+02  0.43013535027E+02  0.00000000000E+00 0.  1.
         21   -1    0    0  501  503 -0.00000000000E+00 -0.00000000000E+00 -0.14229343034E+02  0.14229343034E+02  0.00000000000E+00 0.  1.
          5    1    1    2  501    0 -0.20918368954E+02 -0.12584804640E+02  0.97502121311E+01  0.26287299293E+02  0.00000000000E+00 0.  1.
         -5    1    1    2    0  502  0.20918368954E+02  0.12584804640E+02  0.19033979862E+02  0.30955578768E+02  0.00000000000E+00 0. -1.
<mgrwt>
<rscale>  2 0.24412199E+02</rscale>
<asrwt>0</asrwt>
<pdfrwt beam="1">  1       21 0.66174669E-02 0.24412199E+02</pdfrwt>
<pdfrwt beam="2">  1       21 0.21891297E-02 0.24412199E+02</pdfrwt>
<totfact> 0.12121708E+08</totfact>
</mgrwt>
</event>
<event>
 4    1  0.7119201E+004  0.2361793E+02  0.7546771E-02  0.1681685E+00
         21   -1    0    0  503  502  0.00000000000E+00  0.00000000000E+00  0.47026297761E+02  0.47026297761E+02  0.00000000000E+00 0.  1.
         21   -1    0    0  501  503 -0.00000000000E+00 -0.00000000000E+00 -0.15103193075E+02  0.15103193075E+02  0.00000000000E+00 0.  1.
          3    1    1    2  501    0 -0.22834807875E+02  0.60314180948E+01  0.15698016804E+01  0.23670038704E+02  0.00000000000E+00 0.  1.
         -3    1    1    2    0  502  0.22834807875E+02 -0.60314180948E+01  0.30353303006E+02  0.38459452132E+02  0.00000000000E+00 0. -1.
<mgrwt>
<rscale>  2 0.23617927E+02</rscale>
<asrwt>0</asrwt>
<pdfrwt beam="1">  1       21 0.72348150E-02 0.23617927E+02</pdfrwt>
<pdfrwt beam="2">  1       21 0.23235682E-02 0.23617927E+02</pdfrwt>
<totfact> 0.94771465E+07</totfact>
</mgrwt>
</event>
<event>
 4    1  0.7119201E+004  0.2195090E+02  0.7546771E-02  0.1709103E+00
         21   -1    0    0  503  502  0.00000000000E+00  0.00000000000E+00  0.28569305625E+01  0.28569305625E+01  0.00000000000E+00 0. -1.
         21   -1    0    0  501  503 -0.00000000000E+00 -0.00000000000E+00 -0.17630258431E+03  0.17630258431E+03  0.00000000000E+00 0. -1.
          4    1    1    2  501    0 -0.19920590748E+02  0.92201895584E+01 -0.10537721375E+03  0.10763920758E+03  0.00000000000E+00 0. -1.
         -4    1    1    2    0  502  0.19920590748E+02 -0.92201895584E+01 -0.68068440004E+02  0.71520307297E+02  0.00000000000E+00 0.  1.
<mgrwt>
<rscale>  2 0.21950896E+02</rscale>
<asrwt>0</asrwt>
<pdfrwt beam="1">  1       21 0.43952766E-03 0.21950896E+02</pdfrwt>
<pdfrwt beam="2">  1       21 0.27123482E-01 0.21950896E+02</pdfrwt>
<totfact> 0.12022254E+08</totfact>
</mgrwt>
</event>
<event>
 4    1  0.7119201E+004  0.2353322E+02  0.7546771E-02  0.1683010E+00
         21   -1    0    0  503  502  0.00000000000E+00  0.00000000000E+00  0.26874806346E+03  0.26874806346E+03  0.00000000000E+00 0.  1.
         21   -1    0    0  501  503 -0.00000000000E+00 -0.00000000000E+00 -0.20607207012E+01  0.20607207012E+01  0.00000000000E+00 0.  1.
          4    1    1    2  501    0 -0.14765885063E+02 -0.18324335170E+02  0.13360587136E+03  0.13566260164E+03  0.00000000000E+00 0. -1.
         -4    1    1    2    0  502  0.14765885063E+02  0.18324335170E+02  0.13308147140E+03  0.13514618252E+03  0.00000000000E+00 0.  1.
<mgrwt>
<rscale>  2 0.23533224E+02</rscale>
<asrwt>0</asrwt>
<pdfrwt beam="1">  1       21 0.41345828E-01 0.23533224E+02</pdfrwt>
<pdfrwt beam="2">  1       21 0.31703417E-03 0.23533224E+02</pdfrwt>
<totfact> 0.90888546E+07</totfact>
</mgrwt>
</event>
<event>
 4    1  0.7119201E+004  0.3102845E+02  0.7546771E-02  0.1586991E+00
         21   -1    0    0  501  502  0.00000000000E+00  0.00000000000E+00  0.39248911819E+02  0.39248911819E+02  0.00000000000E+00 0.  1.
         21   -1    0    0  502  503 -0.00000000000E+00 -0.00000000000E+00 -0.27273666024E+02  0.27273666024E+02  0.00000000000E+00 0.  1.
          2    1    1    2  501    0  0.23697404054E+02  0.20029924687E+02  0.16537685776E+02  0.35160487663E+02  0.00000000000E+00 0. -1.
         -2    1    1    2    0  503 -0.23697404054E+02 -0.20029924687E+02 -0.45624399803E+01  0.31362090180E+02  0.00000000000E+00 0.  1.
<mgrwt>
<rscale>  2 0.31028452E+02</rscale>
<asrwt>0</asrwt>
<pdfrwt beam="1">  1       21 0.60382941E-02 0.31028452E+02</pdfrwt>
<pdfrwt beam="2">  1       21 0.41959486E-02 0.31028452E+02</pdfrwt>
<totfact> 0.53810342E+07</totfact>
</mgrwt>
</event>
<event>
 4    1  0.7119201E+004  0.3245352E+02  0.7546771E-02  0.1572451E+00
         21   -1    0    0  503  502  0.00000000000E+00  0.00000000000E+00  0.25097389218E+03  0.25097389218E+03  0.00000000000E+00 0. -1.
         21   -1    0    0  501  503 -0.00000000000E+00 -0.00000000000E+00 -0.43023916697E+01  0.43023916697E+01  0.00000000000E+00 0. -1.
          5    1    1    2  501    0  0.21549698249E+02 -0.24266051399E+02  0.10331858013E+03  0.10829570511E+03  0.00000000000E+00 0.  1.
         -5    1    1    2    0  502 -0.21549698249E+02  0.24266051399E+02  0.14335292038E+03  0.14698057873E+03  0.00000000000E+00 0. -1.
<mgrwt>
<rscale>  2 0.32453517E+02</rscale>
<asrwt>0</asrwt>
<pdfrwt beam="1">  1       21 0.38611357E-01 0.32453517E+02</pdfrwt>
<pdfrwt beam="2">  1       21 0.66190661E-03 0.32453517E+02</pdfrwt>
<totfact> 0.37351468E+07</totfact>
</mgrwt>
</event>
<event>
 4    1  0.7119201E+004  0.3038453E+02  0.7546771E-02  0.1593877E+00
         21   -1    0    0  503  502  0.00000000000E+00  0.00000000000E+00  0.17392183680E+02  0.17392183680E+02  0.00000000000E+00 0.  1.
         21   -1    0    0  501  503 -0.00000000000E+00 -0.00000000000E+00 -0.53429043998E+02  0.53429043998E+02  0.00000000000E+00 0.  1.
          1    1    1    2  501    0  0.30184034038E+02  0.34847966026E+01 -0.20870468498E+02  0.36861852551E+02  0.00000000000E+00 0. -1.
         -1    1    1    2    0  502 -0.30184034038E+02 -0.34847966026E+01 -0.15166391820E+02  0.33959375127E+02  0.00000000000E+00 0.  1.
<mgrwt>
<rscale>  2 0.30384531E+02</rscale>
<asrwt>0</asrwt>
<pdfrwt beam="1">  1       21 0.26757206E-02 0.30384531E+02</pdfrwt>
<pdfrwt beam="2">  1       21 0.82198528E-02 0.30384531E+02</pdfrwt>
<totfact> 0.65810920E+07</totfact>
</mgrwt>
</event>
<event>
 4    1  0.7119201E+004  0.2603009E+02  0.7546771E-02  0.1646632E+00
         21   -1    0    0  503  502  0.00000000000E+00  0.00000000000E+00  0.14675973509E+01  0.14675973509E+01  0.00000000000E+00 0.  1.
         21   -1    0    0  501  503 -0.00000000000E+00 -0.00000000000E+00 -0.51100900465E+03  0.51100900465E+03  0.00000000000E+00 0.  1.
          2    1    1    2  501    0 -0.24858169676E+02  0.77224845408E+01 -0.17516102305E+03  0.17708458251E+03  0.00000000000E+00 0. -1.
         -2    1    1    2    0  502  0.24858169676E+02 -0.77224845408E+01 -0.33438038425E+03  0.33539201949E+03  0.00000000000E+00 0.  1.
<mgrwt>
<rscale>  2 0.26030086E+02</rscale>
<asrwt>0</asrwt>
<pdfrwt beam="1">  1       21 0.22578413E-03 0.26030086E+02</pdfrwt>
<pdfrwt beam="2">  1       21 0.78616798E-01 0.26030086E+02</pdfrwt>
<totfact> 0.42389001E+07</totfact>
</mgrwt>
</event>
<event>
 4    1  0.7119201E+004  0.2485687E+02  0.7546771E-02  0.1663066E+00
         21   -1    0    0  501  502  0.00000000000E+00  0.00000000000E+00  0.41730227725E+02  0.41730227725E+02  0.00000000000E+00 0. -1.
         21   -1    0    0  502  503 -0.00000000000E+00 -0.00000000000E+00 -0.14864131039E+02  0.14864131039E+02  0.00000000000E+00 0. -1.
          5    1    1    2  501    0 -0.24780815742E+02 -0.19429558325E+01  0.11665685147E+02  0.27458188508E+02  0.00000000000E+00 0.  1.
         -5    1    1    2    0  503  0.24780815742E+02  0.19429558325E+01  0.15200411539E+02  0.29136170256E+02  0.00000000000E+00 0. -1.
<mgrwt>
<rscale>  2 0.24856868E+02</rscale>
<asrwt>0</asrwt>
<pdfrwt beam="1">  1       21 0.64200350E-02 0.24856868E+02</pdfrwt>
<pdfrwt beam="2">  1       21 0.22867894E-02 0.24856868E+02</pdfrwt>
<totfact> 0.11959565E+08</totfact>
</mgrwt>
</event>
<event>
 4    1  0.7119201E+004  0.2065258E+02  0.7546771E-02  0.1732654E+00
         21   -1    0    0  501  502  0.00000000000E+00  0.00000000000E+00  0.26492766642E+01  0.26492766642E+01  0.00000000000E+00 0.  1.
         21   -1    0    0  502  503 -0.00000000000E+00 -0.00000000000E+00 -0.16160742404E+03  0.16160742404E+03  0.00000000000E+00 0.  1.
          3    1    1    2  501    0 -0.13339523376E+02  0.15766618546E+02 -0.74437093074E+02  0.77249012742E+02  0.00000000000E+00 0.  1.
         -3    1    1    2    0  503  0.13339523376E+02 -0.15766618546E+02 -0.84521054302E+02  0.87007687963E+02  0.00000000000E+00 0. -1.
<mgrwt>
<rscale>  2 0.20652582E+02</rscale>
<asrwt>0</asrwt>
<pdfrwt beam="1">  1       21 0.40758102E-03 0.20652582E+02</pdfrwt>
<pdfrwt beam="2">  1       21 0.24862681E-01 0.20652582E+02</pdfrwt>
<totfact> 0.15408939E+08</totfact>
</mgrwt>
</event>
<event>
 4    1  0.7119201E+004  0.2135541E+02  0.7546771E-02  0.1719644E+00
         21   -1    0    0  501  502  0.00000000000E+00  0.00000000000E+00  0.59650540658E+02  0.59650540658E+02  0.00000000000E+00 0.  1.
         21   -1    0    0  502  503 -0.00000000000E+00 -0.00000000000E+00 -0.77115173346E+01  0.77115173346E+01  0.00000000000E+00 0.  1.
          2    1    1    2  501    0 -0.14996485809E+02  0.15203917279E+02  0.22851386114E+02  0.31276821043E+02  0.00000000000E+00 0. -1.
         -2    1    1    2    0  503  0.14996485809E+02 -0.15203917279E+02  0.29087637210E+02  0.36085236950E+02  0.00000000000E+00 0.  1.
<mgrwt>
<rscale>  2 0.21355414E+02</rscale>
<asrwt>0</asrwt>
<pdfrwt beam="1">  1       21 0.91770060E-02 0.21355414E+02</pdfrwt>
<pdfrwt beam="2">  1       21 0.11863873E-02 0.21355414E+02</pdfrwt>
<totfact> 0.17379072E+08</totfact>
</mgrwt>
</event>
<event>
 4    1  0.7119201E+004  0.2031796E+02  0.7546771E-02  0.1739078E+00
         21   -1    0    0  503  502  0.00000000000E+00  0.00000000000E+00  0.25991588369E+01  0.25991588369E+01  0.00000000000E+00 0. -1.
         21   -1    0    0  501  503 -0.00000000000E+00 -0.00000000000E+00 -0.15935708308E+03  0.15935708308E+03  0.00000000000E+00 0. -1.
          4    1    1    2  501    0 -0.20270431391E+02  0.13889873781E+01 -0.73713776414E+02  0.76462673952E+02  0.00000000000E+00 0.  1.
         -4    1    1    2    0  502  0.20270431391E+02 -0.13889873781E+01 -0.83044147834E+02  0.85493567969E+02  0.00000000000E+00 0. -1.
<mgrwt>
<rscale>  2 0.20317964E+02</rscale>
<asrwt>0</asrwt>
<pdfrwt beam="1">  1       21 0.39987061E-03 0.20317964E+02</pdfrwt>
<pdfrwt beam="2">  1       21 0.24516473E-01 0.20317964E+02</pdfrwt>
<totfact> 0.16164666E+08</totfact>
</mgrwt>
</event>
<event>
 4    1  0.7119201E+004  0.3568736E+02  0.7546771E-02  0.1542580E+00
         21   -1    0    0  503  502  0.00000000000E+00  0.00000000000E+00  0.11529261219E+03  0.11529261219E+03  0.00000000000E+00 0.  1.
         21   -1    0    0  501  503 -0.00000000000E+00 -0.00000000000E+00 -0.13415714877E+02  0.13415714877E+02  0.00000000000E+00 0.  1.
          3    1    1    2  501    0  0.24670184387E+02 -0.25787009655E+02  0.23894781231E+02  0.42948206420E+02  0.00000000000E+00 0. -1.
         -3    1    1    2    0  502 -0.24670184387E+02  0.25787009655E+02  0.77982116082E+02  0.85760120647E+02  0.00000000000E+00 0.  1.
<mgrwt>
<rscale>  2 0.35687363E+02</rscale>
<asrwt>0</asrwt>
<pdfrwt beam="1">  1       21 0.17737324E-01 0.35687363E+02</pdfrwt>
<pdfrwt beam="2">  1       21 0.20639562E-02 0.35687363E+02</pdfrwt>
<totfact> 0.27584098E+07</totfact>
</mgrwt>
</event>
<event>
 4    1  0.7119201E+004  0.2099651E+02  0.7546771E-02  0.1726208E+00
         21   -1    0    0  503  502  0.00000000000E+00  0.00000000000E+00  0.11330368754E+03  0.11330368754E+03  0.00000000000E+00 0.  1.
         21   -1    0    0  501  503 -0.00000000000E+00 -0.00000000000E+00 -0.58995834726E+01  0.58995834726E+01  0.00000000000E+00 0.  1.
          3    1    1    2  501    0 -0.20991446944E+02  0.46110755730E+00  0.18924171218E+02  0.28266193965E+02  0.00000000000E+00 0.  1.
         -3    1    1    2    0  502  0.20991446944E+02 -0.46110755730E+00  0.88479932846E+02  0.90937077045E+02  0.00000000000E+00 0. -1.
<mgrwt>
<rscale>  2 0.20996511E+02</rscale>
<asrwt>0</asrwt>
<pdfrwt beam="1">  1       21 0.17431335E-01 0.20996511E+02</pdfrwt>
<pdfrwt beam="2">  1       21 0.90762831E-03 0.20996511E+02</pdfrwt>
<totfact> 0.88149554E+07</totfact>
</mgrwt>
</event>
<event>
 4    1  0.7119201E+004  0.2460378E+02  0.7546771E-02  0.1666759E+00
         21   -1    0    0  503  502  0.00000000000E+00  0.00000000000E+00  0.20470306565E+02  0.20470306565E+02  0.00000000000E+00 0. -1.
         21   -1    0    0  501  503 -0.00000000000E+00 -0.00000000000E+00 -0.31671037173E+02  0.31671037173E+02  0.00000000000E+00 0. -1.
          3    1    1    2  501    0 -0.18897502978E+02  0.15755331630E+02 -0.12312185342E+02  0.27512469927E+02  0.00000000000E+00 0. -1.
         -3    1    1    2    0  502  0.18897502978E+02 -0.15755331630E+02  0.11114547348E+01  0.24628873811E+02  0.00000000000E+00 0.  1.
<mgrwt>
<rscale>  2 0.24603782E+02</rscale>
<asrwt>0</asrwt>
<pdfrwt beam="1">  1       21 0.31492779E-02 0.24603782E+02</pdfrwt>
<pdfrwt beam="2">  1       21 0.48724672E-02 0.24603782E+02</pdfrwt>
<totfact> 0.11290128E+08</totfact>
</mgrwt>
</event>
<event>
 4    1  0.7119201E+004  0.2554506E+02  0.7546771E-02  0.1653294E+00
         21   -1    0    0  501  502  0.00000000000E+00  0.00000000000E+00  0.31620154141E+03  0.31620154141E+03  0.00000000000E+00 0. -1.
         21   -1    0    0  502  503 -0.00000000000E+00 -0.00000000000E+00 -0.21902427417E+01  0.21902427417E+01  0.00000000000E+00 0. -1.
          4    1    1    2  501    0 -0.80533292034E+01  0.24242397810E+02  0.19526856619E+03  0.19693238156E+03  0.00000000000E+00 0.  1.
         -4    1    1    2    0  503  0.80533292034E+01 -0.24242397810E+02  0.11874273247E+03  0.12145940259E+03  0.00000000000E+00 0. -1.
<mgrwt>
<rscale>  2 0.25545058E+02</rscale>
<asrwt>0</asrwt>
<pdfrwt beam="1">  1       21 0.48646355E-01 0.25545058E+02</pdfrwt>
<pdfrwt beam="2">  1       21 0.33696067E-03 0.25545058E+02</pdfrwt>
<totfact> 0.62062323E+07</totfact>
</mgrwt>
</event>
<event>
 4    1  0.7119201E+004  0.6841573E+02  0.7546771E-02  0.1365565E+00
         21   -1    0    0  501  502  0.00000000000E+00  0.00000000000E+00  0.59314636760E+01  0.59314636760E+01  0.00000000000E+00 0. -1.
         21   -1    0    0  502  503 -0.00000000000E+00 -0.00000000000E+00 -0.79015087620E+03  0.79015087620E+03  0.00000000000E+00 0. -1.
          1    1    1    2  501    0 -0.26746274507E+02  0.62971011065E+02 -0.40639873884E+03  0.41211727259E+03  0.00000000000E+00 0.  1.
         -1    1    1    2    0  503  0.26746274507E+02 -0.62971011065E+02 -0.37782067368E+03  0.38396506729E+03  0.00000000000E+00 0. -1.
<mgrwt>
<rscale>  2 0.68415725E+02</rscale>
<asrwt>0</asrwt>
<pdfrwt beam="1">  1       21 0.91253282E-03 0.68415725E+02</pdfrwt>
<pdfrwt beam="2">  1       21 0.12156168E+00 0.68415725E+02</pdfrwt>
<totfact> 0.21922660E+06</totfact>
</mgrwt>
</event>
<event>
 4    1  0.7119201E+004  0.2057199E+02  0.7546771E-02  0.1734187E+00
         21   -1    0    0  501  502  0.00000000000E+00  0.00000000000E+00  0.74144515394E+01  0.74144515394E+01  0.00000000000E+00 0.  1.
         21   -1    0    0  502  503 -0.00000000000E+00 -0.00000000000E+00 -0.58091384301E+02  0.58091384301E+02  0.00000000000E+00 0.  1.
          3    1    1    2  501    0  0.33593646755E+01  0.20295850246E+02 -0.29663030699E+02  0.36098507704E+02  0.00000000000E+00 0.  1.
         -3    1    1    2    0  503 -0.33593646755E+01 -0.20295850246E+02 -0.21013902062E+02  0.29407328136E+02  0.00000000000E+00 0. -1.
<mgrwt>
<rscale>  2 0.20571992E+02</rscale>
<asrwt>0</asrwt>
<pdfrwt beam="1">  1       21 0.11406849E-02 0.20571992E+02</pdfrwt>
<pdfrwt beam="2">  1       21 0.89371355E-02 0.20571992E+02</pdfrwt>
<totfact> 0.19029124E+08</totfact>
</mgrwt>
</event>
<event>
 4    1  0.7119201E+004  0.2907903E+02  0.7546771E-02  0.1608498E+00
         21   -1    0    0  503  502  0.00000000000E+00  0.00000000000E+00  0.65095583715E+02  0.65095583715E+02  0.00000000000E+00 0. -1.
         21   -1    0    0  501  503 -0.00000000000E+00 -0.00000000000E+00 -0.13158387217E+02  0.13158387217E+02  0.00000000000E+00 0. -1.
          5    1    1    2  501    0 -0.28882178449E+02 -0.33778642669E+01  0.21542123271E+02  0.36189131987E+02  0.00000000000E+00 0. -1.
         -5    1    1    2    0  502  0.28882178449E+02  0.33778642669E+01  0.30395073228E+02  0.42064838945E+02  0.00000000000E+00 0.  1.
<mgrwt>
<rscale>  2 0.29079034E+02</rscale>
<asrwt>0</asrwt>
<pdfrwt beam="1">  1       21 0.10014705E-01 0.29079034E+02</pdfrwt>
<pdfrwt beam="2">  1       21 0.20243673E-02 0.29079034E+02</pdfrwt>
<totfact> 0.72450290E+07</totfact>
</mgrwt>
</event>
<event>
 4    1  0.7119201E+004  0.2084761E+02  0.7546771E-02  0.1728979E+00
         21   -1    0    0  501  502  0.00000000000E+00  0.00000000000E+00  0.19245504760E+02  0.19245504760E+02  0.00000000000E+00 0.  1.
         21   -1    0    0  502  503 -0.00000000000E+00 -0.00000000000E+00 -0.22634659318E+02  0.22634659318E+02  0.00000000000E+00 0.  1.
          3    1    1    2  501    0 -0.17823702190E+01  0.20771273899E+02 -0.26942397719E+01  0.21020979781E+02  0.00000000000E+00 0. -1.
         -3    1    1    2    0  503  0.17823702190E+01 -0.20771273899E+02 -0.69491478644E+00  0.20859184297E+02  0.00000000000E+00 0.  1.
<mgrwt>
<rscale>  2 0.20847606E+02</rscale>
<asrwt>0</asrwt>
<pdfrwt beam="1">  1       21 0.29608469E-02 0.20847606E+02</pdfrwt>
<pdfrwt beam="2">  1       21 0.34822553E-02 0.20847606E+02</pdfrwt>
<totfact> 0.20070500E+08</totfact>
</mgrwt>
</event>
<event>
 4    1  0.7119201E+004  0.3121529E+02  0.7546771E-02  0.1585031E+00
         21   -1    0    0  503  502  0.00000000000E+00  0.00000000000E+00  0.10492965356E+02  0.10492965356E+02  0.00000000000E+00 0.  1.
         21   -1    0    0  501  503 -0.00000000000E+00 -0.00000000000E+00 -0.13020977534E+03  0.13020977534E+03  0.00000000000E+00 0.  1.
          2    1    1    2  501    0 -0.27327706205E+02  0.15086114762E+02 -0.22180651596E+02  0.38293285185E+02  0.00000000000E+00 0. -1.
         -2    1    1    2    0  502  0.27327706205E+02 -0.15086114762E+02 -0.97536158384E+02  0.10240945551E+03  0.00000000000E+00 0.  1.
<mgrwt>
<rscale>  2 0.31215291E+02</rscale>
<asrwt>0</asrwt>
<pdfrwt beam="1">  1       21 0.16143024E-02 0.31215291E+02</pdfrwt>
<pdfrwt beam="2">  1       21 0.20032272E-01 0.31215291E+02</pdfrwt>
<totfact> 0.31765425E+07</totfact>
</mgrwt>
</event>
<event>
 4    1  0.7119201E+004  0.2245179E+02  0.7546771E-02  0.1700554E+00
         21   -1    0    0  501  502  0.00000000000E+00  0.00000000000E+00  0.17638416876E+03  0.17638416876E+03  0.00000000000E+00 0. -1.
         21   -1    0    0  502  503 -0.00000000000E+00 -0.00000000000E+00 -0.28601102238E+01  0.28601102238E+01  0.00000000000E+00 0. -1.
          4    1    1    2  501    0 -0.13156608367E+02  0.18193040361E+02  0.89270155173E+02  0.92050223606E+02  0.00000000000E+00 0. -1.
         -4    1    1    2    0  503  0.13156608367E+02 -0.18193040361E+02  0.84253903360E+02  0.87194055375E+02  0.00000000000E+00 0.  1.
<mgrwt>
<rscale>  2 0.22451794E+02</rscale>
<asrwt>0</asrwt>
<pdfrwt beam="1">  1       21 0.27136018E-01 0.22451794E+02</pdfrwt>
<pdfrwt beam="2">  1       21 0.44001709E-03 0.22451794E+02</pdfrwt>
<totfact> 0.12068784E+08</totfact>
</mgrwt>
</event>
<event>
 4    1  0.7119201E+004  0.6477995E+02  0.7546771E-02  0.1378801E+00
         21   -1    0    0  501  502  0.00000000000E+00  0.00000000000E+00  0.23904212938E+03  0.23904212938E+03  0.00000000000E+00 0.  1.
         21   -1    0    0  502  503 -0.00000000000E+00 -0.00000000000E+00 -0.17965702597E+02  0.17965702597E+02  0.00000000000E+00 0.  1.
          2    1    1    2  501    0 -0.24685031897E+02 -0.59892327065E+02  0.12996190349E+03  0.14521204495E+03  0.00000000000E+00 0. -1.
         -2    1    1    2    0  503  0.24685031897E+02  0.59892327065E+02  0.91114523294E+02  0.11179578702E+03  0.00000000000E+00 0.  1.
<mgrwt>
<rscale>  2 0.64779948E+02</rscale>
<asrwt>0</asrwt>
<pdfrwt beam="1">  1       21 0.36775710E-01 0.64779948E+02</pdfrwt>
<pdfrwt beam="2">  1       21 0.27639544E-02 0.64779948E+02</pdfrwt>
<totfact> 0.48873129E+06</totfact>
</mgrwt>
</event>
<event>
 4    1  0.7119201E+004  0.3016535E+02  0.7546771E-02  0.1596268E+00
         21   -1    0    0  503  502  0.00000000000E+00  0.00000000000E+00  0.37726724707E+02  0.37726724707E+02  0.00000000000E+00 0.  1.
         21   -1    0    0  501  503 -0.00000000000E+00 -0.00000000000E+00 -0.24454936137E+02  0.24454936137E+02  0.00000000000E+00 0.  1.
          3    1    1    2  501    0  0.12334034572E+02 -0.27528528781E+02  0.10277379333E+02  0.31868053465E+02  0.00000000000E+00 0.  1.
         -3    1    1    2    0  502 -0.12334034572E+02  0.27528528781E+02  0.29944092367E+01  0.30313607379E+02  0.00000000000E+00 0. -1.
<mgrwt>
<rscale>  2 0.30165349E+02</rscale>
<asrwt>0</asrwt>
<pdfrwt beam="1">  1       21 0.58041115E-02 0.30165349E+02</pdfrwt>
<pdfrwt beam="2">  1       21 0.37622979E-02 0.30165349E+02</pdfrwt>
<totfact> 0.67834160E+07</totfact>
</mgrwt>
</event>
<event>
 4    1  0.7119201E+004  0.2340652E+02  0.7546771E-02  0.1685004E+00
         21   -1    0    0  503  502  0.00000000000E+00  0.00000000000E+00  0.76266572495E+02  0.76266572495E+02  0.00000000000E+00 0. -1.
         21   -1    0    0  501  503 -0.00000000000E+00 -0.00000000000E+00 -0.78890273201E+01  0.78890273201E+01  0.00000000000E+00 0. -1.
          4    1    1    2  501    0  0.45225544006E+01  0.22965450349E+02  0.46771654283E+02  0.52301558796E+02  0.00000000000E+00 0.  1.
         -4    1    1    2    0  502 -0.45225544006E+01 -0.22965450349E+02  0.21605890891E+02  0.31854041019E+02  0.00000000000E+00 0. -1.
<mgrwt>
<rscale>  2 0.23406525E+02</rscale>
<asrwt>0</asrwt>
<pdfrwt beam="1">  1       21 0.11733318E-01 0.23406525E+02</pdfrwt>
<pdfrwt beam="2">  1       21 0.12136966E-02 0.23406525E+02</pdfrwt>
<totfact> 0.11488574E+08</totfact>
</mgrwt>
</event>
<event>
 4    1  0.7119201E+004  0.2415121E+02  0.7546771E-02  0.1673501E+00
         21   -1    0    0  503  502  0.00000000000E+00  0.00000000000E+00  0.17600203581E+01  0.17600203581E+01  0.00000000000E+00 0.  1.
         21   -1    0    0  501  503 -0.00000000000E+00 -0.00000000000E+00 -0.33149836878E+03  0.33149836878E+03  0.00000000000E+00 0.  1.
          4    1    1    2  501    0 -0.12588130577E+02 -0.20611163086E+02 -0.16208573249E+03  0.16387515294E+03  0.00000000000E+00 0. -1.
         -4    1    1    2    0  502  0.12588130577E+02  0.20611163086E+02 -0.16765261593E+03  0.16938323620E+03  0.00000000000E+00 0.  1.
<mgrwt>
<rscale>  2 0.24151213E+02</rscale>
<asrwt>0</asrwt>
<pdfrwt beam="1">  1       21 0.27077249E-03 0.24151213E+02</pdfrwt>
<pdfrwt beam="2">  1       21 0.50999726E-01 0.24151213E+02</pdfrwt>
<totfact> 0.76898209E+07</totfact>
</mgrwt>
</event>
<event>
 4    1  0.7119201E+004  0.2147585E+02  0.7546771E-02  0.1717478E+00
         21   -1    0    0  501  502  0.00000000000E+00  0.00000000000E+00  0.41983150324E+02  0.41983150324E+02  0.00000000000E+00 0.  1.
         21   -1    0    0  502  503 -0.00000000000E+00 -0.00000000000E+00 -0.11518569168E+02  0.11518569168E+02  0.00000000000E+00 0.  1.
          3    1    1    2  501    0  0.21421826062E+02  0.15223329549E+01  0.94782915135E+01  0.23474457171E+02  0.00000000000E+00 0. -1.
         -3    1    1    2    0  503 -0.21421826062E+02 -0.15223329549E+01  0.20986289642E+02  0.30027262320E+02  0.00000000000E+00 0.  1.
<mgrwt>
<rscale>  2 0.21475850E+02</rscale>
<asrwt>0</asrwt>
<pdfrwt beam="1">  1       21 0.64589461E-02 0.21475850E+02</pdfrwt>
<pdfrwt beam="2">  1       21 0.17720876E-02 0.21475850E+02</pdfrwt>
<totfact> 0.16769194E+08</totfact>
</mgrwt>
</event>
<event>
 4    1  0.7119201E+004  0.2171235E+02  0.7546771E-02  0.1713275E+00
         21   -1    0    0  501  502  0.00000000000E+00  0.00000000000E+00  0.15673816594E+02  0.15673816594E+02  0.00000000000E+00 0.  1.
         21   -1    0    0  502  503 -0.00000000000E+00 -0.00000000000E+00 -0.37926357067E+02  0.37926357067E+02  0.00000000000E+00 0.  1.
          3    1    1    2  501    0 -0.10409465422E+02  0.19054379607E+02 -0.23318240799E+02  0.31861680849E+02  0.00000000000E+00 0. -1.
         -3    1    1    2    0  503  0.10409465422E+02 -0.19054379607E+02  0.10657003267E+01  0.21738492812E+02  0.00000000000E+00 0.  1.
<mgrwt>
<rscale>  2 0.21712355E+02</rscale>
<asrwt>0</asrwt>
<pdfrwt beam="1">  1       21 0.24113564E-02 0.21712355E+02</pdfrwt>
<pdfrwt beam="2">  1       21 0.58348241E-02 0.21712355E+02</pdfrwt>
<totfact> 0.12352207E+08</totfact>
</mgrwt>
</event>
<event>
 4    1  0.7119201E+004  0.2239763E+02  0.7546771E-02  0.1701465E+00
         21   -1    0    0  503  502  0.00000000000E+00  0.00000000000E+00  0.16574333047E+03  0.16574333047E+03  0.00000000000E+00 0. -1.
         21   -1    0    0  501  503 -0.00000000000E+00 -0.00000000000E+00 -0.30625068630E+01  0.30625068630E+01  0.00000000000E+00 0. -1.
          1    1    1    2  501    0 -0.18140809844E+02  0.13136393974E+02  0.72212796958E+02  0.75606493590E+02  0.00000000000E+00 0. -1.
         -1    1    1    2    0  502  0.18140809844E+02 -0.13136393974E+02  0.90468026649E+02  0.93199343743E+02  0.00000000000E+00 0.  1.
<mgrwt>
<rscale>  2 0.22397630E+02</rscale>
<asrwt>0</asrwt>
<pdfrwt beam="1">  1       21 0.25498967E-01 0.22397630E+02</pdfrwt>
<pdfrwt beam="2">  1       21 0.47115503E-03 0.22397630E+02</pdfrwt>
<totfact> 0.12192461E+08</totfact>
</mgrwt>
</event>
<event>
 4    1  0.7119201E+004  0.2480488E+02  0.7546771E-02  0.1663820E+00
         21   -1    0    0  501  502  0.00000000000E+00  0.00000000000E+00  0.22476922841E+03  0.22476922841E+03  0.00000000000E+00 0. -1.
         21   -1    0    0  502  503 -0.00000000000E+00 -0.00000000000E+00 -0.54841177042E+01  0.54841177042E+01  0.00000000000E+00 0. -1.
          2    1    1    2  501    0  0.11201003859E+02  0.22131865013E+02  0.28166487929E+02  0.37531759600E+02  0.00000000000E+00 0. -1.
         -2    1    1    2    0  503 -0.11201003859E+02 -0.22131865013E+02  0.19111862277E+03  0.19272158651E+03  0.00000000000E+00 0.  1.
<mgrwt>
<rscale>  2 0.24804877E+02</rscale>
<asrwt>0</asrwt>
<pdfrwt beam="1">  1       21 0.34579874E-01 0.24804877E+02</pdfrwt>
<pdfrwt beam="2">  1       21 0.84371059E-03 0.24804877E+02</pdfrwt>
<totfact> 0.30251703E+07</totfact>
</mgrwt>
</event>
<event>
 4    1  0.7119201E+004  0.2100155E+02  0.7546771E-02  0.1726115E+00
         21   -1    0    0  501  502  0.00000000000E+00  0.00000000000E+00  0.91354517641E+02  0.91354517641E+02  0.00000000000E+00 0. -1.
         21   -1    0    0  502  503 -0.00000000000E+00 -0.00000000000E+00 -0.48658828745E+01  0.48658828745E+01  0.00000000000E+00 0. -1.
          1    1    1    2  501    0 -0.12205285348E+02 -0.17090814120E+02  0.47486062666E+02  0.51922933905E+02  0.00000000000E+00 0.  1.
         -1    1    1    2    0  503  0.12205285348E+02  0.17090814120E+02  0.39002572101E+02  0.44297466611E+02  0.00000000000E+00 0. -1.
<mgrwt>
<rscale>  2 0.21001546E+02</rscale>
<asrwt>0</asrwt>
<pdfrwt beam="1">  1       21 0.14054540E-01 0.21001546E+02</pdfrwt>
<pdfrwt beam="2">  1       21 0.74859743E-03 0.21001546E+02</pdfrwt>
<totfact> 0.16942204E+08</totfact>
</mgrwt>
</event>
<event>
 4    1  0.7119201E+004  0.2461250E+02  0.7546771E-02  0.1666631E+00
         21   -1    0    0  503  502  0.00000000000E+00  0.00000000000E+00  0.41813669561E+03  0.41813669561E+03  0.00000000000E+00 0.  1.
         21   -1    0    0  501  503 -0.00000000000E+00 -0.00000000000E+00 -0.17582648021E+01  0.17582648021E+01  0.00000000000E+00 0.  1.
          2    1    1    2  501    0 -0.13187741877E+01  0.24577141465E+02  0.12010257245E+03  0.12259854387E+03  0.00000000000E+00 0.  1.
         -2    1    1    2    0  502  0.13187741877E+01 -0.24577141465E+02  0.29627585835E+03  0.29729641655E+03  0.00000000000E+00 0. -1.
<mgrwt>
<rscale>  2 0.24612498E+02</rscale>
<asrwt>0</asrwt>
<pdfrwt beam="1">  1       21 0.64328643E-01 0.24612498E+02</pdfrwt>
<pdfrwt beam="2">  1       21 0.27050261E-03 0.24612498E+02</pdfrwt>
<totfact> 0.48730711E+07</totfact>
</mgrwt>
</event>
<event>
 4    1  0.7119201E+004  0.2951855E+02  0.7546771E-02  0.1603472E+00
         21   -1    0    0  503  502  0.00000000000E+00  0.00000000000E+00  0.10129263470E+03  0.10129263470E+03  0.00000000000E+00 0. -1.
         21   -1    0    0  501  503 -0.00000000000E+00 -0.00000000000E+00 -0.87472896063E+01  0.87472896063E+01  0.00000000000E+00 0. -1.
          4    1    1    2  501    0  0.84309994994E+00  0.29506511396E+02  0.53357348006E+02  0.60978288091E+02  0.00000000000E+00 0. -1.
         -4    1    1    2    0  502 -0.84309994994E+00 -0.29506511396E+02  0.39187997083E+02  0.49061636211E+02  0.00000000000E+00 0.  1.
<mgrwt>
<rscale>  2 0.29518554E+02</rscale>
<asrwt>0</asrwt>
<pdfrwt beam="1">  1       21 0.15583481E-01 0.29518554E+02</pdfrwt>
<pdfrwt beam="2">  1       21 0.13457369E-02 0.29518554E+02</pdfrwt>
<totfact> 0.64347488E+07</totfact>
</mgrwt>
</event>
<event>
 4    1  0.7119201E+004  0.3786839E+02  0.7546771E-02  0.1524510E+00
         21   -1    0    0  503  502  0.00000000000E+00  0.00000000000E+00  0.51785305797E+01  0.51785305797E+01  0.00000000000E+00 0. -1.
         21   -1    0    0  501  503 -0.00000000000E+00 -0.00000000000E+00 -0.29429533932E+03  0.29429533932E+03  0.00000000000E+00 0. -1.
          2    1    1    2  501    0  0.16140982836E+02 -0.34256151642E+02 -0.18094659365E+03  0.18486666818E+03  0.00000000000E+00 0. -1.
         -2    1    1    2    0  502 -0.16140982836E+02  0.34256151642E+02 -0.10817021509E+03  0.11460720172E+03  0.00000000000E+00 0.  1.
<mgrwt>
<rscale>  2 0.37868394E+02</rscale>
<asrwt>0</asrwt>
<pdfrwt beam="1">  1       21 0.79669714E-03 0.37868394E+02</pdfrwt>
<pdfrwt beam="2">  1       21 0.45276199E-01 0.37868394E+02</pdfrwt>
<totfact> 0.21325822E+07</totfact>
</mgrwt>
</event>
<event>
 4    1  0.7119201E+004  0.2775084E+02  0.7546771E-02  0.1624369E+00
         21   -1    0    0  501  502  0.00000000000E+00  0.00000000000E+00  0.73370663881E+02  0.73370663881E+02  0.00000000000E+00 0. -1.
         21   -1    0    0  502  503 -0.00000000000E+00 -0.00000000000E+00 -0.12727758609E+02  0.12727758609E+02  0.00000000000E+00 0. -1.
          4    1    1    2  501    0  0.38842981531E+01  0.27477656820E+02  0.12295493729E+02  0.30352735667E+02  0.00000000000E+00 0.  1.
         -4    1    1    2    0  503 -0.38842981531E+01 -0.27477656820E+02  0.48347411543E+02  0.55745686822E+02  0.00000000000E+00 0. -1.
<mgrwt>
<rscale>  2 0.27750845E+02</rscale>
<asrwt>0</asrwt>
<pdfrwt beam="1">  1       21 0.11287794E-01 0.27750845E+02</pdfrwt>
<pdfrwt beam="2">  1       21 0.19581168E-02 0.27750845E+02</pdfrwt>
<totfact> 0.61716569E+07</totfact>
</mgrwt>
</event>
<event>
 4    1  0.7119201E+004  0.2068545E+02  0.7546771E-02  0.1732031E+00
         21   -1    0    0  501  502  0.00000000000E+00  0.00000000000E+00  0.17594249075E+01  0.17594249075E+01  0.00000000000E+00 0. -1.
         21   -1    0    0  502  503 -0.00000000000E+00 -0.00000000000E+00 -0.25682104709E+03  0.25682104709E+03  0.00000000000E+00 0. -1.
          3    1    1    2  501    0  0.28596980374E+00 -0.20683473881E+02 -0.15730872905E+03  0.15866292606E+03  0.00000000000E+00 0. -1.
         -3    1    1    2    0  503 -0.28596980374E+00  0.20683473881E+02 -0.97752893137E+02  0.99917545943E+02  0.00000000000E+00 0.  1.
<mgrwt>
<rscale>  2 0.20685451E+02</rscale>
<asrwt>0</asrwt>
<pdfrwt beam="1">  1       21 0.27068062E-03 0.20685451E+02</pdfrwt>
<pdfrwt beam="2">  1       21 0.39510950E-01 0.20685451E+02</pdfrwt>
<totfact> 0.12034035E+08</totfact>
</mgrwt>
</event>
<event>
 4    1  0.7119201E+004  0.2569166E+02  0.7546771E-02  0.1651262E+00
         21   -1    0    0  501  502  0.00000000000E+00  0.00000000000E+00  0.31283824406E+02  0.31283824406E+02  0.00000000000E+00 0. -1.
         21   -1    0    0  502  503 -0.00000000000E+00 -0.00000000000E+00 -0.24845087353E+02  0.24845087353E+02  0.00000000000E+00 0. -1.
          2    1    1    2  501    0  0.20521919692E+02  0.15456777634E+02 -0.76779177754E+01  0.26814391360E+02  0.00000000000E+00 0. -1.
         -2    1    1    2    0  503 -0.20521919692E+02 -0.15456777634E+02  0.14116654828E+02  0.29314520398E+02  0.00000000000E+00 0.  1.
<mgrwt>
<rscale>  2 0.25691656E+02</rscale>
<asrwt>0</asrwt>
<pdfrwt beam="1">  1       21 0.48128961E-02 0.25691656E+02</pdfrwt>
<pdfrwt beam="2">  1       21 0.38223211E-02 0.25691656E+02</pdfrwt>
<totfact> 0.85900042E+07</totfact>
</mgrwt>
</event>
<event>
 4    1  0.7119201E+004  0.2653753E+02  0.7546771E-02  0.1639852E+00
         21   -1    0    0  501  502  0.00000000000E+00  0.00000000000E+00  0.19993903669E+02  0.19993903669E+02  0.00000000000E+00 0. -1.
         21   -1    0    0  502  503 -0.00000000000E+00 -0.00000000000E+00 -0.60657660380E+02  0.60657660380E+02  0.00000000000E+00 0. -1.
          3    1    1    2  501    0 -0.25237615389E+02  0.82038530404E+01  0.57810156660E+01  0.27159907536E+02  0.00000000000E+00 0. -1.
         -3    1    1    2    0  503  0.25237615389E+02 -0.82038530404E+01 -0.46444772378E+02  0.53491656513E+02  0.00000000000E+00 0.  1.
<mgrwt>
<rscale>  2 0.26537529E+02</rscale>
<asrwt>0</asrwt>
<pdfrwt beam="1">  1       21 0.30759852E-02 0.26537529E+02</pdfrwt>
<pdfrwt beam="2">  1       21 0.93319477E-02 0.26537529E+02</pdfrwt>
<totfact> 0.41559819E+07</totfact>
</mgrwt>
</event>
<event>
 4    1  0.7119201E+004  0.5344842E+02  0.7546771E-02  0.1427582E+00
         21   -1    0    0  503  502  0.00000000000E+00  0.00000000000E+00  0.14401566560E+01  0.14401566560E+01  0.00000000000E+00 0.  1.
         21   -1    0    0  501  503 -0.00000000000E+00 -0.00000000000E+00 -0.19991250006E+04  0.19991250006E+04  0.00000000000E+00 0.  1.
          3    1    1    2  501    0 -0.10512492327E+02  0.52404404147E+02 -0.10869140996E+04  0.10882274551E+04  0.00000000000E+00 0.  1.
         -3    1    1    2    0  502  0.10512492327E+02 -0.52404404147E+02 -0.91077074439E+03  0.91233770222E+03  0.00000000000E+00 0. -1.
<mgrwt>
<rscale>  2 0.53448424E+02</rscale>
<asrwt>0</asrwt>
<pdfrwt beam="1">  1       21 0.22156052E-03 0.53448424E+02</pdfrwt>
<pdfrwt beam="2">  1       21 0.30756052E+00 0.53448424E+02</pdfrwt>
<totfact> 0.13559688E+06</totfact>
</mgrwt>
</event>
<event>
 4    1  0.7119201E+004  0.2305654E+02  0.7546771E-02  0.1690595E+00
         21   -1    0    0  501  502  0.00000000000E+00  0.00000000000E+00  0.62400503847E+01  0.62400503847E+01  0.00000000000E+00 0.  1.
         21   -1    0    0  502  503 -0.00000000000E+00 -0.00000000000E+00 -0.93408875225E+02  0.93408875225E+02  0.00000000000E+00 0.  1.
          4    1    1    2  501    0  0.64195410000E+01  0.22144833176E+02 -0.28807135884E+02  0.36897902663E+02  0.00000000000E+00 0.  1.
         -4    1    1    2    0  503 -0.64195410000E+01 -0.22144833176E+02 -0.58361688956E+02  0.62751022947E+02  0.00000000000E+00 0. -1.
<mgrwt>
<rscale>  2 0.23056542E+02</rscale>
<asrwt>0</asrwt>
<pdfrwt beam="1">  1       21 0.96000786E-03 0.23056542E+02</pdfrwt>
<pdfrwt beam="2">  1       21 0.14370595E-01 0.23056542E+02</pdfrwt>
<totfact> 0.11571057E+08</totfact>
</mgrwt>
</event>
<event>
 4    1  0.7119201E+004  0.2140934E+02  0.7546771E-02  0.1718672E+00
         21   -1    0    0  503  502  0.00000000000E+00  0.00000000000E+00  0.41015359544E+03  0.41015359544E+03  0.00000000000E+00 0.  1.
         21   -1    0    0  501  503 -0.00000000000E+00 -0.00000000000E+00 -0.11961637019E+01  0.11961637019E+01  0.00000000000E+00 0.  1.
          1    1    1    2  501    0 -0.21292851445E+02  0.22302963544E+01  0.25721201428E+03  0.25810149173E+03  0.00000000000E+00 0.  1.
         -1    1    1    2    0  502  0.21292851445E+02 -0.22302963544E+01  0.15174541746E+03  0.15324826741E+03  0.00000000000E+00 0. -1.
<mgrwt>
<rscale>  2 0.21409338E+02</rscale>
<asrwt>0</asrwt>
<pdfrwt beam="1">  1       21 0.63100441E-01 0.21409338E+02</pdfrwt>
<pdfrwt beam="2">  1       21 0.18402551E-03 0.21409338E+02</pdfrwt>
<totfact> 0.85573929E+07</totfact>
</mgrwt>
</event>
<event>
 4    1  0.7119201E+004  0.2680052E+02  0.7546771E-02  0.1636411E+00
         21   -1    0    0  503  502  0.00000000000E+00  0.00000000000E+00  0.21649981677E+02  0.21649981677E+02  0.00000000000E+00 0. -1.
         21   -1    0    0  501  503 -0.00000000000E+00 -0.00000000000E+00 -0.33603623367E+02  0.33603623367E+02  0.00000000000E+00 0. -1.
          1    1    1    2  501    0  0.23636992333E+02 -0.12631719544E+02 -0.90919902135E+01  0.28300742592E+02  0.00000000000E+00 0.  1.
         -1    1    1    2    0  502 -0.23636992333E+02  0.12631719544E+02 -0.28616514758E+01  0.26952862452E+02  0.00000000000E+00 0. -1.
<mgrwt>
<rscale>  2 0.26800518E+02</rscale>
<asrwt>0</asrwt>
<pdfrwt beam="1">  1       21 0.33307664E-02 0.26800518E+02</pdfrwt>
<pdfrwt beam="2">  1       21 0.51697882E-02 0.26800518E+02</pdfrwt>
<totfact> 0.96224691E+07</totfact>
</mgrwt>
</event>
<event>
 4    1  0.7119201E+004  0.2401554E+02  0.7546771E-02  0.1675558E+00
         21   -1    0    0  503  502  0.00000000000E+00  0.00000000000E+00  0.40708691614E+03  0.40708691614E+03  0.00000000000E+00 0. -1.
         21   -1    0    0  501  503 -0.00000000000E+00 -0.00000000000E+00 -0.28453189023E+01  0.28453189023E+01  0.00000000000E+00 0. -1.
          4    1    1    2  501    0  0.89174277448E+01  0.22298556360E+02  0.34735371257E+03  0.34818292285E+03  0.00000000000E+00 0. -1.
         -4    1    1    2    0  502 -0.89174277448E+01 -0.22298556360E+02  0.56887884667E+02  0.61749312184E+02  0.00000000000E+00 0.  1.
<mgrwt>
<rscale>  2 0.24015539E+02</rscale>
<asrwt>0</asrwt>
<pdfrwt beam="1">  1       21 0.62628710E-01 0.24015539E+02</pdfrwt>
<pdfrwt beam="2">  1       21 0.43774169E-03 0.24015539E+02</pdfrwt>
<totfact> 0.25288941E+07</totfact>
</mgrwt>
</event>
<event>
 4    1  0.7119201E+004  0.2568691E+02  0.7546771E-02  0.1651327E+00
         21   -1    0    0  501  502  0.00000000000E+00  0.00000000000E+00  0.27334538955E+02  0.27334538955E+02  0.00000000000E+00 0.  1.
         21   -1    0    0  502  503 -0.00000000000E+00 -0.00000000000E+00 -0.27697944704E+02  0.27697944704E+02  0.00000000000E+00 0.  1.
          2    1    1    2  501    0 -0.24077965698E+02 -0.89481346789E+01  0.96822337041E+01  0.27451105550E+02  0.00000000000E+00 0.  1.
         -2    1    1    2    0  503  0.24077965698E+02  0.89481346789E+01 -0.10045639453E+02  0.27581378110E+02  0.00000000000E+00 0. -1.
<mgrwt>
<rscale>  2 0.25686914E+02</rscale>
<asrwt>0</asrwt>
<pdfrwt beam="1">  1       21 0.42053137E-02 0.25686914E+02</pdfrwt>
<pdfrwt beam="2">  1       21 0.42612222E-02 0.25686914E+02</pdfrwt>
<totfact> 0.89637369E+07</totfact>
</mgrwt>
</event>
<event>
 4    1  0.7119201E+004  0.2016049E+02  0.7546771E-02  0.1742155E+00
         21   -1    0    0  503  502  0.00000000000E+00  0.00000000000E+00  0.11610712119E+02  0.11610712119E+02  0.00000000000E+00 0. -1.
         21   -1    0    0  501  503 -0.00000000000E+00 -0.00000000000E+00 -0.35025913213E+02  0.35025913213E+02  0.00000000000E+00 0. -1.
          3    1    1    2  501    0  0.14008038346E+02  0.14498978896E+02 -0.11152732838E+02  0.23039726063E+02  0.00000000000E+00 0. -1.
         -3    1    1    2    0  502 -0.14008038346E+02 -0.14498978896E+02 -0.12262468256E+02  0.23596899268E+02  0.00000000000E+00 0.  1.
<mgrwt>
<rscale>  2 0.20160494E+02</rscale>
<asrwt>0</asrwt>
<pdfrwt beam="1">  1       21 0.17862634E-02 0.20160494E+02</pdfrwt>
<pdfrwt beam="2">  1       21 0.53886020E-02 0.20160494E+02</pdfrwt>
<totfact> 0.21688201E+08</totfact>
</mgrwt>
</event>
<event>
 4    1  0.7119201E+004  0.2125420E+02  0.7546771E-02  0.1721479E+00
         21   -1    0    0  503  502  0.00000000000E+00  0.00000000000E+00  0.36557729299E+03  0.36557729299E+03  0.00000000000E+00 0. -1.
         21   -1    0    0  501  503 -0.00000000000E+00 -0.00000000000E+00 -0.12494763653E+01  0.12494763653E+01  0.00000000000E+00 0. -1.
          5    1    1    2  501    0  0.15418122567E+02  0.14629505611E+02  0.16289929395E+03  0.16428000763E+03  0.00000000000E+00 0. -1.
         -5    1    1    2    0  502 -0.15418122567E+02 -0.14629505611E+02  0.20142852267E+03  0.20254676172E+03  0.00000000000E+00 0.  1.
<mgrwt>
<rscale>  2 0.21254198E+02</rscale>
<asrwt>0</asrwt>
<pdfrwt beam="1">  1       21 0.56242575E-01 0.21254198E+02</pdfrwt>
<pdfrwt beam="2">  1       21 0.19222742E-03 0.21254198E+02</pdfrwt>
<totfact> 0.10086250E+08</totfact>
</mgrwt>
</event>
<event>
 4    1  0.7119201E+004  0.2202272E+02  0.7546771E-02  0.1707859E+00
         21   -1    0    0  501  502  0.00000000000E+00  0.00000000000E+00  0.66418873892E+03  0.66418873892E+03  0.00000000000E+00 0. -1.
         21   -1    0    0  502  503 -0.00000000000E+00 -0.00000000000E+00 -0.76454607103E+00  0.76454607103E+00  0.00000000000E+00 0. -1.
          4    1    1    2  501    0 -0.17035660867E+02  0.13956586798E+02  0.26125772026E+03  0.26218427956E+03  0.00000000000E+00 0. -1.
         -4    1    1    2    0  503  0.17035660867E+02 -0.13956586798E+02  0.40216647259E+03  0.40276900542E+03  0.00000000000E+00 0.  1.
<mgrwt>
<rscale>  2 0.22022717E+02</rscale>
<asrwt>0</asrwt>
<pdfrwt beam="1">  1       21 0.10218242E+00 0.22022717E+02</pdfrwt>
<pdfrwt beam="2">  1       21 0.11762300E-03 0.22022717E+02</pdfrwt>
<totfact> 0.59559313E+07</totfact>
</mgrwt>
</event>
<event>
 4    1  0.7119201E+004  0.2148655E+02  0.7546771E-02  0.1717286E+00
         21   -1    0    0  501  502  0.00000000000E+00  0.00000000000E+00  0.25238062481E+03  0.25238062481E+03  0.00000000000E+00 0. -1.
         21   -1    0    0  502  503 -0.00000000000E+00 -0.00000000000E+00 -0.20126426721E+01  0.20126426721E+01  0.00000000000E+00 0. -1.
          4    1    1    2  501    0 -0.18726219891E+02 -0.10535672567E+02  0.16357790534E+03  0.16498303799E+03  0.00000000000E+00 0. -1.
         -4    1    1    2    0  503  0.18726219891E+02  0.10535672567E+02  0.86790076793E+02  0.89410229491E+02  0.00000000000E+00 0.  1.
<mgrwt>
<rscale>  2 0.21486547E+02</rscale>
<asrwt>0</asrwt>
<pdfrwt beam="1">  1       21 0.38827763E-01 0.21486547E+02</pdfrwt>
<pdfrwt beam="2">  1       21 0.30963753E-03 0.21486547E+02</pdfrwt>
<totfact> 0.10336516E+08</totfact>
</mgrwt>
</event>
<event>
 4    1  0.7119201E+004  0.2039317E+02  0.7546771E-02  0.1737620E+00
         21   -1    0    0  501  502  0.00000000000E+00  0.00000000000E+00  0.15947645014E+02  0.15947645014E+02  0.00000000000E+00 0. -1.
         21   -1    0    0  502  503 -0.00000000000E+00 -0.00000000000E+00 -0.29350566619E+02  0.29350566619E+02  0.00000000000E+00 0. -1.
          3    1    1    2  501    0 -0.32942283455E+01  0.20125347970E+02  0.86149747932E+00  0.20411363237E+02  0.00000000000E+00 0.  1.
         -3    1    1    2    0  503  0.32942283455E+01 -0.20125347970E+02 -0.14264419084E+02  0.24886848396E+02  0.00000000000E+00 0. -1.
<mgrwt>
<rscale>  2 0.20393175E+02</rscale>
<asrwt>0</asrwt>
<pdfrwt beam="1">  1       21 0.24534839E-02 0.20393175E+02</pdfrwt>
<pdfrwt beam="2">  1       21 0.45154717E-02 0.20393175E+02</pdfrwt>
<totfact> 0.17724198E+08</totfact>
</mgrwt>
</event>
<event>
 4    1  0.7119201E+004  0.2279710E+02  0.7546771E-02  0.1694820E+00
         21   -1    0    0  501  502  0.00000000000E+00  0.00000000000E+00  0.30951405256E+03  0.30951405256E+03  0.00000000000E+00 0. -1.
         21   -1    0    0  502  503 -0.00000000000E+00 -0.00000000000E+00 -0.17213228587E+01  0.17213228587E+01  0.00000000000E+00 0. -1.
          5    1    1    2  501    0 -0.20734885197E+02  0.94748189554E+01  0.17826651417E+03  0.17971827323E+03  0.00000000000E+00 0.  1.
         -5    1    1    2    0  503  0.20734885197E+02 -0.94748189554E+01  0.12952621553E+03  0.13151710219E+03  0.00000000000E+00 0. -1.
<mgrwt>
<rscale>  2 0.22797098E+02</rscale>
<asrwt>0</asrwt>
<pdfrwt beam="1">  1       21 0.47617502E-01 0.22797098E+02</pdfrwt>
<pdfrwt beam="2">  1       21 0.26481915E-03 0.22797098E+02</pdfrwt>
<totfact> 0.89436170E+07</totfact>
</mgrwt>
</event>
<event>
 4    1  0.7119201E+004  0.5850627E+02  0.7546771E-02  0.1404209E+00
         21   -1    0    0  503  502  0.00000000000E+00  0.00000000000E+00  0.13922020072E+03  0.13922020072E+03  0.00000000000E+00 0. -1.
         21   -1    0    0  501  503 -0.00000000000E+00 -0.00000000000E+00 -0.25583380041E+02  0.25583380041E+02  0.00000000000E+00 0. -1.
          4    1    1    2  501    0 -0.17834637757E+02 -0.55721709574E+02  0.40555153025E+02  0.71187805548E+02  0.00000000000E+00 0.  1.
         -4    1    1    2    0  502  0.17834637757E+02  0.55721709574E+02  0.73081667654E+02  0.93615775214E+02  0.00000000000E+00 0. -1.
<mgrwt>
<rscale>  2 0.58506267E+02</rscale>
<asrwt>0</asrwt>
<pdfrwt beam="1">  1       21 0.21418492E-01 0.58506267E+02</pdfrwt>
<pdfrwt beam="2">  1       21 0.39359047E-02 0.58506267E+02</pdfrwt>
<totfact> 0.75383034E+06</totfact>
</mgrwt>
</event>
<event>
 4    1  0.7119201E+004  0.2139871E+02  0.7546771E-02  0.1718863E+00
         21   -1    0    0  501  502  0.00000000000E+00  0.00000000000E+00  0.99664685793E+00  0.99664685793E+00  0.00000000000E+00 0. -1.
         21   -1    0    0  502  503 -0.00000000000E+00 -0.00000000000E+00 -0.53477826890E+03  0.53477826890E+03  0.00000000000E+00 0. -1.
          1    1    1    2  501    0  0.14555160566E+02 -0.15686050237E+02 -0.36743514335E+03  0.36805772569E+03  0.00000000000E+00 0.  1.
         -1    1    1    2    0  503 -0.14555160566E+02  0.15686050237E+02 -0.16634647869E+03  0.16771719006E+03  0.00000000000E+00 0. -1.
<mgrwt>
<rscale>  2 0.21398712E+02</rscale>
<asrwt>0</asrwt>
<pdfrwt beam="1">  1       21 0.15333059E-03 0.21398712E+02</pdfrwt>
<pdfrwt beam="2">  1       21 0.82273415E-01 0.21398712E+02</pdfrwt>
<totfact> 0.64465727E+07</totfact>
</mgrwt>
</event>
<event>
 4    1  0.7119201E+004  0.2035791E+02  0.7546771E-02  0.1738303E+00
         21   -1    0    0  503  502  0.00000000000E+00  0.00000000000E+00  0.11318812220E+02  0.11318812220E+02  0.00000000000E+00 0. -1.
         21   -1    0    0  501  503 -0.00000000000E+00 -0.00000000000E+00 -0.39519140353E+02  0.39519140353E+02  0.00000000000E+00 0. -1.
          4    1    1    2  501    0 -0.13862465697E+00  0.20357433482E+02 -0.72100971847E+01  0.21596986275E+02  0.00000000000E+00 0.  1.
         -4    1    1    2    0  502  0.13862465697E+00 -0.20357433482E+02 -0.20990230948E+02  0.29240966297E+02  0.00000000000E+00 0. -1.
<mgrwt>
<rscale>  2 0.20357905E+02</rscale>
<asrwt>0</asrwt>
<pdfrwt beam="1">  1       21 0.17413557E-02 0.20357905E+02</pdfrwt>
<pdfrwt beam="2">  1       21 0.60798677E-02 0.20357905E+02</pdfrwt>
<totfact> 0.18658647E+08</totfact>
</mgrwt>
</event>
<event>
 4    1  0.7119201E+004  0.2134701E+02  0.7546771E-02  0.1719796E+00
         21   -1    0    0  501  502  0.00000000000E+00  0.00000000000E+00  0.25344462552E+02  0.25344462552E+02  0.00000000000E+00 0.  1.
         21   -1    0    0  502  503 -0.00000000000E+00 -0.00000000000E+00 -0.19895113924E+02  0.19895113924E+02  0.00000000000E+00 0.  1.
          3    1    1    2  501    0 -0.12712561663E+02 -0.17148927859E+02  0.97425529389E+01  0.23465129203E+02  0.00000000000E+00 0.  1.
         -3    1    1    2    0  503  0.12712561663E+02  0.17148927859E+02 -0.42932043111E+01  0.21774447272E+02  0.00000000000E+00 0. -1.
<mgrwt>
<rscale>  2 0.21347013E+02</rscale>
<asrwt>0</asrwt>
<pdfrwt beam="1">  1       21 0.38991481E-02 0.21347013E+02</pdfrwt>
<pdfrwt beam="2">  1       21 0.30607867E-02 0.21347013E+02</pdfrwt>
<totfact> 0.16091167E+08</totfact>
</mgrwt>
</event>
<event>
 4    1  0.7119201E+004  0.2704708E+02  0.7546771E-02  0.1633228E+00
         21   -1    0    0  503  502  0.00000000000E+00  0.00000000000E+00  0.99412291040E+03  0.99412291040E+03  0.00000000000E+00 0. -1.
         21   -1    0    0  501  503 -0.00000000000E+00 -0.00000000000E+00 -0.82098050105E+00  0.82098050105E+00  0.00000000000E+00 0. -1.
          4    1    1    2  501    0  0.17022855326E+02 -0.21018248015E+02  0.33647550233E+03  0.33756082122E+03  0.00000000000E+00 0. -1.
         -4    1    1    2    0  502 -0.17022855326E+02  0.21018248015E+02  0.65682642757E+03  0.65738306968E+03  0.00000000000E+00 0.  1.
<mgrwt>
<rscale>  2 0.27047077E+02</rscale>
<asrwt>0</asrwt>
<pdfrwt beam="1">  1       21 0.15294102E+00 0.27047077E+02</pdfrwt>
<pdfrwt beam="2">  1       21 0.12630549E-03 0.27047077E+02</pdfrwt>
<totfact> 0.22191446E+07</totfact>
</mgrwt>
</event>
<event>
 4    1  0.7119201E+004  0.2905697E+02  0.7546771E-02  0.1608753E+00
         21   -1    0    0  503  502  0.00000000000E+00  0.00000000000E+00  0.71695012146E+02  0.71695012146E+02  0.00000000000E+00 0.  1.
         21   -1    0    0  501  503 -0.00000000000E+00 -0.00000000000E+00 -0.11914918380E+02  0.11914918380E+02  0.00000000000E+00 0.  1.
          5    1    1    2  501    0 -0.91471580883E+01  0.27579645011E+02  0.25382130544E+02  0.38581859351E+02  0.00000000000E+00 0.  1.
         -5    1    1    2    0  502  0.91471580883E+01 -0.27579645011E+02  0.34397963221E+02  0.45028071175E+02  0.00000000000E+00 0. -1.
<mgrwt>
<rscale>  2 0.29056967E+02</rscale>
<asrwt>0</asrwt>
<pdfrwt beam="1">  1       21 0.11030002E-01 0.29056967E+02</pdfrwt>
<pdfrwt beam="2">  1       21 0.18330644E-02 0.29056967E+02</pdfrwt>
<totfact> 0.71832482E+07</totfact>
</mgrwt>
</event>
<event>
 4    1  0.7119201E+004  0.3467021E+02  0.7546771E-02  0.1551549E+00
         21   -1    0    0  503  502  0.00000000000E+00  0.00000000000E+00  0.73001677971E+03  0.73001677971E+03  0.00000000000E+00 0. -1.
         21   -1    0    0  501  503 -0.00000000000E+00 -0.00000000000E+00 -0.22011866514E+01  0.22011866514E+01  0.00000000000E+00 0. -1.
          2    1    1    2  501    0  0.16512232769E+01 -0.34630871604E+02  0.18013621169E+03  0.18344230310E+03  0.00000000000E+00 0.  1.
         -2    1    1    2    0  502 -0.16512232769E+01  0.34630871604E+02  0.54767938137E+03  0.54877566326E+03  0.00000000000E+00 0. -1.
<mgrwt>
<rscale>  2 0.34670215E+02</rscale>
<asrwt>0</asrwt>
<pdfrwt beam="1">  1       21 0.11231008E+00 0.34670215E+02</pdfrwt>
<pdfrwt beam="2">  1       21 0.33864468E-03 0.34670215E+02</pdfrwt>
<totfact> 0.11227954E+07</totfact>
</mgrwt>
</event>
<event>
 4    1  0.7119201E+004  0.2099049E+02  0.7546771E-02  0.1726319E+00
         21   -1    0    0  501  502  0.00000000000E+00  0.00000000000E+00  0.19898029788E+01  0.19898029788E+01  0.00000000000E+00 0. -1.
         21   -1    0    0  502  503 -0.00000000000E+00 -0.00000000000E+00 -0.31773984237E+03  0.31773984237E+03  0.00000000000E+00 0. -1.
          4    1    1    2  501    0 -0.13684051818E+02 -0.15916893856E+02 -0.24588944741E+03  0.24678375378E+03  0.00000000000E+00 0.  1.
         -4    1    1    2    0  503  0.13684051818E+02  0.15916893856E+02 -0.69860591979E+02  0.72945891562E+02  0.00000000000E+00 0. -1.
<mgrwt>
<rscale>  2 0.20990493E+02</rscale>
<asrwt>0</asrwt>
<pdfrwt beam="1">  1       21 0.30612345E-03 0.20990493E+02</pdfrwt>
<pdfrwt beam="2">  1       21 0.48883066E-01 0.20990493E+02</pdfrwt>
<totfact> 0.67436635E+07</totfact>
</mgrwt>
</event>
<event>
 4    1  0.7119201E+004  0.2897300E+02  0.7546771E-02  0.1609726E+00
         21   -1    0    0  501  502  0.00000000000E+00  0.00000000000E+00  0.29796474146E+00  0.29796474146E+00  0.00000000000E+00 0.  1.
         21   -1    0    0  502  503 -0.00000000000E+00 -0.00000000000E+00 -0.29488250601E+04  0.29488250601E+04  0.00000000000E+00 0.  1.
          2    1    1    2  501    0  0.28717168103E+02 -0.38417088923E+01 -0.11627605234E+04  0.11631214336E+04  0.00000000000E+00 0. -1.
         -2    1    1    2    0  503 -0.28717168103E+02  0.38417088923E+01 -0.17857665719E+04  0.17860015913E+04  0.00000000000E+00 0.  1.
<mgrwt>
<rscale>  2 0.28972996E+02</rscale>
<asrwt>0</asrwt>
<pdfrwt beam="1">  1       21 0.45840353E-04 0.28972996E+02</pdfrwt>
<pdfrwt beam="2">  1       21 0.45366912E+00 0.28972996E+02</pdfrwt>
<totfact> 0.21847446E+06</totfact>
</mgrwt>
</event>
<event>
 4    1  0.7119201E+004  0.2105190E+02  0.7546771E-02  0.1725184E+00
         21   -1    0    0  501  502  0.00000000000E+00  0.00000000000E+00  0.28510692280E+03  0.28510692280E+03  0.00000000000E+00 0.  1.
         21   -1    0    0  502  503 -0.00000000000E+00 -0.00000000000E+00 -0.15698490951E+01  0.15698490951E+01  0.00000000000E+00 0.  1.
          1    1    1    2  501    0 -0.19630394623E+02 -0.76046007684E+01  0.15596844396E+03  0.15738277497E+03  0.00000000000E+00 0. -1.
         -1    1    1    2    0  503  0.19630394623E+02  0.76046007684E+01  0.12756862974E+03  0.12929399692E+03  0.00000000000E+00 0.  1.
<mgrwt>
<rscale>  2 0.21051896E+02</rscale>
<asrwt>0</asrwt>
<pdfrwt beam="1">  1       21 0.43862562E-01 0.21051896E+02</pdfrwt>
<pdfrwt beam="2">  1       21 0.24151547E-03 0.21051896E+02</pdfrwt>
<totfact> 0.11710452E+08</totfact>
</mgrwt>
</event>
<event>
 4    1  0.7119201E+004  0.2004696E+02  0.7546771E-02  0.1744396E+00
         21   -1    0    0  503  502  0.00000000000E+00  0.00000000000E+00  0.14684440031E+02  0.14684440031E+02  0.00000000000E+00 0.  1.
         21   -1    0    0  501  503 -0.00000000000E+00 -0.00000000000E+00 -0.33250658278E+02  0.33250658278E+02  0.00000000000E+00 0.  1.
          5    1    1    2  501    0 -0.17748515248E+02 -0.93204497707E+01 -0.19364450018E+02  0.27872253262E+02  0.00000000000E+00 0.  1.
         -5    1    1    2    0  502  0.17748515248E+02  0.93204497707E+01  0.79823177101E+00  0.20062845047E+02  0.00000000000E+00 0. -1.
<mgrwt>
<rscale>  2 0.20046959E+02</rscale>
<asrwt>0</asrwt>
<pdfrwt beam="1">  1       21 0.22591446E-02 0.20046959E+02</pdfrwt>
<pdfrwt beam="2">  1       21 0.51154858E-02 0.20046959E+02</pdfrwt>
<totfact> 0.16424983E+08</totfact>
</mgrwt>
</event>
<event>
 4    1  0.7119201E+004  0.2717844E+02  0.7546771E-02  0.1631550E+00
         21   -1    0    0  503  502  0.00000000000E+00  0.00000000000E+00  0.58176920808E+01  0.58176920808E+01  0.00000000000E+00 0. -1.
         21   -1    0    0  501  503 -0.00000000000E+00 -0.00000000000E+00 -0.14107618244E+03  0.14107618244E+03  0.00000000000E+00 0. -1.
          2    1    1    2  501    0  0.15054257411E+02 -0.22628235032E+02 -0.90854685869E+02  0.94832703385E+02  0.00000000000E+00 0.  1.
         -2    1    1    2    0  502 -0.15054257411E+02  0.22628235032E+02 -0.44403804487E+02  0.52061171133E+02  0.00000000000E+00 0. -1.
<mgrwt>
<rscale>  2 0.27178442E+02</rscale>
<asrwt>0</asrwt>
<pdfrwt beam="1">  1       21 0.89502950E-03 0.27178442E+02</pdfrwt>
<pdfrwt beam="2">  1       21 0.21704029E-01 0.27178442E+02</pdfrwt>
<totfact> 0.65671214E+07</totfact>
</mgrwt>
</event>
<event>
 4    1  0.7119201E+004  0.2275630E+02  0.7546771E-02  0.1695491E+00
         21   -1    0    0  501  502  0.00000000000E+00  0.00000000000E+00  0.19931243305E+04  0.19931243305E+04  0.00000000000E+00 0. -1.
         21   -1    0    0  502  503 -0.00000000000E+00 -0.00000000000E+00 -0.30689402789E+00  0.30689402789E+00  0.00000000000E+00 0. -1.
          1    1    1    2  501    0 -0.22539786661E+01  0.22644393321E+02  0.60603699071E+03  0.60646408226E+03  0.00000000000E+00 0.  1.
         -1    1    1    2    0  503  0.22539786661E+01 -0.22644393321E+02  0.13867804458E+04  0.13869671423E+04  0.00000000000E+00 0. -1.
<mgrwt>
<rscale>  2 0.22756295E+02</rscale>
<asrwt>0</asrwt>
<pdfrwt beam="1">  1       21 0.30662415E+00 0.22756295E+02</pdfrwt>
<pdfrwt beam="2">  1       21 0.47216062E-04 0.22756295E+02</pdfrwt>
<totfact> 0.13055098E+07</totfact>
</mgrwt>
</event>
<event>
 4    1  0.7119201E+004  0.2673043E+02  0.7546771E-02  0.1637323E+00
         21   -1    0    0  501  502  0.00000000000E+00  0.00000000000E+00  0.15430659594E+01  0.15430659594E+01  0.00000000000E+00 0. -1.
         21   -1    0    0  502  503 -0.00000000000E+00 -0.00000000000E+00 -0.48045461486E+03  0.48045461486E+03  0.00000000000E+00 0. -1.
          1    1    1    2  501    0  0.82423304055E+01  0.25427931259E+02 -0.19358574563E+03  0.19542250794E+03  0.00000000000E+00 0. -1.
         -1    1    1    2    0  503 -0.82423304055E+01 -0.25427931259E+02 -0.28532580328E+03  0.28657517288E+03  0.00000000000E+00 0.  1.
<mgrwt>
<rscale>  2 0.26730426E+02</rscale>
<asrwt>0</asrwt>
<pdfrwt beam="1">  1       21 0.23739519E-03 0.26730426E+02</pdfrwt>
<pdfrwt beam="2">  1       21 0.73915963E-01 0.26730426E+02</pdfrwt>
<totfact> 0.45075760E+07</totfact>
</mgrwt>
</event>
<event>
 4    1  0.7119201E+004  0.2237283E+02  0.7546771E-02  0.1701883E+00
         21   -1    0    0  503  502  0.00000000000E+00  0.00000000000E+00  0.47014305051E+02  0.47014305051E+02  0.00000000000E+00 0. -1.
         21   -1    0    0  501  503 -0.00000000000E+00 -0.00000000000E+00 -0.10780721187E+02  0.10780721187E+02  0.00000000000E+00 0. -1.
          4    1    1    2  501    0 -0.20487917544E+02 -0.89882446527E+01  0.14893813043E+02  0.26876922707E+02  0.00000000000E+00 0.  1.
         -4    1    1    2    0  502  0.20487917544E+02  0.89882446527E+01  0.21339770821E+02  0.30918103531E+02  0.00000000000E+00 0. -1.
<mgrwt>
<rscale>  2 0.22372825E+02</rscale>
<asrwt>0</asrwt>
<pdfrwt beam="1">  1       21 0.72329699E-02 0.22372825E+02</pdfrwt>
<pdfrwt beam="2">  1       21 0.16585725E-02 0.22372825E+02</pdfrwt>
<totfact> 0.15647862E+08</totfact>
</mgrwt>
</event>
<event>
 4    1  0.7119201E+004  0.2356671E+02  0.7546771E-02  0.1682485E+00
         21   -1    0    0  503  502  0.00000000000E+00  0.00000000000E+00  0.20283258634E+03  0.20283258634E+03  0.00000000000E+00 0. -1.
         21   -1    0    0  501  503 -0.00000000000E+00 -0.00000000000E+00 -0.28514379391E+01  0.28514379391E+01  0.00000000000E+00 0. -1.
          4    1    1    2  501    0  0.64955946137E+01 -0.22653857265E+02  0.12048770588E+03  0.12277083231E+03  0.00000000000E+00 0. -1.
         -4    1    1    2    0  502 -0.64955946137E+01  0.22653857265E+02  0.79493442522E+02  0.82913191969E+02  0.00000000000E+00 0.  1.
<mgrwt>
<rscale>  2 0.23566714E+02</rscale>
<asrwt>0</asrwt>
<pdfrwt beam="1">  1       21 0.31205002E-01 0.23566714E+02</pdfrwt>
<pdfrwt beam="2">  1       21 0.43868292E-03 0.23566714E+02</pdfrwt>
<totfact> 0.95352394E+07</totfact>
</mgrwt>
</event>
<event>
 4    1  0.7119201E+004  0.2731051E+02  0.7546771E-02  0.1629874E+00
         21   -1    0    0  503  502  0.00000000000E+00  0.00000000000E+00  0.39100375350E+03  0.39100375350E+03  0.00000000000E+00 0.  1.
         21   -1    0    0  501  503 -0.00000000000E+00 -0.00000000000E+00 -0.19102726346E+01  0.19102726346E+01  0.00000000000E+00 0.  1.
          4    1    1    2  501    0  0.21492249521E+02 -0.16850731379E+02  0.20194701935E+03  0.20378533451E+03  0.00000000000E+00 0.  1.
         -4    1    1    2    0  502 -0.21492249521E+02  0.16850731379E+02  0.18714646151E+03  0.18912869162E+03  0.00000000000E+00 0. -1.
<mgrwt>
<rscale>  2 0.27310510E+02</rscale>
<asrwt>0</asrwt>
<pdfrwt beam="1">  1       21 0.60154360E-01 0.27310510E+02</pdfrwt>
<pdfrwt beam="2">  1       21 0.29388841E-03 0.27310510E+02</pdfrwt>
<totfact> 0.50550030E+07</totfact>
</mgrwt>
</event>
<event>
 4    1  0.7119201E+004  0.2224305E+02  0.7546771E-02  0.1704082E+00
         21   -1    0    0  501  502  0.00000000000E+00  0.00000000000E+00  0.30270036951E+01  0.30270036951E+01  0.00000000000E+00 0. -1.
         21   -1    0    0  502  503 -0.00000000000E+00 -0.00000000000E+00 -0.23279120998E+03  0.23279120998E+03  0.00000000000E+00 0. -1.
          2    1    1    2  501    0 -0.11409379942E+02  0.19093956397E+02 -0.17923539512E+03  0.18061029867E+03  0.00000000000E+00 0. -1.
         -2    1    1    2    0  503  0.11409379942E+02 -0.19093956397E+02 -0.50528811163E+02  0.55207915004E+02  0.00000000000E+00 0.  1.
<mgrwt>
<rscale>  2 0.22243047E+02</rscale>
<asrwt>0</asrwt>
<pdfrwt beam="1">  1       21 0.46569275E-03 0.22243047E+02</pdfrwt>
<pdfrwt beam="2">  1       21 0.35814042E-01 0.22243047E+02</pdfrwt>
<totfact> 0.66748698E+07</totfact>
</mgrwt>
</event>
<event>
 4    1  0.7119201E+004  0.2354678E+02  0.7546771E-02  0.1682797E+00
         21   -1    0    0  501  502  0.00000000000E+00  0.00000000000E+00  0.31535671734E+03  0.31535671734E+03  0.00000000000E+00 0. -1.
         21   -1    0    0  502  503 -0.00000000000E+00 -0.00000000000E+00 -0.19713363550E+01  0.19713363550E+01  0.00000000000E+00 0. -1.
          1    1    1    2  501    0 -0.22613201289E+02  0.65645936319E+01  0.10451831018E+03  0.10713789210E+03  0.00000000000E+00 0.  1.
         -1    1    1    2    0  503  0.22613201289E+02 -0.65645936319E+01  0.20886707081E+03  0.21019016159E+03  0.00000000000E+00 0. -1.
<mgrwt>
<rscale>  2 0.23546778E+02</rscale>
<asrwt>0</asrwt>
<pdfrwt beam="1">  1       21 0.48516378E-01 0.23546778E+02</pdfrwt>
<pdfrwt beam="2">  1       21 0.30328277E-03 0.23546778E+02</pdfrwt>
<totfact> 0.71387468E+07</totfact>
</mgrwt>
</event>
<event>
 4    1  0.7119201E+004  0.2018553E+02  0.7546771E-02  0.1741663E+00
         21   -1    0    0  501  502  0.00000000000E+00  0.00000000000E+00  0.94158796452E+01  0.94158796452E+01  0.00000000000E+00 0. -1.
         21   -1    0    0  502  503 -0.00000000000E+00 -0.00000000000E+00 -0.65657070595E+02  0.65657070595E+02  0.00000000000E+00 0. -1.
          1    1    1    2  501    0  0.13302133136E+02  0.15182523955E+02 -0.62036626266E+01  0.21117320133E+02  0.00000000000E+00 0. -1.
         -1    1    1    2    0  503 -0.13302133136E+02 -0.15182523955E+02 -0.50037528323E+02  0.53955630107E+02  0.00000000000E+00 0.  1.
<mgrwt>
<rscale>  2 0.20185534E+02</rscale>
<asrwt>0</asrwt>
<pdfrwt beam="1">  1       21 0.14485969E-02 0.20185534E+02</pdfrwt>
<pdfrwt beam="2">  1       21 0.10101088E-01 0.20185534E+02</pdfrwt>
<totfact> 0.10797925E+08</totfact>
</mgrwt>
</event>
<event>
 4    1  0.7119201E+004  0.3211244E+02  0.7546771E-02  0.1575847E+00
         21   -1    0    0  501  502  0.00000000000E+00  0.00000000000E+00  0.48971705694E+02  0.48971705694E+02  0.00000000000E+00 0.  1.
         21   -1    0    0  502  503 -0.00000000000E+00 -0.00000000000E+00 -0.27028138147E+02  0.27028138147E+02  0.00000000000E+00 0.  1.
          4    1    1    2  501    0  0.31738476730E+02 -0.48865001803E+01  0.28832324280E+02  0.43156826951E+02  0.00000000000E+00 0. -1.
         -4    1    1    2    0  503 -0.31738476730E+02  0.48865001803E+01 -0.68887567323E+01  0.32843016890E+02  0.00000000000E+00 0.  1.
<mgrwt>
<rscale>  2 0.32112440E+02</rscale>
<asrwt>0</asrwt>
<pdfrwt beam="1">  1       21 0.75341086E-02 0.32112440E+02</pdfrwt>
<pdfrwt beam="2">  1       21 0.41581751E-02 0.32112440E+02</pdfrwt>
<totfact> 0.38283947E+07</totfact>
</mgrwt>
</event>
<event>
 4    1  0.7119201E+004  0.2901862E+02  0.7546771E-02  0.1609197E+00
         21   -1    0    0  503  502  0.00000000000E+00  0.00000000000E+00  0.40581949538E+02  0.40581949538E+02  0.00000000000E+00 0. -1.
         21   -1    0    0  501  503 -0.00000000000E+00 -0.00000000000E+00 -0.20955241098E+02  0.20955241098E+02  0.00000000000E+00 0. -1.
          5    1    1    2  501    0 -0.26982643394E+02 -0.10677897191E+02  0.67692394531E+01  0.29797703531E+02  0.00000000000E+00 0. -1.
         -5    1    1    2    0  502  0.26982643394E+02  0.10677897191E+02  0.12857468987E+02  0.31739487105E+02  0.00000000000E+00 0.  1.
<mgrwt>
<rscale>  2 0.29018624E+02</rscale>
<asrwt>0</asrwt>
<pdfrwt beam="1">  1       21 0.62433768E-02 0.29018624E+02</pdfrwt>
<pdfrwt beam="2">  1       21 0.32238833E-02 0.29018624E+02</pdfrwt>
<totfact> 0.76232864E+07</totfact>
</mgrwt>
</event>
<event>
 4    1  0.7119201E+004  0.2287437E+02  0.7546771E-02  0.1693555E+00
         21   -1    0    0  503  502  0.00000000000E+00  0.00000000000E+00  0.84825643039E+03  0.84825643039E+03  0.00000000000E+00 0. -1.
         21   -1    0    0  501  503 -0.00000000000E+00 -0.00000000000E+00 -0.63485197225E+00  0.63485197225E+00  0.00000000000E+00 0. -1.
          5    1    1    2  501    0 -0.21862812619E+02 -0.67271122698E+01  0.49530867729E+03  0.49583658842E+03  0.00000000000E+00 0. -1.
         -5    1    1    2    0  502  0.21862812619E+02  0.67271122698E+01  0.35231290113E+03  0.35305469394E+03  0.00000000000E+00 0.  1.
<mgrwt>
<rscale>  2 0.22874366E+02</rscale>
<asrwt>0</asrwt>
<pdfrwt beam="1">  1       21 0.13050008E+00 0.22874366E+02</pdfrwt>
<pdfrwt beam="2">  1       21 0.97670213E-04 0.22874366E+02</pdfrwt>
<totfact> 0.45176329E+07</totfact>
</mgrwt>
</event>
<event>
 4    1  0.7119201E+004  0.2862757E+02  0.7546771E-02  0.1613774E+00
         21   -1    0    0  503  502  0.00000000000E+00  0.00000000000E+00  0.88368749794E+03  0.88368749794E+03  0.00000000000E+00 0. -1.
         21   -1    0    0  501  503 -0.00000000000E+00 -0.00000000000E+00 -0.11186257192E+01  0.11186257192E+01  0.00000000000E+00 0. -1.
          5    1    1    2  501    0 -0.18801192925E+02  0.21588258055E+02  0.62419602491E+03  0.62485215472E+03  0.00000000000E+00 0.  1.
         -5    1    1    2    0  502  0.18801192925E+02 -0.21588258055E+02  0.25837284731E+03  0.25995396894E+03  0.00000000000E+00 0. -1.
<mgrwt>
<rscale>  2 0.28627570E+02</rscale>
<asrwt>0</asrwt>
<pdfrwt beam="1">  1       21 0.13595136E+00 0.28627570E+02</pdfrwt>
<pdfrwt beam="2">  1       21 0.17209697E-03 0.28627570E+02</pdfrwt>
<totfact> 0.18948621E+07</totfact>
</mgrwt>
</event>
<event>
 4    1  0.7119201E+004  0.3302620E+02  0.7546771E-02  0.1566861E+00
         21   -1    0    0  501  502  0.00000000000E+00  0.00000000000E+00  0.73734605421E+00  0.73734605421E+00  0.00000000000E+00 0.  1.
         21   -1    0    0  502  503 -0.00000000000E+00 -0.00000000000E+00 -0.16852660235E+04  0.16852660235E+04  0.00000000000E+00 0.  1.
          3    1    1    2  501    0  0.32962785936E+02  0.20456230323E+01 -0.11369977993E+04  0.11374773516E+04  0.00000000000E+00 0. -1.
         -3    1    1    2    0  503 -0.32962785936E+02 -0.20456230323E+01 -0.54753087822E+03  0.54852601801E+03  0.00000000000E+00 0.  1.
<mgrwt>
<rscale>  2 0.33026199E+02</rscale>
<asrwt>0</asrwt>
<pdfrwt beam="1">  1       21 0.11343795E-03 0.33026199E+02</pdfrwt>
<pdfrwt beam="2">  1       21 0.25927148E+00 0.33026199E+02</pdfrwt>
<totfact> 0.64943400E+06</totfact>
</mgrwt>
</event>
<event>
 4    1  0.7119201E+004  0.2026220E+02  0.7546771E-02  0.1740164E+00
         21   -1    0    0  501  502  0.00000000000E+00  0.00000000000E+00  0.33854480515E+03  0.33854480515E+03  0.00000000000E+00 0.  1.
         21   -1    0    0  502  503 -0.00000000000E+00 -0.00000000000E+00 -0.12973547911E+01  0.12973547911E+01  0.00000000000E+00 0.  1.
          5    1    1    2  501    0 -0.18106509510E+02 -0.90945603281E+01  0.12522093309E+03  0.12684967007E+03  0.00000000000E+00 0.  1.
         -5    1    1    2    0  503  0.18106509510E+02  0.90945603281E+01  0.21202651727E+03  0.21299248987E+03  0.00000000000E+00 0. -1.
<mgrwt>
<rscale>  2 0.20262199E+02</rscale>
<asrwt>0</asrwt>
<pdfrwt beam="1">  1       21 0.52083746E-01 0.20262199E+02</pdfrwt>
<pdfrwt beam="2">  1       21 0.19959331E-03 0.20262199E+02</pdfrwt>
<totfact> 0.10963717E+08</totfact>
</mgrwt>
</event>
<event>
 4    1  0.7119201E+004  0.2016651E+02  0.7546771E-02  0.1742037E+00
         21   -1    0    0  501  502  0.00000000000E+00  0.00000000000E+00  0.65397720309E+01  0.65397720309E+01  0.00000000000E+00 0. -1.
         21   -1    0    0  502  503 -0.00000000000E+00 -0.00000000000E+00 -0.65482423311E+02  0.65482423311E+02  0.00000000000E+00 0. -1.
          1    1    1    2  501    0 -0.80077572530E+01 -0.18508486366E+02 -0.37549909365E+02  0.42622575440E+02  0.00000000000E+00 0. -1.
         -1    1    1    2    0  503  0.80077572530E+01  0.18508486366E+02 -0.21392741915E+02  0.29399619903E+02  0.00000000000E+00 0.  1.
<mgrwt>
<rscale>  2 0.20166513E+02</rscale>
<asrwt>0</asrwt>
<pdfrwt beam="1">  1       21 0.10061187E-02 0.20166513E+02</pdfrwt>
<pdfrwt beam="2">  1       21 0.10074219E-01 0.20166513E+02</pdfrwt>
<totfact> 0.18750547E+08</totfact>
</mgrwt>
</event>
<event>
 4    1  0.7119201E+004  0.3350854E+02  0.7546771E-02  0.1562258E+00
         21   -1    0    0  503  502  0.00000000000E+00  0.00000000000E+00  0.80774712337E+02  0.80774712337E+02  0.00000000000E+00 0. -1.
         21   -1    0    0  501  503 -0.00000000000E+00 -0.00000000000E+00 -0.51499655792E+02  0.51499655792E+02  0.00000000000E+00 0. -1.
          4    1    1    2  501    0 -0.14993353129E+02  0.29967012322E+02 -0.41873292222E+02  0.53630169374E+02  0.00000000000E+00 0. -1.
         -4    1    1    2    0  502  0.14993353129E+02 -0.29967012322E+02  0.71148348767E+02  0.78644198755E+02  0.00000000000E+00 0.  1.
<mgrwt>
<rscale>  2 0.33508543E+02</rscale>
<asrwt>0</asrwt>
<pdfrwt beam="1">  1       21 0.12426879E-01 0.33508543E+02</pdfrwt>
<pdfrwt beam="2">  1       21 0.79230239E-02 0.33508543E+02</pdfrwt>
<totfact> 0.58513942E+06</totfact>
</mgrwt>
</event>
<event>
 4    1  0.7119201E+004  0.2189513E+02  0.7546771E-02  0.1710072E+00
         21   -1    0    0  501  502  0.00000000000E+00  0.00000000000E+00  0.17375986084E+02  0.17375986084E+02  0.00000000000E+00 0.  1.
         21   -1    0    0  502  503 -0.00000000000E+00 -0.00000000000E+00 -0.29777064353E+02  0.29777064353E+02  0.00000000000E+00 0.  1.
          2    1    1    2  501    0  0.21894665268E+02 -0.14248113123E+00 -0.12590650434E+02  0.25257100911E+02  0.00000000000E+00 0.  1.
         -2    1    1    2    0  503 -0.21894665268E+02  0.14248113123E+00  0.18957216393E+00  0.21895949527E+02  0.00000000000E+00 0. -1.
<mgrwt>
<rscale>  2 0.21895129E+02</rscale>
<asrwt>0</asrwt>
<pdfrwt beam="1">  1       21 0.26732287E-02 0.21895129E+02</pdfrwt>
<pdfrwt beam="2">  1       21 0.45810868E-02 0.21895129E+02</pdfrwt>
<totfact> 0.15519306E+08</totfact>
</mgrwt>
</event>
<event>
 4    1  0.7119201E+004  0.2137998E+02  0.7546771E-02  0.1719201E+00
         21   -1    0    0  501  502  0.00000000000E+00  0.00000000000E+00  0.10729886480E+03  0.10729886480E+03  0.00000000000E+00 0. -1.
         21   -1    0    0  502  503 -0.00000000000E+00 -0.00000000000E+00 -0.45285562043E+01  0.45285562043E+01  0.00000000000E+00 0. -1.
          1    1    1    2  501    0  0.11859567656E+02  0.17789165274E+02  0.37771451373E+02  0.43402606891E+02  0.00000000000E+00 0.  1.
         -1    1    1    2    0  503 -0.11859567656E+02 -0.17789165274E+02  0.64998857219E+02  0.68424814110E+02  0.00000000000E+00 0. -1.
<mgrwt>
<rscale>  2 0.21379985E+02</rscale>
<asrwt>0</asrwt>
<pdfrwt beam="1">  1       21 0.16507516E-01 0.21379985E+02</pdfrwt>
<pdfrwt beam="2">  1       21 0.69670104E-03 0.21379985E+02</pdfrwt>
<totfact> 0.14419435E+08</totfact>
</mgrwt>
</event>
<event>
 4    1  0.7119201E+004  0.2130492E+02  0.7546771E-02  0.1720558E+00
         21   -1    0    0  501  502  0.00000000000E+00  0.00000000000E+00  0.33624088896E+02  0.33624088896E+02  0.00000000000E+00 0. -1.
         21   -1    0    0  502  503 -0.00000000000E+00 -0.00000000000E+00 -0.13768741881E+02  0.13768741881E+02  0.00000000000E+00 0. -1.
          1    1    1    2  501    0 -0.20966910591E+02  0.37799933236E+01  0.66124303830E+01  0.22307485848E+02  0.00000000000E+00 0. -1.
         -1    1    1    2    0  503  0.20966910591E+02 -0.37799933236E+01  0.13242916632E+02  0.25085344929E+02  0.00000000000E+00 0.  1.
<mgrwt>
<rscale>  2 0.21304922E+02</rscale>
<asrwt>0</asrwt>
<pdfrwt beam="1">  1       21 0.51729367E-02 0.21304922E+02</pdfrwt>
<pdfrwt beam="2">  1       21 0.21182680E-02 0.21304922E+02</pdfrwt>
<totfact> 0.18159755E+08</totfact>
</mgrwt>
</event>
<event>
 4    1  0.7119201E+004  0.2529578E+02  0.7546771E-02  0.1656789E+00
         21   -1    0    0  501  502  0.00000000000E+00  0.00000000000E+00  0.84446510602E+01  0.84446510602E+01  0.00000000000E+00 0. -1.
         21   -1    0    0  502  503 -0.00000000000E+00 -0.00000000000E+00 -0.76368964858E+02  0.76368964858E+02  0.00000000000E+00 0. -1.
          2    1    1    2  501    0  0.22063271204E+02  0.12372897000E+02 -0.37708337263E+02  0.45406995226E+02  0.00000000000E+00 0. -1.
         -2    1    1    2    0  503 -0.22063271204E+02 -0.12372897000E+02 -0.30215976535E+02  0.39406620692E+02  0.00000000000E+00 0.  1.
<mgrwt>
<rscale>  2 0.25295781E+02</rscale>
<asrwt>0</asrwt>
<pdfrwt beam="1">  1       21 0.12991771E-02 0.25295781E+02</pdfrwt>
<pdfrwt beam="2">  1       21 0.11749071E-01 0.25295781E+02</pdfrwt>
<totfact> 0.10563715E+08</totfact>
</mgrwt>
</event>
<event>
 4    1  0.7119201E+004  0.2894254E+02  0.7546771E-02  0.1610080E+00
         21   -1    0    0  501  502  0.00000000000E+00  0.00000000000E+00  0.56152941774E+02  0.56152941774E+02  0.00000000000E+00 0.  1.
         21   -1    0    0  502  503 -0.00000000000E+00 -0.00000000000E+00 -0.15179569448E+02  0.15179569448E+02  0.00000000000E+00 0.  1.
          2    1    1    2  501    0  0.10119065598E+02 -0.27115952698E+02  0.25171637217E+02  0.38357290044E+02  0.00000000000E+00 0. -1.
         -2    1    1    2    0  503 -0.10119065598E+02  0.27115952698E+02  0.15801735108E+02  0.32975221178E+02  0.00000000000E+00 0.  1.
<mgrwt>
<rscale>  2 0.28942536E+02</rscale>
<asrwt>0</asrwt>
<pdfrwt beam="1">  1       21 0.86389140E-02 0.28942536E+02</pdfrwt>
<pdfrwt beam="2">  1       21 0.23353184E-02 0.28942536E+02</pdfrwt>
<totfact> 0.74114414E+07</totfact>
</mgrwt>
</event>
<event>
 4    1  0.7119201E+004  0.4374164E+02  0.7546771E-02  0.1482354E+00
         21   -1    0    0  501  502  0.00000000000E+00  0.00000000000E+00  0.54800911035E+01  0.54800911035E+01  0.00000000000E+00 0. -1.
         21   -1    0    0  502  503 -0.00000000000E+00 -0.00000000000E+00 -0.39211042927E+03  0.39211042927E+03  0.00000000000E+00 0. -1.
          4    1    1    2  501    0 -0.40034379293E+02 -0.17623269965E+02 -0.12750765891E+03  0.13480183326E+03  0.00000000000E+00 0. -1.
         -4    1    1    2    0  503  0.40034379293E+02  0.17623269965E+02 -0.25912267926E+03  0.26278868712E+03  0.00000000000E+00 0.  1.
<mgrwt>
<rscale>  2 0.43741641E+02</rscale>
<asrwt>0</asrwt>
<pdfrwt beam="1">  1       21 0.84309080E-03 0.43741641E+02</pdfrwt>
<pdfrwt beam="2">  1       21 0.60324692E-01 0.43741641E+02</pdfrwt>
<totfact> 0.11234169E+07</totfact>
</mgrwt>
</event>
<event>
 4    1  0.7119201E+004  0.2003883E+02  0.7546771E-02  0.1744557E+00
         21   -1    0    0  503  502  0.00000000000E+00  0.00000000000E+00  0.57580419473E+02  0.57580419473E+02  0.00000000000E+00 0. -1.
         21   -1    0    0  501  503 -0.00000000000E+00 -0.00000000000E+00 -0.78196664637E+01  0.78196664637E+01  0.00000000000E+00 0. -1.
          5    1    1    2  501    0  0.18618914753E+02  0.74088240157E+01  0.14125544319E+02  0.24517048399E+02  0.00000000000E+00 0. -1.
         -5    1    1    2    0  502 -0.18618914753E+02 -0.74088240157E+01  0.35635208690E+02  0.40883037537E+02  0.00000000000E+00 0.  1.
<mgrwt>
<rscale>  2 0.20038829E+02</rscale>
<asrwt>0</asrwt>
<pdfrwt beam="1">  1       21 0.88585258E-02 0.20038829E+02</pdfrwt>
<pdfrwt beam="2">  1       21 0.12030256E-02 0.20038829E+02</pdfrwt>
<totfact> 0.17672175E+08</totfact>
</mgrwt>
</event>
<event>
 4    1  0.7119201E+004  0.2147975E+02  0.7546771E-02  0.1717408E+00
         21   -1    0    0  503  502  0.00000000000E+00  0.00000000000E+00  0.13076357268E+01  0.13076357268E+01  0.00000000000E+00 0.  1.
         21   -1    0    0  501  503 -0.00000000000E+00 -0.00000000000E+00 -0.35363674513E+03  0.35363674513E+03  0.00000000000E+00 0.  1.
          3    1    1    2  501    0 -0.10110832463E+02  0.18951274431E+02 -0.18461447060E+03  0.18585984636E+03  0.00000000000E+00 0.  1.
         -3    1    1    2    0  502  0.10110832463E+02 -0.18951274431E+02 -0.16771463880E+03  0.16908453449E+03  0.00000000000E+00 0. -1.
<mgrwt>
<rscale>  2 0.21479752E+02</rscale>
<asrwt>0</asrwt>
<pdfrwt beam="1">  1       21 0.20117459E-03 0.21479752E+02</pdfrwt>
<pdfrwt beam="2">  1       21 0.54405692E-01 0.21479752E+02</pdfrwt>
<totfact> 0.10112548E+08</totfact>
</mgrwt>
</event>
<event>
 4    1  0.7119201E+004  0.2075314E+02  0.7546771E-02  0.1730753E+00
         21   -1    0    0  501  502  0.00000000000E+00  0.00000000000E+00  0.99528724797E+02  0.99528724797E+02  0.00000000000E+00 0. -1.
         21   -1    0    0  502  503 -0.00000000000E+00 -0.00000000000E+00 -0.11856350910E+02  0.11856350910E+02  0.00000000000E+00 0. -1.
          1    1    1    2  501    0  0.15716412827E+02  0.13553121238E+02 -0.54419152995E+00  0.20760271478E+02  0.00000000000E+00 0.  1.
         -1    1    1    2    0  503 -0.15716412827E+02 -0.13553121238E+02  0.88216565417E+02  0.90624804229E+02  0.00000000000E+00 0. -1.
<mgrwt>
<rscale>  2 0.20753138E+02</rscale>
<asrwt>0</asrwt>
<pdfrwt beam="1">  1       21 0.15312111E-01 0.20753138E+02</pdfrwt>
<pdfrwt beam="2">  1       21 0.18240541E-02 0.20753138E+02</pdfrwt>
<totfact> 0.38274483E+07</totfact>
</mgrwt>
</event>
<event>
 4    1  0.7119201E+004  0.2083309E+02  0.7546771E-02  0.1729251E+00
         21   -1    0    0  501  502  0.00000000000E+00  0.00000000000E+00  0.22907504770E+02  0.22907504770E+02  0.00000000000E+00 0. -1.
         21   -1    0    0  502  503 -0.00000000000E+00 -0.00000000000E+00 -0.28366672353E+02  0.28366672353E+02  0.00000000000E+00 0. -1.
          4    1    1    2  501    0 -0.88064181906E+01 -0.18880266852E+02 -0.17503427163E+02  0.27210061378E+02  0.00000000000E+00 0.  1.
         -4    1    1    2    0  503  0.88064181906E+01  0.18880266852E+02  0.12044259581E+02  0.24064115745E+02  0.00000000000E+00 0. -1.
<mgrwt>
<rscale>  2 0.20833086E+02</rscale>
<asrwt>0</asrwt>
<pdfrwt beam="1">  1       21 0.35242315E-02 0.20833086E+02</pdfrwt>
<pdfrwt beam="2">  1       21 0.43641034E-02 0.20833086E+02</pdfrwt>
<totfact> 0.10741281E+08</totfact>
</mgrwt>
</event>
<event>
 4    1  0.7119201E+004  0.2405982E+02  0.7546771E-02  0.1674885E+00
         21   -1    0    0  501  502  0.00000000000E+00  0.00000000000E+00  0.41230288147E+02  0.41230288147E+02  0.00000000000E+00 0. -1.
         21   -1    0    0  502  503 -0.00000000000E+00 -0.00000000000E+00 -0.22025844444E+02  0.22025844444E+02  0.00000000000E+00 0. -1.
          1    1    1    2  501    0 -0.16215474864E+02 -0.17774511691E+02  0.28646551690E+02  0.37409889263E+02  0.00000000000E+00 0. -1.
         -1    1    1    2    0  503  0.16215474864E+02  0.17774511691E+02 -0.94421079875E+01  0.25846243328E+02  0.00000000000E+00 0.  1.
<mgrwt>
<rscale>  2 0.24059819E+02</rscale>
<asrwt>0</asrwt>
<pdfrwt beam="1">  1       21 0.63431212E-02 0.24059819E+02</pdfrwt>
<pdfrwt beam="2">  1       21 0.33885915E-02 0.24059819E+02</pdfrwt>
<totfact> 0.65540469E+07</totfact>
</mgrwt>
</event>
<event>
 4    1  0.7119201E+004  0.2070932E+02  0.7546771E-02  0.1731580E+00
         21   -1    0    0  503  502  0.00000000000E+00  0.00000000000E+00  0.39791303343E+02  0.39791303343E+02  0.00000000000E+00 0.  1.
         21   -1    0    0  501  503 -0.00000000000E+00 -0.00000000000E+00 -0.11118806019E+02  0.11118806019E+02  0.00000000000E+00 0.  1.
          3    1    1    2  501    0  0.17925887581E+02 -0.10370069025E+02  0.98805403622E+01  0.22945606442E+02  0.00000000000E+00 0.  1.
         -3    1    1    2    0  502 -0.17925887581E+02  0.10370069025E+02  0.18791956962E+02  0.27964502921E+02  0.00000000000E+00 0. -1.
<mgrwt>
<rscale>  2 0.20709316E+02</rscale>
<asrwt>0</asrwt>
<pdfrwt beam="1">  1       21 0.61217389E-02 0.20709316E+02</pdfrwt>
<pdfrwt beam="2">  1       21 0.17105856E-02 0.20709316E+02</pdfrwt>
<totfact> 0.19065804E+08</totfact>
</mgrwt>
</event>
<event>
 4    1  0.7119201E+004  0.2403673E+02  0.7546771E-02  0.1675236E+00
         21   -1    0    0  503  502  0.00000000000E+00  0.00000000000E+00  0.32541259947E+02  0.32541259947E+02  0.00000000000E+00 0.  1.
         21   -1    0    0  501  503 -0.00000000000E+00 -0.00000000000E+00 -0.24189436300E+02  0.24189436300E+02  0.00000000000E+00 0.  1.
          3    1    1    2  501    0 -0.87232360522E+01  0.22397982136E+02 -0.10453818631E+02  0.26211577117E+02  0.00000000000E+00 0.  1.
         -3    1    1    2    0  502  0.87232360522E+01 -0.22397982136E+02  0.18805642278E+02  0.30519119130E+02  0.00000000000E+00 0. -1.
<mgrwt>
<rscale>  2 0.24036731E+02</rscale>
<asrwt>0</asrwt>
<pdfrwt beam="1">  1       21 0.50063476E-02 0.24036731E+02</pdfrwt>
<pdfrwt beam="2">  1       21 0.37214518E-02 0.24036731E+02</pdfrwt>
<totfact> 0.82671991E+07</totfact>
</mgrwt>
</event>
<event>
 4    1  0.7119201E+004  0.2025161E+02  0.7546771E-02  0.1740370E+00
         21   -1    0    0  501  502  0.00000000000E+00  0.00000000000E+00  0.86338217360E+01  0.86338217360E+01  0.00000000000E+00 0. -1.
         21   -1    0    0  502  503 -0.00000000000E+00 -0.00000000000E+00 -0.47614472518E+02  0.47614472518E+02  0.00000000000E+00 0. -1.
          3    1    1    2  501    0  0.14367241577E+02  0.14272701082E+02 -0.18126132758E+02  0.27178747496E+02  0.00000000000E+00 0.  1.
         -3    1    1    2    0  503 -0.14367241577E+02 -0.14272701082E+02 -0.20854518023E+02  0.29069546757E+02  0.00000000000E+00 0. -1.
<mgrwt>
<rscale>  2 0.20251608E+02</rscale>
<asrwt>0</asrwt>
<pdfrwt beam="1">  1       21 0.13282803E-02 0.20251608E+02</pdfrwt>
<pdfrwt beam="2">  1       21 0.73253035E-02 0.20251608E+02</pdfrwt>
<totfact> 0.20801333E+08</totfact>
</mgrwt>
</event>
<event>
 4    1  0.7119201E+004  0.2684565E+02  0.7546771E-02  0.1635825E+00
         21   -1    0    0  503  502  0.00000000000E+00  0.00000000000E+00  0.50273934562E+02  0.50273934562E+02  0.00000000000E+00 0.  1.
         21   -1    0    0  501  503 -0.00000000000E+00 -0.00000000000E+00 -0.14702778907E+02  0.14702778907E+02  0.00000000000E+00 0.  1.
          3    1    1    2  501    0  0.18941047613E+02  0.19024347737E+02  0.12648955333E+02  0.29676340113E+02  0.00000000000E+00 0.  1.
         -3    1    1    2    0  502 -0.18941047613E+02 -0.19024347737E+02  0.22922200323E+02  0.35300373357E+02  0.00000000000E+00 0. -1.
<mgrwt>
<rscale>  2 0.26845653E+02</rscale>
<asrwt>0</asrwt>
<pdfrwt beam="1">  1       21 0.77344514E-02 0.26845653E+02</pdfrwt>
<pdfrwt beam="2">  1       21 0.22619660E-02 0.26845653E+02</pdfrwt>
<totfact> 0.91674009E+07</totfact>
</mgrwt>
</event>
<event>
 4    1  0.7119201E+004  0.2468817E+02  0.7546771E-02  0.1665522E+00
         21   -1    0    0  503  502  0.00000000000E+00  0.00000000000E+00  0.16259257217E+01  0.16259257217E+01  0.00000000000E+00 0.  1.
         21   -1    0    0  501  503 -0.00000000000E+00 -0.00000000000E+00 -0.40036234435E+03  0.40036234435E+03  0.00000000000E+00 0.  1.
          1    1    1    2  501    0 -0.23950102834E+01 -0.24571720896E+02 -0.25008935751E+03  0.25130497862E+03  0.00000000000E+00 0. -1.
         -1    1    1    2    0  502  0.23950102834E+01  0.24571720896E+02 -0.14864706113E+03  0.15068329145E+03  0.00000000000E+00 0.  1.
<mgrwt>
<rscale>  2 0.24688166E+02</rscale>
<asrwt>0</asrwt>
<pdfrwt beam="1">  1       21 0.25014243E-03 0.24688166E+02</pdfrwt>
<pdfrwt beam="2">  1       21 0.61594205E-01 0.24688166E+02</pdfrwt>
<totfact> 0.59660589E+07</totfact>
</mgrwt>
</event>
<event>
 4    1  0.7119201E+004  0.3051188E+02  0.7546771E-02  0.1592498E+00
         21   -1    0    0  501  502  0.00000000000E+00  0.00000000000E+00  0.12356591200E+02  0.12356591200E+02  0.00000000000E+00 0. -1.
         21   -1    0    0  502  503 -0.00000000000E+00 -0.00000000000E+00 -0.80562847972E+02  0.80562847972E+02  0.00000000000E+00 0. -1.
          1    1    1    2  501    0  0.26678022020E+02  0.14807371820E+02 -0.22276431635E+02  0.37778492896E+02  0.00000000000E+00 0.  1.
         -1    1    1    2    0  503 -0.26678022020E+02 -0.14807371820E+02 -0.45929825137E+02  0.55140946276E+02  0.00000000000E+00 0. -1.
<mgrwt>
<rscale>  2 0.30511885E+02</rscale>
<asrwt>0</asrwt>
<pdfrwt beam="1">  1       21 0.19010140E-02 0.30511885E+02</pdfrwt>
<pdfrwt beam="2">  1       21 0.12394284E-01 0.30511885E+02</pdfrwt>
<totfact> 0.56387872E+07</totfact>
</mgrwt>
</event>
<event>
 4    1  0.7119201E+004  0.2449624E+02  0.7546771E-02  0.1668345E+00
         21   -1    0    0  503  502  0.00000000000E+00  0.00000000000E+00  0.10999701546E+03  0.10999701546E+03  0.00000000000E+00 0.  1.
         21   -1    0    0  501  503 -0.00000000000E+00 -0.00000000000E+00 -0.54584758153E+01  0.54584758153E+01  0.00000000000E+00 0.  1.
          5    1    1    2  501    0  0.33248947893E+01 -0.24269545647E+02  0.53663596353E+02  0.58990230927E+02  0.00000000000E+00 0.  1.
         -5    1    1    2    0  502 -0.33248947893E+01  0.24269545647E+02  0.50874943294E+02  0.56465260350E+02  0.00000000000E+00 0. -1.
<mgrwt>
<rscale>  2 0.24496240E+02</rscale>
<asrwt>0</asrwt>
<pdfrwt beam="1">  1       21 0.16922616E-01 0.24496240E+02</pdfrwt>
<pdfrwt beam="2">  1       21 0.83976559E-03 0.24496240E+02</pdfrwt>
<totfact> 0.10876019E+08</totfact>
</mgrwt>
</event>
<event>
 4    1  0.7119201E+004  0.2768347E+02  0.7546771E-02  0.1625203E+00
         21   -1    0    0  501  502  0.00000000000E+00  0.00000000000E+00  0.22042708902E+02  0.22042708902E+02  0.00000000000E+00 0.  1.
         21   -1    0    0  502  503 -0.00000000000E+00 -0.00000000000E+00 -0.38466226430E+02  0.38466226430E+02  0.00000000000E+00 0.  1.
          1    1    1    2  501    0 -0.18684546876E+02 -0.20426997798E+02  0.11695503504E+01  0.27708164483E+02  0.00000000000E+00 0.  1.
         -1    1    1    2    0  503  0.18684546876E+02  0.20426997798E+02 -0.17593067878E+02  0.32800770850E+02  0.00000000000E+00 0. -1.
<mgrwt>
<rscale>  2 0.27683470E+02</rscale>
<asrwt>0</asrwt>
<pdfrwt beam="1">  1       21 0.33911860E-02 0.27683470E+02</pdfrwt>
<pdfrwt beam="2">  1       21 0.59178810E-02 0.27683470E+02</pdfrwt>
<totfact> 0.75873252E+07</totfact>
</mgrwt>
</event>
<event>
 4    1  0.7119201E+004  0.3409287E+02  0.7546771E-02  0.1556807E+00
         21   -1    0    0  501  502  0.00000000000E+00  0.00000000000E+00  0.63278723109E+03  0.63278723109E+03  0.00000000000E+00 0. -1.
         21   -1    0    0  502  503 -0.00000000000E+00 -0.00000000000E+00 -0.21844214386E+01  0.21844214386E+01  0.00000000000E+00 0. -1.
          3    1    1    2  501    0 -0.28445979549E+02  0.18792292234E+02  0.44194675524E+03  0.44325980921E+03  0.00000000000E+00 0. -1.
         -3    1    1    2    0  503  0.28445979549E+02 -0.18792292234E+02  0.18865605442E+03  0.19171184332E+03  0.00000000000E+00 0.  1.
<mgrwt>
<rscale>  2 0.34092873E+02</rscale>
<asrwt>0</asrwt>
<pdfrwt beam="1">  1       21 0.97351735E-01 0.34092873E+02</pdfrwt>
<pdfrwt beam="2">  1       21 0.33606534E-03 0.34092873E+02</pdfrwt>
<totfact> 0.15625549E+07</totfact>
</mgrwt>
</event>
<event>
 4    1  0.7119201E+004  0.2011589E+02  0.7546771E-02  0.1743033E+00
         21   -1    0    0  503  502  0.00000000000E+00  0.00000000000E+00  0.26794969153E+01  0.26794969153E+01  0.00000000000E+00 0. -1.
         21   -1    0    0  501  503 -0.00000000000E+00 -0.00000000000E+00 -0.17730987500E+03  0.17730987500E+03  0.00000000000E+00 0. -1.
          5    1    1    2  501    0 -0.56516894462E+01  0.19305630165E+02 -0.12197062788E+03  0.12361829563E+03  0.00000000000E+00 0.  1.
         -5    1    1    2    0  502  0.56516894462E+01 -0.19305630165E+02 -0.52659750206E+02  0.56371076284E+02  0.00000000000E+00 0. -1.
<mgrwt>
<rscale>  2 0.20115888E+02</rscale>
<asrwt>0</asrwt>
<pdfrwt beam="1">  1       21 0.41223035E-03 0.20115888E+02</pdfrwt>
<pdfrwt beam="2">  1       21 0.27278439E-01 0.20115888E+02</pdfrwt>
<totfact> 0.12748435E+08</totfact>
</mgrwt>
</event>
<event>
 4    1  0.7119201E+004  0.2098495E+02  0.7546771E-02  0.1726422E+00
         21   -1    0    0  503  502  0.00000000000E+00  0.00000000000E+00  0.42435679037E+02  0.42435679037E+02  0.00000000000E+00 0. -1.
         21   -1    0    0  501  503 -0.00000000000E+00 -0.00000000000E+00 -0.10386860756E+02  0.10386860756E+02  0.00000000000E+00 0. -1.
          4    1    1    2  501    0 -0.18647019016E+02  0.96258320561E+01  0.16825519079E+02  0.26897324277E+02  0.00000000000E+00 0.  1.
         -4    1    1    2    0  502  0.18647019016E+02 -0.96258320561E+01  0.15223299202E+02  0.25925215516E+02  0.00000000000E+00 0. -1.
<mgrwt>
<rscale>  2 0.20984946E+02</rscale>
<asrwt>0</asrwt>
<pdfrwt beam="1">  1       21 0.65285659E-02 0.20984946E+02</pdfrwt>
<pdfrwt beam="2">  1       21 0.15979786E-02 0.20984946E+02</pdfrwt>
<totfact> 0.19150596E+08</totfact>
</mgrwt>
</event>
<event>
 4    1  0.7119201E+004  0.2511498E+02  0.7546771E-02  0.1659356E+00
         21   -1    0    0  503  502  0.00000000000E+00  0.00000000000E+00  0.42864946821E+00  0.42864946821E+00  0.00000000000E+00 0.  1.
         21   -1    0    0  501  503 -0.00000000000E+00 -0.00000000000E+00 -0.20123632291E+04  0.20123632291E+04  0.00000000000E+00 0.  1.
          2    1    1    2  501    0 -0.97170182286E+00 -0.25096171179E+02 -0.15277087767E+04  0.15279152032E+04  0.00000000000E+00 0. -1.
         -2    1    1    2    0  502  0.97170182286E+00  0.25096171179E+02 -0.48422580297E+03  0.48487667533E+03  0.00000000000E+00 0.  1.
<mgrwt>
<rscale>  2 0.25114976E+02</rscale>
<asrwt>0</asrwt>
<pdfrwt beam="1">  1       21 0.65945645E-04 0.25114976E+02</pdfrwt>
<pdfrwt beam="2">  1       21 0.30959635E+00 0.25114976E+02</pdfrwt>
<totfact> 0.78921499E+06</totfact>
</mgrwt>
</event>
<event>
 4    1  0.7119201E+004  0.3618519E+02  0.7546771E-02  0.1538321E+00
         21   -1    0    0  503  502  0.00000000000E+00  0.00000000000E+00  0.26490664383E+02  0.26490664383E+02  0.00000000000E+00 0. -1.
         21   -1    0    0  501  503 -0.00000000000E+00 -0.00000000000E+00 -0.49668835016E+02  0.49668835016E+02  0.00000000000E+00 0. -1.
          4    1    1    2  501    0 -0.23564848295E+02 -0.27460262902E+02 -0.89348764644E+01  0.37271975146E+02  0.00000000000E+00 0. -1.
         -4    1    1    2    0  502  0.23564848295E+02  0.27460262902E+02 -0.14243294168E+02  0.38887524254E+02  0.00000000000E+00 0.  1.
<mgrwt>
<rscale>  2 0.36185192E+02</rscale>
<asrwt>0</asrwt>
<pdfrwt beam="1">  1       21 0.40754868E-02 0.36185192E+02</pdfrwt>
<pdfrwt beam="2">  1       21 0.76413592E-02 0.36185192E+02</pdfrwt>
<totfact> 0.39561508E+07</totfact>
</mgrwt>
</event>
<event>
 4    1  0.7119201E+004  0.2103841E+02  0.7546771E-02  0.1725433E+00
         21   -1    0    0  503  502  0.00000000000E+00  0.00000000000E+00  0.62055990971E+02  0.62055990971E+02  0.00000000000E+00 0.  1.
         21   -1    0    0  501  503 -0.00000000000E+00 -0.00000000000E+00 -0.73137247935E+01  0.73137247935E+01  0.00000000000E+00 0.  1.
          5    1    1    2  501    0  0.19168225219E+02 -0.86714425990E+01  0.32830865083E+02  0.38993338878E+02  0.00000000000E+00 0.  1.
         -5    1    1    2    0  502 -0.19168225219E+02  0.86714425990E+01  0.21911401095E+02  0.30376376886E+02  0.00000000000E+00 0. -1.
<mgrwt>
<rscale>  2 0.21038412E+02</rscale>
<asrwt>0</asrwt>
<pdfrwt beam="1">  1       21 0.95470752E-02 0.21038412E+02</pdfrwt>
<pdfrwt beam="2">  1       21 0.11251885E-02 0.21038412E+02</pdfrwt>
<totfact> 0.17555169E+08</totfact>
</mgrwt>
</event>
<event>
 4    1  0.7119201E+004  0.2715231E+02  0.7546771E-02  0.1631883E+00
         21   -1    0    0  501  502  0.00000000000E+00  0.00000000000E+00  0.48866881398E+03  0.48866881398E+03  0.00000000000E+00 0. -1.
         21   -1    0    0  502  503 -0.00000000000E+00 -0.00000000000E+00 -0.16567754623E+01  0.16567754623E+01  0.00000000000E+00 0. -1.
          5    1    1    2  501    0  0.26530038364E+02  0.57796976727E+01  0.17020927451E+03  0.17236137900E+03  0.00000000000E+00 0.  1.
         -5    1    1    2    0  503 -0.26530038364E+02 -0.57796976727E+01  0.31680276401E+03  0.31796421044E+03  0.00000000000E+00 0. -1.
<mgrwt>
<rscale>  2 0.27152308E+02</rscale>
<asrwt>0</asrwt>
<pdfrwt beam="1">  1       21 0.75179703E-01 0.27152308E+02</pdfrwt>
<pdfrwt beam="2">  1       21 0.25488892E-03 0.27152308E+02</pdfrwt>
<totfact> 0.39348108E+07</totfact>
</mgrwt>
</event>
<event>
 4    1  0.7119201E+004  0.2101449E+02  0.7546771E-02  0.1725875E+00
         21   -1    0    0  503  502  0.00000000000E+00  0.00000000000E+00  0.85544139161E+02  0.85544139161E+02  0.00000000000E+00 0.  1.
         21   -1    0    0  501  503 -0.00000000000E+00 -0.00000000000E+00 -0.51872686444E+01  0.51872686444E+01  0.00000000000E+00 0.  1.
          4    1    1    2  501    0 -0.19799329803E+02  0.70424074499E+01  0.37034290710E+02  0.42581071519E+02  0.00000000000E+00 0. -1.
         -4    1    1    2    0  502  0.19799329803E+02 -0.70424074499E+01  0.43322579807E+02  0.48150336286E+02  0.00000000000E+00 0.  1.
<mgrwt>
<rscale>  2 0.21014494E+02</rscale>
<asrwt>0</asrwt>
<pdfrwt beam="1">  1       21 0.13160636E-01 0.21014494E+02</pdfrwt>
<pdfrwt beam="2">  1       21 0.79804139E-03 0.21014494E+02</pdfrwt>
<totfact> 0.17210852E+08</totfact>
</mgrwt>
</event>
<event>
 4    1  0.7119201E+004  0.2330011E+02  0.7546771E-02  0.1686691E+00
         21   -1    0    0  503  502  0.00000000000E+00  0.00000000000E+00  0.37187169156E+01  0.37187169156E+01  0.00000000000E+00 0. -1.
         21   -1    0    0  501  503 -0.00000000000E+00 -0.00000000000E+00 -0.16897337341E+03  0.16897337341E+03  0.00000000000E+00 0. -1.
          1    1    1    2  501    0 -0.23032468001E+02 -0.35214443875E+01 -0.11447231245E+03  0.11681954233E+03  0.00000000000E+00 0.  1.
         -1    1    1    2    0  502  0.23032468001E+02  0.35214443875E+01 -0.50782344045E+02  0.55872547996E+02  0.00000000000E+00 0. -1.
<mgrwt>
<rscale>  2 0.23300111E+02</rscale>
<asrwt>0</asrwt>
<pdfrwt beam="1">  1       21 0.57211032E-03 0.23300111E+02</pdfrwt>
<pdfrwt beam="2">  1       21 0.25995902E-01 0.23300111E+02</pdfrwt>
<totfact> 0.89405532E+07</totfact>
</mgrwt>
</event>
<event>
 4    1  0.7119201E+004  0.3136171E+02  0.7546771E-02  0.1583507E+00
         21   -1    0    0  501  502  0.00000000000E+00  0.00000000000E+00  0.18257825336E+03  0.18257825336E+03  0.00000000000E+00 0.  1.
         21   -1    0    0  502  503 -0.00000000000E+00 -0.00000000000E+00 -0.63563431740E+01  0.63563431740E+01  0.00000000000E+00 0.  1.
          1    1    1    2  501    0 -0.14593928569E+01  0.31327733998E+02  0.51221081735E+02  0.60059603387E+02  0.00000000000E+00 0. -1.
         -1    1    1    2    0  503  0.14593928569E+01 -0.31327733998E+02  0.12500082845E+03  0.12887499314E+03  0.00000000000E+00 0.  1.
<mgrwt>
<rscale>  2 0.31361708E+02</rscale>
<asrwt>0</asrwt>
<pdfrwt beam="1">  1       21 0.28088958E-01 0.31361708E+02</pdfrwt>
<pdfrwt beam="2">  1       21 0.97789909E-03 0.31361708E+02</pdfrwt>
<totfact> 0.37259037E+07</totfact>
</mgrwt>
</event>
<event>
 4    1  0.7119201E+004  0.2093870E+02  0.7546771E-02  0.1727280E+00
         21   -1    0    0  501  502  0.00000000000E+00  0.00000000000E+00  0.18508272779E+01  0.18508272779E+01  0.00000000000E+00 0. -1.
         21   -1    0    0  502  503 -0.00000000000E+00 -0.00000000000E+00 -0.23975649238E+03  0.23975649238E+03  0.00000000000E+00 0. -1.
          3    1    1    2  501    0 -0.11619943694E+01  0.20906435907E+02 -0.13217824141E+03  0.13382644281E+03  0.00000000000E+00 0.  1.
         -3    1    1    2    0  503  0.11619943694E+01 -0.20906435907E+02 -0.10572742369E+03  0.10778087684E+03  0.00000000000E+00 0. -1.
<mgrwt>
<rscale>  2 0.20938703E+02</rscale>
<asrwt>0</asrwt>
<pdfrwt beam="1">  1       21 0.28474272E-03 0.20938703E+02</pdfrwt>
<pdfrwt beam="2">  1       21 0.36885606E-01 0.20938703E+02</pdfrwt>
<totfact> 0.12754985E+08</totfact>
</mgrwt>
</event>
<event>
 4    1  0.7119201E+004  0.2374592E+02  0.7546771E-02  0.1679697E+00
         21   -1    0    0  501  502  0.00000000000E+00  0.00000000000E+00  0.64492886437E+01  0.64492886437E+01  0.00000000000E+00 0. -1.
         21   -1    0    0  502  503 -0.00000000000E+00 -0.00000000000E+00 -0.87465979343E+02  0.87465979343E+02  0.00000000000E+00 0. -1.
          4    1    1    2  501    0 -0.71572889492E+01  0.22641596186E+02 -0.39571178121E+02  0.46149179850E+02  0.00000000000E+00 0.  1.
         -4    1    1    2    0  503  0.71572889492E+01 -0.22641596186E+02 -0.41445512578E+02  0.47766088137E+02  0.00000000000E+00 0. -1.
<mgrwt>
<rscale>  2 0.23745919E+02</rscale>
<asrwt>0</asrwt>
<pdfrwt beam="1">  1       21 0.99219827E-03 0.23745919E+02</pdfrwt>
<pdfrwt beam="2">  1       21 0.13456304E-01 0.23745919E+02</pdfrwt>
<totfact> 0.12413461E+08</totfact>
</mgrwt>
</event>
<event>
 4    1  0.7119201E+004  0.2047301E+02  0.7546771E-02  0.1736082E+00
         21   -1    0    0  501  502  0.00000000000E+00  0.00000000000E+00  0.10669068544E+02  0.10669068544E+02  0.00000000000E+00 0. -1.
         21   -1    0    0  502  503 -0.00000000000E+00 -0.00000000000E+00 -0.69913600239E+02  0.69913600239E+02  0.00000000000E+00 0. -1.
          3    1    1    2  501    0 -0.14429458949E+02 -0.14523592780E+02 -0.29544183521E+01  0.20685082079E+02  0.00000000000E+00 0. -1.
         -3    1    1    2    0  503  0.14429458949E+02  0.14523592780E+02 -0.56290113343E+02  0.59897586704E+02  0.00000000000E+00 0.  1.
<mgrwt>
<rscale>  2 0.20473007E+02</rscale>
<asrwt>0</asrwt>
<pdfrwt beam="1">  1       21 0.16413952E-02 0.20473007E+02</pdfrwt>
<pdfrwt beam="2">  1       21 0.10755938E-01 0.20473007E+02</pdfrwt>
<totfact> 0.80899869E+07</totfact>
</mgrwt>
</event>
<event>
 4    1  0.7119201E+004  0.2423751E+02  0.7546771E-02  0.1672202E+00
         21   -1    0    0  503  502  0.00000000000E+00  0.00000000000E+00  0.23876719652E+02  0.23876719652E+02  0.00000000000E+00 0.  1.
         21   -1    0    0  501  503 -0.00000000000E+00 -0.00000000000E+00 -0.28377493763E+02  0.28377493763E+02  0.00000000000E+00 0.  1.
          5    1    1    2  501    0 -0.11745466490E+02 -0.21201433641E+02  0.72773699499E+01  0.25306459352E+02  0.00000000000E+00 0. -1.
         -5    1    1    2    0  502  0.11745466490E+02  0.21201433641E+02 -0.11778144061E+02  0.26947754063E+02  0.00000000000E+00 0.  1.
<mgrwt>
<rscale>  2 0.24237508E+02</rscale>
<asrwt>0</asrwt>
<pdfrwt beam="1">  1       21 0.36733415E-02 0.24237508E+02</pdfrwt>
<pdfrwt beam="2">  1       21 0.43657683E-02 0.24237508E+02</pdfrwt>
<totfact> 0.10515251E+08</totfact>
</mgrwt>
</event>
<event>
 4    1  0.7119201E+004  0.2674471E+02  0.7546771E-02  0.1637137E+00
         21   -1    0    0  501  502  0.00000000000E+00  0.00000000000E+00  0.96627934026E+01  0.96627934026E+01  0.00000000000E+00 0. -1.
         21   -1    0    0  502  503 -0.00000000000E+00 -0.00000000000E+00 -0.99014365913E+02  0.99014365913E+02  0.00000000000E+00 0. -1.
          5    1    1    2  501    0  0.41331177276E+01  0.26423418095E+02 -0.17376925393E+02  0.31894156550E+02  0.00000000000E+00 0.  1.
         -5    1    1    2    0  503 -0.41331177276E+01 -0.26423418095E+02 -0.71974647117E+02  0.76783002765E+02  0.00000000000E+00 0. -1.
<mgrwt>
<rscale>  2 0.26744713E+02</rscale>
<asrwt>0</asrwt>
<pdfrwt beam="1">  1       21 0.14865837E-02 0.26744713E+02</pdfrwt>
<pdfrwt beam="2">  1       21 0.15232979E-01 0.26744713E+02</pdfrwt>
<totfact> 0.56153211E+07</totfact>
</mgrwt>
</event>
<event>
 4    1  0.7119201E+004  0.2102222E+02  0.7546771E-02  0.1725732E+00
         21   -1    0    0  503  502  0.00000000000E+00  0.00000000000E+00  0.10435828928E+03  0.10435828928E+03  0.00000000000E+00 0. -1.
         21   -1    0    0  501  503 -0.00000000000E+00 -0.00000000000E+00 -0.42854955524E+01  0.42854955524E+01  0.00000000000E+00 0. -1.
          5    1    1    2  501    0  0.59859195495E+01  0.20151986514E+02  0.44126639033E+02  0.48878359891E+02  0.00000000000E+00 0. -1.
         -5    1    1    2    0  502 -0.59859195495E+01 -0.20151986514E+02  0.55946154697E+02  0.59765424943E+02  0.00000000000E+00 0.  1.
<mgrwt>
<rscale>  2 0.21022221E+02</rscale>
<asrwt>0</asrwt>
<pdfrwt beam="1">  1       21 0.16055119E-01 0.21022221E+02</pdfrwt>
<pdfrwt beam="2">  1       21 0.65930709E-03 0.21022221E+02</pdfrwt>
<totfact> 0.16325430E+08</totfact>
</mgrwt>
</event>
<event>
 4    1  0.7119201E+004  0.3114473E+02  0.7546771E-02  0.1585769E+00
         21   -1    0    0  501  502  0.00000000000E+00  0.00000000000E+00  0.28250519189E+02  0.28250519189E+02  0.00000000000E+00 0. -1.
         21   -1    0    0  502  503 -0.00000000000E+00 -0.00000000000E+00 -0.34635913988E+02  0.34635913988E+02  0.00000000000E+00 0. -1.
          2    1    1    2  501    0  0.14520800662E+01 -0.31110859445E+02 -0.26406821171E+00  0.31145847941E+02  0.00000000000E+00 0.  1.
         -2    1    1    2    0  503 -0.14520800662E+01  0.31110859445E+02 -0.61213265879E+01  0.31740585236E+02  0.00000000000E+00 0. -1.
<mgrwt>
<rscale>  2 0.31144728E+02</rscale>
<asrwt>0</asrwt>
<pdfrwt beam="1">  1       21 0.43462337E-02 0.31144728E+02</pdfrwt>
<pdfrwt beam="2">  1       21 0.53286021E-02 0.31144728E+02</pdfrwt>
<totfact> 0.62341064E+07</totfact>
</mgrwt>
</event>
<event>
 4    1  0.7119201E+004  0.2127990E+02  0.7546771E-02  0.1721012E+00
         21   -1    0    0  501  502  0.00000000000E+00  0.00000000000E+00  0.10033827236E+01  0.10033827236E+01  0.00000000000E+00 0.  1.
         21   -1    0    0  502  503 -0.00000000000E+00 -0.00000000000E+00 -0.63605615970E+03  0.63605615970E+03  0.00000000000E+00 0.  1.
          3    1    1    2  501    0  0.19831987172E+02  0.77153448410E+01 -0.14585701805E+03  0.14740116680E+03  0.00000000000E+00 0. -1.
         -3    1    1    2    0  503 -0.19831987172E+02 -0.77153448410E+01 -0.48919575893E+03  0.48965837562E+03  0.00000000000E+00 0.  1.
<mgrwt>
<rscale>  2 0.21279903E+02</rscale>
<asrwt>0</asrwt>
<pdfrwt beam="1">  1       21 0.15436663E-03 0.21279903E+02</pdfrwt>
<pdfrwt beam="2">  1       21 0.97854760E-01 0.21279903E+02</pdfrwt>
<totfact> 0.44043365E+07</totfact>
</mgrwt>
</event>
<event>
 4    1  0.7119201E+004  0.2844529E+02  0.7546771E-02  0.1615938E+00
         21   -1    0    0  503  502  0.00000000000E+00  0.00000000000E+00  0.13850542029E+01  0.13850542029E+01  0.00000000000E+00 0.  1.
         21   -1    0    0  501  503 -0.00000000000E+00 -0.00000000000E+00 -0.83905638594E+03  0.83905638594E+03  0.00000000000E+00 0.  1.
          1    1    1    2  501    0  0.38071744009E+01 -0.28189354504E+02 -0.65043563422E+03  0.65105733123E+03  0.00000000000E+00 0. -1.
         -1    1    1    2    0  502 -0.38071744009E+01  0.28189354504E+02 -0.18723569752E+03  0.18938410892E+03  0.00000000000E+00 0.  1.
<mgrwt>
<rscale>  2 0.28445286E+02</rscale>
<asrwt>0</asrwt>
<pdfrwt beam="1">  1       21 0.21308544E-03 0.28445286E+02</pdfrwt>
<pdfrwt beam="2">  1       21 0.12908549E+00 0.28445286E+02</pdfrwt>
<totfact> 0.15664673E+07</totfact>
</mgrwt>
</event>
<event>
 4    1  0.7119201E+004  0.2387880E+02  0.7546771E-02  0.1677649E+00
         21   -1    0    0  503  502  0.00000000000E+00  0.00000000000E+00  0.50457110733E+03  0.50457110733E+03  0.00000000000E+00 0. -1.
         21   -1    0    0  501  503 -0.00000000000E+00 -0.00000000000E+00 -0.11397927553E+01  0.11397927553E+01  0.00000000000E+00 0. -1.
          3    1    1    2  501    0 -0.21922968855E+02  0.94647102796E+01  0.22835403274E+03  0.22959913234E+03  0.00000000000E+00 0.  1.
         -3    1    1    2    0  502  0.21922968855E+02 -0.94647102796E+01  0.27507728184E+03  0.27611176775E+03  0.00000000000E+00 0. -1.
<mgrwt>
<rscale>  2 0.23878804E+02</rscale>
<asrwt>0</asrwt>
<pdfrwt beam="1">  1       21 0.77626146E-01 0.23878804E+02</pdfrwt>
<pdfrwt beam="2">  1       21 0.17535313E-03 0.23878804E+02</pdfrwt>
<totfact> 0.61612783E+07</totfact>
</mgrwt>
</event>
<event>
 4    1  0.7119201E+004  0.2045698E+02  0.7546771E-02  0.1736390E+00
         21   -1    0    0  501  502  0.00000000000E+00  0.00000000000E+00  0.46191835914E+01  0.46191835914E+01  0.00000000000E+00 0.  1.
         21   -1    0    0  502  503 -0.00000000000E+00 -0.00000000000E+00 -0.90732934237E+02  0.90732934237E+02  0.00000000000E+00 0.  1.
          3    1    1    2  501    0  0.84895949454E+01 -0.18612222592E+02 -0.41217215201E+02  0.46014637683E+02  0.00000000000E+00 0. -1.
         -3    1    1    2    0  503 -0.84895949454E+01  0.18612222592E+02 -0.44896535444E+02  0.49337480145E+02  0.00000000000E+00 0.  1.
<mgrwt>
<rscale>  2 0.20456981E+02</rscale>
<asrwt>0</asrwt>
<pdfrwt beam="1">  1       21 0.71064359E-03 0.20456981E+02</pdfrwt>
<pdfrwt beam="2">  1       21 0.13958914E-01 0.20456981E+02</pdfrwt>
<totfact> 0.18364112E+08</totfact>
</mgrwt>
</event>
<event>
 4    1  0.7119201E+004  0.2006737E+02  0.7546771E-02  0.1743992E+00
         21   -1    0    0  503  502  0.00000000000E+00  0.00000000000E+00  0.42775338277E+01  0.42775338277E+01  0.00000000000E+00 0.  1.
         21   -1    0    0  501  503 -0.00000000000E+00 -0.00000000000E+00 -0.14284490581E+03  0.14284490581E+03  0.00000000000E+00 0.  1.
          1    1    1    2  501    0 -0.65580239292E+01  0.18965540871E+02 -0.26331033366E+02  0.33106234103E+02  0.00000000000E+00 0.  1.
         -1    1    1    2    0  502  0.65580239292E+01 -0.18965540871E+02 -0.11223633862E+03  0.11401620554E+03  0.00000000000E+00 0. -1.
<mgrwt>
<rscale>  2 0.20067372E+02</rscale>
<asrwt>0</asrwt>
<pdfrwt beam="1">  1       21 0.65808212E-03 0.20067372E+02</pdfrwt>
<pdfrwt beam="2">  1       21 0.21976140E-01 0.20067372E+02</pdfrwt>
<totfact> 0.93900558E+07</totfact>
</mgrwt>
</event>
<event>
 4    1  0.7119201E+004  0.3847165E+02  0.7546771E-02  0.1519769E+00
         21   -1    0    0  503  502  0.00000000000E+00  0.00000000000E+00  0.69235556593E+02  0.69235556593E+02  0.00000000000E+00 0. -1.
         21   -1    0    0  501  503 -0.00000000000E+00 -0.00000000000E+00 -0.27448222288E+02  0.27448222288E+02  0.00000000000E+00 0. -1.
          1    1    1    2  501    0 -0.34830075041E+02 -0.16338103370E+02  0.43628649908E+02  0.58168091269E+02  0.00000000000E+00 0. -1.
         -1    1    1    2    0  502  0.34830075041E+02  0.16338103370E+02 -0.18413156028E+01  0.38515687612E+02  0.00000000000E+00 0.  1.
<mgrwt>
<rscale>  2 0.38471649E+02</rscale>
<asrwt>0</asrwt>
<pdfrwt beam="1">  1       21 0.10651624E-01 0.38471649E+02</pdfrwt>
<pdfrwt beam="2">  1       21 0.42228035E-02 0.38471649E+02</pdfrwt>
<totfact> 0.21660557E+07</totfact>
</mgrwt>
</event>
<event>
 4    1  0.7119201E+004  0.2138273E+02  0.7546771E-02  0.1719151E+00
         21   -1    0    0  503  502  0.00000000000E+00  0.00000000000E+00  0.15485613609E+01  0.15485613609E+01  0.00000000000E+00 0. -1.
         21   -1    0    0  501  503 -0.00000000000E+00 -0.00000000000E+00 -0.31844469696E+03  0.31844469696E+03  0.00000000000E+00 0. -1.
          4    1    1    2  501    0  0.69502886547E+01 -0.20221637275E+02 -0.11527255763E+03  0.11723900234E+03  0.00000000000E+00 0.  1.
         -4    1    1    2    0  502 -0.69502886547E+01  0.20221637275E+02 -0.20162357797E+03  0.20275425599E+03  0.00000000000E+00 0. -1.
<mgrwt>
<rscale>  2 0.21382730E+02</rscale>
<asrwt>0</asrwt>
<pdfrwt beam="1">  1       21 0.23823998E-03 0.21382730E+02</pdfrwt>
<pdfrwt beam="2">  1       21 0.48991539E-01 0.21382730E+02</pdfrwt>
<totfact> 0.97042706E+07</totfact>
</mgrwt>
</event>
<event>
 4    1  0.7119201E+004  0.2207016E+02  0.7546771E-02  0.1707041E+00
         21   -1    0    0  503  502  0.00000000000E+00  0.00000000000E+00  0.66793749204E+02  0.66793749204E+02  0.00000000000E+00 0.  1.
         21   -1    0    0  501  503 -0.00000000000E+00 -0.00000000000E+00 -0.73436902378E+01  0.73436902378E+01  0.00000000000E+00 0.  1.
          5    1    1    2  501    0  0.14064218729E+02  0.17008515876E+02  0.32820614512E+02  0.39551037884E+02  0.00000000000E+00 0. -1.
         -5    1    1    2    0  502 -0.14064218729E+02 -0.17008515876E+02  0.26629444454E+02  0.34586401557E+02  0.00000000000E+00 0.  1.
<mgrwt>
<rscale>  2 0.22070158E+02</rscale>
<asrwt>0</asrwt>
<pdfrwt beam="1">  1       21 0.10275961E-01 0.22070158E+02</pdfrwt>
<pdfrwt beam="2">  1       21 0.11297985E-02 0.22070158E+02</pdfrwt>
<totfact> 0.15683881E+08</totfact>
</mgrwt>
</event>
<event>
 4    1  0.7119201E+004  0.2749328E+02  0.7546771E-02  0.1627574E+00
         21   -1    0    0  501  502  0.00000000000E+00  0.00000000000E+00  0.12570811770E+02  0.12570811770E+02  0.00000000000E+00 0. -1.
         21   -1    0    0  502  503 -0.00000000000E+00 -0.00000000000E+00 -0.60302137646E+02  0.60302137646E+02  0.00000000000E+00 0. -1.
          1    1    1    2  501    0 -0.56301381864E+01  0.26910629849E+02 -0.21917818229E+02  0.35160648612E+02  0.00000000000E+00 0. -1.
         -1    1    1    2    0  503  0.56301381864E+01 -0.26910629849E+02 -0.25813507647E+02  0.37712300804E+02  0.00000000000E+00 0.  1.
<mgrwt>
<rscale>  2 0.27493280E+02</rscale>
<asrwt>0</asrwt>
<pdfrwt beam="1">  1       21 0.19339710E-02 0.27493280E+02</pdfrwt>
<pdfrwt beam="2">  1       21 0.92772521E-02 0.27493280E+02</pdfrwt>
<totfact> 0.87076649E+07</totfact>
</mgrwt>
</event>
<event>
 4    1  0.7119201E+004  0.2396309E+02  0.7546771E-02  0.1676358E+00
         21   -1    0    0  501  502  0.00000000000E+00  0.00000000000E+00  0.69261018572E+01  0.69261018572E+01  0.00000000000E+00 0. -1.
         21   -1    0    0  502  503 -0.00000000000E+00 -0.00000000000E+00 -0.83304950562E+02  0.83304950562E+02  0.00000000000E+00 0. -1.
          5    1    1    2  501    0 -0.75445362676E+01  0.22744444888E+02 -0.41303402400E+02  0.47751448676E+02  0.00000000000E+00 0. -1.
         -5    1    1    2    0  503  0.75445362676E+01 -0.22744444888E+02 -0.35075446304E+02  0.42479603743E+02  0.00000000000E+00 0.  1.
<mgrwt>
<rscale>  2 0.23963092E+02</rscale>
<asrwt>0</asrwt>
<pdfrwt beam="1">  1       21 0.10655541E-02 0.23963092E+02</pdfrwt>
<pdfrwt beam="2">  1       21 0.12816147E-01 0.23963092E+02</pdfrwt>
<totfact> 0.12137821E+08</totfact>
</mgrwt>
</event>
<event>
 4    1  0.7119201E+004  0.3950419E+02  0.7546771E-02  0.1511892E+00
         21   -1    0    0  501  502  0.00000000000E+00  0.00000000000E+00  0.24722693452E+02  0.24722693452E+02  0.00000000000E+00 0. -1.
         21   -1    0    0  502  503 -0.00000000000E+00 -0.00000000000E+00 -0.68191759090E+02  0.68191759090E+02  0.00000000000E+00 0. -1.
          1    1    1    2  501    0  0.28670367260E+02 -0.27177033777E+02 -0.90691044911E+01  0.40531836623E+02  0.00000000000E+00 0. -1.
         -1    1    1    2    0  503 -0.28670367260E+02  0.27177033777E+02 -0.34399961147E+02  0.52382615920E+02  0.00000000000E+00 0.  1.
<mgrwt>
<rscale>  2 0.39504191E+02</rscale>
<asrwt>0</asrwt>
<pdfrwt beam="1">  1       21 0.38034914E-02 0.39504191E+02</pdfrwt>
<pdfrwt beam="2">  1       21 0.10491040E-01 0.39504191E+02</pdfrwt>
<totfact> 0.26407386E+07</totfact>
</mgrwt>
</event>
<event>
 4    1  0.7119201E+004  0.2231287E+02  0.7546771E-02  0.1702897E+00
         21   -1    0    0  503  502  0.00000000000E+00  0.00000000000E+00  0.54479184629E+02  0.54479184629E+02  0.00000000000E+00 0. -1.
         21   -1    0    0  501  503 -0.00000000000E+00 -0.00000000000E+00 -0.95275239861E+01  0.95275239861E+01  0.00000000000E+00 0. -1.
          1    1    1    2  501    0 -0.11759044230E+02 -0.18962836900E+02  0.16009924809E+02  0.27462374204E+02  0.00000000000E+00 0. -1.
         -1    1    1    2    0  502  0.11759044230E+02  0.18962836900E+02  0.28941735834E+02  0.36544334412E+02  0.00000000000E+00 0.  1.
<mgrwt>
<rscale>  2 0.22312873E+02</rscale>
<asrwt>0</asrwt>
<pdfrwt beam="1">  1       21 0.83814129E-02 0.22312873E+02</pdfrwt>
<pdfrwt beam="2">  1       21 0.14657729E-02 0.22312873E+02</pdfrwt>
<totfact> 0.14844041E+08</totfact>
</mgrwt>
</event>
<event>
 4    1  0.7119201E+004  0.3103556E+02  0.7546771E-02  0.1586916E+00
         21   -1    0    0  501  502  0.00000000000E+00  0.00000000000E+00  0.71433923601E+01  0.71433923601E+01  0.00000000000E+00 0.  1.
         21   -1    0    0  502  503 -0.00000000000E+00 -0.00000000000E+00 -0.21622093994E+03  0.21622093994E+03  0.00000000000E+00 0.  1.
          4    1    1    2  501    0 -0.28711730286E+02 -0.11783136197E+02 -0.17305599907E+03  0.17581690638E+03  0.00000000000E+00 0. -1.
         -4    1    1    2    0  503  0.28711730286E+02  0.11783136197E+02 -0.36021548509E+02  0.47547425920E+02  0.00000000000E+00 0.  1.
<mgrwt>
<rscale>  2 0.31035556E+02</rscale>
<asrwt>0</asrwt>
<pdfrwt beam="1">  1       21 0.10989835E-02 0.31035556E+02</pdfrwt>
<pdfrwt beam="2">  1       21 0.33264758E-01 0.31035556E+02</pdfrwt>
<totfact> 0.22791627E+07</totfact>
</mgrwt>
</event>
<event>
 4    1  0.7119201E+004  0.2112994E+02  0.7546771E-02  0.1723749E+00
         21   -1    0    0  501  502  0.00000000000E+00  0.00000000000E+00  0.28623928129E+01  0.28623928129E+01  0.00000000000E+00 0. -1.
         21   -1    0    0  502  503 -0.00000000000E+00 -0.00000000000E+00 -0.15963148082E+03  0.15963148082E+03  0.00000000000E+00 0. -1.
          4    1    1    2  501    0  0.10682622107E+02  0.18230629278E+02 -0.66095473136E+02  0.69390819479E+02  0.00000000000E+00 0.  1.
         -4    1    1    2    0  503 -0.10682622107E+02 -0.18230629278E+02 -0.90673614872E+02  0.93103054155E+02  0.00000000000E+00 0. -1.
<mgrwt>
<rscale>  2 0.21129938E+02</rscale>
<asrwt>0</asrwt>
<pdfrwt beam="1">  1       21 0.44036795E-03 0.21129938E+02</pdfrwt>
<pdfrwt beam="2">  1       21 0.24558699E-01 0.21129938E+02</pdfrwt>
<totfact> 0.14156990E+08</totfact>
</mgrwt>
</event>
<event>
 4    1  0.7119201E+004  0.3365657E+02  0.7546771E-02  0.1560865E+00
         21   -1    0    0  503  502  0.00000000000E+00  0.00000000000E+00  0.19432752370E+02  0.19432752370E+02  0.00000000000E+00 0. -1.
         21   -1    0    0  501  503 -0.00000000000E+00 -0.00000000000E+00 -0.83130351239E+02  0.83130351239E+02  0.00000000000E+00 0. -1.
          4    1    1    2  501    0 -0.31759718186E+02 -0.11139344004E+02 -0.59880337291E+02  0.68690752494E+02  0.00000000000E+00 0.  1.
         -4    1    1    2    0  502  0.31759718186E+02  0.11139344004E+02 -0.38172615773E+01  0.33872351115E+02  0.00000000000E+00 0. -1.
<mgrwt>
<rscale>  2 0.33656570E+02</rscale>
<asrwt>0</asrwt>
<pdfrwt beam="1">  1       21 0.29896542E-02 0.33656570E+02</pdfrwt>
<pdfrwt beam="2">  1       21 0.12789285E-01 0.33656570E+02</pdfrwt>
<totfact> 0.26878139E+07</totfact>
</mgrwt>
</event>
<event>
 4    1  0.7119201E+004  0.2368323E+02  0.7546771E-02  0.1680669E+00
         21   -1    0    0  501  502  0.00000000000E+00  0.00000000000E+00  0.14889621643E+02  0.14889621643E+02  0.00000000000E+00 0. -1.
         21   -1    0    0  502  503 -0.00000000000E+00 -0.00000000000E+00 -0.39949463116E+02  0.39949463116E+02  0.00000000000E+00 0. -1.
          3    1    1    2  501    0 -0.23400993990E+02 -0.36454090209E+01 -0.19079279055E+02  0.30412405625E+02  0.00000000000E+00 0.  1.
         -3    1    1    2    0  503  0.23400993990E+02  0.36454090209E+01 -0.59805624178E+01  0.24426679134E+02  0.00000000000E+00 0. -1.
<mgrwt>
<rscale>  2 0.23683233E+02</rscale>
<asrwt>0</asrwt>
<pdfrwt beam="1">  1       21 0.22907110E-02 0.23683233E+02</pdfrwt>
<pdfrwt beam="2">  1       21 0.61460712E-02 0.23683233E+02</pdfrwt>
<totfact> 0.12621749E+08</totfact>
</mgrwt>
</event>
<event>
 4    1  0.7119201E+004  0.2152278E+02  0.7546771E-02  0.1716638E+00
         21   -1    0    0  501  502  0.00000000000E+00  0.00000000000E+00  0.18351148453E+02  0.18351148453E+02  0.00000000000E+00 0. -1.
         21   -1    0    0  502  503 -0.00000000000E+00 -0.00000000000E+00 -0.28089204248E+02  0.28089204248E+02  0.00000000000E+00 0. -1.
          2    1    1    2  501    0 -0.12064475554E+02 -0.17823541619E+02  0.25229625065E+01  0.21670153346E+02  0.00000000000E+00 0. -1.
         -2    1    1    2    0  503  0.12064475554E+02  0.17823541619E+02 -0.12261018301E+02  0.24770199354E+02  0.00000000000E+00 0.  1.
<mgrwt>
<rscale>  2 0.21522783E+02</rscale>
<asrwt>0</asrwt>
<pdfrwt beam="1">  1       21 0.28232536E-02 0.21522783E+02</pdfrwt>
<pdfrwt beam="2">  1       21 0.43214160E-02 0.21522783E+02</pdfrwt>
<totfact> 0.15555543E+08</totfact>
</mgrwt>
</event>
<event>
 4    1  0.7119201E+004  0.2306746E+02  0.7546771E-02  0.1690419E+00
         21   -1    0    0  503  502  0.00000000000E+00  0.00000000000E+00  0.13668311205E+02  0.13668311205E+02  0.00000000000E+00 0.  1.
         21   -1    0    0  501  503 -0.00000000000E+00 -0.00000000000E+00 -0.39015488404E+02  0.39015488404E+02  0.00000000000E+00 0.  1.
          2    1    1    2  501    0 -0.13257489649E+02  0.18877148775E+02 -0.13906419876E+02  0.26935038360E+02  0.00000000000E+00 0. -1.
         -2    1    1    2    0  502  0.13257489649E+02 -0.18877148775E+02 -0.11440757323E+02  0.25748761248E+02  0.00000000000E+00 0.  1.
<mgrwt>
<rscale>  2 0.23067461E+02</rscale>
<asrwt>0</asrwt>
<pdfrwt beam="1">  1       21 0.21028171E-02 0.23067461E+02</pdfrwt>
<pdfrwt beam="2">  1       21 0.60023828E-02 0.23067461E+02</pdfrwt>
<totfact> 0.14841298E+08</totfact>
</mgrwt>
</event>
<event>
 4    1  0.7119201E+004  0.2624594E+02  0.7546771E-02  0.1643725E+00
         21   -1    0    0  501  502  0.00000000000E+00  0.00000000000E+00  0.21451323719E+03  0.21451323719E+03  0.00000000000E+00 0. -1.
         21   -1    0    0  502  503 -0.00000000000E+00 -0.00000000000E+00 -0.34243984002E+01  0.34243984002E+01  0.00000000000E+00 0. -1.
          1    1    1    2  501    0 -0.10247864473E+02  0.24162585649E+02  0.13273267502E+03  0.13530266919E+03  0.00000000000E+00 0. -1.
         -1    1    1    2    0  503  0.10247864473E+02 -0.24162585649E+02  0.78356163764E+02  0.82634966396E+02  0.00000000000E+00 0.  1.
<mgrwt>
<rscale>  2 0.26245938E+02</rscale>
<asrwt>0</asrwt>
<pdfrwt beam="1">  1       21 0.33002026E-01 0.26245938E+02</pdfrwt>
<pdfrwt beam="2">  1       21 0.52683069E-03 0.26245938E+02</pdfrwt>
<totfact> 0.67402187E+07</totfact>
</mgrwt>
</event>
<event>
 4    1  0.7119201E+004  0.2157643E+02  0.7546771E-02  0.1715682E+00
         21   -1    0    0  503  502  0.00000000000E+00  0.00000000000E+00  0.82393123025E+02  0.82393123025E+02  0.00000000000E+00 0.  1.
         21   -1    0    0  501  503 -0.00000000000E+00 -0.00000000000E+00 -0.56520034609E+01  0.56520034609E+01  0.00000000000E+00 0.  1.
          2    1    1    2  501    0  0.94513799979E+01 -0.19396228523E+02  0.39144552815E+02  0.44697184250E+02  0.00000000000E+00 0.  1.
         -2    1    1    2    0  502 -0.94513799979E+01  0.19396228523E+02  0.37596566750E+02  0.43347942237E+02  0.00000000000E+00 0. -1.
<mgrwt>
<rscale>  2 0.21576428E+02</rscale>
<asrwt>0</asrwt>
<pdfrwt beam="1">  1       21 0.12675864E-01 0.21576428E+02</pdfrwt>
<pdfrwt beam="2">  1       21 0.86953905E-03 0.21576428E+02</pdfrwt>
<totfact> 0.16260067E+08</totfact>
</mgrwt>
</event>
<event>
 4    1  0.7119201E+004  0.2279335E+02  0.7546771E-02  0.1694882E+00
         21   -1    0    0  503  502  0.00000000000E+00  0.00000000000E+00  0.53118722131E+01  0.53118722131E+01  0.00000000000E+00 0.  1.
         21   -1    0    0  501  503 -0.00000000000E+00 -0.00000000000E+00 -0.12183371629E+03  0.12183371629E+03  0.00000000000E+00 0.  1.
          2    1    1    2  501    0 -0.19462794391E+02  0.11863235176E+02 -0.86492648542E+02  0.89445597802E+02  0.00000000000E+00 0. -1.
         -2    1    1    2    0  502  0.19462794391E+02 -0.11863235176E+02 -0.30029195532E+02  0.37699990698E+02  0.00000000000E+00 0.  1.
<mgrwt>
<rscale>  2 0.22793348E+02</rscale>
<asrwt>0</asrwt>
<pdfrwt beam="1">  1       21 0.81721117E-03 0.22793348E+02</pdfrwt>
<pdfrwt beam="2">  1       21 0.18743647E-01 0.22793348E+02</pdfrwt>
<totfact> 0.93066074E+07</totfact>
</mgrwt>
</event>
<event>
 4    1  0.7119201E+004  0.2276500E+02  0.7546771E-02  0.1695348E+00
         21   -1    0    0  503  502  0.00000000000E+00  0.00000000000E+00  0.80074561949E+03  0.80074561949E+03  0.00000000000E+00 0. -1.
         21   -1    0    0  501  503 -0.00000000000E+00 -0.00000000000E+00 -0.70009027834E+00  0.70009027834E+00  0.00000000000E+00 0. -1.
          1    1    1    2  501    0  0.12463315317E+01  0.22730852761E+02  0.51016210753E+03  0.51066977683E+03  0.00000000000E+00 0.  1.
         -1    1    1    2    0  502 -0.12463315317E+01 -0.22730852761E+02  0.28988342168E+03  0.29077593294E+03  0.00000000000E+00 0. -1.
<mgrwt>
<rscale>  2 0.22764995E+02</rscale>
<asrwt>0</asrwt>
<pdfrwt beam="1">  1       21 0.12319090E+00 0.22764995E+02</pdfrwt>
<pdfrwt beam="2">  1       21 0.10770684E-03 0.22764995E+02</pdfrwt>
<totfact> 0.44802499E+07</totfact>
</mgrwt>
</event>
<event>
 4    1  0.7119201E+004  0.7805464E+02  0.7546771E-02  0.1334665E+00
         21   -1    0    0  501  502  0.00000000000E+00  0.00000000000E+00  0.29592822977E+02  0.29592822977E+02  0.00000000000E+00 0.  1.
         21   -1    0    0  502  503 -0.00000000000E+00 -0.00000000000E+00 -0.21095486015E+03  0.21095486015E+03  0.00000000000E+00 0.  1.
          2    1    1    2  501    0  0.77928680053E+02  0.44324804634E+01 -0.72023557174E+02  0.10620696232E+03  0.00000000000E+00 0.  1.
         -2    1    1    2    0  503 -0.77928680053E+02 -0.44324804634E+01 -0.10933848000E+03  0.13434072081E+03  0.00000000000E+00 0. -1.
<mgrwt>
<rscale>  2 0.78054635E+02</rscale>
<asrwt>0</asrwt>
<pdfrwt beam="1">  1       21 0.45527418E-02 0.78054635E+02</pdfrwt>
<pdfrwt beam="2">  1       21 0.32454595E-01 0.78054635E+02</pdfrwt>
<totfact> 0.27940023E+06</totfact>
</mgrwt>
</event>
<event>
 4    1  0.7119201E+004  0.2097351E+02  0.7546771E-02  0.1726634E+00
         21   -1    0    0  503  502  0.00000000000E+00  0.00000000000E+00  0.49076516459E+00  0.49076516459E+00  0.00000000000E+00 0. -1.
         21   -1    0    0  501  503 -0.00000000000E+00 -0.00000000000E+00 -0.92640888107E+03  0.92640888107E+03  0.00000000000E+00 0. -1.
          4    1    1    2  501    0 -0.20106066163E+02 -0.59694274105E+01 -0.37945145401E+03  0.38003064864E+03  0.00000000000E+00 0. -1.
         -4    1    1    2    0  502  0.20106066163E+02  0.59694274105E+01 -0.54646666190E+03  0.54686899759E+03  0.00000000000E+00 0.  1.
<mgrwt>
<rscale>  2 0.20973506E+02</rscale>
<asrwt>0</asrwt>
<pdfrwt beam="1">  1       21 0.75502170E-04 0.20973506E+02</pdfrwt>
<pdfrwt beam="2">  1       21 0.14252475E+00 0.20973506E+02</pdfrwt>
<totfact> 0.52097472E+07</totfact>
</mgrwt>
</event>
<event>
 4    1  0.7119201E+004  0.3475750E+02  0.7546771E-02  0.1550765E+00
         21   -1    0    0  503  502  0.00000000000E+00  0.00000000000E+00  0.29254425392E+02  0.29254425392E+02  0.00000000000E+00 0.  1.
         21   -1    0    0  501  503 -0.00000000000E+00 -0.00000000000E+00 -0.43454681070E+02  0.43454681070E+02  0.00000000000E+00 0.  1.
          2    1    1    2  501    0 -0.97633676240E+01 -0.33358065147E+02  0.10031078596E+01  0.34771972666E+02  0.00000000000E+00 0. -1.
         -2    1    1    2    0  502  0.97633676240E+01  0.33358065147E+02 -0.15203363538E+02  0.37937133795E+02  0.00000000000E+00 0.  1.
<mgrwt>
<rscale>  2 0.34757501E+02</rscale>
<asrwt>0</asrwt>
<pdfrwt beam="1">  1       21 0.45006808E-02 0.34757501E+02</pdfrwt>
<pdfrwt beam="2">  1       21 0.66853356E-02 0.34757501E+02</pdfrwt>
<totfact> 0.41714398E+07</totfact>
</mgrwt>
</event>
<event>
 4    1  0.7119201E+004  0.2013683E+02  0.7546771E-02  0.1742621E+00
         21   -1    0    0  503  502  0.00000000000E+00  0.00000000000E+00  0.18160013096E+01  0.18160013096E+01  0.00000000000E+00 0. -1.
         21   -1    0    0  501  503 -0.00000000000E+00 -0.00000000000E+00 -0.26382119177E+03  0.26382119177E+03  0.00000000000E+00 0. -1.
          4    1    1    2  501    0  0.60318601885E+00  0.20127795181E+02 -0.78942199166E+02  0.81470011547E+02  0.00000000000E+00 0.  1.
         -4    1    1    2    0  502 -0.60318601885E+00 -0.20127795181E+02 -0.18306299129E+03  0.18416718153E+03  0.00000000000E+00 0. -1.
<mgrwt>
<rscale>  2 0.20136831E+02</rscale>
<asrwt>0</asrwt>
<pdfrwt beam="1">  1       21 0.27938469E-03 0.20136831E+02</pdfrwt>
<pdfrwt beam="2">  1       21 0.40587893E-01 0.20136831E+02</pdfrwt>
<totfact> 0.10847261E+08</totfact>
</mgrwt>
</event>
<event>
 4    1  0.7119201E+004  0.2027632E+02  0.7546771E-02  0.1739888E+00
         21   -1    0    0  503  502  0.00000000000E+00  0.00000000000E+00  0.62337501169E+02  0.62337501169E+02  0.00000000000E+00 0.  1.
         21   -1    0    0  501  503 -0.00000000000E+00 -0.00000000000E+00 -0.72366470358E+01  0.72366470358E+01  0.00000000000E+00 0.  1.
          4    1    1    2  501    0  0.15252553503E+02  0.13359973789E+02  0.17193660777E+02  0.26584793754E+02  0.00000000000E+00 0. -1.
         -4    1    1    2    0  502 -0.15252553503E+02 -0.13359973789E+02  0.37907193356E+02  0.42989354451E+02  0.00000000000E+00 0.  1.
<mgrwt>
<rscale>  2 0.20276323E+02</rscale>
<asrwt>0</asrwt>
<pdfrwt beam="1">  1       21 0.95903845E-02 0.20276323E+02</pdfrwt>
<pdfrwt beam="2">  1       21 0.11133304E-02 0.20276323E+02</pdfrwt>
<totfact> 0.17501249E+08</totfact>
</mgrwt>
</event>
<event>
 4    1  0.7119201E+004  0.2387406E+02  0.7546771E-02  0.1677721E+00
         21   -1    0    0  503  502  0.00000000000E+00  0.00000000000E+00  0.15673000157E+03  0.15673000157E+03  0.00000000000E+00 0.  1.
         21   -1    0    0  501  503 -0.00000000000E+00 -0.00000000000E+00 -0.36950192303E+01  0.36950192303E+01  0.00000000000E+00 0.  1.
          4    1    1    2  501    0  0.16875995494E+02  0.16887025686E+02  0.86599720955E+02  0.89830298508E+02  0.00000000000E+00 0.  1.
         -4    1    1    2    0  502 -0.16875995494E+02 -0.16887025686E+02  0.66435261389E+02  0.70594722298E+02  0.00000000000E+00 0. -1.
<mgrwt>
<rscale>  2 0.23874063E+02</rscale>
<asrwt>0</asrwt>
<pdfrwt beam="1">  1       21 0.24112303E-01 0.23874063E+02</pdfrwt>
<pdfrwt beam="2">  1       21 0.56846462E-03 0.23874063E+02</pdfrwt>
<totfact> 0.10390519E+08</totfact>
</mgrwt>
</event>
<event>
 4    1  0.7119201E+004  0.2037790E+02  0.7546771E-02  0.1737916E+00
         21   -1    0    0  503  502  0.00000000000E+00  0.00000000000E+00  0.12472650590E+03  0.12472650590E+03  0.00000000000E+00 0.  1.
         21   -1    0    0  501  503 -0.00000000000E+00 -0.00000000000E+00 -0.53533525426E+01  0.53533525426E+01  0.00000000000E+00 0.  1.
          5    1    1    2  501    0 -0.19196823724E+02 -0.68367139940E+01  0.99678494241E+02  0.10174016372E+03  0.00000000000E+00 0. -1.
         -5    1    1    2    0  502  0.19196823724E+02  0.68367139940E+01  0.19694659116E+02  0.28339694724E+02  0.00000000000E+00 0.  1.
<mgrwt>
<rscale>  2 0.20377897E+02</rscale>
<asrwt>0</asrwt>
<pdfrwt beam="1">  1       21 0.19188691E-01 0.20377897E+02</pdfrwt>
<pdfrwt beam="2">  1       21 0.82359280E-03 0.20377897E+02</pdfrwt>
<totfact> 0.85624986E+07</totfact>
</mgrwt>
</event>
<event>
 4    1  0.7119201E+004  0.2126334E+02  0.7546771E-02  0.1721313E+00
         21   -1    0    0  503  502  0.00000000000E+00  0.00000000000E+00  0.60764037459E+02  0.60764037459E+02  0.00000000000E+00 0. -1.
         21   -1    0    0  501  503 -0.00000000000E+00 -0.00000000000E+00 -0.85992749413E+01  0.85992749413E+01  0.00000000000E+00 0. -1.
          4    1    1    2  501    0  0.18525379319E+02 -0.10437438356E+02  0.13352561236E+02  0.25108179741E+02  0.00000000000E+00 0.  1.
         -4    1    1    2    0  502 -0.18525379319E+02  0.10437438356E+02  0.38812201281E+02  0.44255132658E+02  0.00000000000E+00 0. -1.
<mgrwt>
<rscale>  2 0.21263344E+02</rscale>
<asrwt>0</asrwt>
<pdfrwt beam="1">  1       21 0.93483132E-02 0.21263344E+02</pdfrwt>
<pdfrwt beam="2">  1       21 0.13229654E-02 0.21263344E+02</pdfrwt>
<totfact> 0.14286702E+08</totfact>
</mgrwt>
</event>
<event>
 4    1  0.7119201E+004  0.2107959E+02  0.7546771E-02  0.1724674E+00
         21   -1    0    0  501  502  0.00000000000E+00  0.00000000000E+00  0.10562304203E+02  0.10562304203E+02  0.00000000000E+00 0.  1.
         21   -1    0    0  502  503 -0.00000000000E+00 -0.00000000000E+00 -0.45702039619E+02  0.45702039619E+02  0.00000000000E+00 0.  1.
          1    1    1    2  501    0 -0.18521818346E+02  0.10064353983E+02 -0.96384413703E+01  0.23178622219E+02  0.00000000000E+00 0.  1.
         -1    1    1    2    0  503  0.18521818346E+02 -0.10064353983E+02 -0.25501294046E+02  0.33085721602E+02  0.00000000000E+00 0. -1.
<mgrwt>
<rscale>  2 0.21079587E+02</rscale>
<asrwt>0</asrwt>
<pdfrwt beam="1">  1       21 0.16249699E-02 0.21079587E+02</pdfrwt>
<pdfrwt beam="2">  1       21 0.70310830E-02 0.21079587E+02</pdfrwt>
<totfact> 0.16591236E+08</totfact>
</mgrwt>
</event>
<event>
 4    1  0.7119201E+004  0.2300876E+02  0.7546771E-02  0.1691368E+00
         21   -1    0    0  503  502  0.00000000000E+00  0.00000000000E+00  0.16063245349E+02  0.16063245349E+02  0.00000000000E+00 0.  1.
         21   -1    0    0  501  503 -0.00000000000E+00 -0.00000000000E+00 -0.59861251822E+02  0.59861251822E+02  0.00000000000E+00 0.  1.
          4    1    1    2  501    0 -0.22405147640E+02 -0.52356819450E+01  0.35509014473E+01  0.23281149183E+02  0.00000000000E+00 0.  1.
         -4    1    1    2    0  502  0.22405147640E+02  0.52356819450E+01 -0.47348907920E+02  0.52643347988E+02  0.00000000000E+00 0. -1.
<mgrwt>
<rscale>  2 0.23008759E+02</rscale>
<asrwt>0</asrwt>
<pdfrwt beam="1">  1       21 0.24712685E-02 0.23008759E+02</pdfrwt>
<pdfrwt beam="2">  1       21 0.92094233E-02 0.23008759E+02</pdfrwt>
<totfact> 0.57663366E+07</totfact>
</mgrwt>
</event>
<event>
 4    1  0.7119201E+004  0.2137860E+02  0.7546771E-02  0.1719226E+00
         21   -1    0    0  501  502  0.00000000000E+00  0.00000000000E+00  0.13220452112E+04  0.13220452112E+04  0.00000000000E+00 0. -1.
         21   -1    0    0  502  503 -0.00000000000E+00 -0.00000000000E+00 -0.34835917685E+00  0.34835917685E+00  0.00000000000E+00 0. -1.
          4    1    1    2  501    0  0.19406764214E+02  0.89678358339E+01  0.60319138951E+03  0.60357012596E+03  0.00000000000E+00 0. -1.
         -4    1    1    2    0  503 -0.19406764214E+02 -0.89678358339E+01  0.71850546255E+03  0.71882344445E+03  0.00000000000E+00 0.  1.
<mgrwt>
<rscale>  2 0.21378601E+02</rscale>
<asrwt>0</asrwt>
<pdfrwt beam="1">  1       21 0.20338755E+00 0.21378601E+02</pdfrwt>
<pdfrwt beam="2">  1       21 0.53594778E-04 0.21378601E+02</pdfrwt>
<totfact> 0.35586463E+07</totfact>
</mgrwt>
</event>
<event>
 4    1  0.7119201E+004  0.2835051E+02  0.7546771E-02  0.1617072E+00
         21   -1    0    0  501  502  0.00000000000E+00  0.00000000000E+00  0.10349686292E+02  0.10349686292E+02  0.00000000000E+00 0. -1.
         21   -1    0    0  502  503 -0.00000000000E+00 -0.00000000000E+00 -0.10628192744E+03  0.10628192744E+03  0.00000000000E+00 0. -1.
          5    1    1    2  501    0  0.12538423451E+02  0.25427134070E+02 -0.17703258744E+02  0.33423892349E+02  0.00000000000E+00 0. -1.
         -5    1    1    2    0  503 -0.12538423451E+02 -0.25427134070E+02 -0.78228982402E+02  0.83207721380E+02  0.00000000000E+00 0.  1.
<mgrwt>
<rscale>  2 0.28350506E+02</rscale>
<asrwt>0</asrwt>
<pdfrwt beam="1">  1       21 0.15922593E-02 0.28350506E+02</pdfrwt>
<pdfrwt beam="2">  1       21 0.16351067E-01 0.28350506E+02</pdfrwt>
<totfact> 0.45349410E+07</totfact>
</mgrwt>
</event>
<event>
 4    1  0.7119201E+004  0.2042631E+02  0.7546771E-02  0.1736981E+00
         21   -1    0    0  501  502  0.00000000000E+00  0.00000000000E+00  0.18647616513E+03  0.18647616513E+03  0.00000000000E+00 0.  1.
         21   -1    0    0  502  503 -0.00000000000E+00 -0.00000000000E+00 -0.27655991135E+01  0.27655991135E+01  0.00000000000E+00 0.  1.
          1    1    1    2  501    0 -0.18479034760E+02  0.87039936771E+01  0.13320416223E+03  0.13476120757E+03  0.00000000000E+00 0.  1.
         -1    1    1    2    0  503  0.18479034760E+02 -0.87039936771E+01  0.50506403795E+02  0.54480556678E+02  0.00000000000E+00 0. -1.
<mgrwt>
<rscale>  2 0.20426312E+02</rscale>
<asrwt>0</asrwt>
<pdfrwt beam="1">  1       21 0.28688631E-01 0.20426312E+02</pdfrwt>
<pdfrwt beam="2">  1       21 0.42547693E-03 0.20426312E+02</pdfrwt>
<totfact> 0.11169358E+08</totfact>
</mgrwt>
</event>
<event>
 4    1  0.7119201E+004  0.3652542E+02  0.7546771E-02  0.1535457E+00
         21   -1    0    0  501  502  0.00000000000E+00  0.00000000000E+00  0.35829078752E+03  0.35829078752E+03  0.00000000000E+00 0. -1.
         21   -1    0    0  502  503 -0.00000000000E+00 -0.00000000000E+00 -0.38783474119E+01  0.38783474119E+01  0.00000000000E+00 0. -1.
          1    1    1    2  501    0  0.33609733228E+02  0.14300082717E+02  0.14102628018E+03  0.14567950520E+03  0.00000000000E+00 0. -1.
         -1    1    1    2    0  503 -0.33609733228E+02 -0.14300082717E+02  0.21338615992E+03  0.21648962973E+03  0.00000000000E+00 0.  1.
<mgrwt>
<rscale>  2 0.36525423E+02</rscale>
<asrwt>0</asrwt>
<pdfrwt beam="1">  1       21 0.55121633E-01 0.36525423E+02</pdfrwt>
<pdfrwt beam="2">  1       21 0.59666912E-03 0.36525423E+02</pdfrwt>
<totfact> 0.22220444E+07</totfact>
</mgrwt>
</event>
<event>
 4    1  0.7119201E+004  0.2777894E+02  0.7546771E-02  0.1624022E+00
         21   -1    0    0  503  502  0.00000000000E+00  0.00000000000E+00  0.20300029474E+02  0.20300029474E+02  0.00000000000E+00 0. -1.
         21   -1    0    0  501  503 -0.00000000000E+00 -0.00000000000E+00 -0.38116423463E+02  0.38116423463E+02  0.00000000000E+00 0. -1.
          2    1    1    2  501    0 -0.24303277553E+02 -0.13454381422E+02 -0.10427961367E+02  0.29671738364E+02  0.00000000000E+00 0.  1.
         -2    1    1    2    0  502  0.24303277553E+02  0.13454381422E+02 -0.73884326223E+01  0.28744714573E+02  0.00000000000E+00 0. -1.
<mgrwt>
<rscale>  2 0.27778943E+02</rscale>
<asrwt>0</asrwt>
<pdfrwt beam="1">  1       21 0.31230815E-02 0.27778943E+02</pdfrwt>
<pdfrwt beam="2">  1       21 0.58640651E-02 0.27778943E+02</pdfrwt>
<totfact> 0.87731816E+07</totfact>
</mgrwt>
</event>
<event>
 4    1  0.7119201E+004  0.3743235E+02  0.7546771E-02  0.1528004E+00
         21   -1    0    0  503  502  0.00000000000E+00  0.00000000000E+00  0.14713674416E+02  0.14713674416E+02  0.00000000000E+00 0.  1.
         21   -1    0    0  501  503 -0.00000000000E+00 -0.00000000000E+00 -0.98635007384E+02  0.98635007384E+02  0.00000000000E+00 0.  1.
          3    1    1    2  501    0 -0.35359638512E+02 -0.12283182583E+02 -0.31430354092E+02  0.48877886292E+02  0.00000000000E+00 0. -1.
         -3    1    1    2    0  502  0.35359638512E+02  0.12283182583E+02 -0.52490978877E+02  0.64470795508E+02  0.00000000000E+00 0.  1.
<mgrwt>
<rscale>  2 0.37432347E+02</rscale>
<asrwt>0</asrwt>
<pdfrwt beam="1">  1       21 0.22636422E-02 0.37432347E+02</pdfrwt>
<pdfrwt beam="2">  1       21 0.15174617E-01 0.37432347E+02</pdfrwt>
<totfact> 0.31617819E+07</totfact>
</mgrwt>
</event>
<event>
 4    1  0.7119201E+004  0.4262384E+02  0.7546771E-02  0.1489745E+00
         21   -1    0    0  501  502  0.00000000000E+00  0.00000000000E+00  0.14775887677E+03  0.14775887677E+03  0.00000000000E+00 0. -1.
         21   -1    0    0  502  503 -0.00000000000E+00 -0.00000000000E+00 -0.20669923342E+02  0.20669923342E+02  0.00000000000E+00 0. -1.
          5    1    1    2  501    0 -0.18236476905E+02  0.38525608153E+02  0.11714764595E+03  0.12466099039E+03  0.00000000000E+00 0. -1.
         -5    1    1    2    0  503  0.18236476905E+02 -0.38525608153E+02  0.99413074772E+01  0.43767809721E+02  0.00000000000E+00 0.  1.
<mgrwt>
<rscale>  2 0.42623838E+02</rscale>
<asrwt>0</asrwt>
<pdfrwt beam="1">  1       21 0.22732134E-01 0.42623838E+02</pdfrwt>
<pdfrwt beam="2">  1       21 0.31799883E-02 0.42623838E+02</pdfrwt>
<totfact> 0.92097530E+06</totfact>
</mgrwt>
</event>
<event>
 4    1  0.7119201E+004  0.2274053E+02  0.7546771E-02  0.1695751E+00
         21   -1    0    0  503  502  0.00000000000E+00  0.00000000000E+00  0.20420565871E+01  0.20420565871E+01  0.00000000000E+00 0.  1.
         21   -1    0    0  501  503 -0.00000000000E+00 -0.00000000000E+00 -0.25708573685E+03  0.25708573685E+03  0.00000000000E+00 0.  1.
          2    1    1    2  501    0 -0.21580741841E+02 -0.71695935238E+01 -0.14336730330E+03  0.14515961954E+03  0.00000000000E+00 0. -1.
         -2    1    1    2    0  502  0.21580741841E+02  0.71695935238E+01 -0.11167637697E+03  0.11396817390E+03  0.00000000000E+00 0.  1.
<mgrwt>
<rscale>  2 0.22740525E+02</rscale>
<asrwt>0</asrwt>
<pdfrwt beam="1">  1       21 0.31416249E-03 0.22740525E+02</pdfrwt>
<pdfrwt beam="2">  1       21 0.39551660E-01 0.22740525E+02</pdfrwt>
<totfact> 0.99256300E+07</totfact>
</mgrwt>
</event>
<event>
 4    1  0.7119201E+004  0.2242341E+02  0.7546771E-02  0.1701031E+00
         21   -1    0    0  503  502  0.00000000000E+00  0.00000000000E+00  0.59788463676E+02  0.59788463676E+02  0.00000000000E+00 0.  1.
         21   -1    0    0  501  503 -0.00000000000E+00 -0.00000000000E+00 -0.84480907325E+01  0.84480907325E+01  0.00000000000E+00 0.  1.
          5    1    1    2  501    0  0.17257135250E+02  0.14317843912E+02  0.27966977554E+02  0.35846355531E+02  0.00000000000E+00 0. -1.
         -5    1    1    2    0  502 -0.17257135250E+02 -0.14317843912E+02  0.23373395389E+02  0.32390198878E+02  0.00000000000E+00 0.  1.
<mgrwt>
<rscale>  2 0.22423411E+02</rscale>
<asrwt>0</asrwt>
<pdfrwt beam="1">  1       21 0.91982249E-02 0.22423411E+02</pdfrwt>
<pdfrwt beam="2">  1       21 0.12997063E-02 0.22423411E+02</pdfrwt>
<totfact> 0.15314824E+08</totfact>
</mgrwt>
</event>
<event>
 4    1  0.7119201E+004  0.2044432E+02  0.7546771E-02  0.1736634E+00
         21   -1    0    0  501  502  0.00000000000E+00  0.00000000000E+00  0.34717479295E+02  0.34717479295E+02  0.00000000000E+00 0. -1.
         21   -1    0    0  502  503 -0.00000000000E+00 -0.00000000000E+00 -0.13949361844E+02  0.13949361844E+02  0.00000000000E+00 0. -1.
          2    1    1    2  501    0 -0.27944576827E+01  0.20252441440E+02  0.19388609542E+02  0.28176028073E+02  0.00000000000E+00 0.  1.
         -2    1    1    2    0  503  0.27944576827E+01 -0.20252441440E+02  0.13795079088E+01  0.20490813065E+02  0.00000000000E+00 0. -1.
<mgrwt>
<rscale>  2 0.20444324E+02</rscale>
<asrwt>0</asrwt>
<pdfrwt beam="1">  1       21 0.53411506E-02 0.20444324E+02</pdfrwt>
<pdfrwt beam="2">  1       21 0.21460557E-02 0.20444324E+02</pdfrwt>
<totfact> 0.16699160E+08</totfact>
</mgrwt>
</event>
<event>
 4    1  0.7119201E+004  0.2020082E+02  0.7546771E-02  0.1741364E+00
         21   -1    0    0  503  502  0.00000000000E+00  0.00000000000E+00  0.13664442149E+02  0.13664442149E+02  0.00000000000E+00 0. -1.
         21   -1    0    0  501  503 -0.00000000000E+00 -0.00000000000E+00 -0.30004368747E+02  0.30004368747E+02  0.00000000000E+00 0. -1.
          5    1    1    2  501    0  0.17834160817E+02  0.94876676978E+01 -0.96640803437E+01  0.22393471801E+02  0.00000000000E+00 0. -1.
         -5    1    1    2    0  502 -0.17834160817E+02 -0.94876676978E+01 -0.66758462548E+01  0.21275339095E+02  0.00000000000E+00 0.  1.
<mgrwt>
<rscale>  2 0.20200820E+02</rscale>
<asrwt>0</asrwt>
<pdfrwt beam="1">  1       21 0.21022219E-02 0.20200820E+02</pdfrwt>
<pdfrwt beam="2">  1       21 0.46160567E-02 0.20200820E+02</pdfrwt>
<totfact> 0.21630088E+08</totfact>
</mgrwt>
</event>
<event>
 4    1  0.7119201E+004  0.2305224E+02  0.7546771E-02  0.1690665E+00
         21   -1    0    0  501  502  0.00000000000E+00  0.00000000000E+00  0.41302091729E+02  0.41302091729E+02  0.00000000000E+00 0. -1.
         21   -1    0    0  502  503 -0.00000000000E+00 -0.00000000000E+00 -0.13194557836E+02  0.13194557836E+02  0.00000000000E+00 0. -1.
          3    1    1    2  501    0 -0.21250711305E+02  0.89338118148E+01  0.18351505379E+02  0.29464953321E+02  0.00000000000E+00 0. -1.
         -3    1    1    2    0  503  0.21250711305E+02 -0.89338118148E+01  0.97560285140E+01  0.25031696244E+02  0.00000000000E+00 0.  1.
<mgrwt>
<rscale>  2 0.23052239E+02</rscale>
<asrwt>0</asrwt>
<pdfrwt beam="1">  1       21 0.63541679E-02 0.23052239E+02</pdfrwt>
<pdfrwt beam="2">  1       21 0.20299320E-02 0.23052239E+02</pdfrwt>
<totfact> 0.14293067E+08</totfact>
</mgrwt>
</event>
<event>
 4    1  0.7119201E+004  0.3143837E+02  0.7546771E-02  0.1582713E+00
         21   -1    0    0  503  502  0.00000000000E+00  0.00000000000E+00  0.59440421673E+02  0.59440421673E+02  0.00000000000E+00 0. -1.
         21   -1    0    0  501  503 -0.00000000000E+00 -0.00000000000E+00 -0.18149704921E+02  0.18149704921E+02  0.00000000000E+00 0. -1.
          4    1    1    2  501    0 -0.31230491755E+02 -0.36093912567E+01  0.31878895690E+02  0.44773153909E+02  0.00000000000E+00 0. -1.
         -4    1    1    2    0  502  0.31230491755E+02  0.36093912567E+01  0.94118210621E+01  0.32816972685E+02  0.00000000000E+00 0.  1.
<mgrwt>
<rscale>  2 0.31438373E+02</rscale>
<asrwt>0</asrwt>
<pdfrwt beam="1">  1       21 0.91446802E-02 0.31438373E+02</pdfrwt>
<pdfrwt beam="2">  1       21 0.27922623E-02 0.31438373E+02</pdfrwt>
<totfact> 0.51965783E+07</totfact>
</mgrwt>
</event>
<event>
 4    1  0.7119201E+004  0.2168584E+02  0.7546771E-02  0.1713742E+00
         21   -1    0    0  503  502  0.00000000000E+00  0.00000000000E+00  0.56831896625E+01  0.56831896625E+01  0.00000000000E+00 0.  1.
         21   -1    0    0  501  503 -0.00000000000E+00 -0.00000000000E+00 -0.85153186149E+02  0.85153186149E+02  0.00000000000E+00 0.  1.
          3    1    1    2  501    0 -0.21658208296E+02  0.10944769152E+01 -0.47367228378E+02  0.52095395099E+02  0.00000000000E+00 0.  1.
         -3    1    1    2    0  502  0.21658208296E+02 -0.10944769152E+01 -0.32102768109E+02  0.38740980712E+02  0.00000000000E+00 0. -1.
<mgrwt>
<rscale>  2 0.21685845E+02</rscale>
<asrwt>0</asrwt>
<pdfrwt beam="1">  1       21 0.87433690E-03 0.21685845E+02</pdfrwt>
<pdfrwt beam="2">  1       21 0.13100490E-01 0.21685845E+02</pdfrwt>
<totfact> 0.15282645E+08</totfact>
</mgrwt>
</event>
<event>
 4    1  0.7119201E+004  0.2144201E+02  0.7546771E-02  0.1718085E+00
         21   -1    0    0  501  502  0.00000000000E+00  0.00000000000E+00  0.98489166538E+02  0.98489166538E+02  0.00000000000E+00 0.  1.
         21   -1    0    0  502  503 -0.00000000000E+00 -0.00000000000E+00 -0.52974057562E+01  0.52974057562E+01  0.00000000000E+00 0.  1.
          3    1    1    2  501    0  0.19280046496E+02  0.93829445502E+01  0.28710366368E+02  0.35833573340E+02  0.00000000000E+00 0. -1.
         -3    1    1    2    0  503 -0.19280046496E+02 -0.93829445502E+01  0.64481394413E+02  0.67952998954E+02  0.00000000000E+00 0.  1.
<mgrwt>
<rscale>  2 0.21442011E+02</rscale>
<asrwt>0</asrwt>
<pdfrwt beam="1">  1       21 0.15152178E-01 0.21442011E+02</pdfrwt>
<pdfrwt beam="2">  1       21 0.81498557E-03 0.21442011E+02</pdfrwt>
<totfact> 0.13227926E+08</totfact>
</mgrwt>
</event>
<event>
 4    1  0.7119201E+004  0.2141873E+02  0.7546771E-02  0.1718503E+00
         21   -1    0    0  501  502  0.00000000000E+00  0.00000000000E+00  0.79072166488E+00  0.79072166488E+00  0.00000000000E+00 0.  1.
         21   -1    0    0  502  503 -0.00000000000E+00 -0.00000000000E+00 -0.58346751158E+03  0.58346751158E+03  0.00000000000E+00 0.  1.
          2    1    1    2  501    0 -0.17434788512E+02 -0.12441469171E+02 -0.31326176961E+03  0.31399315009E+03  0.00000000000E+00 0.  1.
         -2    1    1    2    0  503  0.17434788512E+02  0.12441469171E+02 -0.26941502031E+03  0.27026508316E+03  0.00000000000E+00 0. -1.
<mgrwt>
<rscale>  2 0.21418730E+02</rscale>
<asrwt>0</asrwt>
<pdfrwt beam="1">  1       21 0.12164944E-03 0.21418730E+02</pdfrwt>
<pdfrwt beam="2">  1       21 0.89764267E-01 0.21418730E+02</pdfrwt>
<totfact> 0.74634738E+07</totfact>
</mgrwt>
</event>
<event>
 4    1  0.7119201E+004  0.2553069E+02  0.7546771E-02  0.1653494E+00
         21   -1    0    0  503  502  0.00000000000E+00  0.00000000000E+00  0.27372795486E+03  0.27372795486E+03  0.00000000000E+00 0.  1.
         21   -1    0    0  501  503 -0.00000000000E+00 -0.00000000000E+00 -0.23829874542E+01  0.23829874542E+01  0.00000000000E+00 0.  1.
          1    1    1    2  501    0  0.21957471413E+02  0.13026350861E+02  0.13195128180E+03  0.13439850124E+03  0.00000000000E+00 0.  1.
         -1    1    1    2    0  502 -0.21957471413E+02 -0.13026350861E+02  0.13939368561E+03  0.14171244108E+03  0.00000000000E+00 0. -1.
<mgrwt>
<rscale>  2 0.25530695E+02</rscale>
<asrwt>0</asrwt>
<pdfrwt beam="1">  1       21 0.42111968E-01 0.25530695E+02</pdfrwt>
<pdfrwt beam="2">  1       21 0.36661367E-03 0.25530695E+02</pdfrwt>
<totfact> 0.72379143E+07</totfact>
</mgrwt>
</event>
<event>
 4    1  0.7119201E+004  0.2680088E+02  0.7546771E-02  0.1636406E+00
         21   -1    0    0  501  502  0.00000000000E+00  0.00000000000E+00  0.43233416355E+01  0.43233416355E+01  0.00000000000E+00 0. -1.
         21   -1    0    0  502  503 -0.00000000000E+00 -0.00000000000E+00 -0.16823640141E+03  0.16823640141E+03  0.00000000000E+00 0. -1.
          2    1    1    2  501    0  0.19319223618E+02 -0.18575647949E+02 -0.91584087086E+02  0.95425007757E+02  0.00000000000E+00 0. -1.
         -2    1    1    2    0  503 -0.19319223618E+02  0.18575647949E+02 -0.72328972684E+02  0.77134735284E+02  0.00000000000E+00 0.  1.
<mgrwt>
<rscale>  2 0.26800879E+02</rscale>
<asrwt>0</asrwt>
<pdfrwt beam="1">  1       21 0.66512958E-03 0.26800879E+02</pdfrwt>
<pdfrwt beam="2">  1       21 0.25882520E-01 0.26800879E+02</pdfrwt>
<totfact> 0.74599933E+07</totfact>
</mgrwt>
</event>
<event>
 4    1  0.7119201E+004  0.2174700E+02  0.7546771E-02  0.1712665E+00
         21   -1    0    0  503  502  0.00000000000E+00  0.00000000000E+00  0.15289341816E+02  0.15289341816E+02  0.00000000000E+00 0.  1.
         21   -1    0    0  501  503 -0.00000000000E+00 -0.00000000000E+00 -0.30933679099E+02  0.30933679099E+02  0.00000000000E+00 0.  1.
          4    1    1    2  501    0  0.20362031597E+02 -0.76367220614E+01 -0.76584315219E+01  0.23056093077E+02  0.00000000000E+00 0. -1.
         -4    1    1    2    0  502 -0.20362031597E+02  0.76367220614E+01 -0.79859057617E+01  0.23166927838E+02  0.00000000000E+00 0.  1.
<mgrwt>
<rscale>  2 0.21746996E+02</rscale>
<asrwt>0</asrwt>
<pdfrwt beam="1">  1       21 0.23522065E-02 0.21746996E+02</pdfrwt>
<pdfrwt beam="2">  1       21 0.47590275E-02 0.21746996E+02</pdfrwt>
<totfact> 0.17762639E+08</totfact>
</mgrwt>
</event>
<event>
 4    1  0.7119201E+004  0.2257508E+02  0.7546771E-02  0.1698492E+00
         21   -1    0    0  503  502  0.00000000000E+00  0.00000000000E+00  0.25724685716E+01  0.25724685716E+01  0.00000000000E+00 0. -1.
         21   -1    0    0  501  503 -0.00000000000E+00 -0.00000000000E+00 -0.20158699091E+03  0.20158699091E+03  0.00000000000E+00 0. -1.
          4    1    1    2  501    0  0.13544996756E+02 -0.18060099008E+02 -0.86102699250E+02  0.89012970580E+02  0.00000000000E+00 0.  1.
         -4    1    1    2    0  502 -0.13544996756E+02  0.18060099008E+02 -0.11291182309E+03  0.11514648890E+03  0.00000000000E+00 0. -1.
<mgrwt>
<rscale>  2 0.22575077E+02</rscale>
<asrwt>0</asrwt>
<pdfrwt beam="1">  1       21 0.39576428E-03 0.22575077E+02</pdfrwt>
<pdfrwt beam="2">  1       21 0.31013392E-01 0.22575077E+02</pdfrwt>
<totfact> 0.11087899E+08</totfact>
</mgrwt>
</event>
<event>
 4    1  0.7119201E+004  0.2082907E+02  0.7546771E-02  0.1729326E+00
         21   -1    0    0  503  502  0.00000000000E+00  0.00000000000E+00  0.13998231287E+02  0.13998231287E+02  0.00000000000E+00 0. -1.
         21   -1    0    0  501  503 -0.00000000000E+00 -0.00000000000E+00 -0.34495712900E+02  0.34495712900E+02  0.00000000000E+00 0. -1.
          3    1    1    2  501    0 -0.79059286474E+01 -0.19270349053E+02 -0.17974914626E+02  0.27512681007E+02  0.00000000000E+00 0.  1.
         -3    1    1    2    0  502  0.79059286474E+01  0.19270349053E+02 -0.25225669878E+01  0.20981263180E+02  0.00000000000E+00 0. -1.
<mgrwt>
<rscale>  2 0.20829068E+02</rscale>
<asrwt>0</asrwt>
<pdfrwt beam="1">  1       21 0.21535741E-02 0.20829068E+02</pdfrwt>
<pdfrwt beam="2">  1       21 0.53070327E-02 0.20829068E+02</pdfrwt>
<totfact> 0.16878836E+08</totfact>
</mgrwt>
</event>
<event>
 4    1  0.7119201E+004  0.2098133E+02  0.7546771E-02  0.1726489E+00
         21   -1    0    0  503  502  0.00000000000E+00  0.00000000000E+00  0.45645931043E+03  0.45645931043E+03  0.00000000000E+00 0.  1.
         21   -1    0    0  501  503 -0.00000000000E+00 -0.00000000000E+00 -0.10606256138E+01  0.10606256138E+01  0.00000000000E+00 0.  1.
          1    1    1    2  501    0 -0.12426815862E+02 -0.16905343043E+02  0.29659781969E+03  0.29733900353E+03  0.00000000000E+00 0. -1.
         -1    1    1    2    0  502  0.12426815862E+02  0.16905343043E+02  0.15880086513E+03  0.16018093251E+03  0.00000000000E+00 0.  1.
<mgrwt>
<rscale>  2 0.20981334E+02</rscale>
<asrwt>0</asrwt>
<pdfrwt beam="1">  1       21 0.70224353E-01 0.20981334E+02</pdfrwt>
<pdfrwt beam="2">  1       21 0.16317354E-03 0.20981334E+02</pdfrwt>
<totfact> 0.81463220E+07</totfact>
</mgrwt>
</event>
<event>
 4    1  0.7119201E+004  0.2115032E+02  0.7546771E-02  0.1723375E+00
         21   -1    0    0  501  502  0.00000000000E+00  0.00000000000E+00  0.20187128589E+02  0.20187128589E+02  0.00000000000E+00 0. -1.
         21   -1    0    0  502  503 -0.00000000000E+00 -0.00000000000E+00 -0.22967155581E+02  0.22967155581E+02  0.00000000000E+00 0. -1.
          4    1    1    2  501    0  0.21102152803E+02  0.14265781059E+01 -0.54363566420E+01  0.21837810136E+02  0.00000000000E+00 0.  1.
         -4    1    1    2    0  503 -0.21102152803E+02 -0.14265781059E+01  0.26563296503E+01  0.21316474033E+02  0.00000000000E+00 0. -1.
<mgrwt>
<rscale>  2 0.21150319E+02</rscale>
<asrwt>0</asrwt>
<pdfrwt beam="1">  1       21 0.31057121E-02 0.21150319E+02</pdfrwt>
<pdfrwt beam="2">  1       21 0.35334085E-02 0.21150319E+02</pdfrwt>
<totfact> 0.18300644E+08</totfact>
</mgrwt>
</event>
<event>
 4    1  0.7119201E+004  0.2212728E+02  0.7546771E-02  0.1706060E+00
         21   -1    0    0  503  502  0.00000000000E+00  0.00000000000E+00  0.49194760826E+02  0.49194760826E+02  0.00000000000E+00 0. -1.
         21   -1    0    0  501  503 -0.00000000000E+00 -0.00000000000E+00 -0.10032632153E+02  0.10032632153E+02  0.00000000000E+00 0. -1.
          5    1    1    2  501    0 -0.74816394420E+01 -0.20824067135E+02  0.16936425037E+02  0.27865017385E+02  0.00000000000E+00 0. -1.
         -5    1    1    2    0  502  0.74816394420E+01  0.20824067135E+02  0.22225703636E+02  0.31362375594E+02  0.00000000000E+00 0.  1.
<mgrwt>
<rscale>  2 0.22127284E+02</rscale>
<asrwt>0</asrwt>
<pdfrwt beam="1">  1       21 0.75684246E-02 0.22127284E+02</pdfrwt>
<pdfrwt beam="2">  1       21 0.15434819E-02 0.22127284E+02</pdfrwt>
<totfact> 0.16164473E+08</totfact>
</mgrwt>
</event>
<event>
 4    1  0.7119201E+004  0.2059651E+02  0.7546771E-02  0.1733719E+00
         21   -1    0    0  503  502  0.00000000000E+00  0.00000000000E+00  0.57375303214E+01  0.57375303214E+01  0.00000000000E+00 0. -1.
         21   -1    0    0  501  503 -0.00000000000E+00 -0.00000000000E+00 -0.89245799715E+02  0.89245799715E+02  0.00000000000E+00 0. -1.
          3    1    1    2  501    0  0.20297196158E+02 -0.34985746084E+01 -0.61423622153E+02  0.64784855905E+02  0.00000000000E+00 0.  1.
         -3    1    1    2    0  502 -0.20297196158E+02  0.34985746084E+01 -0.22084647240E+02  0.30198474131E+02  0.00000000000E+00 0. -1.
<mgrwt>
<rscale>  2 0.20596509E+02</rscale>
<asrwt>0</asrwt>
<pdfrwt beam="1">  1       21 0.88269697E-03 0.20596509E+02</pdfrwt>
<pdfrwt beam="2">  1       21 0.13730123E-01 0.20596509E+02</pdfrwt>
<totfact> 0.13709021E+08</totfact>
</mgrwt>
</event>
<event>
 4    1  0.7119201E+004  0.3163916E+02  0.7546771E-02  0.1580646E+00
         21   -1    0    0  501  502  0.00000000000E+00  0.00000000000E+00  0.80304951551E+01  0.80304951551E+01  0.00000000000E+00 0. -1.
         21   -1    0    0  502  503 -0.00000000000E+00 -0.00000000000E+00 -0.12649254634E+03  0.12649254634E+03  0.00000000000E+00 0. -1.
          5    1    1    2  501    0  0.14529171402E+02 -0.28105867708E+02 -0.67339203810E+02  0.74401646427E+02  0.00000000000E+00 0.  1.
         -5    1    1    2    0  503 -0.14529171402E+02  0.28105867708E+02 -0.51122847373E+02  0.60121395066E+02  0.00000000000E+00 0. -1.
<mgrwt>
<rscale>  2 0.31639163E+02</rscale>
<asrwt>0</asrwt>
<pdfrwt beam="1">  1       21 0.12354609E-02 0.31639163E+02</pdfrwt>
<pdfrwt beam="2">  1       21 0.19460391E-01 0.31639163E+02</pdfrwt>
<totfact> 0.50522471E+07</totfact>
</mgrwt>
</event>
<event>
 4    1  0.7119201E+004  0.2179160E+02  0.7546771E-02  0.1711881E+00
         21   -1    0    0  501  502  0.00000000000E+00  0.00000000000E+00  0.37150768992E+01  0.37150768992E+01  0.00000000000E+00 0. -1.
         21   -1    0    0  502  503 -0.00000000000E+00 -0.00000000000E+00 -0.16793308366E+03  0.16793308366E+03  0.00000000000E+00 0. -1.
          2    1    1    2  501    0  0.17678412798E+02  0.12741572240E+02 -0.40165434550E+02  0.45696127569E+02  0.00000000000E+00 0.  1.
         -2    1    1    2    0  503 -0.17678412798E+02 -0.12741572240E+02 -0.12405257221E+03  0.12595203299E+03  0.00000000000E+00 0. -1.
<mgrwt>
<rscale>  2 0.21791603E+02</rscale>
<asrwt>0</asrwt>
<pdfrwt beam="1">  1       21 0.57155029E-03 0.21791603E+02</pdfrwt>
<pdfrwt beam="2">  1       21 0.25835859E-01 0.21791603E+02</pdfrwt>
<totfact> 0.88909568E+07</totfact>
</mgrwt>
</event>
<event>
 4    1  0.7119201E+004  0.2857118E+02  0.7546771E-02  0.1614441E+00
         21   -1    0    0  503  502  0.00000000000E+00  0.00000000000E+00  0.67134376113E+03  0.67134376113E+03  0.00000000000E+00 0. -1.
         21   -1    0    0  501  503 -0.00000000000E+00 -0.00000000000E+00 -0.12383837161E+01  0.12383837161E+01  0.00000000000E+00 0. -1.
          2    1    1    2  501    0 -0.19184663166E+02  0.21172170729E+02  0.38032768597E+03  0.38139934561E+03  0.00000000000E+00 0. -1.
         -2    1    1    2    0  502  0.19184663166E+02 -0.21172170729E+02  0.28977769144E+03  0.29118279923E+03  0.00000000000E+00 0.  1.
<mgrwt>
<rscale>  2 0.28571176E+02</rscale>
<asrwt>0</asrwt>
<pdfrwt beam="1">  1       21 0.10328336E+00 0.28571176E+02</pdfrwt>
<pdfrwt beam="2">  1       21 0.19052111E-03 0.28571176E+02</pdfrwt>
<totfact> 0.30619448E+07</totfact>
</mgrwt>
</event>
<event>
 4    1  0.7119201E+004  0.2524550E+02  0.7546771E-02  0.1657501E+00
         21   -1    0    0  503  502  0.00000000000E+00  0.00000000000E+00  0.29071974662E+01  0.29071974662E+01  0.00000000000E+00 0. -1.
         21   -1    0    0  501  503 -0.00000000000E+00 -0.00000000000E+00 -0.24470573751E+03  0.24470573751E+03  0.00000000000E+00 0. -1.
          5    1    1    2  501    0 -0.14060220195E+02 -0.20967721694E+02 -0.16084894401E+03  0.16281805162E+03  0.00000000000E+00 0.  1.
         -5    1    1    2    0  502  0.14060220195E+02  0.20967721694E+02 -0.80949596037E+02  0.84794883357E+02  0.00000000000E+00 0. -1.
<mgrwt>
<rscale>  2 0.25245498E+02</rscale>
<asrwt>0</asrwt>
<pdfrwt beam="1">  1       21 0.44726099E-03 0.25245498E+02</pdfrwt>
<pdfrwt beam="2">  1       21 0.37647050E-01 0.25245498E+02</pdfrwt>
<totfact> 0.66589144E+07</totfact>
</mgrwt>
</event>
<event>
 4    1  0.7119201E+004  0.2524815E+02  0.7546771E-02  0.1657463E+00
         21   -1    0    0  503  502  0.00000000000E+00  0.00000000000E+00  0.23818888058E+03  0.23818888058E+03  0.00000000000E+00 0. -1.
         21   -1    0    0  501  503 -0.00000000000E+00 -0.00000000000E+00 -0.29759259108E+01  0.29759259108E+01  0.00000000000E+00 0. -1.
          5    1    1    2  501    0 -0.52952001650E+01 -0.24686639829E+02  0.15586684005E+03  0.15789851537E+03  0.00000000000E+00 0. -1.
         -5    1    1    2    0  502  0.52952001650E+01  0.24686639829E+02  0.79346114623E+02  0.83266291118E+02  0.00000000000E+00 0.  1.
<mgrwt>
<rscale>  2 0.25248155E+02</rscale>
<asrwt>0</asrwt>
<pdfrwt beam="1">  1       21 0.36644428E-01 0.25248155E+02</pdfrwt>
<pdfrwt beam="2">  1       21 0.45783494E-03 0.25248155E+02</pdfrwt>
<totfact> 0.67670396E+07</totfact>
</mgrwt>
</event>
<event>
 4    1  0.7119201E+004  0.2986262E+02  0.7546771E-02  0.1599612E+00
         21   -1    0    0  501  502  0.00000000000E+00  0.00000000000E+00  0.29136393155E+01  0.29136393155E+01  0.00000000000E+00 0.  1.
         21   -1    0    0  502  503 -0.00000000000E+00 -0.00000000000E+00 -0.37136204587E+03  0.37136204587E+03  0.00000000000E+00 0.  1.
          3    1    1    2  501    0 -0.29523215549E+02  0.44895528047E+01 -0.10575587150E+03  0.10989122211E+03  0.00000000000E+00 0.  1.
         -3    1    1    2    0  503  0.29523215549E+02 -0.44895528047E+01 -0.26269253506E+03  0.26438446307E+03  0.00000000000E+00 0. -1.
<mgrwt>
<rscale>  2 0.29862624E+02</rscale>
<asrwt>0</asrwt>
<pdfrwt beam="1">  1       21 0.44825189E-03 0.29862624E+02</pdfrwt>
<pdfrwt beam="2">  1       21 0.57132663E-01 0.29862624E+02</pdfrwt>
<totfact> 0.30632723E+07</totfact>
</mgrwt>
</event>
<event>
 4    1  0.7119201E+004  0.2985598E+02  0.7546771E-02  0.1599686E+00
         21   -1    0    0  503  502  0.00000000000E+00  0.00000000000E+00  0.86994723287E+02  0.86994723287E+02  0.00000000000E+00 0. -1.
         21   -1    0    0  501  503 -0.00000000000E+00 -0.00000000000E+00 -0.10260705233E+02  0.10260705233E+02  0.00000000000E+00 0. -1.
          2    1    1    2  501    0  0.19442923778E+02  0.22657271742E+02  0.40185243710E+02  0.50062291795E+02  0.00000000000E+00 0.  1.
         -2    1    1    2    0  502 -0.19442923778E+02 -0.22657271742E+02  0.36548774345E+02  0.47193136725E+02  0.00000000000E+00 0. -1.
<mgrwt>
<rscale>  2 0.29855975E+02</rscale>
<asrwt>0</asrwt>
<pdfrwt beam="1">  1       21 0.13383803E-01 0.29855975E+02</pdfrwt>
<pdfrwt beam="2">  1       21 0.15785701E-02 0.29855975E+02</pdfrwt>
<totfact> 0.65584297E+07</totfact>
</mgrwt>
</event>
<event>
 4    1  0.7119201E+004  0.2126098E+02  0.7546771E-02  0.1721355E+00
         21   -1    0    0  503  502  0.00000000000E+00  0.00000000000E+00  0.38131683940E+02  0.38131683940E+02  0.00000000000E+00 0. -1.
         21   -1    0    0  501  503 -0.00000000000E+00 -0.00000000000E+00 -0.11880124483E+02  0.11880124483E+02  0.00000000000E+00 0. -1.
          2    1    1    2  501    0  0.21078860756E+02 -0.27768430918E+01  0.11962765053E+02  0.24395429408E+02  0.00000000000E+00 0.  1.
         -2    1    1    2    0  502 -0.21078860756E+02  0.27768430918E+01  0.14288794404E+02  0.25616379015E+02  0.00000000000E+00 0. -1.
<mgrwt>
<rscale>  2 0.21260979E+02</rscale>
<asrwt>0</asrwt>
<pdfrwt beam="1">  1       21 0.58664129E-02 0.21260979E+02</pdfrwt>
<pdfrwt beam="2">  1       21 0.18277115E-02 0.21260979E+02</pdfrwt>
<totfact> 0.18607536E+08</totfact>
</mgrwt>
</event>
<event>
 4    1  0.7119201E+004  0.2027376E+02  0.7546771E-02  0.1739938E+00
         21   -1    0    0  501  502  0.00000000000E+00  0.00000000000E+00  0.17789324292E+04  0.17789324292E+04  0.00000000000E+00 0.  1.
         21   -1    0    0  502  503 -0.00000000000E+00 -0.00000000000E+00 -0.23528648070E+00  0.23528648070E+00  0.00000000000E+00 0.  1.
          5    1    1    2  501    0 -0.11068709420E+02  0.16985556035E+02  0.77000430471E+03  0.77027115662E+03  0.00000000000E+00 0.  1.
         -5    1    1    2    0  503  0.11068709420E+02 -0.16985556035E+02  0.10086928381E+04  0.10088965591E+04  0.00000000000E+00 0. -1.
<mgrwt>
<rscale>  2 0.20273762E+02</rscale>
<asrwt>0</asrwt>
<pdfrwt beam="1">  1       21 0.27367114E+00 0.20273762E+02</pdfrwt>
<pdfrwt beam="2">  1       21 0.36199345E-04 0.20273762E+02</pdfrwt>
<totfact> 0.27028770E+07</totfact>
</mgrwt>
</event>
<event>
 4    1  0.7119201E+004  0.2437135E+02  0.7546771E-02  0.1670199E+00
         21   -1    0    0  501  502  0.00000000000E+00  0.00000000000E+00  0.11368902746E+02  0.11368902746E+02  0.00000000000E+00 0.  1.
         21   -1    0    0  502  503 -0.00000000000E+00 -0.00000000000E+00 -0.52837401678E+02  0.52837401678E+02  0.00000000000E+00 0.  1.
          5    1    1    2  501    0 -0.22657175841E+02  0.89785924812E+01 -0.24134923884E+02  0.34299523188E+02  0.00000000000E+00 0. -1.
         -5    1    1    2    0  503  0.22657175841E+02 -0.89785924812E+01 -0.17333575048E+02  0.29906781237E+02  0.00000000000E+00 0.  1.
<mgrwt>
<rscale>  2 0.24371351E+02</rscale>
<asrwt>0</asrwt>
<pdfrwt beam="1">  1       21 0.17490620E-02 0.24371351E+02</pdfrwt>
<pdfrwt beam="2">  1       21 0.81288310E-02 0.24371351E+02</pdfrwt>
<totfact> 0.12237923E+08</totfact>
</mgrwt>
</event>
<event>
 4    1  0.7119201E+004  0.4059078E+02  0.7546771E-02  0.1503908E+00
         21   -1    0    0  501  502  0.00000000000E+00  0.00000000000E+00  0.87597132172E+02  0.87597132172E+02  0.00000000000E+00 0.  1.
         21   -1    0    0  502  503 -0.00000000000E+00 -0.00000000000E+00 -0.22520221010E+02  0.22520221010E+02  0.00000000000E+00 0.  1.
          1    1    1    2  501    0 -0.36926692246E+02  0.16853225803E+02  0.10187318822E+02  0.41849650954E+02  0.00000000000E+00 0. -1.
         -1    1    1    2    0  503  0.36926692246E+02 -0.16853225803E+02  0.54889592340E+02  0.68267702228E+02  0.00000000000E+00 0.  1.
<mgrwt>
<rscale>  2 0.40590785E+02</rscale>
<asrwt>0</asrwt>
<pdfrwt beam="1">  1       21 0.13476482E-01 0.40590785E+02</pdfrwt>
<pdfrwt beam="2">  1       21 0.34646494E-02 0.40590785E+02</pdfrwt>
<totfact> 0.20072880E+07</totfact>
</mgrwt>
</event>
<event>
 4    1  0.7119201E+004  0.2455044E+02  0.7546771E-02  0.1667544E+00
         21   -1    0    0  503  502  0.00000000000E+00  0.00000000000E+00  0.20681364626E+02  0.20681364626E+02  0.00000000000E+00 0. -1.
         21   -1    0    0  501  503 -0.00000000000E+00 -0.00000000000E+00 -0.29426726008E+02  0.29426726008E+02  0.00000000000E+00 0. -1.
          2    1    1    2  501    0 -0.13451961595E+02 -0.20537016931E+02 -0.19140959211E+01  0.24624948697E+02  0.00000000000E+00 0.  1.
         -2    1    1    2    0  502  0.13451961595E+02  0.20537016931E+02 -0.68312654612E+01  0.25483141937E+02  0.00000000000E+00 0. -1.
<mgrwt>
<rscale>  2 0.24550445E+02</rscale>
<asrwt>0</asrwt>
<pdfrwt beam="1">  1       21 0.31817484E-02 0.24550445E+02</pdfrwt>
<pdfrwt beam="2">  1       21 0.45271886E-02 0.24550445E+02</pdfrwt>
<totfact> 0.12481661E+08</totfact>
</mgrwt>
</event>
<event>
 4    1  0.7119201E+004  0.2313205E+02  0.7546771E-02  0.1689378E+00
         21   -1    0    0  503  502  0.00000000000E+00  0.00000000000E+00  0.79472238326E+02  0.79472238326E+02  0.00000000000E+00 0. -1.
         21   -1    0    0  501  503 -0.00000000000E+00 -0.00000000000E+00 -0.67345432505E+01  0.67345432505E+01  0.00000000000E+00 0. -1.
          2    1    1    2  501    0 -0.13039437954E+02 -0.19106673519E+02  0.35730702802E+02  0.42564950815E+02  0.00000000000E+00 0.  1.
         -2    1    1    2    0  502  0.13039437954E+02  0.19106673519E+02  0.37006992273E+02  0.43641830761E+02  0.00000000000E+00 0. -1.
<mgrwt>
<rscale>  2 0.23132054E+02</rscale>
<asrwt>0</asrwt>
<pdfrwt beam="1">  1       21 0.12226498E-01 0.23132054E+02</pdfrwt>
<pdfrwt beam="2">  1       21 0.10360836E-02 0.23132054E+02</pdfrwt>
<totfact> 0.13564864E+08</totfact>
</mgrwt>
</event>
<event>
 4    1  0.7119201E+004  0.2218712E+02  0.7546771E-02  0.1705036E+00
         21   -1    0    0  503  502  0.00000000000E+00  0.00000000000E+00  0.14077618737E+02  0.14077618737E+02  0.00000000000E+00 0.  1.
         21   -1    0    0  501  503 -0.00000000000E+00 -0.00000000000E+00 -0.34987722216E+02  0.34987722216E+02  0.00000000000E+00 0.  1.
          3    1    1    2  501    0 -0.18361670287E+02 -0.12454609494E+02 -0.98747597242E+01  0.24285368290E+02  0.00000000000E+00 0. -1.
         -3    1    1    2    0  502  0.18361670287E+02  0.12454609494E+02 -0.11035343755E+02  0.24779972663E+02  0.00000000000E+00 0.  1.
<mgrwt>
<rscale>  2 0.22187119E+02</rscale>
<asrwt>0</asrwt>
<pdfrwt beam="1">  1       21 0.21657875E-02 0.22187119E+02</pdfrwt>
<pdfrwt beam="2">  1       21 0.53827265E-02 0.22187119E+02</pdfrwt>
<totfact> 0.16685798E+08</totfact>
</mgrwt>
</event>
<event>
 4    1  0.7119201E+004  0.2254311E+02  0.7546771E-02  0.1699025E+00
         21   -1    0    0  503  502  0.00000000000E+00  0.00000000000E+00  0.76409744999E+03  0.76409744999E+03  0.00000000000E+00 0. -1.
         21   -1    0    0  501  503 -0.00000000000E+00 -0.00000000000E+00 -0.66783912888E+00  0.66783912888E+00  0.00000000000E+00 0. -1.
          3    1    1    2  501    0  0.14936886489E+02  0.16884351880E+02  0.40625799368E+03  0.40688296763E+03  0.00000000000E+00 0.  1.
         -3    1    1    2    0  502 -0.14936886489E+02 -0.16884351880E+02  0.35717161717E+03  0.35788232148E+03  0.00000000000E+00 0. -1.
<mgrwt>
<rscale>  2 0.22543112E+02</rscale>
<asrwt>0</asrwt>
<pdfrwt beam="1">  1       21 0.11755275E+00 0.22543112E+02</pdfrwt>
<pdfrwt beam="2">  1       21 0.10274509E-03 0.22543112E+02</pdfrwt>
<totfact> 0.53174734E+07</totfact>
</mgrwt>
</event>
<event>
 4    1  0.7119201E+004  0.2566573E+02  0.7546771E-02  0.1651620E+00
         21   -1    0    0  501  502  0.00000000000E+00  0.00000000000E+00  0.17691579918E+02  0.17691579918E+02  0.00000000000E+00 0. -1.
         21   -1    0    0  502  503 -0.00000000000E+00 -0.00000000000E+00 -0.37234610468E+02  0.37234610468E+02  0.00000000000E+00 0. -1.
          3    1    1    2  501    0  0.16191618337E+02 -0.19913849602E+02 -0.96690135786E+01  0.27426624545E+02  0.00000000000E+00 0. -1.
         -3    1    1    2    0  503 -0.16191618337E+02  0.19913849602E+02 -0.98740169717E+01  0.27499565842E+02  0.00000000000E+00 0.  1.
<mgrwt>
<rscale>  2 0.25665734E+02</rscale>
<asrwt>0</asrwt>
<pdfrwt beam="1">  1       21 0.27217815E-02 0.25665734E+02</pdfrwt>
<pdfrwt beam="2">  1       21 0.57284016E-02 0.25665734E+02</pdfrwt>
<totfact> 0.11065573E+08</totfact>
</mgrwt>
</event>
<event>
 4    1  0.7119201E+004  0.4545776E+02  0.7546771E-02  0.1471504E+00
         21   -1    0    0  503  502  0.00000000000E+00  0.00000000000E+00  0.98350364758E+02  0.98350364758E+02  0.00000000000E+00 0. -1.
         21   -1    0    0  501  503 -0.00000000000E+00 -0.00000000000E+00 -0.23351344944E+02  0.23351344944E+02  0.00000000000E+00 0. -1.
          3    1    1    2  501    0 -0.44490804871E+02 -0.93261242119E+01  0.56765001960E+02  0.72723268343E+02  0.00000000000E+00 0.  1.
         -3    1    1    2    0  502  0.44490804871E+02  0.93261242119E+01  0.18234017854E+02  0.48978441360E+02  0.00000000000E+00 0. -1.
<mgrwt>
<rscale>  2 0.45457764E+02</rscale>
<asrwt>0</asrwt>
<pdfrwt beam="1">  1       21 0.15130825E-01 0.45457764E+02</pdfrwt>
<pdfrwt beam="2">  1       21 0.35925147E-02 0.45457764E+02</pdfrwt>
<totfact> 0.15752385E+07</totfact>
</mgrwt>
</event>
<event>
 4    1  0.7119201E+004  0.2388529E+02  0.7546771E-02  0.1677549E+00
         21   -1    0    0  501  502  0.00000000000E+00  0.00000000000E+00  0.76023267417E+00  0.76023267417E+00  0.00000000000E+00 0.  1.
         21   -1    0    0  502  503 -0.00000000000E+00 -0.00000000000E+00 -0.75351938583E+03  0.75351938583E+03  0.00000000000E+00 0.  1.
          2    1    1    2  501    0 -0.18361008693E+02 -0.15276797264E+02 -0.40049845936E+03  0.40121007356E+03  0.00000000000E+00 0.  1.
         -2    1    1    2    0  503  0.18361008693E+02  0.15276797264E+02 -0.35226069380E+03  0.35306954495E+03  0.00000000000E+00 0. -1.
<mgrwt>
<rscale>  2 0.23885292E+02</rscale>
<asrwt>0</asrwt>
<pdfrwt beam="1">  1       21 0.11695915E-03 0.23885292E+02</pdfrwt>
<pdfrwt beam="2">  1       21 0.11592578E+00 0.23885292E+02</pdfrwt>
<totfact> 0.46165502E+07</totfact>
</mgrwt>
</event>
<event>
 4    1  0.7119201E+004  0.2575723E+02  0.7546771E-02  0.1650358E+00
         21   -1    0    0  501  502  0.00000000000E+00  0.00000000000E+00  0.59888206870E+03  0.59888206870E+03  0.00000000000E+00 0.  1.
         21   -1    0    0  502  503 -0.00000000000E+00 -0.00000000000E+00 -0.12752180662E+01  0.12752180662E+01  0.00000000000E+00 0.  1.
          1    1    1    2  501    0 -0.25668344117E+02  0.21380378444E+01  0.19007126651E+03  0.19180855416E+03  0.00000000000E+00 0. -1.
         -1    1    1    2    0  503  0.25668344117E+02 -0.21380378444E+01  0.40753558412E+03  0.40834873260E+03  0.00000000000E+00 0.  1.
<mgrwt>
<rscale>  2 0.25757234E+02</rscale>
<asrwt>0</asrwt>
<pdfrwt beam="1">  1       21 0.92135478E-01 0.25757234E+02</pdfrwt>
<pdfrwt beam="2">  1       21 0.19618787E-03 0.25757234E+02</pdfrwt>
<totfact> 0.36980742E+07</totfact>
</mgrwt>
</event>
<event>
 4    1  0.7119201E+004  0.2054802E+02  0.7546771E-02  0.1734645E+00
         21   -1    0    0  501  502  0.00000000000E+00  0.00000000000E+00  0.16308510773E+03  0.16308510773E+03  0.00000000000E+00 0.  1.
         21   -1    0    0  502  503 -0.00000000000E+00 -0.00000000000E+00 -0.25890103601E+01  0.25890103601E+01  0.00000000000E+00 0.  1.
          3    1    1    2  501    0  0.19533693178E+02 -0.63761947719E+01  0.80608726081E+02  0.83186463739E+02  0.00000000000E+00 0.  1.
         -3    1    1    2    0  503 -0.19533693178E+02  0.63761947719E+01  0.79887371284E+02  0.82487654346E+02  0.00000000000E+00 0. -1.
<mgrwt>
<rscale>  2 0.20548018E+02</rscale>
<asrwt>0</asrwt>
<pdfrwt beam="1">  1       21 0.25090008E-01 0.20548018E+02</pdfrwt>
<pdfrwt beam="2">  1       21 0.39830941E-03 0.20548018E+02</pdfrwt>
<totfact> 0.15657111E+08</totfact>
</mgrwt>
</event>
<event>
 4    1  0.7119201E+004  0.2155494E+02  0.7546771E-02  0.1716065E+00
         21   -1    0    0  501  502  0.00000000000E+00  0.00000000000E+00  0.22002681426E+02  0.22002681426E+02  0.00000000000E+00 0.  1.
         21   -1    0    0  502  503 -0.00000000000E+00 -0.00000000000E+00 -0.23797463289E+02  0.23797463289E+02  0.00000000000E+00 0.  1.
          5    1    1    2  501    0  0.21212746999E+02 -0.38255255798E+01  0.67891852402E+01  0.22598856552E+02  0.00000000000E+00 0. -1.
         -5    1    1    2    0  503 -0.21212746999E+02  0.38255255798E+01 -0.85839671028E+01  0.23201288163E+02  0.00000000000E+00 0.  1.
<mgrwt>
<rscale>  2 0.21554936E+02</rscale>
<asrwt>0</asrwt>
<pdfrwt beam="1">  1       21 0.33850279E-02 0.21554936E+02</pdfrwt>
<pdfrwt beam="2">  1       21 0.36611482E-02 0.21554936E+02</pdfrwt>
<totfact> 0.15228860E+08</totfact>
</mgrwt>
</event>
<event>
 4    1  0.7119201E+004  0.4387475E+02  0.7546771E-02  0.1481491E+00
         21   -1    0    0  501  502  0.00000000000E+00  0.00000000000E+00  0.38251549450E+03  0.38251549450E+03  0.00000000000E+00 0.  1.
         21   -1    0    0  502  503 -0.00000000000E+00 -0.00000000000E+00 -0.52577151120E+01  0.52577151120E+01  0.00000000000E+00 0.  1.
          4    1    1    2  501    0  0.27979283347E+02 -0.33795764606E+02  0.22876048423E+03  0.23292993184E+03  0.00000000000E+00 0. -1.
         -4    1    1    2    0  503 -0.27979283347E+02  0.33795764606E+02  0.14849729516E+03  0.15484327777E+03  0.00000000000E+00 0.  1.
<mgrwt>
<rscale>  2 0.43874754E+02</rscale>
<asrwt>0</asrwt>
<pdfrwt beam="1">  1       21 0.58848516E-01 0.43874754E+02</pdfrwt>
<pdfrwt beam="2">  1       21 0.80887954E-03 0.43874754E+02</pdfrwt>
<totfact> 0.12594409E+07</totfact>
</mgrwt>
</event>
<event>
 4    1  0.7119201E+004  0.3822894E+02  0.7546771E-02  0.1521664E+00
         21   -1    0    0  501  502  0.00000000000E+00  0.00000000000E+00  0.17068363098E+02  0.17068363098E+02  0.00000000000E+00 0.  1.
         21   -1    0    0  502  503 -0.00000000000E+00 -0.00000000000E+00 -0.94049064191E+02  0.94049064191E+02  0.00000000000E+00 0.  1.
          3    1    1    2  501    0  0.12963104956E+02 -0.35964003020E+02 -0.55119748595E+02  0.67079343232E+02  0.00000000000E+00 0. -1.
         -3    1    1    2    0  503 -0.12963104956E+02  0.35964003020E+02 -0.21860952498E+02  0.44038084057E+02  0.00000000000E+00 0.  1.
<mgrwt>
<rscale>  2 0.38228937E+02</rscale>
<asrwt>0</asrwt>
<pdfrwt beam="1">  1       21 0.26259021E-02 0.38228937E+02</pdfrwt>
<pdfrwt beam="2">  1       21 0.14469087E-01 0.38228937E+02</pdfrwt>
<totfact> 0.27291369E+07</totfact>
</mgrwt>
</event>
<event>
 4    1  0.7119201E+004  0.2674630E+02  0.7546771E-02  0.1637116E+00
         21   -1    0    0  501  502  0.00000000000E+00  0.00000000000E+00  0.15916565899E+02  0.15916565899E+02  0.00000000000E+00 0. -1.
         21   -1    0    0  502  503 -0.00000000000E+00 -0.00000000000E+00 -0.46639577964E+02  0.46639577964E+02  0.00000000000E+00 0. -1.
          1    1    1    2  501    0  0.26679651385E+02 -0.18869938123E+01 -0.93988767771E+01  0.28349663637E+02  0.00000000000E+00 0. -1.
         -1    1    1    2    0  503 -0.26679651385E+02  0.18869938123E+01 -0.21324135289E+02  0.34206480226E+02  0.00000000000E+00 0.  1.
<mgrwt>
<rscale>  2 0.26746300E+02</rscale>
<asrwt>0</asrwt>
<pdfrwt beam="1">  1       21 0.24487025E-02 0.26746300E+02</pdfrwt>
<pdfrwt beam="2">  1       21 0.71753194E-02 0.26746300E+02</pdfrwt>
<totfact> 0.91548442E+07</totfact>
</mgrwt>
</event>
<event>
 4    1  0.7119201E+004  0.2175608E+02  0.7546771E-02  0.1712505E+00
         21   -1    0    0  503  502  0.00000000000E+00  0.00000000000E+00  0.38573236850E+02  0.38573236850E+02  0.00000000000E+00 0.  1.
         21   -1    0    0  501  503 -0.00000000000E+00 -0.00000000000E+00 -0.12286594343E+02  0.12286594343E+02  0.00000000000E+00 0.  1.
          5    1    1    2  501    0 -0.71744970600E+01  0.20539078518E+02  0.12233569834E+02  0.24959715249E+02  0.00000000000E+00 0. -1.
         -5    1    1    2    0  502  0.71744970600E+01 -0.20539078518E+02  0.14053072673E+02  0.25900115945E+02  0.00000000000E+00 0.  1.
<mgrwt>
<rscale>  2 0.21756083E+02</rscale>
<asrwt>0</asrwt>
<pdfrwt beam="1">  1       21 0.59343441E-02 0.21756083E+02</pdfrwt>
<pdfrwt beam="2">  1       21 0.18902453E-02 0.21756083E+02</pdfrwt>
<totfact> 0.17479424E+08</totfact>
</mgrwt>
</event>
<event>
 4    1  0.7119201E+004  0.2546925E+02  0.7546771E-02  0.1654352E+00
         21   -1    0    0  501  502  0.00000000000E+00  0.00000000000E+00  0.75055007949E+01  0.75055007949E+01  0.00000000000E+00 0. -1.
         21   -1    0    0  502  503 -0.00000000000E+00 -0.00000000000E+00 -0.86429233189E+02  0.86429233189E+02  0.00000000000E+00 0. -1.
          3    1    1    2  501    0 -0.13665483114E+02  0.21492723101E+02 -0.39258990821E+02  0.46796911600E+02  0.00000000000E+00 0. -1.
         -3    1    1    2    0  503  0.13665483114E+02 -0.21492723101E+02 -0.39664741573E+02  0.47137822384E+02  0.00000000000E+00 0.  1.
<mgrwt>
<rscale>  2 0.25469248E+02</rscale>
<asrwt>0</asrwt>
<pdfrwt beam="1">  1       21 0.11546925E-02 0.25469248E+02</pdfrwt>
<pdfrwt beam="2">  1       21 0.13296804E-01 0.25469248E+02</pdfrwt>
<totfact> 0.10270492E+08</totfact>
</mgrwt>
</event>
<event>
 4    1  0.7119201E+004  0.2443561E+02  0.7546771E-02  0.1669243E+00
         21   -1    0    0  501  502  0.00000000000E+00  0.00000000000E+00  0.30634964916E+02  0.30634964916E+02  0.00000000000E+00 0.  1.
         21   -1    0    0  502  503 -0.00000000000E+00 -0.00000000000E+00 -0.19560497518E+02  0.19560497518E+02  0.00000000000E+00 0.  1.
          1    1    1    2  501    0 -0.18201207960E+02  0.16303831232E+02  0.40387086409E+01  0.24767116335E+02  0.00000000000E+00 0. -1.
         -1    1    1    2    0  503  0.18201207960E+02 -0.16303831232E+02  0.70357587576E+01  0.25428346099E+02  0.00000000000E+00 0.  1.
<mgrwt>
<rscale>  2 0.24435607E+02</rscale>
<asrwt>0</asrwt>
<pdfrwt beam="1">  1       21 0.47130715E-02 0.24435607E+02</pdfrwt>
<pdfrwt beam="2">  1       21 0.30093073E-02 0.24435607E+02</pdfrwt>
<totfact> 0.12756945E+08</totfact>
</mgrwt>
</event>
<event>
 4    1  0.7119201E+004  0.3648660E+02  0.7546771E-02  0.1535782E+00
         21   -1    0    0  503  502  0.00000000000E+00  0.00000000000E+00  0.18774816905E+03  0.18774816905E+03  0.00000000000E+00 0. -1.
         21   -1    0    0  501  503 -0.00000000000E+00 -0.00000000000E+00 -0.71453430851E+01  0.71453430851E+01  0.00000000000E+00 0. -1.
          4    1    1    2  501    0  0.36460905679E+02 -0.13690344579E+01  0.81782241789E+02  0.89552258321E+02  0.00000000000E+00 0. -1.
         -4    1    1    2    0  502 -0.36460905679E+02  0.13690344579E+01  0.98820584173E+02  0.10534125381E+03  0.00000000000E+00 0.  1.
<mgrwt>
<rscale>  2 0.36486599E+02</rscale>
<asrwt>0</asrwt>
<pdfrwt beam="1">  1       21 0.28884330E-01 0.36486599E+02</pdfrwt>
<pdfrwt beam="2">  1       21 0.10992837E-02 0.36486599E+02</pdfrwt>
<totfact> 0.30464384E+07</totfact>
</mgrwt>
</event>
<event>
 4    1  0.7119201E+004  0.2118292E+02  0.7546771E-02  0.1722778E+00
         21   -1    0    0  503  502  0.00000000000E+00  0.00000000000E+00  0.20749793547E+01  0.20749793547E+01  0.00000000000E+00 0.  1.
         21   -1    0    0  501  503 -0.00000000000E+00 -0.00000000000E+00 -0.24694811283E+03  0.24694811283E+03  0.00000000000E+00 0.  1.
          1    1    1    2  501    0  0.20974533765E+02 -0.29639447085E+01 -0.16633577070E+03  0.16767917178E+03  0.00000000000E+00 0.  1.
         -1    1    1    2    0  502 -0.20974533765E+02  0.29639447085E+01 -0.78537362775E+02  0.81343920403E+02  0.00000000000E+00 0. -1.
<mgrwt>
<rscale>  2 0.21182918E+02</rscale>
<asrwt>0</asrwt>
<pdfrwt beam="1">  1       21 0.31922786E-03 0.21182918E+02</pdfrwt>
<pdfrwt beam="2">  1       21 0.37991986E-01 0.21182918E+02</pdfrwt>
<totfact> 0.10258079E+08</totfact>
</mgrwt>
</event>
<event>
 4    1  0.7119201E+004  0.2637054E+02  0.7546771E-02  0.1642062E+00
         21   -1    0    0  503  502  0.00000000000E+00  0.00000000000E+00  0.17658028604E+01  0.17658028604E+01  0.00000000000E+00 0.  1.
         21   -1    0    0  501  503 -0.00000000000E+00 -0.00000000000E+00 -0.40246243288E+03  0.40246243288E+03  0.00000000000E+00 0.  1.
          5    1    1    2  501    0  0.21361526949E+02  0.15462545229E+02 -0.17072732568E+03  0.17275191713E+03  0.00000000000E+00 0.  1.
         -5    1    1    2    0  502 -0.21361526949E+02 -0.15462545229E+02 -0.22996930435E+03  0.23147631862E+03  0.00000000000E+00 0. -1.
<mgrwt>
<rscale>  2 0.26370535E+02</rscale>
<asrwt>0</asrwt>
<pdfrwt beam="1">  1       21 0.27166196E-03 0.26370535E+02</pdfrwt>
<pdfrwt beam="2">  1       21 0.61917301E-01 0.26370535E+02</pdfrwt>
<totfact> 0.53104207E+07</totfact>
</mgrwt>
</event>
<event>
 4    1  0.7119201E+004  0.4465979E+02  0.7546771E-02  0.1476477E+00
         21   -1    0    0  501  502  0.00000000000E+00  0.00000000000E+00  0.51216743408E+02  0.51216743408E+02  0.00000000000E+00 0.  1.
         21   -1    0    0  502  503 -0.00000000000E+00 -0.00000000000E+00 -0.42041310078E+02  0.42041310078E+02  0.00000000000E+00 0.  1.
          4    1    1    2  501    0  0.30159580208E+02 -0.32937774781E+02 -0.80721872643E+01  0.45383449550E+02  0.00000000000E+00 0.  1.
         -4    1    1    2    0  503 -0.30159580208E+02  0.32937774781E+02  0.17247620595E+02  0.47874603936E+02  0.00000000000E+00 0. -1.
<mgrwt>
<rscale>  2 0.44659795E+02</rscale>
<asrwt>0</asrwt>
<pdfrwt beam="1">  1       21 0.78794990E-02 0.44659795E+02</pdfrwt>
<pdfrwt beam="2">  1       21 0.64678938E-02 0.44659795E+02</pdfrwt>
<totfact> 0.18376924E+07</totfact>
</mgrwt>
</event>
<event>
 4    1  0.7119201E+004  0.3333692E+02  0.7546771E-02  0.1563885E+00
         21   -1    0    0  501  502  0.00000000000E+00  0.00000000000E+00  0.83620221741E+02  0.83620221741E+02  0.00000000000E+00 0.  1.
         21   -1    0    0  502  503 -0.00000000000E+00 -0.00000000000E+00 -0.18729842321E+02  0.18729842321E+02  0.00000000000E+00 0.  1.
          5    1    1    2  501    0  0.33081441397E+02 -0.41192537727E+01  0.60023422048E+02  0.68659749569E+02  0.00000000000E+00 0.  1.
         -5    1    1    2    0  503 -0.33081441397E+02  0.41192537727E+01  0.48669573718E+01  0.33690314493E+02  0.00000000000E+00 0. -1.
<mgrwt>
<rscale>  2 0.33336917E+02</rscale>
<asrwt>0</asrwt>
<pdfrwt beam="1">  1       21 0.12864649E-01 0.33336917E+02</pdfrwt>
<pdfrwt beam="2">  1       21 0.28815142E-02 0.33336917E+02</pdfrwt>
<totfact> 0.28150890E+07</totfact>
</mgrwt>
</event>
<event>
 4    1  0.7119201E+004  0.2090286E+02  0.7546771E-02  0.1727948E+00
         21   -1    0    0  501  502  0.00000000000E+00  0.00000000000E+00  0.62094920993E+02  0.62094920993E+02  0.00000000000E+00 0. -1.
         21   -1    0    0  502  503 -0.00000000000E+00 -0.00000000000E+00 -0.77387257865E+01  0.77387257865E+01  0.00000000000E+00 0. -1.
          3    1    1    2  501    0 -0.37426921748E+01  0.20565059294E+02  0.16659789965E+02  0.26729721476E+02  0.00000000000E+00 0.  1.
         -3    1    1    2    0  503  0.37426921748E+01 -0.20565059294E+02  0.37696405241E+02  0.43103925303E+02  0.00000000000E+00 0. -1.
<mgrwt>
<rscale>  2 0.20902856E+02</rscale>
<asrwt>0</asrwt>
<pdfrwt beam="1">  1       21 0.95530645E-02 0.20902856E+02</pdfrwt>
<pdfrwt beam="2">  1       21 0.11905732E-02 0.20902856E+02</pdfrwt>
<totfact> 0.16077291E+08</totfact>
</mgrwt>
</event>
<event>
 4    1  0.7119201E+004  0.2145865E+02  0.7546771E-02  0.1717786E+00
         21   -1    0    0  503  502  0.00000000000E+00  0.00000000000E+00  0.70213688419E+01  0.70213688419E+01  0.00000000000E+00 0. -1.
         21   -1    0    0  501  503 -0.00000000000E+00 -0.00000000000E+00 -0.85238695419E+02  0.85238695419E+02  0.00000000000E+00 0. -1.
          4    1    1    2  501    0 -0.19172570948E+02  0.96377434215E+01 -0.61261201959E+02  0.64910772916E+02  0.00000000000E+00 0.  1.
         -4    1    1    2    0  502  0.19172570948E+02 -0.96377434215E+01 -0.16956124618E+02  0.27349291345E+02  0.00000000000E+00 0. -1.
<mgrwt>
<rscale>  2 0.21458648E+02</rscale>
<asrwt>0</asrwt>
<pdfrwt beam="1">  1       21 0.10802106E-02 0.21458648E+02</pdfrwt>
<pdfrwt beam="2">  1       21 0.13113645E-01 0.21458648E+02</pdfrwt>
<totfact> 0.11081916E+08</totfact>
</mgrwt>
</event>
<event>
 4    1  0.7119201E+004  0.4017825E+02  0.7546771E-02  0.1506904E+00
         21   -1    0    0  503  502  0.00000000000E+00  0.00000000000E+00  0.24329830178E+03  0.24329830178E+03  0.00000000000E+00 0.  1.
         21   -1    0    0  501  503 -0.00000000000E+00 -0.00000000000E+00 -0.70878435788E+01  0.70878435788E+01  0.00000000000E+00 0.  1.
          4    1    1    2  501    0 -0.39996088615E+02  0.38215773530E+01  0.14974861186E+03  0.15504495578E+03  0.00000000000E+00 0. -1.
         -4    1    1    2    0  502  0.39996088615E+02 -0.38215773530E+01  0.86461846335E+02  0.95341189575E+02  0.00000000000E+00 0.  1.
<mgrwt>
<rscale>  2 0.40178247E+02</rscale>
<asrwt>0</asrwt>
<pdfrwt beam="1">  1       21 0.37430502E-01 0.40178247E+02</pdfrwt>
<pdfrwt beam="2">  1       21 0.10904377E-02 0.40178247E+02</pdfrwt>
<totfact> 0.19258556E+07</totfact>
</mgrwt>
</event>
<event>
 4    1  0.7119201E+004  0.2106871E+02  0.7546771E-02  0.1724874E+00
         21   -1    0    0  501  502  0.00000000000E+00  0.00000000000E+00  0.14307596420E+01  0.14307596420E+01  0.00000000000E+00 0. -1.
         21   -1    0    0  502  503 -0.00000000000E+00 -0.00000000000E+00 -0.34592376274E+03  0.34592376274E+03  0.00000000000E+00 0. -1.
          4    1    1    2  501    0  0.38801791627E+01 -0.20708320914E+02 -0.22802146292E+03  0.22899274639E+03  0.00000000000E+00 0.  1.
         -4    1    1    2    0  503 -0.38801791627E+01  0.20708320914E+02 -0.11647154018E+03  0.11836177600E+03  0.00000000000E+00 0. -1.
<mgrwt>
<rscale>  2 0.21068705E+02</rscale>
<asrwt>0</asrwt>
<pdfrwt beam="1">  1       21 0.22011717E-03 0.21068705E+02</pdfrwt>
<pdfrwt beam="2">  1       21 0.53218967E-01 0.21068705E+02</pdfrwt>
<totfact> 0.92269127E+07</totfact>
</mgrwt>
</event>
<event>
 4    1  0.7119201E+004  0.2084596E+02  0.7546771E-02  0.1729010E+00
         21   -1    0    0  501  502  0.00000000000E+00  0.00000000000E+00  0.87273503431E+00  0.87273503431E+00  0.00000000000E+00 0.  1.
         21   -1    0    0  502  503 -0.00000000000E+00 -0.00000000000E+00 -0.61130042564E+03  0.61130042564E+03  0.00000000000E+00 0.  1.
          1    1    1    2  501    0  0.29486399688E+01  0.20636364488E+02 -0.43703407273E+03  0.43753095290E+03  0.00000000000E+00 0. -1.
         -1    1    1    2    0  503 -0.29486399688E+01 -0.20636364488E+02 -0.17339361788E+03  0.17464220778E+03  0.00000000000E+00 0.  1.
<mgrwt>
<rscale>  2 0.20845959E+02</rscale>
<asrwt>0</asrwt>
<pdfrwt beam="1">  1       21 0.13426640E-03 0.20845959E+02</pdfrwt>
<pdfrwt beam="2">  1       21 0.94046588E-01 0.20845959E+02</pdfrwt>
<totfact> 0.58295791E+07</totfact>
</mgrwt>
</event>
<event>
 4    1  0.7119201E+004  0.3240490E+02  0.7546771E-02  0.1572932E+00
         21   -1    0    0  501  502  0.00000000000E+00  0.00000000000E+00  0.59964091795E+00  0.59964091795E+00  0.00000000000E+00 0. -1.
         21   -1    0    0  502  503 -0.00000000000E+00 -0.00000000000E+00 -0.20961467415E+04  0.20961467415E+04  0.00000000000E+00 0. -1.
          4    1    1    2  501    0  0.32260796357E+02 -0.30526550101E+01 -0.62247367843E+03  0.62331657929E+03  0.00000000000E+00 0. -1.
         -4    1    1    2    0  503 -0.32260796357E+02  0.30526550101E+01 -0.14730734222E+04  0.14734298032E+04  0.00000000000E+00 0.  1.
<mgrwt>
<rscale>  2 0.32404902E+02</rscale>
<asrwt>0</asrwt>
<pdfrwt beam="1">  1       21 0.92253393E-04 0.32404902E+02</pdfrwt>
<pdfrwt beam="2">  1       21 0.32248082E+00 0.32404902E+02</pdfrwt>
<totfact> 0.42018234E+06</totfact>
</mgrwt>
</event>
<event>
 4    1  0.7119201E+004  0.3240737E+02  0.7546771E-02  0.1572908E+00
         21   -1    0    0  503  502  0.00000000000E+00  0.00000000000E+00  0.50013100342E+02  0.50013100342E+02  0.00000000000E+00 0.  1.
         21   -1    0    0  501  503 -0.00000000000E+00 -0.00000000000E+00 -0.32807188911E+02  0.32807188911E+02  0.00000000000E+00 0.  1.
          5    1    1    2  501    0  0.81408437696E+01 -0.31368209540E+02  0.33446249351E+02  0.46571337781E+02  0.00000000000E+00 0.  1.
         -5    1    1    2    0  502 -0.81408437696E+01  0.31368209540E+02 -0.16240337920E+02  0.36248951472E+02  0.00000000000E+00 0. -1.
<mgrwt>
<rscale>  2 0.32407374E+02</rscale>
<asrwt>0</asrwt>
<pdfrwt beam="1">  1       21 0.76943231E-02 0.32407374E+02</pdfrwt>
<pdfrwt beam="2">  1       21 0.50472598E-02 0.32407374E+02</pdfrwt>
<totfact> 0.27139800E+07</totfact>
</mgrwt>
</event>
<event>
 4    1  0.7119201E+004  0.2372046E+02  0.7546771E-02  0.1680091E+00
         21   -1    0    0  501  502  0.00000000000E+00  0.00000000000E+00  0.32463014012E+01  0.32463014012E+01  0.00000000000E+00 0.  1.
         21   -1    0    0  502  503 -0.00000000000E+00 -0.00000000000E+00 -0.24085332507E+03  0.24085332507E+03  0.00000000000E+00 0.  1.
          1    1    1    2  501    0  0.22878994086E+02  0.62619304328E+01 -0.18342973626E+03  0.18495709851E+03  0.00000000000E+00 0.  1.
         -1    1    1    2    0  503 -0.22878994086E+02 -0.62619304328E+01 -0.54177287404E+02  0.59142527961E+02  0.00000000000E+00 0. -1.
<mgrwt>
<rscale>  2 0.23720458E+02</rscale>
<asrwt>0</asrwt>
<pdfrwt beam="1">  1       21 0.49943099E-03 0.23720458E+02</pdfrwt>
<pdfrwt beam="2">  1       21 0.37054357E-01 0.23720458E+02</pdfrwt>
<totfact> 0.57429655E+07</totfact>
</mgrwt>
</event>
<event>
 4    1  0.7119201E+004  0.2821040E+02  0.7546771E-02  0.1618757E+00
         21   -1    0    0  501  502  0.00000000000E+00  0.00000000000E+00  0.10291895944E+03  0.10291895944E+03  0.00000000000E+00 0. -1.
         21   -1    0    0  502  503 -0.00000000000E+00 -0.00000000000E+00 -0.84662768603E+01  0.84662768603E+01  0.00000000000E+00 0. -1.
          1    1    1    2  501    0  0.26324356856E+02  0.10141751063E+02  0.30831165261E+02  0.41789802941E+02  0.00000000000E+00 0.  1.
         -1    1    1    2    0  503 -0.26324356856E+02 -0.10141751063E+02  0.63621517316E+02  0.69595433356E+02  0.00000000000E+00 0. -1.
<mgrwt>
<rscale>  2 0.28210404E+02</rscale>
<asrwt>0</asrwt>
<pdfrwt beam="1">  1       21 0.15833685E-01 0.28210404E+02</pdfrwt>
<pdfrwt beam="2">  1       21 0.13025042E-02 0.28210404E+02</pdfrwt>
<totfact> 0.65101189E+07</totfact>
</mgrwt>
</event>
<event>
 4    1  0.7119201E+004  0.2433318E+02  0.7546771E-02  0.1670769E+00
         21   -1    0    0  501  502  0.00000000000E+00  0.00000000000E+00  0.48790247716E+01  0.48790247716E+01  0.00000000000E+00 0. -1.
         21   -1    0    0  502  503 -0.00000000000E+00 -0.00000000000E+00 -0.12140156633E+03  0.12140156633E+03  0.00000000000E+00 0. -1.
          5    1    1    2  501    0  0.18458739914E+02  0.15854919734E+02 -0.59471723038E+02  0.64257212826E+02  0.00000000000E+00 0.  1.
         -5    1    1    2    0  503 -0.18458739914E+02 -0.15854919734E+02 -0.57050818522E+02  0.62023378278E+02  0.00000000000E+00 0. -1.
<mgrwt>
<rscale>  2 0.24333178E+02</rscale>
<asrwt>0</asrwt>
<pdfrwt beam="1">  1       21 0.75061928E-03 0.24333178E+02</pdfrwt>
<pdfrwt beam="2">  1       21 0.18677162E-01 0.24333178E+02</pdfrwt>
<totfact> 0.10824885E+08</totfact>
</mgrwt>
</event>
<event>
 4    1  0.7119201E+004  0.2208338E+02  0.7546771E-02  0.1706814E+00
         21   -1    0    0  503  502  0.00000000000E+00  0.00000000000E+00  0.10734067168E+03  0.10734067168E+03  0.00000000000E+00 0. -1.
         21   -1    0    0  501  503 -0.00000000000E+00 -0.00000000000E+00 -0.45468665015E+01  0.45468665015E+01  0.00000000000E+00 0. -1.
          1    1    1    2  501    0 -0.21573673428E+02  0.47172126723E+01  0.49819093362E+02  0.54494197342E+02  0.00000000000E+00 0. -1.
         -1    1    1    2    0  502  0.21573673428E+02 -0.47172126723E+01  0.52974711815E+02  0.57393340837E+02  0.00000000000E+00 0.  1.
<mgrwt>
<rscale>  2 0.22083376E+02</rscale>
<asrwt>0</asrwt>
<pdfrwt beam="1">  1       21 0.16513947E-01 0.22083376E+02</pdfrwt>
<pdfrwt beam="2">  1       21 0.69951801E-03 0.22083376E+02</pdfrwt>
<totfact> 0.14461718E+08</totfact>
</mgrwt>
</event>
<event>
 4    1  0.7119201E+004  0.2054531E+02  0.7546771E-02  0.1734696E+00
         21   -1    0    0  503  502  0.00000000000E+00  0.00000000000E+00  0.22393068886E+02  0.22393068886E+02  0.00000000000E+00 0.  1.
         21   -1    0    0  501  503 -0.00000000000E+00 -0.00000000000E+00 -0.18888709993E+02  0.18888709993E+02  0.00000000000E+00 0.  1.
          3    1    1    2  501    0 -0.17654733335E+02 -0.10508105098E+02  0.81805411664E+00  0.20561592701E+02  0.00000000000E+00 0.  1.
         -3    1    1    2    0  502  0.17654733335E+02  0.10508105098E+02  0.26863047772E+01  0.20720186178E+02  0.00000000000E+00 0. -1.
<mgrwt>
<rscale>  2 0.20545313E+02</rscale>
<asrwt>0</asrwt>
<pdfrwt beam="1">  1       21 0.34450875E-02 0.20545313E+02</pdfrwt>
<pdfrwt beam="2">  1       21 0.29059554E-02 0.20545313E+02</pdfrwt>
<totfact> 0.20910644E+08</totfact>
</mgrwt>
</event>
<event>
 4    1  0.7119201E+004  0.2408537E+02  0.7546771E-02  0.1674498E+00
         21   -1    0    0  503  502  0.00000000000E+00  0.00000000000E+00  0.79504550007E+02  0.79504550007E+02  0.00000000000E+00 0.  1.
         21   -1    0    0  501  503 -0.00000000000E+00 -0.00000000000E+00 -0.80124651436E+01  0.80124651436E+01  0.00000000000E+00 0.  1.
          5    1    1    2  501    0 -0.23047854940E+02 -0.69929401382E+01  0.22665497934E+02  0.33073095194E+02  0.00000000000E+00 0.  1.
         -5    1    1    2    0  502  0.23047854940E+02  0.69929401382E+01  0.48826586929E+02  0.54443919957E+02  0.00000000000E+00 0. -1.
<mgrwt>
<rscale>  2 0.24085365E+02</rscale>
<asrwt>0</asrwt>
<pdfrwt beam="1">  1       21 0.12231469E-01 0.24085365E+02</pdfrwt>
<pdfrwt beam="2">  1       21 0.12326870E-02 0.24085365E+02</pdfrwt>
<totfact> 0.10551922E+08</totfact>
</mgrwt>
</event>
<event>
 4    1  0.7119201E+004  0.3166264E+02  0.7546771E-02  0.1580405E+00
         21   -1    0    0  503  502  0.00000000000E+00  0.00000000000E+00  0.16480188940E+01  0.16480188940E+01  0.00000000000E+00 0. -1.
         21   -1    0    0  501  503 -0.00000000000E+00 -0.00000000000E+00 -0.73252438887E+03  0.73252438887E+03  0.00000000000E+00 0. -1.
          1    1    1    2  501    0 -0.21308567427E+02  0.23419393880E+02 -0.51659414481E+03  0.51756355504E+03  0.00000000000E+00 0. -1.
         -1    1    1    2    0  502  0.21308567427E+02 -0.23419393880E+02 -0.21428222517E+03  0.21660885273E+03  0.00000000000E+00 0.  1.
<mgrwt>
<rscale>  2 0.31662644E+02</rscale>
<asrwt>0</asrwt>
<pdfrwt beam="1">  1       21 0.25354112E-03 0.31662644E+02</pdfrwt>
<pdfrwt beam="2">  1       21 0.11269617E+00 0.31662644E+02</pdfrwt>
<totfact> 0.16858593E+07</totfact>
</mgrwt>
</event>
<event>
 4    1  0.7119201E+004  0.8245417E+02  0.7546771E-02  0.1322228E+00
         21   -1    0    0  503  502  0.00000000000E+00  0.00000000000E+00  0.10489146441E+03  0.10489146441E+03  0.00000000000E+00 0.  1.
         21   -1    0    0  501  503 -0.00000000000E+00 -0.00000000000E+00 -0.65007151182E+02  0.65007151182E+02  0.00000000000E+00 0.  1.
          4    1    1    2  501    0 -0.82221940068E+02  0.61841006347E+01  0.24543406588E+02  0.86029467836E+02  0.00000000000E+00 0.  1.
         -4    1    1    2    0  502  0.82221940068E+02 -0.61841006347E+01  0.15340906644E+02  0.83869147759E+02  0.00000000000E+00 0. -1.
<mgrwt>
<rscale>  2 0.82454172E+02</rscale>
<asrwt>0</asrwt>
<pdfrwt beam="1">  1       21 0.16137148E-01 0.82454172E+02</pdfrwt>
<pdfrwt beam="2">  1       21 0.10001100E-01 0.82454172E+02</pdfrwt>
<totfact> 0.27067113E+06</totfact>
</mgrwt>
</event>
<event>
 4    1  0.7119201E+004  0.2746516E+02  0.7546771E-02  0.1627926E+00
         21   -1    0    0  501  502  0.00000000000E+00  0.00000000000E+00  0.34392183352E+02  0.34392183352E+02  0.00000000000E+00 0.  1.
         21   -1    0    0  502  503 -0.00000000000E+00 -0.00000000000E+00 -0.24775594296E+02  0.24775594296E+02  0.00000000000E+00 0.  1.
          1    1    1    2  501    0  0.25683012422E+02 -0.97323130192E+01  0.14828476100E+02  0.31212477429E+02  0.00000000000E+00 0.  1.
         -1    1    1    2    0  503 -0.25683012422E+02  0.97323130192E+01 -0.52118870441E+01  0.27955300219E+02  0.00000000000E+00 0. -1.
<mgrwt>
<rscale>  2 0.27465161E+02</rscale>
<asrwt>0</asrwt>
<pdfrwt beam="1">  1       21 0.52911051E-02 0.27465161E+02</pdfrwt>
<pdfrwt beam="2">  1       21 0.38116299E-02 0.27465161E+02</pdfrwt>
<totfact> 0.75409286E+07</totfact>
</mgrwt>
</event>
<event>
 4    1  0.7119201E+004  0.2946973E+02  0.7546771E-02  0.1604025E+00
         21   -1    0    0  501  502  0.00000000000E+00  0.00000000000E+00  0.13200070211E+02  0.13200070211E+02  0.00000000000E+00 0.  1.
         21   -1    0    0  502  503 -0.00000000000E+00 -0.00000000000E+00 -0.69328970096E+02  0.69328970096E+02  0.00000000000E+00 0.  1.
          1    1    1    2  501    0  0.28720571558E+02 -0.66025755028E+01 -0.37384241795E+02  0.47603012178E+02  0.00000000000E+00 0. -1.
         -1    1    1    2    0  503 -0.28720571558E+02  0.66025755028E+01 -0.18744658091E+02  0.34926028128E+02  0.00000000000E+00 0.  1.
<mgrwt>
<rscale>  2 0.29469734E+02</rscale>
<asrwt>0</asrwt>
<pdfrwt beam="1">  1       21 0.20307800E-02 0.29469734E+02</pdfrwt>
<pdfrwt beam="2">  1       21 0.10665996E-01 0.29469734E+02</pdfrwt>
<totfact> 0.65090212E+07</totfact>
</mgrwt>
</event>
<event>
 4    1  0.7119201E+004  0.2092147E+02  0.7546771E-02  0.1727601E+00
         21   -1    0    0  503  502  0.00000000000E+00  0.00000000000E+00  0.48391431170E+01  0.48391431170E+01  0.00000000000E+00 0.  1.
         21   -1    0    0  501  503 -0.00000000000E+00 -0.00000000000E+00 -0.22708460873E+03  0.22708460873E+03  0.00000000000E+00 0.  1.
          1    1    1    2  501    0  0.15147038422E+02  0.14431733744E+02 -0.21173104917E+02  0.29765887919E+02  0.00000000000E+00 0. -1.
         -1    1    1    2    0  502 -0.15147038422E+02 -0.14431733744E+02 -0.20107236070E+03  0.20215786393E+03  0.00000000000E+00 0.  1.
<mgrwt>
<rscale>  2 0.20921465E+02</rscale>
<asrwt>0</asrwt>
<pdfrwt beam="1">  1       21 0.74448377E-03 0.20921465E+02</pdfrwt>
<pdfrwt beam="2">  1       21 0.34936084E-01 0.20921465E+02</pdfrwt>
<totfact> 0.34414716E+07</totfact>
</mgrwt>
</event>
<event>
 4    1  0.7119201E+004  0.2485083E+02  0.7546771E-02  0.1663154E+00
         21   -1    0    0  501  502  0.00000000000E+00  0.00000000000E+00  0.64345983265E+01  0.64345983265E+01  0.00000000000E+00 0. -1.
         21   -1    0    0  502  503 -0.00000000000E+00 -0.00000000000E+00 -0.97654369281E+02  0.97654369281E+02  0.00000000000E+00 0. -1.
          3    1    1    2  501    0  0.11373638632E+02 -0.22095338704E+02 -0.38785867038E+02  0.46064163187E+02  0.00000000000E+00 0. -1.
         -3    1    1    2    0  503 -0.11373638632E+02  0.22095338704E+02 -0.52433903917E+02  0.58024804421E+02  0.00000000000E+00 0.  1.
<mgrwt>
<rscale>  2 0.24850828E+02</rscale>
<asrwt>0</asrwt>
<pdfrwt beam="1">  1       21 0.98993830E-03 0.24850828E+02</pdfrwt>
<pdfrwt beam="2">  1       21 0.15023748E-01 0.24850828E+02</pdfrwt>
<totfact> 0.10459437E+08</totfact>
</mgrwt>
</event>
<event>
 4    1  0.7119201E+004  0.2707837E+02  0.7546771E-02  0.1632827E+00
         21   -1    0    0  503  502  0.00000000000E+00  0.00000000000E+00  0.59336719154E+02  0.59336719154E+02  0.00000000000E+00 0. -1.
         21   -1    0    0  501  503 -0.00000000000E+00 -0.00000000000E+00 -0.14283198463E+02  0.14283198463E+02  0.00000000000E+00 0. -1.
          3    1    1    2  501    0 -0.24349510440E+02 -0.11846484486E+02  0.36043641142E+02  0.45081946721E+02  0.00000000000E+00 0.  1.
         -3    1    1    2    0  502  0.24349510440E+02  0.11846484486E+02  0.90098795485E+01  0.28537970896E+02  0.00000000000E+00 0. -1.
<mgrwt>
<rscale>  2 0.27078365E+02</rscale>
<asrwt>0</asrwt>
<pdfrwt beam="1">  1       21 0.91287259E-02 0.27078365E+02</pdfrwt>
<pdfrwt beam="2">  1       21 0.21974152E-02 0.27078365E+02</pdfrwt>
<totfact> 0.73136597E+07</totfact>
</mgrwt>
</event>
<event>
 4    1  0.7119201E+004  0.2215834E+02  0.7546771E-02  0.1705528E+00
         21   -1    0    0  503  502  0.00000000000E+00  0.00000000000E+00  0.13581559641E+02  0.13581559641E+02  0.00000000000E+00 0. -1.
         21   -1    0    0  501  503 -0.00000000000E+00 -0.00000000000E+00 -0.37357314114E+02  0.37357314114E+02  0.00000000000E+00 0. -1.
          4    1    1    2  501    0  0.15361804637E+02  0.15968943553E+02 -0.73118110330E+01  0.23333554819E+02  0.00000000000E+00 0.  1.
         -4    1    1    2    0  502 -0.15361804637E+02 -0.15968943553E+02 -0.16463943440E+02  0.27605318935E+02  0.00000000000E+00 0. -1.
<mgrwt>
<rscale>  2 0.22158344E+02</rscale>
<asrwt>0</asrwt>
<pdfrwt beam="1">  1       21 0.20894707E-02 0.22158344E+02</pdfrwt>
<pdfrwt beam="2">  1       21 0.57472791E-02 0.22158344E+02</pdfrwt>
<totfact> 0.15871763E+08</totfact>
</mgrwt>
</event>
<event>
 4    1  0.7119201E+004  0.2989493E+02  0.7546771E-02  0.1599253E+00
         21   -1    0    0  503  502  0.00000000000E+00  0.00000000000E+00  0.55779099213E+00  0.55779099213E+00  0.00000000000E+00 0. -1.
         21   -1    0    0  501  503 -0.00000000000E+00 -0.00000000000E+00 -0.21009542523E+04  0.21009542523E+04  0.00000000000E+00 0. -1.
          4    1    1    2  501    0 -0.29825112103E+02  0.20418750844E+01 -0.15621465171E+04  0.15624325418E+04  0.00000000000E+00 0.  1.
         -4    1    1    2    0  502  0.29825112103E+02 -0.20418750844E+01 -0.53824994419E+03  0.53907950155E+03  0.00000000000E+00 0. -1.
<mgrwt>
<rscale>  2 0.29894925E+02</rscale>
<asrwt>0</asrwt>
<pdfrwt beam="1">  1       21 0.85814360E-04 0.29894925E+02</pdfrwt>
<pdfrwt beam="2">  1       21 0.32322237E+00 0.29894925E+02</pdfrwt>
<totfact> 0.46322428E+06</totfact>
</mgrwt>
</event>
<event>
 4    1  0.7119201E+004  0.2121690E+02  0.7546771E-02  0.1722158E+00
         21   -1    0    0  501  502  0.00000000000E+00  0.00000000000E+00  0.47737560522E+02  0.47737560522E+02  0.00000000000E+00 0.  1.
         21   -1    0    0  502  503 -0.00000000000E+00 -0.00000000000E+00 -0.10342950753E+02  0.10342950753E+02  0.00000000000E+00 0.  1.
          4    1    1    2  501    0  0.16096913935E+02 -0.13821945531E+02  0.10068639495E+02  0.23484767782E+02  0.00000000000E+00 0. -1.
         -4    1    1    2    0  503 -0.16096913935E+02  0.13821945531E+02  0.27325970273E+02  0.34595743493E+02  0.00000000000E+00 0.  1.
<mgrwt>
<rscale>  2 0.21216899E+02</rscale>
<asrwt>0</asrwt>
<pdfrwt beam="1">  1       21 0.73442400E-02 0.21216899E+02</pdfrwt>
<pdfrwt beam="2">  1       21 0.15912232E-02 0.21216899E+02</pdfrwt>
<totfact> 0.15995944E+08</totfact>
</mgrwt>
</event>
<event>
 4    1  0.7119201E+004  0.2333301E+02  0.7546771E-02  0.1686168E+00
         21   -1    0    0  503  502  0.00000000000E+00  0.00000000000E+00  0.17939423825E+03  0.17939423825E+03  0.00000000000E+00 0.  1.
         21   -1    0    0  501  503 -0.00000000000E+00 -0.00000000000E+00 -0.30994309271E+01  0.30994309271E+01  0.00000000000E+00 0.  1.
          4    1    1    2  501    0  0.20677900330E+02 -0.10809896402E+02  0.10132165859E+03  0.10397359243E+03  0.00000000000E+00 0.  1.
         -4    1    1    2    0  502 -0.20677900330E+02  0.10809896402E+02  0.74973148733E+02  0.78520076753E+02  0.00000000000E+00 0. -1.
<mgrwt>
<rscale>  2 0.23333011E+02</rscale>
<asrwt>0</asrwt>
<pdfrwt beam="1">  1       21 0.27599105E-01 0.23333011E+02</pdfrwt>
<pdfrwt beam="2">  1       21 0.47683567E-03 0.23333011E+02</pdfrwt>
<totfact> 0.10512038E+08</totfact>
</mgrwt>
</event>
<event>
 4    1  0.7119201E+004  0.2378303E+02  0.7546771E-02  0.1679123E+00
         21   -1    0    0  503  502  0.00000000000E+00  0.00000000000E+00  0.50918298175E+02  0.50918298175E+02  0.00000000000E+00 0.  1.
         21   -1    0    0  501  503 -0.00000000000E+00 -0.00000000000E+00 -0.11204186176E+02  0.11204186176E+02  0.00000000000E+00 0.  1.
          3    1    1    2  501    0 -0.21377811772E+02  0.10422171250E+02  0.16988521699E+02  0.29227424780E+02  0.00000000000E+00 0.  1.
         -3    1    1    2    0  502  0.21377811772E+02 -0.10422171250E+02  0.22725590300E+02  0.32895059572E+02  0.00000000000E+00 0. -1.
<mgrwt>
<rscale>  2 0.23783029E+02</rscale>
<asrwt>0</asrwt>
<pdfrwt beam="1">  1       21 0.78335842E-02 0.23783029E+02</pdfrwt>
<pdfrwt beam="2">  1       21 0.17237210E-02 0.23783029E+02</pdfrwt>
<totfact> 0.13199460E+08</totfact>
</mgrwt>
</event>
<event>
 4    1  0.7119201E+004  0.4618790E+02  0.7546771E-02  0.1467059E+00
         21   -1    0    0  503  502  0.00000000000E+00  0.00000000000E+00  0.11810712771E+02  0.11810712771E+02  0.00000000000E+00 0.  1.
         21   -1    0    0  501  503 -0.00000000000E+00 -0.00000000000E+00 -0.19466376780E+03  0.19466376780E+03  0.00000000000E+00 0.  1.
          4    1    1    2  501    0 -0.13112116217E+02  0.44287633721E+02 -0.11914967114E+03  0.12778875626E+03  0.00000000000E+00 0.  1.
         -4    1    1    2    0  502  0.13112116217E+02 -0.44287633721E+02 -0.63703383882E+02  0.78685724310E+02  0.00000000000E+00 0. -1.
<mgrwt>
<rscale>  2 0.46187900E+02</rscale>
<asrwt>0</asrwt>
<pdfrwt beam="1">  1       21 0.18170327E-02 0.46187900E+02</pdfrwt>
<pdfrwt beam="2">  1       21 0.29948272E-01 0.46187900E+02</pdfrwt>
<totfact> 0.13566644E+07</totfact>
</mgrwt>
</event>
<event>
 4    1  0.7119201E+004  0.2150129E+02  0.7546771E-02  0.1717022E+00
         21   -1    0    0  501  502  0.00000000000E+00  0.00000000000E+00  0.49329794772E+00  0.49329794772E+00  0.00000000000E+00 0.  1.
         21   -1    0    0  502  503 -0.00000000000E+00 -0.00000000000E+00 -0.95082910637E+03  0.95082910637E+03  0.00000000000E+00 0.  1.
          1    1    1    2  501    0  0.18267528399E+02  0.11340314066E+02 -0.41816245029E+03  0.41871486736E+03  0.00000000000E+00 0. -1.
         -1    1    1    2    0  503 -0.18267528399E+02 -0.11340314066E+02 -0.53217335813E+03  0.53260753695E+03  0.00000000000E+00 0.  1.
<mgrwt>
<rscale>  2 0.21501286E+02</rscale>
<asrwt>0</asrwt>
<pdfrwt beam="1">  1       21 0.75892041E-04 0.21501286E+02</pdfrwt>
<pdfrwt beam="2">  1       21 0.14628131E+00 0.21501286E+02</pdfrwt>
<totfact> 0.48922755E+07</totfact>
</mgrwt>
</event>
<event>
 4    1  0.7119201E+004  0.2313121E+02  0.7546771E-02  0.1689392E+00
         21   -1    0    0  503  502  0.00000000000E+00  0.00000000000E+00  0.21561691722E+01  0.21561691722E+01  0.00000000000E+00 0. -1.
         21   -1    0    0  501  503 -0.00000000000E+00 -0.00000000000E+00 -0.26084613499E+03  0.26084613499E+03  0.00000000000E+00 0. -1.
          1    1    1    2  501    0  0.15881855905E+02  0.16817243961E+02 -0.15835685851E+03  0.16003733214E+03  0.00000000000E+00 0.  1.
         -1    1    1    2    0  502 -0.15881855905E+02 -0.16817243961E+02 -0.10033310731E+03  0.10296497202E+03  0.00000000000E+00 0. -1.
<mgrwt>
<rscale>  2 0.23131214E+02</rscale>
<asrwt>0</asrwt>
<pdfrwt beam="1">  1       21 0.33171854E-03 0.23131214E+02</pdfrwt>
<pdfrwt beam="2">  1       21 0.40130150E-01 0.23131214E+02</pdfrwt>
<totfact> 0.89609707E+07</totfact>
</mgrwt>
</event>
<event>
 4    1  0.7119201E+004  0.2633744E+02  0.7546771E-02  0.1642503E+00
         21   -1    0    0  501  502  0.00000000000E+00  0.00000000000E+00  0.19849914803E+03  0.19849914803E+03  0.00000000000E+00 0. -1.
         21   -1    0    0  502  503 -0.00000000000E+00 -0.00000000000E+00 -0.35327545954E+01  0.35327545954E+01  0.00000000000E+00 0. -1.
          5    1    1    2  501    0 -0.24365244086E+02 -0.99997879443E+01  0.10799106629E+03  0.11115633710E+03  0.00000000000E+00 0.  1.
         -5    1    1    2    0  503  0.24365244086E+02  0.99997879443E+01  0.86975327146E+02  0.90875565530E+02  0.00000000000E+00 0. -1.
<mgrwt>
<rscale>  2 0.26337443E+02</rscale>
<asrwt>0</asrwt>
<pdfrwt beam="1">  1       21 0.30538322E-01 0.26337443E+02</pdfrwt>
<pdfrwt beam="2">  1       21 0.54350086E-03 0.26337443E+02</pdfrwt>
<totfact> 0.74301124E+07</totfact>
</mgrwt>
</event>
<event>
 4    1  0.7119201E+004  0.2217521E+02  0.7546771E-02  0.1705239E+00
         21   -1    0    0  503  502  0.00000000000E+00  0.00000000000E+00  0.22841089169E+01  0.22841089169E+01  0.00000000000E+00 0.  1.
         21   -1    0    0  501  503 -0.00000000000E+00 -0.00000000000E+00 -0.21621035335E+03  0.21621035335E+03  0.00000000000E+00 0.  1.
          1    1    1    2  501    0 -0.18709578875E+02 -0.11903421535E+02 -0.99825217711E+02  0.10225856383E+03  0.00000000000E+00 0. -1.
         -1    1    1    2    0  502  0.18709578875E+02  0.11903421535E+02 -0.11410102672E+03  0.11623589843E+03  0.00000000000E+00 0.  1.
<mgrwt>
<rscale>  2 0.22175207E+02</rscale>
<asrwt>0</asrwt>
<pdfrwt beam="1">  1       21 0.35140117E-03 0.22175207E+02</pdfrwt>
<pdfrwt beam="2">  1       21 0.33263150E-01 0.22175207E+02</pdfrwt>
<totfact> 0.11549780E+08</totfact>
</mgrwt>
</event>
<event>
 4    1  0.7119201E+004  0.2398911E+02  0.7546771E-02  0.1675961E+00
         21   -1    0    0  501  502  0.00000000000E+00  0.00000000000E+00  0.48339890724E+01  0.48339890724E+01  0.00000000000E+00 0.  1.
         21   -1    0    0  502  503 -0.00000000000E+00 -0.00000000000E+00 -0.11976190307E+03  0.11976190307E+03  0.00000000000E+00 0.  1.
          1    1    1    2  501    0  0.23630910790E+02 -0.41300747311E+01 -0.62273324974E+02  0.66734132686E+02  0.00000000000E+00 0.  1.
         -1    1    1    2    0  503 -0.23630910790E+02  0.41300747311E+01 -0.52654589019E+02  0.57861759451E+02  0.00000000000E+00 0. -1.
<mgrwt>
<rscale>  2 0.23989111E+02</rscale>
<asrwt>0</asrwt>
<pdfrwt beam="1">  1       21 0.74369071E-03 0.23989111E+02</pdfrwt>
<pdfrwt beam="2">  1       21 0.18424906E-01 0.23989111E+02</pdfrwt>
<totfact> 0.11193661E+08</totfact>
</mgrwt>
</event>
<event>
 4    1  0.7119201E+004  0.2108121E+02  0.7546771E-02  0.1724644E+00
         21   -1    0    0  503  502  0.00000000000E+00  0.00000000000E+00  0.26265856665E+01  0.26265856665E+01  0.00000000000E+00 0. -1.
         21   -1    0    0  501  503 -0.00000000000E+00 -0.00000000000E+00 -0.16924515427E+03  0.16924515427E+03  0.00000000000E+00 0. -1.
          1    1    1    2  501    0 -0.66138679037E+01 -0.20016845178E+02 -0.81899970310E+02  0.84569630934E+02  0.00000000000E+00 0. -1.
         -1    1    1    2    0  502  0.66138679037E+01  0.20016845178E+02 -0.84718598298E+02  0.87302109007E+02  0.00000000000E+00 0.  1.
<mgrwt>
<rscale>  2 0.21081208E+02</rscale>
<asrwt>0</asrwt>
<pdfrwt beam="1">  1       21 0.40409004E-03 0.21081208E+02</pdfrwt>
<pdfrwt beam="2">  1       21 0.26037720E-01 0.21081208E+02</pdfrwt>
<totfact> 0.14460855E+08</totfact>
</mgrwt>
</event>
<event>
 4    1  0.7119201E+004  0.2225213E+02  0.7546771E-02  0.1703928E+00
         21   -1    0    0  503  502  0.00000000000E+00  0.00000000000E+00  0.20886661444E+03  0.20886661444E+03  0.00000000000E+00 0.  1.
         21   -1    0    0  501  503 -0.00000000000E+00 -0.00000000000E+00 -0.27142937325E+01  0.27142937325E+01  0.00000000000E+00 0.  1.
          1    1    1    2  501    0 -0.19838436198E+02  0.10079377926E+02  0.65436234190E+02  0.69116265489E+02  0.00000000000E+00 0. -1.
         -1    1    1    2    0  502  0.19838436198E+02 -0.10079377926E+02  0.14071608651E+03  0.14246464268E+03  0.00000000000E+00 0.  1.
<mgrwt>
<rscale>  2 0.22252133E+02</rscale>
<asrwt>0</asrwt>
<pdfrwt beam="1">  1       21 0.32133313E-01 0.22252133E+02</pdfrwt>
<pdfrwt beam="2">  1       21 0.41758382E-03 0.22252133E+02</pdfrwt>
<totfact> 0.95680076E+07</totfact>
</mgrwt>
</event>
<event>
 4    1  0.7119201E+004  0.3271555E+02  0.7546771E-02  0.1569876E+00
         21   -1    0    0  501  502  0.00000000000E+00  0.00000000000E+00  0.22370046611E+02  0.22370046611E+02  0.00000000000E+00 0. -1.
         21   -1    0    0  502  503 -0.00000000000E+00 -0.00000000000E+00 -0.48599499606E+02  0.48599499606E+02  0.00000000000E+00 0. -1.
          2    1    1    2  501    0  0.24446608458E+02  0.21740992349E+02 -0.17534442205E+02  0.37118244528E+02  0.00000000000E+00 0.  1.
         -2    1    1    2    0  503 -0.24446608458E+02 -0.21740992349E+02 -0.86950107899E+01  0.33851301689E+02  0.00000000000E+00 0. -1.
<mgrwt>
<rscale>  2 0.32715553E+02</rscale>
<asrwt>0</asrwt>
<pdfrwt beam="1">  1       21 0.34415457E-02 0.32715553E+02</pdfrwt>
<pdfrwt beam="2">  1       21 0.74768460E-02 0.32715553E+02</pdfrwt>
<totfact> 0.52596529E+07</totfact>
</mgrwt>
</event>
<event>
 4    1  0.7119201E+004  0.3154144E+02  0.7546771E-02  0.1581649E+00
         21   -1    0    0  501  502  0.00000000000E+00  0.00000000000E+00  0.11736718675E+02  0.11736718675E+02  0.00000000000E+00 0. -1.
         21   -1    0    0  502  503 -0.00000000000E+00 -0.00000000000E+00 -0.85805239834E+02  0.85805239834E+02  0.00000000000E+00 0. -1.
          3    1    1    2  501    0 -0.27636237587E+02 -0.15202010119E+02 -0.42404271927E+02  0.52848699296E+02  0.00000000000E+00 0. -1.
         -3    1    1    2    0  503  0.27636237587E+02  0.15202010119E+02 -0.31664249232E+02  0.44693259212E+02  0.00000000000E+00 0.  1.
<mgrwt>
<rscale>  2 0.31541445E+02</rscale>
<asrwt>0</asrwt>
<pdfrwt beam="1">  1       21 0.18056490E-02 0.31541445E+02</pdfrwt>
<pdfrwt beam="2">  1       21 0.13200807E-01 0.31541445E+02</pdfrwt>
<totfact> 0.55240405E+07</totfact>
</mgrwt>
</event>
<event>
 4    1  0.7119201E+004  0.2041329E+02  0.7546771E-02  0.1737232E+00
         21   -1    0    0  501  502  0.00000000000E+00  0.00000000000E+00  0.72663894119E+01  0.72663894119E+01  0.00000000000E+00 0.  1.
         21   -1    0    0  502  503 -0.00000000000E+00 -0.00000000000E+00 -0.82331600849E+02  0.82331600849E+02  0.00000000000E+00 0.  1.
          1    1    1    2  501    0 -0.19089882285E+02  0.72304149706E+01 -0.12853754431E+02  0.24123049336E+02  0.00000000000E+00 0.  1.
         -1    1    1    2    0  503  0.19089882285E+02 -0.72304149706E+01 -0.62211457006E+02  0.65474940925E+02  0.00000000000E+00 0. -1.
<mgrwt>
<rscale>  2 0.20413292E+02</rscale>
<asrwt>0</asrwt>
<pdfrwt beam="1">  1       21 0.11179061E-02 0.20413292E+02</pdfrwt>
<pdfrwt beam="2">  1       21 0.12666400E-01 0.20413292E+02</pdfrwt>
<totfact> 0.10994791E+08</totfact>
</mgrwt>
</event>
<event>
 4    1  0.7119201E+004  0.2051200E+02  0.7546771E-02  0.1735334E+00
         21   -1    0    0  503  502  0.00000000000E+00  0.00000000000E+00  0.37238328251E+03  0.37238328251E+03  0.00000000000E+00 0. -1.
         21   -1    0    0  501  503 -0.00000000000E+00 -0.00000000000E+00 -0.11612090219E+01  0.11612090219E+01  0.00000000000E+00 0. -1.
          2    1    1    2  501    0  0.30833536830E+01  0.20278927167E+02  0.21629778577E+03  0.21726820772E+03  0.00000000000E+00 0.  1.
         -2    1    1    2    0  502 -0.30833536830E+01 -0.20278927167E+02  0.15492428772E+03  0.15627628381E+03  0.00000000000E+00 0. -1.
<mgrwt>
<rscale>  2 0.20511995E+02</rscale>
<asrwt>0</asrwt>
<pdfrwt beam="1">  1       21 0.57289641E-01 0.20511995E+02</pdfrwt>
<pdfrwt beam="2">  1       21 0.17864784E-03 0.20511995E+02</pdfrwt>
<totfact> 0.10702981E+08</totfact>
</mgrwt>
</event>
<event>
 4    1  0.7119201E+004  0.2113317E+02  0.7546771E-02  0.1723689E+00
         21   -1    0    0  503  502  0.00000000000E+00  0.00000000000E+00  0.18948669593E+01  0.18948669593E+01  0.00000000000E+00 0. -1.
         21   -1    0    0  501  503 -0.00000000000E+00 -0.00000000000E+00 -0.93071602864E+03  0.93071602864E+03  0.00000000000E+00 0. -1.
          1    1    1    2  501    0 -0.15962858381E+02  0.13849111880E+02 -0.61451588397E+02  0.64983909270E+02  0.00000000000E+00 0. -1.
         -1    1    1    2    0  502  0.15962858381E+02 -0.13849111880E+02 -0.86736957329E+03  0.86762698633E+03  0.00000000000E+00 0.  1.
<mgrwt>
<rscale>  2 0.21133167E+02</rscale>
<asrwt>0</asrwt>
<pdfrwt beam="1">  1       21 0.29151854E-03 0.21133167E+02</pdfrwt>
<pdfrwt beam="2">  1       21 0.14318681E+00 0.21133167E+02</pdfrwt>
<totfact> 0.74661578E+06</totfact>
</mgrwt>
</event>
<event>
 4    1  0.7119201E+004  0.2111325E+02  0.7546771E-02  0.1724055E+00
         21   -1    0    0  503  502  0.00000000000E+00  0.00000000000E+00  0.94650399638E+01  0.94650399638E+01  0.00000000000E+00 0. -1.
         21   -1    0    0  501  503 -0.00000000000E+00 -0.00000000000E+00 -0.54157073312E+02  0.54157073312E+02  0.00000000000E+00 0. -1.
          4    1    1    2  501    0 -0.33782741917E+00 -0.21110543973E+02 -0.10859881295E+02  0.23742498098E+02  0.00000000000E+00 0. -1.
         -4    1    1    2    0  502  0.33782741917E+00  0.21110543973E+02 -0.33832152054E+02  0.39879615178E+02  0.00000000000E+00 0.  1.
<mgrwt>
<rscale>  2 0.21113247E+02</rscale>
<asrwt>0</asrwt>
<pdfrwt beam="1">  1       21 0.14561600E-02 0.21113247E+02</pdfrwt>
<pdfrwt beam="2">  1       21 0.83318577E-02 0.21113247E+02</pdfrwt>
<totfact> 0.14885919E+08</totfact>
</mgrwt>
</event>
<event>
 4    1  0.7119201E+004  0.6386886E+02  0.7546771E-02  0.1382278E+00
         21   -1    0    0  501  502  0.00000000000E+00  0.00000000000E+00  0.48744782210E+02  0.48744782210E+02  0.00000000000E+00 0.  1.
         21   -1    0    0  502  503 -0.00000000000E+00 -0.00000000000E+00 -0.87905247906E+02  0.87905247906E+02  0.00000000000E+00 0.  1.
          3    1    1    2  501    0 -0.14067490255E+02  0.62300376015E+02 -0.34550031000E+02  0.72614983136E+02  0.00000000000E+00 0.  1.
         -3    1    1    2    0  503  0.14067490255E+02 -0.62300376015E+02 -0.46104346955E+01  0.64035046981E+02  0.00000000000E+00 0. -1.
<mgrwt>
<rscale>  2 0.63868859E+02</rscale>
<asrwt>0</asrwt>
<pdfrwt beam="1">  1       21 0.74991973E-02 0.63868859E+02</pdfrwt>
<pdfrwt beam="2">  1       21 0.13523884E-01 0.63868859E+02</pdfrwt>
<totfact> 0.59441872E+06</totfact>
</mgrwt>
</event>
<event>
 4    1  0.7119201E+004  0.2113662E+02  0.7546771E-02  0.1723626E+00
         21   -1    0    0  503  502  0.00000000000E+00  0.00000000000E+00  0.84127662772E+00  0.84127662772E+00  0.00000000000E+00 0.  1.
         21   -1    0    0  501  503 -0.00000000000E+00 -0.00000000000E+00 -0.53889990688E+03  0.53889990688E+03  0.00000000000E+00 0.  1.
          4    1    1    2  501    0  0.74203847223E+01  0.19791271318E+02 -0.23644967411E+03  0.23739251235E+03  0.00000000000E+00 0.  1.
         -4    1    1    2    0  502 -0.74203847223E+01 -0.19791271318E+02 -0.30160895614E+03  0.30234867116E+03  0.00000000000E+00 0. -1.
<mgrwt>
<rscale>  2 0.21136616E+02</rscale>
<asrwt>0</asrwt>
<pdfrwt beam="1">  1       21 0.12942705E-03 0.21136616E+02</pdfrwt>
<pdfrwt beam="2">  1       21 0.82907756E-01 0.21136616E+02</pdfrwt>
<totfact> 0.80577155E+07</totfact>
</mgrwt>
</event>
<event>
 4    1  0.7119201E+004  0.2429691E+02  0.7546771E-02  0.1671311E+00
         21   -1    0    0  503  502  0.00000000000E+00  0.00000000000E+00  0.50485453973E+03  0.50485453973E+03  0.00000000000E+00 0.  1.
         21   -1    0    0  501  503 -0.00000000000E+00 -0.00000000000E+00 -0.12394825349E+01  0.12394825349E+01  0.00000000000E+00 0.  1.
          4    1    1    2  501    0 -0.19093510055E+02 -0.15025894156E+02  0.31201003457E+03  0.31295463136E+03  0.00000000000E+00 0. -1.
         -4    1    1    2    0  502  0.19093510055E+02  0.15025894156E+02  0.19160502263E+03  0.19313939090E+03  0.00000000000E+00 0.  1.
<mgrwt>
<rscale>  2 0.24296906E+02</rscale>
<asrwt>0</asrwt>
<pdfrwt beam="1">  1       21 0.77669765E-01 0.24296906E+02</pdfrwt>
<pdfrwt beam="2">  1       21 0.19069002E-03 0.24296906E+02</pdfrwt>
<totfact> 0.54740578E+07</totfact>
</mgrwt>
</event>
<event>
 4    1  0.7119201E+004  0.2319589E+02  0.7546771E-02  0.1688354E+00
         21   -1    0    0  503  502  0.00000000000E+00  0.00000000000E+00  0.23210146239E+02  0.23210146239E+02  0.00000000000E+00 0.  1.
         21   -1    0    0  501  503 -0.00000000000E+00 -0.00000000000E+00 -0.26487310774E+02  0.26487310774E+02  0.00000000000E+00 0.  1.
          1    1    1    2  501    0 -0.20542337218E+02  0.10773198868E+02 -0.10416965434E+02  0.25427595268E+02  0.00000000000E+00 0. -1.
         -1    1    1    2    0  502  0.20542337218E+02 -0.10773198868E+02  0.71398008990E+01  0.24269861745E+02  0.00000000000E+00 0.  1.
<mgrwt>
<rscale>  2 0.23195893E+02</rscale>
<asrwt>0</asrwt>
<pdfrwt beam="1">  1       21 0.35707917E-02 0.23195893E+02</pdfrwt>
<pdfrwt beam="2">  1       21 0.40749709E-02 0.23195893E+02</pdfrwt>
<totfact> 0.12103436E+08</totfact>
</mgrwt>
</event>
<event>
 4    1  0.7119201E+004  0.2364139E+02  0.7546771E-02  0.1681319E+00
         21   -1    0    0  501  502  0.00000000000E+00  0.00000000000E+00  0.22709904008E+02  0.22709904008E+02  0.00000000000E+00 0. -1.
         21   -1    0    0  502  503 -0.00000000000E+00 -0.00000000000E+00 -0.38854174581E+02  0.38854174581E+02  0.00000000000E+00 0. -1.
          5    1    1    2  501    0 -0.22042947782E+02 -0.85453973351E+01 -0.26709334946E+02  0.35669369714E+02  0.00000000000E+00 0.  1.
         -5    1    1    2    0  503  0.22042947782E+02  0.85453973351E+01  0.10565064374E+02  0.25894708875E+02  0.00000000000E+00 0. -1.
<mgrwt>
<rscale>  2 0.23641391E+02</rscale>
<asrwt>0</asrwt>
<pdfrwt beam="1">  1       21 0.34938314E-02 0.23641391E+02</pdfrwt>
<pdfrwt beam="2">  1       21 0.59775653E-02 0.23641391E+02</pdfrwt>
<totfact> 0.68413621E+07</totfact>
</mgrwt>
</event>
<event>
 4    1  0.7119201E+004  0.2782042E+02  0.7546771E-02  0.1623511E+00
         21   -1    0    0  503  502  0.00000000000E+00  0.00000000000E+00  0.88820514241E+01  0.88820514241E+01  0.00000000000E+00 0.  1.
         21   -1    0    0  501  503 -0.00000000000E+00 -0.00000000000E+00 -0.10598871288E+03  0.10598871288E+03  0.00000000000E+00 0.  1.
          3    1    1    2  501    0  0.85117988626E+01  0.26486315368E+02 -0.24331956602E+02  0.36959704189E+02  0.00000000000E+00 0.  1.
         -3    1    1    2    0  502 -0.85117988626E+01 -0.26486315368E+02 -0.72774704857E+02  0.77911060118E+02  0.00000000000E+00 0. -1.
<mgrwt>
<rscale>  2 0.27820417E+02</rscale>
<asrwt>0</asrwt>
<pdfrwt beam="1">  1       21 0.13664694E-02 0.27820417E+02</pdfrwt>
<pdfrwt beam="2">  1       21 0.16305956E-01 0.27820417E+02</pdfrwt>
<totfact> 0.57329743E+07</totfact>
</mgrwt>
</event>
<event>
 4    1  0.7119201E+004  0.2394588E+02  0.7546771E-02  0.1676621E+00
         21   -1    0    0  503  502  0.00000000000E+00  0.00000000000E+00  0.28429790637E+01  0.28429790637E+01  0.00000000000E+00 0. -1.
         21   -1    0    0  501  503 -0.00000000000E+00 -0.00000000000E+00 -0.20376067913E+03  0.20376067913E+03  0.00000000000E+00 0. -1.
          1    1    1    2  501    0 -0.11353675041E+02 -0.21083154428E+02 -0.90049496319E+02  0.93178952156E+02  0.00000000000E+00 0.  1.
         -1    1    1    2    0  502  0.11353675041E+02  0.21083154428E+02 -0.11086820374E+03  0.11342470604E+03  0.00000000000E+00 0. -1.
<mgrwt>
<rscale>  2 0.23945884E+02</rscale>
<asrwt>0</asrwt>
<pdfrwt beam="1">  1       21 0.43738152E-03 0.23945884E+02</pdfrwt>
<pdfrwt beam="2">  1       21 0.31347788E-01 0.23945884E+02</pdfrwt>
<totfact> 0.95375062E+07</totfact>
</mgrwt>
</event>
<event>
 4    1  0.7119201E+004  0.3091491E+02  0.7546771E-02  0.1588190E+00
         21   -1    0    0  501  502  0.00000000000E+00  0.00000000000E+00  0.60425268067E+02  0.60425268067E+02  0.00000000000E+00 0.  1.
         21   -1    0    0  502  503 -0.00000000000E+00 -0.00000000000E+00 -0.24035167298E+02  0.24035167298E+02  0.00000000000E+00 0.  1.
          3    1    1    2  501    0  0.53144665851E+01  0.30454686494E+02 -0.64990827332E+01  0.31590656228E+02  0.00000000000E+00 0. -1.
         -3    1    1    2    0  503 -0.53144665851E+01 -0.30454686494E+02  0.42889183502E+02  0.52869779137E+02  0.00000000000E+00 0.  1.
<mgrwt>
<rscale>  2 0.30914907E+02</rscale>
<asrwt>0</asrwt>
<pdfrwt beam="1">  1       21 0.92961950E-02 0.30914907E+02</pdfrwt>
<pdfrwt beam="2">  1       21 0.36977181E-02 0.30914907E+02</pdfrwt>
<totfact> 0.32337050E+07</totfact>
</mgrwt>
</event>
<event>
 4    1  0.7119201E+004  0.3332218E+02  0.7546771E-02  0.1564026E+00
         21   -1    0    0  501  502  0.00000000000E+00  0.00000000000E+00  0.19836636339E+02  0.19836636339E+02  0.00000000000E+00 0.  1.
         21   -1    0    0  502  503 -0.00000000000E+00 -0.00000000000E+00 -0.60059918834E+02  0.60059918834E+02  0.00000000000E+00 0.  1.
          2    1    1    2  501    0 -0.20742807265E+02  0.26078795784E+02 -0.96940947216E+01  0.34703647002E+02  0.00000000000E+00 0. -1.
         -2    1    1    2    0  503  0.20742807265E+02 -0.26078795784E+02 -0.30529187774E+02  0.45192908171E+02  0.00000000000E+00 0.  1.
<mgrwt>
<rscale>  2 0.33322179E+02</rscale>
<asrwt>0</asrwt>
<pdfrwt beam="1">  1       21 0.30517903E-02 0.33322179E+02</pdfrwt>
<pdfrwt beam="2">  1       21 0.92399874E-02 0.33322179E+02</pdfrwt>
<totfact> 0.44953601E+07</totfact>
</mgrwt>
</event>
<event>
 4    1  0.7119201E+004  0.2299176E+02  0.7546771E-02  0.1691644E+00
         21   -1    0    0  503  502  0.00000000000E+00  0.00000000000E+00  0.70632654210E+02  0.70632654210E+02  0.00000000000E+00 0. -1.
         21   -1    0    0  501  503 -0.00000000000E+00 -0.00000000000E+00 -0.79586339136E+01  0.79586339136E+01  0.00000000000E+00 0. -1.
          1    1    1    2  501    0  0.28947485774E+00  0.22989932996E+02  0.40932462745E+02  0.46947708370E+02  0.00000000000E+00 0. -1.
         -1    1    1    2    0  502 -0.28947485774E+00 -0.22989932996E+02  0.21741557551E+02  0.31643579753E+02  0.00000000000E+00 0.  1.
<mgrwt>
<rscale>  2 0.22991755E+02</rscale>
<asrwt>0</asrwt>
<pdfrwt beam="1">  1       21 0.10866562E-01 0.22991755E+02</pdfrwt>
<pdfrwt beam="2">  1       21 0.12244053E-02 0.22991755E+02</pdfrwt>
<totfact> 0.12818621E+08</totfact>
</mgrwt>
</event>
<event>
 4    1  0.7119201E+004  0.2484973E+02  0.7546771E-02  0.1663170E+00
         21   -1    0    0  503  502  0.00000000000E+00  0.00000000000E+00  0.25901411716E+01  0.25901411716E+01  0.00000000000E+00 0. -1.
         21   -1    0    0  501  503 -0.00000000000E+00 -0.00000000000E+00 -0.41057766809E+03  0.41057766809E+03  0.00000000000E+00 0. -1.
          5    1    1    2  501    0 -0.23635143006E+02  0.76739335821E+01 -0.70217921322E+02  0.74485338935E+02  0.00000000000E+00 0. -1.
         -5    1    1    2    0  502  0.23635143006E+02 -0.76739335821E+01 -0.33776960560E+03  0.33868247033E+03  0.00000000000E+00 0.  1.
<mgrwt>
<rscale>  2 0.24849733E+02</rscale>
<asrwt>0</asrwt>
<pdfrwt beam="1">  1       21 0.39848336E-03 0.24849733E+02</pdfrwt>
<pdfrwt beam="2">  1       21 0.63165778E-01 0.24849733E+02</pdfrwt>
<totfact> 0.28738898E+07</totfact>
</mgrwt>
</event>
<event>
 4    1  0.7119201E+004  0.2011520E+02  0.7546771E-02  0.1743047E+00
         21   -1    0    0  501  502  0.00000000000E+00  0.00000000000E+00  0.69698491299E+01  0.69698491299E+01  0.00000000000E+00 0. -1.
         21   -1    0    0  502  503 -0.00000000000E+00 -0.00000000000E+00 -0.71470454807E+02  0.71470454807E+02  0.00000000000E+00 0. -1.
          4    1    1    2  501    0 -0.13438935308E+02 -0.14967176995E+02 -0.15256937164E+02  0.25246692873E+02  0.00000000000E+00 0. -1.
         -4    1    1    2    0  503  0.13438935308E+02  0.14967176995E+02 -0.49243668513E+02  0.53193611064E+02  0.00000000000E+00 0.  1.
<mgrwt>
<rscale>  2 0.20115202E+02</rscale>
<asrwt>0</asrwt>
<pdfrwt beam="1">  1       21 0.10722845E-02 0.20115202E+02</pdfrwt>
<pdfrwt beam="2">  1       21 0.10995454E-01 0.20115202E+02</pdfrwt>
<totfact> 0.14741595E+08</totfact>
</mgrwt>
</event>
<event>
 4    1  0.7119201E+004  0.2520397E+02  0.7546771E-02  0.1658089E+00
         21   -1    0    0  503  502  0.00000000000E+00  0.00000000000E+00  0.80671190013E+02  0.80671190013E+02  0.00000000000E+00 0.  1.
         21   -1    0    0  501  503 -0.00000000000E+00 -0.00000000000E+00 -0.13213365975E+02  0.13213365975E+02  0.00000000000E+00 0.  1.
          4    1    1    2  501    0  0.14573795523E+02 -0.20563189426E+02  0.38898982737E+01  0.25502383886E+02  0.00000000000E+00 0. -1.
         -4    1    1    2    0  502 -0.14573795523E+02  0.20563189426E+02  0.63567925764E+02  0.68382172101E+02  0.00000000000E+00 0.  1.
<mgrwt>
<rscale>  2 0.25203973E+02</rscale>
<asrwt>0</asrwt>
<pdfrwt beam="1">  1       21 0.12410952E-01 0.25203973E+02</pdfrwt>
<pdfrwt beam="2">  1       21 0.20328256E-02 0.25203973E+02</pdfrwt>
<totfact> 0.48537959E+07</totfact>
</mgrwt>
</event>
<event>
 4    1  0.7119201E+004  0.2106939E+02  0.7546771E-02  0.1724862E+00
         21   -1    0    0  501  502  0.00000000000E+00  0.00000000000E+00  0.13476097360E+03  0.13476097360E+03  0.00000000000E+00 0.  1.
         21   -1    0    0  502  503 -0.00000000000E+00 -0.00000000000E+00 -0.41795783826E+01  0.41795783826E+01  0.00000000000E+00 0.  1.
          3    1    1    2  501    0  0.61924855326E+01 -0.20138826545E+02  0.33315285671E+02  0.39418618329E+02  0.00000000000E+00 0. -1.
         -3    1    1    2    0  503 -0.61924855326E+01  0.20138826545E+02  0.97266109543E+02  0.99521933649E+02  0.00000000000E+00 0.  1.
<mgrwt>
<rscale>  2 0.21069390E+02</rscale>
<asrwt>0</asrwt>
<pdfrwt beam="1">  1       21 0.20732454E-01 0.21069390E+02</pdfrwt>
<pdfrwt beam="2">  1       21 0.64301216E-03 0.21069390E+02</pdfrwt>
<totfact> 0.10909621E+08</totfact>
</mgrwt>
</event>
<event>
 4    1  0.7119201E+004  0.2062003E+02  0.7546771E-02  0.1733272E+00
         21   -1    0    0  503  502  0.00000000000E+00  0.00000000000E+00  0.25308580326E+02  0.25308580326E+02  0.00000000000E+00 0. -1.
         21   -1    0    0  501  503 -0.00000000000E+00 -0.00000000000E+00 -0.31858840160E+02  0.31858840160E+02  0.00000000000E+00 0. -1.
          2    1    1    2  501    0  0.16044691831E+02  0.12951961916E+02 -0.22926762649E+02  0.30835400095E+02  0.00000000000E+00 0.  1.
         -2    1    1    2    0  502 -0.16044691831E+02 -0.12951961916E+02  0.16376502815E+02  0.26332020391E+02  0.00000000000E+00 0. -1.
<mgrwt>
<rscale>  2 0.20620026E+02</rscale>
<asrwt>0</asrwt>
<pdfrwt beam="1">  1       21 0.38936277E-02 0.20620026E+02</pdfrwt>
<pdfrwt beam="2">  1       21 0.49013600E-02 0.20620026E+02</pdfrwt>
<totfact> 0.76278703E+07</totfact>
</mgrwt>
</event>
<event>
 4    1  0.7119201E+004  0.2070231E+02  0.7546771E-02  0.1731712E+00
         21   -1    0    0  503  502  0.00000000000E+00  0.00000000000E+00  0.87736660601E+02  0.87736660601E+02  0.00000000000E+00 0.  1.
         21   -1    0    0  501  503 -0.00000000000E+00 -0.00000000000E+00 -0.56072051019E+01  0.56072051019E+01  0.00000000000E+00 0.  1.
          4    1    1    2  501    0  0.19381523176E+02  0.72761519277E+01  0.24313778142E+02  0.31933456359E+02  0.00000000000E+00 0. -1.
         -4    1    1    2    0  502 -0.19381523176E+02 -0.72761519277E+01  0.57815677357E+02  0.61410409344E+02  0.00000000000E+00 0.  1.
<mgrwt>
<rscale>  2 0.20702315E+02</rscale>
<asrwt>0</asrwt>
<pdfrwt beam="1">  1       21 0.13497947E-01 0.20702315E+02</pdfrwt>
<pdfrwt beam="2">  1       21 0.86264700E-03 0.20702315E+02</pdfrwt>
<totfact> 0.14622108E+08</totfact>
</mgrwt>
</event>
<event>
 4    1  0.7119201E+004  0.2296830E+02  0.7546771E-02  0.1692024E+00
         21   -1    0    0  501  502  0.00000000000E+00  0.00000000000E+00  0.28819890517E+03  0.28819890517E+03  0.00000000000E+00 0.  1.
         21   -1    0    0  502  503 -0.00000000000E+00 -0.00000000000E+00 -0.23072995905E+01  0.23072995905E+01  0.00000000000E+00 0.  1.
          2    1    1    2  501    0 -0.28154062237E+01 -0.22795095404E+02  0.76914541777E+02  0.80270727064E+02  0.00000000000E+00 0. -1.
         -2    1    1    2    0  503  0.28154062237E+01  0.22795095404E+02  0.20897706381E+03  0.21023547770E+03  0.00000000000E+00 0.  1.
<mgrwt>
<rscale>  2 0.22968302E+02</rscale>
<asrwt>0</asrwt>
<pdfrwt beam="1">  1       21 0.44338264E-01 0.22968302E+02</pdfrwt>
<pdfrwt beam="2">  1       21 0.35496940E-03 0.22968302E+02</pdfrwt>
<totfact> 0.67044464E+07</totfact>
</mgrwt>
</event>
<event>
 4    1  0.7119201E+004  0.2313489E+02  0.7546771E-02  0.1689333E+00
         21   -1    0    0  503  502  0.00000000000E+00  0.00000000000E+00  0.28588694434E+02  0.28588694434E+02  0.00000000000E+00 0. -1.
         21   -1    0    0  501  503 -0.00000000000E+00 -0.00000000000E+00 -0.18853576092E+02  0.18853576092E+02  0.00000000000E+00 0. -1.
          3    1    1    2  501    0 -0.18141579163E+01 -0.23063648908E+02  0.28821014182E+01  0.23313720820E+02  0.00000000000E+00 0. -1.
         -3    1    1    2    0  502  0.18141579163E+01  0.23063648908E+02  0.68530169238E+01  0.24128549705E+02  0.00000000000E+00 0.  1.
<mgrwt>
<rscale>  2 0.23134889E+02</rscale>
<asrwt>0</asrwt>
<pdfrwt beam="1">  1       21 0.43982607E-02 0.23134889E+02</pdfrwt>
<pdfrwt beam="2">  1       21 0.29005502E-02 0.23134889E+02</pdfrwt>
<totfact> 0.14832195E+08</totfact>
</mgrwt>
</event>
<event>
 4    1  0.7119201E+004  0.2344199E+02  0.7546771E-02  0.1684444E+00
         21   -1    0    0  503  502  0.00000000000E+00  0.00000000000E+00  0.23670157299E+01  0.23670157299E+01  0.00000000000E+00 0. -1.
         21   -1    0    0  501  503 -0.00000000000E+00 -0.00000000000E+00 -0.23882237199E+03  0.23882237199E+03  0.00000000000E+00 0. -1.
          5    1    1    2  501    0  0.70979256424E+00  0.23431240589E+02 -0.98085859805E+02  0.10084821632E+03  0.00000000000E+00 0. -1.
         -5    1    1    2    0  502 -0.70979256424E+00 -0.23431240589E+02 -0.13836949646E+03  0.14034117140E+03  0.00000000000E+00 0.  1.
<mgrwt>
<rscale>  2 0.23441989E+02</rscale>
<asrwt>0</asrwt>
<pdfrwt beam="1">  1       21 0.36415614E-03 0.23441989E+02</pdfrwt>
<pdfrwt beam="2">  1       21 0.36741916E-01 0.23441989E+02</pdfrwt>
<totfact> 0.92560911E+07</totfact>
</mgrwt>
</event>
<event>
 4    1  0.7119201E+004  0.2054437E+02  0.7546771E-02  0.1734714E+00
         21   -1    0    0  501  502  0.00000000000E+00  0.00000000000E+00  0.27786185597E+02  0.27786185597E+02  0.00000000000E+00 0. -1.
         21   -1    0    0  502  503 -0.00000000000E+00 -0.00000000000E+00 -0.15226807339E+02  0.15226807339E+02  0.00000000000E+00 0. -1.
          4    1    1    2  501    0  0.12825099958E+02 -0.16049548580E+02  0.52218093260E+01  0.21197605789E+02  0.00000000000E+00 0. -1.
         -4    1    1    2    0  503 -0.12825099958E+02  0.16049548580E+02  0.73375689314E+01  0.21815387147E+02  0.00000000000E+00 0.  1.
<mgrwt>
<rscale>  2 0.20544371E+02</rscale>
<asrwt>0</asrwt>
<pdfrwt beam="1">  1       21 0.42747978E-02 0.20544371E+02</pdfrwt>
<pdfrwt beam="2">  1       21 0.23425857E-02 0.20544371E+02</pdfrwt>
<totfact> 0.20794338E+08</totfact>
</mgrwt>
</event>
<event>
 4    1  0.7119201E+004  0.3986585E+02  0.7546771E-02  0.1509201E+00
         21   -1    0    0  503  502  0.00000000000E+00  0.00000000000E+00  0.64493776359E+02  0.64493776359E+02  0.00000000000E+00 0.  1.
         21   -1    0    0  501  503 -0.00000000000E+00 -0.00000000000E+00 -0.25345208535E+02  0.25345208535E+02  0.00000000000E+00 0.  1.
          3    1    1    2  501    0 -0.22572410123E+02  0.32859894122E+02  0.27053944920E+02  0.48178857149E+02  0.00000000000E+00 0. -1.
         -3    1    1    2    0  502  0.22572410123E+02 -0.32859894122E+02  0.12094622904E+02  0.41660127744E+02  0.00000000000E+00 0.  1.
<mgrwt>
<rscale>  2 0.39865854E+02</rscale>
<asrwt>0</asrwt>
<pdfrwt beam="1">  1       21 0.99221194E-02 0.39865854E+02</pdfrwt>
<pdfrwt beam="2">  1       21 0.38992629E-02 0.39865854E+02</pdfrwt>
<totfact> 0.27927459E+07</totfact>
</mgrwt>
</event>
<event>
 4    1  0.7119201E+004  0.2180208E+02  0.7546771E-02  0.1711698E+00
         21   -1    0    0  503  502  0.00000000000E+00  0.00000000000E+00  0.10038243327E+03  0.10038243327E+03  0.00000000000E+00 0. -1.
         21   -1    0    0  501  503 -0.00000000000E+00 -0.00000000000E+00 -0.47521747011E+01  0.47521747011E+01  0.00000000000E+00 0. -1.
          3    1    1    2  501    0  0.10666804613E+02  0.19014465544E+02  0.50957127467E+02  0.55425260128E+02  0.00000000000E+00 0.  1.
         -3    1    1    2    0  502 -0.10666804613E+02 -0.19014465544E+02  0.44673131105E+02  0.49709347846E+02  0.00000000000E+00 0. -1.
<mgrwt>
<rscale>  2 0.21802078E+02</rscale>
<asrwt>0</asrwt>
<pdfrwt beam="1">  1       21 0.15443450E-01 0.21802078E+02</pdfrwt>
<pdfrwt beam="2">  1       21 0.73110388E-03 0.21802078E+02</pdfrwt>
<totfact> 0.15127607E+08</totfact>
</mgrwt>
</event>
<event>
 4    1  0.7119201E+004  0.2315325E+02  0.7546771E-02  0.1689038E+00
         21   -1    0    0  503  502  0.00000000000E+00  0.00000000000E+00  0.31209200399E+00  0.31209200399E+00  0.00000000000E+00 0.  1.
         21   -1    0    0  501  503 -0.00000000000E+00 -0.00000000000E+00 -0.17558296652E+04  0.17558296652E+04  0.00000000000E+00 0.  1.
          5    1    1    2  501    0  0.50552287281E+01  0.22594632546E+02 -0.74832134000E+03  0.74867943785E+03  0.00000000000E+00 0.  1.
         -5    1    1    2    0  502 -0.50552287281E+01 -0.22594632546E+02 -0.10071962332E+04  0.10074623193E+04  0.00000000000E+00 0. -1.
<mgrwt>
<rscale>  2 0.23153245E+02</rscale>
<asrwt>0</asrwt>
<pdfrwt beam="1">  1       21 0.48014222E-04 0.23153245E+02</pdfrwt>
<pdfrwt beam="2">  1       21 0.27012726E+00 0.23153245E+02</pdfrwt>
<totfact> 0.19155424E+07</totfact>
</mgrwt>
</event>
<event>
 4    1  0.7119201E+004  0.2894236E+02  0.7546771E-02  0.1610083E+00
         21   -1    0    0  501  502  0.00000000000E+00  0.00000000000E+00  0.13131001219E+04  0.13131001219E+04  0.00000000000E+00 0. -1.
         21   -1    0    0  502  503 -0.00000000000E+00 -0.00000000000E+00 -0.66714590429E+00  0.66714590429E+00  0.00000000000E+00 0. -1.
          5    1    1    2  501    0 -0.28662526745E+02 -0.40149222894E+01  0.79369068908E+03  0.79421821307E+03  0.00000000000E+00 0.  1.
         -5    1    1    2    0  503  0.28662526745E+02  0.40149222894E+01  0.51874228695E+03  0.51954905477E+03  0.00000000000E+00 0. -1.
<mgrwt>
<rscale>  2 0.28942357E+02</rscale>
<asrwt>0</asrwt>
<pdfrwt beam="1">  1       21 0.20201334E+00 0.28942357E+02</pdfrwt>
<pdfrwt beam="2">  1       21 0.10263888E-03 0.28942357E+02</pdfrwt>
<totfact> 0.14992619E+07</totfact>
</mgrwt>
</event>
<event>
 4    1  0.7119201E+004  0.3005837E+02  0.7546771E-02  0.1597444E+00
         21   -1    0    0  503  502  0.00000000000E+00  0.00000000000E+00  0.24158231750E+02  0.24158231750E+02  0.00000000000E+00 0. -1.
         21   -1    0    0  501  503 -0.00000000000E+00 -0.00000000000E+00 -0.45746259865E+02  0.45746259865E+02  0.00000000000E+00 0. -1.
          4    1    1    2  501    0  0.28445075867E+02  0.97151100660E+01  0.41358667045E+01  0.30341573758E+02  0.00000000000E+00 0.  1.
         -4    1    1    2    0  502 -0.28445075867E+02 -0.97151100660E+01 -0.25723894819E+02  0.39562917857E+02  0.00000000000E+00 0. -1.
<mgrwt>
<rscale>  2 0.30058372E+02</rscale>
<asrwt>0</asrwt>
<pdfrwt beam="1">  1       21 0.37166511E-02 0.30058372E+02</pdfrwt>
<pdfrwt beam="2">  1       21 0.70378861E-02 0.30058372E+02</pdfrwt>
<totfact> 0.50488703E+07</totfact>
</mgrwt>
</event>
<event>
 4    1  0.7119201E+004  0.2035745E+02  0.7546771E-02  0.1738312E+00
         21   -1    0    0  501  502  0.00000000000E+00  0.00000000000E+00  0.65661430312E+00  0.65661430312E+00  0.00000000000E+00 0.  1.
         21   -1    0    0  502  503 -0.00000000000E+00 -0.00000000000E+00 -0.10640521055E+04  0.10640521055E+04  0.00000000000E+00 0.  1.
          5    1    1    2  501    0  0.13001851839E+02  0.15664530712E+02 -0.87125381671E+03  0.87149161717E+03  0.00000000000E+00 0. -1.
         -5    1    1    2    0  503 -0.13001851839E+02 -0.15664530712E+02 -0.19214167452E+03  0.19321710266E+03  0.00000000000E+00 0.  1.
<mgrwt>
<rscale>  2 0.20357448E+02</rscale>
<asrwt>0</asrwt>
<pdfrwt beam="1">  1       21 0.10101709E-03 0.20357448E+02</pdfrwt>
<pdfrwt beam="2">  1       21 0.16370113E+00 0.20357448E+02</pdfrwt>
<totfact> 0.24713642E+07</totfact>
</mgrwt>
</event>
<event>
 4    1  0.7119201E+004  0.2272430E+02  0.7546771E-02  0.1696018E+00
         21   -1    0    0  501  502  0.00000000000E+00  0.00000000000E+00  0.53921409015E+02  0.53921409015E+02  0.00000000000E+00 0. -1.
         21   -1    0    0  502  503 -0.00000000000E+00 -0.00000000000E+00 -0.10003677802E+02  0.10003677802E+02  0.00000000000E+00 0. -1.
          4    1    1    2  501    0 -0.18825648827E+02  0.12727480786E+02  0.15356187183E+02  0.27426379741E+02  0.00000000000E+00 0.  1.
         -4    1    1    2    0  503  0.18825648827E+02 -0.12727480786E+02  0.28561544029E+02  0.36498707076E+02  0.00000000000E+00 0. -1.
<mgrwt>
<rscale>  2 0.22724300E+02</rscale>
<asrwt>0</asrwt>
<pdfrwt beam="1">  1       21 0.82956012E-02 0.22724300E+02</pdfrwt>
<pdfrwt beam="2">  1       21 0.15390274E-02 0.22724300E+02</pdfrwt>
<totfact> 0.14095299E+08</totfact>
</mgrwt>
</event>
<event>
 4    1  0.7119201E+004  0.3642430E+02  0.7546771E-02  0.1536304E+00
         21   -1    0    0  501  502  0.00000000000E+00  0.00000000000E+00  0.39796126870E+01  0.39796126870E+01  0.00000000000E+00 0. -1.
         21   -1    0    0  502  503 -0.00000000000E+00 -0.00000000000E+00 -0.37807028964E+03  0.37807028964E+03  0.00000000000E+00 0. -1.
          2    1    1    2  501    0  0.20771792103E+02  0.29920932840E+02 -0.25272073826E+03  0.25533213882E+03  0.00000000000E+00 0.  1.
         -2    1    1    2    0  503 -0.20771792103E+02 -0.29920932840E+02 -0.12136993869E+03  0.12671776350E+03  0.00000000000E+00 0. -1.
<mgrwt>
<rscale>  2 0.36424299E+02</rscale>
<asrwt>0</asrwt>
<pdfrwt beam="1">  1       21 0.61224836E-03 0.36424299E+02</pdfrwt>
<pdfrwt beam="2">  1       21 0.58164636E-01 0.36424299E+02</pdfrwt>
<totfact> 0.19170744E+07</totfact>
</mgrwt>
</event>
<event>
 4    1  0.7119201E+004  0.2358375E+02  0.7546771E-02  0.1682219E+00
         21   -1    0    0  503  502  0.00000000000E+00  0.00000000000E+00  0.56199404481E+02  0.56199404481E+02  0.00000000000E+00 0. -1.
         21   -1    0    0  501  503 -0.00000000000E+00 -0.00000000000E+00 -0.11187206904E+02  0.11187206904E+02  0.00000000000E+00 0. -1.
          4    1    1    2  501    0 -0.17381585667E+02  0.15939697483E+02  0.11062872346E+02  0.26049580048E+02  0.00000000000E+00 0. -1.
         -4    1    1    2    0  502  0.17381585667E+02 -0.15939697483E+02  0.33949325231E+02  0.41337031337E+02  0.00000000000E+00 0.  1.
<mgrwt>
<rscale>  2 0.23583754E+02</rscale>
<asrwt>0</asrwt>
<pdfrwt beam="1">  1       21 0.86460621E-02 0.23583754E+02</pdfrwt>
<pdfrwt beam="2">  1       21 0.17211088E-02 0.23583754E+02</pdfrwt>
<totfact> 0.11229709E+08</totfact>
</mgrwt>
</event>
<event>
 4    1  0.7119201E+004  0.2822999E+02  0.7546771E-02  0.1618520E+00
         21   -1    0    0  501  502  0.00000000000E+00  0.00000000000E+00  0.11136380678E+02  0.11136380678E+02  0.00000000000E+00 0. -1.
         21   -1    0    0  502  503 -0.00000000000E+00 -0.00000000000E+00 -0.73371534501E+02  0.73371534501E+02  0.00000000000E+00 0. -1.
          3    1    1    2  501    0  0.25801244002E+02  0.11455483911E+02 -0.24480330009E+02  0.37366012111E+02  0.00000000000E+00 0.  1.
         -3    1    1    2    0  503 -0.25801244002E+02 -0.11455483911E+02 -0.37754823814E+02  0.47141903068E+02  0.00000000000E+00 0. -1.
<mgrwt>
<rscale>  2 0.28229989E+02</rscale>
<asrwt>0</asrwt>
<pdfrwt beam="1">  1       21 0.17132894E-02 0.28229989E+02</pdfrwt>
<pdfrwt beam="2">  1       21 0.11287928E-01 0.28229989E+02</pdfrwt>
<totfact> 0.76132418E+07</totfact>
</mgrwt>
</event>
<event>
 4    1  0.7119201E+004  0.2732108E+02  0.7546771E-02  0.1629740E+00
         21   -1    0    0  501  502  0.00000000000E+00  0.00000000000E+00  0.63691835748E+00  0.63691835748E+00  0.00000000000E+00 0.  1.
         21   -1    0    0  502  503 -0.00000000000E+00 -0.00000000000E+00 -0.11727621412E+04  0.11727621412E+04  0.00000000000E+00 0.  1.
          4    1    1    2  501    0  0.14822776344E+02 -0.22950524008E+02 -0.60143034596E+03  0.60205058117E+03  0.00000000000E+00 0.  1.
         -4    1    1    2    0  503 -0.14822776344E+02  0.22950524008E+02 -0.57069487686E+03  0.57134847836E+03  0.00000000000E+00 0. -1.
<mgrwt>
<rscale>  2 0.27321077E+02</rscale>
<asrwt>0</asrwt>
<pdfrwt beam="1">  1       21 0.97988353E-04 0.27321077E+02</pdfrwt>
<pdfrwt beam="2">  1       21 0.18042326E+00 0.27321077E+02</pdfrwt>
<totfact> 0.21293594E+07</totfact>
</mgrwt>
</event>
<event>
 4    1  0.7119201E+004  0.5256648E+02  0.7546771E-02  0.1431971E+00
         21   -1    0    0  501  502  0.00000000000E+00  0.00000000000E+00  0.48466241093E+02  0.48466241093E+02  0.00000000000E+00 0.  1.
         21   -1    0    0  502  503 -0.00000000000E+00 -0.00000000000E+00 -0.58373368114E+02  0.58373368114E+02  0.00000000000E+00 0.  1.
          2    1    1    2  501    0 -0.52148854773E+02 -0.66130152925E+01 -0.13106740627E+02  0.54175840328E+02  0.00000000000E+00 0.  1.
         -2    1    1    2    0  503  0.52148854773E+02  0.66130152925E+01  0.31996136063E+01  0.52663768880E+02  0.00000000000E+00 0. -1.
<mgrwt>
<rscale>  2 0.52566482E+02</rscale>
<asrwt>0</asrwt>
<pdfrwt beam="1">  1       21 0.74563447E-02 0.52566482E+02</pdfrwt>
<pdfrwt beam="2">  1       21 0.89805182E-02 0.52566482E+02</pdfrwt>
<totfact> 0.11901928E+07</totfact>
</mgrwt>
</event>
<event>
 4    1  0.7119201E+004  0.3345098E+02  0.7546771E-02  0.1562803E+00
         21   -1    0    0  501  502  0.00000000000E+00  0.00000000000E+00  0.17272844837E+02  0.17272844837E+02  0.00000000000E+00 0.  1.
         21   -1    0    0  502  503 -0.00000000000E+00 -0.00000000000E+00 -0.13367100142E+03  0.13367100142E+03  0.00000000000E+00 0.  1.
          1    1    1    2  501    0 -0.80293963997E+01  0.32473020931E+02 -0.11237944852E+03  0.11725232938E+03  0.00000000000E+00 0.  1.
         -1    1    1    2    0  503  0.80293963997E+01 -0.32473020931E+02 -0.40187080599E+01  0.33691516876E+02  0.00000000000E+00 0. -1.
<mgrwt>
<rscale>  2 0.33450983E+02</rscale>
<asrwt>0</asrwt>
<pdfrwt beam="1">  1       21 0.26573609E-02 0.33450983E+02</pdfrwt>
<pdfrwt beam="2">  1       21 0.20564769E-01 0.33450983E+02</pdfrwt>
<totfact> 0.14142501E+07</totfact>
</mgrwt>
</event>
<event>
 4    1  0.7119201E+004  0.2068917E+02  0.7546771E-02  0.1731960E+00
         21   -1    0    0  501  502  0.00000000000E+00  0.00000000000E+00  0.49876752152E+02  0.49876752152E+02  0.00000000000E+00 0.  1.
         21   -1    0    0  502  503 -0.00000000000E+00 -0.00000000000E+00 -0.86145238664E+01  0.86145238664E+01  0.00000000000E+00 0.  1.
          1    1    1    2  501    0  0.15726304268E+02  0.13443399833E+02  0.22428463352E+02  0.30513564415E+02  0.00000000000E+00 0.  1.
         -1    1    1    2    0  503 -0.15726304268E+02 -0.13443399833E+02  0.18833764934E+02  0.27977711603E+02  0.00000000000E+00 0. -1.
<mgrwt>
<rscale>  2 0.20689167E+02</rscale>
<asrwt>0</asrwt>
<pdfrwt beam="1">  1       21 0.76733463E-02 0.20689167E+02</pdfrwt>
<pdfrwt beam="2">  1       21 0.13253114E-02 0.20689167E+02</pdfrwt>
<totfact> 0.19494885E+08</totfact>
</mgrwt>
</event>
<event>
 4    1  0.7119201E+004  0.2289054E+02  0.7546771E-02  0.1693291E+00
         21   -1    0    0  501  502  0.00000000000E+00  0.00000000000E+00  0.31260326518E+03  0.31260326518E+03  0.00000000000E+00 0.  1.
         21   -1    0    0  502  503 -0.00000000000E+00 -0.00000000000E+00 -0.17337030800E+01  0.17337030800E+01  0.00000000000E+00 0.  1.
          5    1    1    2  501    0 -0.21807959948E+02  0.69562823170E+01  0.18406519785E+03  0.18548308289E+03  0.00000000000E+00 0.  1.
         -5    1    1    2    0  503  0.21807959948E+02 -0.69562823170E+01  0.12680436425E+03  0.12885388537E+03  0.00000000000E+00 0. -1.
<mgrwt>
<rscale>  2 0.22890543E+02</rscale>
<asrwt>0</asrwt>
<pdfrwt beam="1">  1       21 0.48092765E-01 0.22890543E+02</pdfrwt>
<pdfrwt beam="2">  1       21 0.26672380E-03 0.22890543E+02</pdfrwt>
<totfact> 0.86919939E+07</totfact>
</mgrwt>
</event>
<event>
 4    1  0.7119201E+004  0.3145661E+02  0.7546771E-02  0.1582524E+00
         21   -1    0    0  503  502  0.00000000000E+00  0.00000000000E+00  0.20806022497E+03  0.20806022497E+03  0.00000000000E+00 0. -1.
         21   -1    0    0  501  503 -0.00000000000E+00 -0.00000000000E+00 -0.50957349182E+01  0.50957349182E+01  0.00000000000E+00 0. -1.
          3    1    1    2  501    0 -0.28464444892E+02  0.13390066177E+02  0.12900444272E+03  0.13278427895E+03  0.00000000000E+00 0. -1.
         -3    1    1    2    0  502  0.28464444892E+02 -0.13390066177E+02  0.73960047332E+02  0.80371680936E+02  0.00000000000E+00 0.  1.
<mgrwt>
<rscale>  2 0.31456613E+02</rscale>
<asrwt>0</asrwt>
<pdfrwt beam="1">  1       21 0.32009259E-01 0.31456613E+02</pdfrwt>
<pdfrwt beam="2">  1       21 0.78395938E-03 0.31456613E+02</pdfrwt>
<totfact> 0.40935366E+07</totfact>
</mgrwt>
</event>
<event>
 4    1  0.7119201E+004  0.2666087E+02  0.7546771E-02  0.1638232E+00
         21   -1    0    0  501  502  0.00000000000E+00  0.00000000000E+00  0.81965289216E+03  0.81965289216E+03  0.00000000000E+00 0.  1.
         21   -1    0    0  502  503 -0.00000000000E+00 -0.00000000000E+00 -0.91328271586E+00  0.91328271586E+00  0.00000000000E+00 0.  1.
          4    1    1    2  501    0 -0.18349039438E+02 -0.19342051849E+02  0.50153234903E+03  0.50224047959E+03  0.00000000000E+00 0.  1.
         -4    1    1    2    0  503  0.18349039438E+02  0.19342051849E+02  0.31720726041E+03  0.31832569528E+03  0.00000000000E+00 0. -1.
<mgrwt>
<rscale>  2 0.26660874E+02</rscale>
<asrwt>0</asrwt>
<pdfrwt beam="1">  1       21 0.12609986E+00 0.26660874E+02</pdfrwt>
<pdfrwt beam="2">  1       21 0.14050569E-03 0.26660874E+02</pdfrwt>
<totfact> 0.29906729E+07</totfact>
</mgrwt>
</event>
<event>
 4    1  0.7119201E+004  0.2223726E+02  0.7546771E-02  0.1704181E+00
         21   -1    0    0  501  502  0.00000000000E+00  0.00000000000E+00  0.59621225900E+01  0.59621225900E+01  0.00000000000E+00 0. -1.
         21   -1    0    0  502  503 -0.00000000000E+00 -0.00000000000E+00 -0.82949404539E+02  0.82949404539E+02  0.00000000000E+00 0. -1.
          2    1    1    2  501    0  0.21735968836E+02  0.46950548781E+01 -0.38977709913E+02  0.44874912274E+02  0.00000000000E+00 0. -1.
         -2    1    1    2    0  503 -0.21735968836E+02 -0.46950548781E+01 -0.38009572035E+02  0.44036614855E+02  0.00000000000E+00 0.  1.
<mgrwt>
<rscale>  2 0.22237263E+02</rscale>
<asrwt>0</asrwt>
<pdfrwt beam="1">  1       21 0.91724964E-03 0.22237263E+02</pdfrwt>
<pdfrwt beam="2">  1       21 0.12761447E-01 0.22237263E+02</pdfrwt>
<totfact> 0.14979570E+08</totfact>
</mgrwt>
</event>
<event>
 4    1  0.7119201E+004  0.2322809E+02  0.7546771E-02  0.1687839E+00
         21   -1    0    0  501  502  0.00000000000E+00  0.00000000000E+00  0.10450037722E+02  0.10450037722E+02  0.00000000000E+00 0.  1.
         21   -1    0    0  502  503 -0.00000000000E+00 -0.00000000000E+00 -0.63268027740E+02  0.63268027740E+02  0.00000000000E+00 0.  1.
          2    1    1    2  501    0  0.14588394560E+02  0.18075476724E+02 -0.42216961422E+02  0.48185225395E+02  0.00000000000E+00 0.  1.
         -2    1    1    2    0  503 -0.14588394560E+02 -0.18075476724E+02 -0.10601028597E+02  0.25532840068E+02  0.00000000000E+00 0. -1.
<mgrwt>
<rscale>  2 0.23228089E+02</rscale>
<asrwt>0</asrwt>
<pdfrwt beam="1">  1       21 0.16076981E-02 0.23228089E+02</pdfrwt>
<pdfrwt beam="2">  1       21 0.97335429E-02 0.23228089E+02</pdfrwt>
<totfact> 0.10207885E+08</totfact>
</mgrwt>
</event>
<event>
 4    1  0.7119201E+004  0.6075615E+02  0.7546771E-02  0.1394686E+00
         21   -1    0    0  503  502  0.00000000000E+00  0.00000000000E+00  0.32158338343E+02  0.32158338343E+02  0.00000000000E+00 0.  1.
         21   -1    0    0  501  503 -0.00000000000E+00 -0.00000000000E+00 -0.11673844785E+03  0.11673844785E+03  0.00000000000E+00 0.  1.
          3    1    1    2  501    0 -0.60139913072E+02 -0.86313866658E+01 -0.32660703410E+02  0.68978485974E+02  0.00000000000E+00 0.  1.
         -3    1    1    2    0  502  0.60139913072E+02  0.86313866658E+01 -0.51919406095E+02  0.79918300215E+02  0.00000000000E+00 0. -1.
<mgrwt>
<rscale>  2 0.60756152E+02</rscale>
<asrwt>0</asrwt>
<pdfrwt beam="1">  1       21 0.49474368E-02 0.60756152E+02</pdfrwt>
<pdfrwt beam="2">  1       21 0.17959761E-01 0.60756152E+02</pdfrwt>
<totfact> 0.71531799E+06</totfact>
</mgrwt>
</event>
<event>
 4    1  0.7119201E+004  0.3111061E+02  0.7546771E-02  0.1586127E+00
         21   -1    0    0  501  502  0.00000000000E+00  0.00000000000E+00  0.67372142223E+02  0.67372142223E+02  0.00000000000E+00 0. -1.
         21   -1    0    0  502  503 -0.00000000000E+00 -0.00000000000E+00 -0.15222423108E+02  0.15222423108E+02  0.00000000000E+00 0. -1.
          5    1    1    2  501    0 -0.32961589169E+01 -0.30935505081E+02  0.35870130595E+02  0.47481958754E+02  0.00000000000E+00 0. -1.
         -5    1    1    2    0  503  0.32961589169E+01  0.30935505081E+02  0.16279588520E+02  0.35112606577E+02  0.00000000000E+00 0.  1.
<mgrwt>
<rscale>  2 0.31110611E+02</rscale>
<asrwt>0</asrwt>
<pdfrwt beam="1">  1       21 0.10364945E-01 0.31110611E+02</pdfrwt>
<pdfrwt beam="2">  1       21 0.23419113E-02 0.31110611E+02</pdfrwt>
<totfact> 0.55379341E+07</totfact>
</mgrwt>
</event>
<event>
 4    1  0.7119201E+004  0.2043469E+02  0.7546771E-02  0.1736819E+00
         21   -1    0    0  501  502  0.00000000000E+00  0.00000000000E+00  0.64472873172E+01  0.64472873172E+01  0.00000000000E+00 0. -1.
         21   -1    0    0  502  503 -0.00000000000E+00 -0.00000000000E+00 -0.64946678025E+02  0.64946678025E+02  0.00000000000E+00 0. -1.
          5    1    1    2  501    0  0.20248865279E+02  0.27495302298E+01 -0.31123224769E+02  0.37232131037E+02  0.00000000000E+00 0.  1.
         -5    1    1    2    0  503 -0.20248865279E+02 -0.27495302298E+01 -0.27376165939E+02  0.34161834305E+02  0.00000000000E+00 0. -1.
<mgrwt>
<rscale>  2 0.20434688E+02</rscale>
<asrwt>0</asrwt>
<pdfrwt beam="1">  1       21 0.99189040E-03 0.20434688E+02</pdfrwt>
<pdfrwt beam="2">  1       21 0.99917962E-02 0.20434688E+02</pdfrwt>
<totfact> 0.19497563E+08</totfact>
</mgrwt>
</event>
<event>
 4    1  0.7119201E+004  0.2527623E+02  0.7546771E-02  0.1657066E+00
         21   -1    0    0  501  502  0.00000000000E+00  0.00000000000E+00  0.14963051127E+03  0.14963051127E+03  0.00000000000E+00 0. -1.
         21   -1    0    0  502  503 -0.00000000000E+00 -0.00000000000E+00 -0.47028470753E+01  0.47028470753E+01  0.00000000000E+00 0. -1.
          2    1    1    2  501    0  0.23563764022E+02  0.91453303008E+01  0.49046824316E+02  0.55176797811E+02  0.00000000000E+00 0. -1.
         -2    1    1    2    0  503 -0.23563764022E+02 -0.91453303008E+01  0.95880839878E+02  0.99156560534E+02  0.00000000000E+00 0.  1.
<mgrwt>
<rscale>  2 0.25276235E+02</rscale>
<asrwt>0</asrwt>
<pdfrwt beam="1">  1       21 0.23020075E-01 0.25276235E+02</pdfrwt>
<pdfrwt beam="2">  1       21 0.72351505E-03 0.25276235E+02</pdfrwt>
<totfact> 0.79983692E+07</totfact>
</mgrwt>
</event>
<event>
 4    1  0.7119201E+004  0.2209154E+02  0.7546771E-02  0.1706674E+00
         21   -1    0    0  503  502  0.00000000000E+00  0.00000000000E+00  0.70038840447E+01  0.70038840447E+01  0.00000000000E+00 0. -1.
         21   -1    0    0  501  503 -0.00000000000E+00 -0.00000000000E+00 -0.70767962694E+02  0.70767962694E+02  0.00000000000E+00 0. -1.
          3    1    1    2  501    0 -0.21117462149E+02 -0.64875950033E+01 -0.27062278070E+02  0.34934266715E+02  0.00000000000E+00 0.  1.
         -3    1    1    2    0  502  0.21117462149E+02  0.64875950033E+01 -0.36701800579E+02  0.42837580024E+02  0.00000000000E+00 0. -1.
<mgrwt>
<rscale>  2 0.22091539E+02</rscale>
<asrwt>0</asrwt>
<pdfrwt beam="1">  1       21 0.10775207E-02 0.22091539E+02</pdfrwt>
<pdfrwt beam="2">  1       21 0.10887378E-01 0.22091539E+02</pdfrwt>
<totfact> 0.15308213E+08</totfact>
</mgrwt>
</event>
<event>
 4    1  0.7119201E+004  0.2153046E+02  0.7546771E-02  0.1716501E+00
         21   -1    0    0  501  502  0.00000000000E+00  0.00000000000E+00  0.99858792216E+00  0.99858792216E+00  0.00000000000E+00 0.  1.
         21   -1    0    0  502  503 -0.00000000000E+00 -0.00000000000E+00 -0.46456930387E+03  0.46456930387E+03  0.00000000000E+00 0.  1.
          3    1    1    2  501    0 -0.14504767532E+02  0.15911393045E+02 -0.22536783854E+03  0.22639395610E+03  0.00000000000E+00 0.  1.
         -3    1    1    2    0  503  0.14504767532E+02 -0.15911393045E+02 -0.23820287741E+03  0.23917393570E+03  0.00000000000E+00 0. -1.
<mgrwt>
<rscale>  2 0.21530460E+02</rscale>
<asrwt>0</asrwt>
<pdfrwt beam="1">  1       21 0.15362935E-03 0.21530460E+02</pdfrwt>
<pdfrwt beam="2">  1       21 0.71471996E-01 0.21530460E+02</pdfrwt>
<totfact> 0.86231167E+07</totfact>
</mgrwt>
</event>
<event>
 4    1  0.7119201E+004  0.2984960E+02  0.7546771E-02  0.1599757E+00
         21   -1    0    0  503  502  0.00000000000E+00  0.00000000000E+00  0.49938730418E+01  0.49938730418E+01  0.00000000000E+00 0.  1.
         21   -1    0    0  501  503 -0.00000000000E+00 -0.00000000000E+00 -0.18479188788E+03  0.18479188788E+03  0.00000000000E+00 0.  1.
          2    1    1    2  501    0 -0.21871884217E+02  0.20313028392E+02 -0.10752215444E+03  0.11158858426E+03  0.00000000000E+00 0.  1.
         -2    1    1    2    0  502  0.21871884217E+02 -0.20313028392E+02 -0.72275860402E+02  0.78197176666E+02  0.00000000000E+00 0. -1.
<mgrwt>
<rscale>  2 0.29849597E+02</rscale>
<asrwt>0</asrwt>
<pdfrwt beam="1">  1       21 0.76828805E-03 0.29849597E+02</pdfrwt>
<pdfrwt beam="2">  1       21 0.28429525E-01 0.29849597E+02</pdfrwt>
<totfact> 0.51950333E+07</totfact>
</mgrwt>
</event>
<event>
 4    1  0.7119201E+004  0.2402287E+02  0.7546771E-02  0.1675447E+00
         21   -1    0    0  501  502  0.00000000000E+00  0.00000000000E+00  0.29757996594E+03  0.29757996594E+03  0.00000000000E+00 0.  1.
         21   -1    0    0  502  503 -0.00000000000E+00 -0.00000000000E+00 -0.20863100896E+01  0.20863100896E+01  0.00000000000E+00 0.  1.
          2    1    1    2  501    0 -0.23428542053E+02 -0.53105160638E+01  0.10797409927E+03  0.11061421372E+03  0.00000000000E+00 0.  1.
         -2    1    1    2    0  503  0.23428542053E+02  0.53105160638E+01  0.18751955658E+03  0.18905206231E+03  0.00000000000E+00 0. -1.
<mgrwt>
<rscale>  2 0.24022868E+02</rscale>
<asrwt>0</asrwt>
<pdfrwt beam="1">  1       21 0.45781500E-01 0.24022868E+02</pdfrwt>
<pdfrwt beam="2">  1       21 0.32097102E-03 0.24022868E+02</pdfrwt>
<totfact> 0.73868480E+07</totfact>
</mgrwt>
</event>
<event>
 4    1  0.7119201E+004  0.2082253E+02  0.7546771E-02  0.1729449E+00
         21   -1    0    0  501  502  0.00000000000E+00  0.00000000000E+00  0.14516956564E+02  0.14516956564E+02  0.00000000000E+00 0.  1.
         21   -1    0    0  502  503 -0.00000000000E+00 -0.00000000000E+00 -0.33463838925E+02  0.33463838925E+02  0.00000000000E+00 0.  1.
          5    1    1    2  501    0  0.70539742016E+01  0.19591301424E+02 -0.16082134348E+01  0.20884539592E+02  0.00000000000E+00 0.  1.
         -5    1    1    2    0  503 -0.70539742016E+01 -0.19591301424E+02 -0.17338668925E+02  0.27096255897E+02  0.00000000000E+00 0. -1.
<mgrwt>
<rscale>  2 0.20822527E+02</rscale>
<asrwt>0</asrwt>
<pdfrwt beam="1">  1       21 0.22333779E-02 0.20822527E+02</pdfrwt>
<pdfrwt beam="2">  1       21 0.51482829E-02 0.20822527E+02</pdfrwt>
<totfact> 0.16750309E+08</totfact>
</mgrwt>
</event>
<event>
 4    1  0.7119201E+004  0.3140619E+02  0.7546771E-02  0.1583046E+00
         21   -1    0    0  503  502  0.00000000000E+00  0.00000000000E+00  0.14874791493E+04  0.14874791493E+04  0.00000000000E+00 0.  1.
         21   -1    0    0  501  503 -0.00000000000E+00 -0.00000000000E+00 -0.66476675028E+00  0.66476675028E+00  0.00000000000E+00 0.  1.
          4    1    1    2  501    0 -0.28889336424E+02  0.12318900610E+02  0.70616191237E+03  0.70685995470E+03  0.00000000000E+00 0. -1.
         -4    1    1    2    0  502  0.28889336424E+02 -0.12318900610E+02  0.78065247020E+03  0.78128396138E+03  0.00000000000E+00 0.  1.
<mgrwt>
<rscale>  2 0.31406195E+02</rscale>
<asrwt>0</asrwt>
<pdfrwt beam="1">  1       21 0.22884028E+00 0.31406195E+02</pdfrwt>
<pdfrwt beam="2">  1       21 0.10227300E-03 0.31406195E+02</pdfrwt>
<totfact> 0.10824236E+07</totfact>
</mgrwt>
</event>
<event>
 4    1  0.7119201E+004  0.2304382E+02  0.7546771E-02  0.1690801E+00
         21   -1    0    0  503  502  0.00000000000E+00  0.00000000000E+00  0.28035500086E+03  0.28035500086E+03  0.00000000000E+00 0.  1.
         21   -1    0    0  501  503 -0.00000000000E+00 -0.00000000000E+00 -0.19750042568E+01  0.19750042568E+01  0.00000000000E+00 0.  1.
          3    1    1    2  501    0  0.44074016563E+00  0.23039607594E+02  0.16776287414E+03  0.16933812244E+03  0.00000000000E+00 0. -1.
         -3    1    1    2    0  502 -0.44074016563E+00 -0.23039607594E+02  0.11061712246E+03  0.11299188268E+03  0.00000000000E+00 0.  1.
<mgrwt>
<rscale>  2 0.23043823E+02</rscale>
<asrwt>0</asrwt>
<pdfrwt beam="1">  1       21 0.43131507E-01 0.23043823E+02</pdfrwt>
<pdfrwt beam="2">  1       21 0.30384703E-03 0.23043823E+02</pdfrwt>
<totfact> 0.88755565E+07</totfact>
</mgrwt>
</event>
<event>
 4    1  0.7119201E+004  0.4091367E+02  0.7546771E-02  0.1501593E+00
         21   -1    0    0  503  502  0.00000000000E+00  0.00000000000E+00  0.29139765477E+01  0.29139765477E+01  0.00000000000E+00 0. -1.
         21   -1    0    0  501  503 -0.00000000000E+00 -0.00000000000E+00 -0.79078718876E+03  0.79078718876E+03  0.00000000000E+00 0. -1.
          5    1    1    2  501    0  0.40909042005E+02  0.61527062055E+00 -0.18636654496E+03  0.19080465759E+03  0.00000000000E+00 0.  1.
         -5    1    1    2    0  502 -0.40909042005E+02 -0.61527062055E+00 -0.60150666724E+03  0.60289650772E+03  0.00000000000E+00 0. -1.
<mgrwt>
<rscale>  2 0.40913669E+02</rscale>
<asrwt>0</asrwt>
<pdfrwt beam="1">  1       21 0.44830384E-03 0.40913669E+02</pdfrwt>
<pdfrwt beam="2">  1       21 0.12165963E+00 0.40913669E+02</pdfrwt>
<totfact> 0.62595967E+06</totfact>
</mgrwt>
</event>
<event>
 4    1  0.7119201E+004  0.2060139E+02  0.7546771E-02  0.1733626E+00
         21   -1    0    0  501  502  0.00000000000E+00  0.00000000000E+00  0.17710622435E+01  0.17710622435E+01  0.00000000000E+00 0. -1.
         21   -1    0    0  502  503 -0.00000000000E+00 -0.00000000000E+00 -0.24873573217E+03  0.24873573217E+03  0.00000000000E+00 0. -1.
          4    1    1    2  501    0  0.19894667911E+02 -0.53497262796E+01 -0.99530494020E+02  0.10164023132E+03  0.00000000000E+00 0.  1.
         -4    1    1    2    0  503 -0.19894667911E+02  0.53497262796E+01 -0.14743417590E+03  0.14886656309E+03  0.00000000000E+00 0. -1.
<mgrwt>
<rscale>  2 0.20601393E+02</rscale>
<asrwt>0</asrwt>
<pdfrwt beam="1">  1       21 0.27247135E-03 0.20601393E+02</pdfrwt>
<pdfrwt beam="2">  1       21 0.38267002E-01 0.20601393E+02</pdfrwt>
<totfact> 0.12639109E+08</totfact>
</mgrwt>
</event>
<event>
 4    1  0.7119201E+004  0.2527458E+02  0.7546771E-02  0.1657089E+00
         21   -1    0    0  501  502  0.00000000000E+00  0.00000000000E+00  0.11444778358E+01  0.11444778358E+01  0.00000000000E+00 0. -1.
         21   -1    0    0  502  503 -0.00000000000E+00 -0.00000000000E+00 -0.56252954759E+03  0.56252954759E+03  0.00000000000E+00 0. -1.
          4    1    1    2  501    0 -0.11089004994E+02  0.22712077763E+02 -0.25585984598E+03  0.25710516388E+03  0.00000000000E+00 0. -1.
         -4    1    1    2    0  503  0.11089004994E+02 -0.22712077763E+02 -0.30552522377E+03  0.30656886155E+03  0.00000000000E+00 0.  1.
<mgrwt>
<rscale>  2 0.25274582E+02</rscale>
<asrwt>0</asrwt>
<pdfrwt beam="1">  1       21 0.17607342E-03 0.25274582E+02</pdfrwt>
<pdfrwt beam="2">  1       21 0.86543055E-01 0.25274582E+02</pdfrwt>
<totfact> 0.49283728E+07</totfact>
</mgrwt>
</event>
<event>
 4    1  0.7119201E+004  0.3281209E+02  0.7546771E-02  0.1568935E+00
         21   -1    0    0  503  502  0.00000000000E+00  0.00000000000E+00  0.24723463027E+03  0.24723463027E+03  0.00000000000E+00 0. -1.
         21   -1    0    0  501  503 -0.00000000000E+00 -0.00000000000E+00 -0.59168209717E+01  0.59168209717E+01  0.00000000000E+00 0. -1.
          1    1    1    2  501    0  0.11080725742E+02 -0.30884473843E+02  0.18569631290E+03  0.18857294035E+03  0.00000000000E+00 0.  1.
         -1    1    1    2    0  502 -0.11080725742E+02  0.30884473843E+02  0.55621496405E+02  0.64578510898E+02  0.00000000000E+00 0. -1.
<mgrwt>
<rscale>  2 0.32812089E+02</rscale>
<asrwt>0</asrwt>
<pdfrwt beam="1">  1       21 0.38036089E-01 0.32812089E+02</pdfrwt>
<pdfrwt beam="2">  1       21 0.91028034E-03 0.32812089E+02</pdfrwt>
<totfact> 0.23810126E+07</totfact>
</mgrwt>
</event>
<event>
 4    1  0.7119201E+004  0.2467679E+02  0.7546771E-02  0.1665688E+00
         21   -1    0    0  501  502  0.00000000000E+00  0.00000000000E+00  0.13590775493E+02  0.13590775493E+02  0.00000000000E+00 0.  1.
         21   -1    0    0  502  503 -0.00000000000E+00 -0.00000000000E+00 -0.48163617412E+02  0.48163617412E+02  0.00000000000E+00 0.  1.
          2    1    1    2  501    0 -0.50583699305E+00 -0.24671601214E+02 -0.25439382106E+02  0.35441584889E+02  0.00000000000E+00 0. -1.
         -2    1    1    2    0  503  0.50583699305E+00  0.24671601214E+02 -0.91334598136E+01  0.26312808016E+02  0.00000000000E+00 0.  1.
<mgrwt>
<rscale>  2 0.24676786E+02</rscale>
<asrwt>0</asrwt>
<pdfrwt beam="1">  1       21 0.20908886E-02 0.24676786E+02</pdfrwt>
<pdfrwt beam="2">  1       21 0.74097872E-02 0.24676786E+02</pdfrwt>
<totfact> 0.10859840E+08</totfact>
</mgrwt>
</event>
<event>
 4    1  0.7119201E+004  0.2144435E+02  0.7546771E-02  0.1718043E+00
         21   -1    0    0  501  502  0.00000000000E+00  0.00000000000E+00  0.19814582993E+01  0.19814582993E+01  0.00000000000E+00 0. -1.
         21   -1    0    0  502  503 -0.00000000000E+00 -0.00000000000E+00 -0.33091449235E+03  0.33091449235E+03  0.00000000000E+00 0. -1.
          1    1    1    2  501    0 -0.13265441459E+02  0.16848984316E+02 -0.25543085373E+03  0.25632943890E+03  0.00000000000E+00 0.  1.
         -1    1    1    2    0  503  0.13265441459E+02 -0.16848984316E+02 -0.73502180323E+02  0.76566511752E+02  0.00000000000E+00 0. -1.
<mgrwt>
<rscale>  2 0.21444351E+02</rscale>
<asrwt>0</asrwt>
<pdfrwt beam="1">  1       21 0.30483956E-03 0.21444351E+02</pdfrwt>
<pdfrwt beam="2">  1       21 0.50909951E-01 0.21444351E+02</pdfrwt>
<totfact> 0.63056986E+07</totfact>
</mgrwt>
</event>
<event>
 4    1  0.7119201E+004  0.3220560E+02  0.7546771E-02  0.1574915E+00
         21   -1    0    0  501  502  0.00000000000E+00  0.00000000000E+00  0.23436928881E+03  0.23436928881E+03  0.00000000000E+00 0.  1.
         21   -1    0    0  502  503 -0.00000000000E+00 -0.00000000000E+00 -0.44334541628E+01  0.44334541628E+01  0.00000000000E+00 0.  1.
          1    1    1    2  501    0 -0.25115399122E+02 -0.20159799050E+02  0.10990972152E+03  0.11453098993E+03  0.00000000000E+00 0.  1.
         -1    1    1    2    0  503  0.25115399122E+02  0.20159799050E+02  0.12002611313E+03  0.12427175304E+03  0.00000000000E+00 0. -1.
<mgrwt>
<rscale>  2 0.32205602E+02</rscale>
<asrwt>0</asrwt>
<pdfrwt beam="1">  1       21 0.36056804E-01 0.32205602E+02</pdfrwt>
<pdfrwt beam="2">  1       21 0.68207005E-03 0.32205602E+02</pdfrwt>
<totfact> 0.40585753E+07</totfact>
</mgrwt>
</event>
<event>
 4    1  0.7119201E+004  0.2114964E+02  0.7546771E-02  0.1723387E+00
         21   -1    0    0  503  502  0.00000000000E+00  0.00000000000E+00  0.32034094632E+03  0.32034094632E+03  0.00000000000E+00 0.  1.
         21   -1    0    0  501  503 -0.00000000000E+00 -0.00000000000E+00 -0.13982154288E+01  0.13982154288E+01  0.00000000000E+00 0.  1.
          5    1    1    2  501    0  0.20263061690E+02 -0.60593332306E+01  0.16535167472E+03  0.16669878080E+03  0.00000000000E+00 0. -1.
         -5    1    1    2    0  502 -0.20263061690E+02  0.60593332306E+01  0.15359105617E+03  0.15504038095E+03  0.00000000000E+00 0.  1.
<mgrwt>
<rscale>  2 0.21149638E+02</rscale>
<asrwt>0</asrwt>
<pdfrwt beam="1">  1       21 0.49283164E-01 0.21149638E+02</pdfrwt>
<pdfrwt beam="2">  1       21 0.21511032E-03 0.21149638E+02</pdfrwt>
<totfact> 0.11085476E+08</totfact>
</mgrwt>
</event>
<event>
 4    1  0.7119201E+004  0.3253149E+02  0.7546771E-02  0.1571682E+00
         21   -1    0    0  503  502  0.00000000000E+00  0.00000000000E+00  0.99965625392E+02  0.99965625392E+02  0.00000000000E+00 0.  1.
         21   -1    0    0  501  503 -0.00000000000E+00 -0.00000000000E+00 -0.12089783099E+02  0.12089783099E+02  0.00000000000E+00 0.  1.
          5    1    1    2  501    0  0.20915740402E+02  0.24916448760E+02  0.24181998809E+02  0.40534758933E+02  0.00000000000E+00 0. -1.
         -5    1    1    2    0  502 -0.20915740402E+02 -0.24916448760E+02  0.63693843484E+02  0.71520649558E+02  0.00000000000E+00 0.  1.
<mgrwt>
<rscale>  2 0.32531487E+02</rscale>
<asrwt>0</asrwt>
<pdfrwt beam="1">  1       21 0.15379326E-01 0.32531487E+02</pdfrwt>
<pdfrwt beam="2">  1       21 0.18599667E-02 0.32531487E+02</pdfrwt>
<totfact> 0.40843331E+07</totfact>
</mgrwt>
</event>
<event>
 4    1  0.7119201E+004  0.3958387E+02  0.7546771E-02  0.1511296E+00
         21   -1    0    0  503  502  0.00000000000E+00  0.00000000000E+00  0.83770190330E+02  0.83770190330E+02  0.00000000000E+00 0.  1.
         21   -1    0    0  501  503 -0.00000000000E+00 -0.00000000000E+00 -0.19551120419E+02  0.19551120419E+02  0.00000000000E+00 0.  1.
          5    1    1    2  501    0 -0.31248221050E+02 -0.24298793732E+02  0.42859541969E+02  0.58342291979E+02  0.00000000000E+00 0. -1.
         -5    1    1    2    0  502  0.31248221050E+02  0.24298793732E+02  0.21359527943E+02  0.44979018770E+02  0.00000000000E+00 0.  1.
<mgrwt>
<rscale>  2 0.39583869E+02</rscale>
<asrwt>0</asrwt>
<pdfrwt beam="1">  1       21 0.12887721E-01 0.39583869E+02</pdfrwt>
<pdfrwt beam="2">  1       21 0.30078647E-02 0.39583869E+02</pdfrwt>
<totfact> 0.27041171E+07</totfact>
</mgrwt>
</event>
<event>
 4    1  0.7119201E+004  0.2028921E+02  0.7546771E-02  0.1739637E+00
         21   -1    0    0  503  502  0.00000000000E+00  0.00000000000E+00  0.22347798716E+03  0.22347798716E+03  0.00000000000E+00 0. -1.
         21   -1    0    0  501  503 -0.00000000000E+00 -0.00000000000E+00 -0.26121236059E+01  0.26121236059E+01  0.00000000000E+00 0. -1.
          3    1    1    2  501    0 -0.17937605220E+02  0.94812628479E+01  0.17181307452E+03  0.17300689178E+03  0.00000000000E+00 0. -1.
         -3    1    1    2    0  502  0.17937605220E+02 -0.94812628479E+01  0.49052789031E+02  0.53083218986E+02  0.00000000000E+00 0.  1.
<mgrwt>
<rscale>  2 0.20289210E+02</rscale>
<asrwt>0</asrwt>
<pdfrwt beam="1">  1       21 0.34381214E-01 0.20289210E+02</pdfrwt>
<pdfrwt beam="2">  1       21 0.40186535E-03 0.20289210E+02</pdfrwt>
<totfact> 0.87191694E+07</totfact>
</mgrwt>
</event>
<event>
 4    1  0.7119201E+004  0.3101015E+02  0.7546771E-02  0.1587184E+00
         21   -1    0    0  503  502  0.00000000000E+00  0.00000000000E+00  0.31205933542E+03  0.31205933542E+03  0.00000000000E+00 0. -1.
         21   -1    0    0  501  503 -0.00000000000E+00 -0.00000000000E+00 -0.34386451473E+01  0.34386451473E+01  0.00000000000E+00 0. -1.
          2    1    1    2  501    0  0.29362959788E+02 -0.99722690233E+01  0.10347581454E+03  0.10802256131E+03  0.00000000000E+00 0. -1.
         -2    1    1    2    0  502 -0.29362959788E+02  0.99722690233E+01  0.20514487574E+03  0.20747541926E+03  0.00000000000E+00 0.  1.
<mgrwt>
<rscale>  2 0.31010152E+02</rscale>
<asrwt>0</asrwt>
<pdfrwt beam="1">  1       21 0.48009106E-01 0.31010152E+02</pdfrwt>
<pdfrwt beam="2">  1       21 0.52902258E-03 0.31010152E+02</pdfrwt>
<totfact> 0.34024154E+07</totfact>
</mgrwt>
</event>
<event>
 4    1  0.7119201E+004  0.2784195E+02  0.7546771E-02  0.1623246E+00
         21   -1    0    0  501  502  0.00000000000E+00  0.00000000000E+00  0.45460622030E+01  0.45460622030E+01  0.00000000000E+00 0.  1.
         21   -1    0    0  502  503 -0.00000000000E+00 -0.00000000000E+00 -0.19917083301E+03  0.19917083301E+03  0.00000000000E+00 0.  1.
          5    1    1    2  501    0 -0.86486896211E+00  0.27828513664E+02 -0.13594790380E+03  0.13876961742E+03  0.00000000000E+00 0.  1.
         -5    1    1    2    0  503  0.86486896211E+00 -0.27828513664E+02 -0.58676867009E+02  0.64947277796E+02  0.00000000000E+00 0. -1.
<mgrwt>
<rscale>  2 0.27841950E+02</rscale>
<asrwt>0</asrwt>
<pdfrwt beam="1">  1       21 0.69939421E-03 0.27841950E+02</pdfrwt>
<pdfrwt beam="2">  1       21 0.30641665E-01 0.27841950E+02</pdfrwt>
<totfact> 0.51352733E+07</totfact>
</mgrwt>
</event>
<event>
 4    1  0.7119201E+004  0.2123871E+02  0.7546771E-02  0.1721761E+00
         21   -1    0    0  501  502  0.00000000000E+00  0.00000000000E+00  0.66808846056E+02  0.66808846056E+02  0.00000000000E+00 0.  1.
         21   -1    0    0  502  503 -0.00000000000E+00 -0.00000000000E+00 -0.67555559456E+01  0.67555559456E+01  0.00000000000E+00 0.  1.
          4    1    1    2  501    0 -0.18030878269E+02  0.11223645174E+02  0.30889060884E+02  0.37486222328E+02  0.00000000000E+00 0. -1.
         -4    1    1    2    0  503  0.18030878269E+02 -0.11223645174E+02  0.29164229226E+02  0.36078179673E+02  0.00000000000E+00 0.  1.
<mgrwt>
<rscale>  2 0.21238710E+02</rscale>
<asrwt>0</asrwt>
<pdfrwt beam="1">  1       21 0.10278284E-01 0.21238710E+02</pdfrwt>
<pdfrwt beam="2">  1       21 0.10393163E-02 0.21238710E+02</pdfrwt>
<totfact> 0.17564195E+08</totfact>
</mgrwt>
</event>
<event>
 4    1  0.7119201E+004  0.2114700E+02  0.7546771E-02  0.1723436E+00
         21   -1    0    0  503  502  0.00000000000E+00  0.00000000000E+00  0.58449089392E+01  0.58449089392E+01  0.00000000000E+00 0. -1.
         21   -1    0    0  501  503 -0.00000000000E+00 -0.00000000000E+00 -0.76794973319E+02  0.76794973319E+02  0.00000000000E+00 0. -1.
          1    1    1    2  501    0 -0.35204808552E+00 -0.21144066839E+02 -0.37990955993E+02  0.43479975134E+02  0.00000000000E+00 0.  1.
         -1    1    1    2    0  502  0.35204808552E+00  0.21144066839E+02 -0.32959108387E+02  0.39159907124E+02  0.00000000000E+00 0. -1.
<mgrwt>
<rscale>  2 0.21146997E+02</rscale>
<asrwt>0</asrwt>
<pdfrwt beam="1">  1       21 0.89921681E-03 0.21146997E+02</pdfrwt>
<pdfrwt beam="2">  1       21 0.11814611E-01 0.21146997E+02</pdfrwt>
<totfact> 0.17288721E+08</totfact>
</mgrwt>
</event>
<event>
 4    1  0.7119201E+004  0.2635583E+02  0.7546771E-02  0.1642258E+00
         21   -1    0    0  503  502  0.00000000000E+00  0.00000000000E+00  0.12085261695E+03  0.12085261695E+03  0.00000000000E+00 0.  1.
         21   -1    0    0  501  503 -0.00000000000E+00 -0.00000000000E+00 -0.80864048272E+01  0.80864048272E+01  0.00000000000E+00 0.  1.
          1    1    1    2  501    0 -0.22775962471E+02 -0.13262166919E+02  0.21712571524E+02  0.34147698312E+02  0.00000000000E+00 0. -1.
         -1    1    1    2    0  502  0.22775962471E+02  0.13262166919E+02  0.91053640600E+02  0.94791323466E+02  0.00000000000E+00 0.  1.
<mgrwt>
<rscale>  2 0.26355826E+02</rscale>
<asrwt>0</asrwt>
<pdfrwt beam="1">  1       21 0.18592709E-01 0.26355826E+02</pdfrwt>
<pdfrwt beam="2">  1       21 0.12440624E-02 0.26355826E+02</pdfrwt>
<totfact> 0.52006193E+07</totfact>
</mgrwt>
</event>
<event>
 4    1  0.7119201E+004  0.2139489E+02  0.7546771E-02  0.1718932E+00
         21   -1    0    0  503  502  0.00000000000E+00  0.00000000000E+00  0.33985274923E+03  0.33985274923E+03  0.00000000000E+00 0.  1.
         21   -1    0    0  501  503 -0.00000000000E+00 -0.00000000000E+00 -0.16494717973E+01  0.16494717973E+01  0.00000000000E+00 0.  1.
          4    1    1    2  501    0  0.21394391649E+02 -0.14664877444E+00  0.24223547191E+03  0.24317846400E+03  0.00000000000E+00 0.  1.
         -4    1    1    2    0  502 -0.21394391649E+02  0.14664877444E+00  0.95967805517E+02  0.98323757026E+02  0.00000000000E+00 0. -1.
<mgrwt>
<rscale>  2 0.21394894E+02</rscale>
<asrwt>0</asrwt>
<pdfrwt beam="1">  1       21 0.52284983E-01 0.21394894E+02</pdfrwt>
<pdfrwt beam="2">  1       21 0.25376516E-03 0.21394894E+02</pdfrwt>
<totfact> 0.78075154E+07</totfact>
</mgrwt>
</event>
<event>
 4    1  0.7119201E+004  0.2082327E+02  0.7546771E-02  0.1729435E+00
         21   -1    0    0  501  502  0.00000000000E+00  0.00000000000E+00  0.65817547431E+02  0.65817547431E+02  0.00000000000E+00 0.  1.
         21   -1    0    0  502  503 -0.00000000000E+00 -0.00000000000E+00 -0.67058471002E+01  0.67058471002E+01  0.00000000000E+00 0.  1.
          1    1    1    2  501    0 -0.17033709691E+02 -0.11977524806E+02  0.24749509302E+02  0.32344189230E+02  0.00000000000E+00 0. -1.
         -1    1    1    2    0  503  0.17033709691E+02  0.11977524806E+02  0.34362191029E+02  0.40179205301E+02  0.00000000000E+00 0.  1.
<mgrwt>
<rscale>  2 0.20823265E+02</rscale>
<asrwt>0</asrwt>
<pdfrwt beam="1">  1       21 0.10125776E-01 0.20823265E+02</pdfrwt>
<pdfrwt beam="2">  1       21 0.10316688E-02 0.20823265E+02</pdfrwt>
<totfact> 0.18091456E+08</totfact>
</mgrwt>
</event>
<event>
 4    1  0.7119201E+004  0.2596111E+02  0.7546771E-02  0.1647569E+00
         21   -1    0    0  501  502  0.00000000000E+00  0.00000000000E+00  0.23181050183E+02  0.23181050183E+02  0.00000000000E+00 0.  1.
         21   -1    0    0  502  503 -0.00000000000E+00 -0.00000000000E+00 -0.29151730684E+02  0.29151730684E+02  0.00000000000E+00 0.  1.
          1    1    1    2  501    0 -0.94709808796E+01  0.24171881388E+02 -0.16392387235E+01  0.26012812848E+02  0.00000000000E+00 0.  1.
         -1    1    1    2    0  503  0.94709808796E+01 -0.24171881388E+02 -0.43314417779E+01  0.26319968019E+02  0.00000000000E+00 0. -1.
<mgrwt>
<rscale>  2 0.25961112E+02</rscale>
<asrwt>0</asrwt>
<pdfrwt beam="1">  1       21 0.35663154E-02 0.25961112E+02</pdfrwt>
<pdfrwt beam="2">  1       21 0.44848816E-02 0.25961112E+02</pdfrwt>
<totfact> 0.10753081E+08</totfact>
</mgrwt>
</event>
<event>
 4    1  0.7119201E+004  0.5504911E+02  0.7546771E-02  0.1419867E+00
         21   -1    0    0  501  502  0.00000000000E+00  0.00000000000E+00  0.24648699513E+02  0.24648699513E+02  0.00000000000E+00 0.  1.
         21   -1    0    0  502  503 -0.00000000000E+00 -0.00000000000E+00 -0.14312817486E+03  0.14312817486E+03  0.00000000000E+00 0.  1.
          2    1    1    2  501    0 -0.32662255650E+02 -0.44312315007E+02 -0.27737062088E+02  0.61642102647E+02  0.00000000000E+00 0. -1.
         -2    1    1    2    0  503  0.32662255650E+02  0.44312315007E+02 -0.90742413258E+02  0.10613477173E+03  0.00000000000E+00 0.  1.
<mgrwt>
<rscale>  2 0.55049107E+02</rscale>
<asrwt>0</asrwt>
<pdfrwt beam="1">  1       21 0.37921076E-02 0.55049107E+02</pdfrwt>
<pdfrwt beam="2">  1       21 0.22019719E-01 0.55049107E+02</pdfrwt>
<totfact> 0.75681448E+06</totfact>
</mgrwt>
</event>
<event>
 4    1  0.7119201E+004  0.2505583E+02  0.7546771E-02  0.1660201E+00
         21   -1    0    0  501  502  0.00000000000E+00  0.00000000000E+00  0.67038873073E+01  0.67038873073E+01  0.00000000000E+00 0.  1.
         21   -1    0    0  502  503 -0.00000000000E+00 -0.00000000000E+00 -0.97320705722E+02  0.97320705722E+02  0.00000000000E+00 0.  1.
          2    1    1    2  501    0 -0.42151808205E+01  0.24698721609E+02 -0.35202071266E+02  0.43208568825E+02  0.00000000000E+00 0.  1.
         -2    1    1    2    0  503  0.42151808205E+01 -0.24698721609E+02 -0.55414747148E+02  0.60816024204E+02  0.00000000000E+00 0. -1.
<mgrwt>
<rscale>  2 0.25055830E+02</rscale>
<asrwt>0</asrwt>
<pdfrwt beam="1">  1       21 0.10313673E-02 0.25055830E+02</pdfrwt>
<pdfrwt beam="2">  1       21 0.14972416E-01 0.25055830E+02</pdfrwt>
<totfact> 0.99117270E+07</totfact>
</mgrwt>
</event>
<event>
 4    1  0.7119201E+004  0.4560809E+02  0.7546771E-02  0.1470581E+00
         21   -1    0    0  503  502  0.00000000000E+00  0.00000000000E+00  0.33448770666E+03  0.33448770666E+03  0.00000000000E+00 0.  1.
         21   -1    0    0  501  503 -0.00000000000E+00 -0.00000000000E+00 -0.62639583725E+01  0.62639583725E+01  0.00000000000E+00 0.  1.
          2    1    1    2  501    0 -0.89782197638E+01  0.44715647005E+02  0.14963872757E+03  0.15643479889E+03  0.00000000000E+00 0. -1.
         -2    1    1    2    0  502  0.89782197638E+01 -0.44715647005E+02  0.17858502072E+03  0.18431686614E+03  0.00000000000E+00 0.  1.
<mgrwt>
<rscale>  2 0.45608086E+02</rscale>
<asrwt>0</asrwt>
<pdfrwt beam="1">  1       21 0.51459633E-01 0.45608086E+02</pdfrwt>
<pdfrwt beam="2">  1       21 0.96368616E-03 0.45608086E+02</pdfrwt>
<totfact> 0.12703451E+07</totfact>
</mgrwt>
</event>
<event>
 4    1  0.7119201E+004  0.2236955E+02  0.7546771E-02  0.1701938E+00
         21   -1    0    0  501  502  0.00000000000E+00  0.00000000000E+00  0.41829077522E+03  0.41829077522E+03  0.00000000000E+00 0.  1.
         21   -1    0    0  502  503 -0.00000000000E+00 -0.00000000000E+00 -0.12348136970E+01  0.12348136970E+01  0.00000000000E+00 0.  1.
          4    1    1    2  501    0  0.20277995223E+02  0.94445468274E+01  0.24557887376E+03  0.24659557942E+03  0.00000000000E+00 0. -1.
         -4    1    1    2    0  503 -0.20277995223E+02 -0.94445468274E+01  0.17147708777E+03  0.17293000950E+03  0.00000000000E+00 0.  1.
<mgrwt>
<rscale>  2 0.22369545E+02</rscale>
<asrwt>0</asrwt>
<pdfrwt beam="1">  1       21 0.64352314E-01 0.22369545E+02</pdfrwt>
<pdfrwt beam="2">  1       21 0.18997167E-03 0.22369545E+02</pdfrwt>
<totfact> 0.79449245E+07</totfact>
</mgrwt>
</event>
<event>
 4    1  0.7119201E+004  0.2726481E+02  0.7546771E-02  0.1630452E+00
         21   -1    0    0  501  502  0.00000000000E+00  0.00000000000E+00  0.11371870535E+02  0.11371870535E+02  0.00000000000E+00 0. -1.
         21   -1    0    0  502  503 -0.00000000000E+00 -0.00000000000E+00 -0.76067873544E+02  0.76067873544E+02  0.00000000000E+00 0. -1.
          2    1    1    2  501    0  0.17563367253E+02 -0.20854208872E+02 -0.48744213984E+02  0.55851305212E+02  0.00000000000E+00 0.  1.
         -2    1    1    2    0  503 -0.17563367253E+02  0.20854208872E+02 -0.15951789025E+02  0.31588438867E+02  0.00000000000E+00 0. -1.
<mgrwt>
<rscale>  2 0.27264811E+02</rscale>
<asrwt>0</asrwt>
<pdfrwt beam="1">  1       21 0.17495185E-02 0.27264811E+02</pdfrwt>
<pdfrwt beam="2">  1       21 0.11702750E-01 0.27264811E+02</pdfrwt>
<totfact> 0.68789500E+07</totfact>
</mgrwt>
</event>
<event>
 4    1  0.7119201E+004  0.2202185E+02  0.7546771E-02  0.1707874E+00
         21   -1    0    0  501  502  0.00000000000E+00  0.00000000000E+00  0.34831769163E+02  0.34831769163E+02  0.00000000000E+00 0.  1.
         21   -1    0    0  502  503 -0.00000000000E+00 -0.00000000000E+00 -0.18255940343E+02  0.18255940343E+02  0.00000000000E+00 0.  1.
          4    1    1    2  501    0  0.13241329466E+02 -0.17596277371E+02 -0.46437550035E+01  0.22506137915E+02  0.00000000000E+00 0. -1.
         -4    1    1    2    0  503 -0.13241329466E+02  0.17596277371E+02  0.21219583823E+02  0.30581571591E+02  0.00000000000E+00 0.  1.
<mgrwt>
<rscale>  2 0.22021848E+02</rscale>
<asrwt>0</asrwt>
<pdfrwt beam="1">  1       21 0.53587337E-02 0.22021848E+02</pdfrwt>
<pdfrwt beam="2">  1       21 0.28086062E-02 0.22021848E+02</pdfrwt>
<totfact> 0.11226412E+08</totfact>
</mgrwt>
</event>
<event>
 4    1  0.7119201E+004  0.3505456E+02  0.7546771E-02  0.1548117E+00
         21   -1    0    0  503  502  0.00000000000E+00  0.00000000000E+00  0.59806880731E+01  0.59806880731E+01  0.00000000000E+00 0.  1.
         21   -1    0    0  501  503 -0.00000000000E+00 -0.00000000000E+00 -0.21234794360E+03  0.21234794360E+03  0.00000000000E+00 0.  1.
          1    1    1    2  501    0 -0.34811608564E+02 -0.41199732690E+01 -0.12283725618E+03  0.12774119843E+03  0.00000000000E+00 0.  1.
         -1    1    1    2    0  502  0.34811608564E+02  0.41199732690E+01 -0.83529999345E+02  0.90587433241E+02  0.00000000000E+00 0. -1.
<mgrwt>
<rscale>  2 0.35054561E+02</rscale>
<asrwt>0</asrwt>
<pdfrwt beam="1">  1       21 0.92010588E-03 0.35054561E+02</pdfrwt>
<pdfrwt beam="2">  1       21 0.32668914E-01 0.35054561E+02</pdfrwt>
<totfact> 0.31567386E+07</totfact>
</mgrwt>
</event>
<event>
 4    1  0.7119201E+004  0.2361772E+02  0.7546771E-02  0.1681688E+00
         21   -1    0    0  503  502  0.00000000000E+00  0.00000000000E+00  0.59389503835E+03  0.59389503835E+03  0.00000000000E+00 0.  1.
         21   -1    0    0  501  503 -0.00000000000E+00 -0.00000000000E+00 -0.94009974332E+00  0.94009974332E+00  0.00000000000E+00 0.  1.
          5    1    1    2  501    0  0.23341411714E+02 -0.36020958506E+01  0.28736615031E+03  0.28833504979E+03  0.00000000000E+00 0.  1.
         -5    1    1    2    0  502 -0.23341411714E+02  0.36020958506E+01  0.30558878830E+03  0.30650008830E+03  0.00000000000E+00 0. -1.
<mgrwt>
<rscale>  2 0.23617718E+02</rscale>
<asrwt>0</asrwt>
<pdfrwt beam="1">  1       21 0.91368168E-01 0.23617718E+02</pdfrwt>
<pdfrwt beam="2">  1       21 0.14463120E-03 0.23617718E+02</pdfrwt>
<totfact> 0.57393669E+07</totfact>
</mgrwt>
</event>
<event>
 4    1  0.7119201E+004  0.3262298E+02  0.7546771E-02  0.1570782E+00
         21   -1    0    0  501  502  0.00000000000E+00  0.00000000000E+00  0.36534475443E+02  0.36534475443E+02  0.00000000000E+00 0.  1.
         21   -1    0    0  502  503 -0.00000000000E+00 -0.00000000000E+00 -0.29333833799E+02  0.29333833799E+02  0.00000000000E+00 0.  1.
          4    1    1    2  501    0 -0.19840759610E+02  0.25896010560E+02  0.63438730463E+01  0.33234076338E+02  0.00000000000E+00 0.  1.
         -4    1    1    2    0  503  0.19840759610E+02 -0.25896010560E+02  0.85676859738E+00  0.32634232904E+02  0.00000000000E+00 0. -1.
<mgrwt>
<rscale>  2 0.32622984E+02</rscale>
<asrwt>0</asrwt>
<pdfrwt beam="1">  1       21 0.56206885E-02 0.32622984E+02</pdfrwt>
<pdfrwt beam="2">  1       21 0.45128975E-02 0.32622984E+02</pdfrwt>
<totfact> 0.54387166E+07</totfact>
</mgrwt>
</event>
<event>
 4    1  0.7119201E+004  0.2085011E+02  0.7546771E-02  0.1728933E+00
         21   -1    0    0  503  502  0.00000000000E+00  0.00000000000E+00  0.36103184864E+02  0.36103184864E+02  0.00000000000E+00 0. -1.
         21   -1    0    0  501  503 -0.00000000000E+00 -0.00000000000E+00 -0.13393558517E+02  0.13393558517E+02  0.00000000000E+00 0. -1.
          5    1    1    2  501    0  0.19048666718E-01  0.20850102039E+02  0.34909106964E+01  0.21140330541E+02  0.00000000000E+00 0.  1.
         -5    1    1    2    0  502 -0.19048666718E-01 -0.20850102039E+02  0.19218715651E+02  0.28356412840E+02  0.00000000000E+00 0. -1.
<mgrwt>
<rscale>  2 0.20850111E+02</rscale>
<asrwt>0</asrwt>
<pdfrwt beam="1">  1       21 0.55543361E-02 0.20850111E+02</pdfrwt>
<pdfrwt beam="2">  1       21 0.20605475E-02 0.20850111E+02</pdfrwt>
<totfact> 0.16802050E+08</totfact>
</mgrwt>
</event>
<event>
 4    1  0.7119201E+004  0.3565692E+02  0.7546771E-02  0.1542843E+00
         21   -1    0    0  501  502  0.00000000000E+00  0.00000000000E+00  0.54024799670E+02  0.54024799670E+02  0.00000000000E+00 0.  1.
         21   -1    0    0  502  503 -0.00000000000E+00 -0.00000000000E+00 -0.25048410990E+02  0.25048410990E+02  0.00000000000E+00 0.  1.
          2    1    1    2  501    0  0.10468358904E+02  0.34085620295E+02  0.24209860021E+02  0.43099111026E+02  0.00000000000E+00 0. -1.
         -2    1    1    2    0  503 -0.10468358904E+02 -0.34085620295E+02  0.47665286603E+01  0.35974099634E+02  0.00000000000E+00 0.  1.
<mgrwt>
<rscale>  2 0.35656921E+02</rscale>
<asrwt>0</asrwt>
<pdfrwt beam="1">  1       21 0.83115077E-02 0.35656921E+02</pdfrwt>
<pdfrwt beam="2">  1       21 0.38536017E-02 0.35656921E+02</pdfrwt>
<totfact> 0.37533848E+07</totfact>
</mgrwt>
</event>
<event>
 4    1  0.7119201E+004  0.2071573E+02  0.7546771E-02  0.1731458E+00
         21   -1    0    0  503  502  0.00000000000E+00  0.00000000000E+00  0.10527682386E+02  0.10527682386E+02  0.00000000000E+00 0.  1.
         21   -1    0    0  501  503 -0.00000000000E+00 -0.00000000000E+00 -0.43982303998E+02  0.43982303998E+02  0.00000000000E+00 0.  1.
          2    1    1    2  501    0 -0.16544881309E+02  0.12466287552E+02 -0.93537301259E+01  0.22729577429E+02  0.00000000000E+00 0.  1.
         -2    1    1    2    0  502  0.16544881309E+02 -0.12466287552E+02 -0.24100891486E+02  0.31780408954E+02  0.00000000000E+00 0. -1.
<mgrwt>
<rscale>  2 0.20715729E+02</rscale>
<asrwt>0</asrwt>
<pdfrwt beam="1">  1       21 0.16196434E-02 0.20715729E+02</pdfrwt>
<pdfrwt beam="2">  1       21 0.67665083E-02 0.20715729E+02</pdfrwt>
<totfact> 0.17640936E+08</totfact>
</mgrwt>
</event>
<event>
 4    1  0.7119201E+004  0.2751028E+02  0.7546771E-02  0.1627361E+00
         21   -1    0    0  503  502  0.00000000000E+00  0.00000000000E+00  0.19712009227E+02  0.19712009227E+02  0.00000000000E+00 0. -1.
         21   -1    0    0  501  503 -0.00000000000E+00 -0.00000000000E+00 -0.38462358199E+02  0.38462358199E+02  0.00000000000E+00 0. -1.
          1    1    1    2  501    0 -0.24195693654E+02  0.13091377742E+02 -0.10604659816E+02  0.29483462693E+02  0.00000000000E+00 0.  1.
         -1    1    1    2    0  502  0.24195693654E+02 -0.13091377742E+02 -0.81456891567E+01  0.28690904733E+02  0.00000000000E+00 0. -1.
<mgrwt>
<rscale>  2 0.27510285E+02</rscale>
<asrwt>0</asrwt>
<pdfrwt beam="1">  1       21 0.30326168E-02 0.27510285E+02</pdfrwt>
<pdfrwt beam="2">  1       21 0.59172859E-02 0.27510285E+02</pdfrwt>
<totfact> 0.90316928E+07</totfact>
</mgrwt>
</event>
<event>
 4    1  0.7119201E+004  0.2109537E+02  0.7546771E-02  0.1724384E+00
         21   -1    0    0  501  502  0.00000000000E+00  0.00000000000E+00  0.11377924972E+02  0.11377924972E+02  0.00000000000E+00 0.  1.
         21   -1    0    0  502  503 -0.00000000000E+00 -0.00000000000E+00 -0.39872349278E+02  0.39872349278E+02  0.00000000000E+00 0.  1.
          3    1    1    2  501    0  0.25382194334E+01  0.20942111013E+02 -0.17785616696E+02  0.27592439777E+02  0.00000000000E+00 0. -1.
         -3    1    1    2    0  503 -0.25382194334E+01 -0.20942111013E+02 -0.10708807610E+02  0.23657834474E+02  0.00000000000E+00 0.  1.
<mgrwt>
<rscale>  2 0.21095368E+02</rscale>
<asrwt>0</asrwt>
<pdfrwt beam="1">  1       21 0.17504500E-02 0.21095368E+02</pdfrwt>
<pdfrwt beam="2">  1       21 0.61342076E-02 0.21095368E+02</pdfrwt>
<totfact> 0.18457246E+08</totfact>
</mgrwt>
</event>
<event>
 4    1  0.7119201E+004  0.3090876E+02  0.7546771E-02  0.1588255E+00
         21   -1    0    0  503  502  0.00000000000E+00  0.00000000000E+00  0.51007178512E+01  0.51007178512E+01  0.00000000000E+00 0.  1.
         21   -1    0    0  501  503 -0.00000000000E+00 -0.00000000000E+00 -0.19175143199E+03  0.19175143199E+03  0.00000000000E+00 0.  1.
          5    1    1    2  501    0  0.24821812349E+02  0.18418178591E+02 -0.10832610605E+03  0.11264944262E+03  0.00000000000E+00 0.  1.
         -5    1    1    2    0  502 -0.24821812349E+02 -0.18418178591E+02 -0.78324608089E+02  0.84202707220E+02  0.00000000000E+00 0. -1.
<mgrwt>
<rscale>  2 0.30908764E+02</rscale>
<asrwt>0</asrwt>
<pdfrwt beam="1">  1       21 0.78472572E-03 0.30908764E+02</pdfrwt>
<pdfrwt beam="2">  1       21 0.29500224E-01 0.30908764E+02</pdfrwt>
<totfact> 0.47361085E+07</totfact>
</mgrwt>
</event>
<event>
 4    1  0.7119201E+004  0.2317161E+02  0.7546771E-02  0.1688743E+00
         21   -1    0    0  501  502  0.00000000000E+00  0.00000000000E+00  0.33491000455E+02  0.33491000455E+02  0.00000000000E+00 0.  1.
         21   -1    0    0  502  503 -0.00000000000E+00 -0.00000000000E+00 -0.16064438647E+02  0.16064438647E+02  0.00000000000E+00 0.  1.
          2    1    1    2  501    0 -0.15290979894E+02 -0.17410043502E+02  0.98287707384E+01  0.25169990367E+02  0.00000000000E+00 0. -1.
         -2    1    1    2    0  503  0.15290979894E+02  0.17410043502E+02  0.75977910700E+01  0.24385448735E+02  0.00000000000E+00 0.  1.
<mgrwt>
<rscale>  2 0.23171614E+02</rscale>
<asrwt>0</asrwt>
<pdfrwt beam="1">  1       21 0.51524616E-02 0.23171614E+02</pdfrwt>
<pdfrwt beam="2">  1       21 0.24714521E-02 0.23171614E+02</pdfrwt>
<totfact> 0.14792286E+08</totfact>
</mgrwt>
</event>
<event>
 4    1  0.7119201E+004  0.2004874E+02  0.7546771E-02  0.1744361E+00
         21   -1    0    0  503  502  0.00000000000E+00  0.00000000000E+00  0.12398538022E+03  0.12398538022E+03  0.00000000000E+00 0. -1.
         21   -1    0    0  501  503 -0.00000000000E+00 -0.00000000000E+00 -0.32535657995E+01  0.32535657995E+01  0.00000000000E+00 0. -1.
          4    1    1    2  501    0 -0.19081999320E+02  0.61505497303E+01  0.56561360537E+02  0.60009494798E+02  0.00000000000E+00 0. -1.
         -4    1    1    2    0  502  0.19081999320E+02 -0.61505497303E+01  0.64170453885E+02  0.67229451224E+02  0.00000000000E+00 0.  1.
<mgrwt>
<rscale>  2 0.20048740E+02</rscale>
<asrwt>0</asrwt>
<pdfrwt beam="1">  1       21 0.19074670E-01 0.20048740E+02</pdfrwt>
<pdfrwt beam="2">  1       21 0.50054868E-03 0.20048740E+02</pdfrwt>
<totfact> 0.17966391E+08</totfact>
</mgrwt>
</event>
<event>
 4    1  0.7119201E+004  0.2164699E+02  0.7546771E-02  0.1714430E+00
         21   -1    0    0  503  502  0.00000000000E+00  0.00000000000E+00  0.16277729338E+02  0.16277729338E+02  0.00000000000E+00 0. -1.
         21   -1    0    0  501  503 -0.00000000000E+00 -0.00000000000E+00 -0.30413461520E+02  0.30413461520E+02  0.00000000000E+00 0. -1.
          4    1    1    2  501    0 -0.10293985194E+02  0.19042744581E+02 -0.12466088776E+02  0.24979904358E+02  0.00000000000E+00 0.  1.
         -4    1    1    2    0  502  0.10293985194E+02 -0.19042744581E+02 -0.16696434048E+01  0.21711286500E+02  0.00000000000E+00 0. -1.
<mgrwt>
<rscale>  2 0.21646992E+02</rscale>
<asrwt>0</asrwt>
<pdfrwt beam="1">  1       21 0.25042660E-02 0.21646992E+02</pdfrwt>
<pdfrwt beam="2">  1       21 0.46789941E-02 0.21646992E+02</pdfrwt>
<totfact> 0.16542990E+08</totfact>
</mgrwt>
</event>
<event>
 4    1  0.7119201E+004  0.2565436E+02  0.7546771E-02  0.1651777E+00
         21   -1    0    0  501  502  0.00000000000E+00  0.00000000000E+00  0.14288876156E+01  0.14288876156E+01  0.00000000000E+00 0.  1.
         21   -1    0    0  502  503 -0.00000000000E+00 -0.00000000000E+00 -0.46175047571E+03  0.46175047571E+03  0.00000000000E+00 0.  1.
          2    1    1    2  501    0 -0.92840036143E+01 -0.23915548690E+02 -0.24171874205E+03  0.24307631816E+03  0.00000000000E+00 0. -1.
         -2    1    1    2    0  503  0.92840036143E+01  0.23915548690E+02 -0.21860284605E+03  0.22010304517E+03  0.00000000000E+00 0.  1.
<mgrwt>
<rscale>  2 0.25654360E+02</rscale>
<asrwt>0</asrwt>
<pdfrwt beam="1">  1       21 0.21982861E-03 0.25654360E+02</pdfrwt>
<pdfrwt beam="2">  1       21 0.71038617E-01 0.25654360E+02</pdfrwt>
<totfact> 0.54266598E+07</totfact>
</mgrwt>
</event>
<event>
 4    1  0.7119201E+004  0.2026073E+02  0.7546771E-02  0.1740192E+00
         21   -1    0    0  501  502  0.00000000000E+00  0.00000000000E+00  0.47306134112E+01  0.47306134112E+01  0.00000000000E+00 0. -1.
         21   -1    0    0  502  503 -0.00000000000E+00 -0.00000000000E+00 -0.96565888517E+02  0.96565888517E+02  0.00000000000E+00 0. -1.
          2    1    1    2  501    0  0.16615645739E+02  0.11593852032E+02 -0.62045339836E+02  0.65269604593E+02  0.00000000000E+00 0.  1.
         -2    1    1    2    0  503 -0.16615645739E+02 -0.11593852032E+02 -0.29789935269E+02  0.36026897335E+02  0.00000000000E+00 0. -1.
<mgrwt>
<rscale>  2 0.20260728E+02</rscale>
<asrwt>0</asrwt>
<pdfrwt beam="1">  1       21 0.72778663E-03 0.20260728E+02</pdfrwt>
<pdfrwt beam="2">  1       21 0.14856291E-01 0.20260728E+02</pdfrwt>
<totfact> 0.15909208E+08</totfact>
</mgrwt>
</event>
<event>
 4    1  0.7119201E+004  0.2992055E+02  0.7546771E-02  0.1598968E+00
         21   -1    0    0  501  502  0.00000000000E+00  0.00000000000E+00  0.17218505295E+03  0.17218505295E+03  0.00000000000E+00 0.  1.
         21   -1    0    0  502  503 -0.00000000000E+00 -0.00000000000E+00 -0.73155143260E+01  0.73155143260E+01  0.00000000000E+00 0.  1.
          2    1    1    2  501    0 -0.27655898517E+02  0.11418880258E+02  0.13070668467E+03  0.13408757201E+03  0.00000000000E+00 0.  1.
         -2    1    1    2    0  503  0.27655898517E+02 -0.11418880258E+02  0.34162853957E+02  0.45412995273E+02  0.00000000000E+00 0. -1.
<mgrwt>
<rscale>  2 0.29920554E+02</rscale>
<asrwt>0</asrwt>
<pdfrwt beam="1">  1       21 0.26490005E-01 0.29920554E+02</pdfrwt>
<pdfrwt beam="2">  1       21 0.11254639E-02 0.29920554E+02</pdfrwt>
<totfact> 0.33183578E+07</totfact>
</mgrwt>
</event>
<event>
 4    1  0.7119201E+004  0.3736907E+02  0.7546771E-02  0.1528516E+00
         21   -1    0    0  501  502  0.00000000000E+00  0.00000000000E+00  0.19139834893E+02  0.19139834893E+02  0.00000000000E+00 0.  1.
         21   -1    0    0  502  503 -0.00000000000E+00 -0.00000000000E+00 -0.10148538165E+03  0.10148538165E+03  0.00000000000E+00 0.  1.
          1    1    1    2  501    0 -0.37330651029E+02 -0.16940959212E+01 -0.73148473602E+02  0.82141016901E+02  0.00000000000E+00 0. -1.
         -1    1    1    2    0  503  0.37330651029E+02  0.16940959212E+01 -0.91970731511E+01  0.38484199638E+02  0.00000000000E+00 0.  1.
<mgrwt>
<rscale>  2 0.37369071E+02</rscale>
<asrwt>0</asrwt>
<pdfrwt beam="1">  1       21 0.29445899E-02 0.37369071E+02</pdfrwt>
<pdfrwt beam="2">  1       21 0.15613136E-01 0.37369071E+02</pdfrwt>
<totfact> 0.19878984E+07</totfact>
</mgrwt>
</event>
<event>
 4    1  0.7119201E+004  0.2057297E+02  0.7546771E-02  0.1734168E+00
         21   -1    0    0  503  502  0.00000000000E+00  0.00000000000E+00  0.10318190391E+01  0.10318190391E+01  0.00000000000E+00 0. -1.
         21   -1    0    0  501  503 -0.00000000000E+00 -0.00000000000E+00 -0.42613502987E+03  0.42613502987E+03  0.00000000000E+00 0. -1.
          1    1    1    2  501    0  0.23848634010E+01  0.20434268205E+02 -0.17124304313E+03  0.17247442335E+03  0.00000000000E+00 0.  1.
         -1    1    1    2    0  502 -0.23848634010E+01 -0.20434268205E+02 -0.25386016770E+03  0.25469242556E+03  0.00000000000E+00 0. -1.
<mgrwt>
<rscale>  2 0.20572965E+02</rscale>
<asrwt>0</asrwt>
<pdfrwt beam="1">  1       21 0.15874118E-03 0.20572965E+02</pdfrwt>
<pdfrwt beam="2">  1       21 0.65559324E-01 0.20572965E+02</pdfrwt>
<totfact> 0.96936651E+07</totfact>
</mgrwt>
</event>
<event>
 4    1  0.7119201E+004  0.2054850E+02  0.7546771E-02  0.1734635E+00
         21   -1    0    0  503  502  0.00000000000E+00  0.00000000000E+00  0.20552680642E+02  0.20552680642E+02  0.00000000000E+00 0.  1.
         21   -1    0    0  501  503 -0.00000000000E+00 -0.00000000000E+00 -0.29334450831E+02  0.29334450831E+02  0.00000000000E+00 0.  1.
          4    1    1    2  501    0  0.20353364632E+02 -0.28251467987E+01 -0.18045113245E+02  0.27347157408E+02  0.00000000000E+00 0. -1.
         -4    1    1    2    0  502 -0.20353364632E+02  0.28251467987E+01  0.92633430565E+01  0.22539974065E+02  0.00000000000E+00 0.  1.
<mgrwt>
<rscale>  2 0.20548501E+02</rscale>
<asrwt>0</asrwt>
<pdfrwt beam="1">  1       21 0.31619509E-02 0.20548501E+02</pdfrwt>
<pdfrwt beam="2">  1       21 0.45129924E-02 0.20548501E+02</pdfrwt>
<totfact> 0.12013383E+08</totfact>
</mgrwt>
</event>
<event>
 4    1  0.7119201E+004  0.2730243E+02  0.7546771E-02  0.1629976E+00
         21   -1    0    0  503  502  0.00000000000E+00  0.00000000000E+00  0.58060680427E+01  0.58060680427E+01  0.00000000000E+00 0. -1.
         21   -1    0    0  501  503 -0.00000000000E+00 -0.00000000000E+00 -0.13041854629E+03  0.13041854629E+03  0.00000000000E+00 0. -1.
          1    1    1    2  501    0  0.23129022780E+02 -0.14507616990E+02 -0.70807589418E+02  0.75888980522E+02  0.00000000000E+00 0.  1.
         -1    1    1    2    0  502 -0.23129022780E+02  0.14507616990E+02 -0.53804888832E+02  0.60335633813E+02  0.00000000000E+00 0. -1.
<mgrwt>
<rscale>  2 0.27302429E+02</rscale>
<asrwt>0</asrwt>
<pdfrwt beam="1">  1       21 0.89324119E-03 0.27302429E+02</pdfrwt>
<pdfrwt beam="2">  1       21 0.20064393E-01 0.27302429E+02</pdfrwt>
<totfact> 0.75743078E+07</totfact>
</mgrwt>
</event>
<event>
 4    1  0.7119201E+004  0.4607458E+02  0.7546771E-02  0.1467743E+00
         21   -1    0    0  501  502  0.00000000000E+00  0.00000000000E+00  0.15302492501E+02  0.15302492501E+02  0.00000000000E+00 0.  1.
         21   -1    0    0  502  503 -0.00000000000E+00 -0.00000000000E+00 -0.16253539469E+03  0.16253539469E+03  0.00000000000E+00 0.  1.
          5    1    1    2  501    0  0.89026633554E+01  0.45206301752E+02 -0.39584533913E+02  0.60743744189E+02  0.00000000000E+00 0. -1.
         -5    1    1    2    0  503 -0.89026633554E+01 -0.45206301752E+02 -0.10764836828E+03  0.11709414300E+03  0.00000000000E+00 0.  1.
<mgrwt>
<rscale>  2 0.46074582E+02</rscale>
<asrwt>0</asrwt>
<pdfrwt beam="1">  1       21 0.23542297E-02 0.46074582E+02</pdfrwt>
<pdfrwt beam="2">  1       21 0.25005444E-01 0.46074582E+02</pdfrwt>
<totfact> 0.12599875E+07</totfact>
</mgrwt>
</event>
<event>
 4    1  0.7119201E+004  0.2030243E+02  0.7546771E-02  0.1739380E+00
         21   -1    0    0  503  502  0.00000000000E+00  0.00000000000E+00  0.17489766781E+02  0.17489766781E+02  0.00000000000E+00 0. -1.
         21   -1    0    0  501  503 -0.00000000000E+00 -0.00000000000E+00 -0.25314044748E+02  0.25314044748E+02  0.00000000000E+00 0. -1.
          5    1    1    2  501    0 -0.56448383546E+00 -0.20294576667E+02  0.17096283654E+01  0.20374280681E+02  0.00000000000E+00 0. -1.
         -5    1    1    2    0  502  0.56448383546E+00  0.20294576667E+02 -0.95339063323E+01  0.22429530848E+02  0.00000000000E+00 0.  1.
<mgrwt>
<rscale>  2 0.20302426E+02</rscale>
<asrwt>0</asrwt>
<pdfrwt beam="1">  1       21 0.26907333E-02 0.20302426E+02</pdfrwt>
<pdfrwt beam="2">  1       21 0.38944684E-02 0.20302426E+02</pdfrwt>
<totfact> 0.19370993E+08</totfact>
</mgrwt>
</event>
<event>
 4    1  0.7119201E+004  0.2735180E+02  0.7546771E-02  0.1629352E+00
         21   -1    0    0  503  502  0.00000000000E+00  0.00000000000E+00  0.75754011189E+02  0.75754011189E+02  0.00000000000E+00 0.  1.
         21   -1    0    0  501  503 -0.00000000000E+00 -0.00000000000E+00 -0.11330537978E+02  0.11330537978E+02  0.00000000000E+00 0.  1.
          3    1    1    2  501    0  0.16542434471E+02  0.21782309609E+02  0.16609079775E+02  0.31999729391E+02  0.00000000000E+00 0.  1.
         -3    1    1    2    0  502 -0.16542434471E+02 -0.21782309609E+02  0.47814393437E+02  0.55084819776E+02  0.00000000000E+00 0. -1.
<mgrwt>
<rscale>  2 0.27351803E+02</rscale>
<asrwt>0</asrwt>
<pdfrwt beam="1">  1       21 0.11654463E-01 0.27351803E+02</pdfrwt>
<pdfrwt beam="2">  1       21 0.17431597E-02 0.27351803E+02</pdfrwt>
<totfact> 0.69712879E+07</totfact>
</mgrwt>
</event>
<event>
 4    1  0.7119201E+004  0.2369780E+02  0.7546771E-02  0.1680442E+00
         21   -1    0    0  501  502  0.00000000000E+00  0.00000000000E+00  0.29481986064E+02  0.29481986064E+02  0.00000000000E+00 0.  1.
         21   -1    0    0  502  503 -0.00000000000E+00 -0.00000000000E+00 -0.23669349864E+02  0.23669349864E+02  0.00000000000E+00 0.  1.
          1    1    1    2  501    0  0.22669855926E+02 -0.69038541499E+01  0.14648673151E+02  0.27859813261E+02  0.00000000000E+00 0.  1.
         -1    1    1    2    0  503 -0.22669855926E+02  0.69038541499E+01 -0.88360369503E+01  0.25291522667E+02  0.00000000000E+00 0. -1.
<mgrwt>
<rscale>  2 0.23697797E+02</rscale>
<asrwt>0</asrwt>
<pdfrwt beam="1">  1       21 0.45356902E-02 0.23697797E+02</pdfrwt>
<pdfrwt beam="2">  1       21 0.36414384E-02 0.23697797E+02</pdfrwt>
<totfact> 0.99692493E+07</totfact>
</mgrwt>
</event>
<event>
 4    1  0.7119201E+004  0.3021677E+02  0.7546771E-02  0.1595705E+00
         21   -1    0    0  503  502  0.00000000000E+00  0.00000000000E+00  0.70768530488E+02  0.70768530488E+02  0.00000000000E+00 0.  1.
         21   -1    0    0  501  503 -0.00000000000E+00 -0.00000000000E+00 -0.20552306532E+02  0.20552306532E+02  0.00000000000E+00 0.  1.
          1    1    1    2  501    0  0.15504129130E+02  0.25935985089E+02  0.52966111036E+02  0.60979195312E+02  0.00000000000E+00 0. -1.
         -1    1    1    2    0  502 -0.15504129130E+02 -0.25935985089E+02 -0.27498870807E+01  0.30341641708E+02  0.00000000000E+00 0.  1.
<mgrwt>
<rscale>  2 0.30216773E+02</rscale>
<asrwt>0</asrwt>
<pdfrwt beam="1">  1       21 0.10887466E-01 0.30216773E+02</pdfrwt>
<pdfrwt beam="2">  1       21 0.31618934E-02 0.30216773E+02</pdfrwt>
<totfact> 0.31654470E+07</totfact>
</mgrwt>
</event>
<event>
 4    1  0.7119201E+004  0.4305316E+02  0.7546771E-02  0.1486875E+00
         21   -1    0    0  503  502  0.00000000000E+00  0.00000000000E+00  0.14744714425E+02  0.14744714425E+02  0.00000000000E+00 0. -1.
         21   -1    0    0  501  503 -0.00000000000E+00 -0.00000000000E+00 -0.12575437707E+03  0.12575437707E+03  0.00000000000E+00 0. -1.
          4    1    1    2  501    0  0.41013757292E+02 -0.13093745458E+02 -0.54201823606E+02  0.69220027012E+02  0.00000000000E+00 0.  1.
         -4    1    1    2    0  502 -0.41013757292E+02  0.13093745458E+02 -0.56807839042E+02  0.71279064486E+02  0.00000000000E+00 0. -1.
<mgrwt>
<rscale>  2 0.43053159E+02</rscale>
<asrwt>0</asrwt>
<pdfrwt beam="1">  1       21 0.22684177E-02 0.43053159E+02</pdfrwt>
<pdfrwt beam="2">  1       21 0.19346827E-01 0.43053159E+02</pdfrwt>
<totfact> 0.21040741E+07</totfact>
</mgrwt>
</event>
<event>
 4    1  0.7119201E+004  0.2186994E+02  0.7546771E-02  0.1710511E+00
         21   -1    0    0  503  502  0.00000000000E+00  0.00000000000E+00  0.36282985292E+01  0.36282985292E+01  0.00000000000E+00 0. -1.
         21   -1    0    0  501  503 -0.00000000000E+00 -0.00000000000E+00 -0.13237533868E+03  0.13237533868E+03  0.00000000000E+00 0. -1.
          2    1    1    2  501    0 -0.14174345796E+02  0.16654791970E+02 -0.68765029243E+02  0.72159014829E+02  0.00000000000E+00 0. -1.
         -2    1    1    2    0  502  0.14174345796E+02 -0.16654791970E+02 -0.59982010909E+02  0.63844622381E+02  0.00000000000E+00 0.  1.
<mgrwt>
<rscale>  2 0.21869938E+02</rscale>
<asrwt>0</asrwt>
<pdfrwt beam="1">  1       21 0.55819985E-03 0.21869938E+02</pdfrwt>
<pdfrwt beam="2">  1       21 0.20365434E-01 0.21869938E+02</pdfrwt>
<totfact> 0.14021709E+08</totfact>
</mgrwt>
</event>
<event>
 4    1  0.7119201E+004  0.3373086E+02  0.7546771E-02  0.1560169E+00
         21   -1    0    0  501  502  0.00000000000E+00  0.00000000000E+00  0.81864850004E+01  0.81864850004E+01  0.00000000000E+00 0. -1.
         21   -1    0    0  502  503 -0.00000000000E+00 -0.00000000000E+00 -0.14020359357E+03  0.14020359357E+03  0.00000000000E+00 0. -1.
          3    1    1    2  501    0 -0.30757092759E+02  0.13848174705E+02 -0.72935337964E+02  0.80357539917E+02  0.00000000000E+00 0. -1.
         -3    1    1    2    0  503  0.30757092759E+02 -0.13848174705E+02 -0.59081770601E+02  0.68032538648E+02  0.00000000000E+00 0.  1.
<mgrwt>
<rscale>  2 0.33730857E+02</rscale>
<asrwt>0</asrwt>
<pdfrwt beam="1">  1       21 0.12594593E-02 0.33730857E+02</pdfrwt>
<pdfrwt beam="2">  1       21 0.21569782E-01 0.33730857E+02</pdfrwt>
<totfact> 0.41406163E+07</totfact>
</mgrwt>
</event>
<event>
 4    1  0.7119201E+004  0.4165302E+02  0.7546771E-02  0.1496388E+00
         21   -1    0    0  501  502  0.00000000000E+00  0.00000000000E+00  0.36689972406E+01  0.36689972406E+01  0.00000000000E+00 0. -1.
         21   -1    0    0  502  503 -0.00000000000E+00 -0.00000000000E+00 -0.58103235138E+03  0.58103235138E+03  0.00000000000E+00 0. -1.
          5    1    1    2  501    0 -0.50794577780E+01  0.41342144661E+02 -0.16254721920E+03  0.16779920228E+03  0.00000000000E+00 0. -1.
         -5    1    1    2    0  503  0.50794577780E+01 -0.41342144661E+02 -0.41481613494E+03  0.41690214634E+03  0.00000000000E+00 0.  1.
<mgrwt>
<rscale>  2 0.41653017E+02</rscale>
<asrwt>0</asrwt>
<pdfrwt beam="1">  1       21 0.56446062E-03 0.41653017E+02</pdfrwt>
<pdfrwt beam="2">  1       21 0.89389671E-01 0.41653017E+02</pdfrwt>
<totfact> 0.89128783E+06</totfact>
</mgrwt>
</event>
<event>
 4    1  0.7119201E+004  0.2017411E+02  0.7546771E-02  0.1741888E+00
         21   -1    0    0  501  502  0.00000000000E+00  0.00000000000E+00  0.57395493648E+01  0.57395493648E+01  0.00000000000E+00 0. -1.
         21   -1    0    0  502  503 -0.00000000000E+00 -0.00000000000E+00 -0.10165979813E+03  0.10165979813E+03  0.00000000000E+00 0. -1.
          4    1    1    2  501    0 -0.17884249825E+02  0.93353294370E+01 -0.77493566907E+02  0.80076511409E+02  0.00000000000E+00 0.  1.
         -4    1    1    2    0  503  0.17884249825E+02 -0.93353294370E+01 -0.18426681859E+02  0.27322836087E+02  0.00000000000E+00 0. -1.
<mgrwt>
<rscale>  2 0.20174111E+02</rscale>
<asrwt>0</asrwt>
<pdfrwt beam="1">  1       21 0.88300754E-03 0.20174111E+02</pdfrwt>
<pdfrwt beam="2">  1       21 0.15639970E-01 0.20174111E+02</pdfrwt>
<totfact> 0.10925954E+08</totfact>
</mgrwt>
</event>
<event>
 4    1  0.7119201E+004  0.2420800E+02  0.7546771E-02  0.1672645E+00
         21   -1    0    0  501  502  0.00000000000E+00  0.00000000000E+00  0.86319043677E+02  0.86319043677E+02  0.00000000000E+00 0. -1.
         21   -1    0    0  502  503 -0.00000000000E+00 -0.00000000000E+00 -0.77459283015E+01  0.77459283015E+01  0.00000000000E+00 0. -1.
          4    1    1    2  501    0 -0.20324793579E+02 -0.13150289353E+02  0.55816888985E+02  0.60840384944E+02  0.00000000000E+00 0. -1.
         -4    1    1    2    0  503  0.20324793579E+02  0.13150289353E+02  0.22756226391E+02  0.33224587035E+02  0.00000000000E+00 0.  1.
<mgrwt>
<rscale>  2 0.24208002E+02</rscale>
<asrwt>0</asrwt>
<pdfrwt beam="1">  1       21 0.13279852E-01 0.24208002E+02</pdfrwt>
<pdfrwt beam="2">  1       21 0.11916813E-02 0.24208002E+02</pdfrwt>
<totfact> 0.96826076E+07</totfact>
</mgrwt>
</event>
<event>
 4    1  0.7119201E+004  0.2007066E+02  0.7546771E-02  0.1743927E+00
         21   -1    0    0  503  502  0.00000000000E+00  0.00000000000E+00  0.40007810592E+01  0.40007810592E+01  0.00000000000E+00 0. -1.
         21   -1    0    0  501  503 -0.00000000000E+00 -0.00000000000E+00 -0.10077046374E+03  0.10077046374E+03  0.00000000000E+00 0. -1.
          5    1    1    2  501    0 -0.66783194242E+01  0.18927003880E+02 -0.49881632002E+02  0.53768100556E+02  0.00000000000E+00 0.  1.
         -5    1    1    2    0  502  0.66783194242E+01 -0.18927003880E+02 -0.46888050673E+02  0.51003144238E+02  0.00000000000E+00 0. -1.
<mgrwt>
<rscale>  2 0.20070661E+02</rscale>
<asrwt>0</asrwt>
<pdfrwt beam="1">  1       21 0.61550476E-03 0.20070661E+02</pdfrwt>
<pdfrwt beam="2">  1       21 0.15503149E-01 0.20070661E+02</pdfrwt>
<totfact> 0.18905104E+08</totfact>
</mgrwt>
</event>
<event>
 4    1  0.7119201E+004  0.2993185E+02  0.7546771E-02  0.1598843E+00
         21   -1    0    0  501  502  0.00000000000E+00  0.00000000000E+00  0.15457494416E+01  0.15457494416E+01  0.00000000000E+00 0. -1.
         21   -1    0    0  502  503 -0.00000000000E+00 -0.00000000000E+00 -0.58223294815E+03  0.58223294815E+03  0.00000000000E+00 0. -1.
          1    1    1    2  501    0 -0.73443826579E+01  0.29016812576E+02 -0.30997470539E+03  0.31141649499E+03  0.00000000000E+00 0. -1.
         -1    1    1    2    0  503  0.73443826579E+01 -0.29016812576E+02 -0.27071249332E+03  0.27236220260E+03  0.00000000000E+00 0.  1.
<mgrwt>
<rscale>  2 0.29931845E+02</rscale>
<asrwt>0</asrwt>
<pdfrwt beam="1">  1       21 0.23780736E-03 0.29931845E+02</pdfrwt>
<pdfrwt beam="2">  1       21 0.89574392E-01 0.29931845E+02</pdfrwt>
<totfact> 0.30548066E+07</totfact>
</mgrwt>
</event>
<event>
 4    1  0.7119201E+004  0.2053325E+02  0.7546771E-02  0.1734927E+00
         21   -1    0    0  503  502  0.00000000000E+00  0.00000000000E+00  0.76861172349E+02  0.76861172349E+02  0.00000000000E+00 0. -1.
         21   -1    0    0  501  503 -0.00000000000E+00 -0.00000000000E+00 -0.57227182072E+01  0.57227182072E+01  0.00000000000E+00 0. -1.
          2    1    1    2  501    0  0.56704602317E+01  0.19734750246E+02  0.27160559728E+02  0.34048648890E+02  0.00000000000E+00 0.  1.
         -2    1    1    2    0  502 -0.56704602317E+01 -0.19734750246E+02  0.43977894414E+02  0.48535241666E+02  0.00000000000E+00 0. -1.
<mgrwt>
<rscale>  2 0.20533253E+02</rscale>
<asrwt>0</asrwt>
<pdfrwt beam="1">  1       21 0.11824795E-01 0.20533253E+02</pdfrwt>
<pdfrwt beam="2">  1       21 0.88041824E-03 0.20533253E+02</pdfrwt>
<totfact> 0.17654700E+08</totfact>
</mgrwt>
</event>
<event>
 4    1  0.7119201E+004  0.2327555E+02  0.7546771E-02  0.1687082E+00
         21   -1    0    0  503  502  0.00000000000E+00  0.00000000000E+00  0.28368589820E+03  0.28368589820E+03  0.00000000000E+00 0. -1.
         21   -1    0    0  501  503 -0.00000000000E+00 -0.00000000000E+00 -0.19098594685E+01  0.19098594685E+01  0.00000000000E+00 0. -1.
          2    1    1    2  501    0  0.22971202278E+02 -0.37516563005E+01  0.13952808401E+03  0.14145613202E+03  0.00000000000E+00 0.  1.
         -2    1    1    2    0  502 -0.22971202278E+02  0.37516563005E+01  0.14224795472E+03  0.14413962565E+03  0.00000000000E+00 0. -1.
<mgrwt>
<rscale>  2 0.23275546E+02</rscale>
<asrwt>0</asrwt>
<pdfrwt beam="1">  1       21 0.43643951E-01 0.23275546E+02</pdfrwt>
<pdfrwt beam="2">  1       21 0.29382476E-03 0.23275546E+02</pdfrwt>
<totfact> 0.91362572E+07</totfact>
</mgrwt>
</event>
<event>
 4    1  0.7119201E+004  0.3517052E+02  0.7546771E-02  0.1547091E+00
         21   -1    0    0  503  502  0.00000000000E+00  0.00000000000E+00  0.49459111468E+02  0.49459111468E+02  0.00000000000E+00 0.  1.
         21   -1    0    0  501  503 -0.00000000000E+00 -0.00000000000E+00 -0.25071914939E+02  0.25071914939E+02  0.00000000000E+00 0.  1.
          5    1    1    2  501    0  0.32944486986E+02 -0.12313670005E+02  0.14047491307E+02  0.37872123043E+02  0.00000000000E+00 0. -1.
         -5    1    1    2    0  502 -0.32944486986E+02  0.12313670005E+02  0.10339705222E+02  0.36658903364E+02  0.00000000000E+00 0.  1.
<mgrwt>
<rscale>  2 0.35170523E+02</rscale>
<asrwt>0</asrwt>
<pdfrwt beam="1">  1       21 0.76090941E-02 0.35170523E+02</pdfrwt>
<pdfrwt beam="2">  1       21 0.38572177E-02 0.35170523E+02</pdfrwt>
<totfact> 0.43267783E+07</totfact>
</mgrwt>
</event>
<event>
 4    1  0.7119201E+004  0.2266790E+02  0.7546771E-02  0.1696951E+00
         21   -1    0    0  501  502  0.00000000000E+00  0.00000000000E+00  0.60050771724E+01  0.60050771724E+01  0.00000000000E+00 0. -1.
         21   -1    0    0  502  503 -0.00000000000E+00 -0.00000000000E+00 -0.26091671651E+03  0.26091671651E+03  0.00000000000E+00 0. -1.
          1    1    1    2  501    0  0.19024994613E+02  0.12324087337E+02 -0.23686561778E+03  0.23794779771E+03  0.00000000000E+00 0.  1.
         -1    1    1    2    0  503 -0.19024994613E+02 -0.12324087337E+02 -0.18046021564E+02  0.28973995979E+02  0.00000000000E+00 0. -1.
<mgrwt>
<rscale>  2 0.22667897E+02</rscale>
<asrwt>0</asrwt>
<pdfrwt beam="1">  1       21 0.92385786E-03 0.22667897E+02</pdfrwt>
<pdfrwt beam="2">  1       21 0.40141041E-01 0.22667897E+02</pdfrwt>
<totfact> 0.19601717E+07</totfact>
</mgrwt>
</event>
<event>
 4    1  0.7119201E+004  0.2745565E+02  0.7546771E-02  0.1628045E+00
         21   -1    0    0  503  502  0.00000000000E+00  0.00000000000E+00  0.19212251979E+01  0.19212251979E+01  0.00000000000E+00 0.  1.
         21   -1    0    0  501  503 -0.00000000000E+00 -0.00000000000E+00 -0.41956838664E+03  0.41956838664E+03  0.00000000000E+00 0.  1.
          2    1    1    2  501    0  0.23208232499E+02 -0.14669387357E+02 -0.15515717839E+03  0.15756764575E+03  0.00000000000E+00 0. -1.
         -2    1    1    2    0  502 -0.23208232499E+02  0.14669387357E+02 -0.26248998305E+03  0.26392196608E+03  0.00000000000E+00 0.  1.
<mgrwt>
<rscale>  2 0.27455655E+02</rscale>
<asrwt>0</asrwt>
<pdfrwt beam="1">  1       21 0.29557312E-03 0.27455655E+02</pdfrwt>
<pdfrwt beam="2">  1       21 0.64548980E-01 0.27455655E+02</pdfrwt>
<totfact> 0.43501603E+07</totfact>
</mgrwt>
</event>
<event>
 4    1  0.7119201E+004  0.2047415E+02  0.7546771E-02  0.1736060E+00
         21   -1    0    0  501  502  0.00000000000E+00  0.00000000000E+00  0.63262652963E+02  0.63262652963E+02  0.00000000000E+00 0. -1.
         21   -1    0    0  502  503 -0.00000000000E+00 -0.00000000000E+00 -0.11473063593E+02  0.11473063593E+02  0.00000000000E+00 0. -1.
          1    1    1    2  501    0  0.13865327302E+02 -0.15064638008E+02  0.16069392872E+01  0.20537109665E+02  0.00000000000E+00 0.  1.
         -1    1    1    2    0  503 -0.13865327302E+02  0.15064638008E+02  0.50182650083E+02  0.54198606891E+02  0.00000000000E+00 0. -1.
<mgrwt>
<rscale>  2 0.20474145E+02</rscale>
<asrwt>0</asrwt>
<pdfrwt beam="1">  1       21 0.97327157E-02 0.20474145E+02</pdfrwt>
<pdfrwt beam="2">  1       21 0.17650867E-02 0.20474145E+02</pdfrwt>
<totfact> 0.85423622E+07</totfact>
</mgrwt>
</event>
<event>
 4    1  0.7119201E+004  0.3804220E+02  0.7546771E-02  0.1523134E+00
         21   -1    0    0  501  502  0.00000000000E+00  0.00000000000E+00  0.25532052332E+02  0.25532052332E+02  0.00000000000E+00 0. -1.
         21   -1    0    0  502  503 -0.00000000000E+00 -0.00000000000E+00 -0.58876165186E+02  0.58876165186E+02  0.00000000000E+00 0. -1.
          4    1    1    2  501    0 -0.37305490544E+02 -0.74504740491E+01 -0.24819365975E+02  0.45422572755E+02  0.00000000000E+00 0. -1.
         -4    1    1    2    0  503  0.37305490544E+02  0.74504740491E+01 -0.85247468788E+01  0.38985644763E+02  0.00000000000E+00 0.  1.
<mgrwt>
<rscale>  2 0.38042203E+02</rscale>
<asrwt>0</asrwt>
<pdfrwt beam="1">  1       21 0.39280081E-02 0.38042203E+02</pdfrwt>
<pdfrwt beam="2">  1       21 0.90578715E-02 0.38042203E+02</pdfrwt>
<totfact> 0.31909033E+07</totfact>
</mgrwt>
</event>
<event>
 4    1  0.7119201E+004  0.2274551E+02  0.7546771E-02  0.1695669E+00
         21   -1    0    0  501  502  0.00000000000E+00  0.00000000000E+00  0.21514758866E+02  0.21514758866E+02  0.00000000000E+00 0.  1.
         21   -1    0    0  502  503 -0.00000000000E+00 -0.00000000000E+00 -0.26941948612E+02  0.26941948612E+02  0.00000000000E+00 0.  1.
          5    1    1    2  501    0 -0.20690502456E+02 -0.94478288768E+01  0.52288533217E+01  0.23338793230E+02  0.00000000000E+00 0.  1.
         -5    1    1    2    0  503  0.20690502456E+02  0.94478288768E+01 -0.10656043067E+02  0.25117914249E+02  0.00000000000E+00 0. -1.
<mgrwt>
<rscale>  2 0.22745513E+02</rscale>
<asrwt>0</asrwt>
<pdfrwt beam="1">  1       21 0.33099629E-02 0.22745513E+02</pdfrwt>
<pdfrwt beam="2">  1       21 0.41449151E-02 0.22745513E+02</pdfrwt>
<totfact> 0.13191300E+08</totfact>
</mgrwt>
</event>
<event>
 4    1  0.7119201E+004  0.2126102E+02  0.7546771E-02  0.1721355E+00
         21   -1    0    0  501  502  0.00000000000E+00  0.00000000000E+00  0.48072417165E+02  0.48072417165E+02  0.00000000000E+00 0. -1.
         21   -1    0    0  502  503 -0.00000000000E+00 -0.00000000000E+00 -0.15460350118E+02  0.15460350118E+02  0.00000000000E+00 0. -1.
          4    1    1    2  501    0  0.20549942362E+02  0.54525940715E+01  0.36189632577E+02  0.41972853361E+02  0.00000000000E+00 0. -1.
         -4    1    1    2    0  503 -0.20549942362E+02 -0.54525940715E+01 -0.35775655301E+01  0.21559913922E+02  0.00000000000E+00 0.  1.
<mgrwt>
<rscale>  2 0.21261019E+02</rscale>
<asrwt>0</asrwt>
<pdfrwt beam="1">  1       21 0.73957564E-02 0.21261019E+02</pdfrwt>
<pdfrwt beam="2">  1       21 0.23785154E-02 0.21261019E+02</pdfrwt>
<totfact> 0.85612159E+07</totfact>
</mgrwt>
</event>
<event>
 4    1  0.7119201E+004  0.2191521E+02  0.7546771E-02  0.1709722E+00
         21   -1    0    0  503  502  0.00000000000E+00  0.00000000000E+00  0.38356451922E+03  0.38356451922E+03  0.00000000000E+00 0. -1.
         21   -1    0    0  501  503 -0.00000000000E+00 -0.00000000000E+00 -0.18401585175E+01  0.18401585175E+01  0.00000000000E+00 0. -1.
          5    1    1    2  501    0 -0.18649942306E+02  0.11508966060E+02  0.29979398656E+03  0.30059393045E+03  0.00000000000E+00 0.  1.
         -5    1    1    2    0  502  0.18649942306E+02 -0.11508966060E+02  0.81930374144E+02  0.84810747285E+02  0.00000000000E+00 0. -1.
<mgrwt>
<rscale>  2 0.21915215E+02</rscale>
<asrwt>0</asrwt>
<pdfrwt beam="1">  1       21 0.59009863E-01 0.21915215E+02</pdfrwt>
<pdfrwt beam="2">  1       21 0.28310162E-03 0.21915215E+02</pdfrwt>
<totfact> 0.52807925E+07</totfact>
</mgrwt>
</event>
<event>
 4    1  0.7119201E+004  0.2375435E+02  0.7546771E-02  0.1679566E+00
         21   -1    0    0  501  502  0.00000000000E+00  0.00000000000E+00  0.31854590800E+02  0.31854590800E+02  0.00000000000E+00 0. -1.
         21   -1    0    0  502  503 -0.00000000000E+00 -0.00000000000E+00 -0.18640773797E+02  0.18640773797E+02  0.00000000000E+00 0. -1.
          4    1    1    2  501    0 -0.20721320744E+02 -0.11614472482E+02  0.12236791215E+02  0.26720931190E+02  0.00000000000E+00 0. -1.
         -4    1    1    2    0  503  0.20721320744E+02  0.11614472482E+02  0.97702578831E+00  0.23774433407E+02  0.00000000000E+00 0.  1.
<mgrwt>
<rscale>  2 0.23754349E+02</rscale>
<asrwt>0</asrwt>
<pdfrwt beam="1">  1       21 0.49007063E-02 0.23754349E+02</pdfrwt>
<pdfrwt beam="2">  1       21 0.28678114E-02 0.23754349E+02</pdfrwt>
<totfact> 0.12815413E+08</totfact>
</mgrwt>
</event>
<event>
 4    1  0.7119201E+004  0.2342502E+02  0.7546771E-02  0.1684712E+00
         21   -1    0    0  503  502  0.00000000000E+00  0.00000000000E+00  0.16853380448E+03  0.16853380448E+03  0.00000000000E+00 0. -1.
         21   -1    0    0  501  503 -0.00000000000E+00 -0.00000000000E+00 -0.42167223865E+01  0.42167223865E+01  0.00000000000E+00 0. -1.
          2    1    1    2  501    0 -0.23421338817E+02  0.41519179147E+00  0.12338920954E+03  0.12559310701E+03  0.00000000000E+00 0. -1.
         -2    1    1    2    0  502  0.23421338817E+02 -0.41519179147E+00  0.40927872547E+02  0.47157419855E+02  0.00000000000E+00 0.  1.
<mgrwt>
<rscale>  2 0.23425019E+02</rscale>
<asrwt>0</asrwt>
<pdfrwt beam="1">  1       21 0.25928272E-01 0.23425019E+02</pdfrwt>
<pdfrwt beam="2">  1       21 0.64872665E-03 0.23425019E+02</pdfrwt>
<totfact> 0.74655492E+07</totfact>
</mgrwt>
</event>
<event>
 4    1  0.7119201E+004  0.2412290E+02  0.7546771E-02  0.1673929E+00
         21   -1    0    0  501  502  0.00000000000E+00  0.00000000000E+00  0.39144466492E+01  0.39144466492E+01  0.00000000000E+00 0.  1.
         21   -1    0    0  502  503 -0.00000000000E+00 -0.00000000000E+00 -0.17520352180E+03  0.17520352180E+03  0.00000000000E+00 0.  1.
          2    1    1    2  501    0  0.58313783872E+01  0.23407458680E+02 -0.50784104398E+02  0.56222231859E+02  0.00000000000E+00 0.  1.
         -2    1    1    2    0  503 -0.58313783872E+01 -0.23407458680E+02 -0.12050497076E+03  0.12289573659E+03  0.00000000000E+00 0. -1.
<mgrwt>
<rscale>  2 0.24122896E+02</rscale>
<asrwt>0</asrwt>
<pdfrwt beam="1">  1       21 0.60222254E-03 0.24122896E+02</pdfrwt>
<pdfrwt beam="2">  1       21 0.26954389E-01 0.24122896E+02</pdfrwt>
<totfact> 0.78356569E+07</totfact>
</mgrwt>
</event>
<event>
 4    1  0.7119201E+004  0.2215979E+02  0.7546771E-02  0.1705503E+00
         21   -1    0    0  503  502  0.00000000000E+00  0.00000000000E+00  0.98986177119E+02  0.98986177119E+02  0.00000000000E+00 0.  1.
         21   -1    0    0  501  503 -0.00000000000E+00 -0.00000000000E+00 -0.49773587966E+01  0.49773587966E+01  0.00000000000E+00 0.  1.
          2    1    1    2  501    0 -0.21967378947E+02 -0.29138642347E+01  0.44011403820E+02  0.49275348896E+02  0.00000000000E+00 0. -1.
         -2    1    1    2    0  502  0.21967378947E+02  0.29138642347E+01  0.49997414502E+02  0.54688187019E+02  0.00000000000E+00 0.  1.
<mgrwt>
<rscale>  2 0.22159791E+02</rscale>
<asrwt>0</asrwt>
<pdfrwt beam="1">  1       21 0.15228641E-01 0.22159791E+02</pdfrwt>
<pdfrwt beam="2">  1       21 0.76574758E-03 0.22159791E+02</pdfrwt>
<totfact> 0.14531542E+08</totfact>
</mgrwt>
</event>
<event>
 4    1  0.7119201E+004  0.2654564E+02  0.7546771E-02  0.1639745E+00
         21   -1    0    0  501  502  0.00000000000E+00  0.00000000000E+00  0.19614716393E+02  0.19614716393E+02  0.00000000000E+00 0. -1.
         21   -1    0    0  502  503 -0.00000000000E+00 -0.00000000000E+00 -0.35929416836E+02  0.35929416836E+02  0.00000000000E+00 0. -1.
          4    1    1    2  501    0  0.28508866520E+01  0.26392113224E+02 -0.84421753026E+01  0.27855726861E+02  0.00000000000E+00 0. -1.
         -4    1    1    2    0  503 -0.28508866520E+01 -0.26392113224E+02 -0.78725251405E+01  0.27688406368E+02  0.00000000000E+00 0.  1.
<mgrwt>
<rscale>  2 0.26545644E+02</rscale>
<asrwt>0</asrwt>
<pdfrwt beam="1">  1       21 0.30176487E-02 0.26545644E+02</pdfrwt>
<pdfrwt beam="2">  1       21 0.55276025E-02 0.26545644E+02</pdfrwt>
<totfact> 0.10064786E+08</totfact>
</mgrwt>
</event>
<event>
 4    1  0.7119201E+004  0.3257874E+02  0.7546771E-02  0.1571217E+00
         21   -1    0    0  503  502  0.00000000000E+00  0.00000000000E+00  0.42866722060E+03  0.42866722060E+03  0.00000000000E+00 0. -1.
         21   -1    0    0  501  503 -0.00000000000E+00 -0.00000000000E+00 -0.25427745684E+01  0.25427745684E+01  0.00000000000E+00 0. -1.
          4    1    1    2  501    0  0.17531279131E+02 -0.27459575556E+02  0.17811956364E+03  0.18107444046E+03  0.00000000000E+00 0.  1.
         -4    1    1    2    0  502 -0.17531279131E+02  0.27459575556E+02  0.24800488240E+03  0.25013555471E+03  0.00000000000E+00 0. -1.
<mgrwt>
<rscale>  2 0.32578736E+02</rscale>
<asrwt>0</asrwt>
<pdfrwt beam="1">  1       21 0.65948746E-01 0.32578736E+02</pdfrwt>
<pdfrwt beam="2">  1       21 0.39119643E-03 0.32578736E+02</pdfrwt>
<totfact> 0.28434874E+07</totfact>
</mgrwt>
</event>
<event>
 4    1  0.7119201E+004  0.2077637E+02  0.7546771E-02  0.1730316E+00
         21   -1    0    0  501  502  0.00000000000E+00  0.00000000000E+00  0.22840984064E+01  0.22840984064E+01  0.00000000000E+00 0. -1.
         21   -1    0    0  502  503 -0.00000000000E+00 -0.00000000000E+00 -0.18901317695E+03  0.18901317695E+03  0.00000000000E+00 0. -1.
          4    1    1    2  501    0 -0.16426826126E+02  0.12720727970E+02 -0.94557508947E+02  0.96813119126E+02  0.00000000000E+00 0.  1.
         -4    1    1    2    0  503  0.16426826126E+02 -0.12720727970E+02 -0.92171569596E+02  0.94484156230E+02  0.00000000000E+00 0. -1.
<mgrwt>
<rscale>  2 0.20776370E+02</rscale>
<asrwt>0</asrwt>
<pdfrwt beam="1">  1       21 0.35139979E-03 0.20776370E+02</pdfrwt>
<pdfrwt beam="2">  1       21 0.29078947E-01 0.20776370E+02</pdfrwt>
<totfact> 0.14483615E+08</totfact>
</mgrwt>
</event>
<event>
 4    1  0.7119201E+004  0.2631869E+02  0.7546771E-02  0.1642753E+00
         21   -1    0    0  501  502  0.00000000000E+00  0.00000000000E+00  0.84208649178E+00  0.84208649178E+00  0.00000000000E+00 0.  1.
         21   -1    0    0  502  503 -0.00000000000E+00 -0.00000000000E+00 -0.83741008522E+03  0.83741008522E+03  0.00000000000E+00 0.  1.
          4    1    1    2  501    0  0.15227718563E+00  0.26318253853E+02 -0.47408195899E+03  0.47481193910E+03  0.00000000000E+00 0. -1.
         -4    1    1    2    0  503 -0.15227718563E+00 -0.26318253853E+02 -0.36248603974E+03  0.36344023261E+03  0.00000000000E+00 0.  1.
<mgrwt>
<rscale>  2 0.26318694E+02</rscale>
<asrwt>0</asrwt>
<pdfrwt beam="1">  1       21 0.12955174E-03 0.26318694E+02</pdfrwt>
<pdfrwt beam="2">  1       21 0.12883235E+00 0.26318694E+02</pdfrwt>
<totfact> 0.31914159E+07</totfact>
</mgrwt>
</event>
<event>
 4    1  0.7119201E+004  0.2026970E+02  0.7546771E-02  0.1740017E+00
         21   -1    0    0  503  502  0.00000000000E+00  0.00000000000E+00  0.37183547056E+03  0.37183547056E+03  0.00000000000E+00 0.  1.
         21   -1    0    0  501  503 -0.00000000000E+00 -0.00000000000E+00 -0.11412923557E+01  0.11412923557E+01  0.00000000000E+00 0.  1.
          5    1    1    2  501    0  0.14238349088E+01 -0.20219633577E+02  0.21862370997E+03  0.21956135236E+03  0.00000000000E+00 0.  1.
         -5    1    1    2    0  502 -0.14238349088E+01  0.20219633577E+02  0.15207046823E+03  0.15341541055E+03  0.00000000000E+00 0. -1.
<mgrwt>
<rscale>  2 0.20269704E+02</rscale>
<asrwt>0</asrwt>
<pdfrwt beam="1">  1       21 0.57205361E-01 0.20269704E+02</pdfrwt>
<pdfrwt beam="2">  1       21 0.17558374E-03 0.20269704E+02</pdfrwt>
<totfact> 0.10968287E+08</totfact>
</mgrwt>
</event>
<event>
 4    1  0.7119201E+004  0.2026908E+02  0.7546771E-02  0.1740029E+00
         21   -1    0    0  503  502  0.00000000000E+00  0.00000000000E+00  0.58639043252E+01  0.58639043252E+01  0.00000000000E+00 0.  1.
         21   -1    0    0  501  503 -0.00000000000E+00 -0.00000000000E+00 -0.72720129696E+02  0.72720129696E+02  0.00000000000E+00 0.  1.
          5    1    1    2  501    0 -0.12896911857E+02 -0.15636670213E+02 -0.40940535914E+02  0.45683293136E+02  0.00000000000E+00 0.  1.
         -5    1    1    2    0  502  0.12896911857E+02  0.15636670213E+02 -0.25915689457E+02  0.32900740885E+02  0.00000000000E+00 0. -1.
<mgrwt>
<rscale>  2 0.20269085E+02</rscale>
<asrwt>0</asrwt>
<pdfrwt beam="1">  1       21 0.90213912E-03 0.20269085E+02</pdfrwt>
<pdfrwt beam="2">  1       21 0.11187712E-01 0.20269085E+02</pdfrwt>
<totfact> 0.18589642E+08</totfact>
</mgrwt>
</event>
<event>
 4    1  0.7119201E+004  0.2726107E+02  0.7546771E-02  0.1630500E+00
         21   -1    0    0  501  502  0.00000000000E+00  0.00000000000E+00  0.11499422267E+03  0.11499422267E+03  0.00000000000E+00 0.  1.
         21   -1    0    0  502  503 -0.00000000000E+00 -0.00000000000E+00 -0.74689894742E+01  0.74689894742E+01  0.00000000000E+00 0.  1.
          4    1    1    2  501    0  0.26495732651E+02  0.64142201983E+01  0.31286591792E+02  0.41497191416E+02  0.00000000000E+00 0.  1.
         -4    1    1    2    0  503 -0.26495732651E+02 -0.64142201983E+01  0.76238641403E+02  0.80966020727E+02  0.00000000000E+00 0. -1.
<mgrwt>
<rscale>  2 0.27261072E+02</rscale>
<asrwt>0</asrwt>
<pdfrwt beam="1">  1       21 0.17691418E-01 0.27261072E+02</pdfrwt>
<pdfrwt beam="2">  1       21 0.11490754E-02 0.27261072E+02</pdfrwt>
<totfact> 0.64477908E+07</totfact>
</mgrwt>
</event>
<event>
 4    1  0.7119201E+004  0.2421881E+02  0.7546771E-02  0.1672483E+00
         21   -1    0    0  501  502  0.00000000000E+00  0.00000000000E+00  0.17149662716E+02  0.17149662716E+02  0.00000000000E+00 0. -1.
         21   -1    0    0  502  503 -0.00000000000E+00 -0.00000000000E+00 -0.35569548313E+02  0.35569548313E+02  0.00000000000E+00 0. -1.
          3    1    1    2  501    0 -0.16184893462E+02 -0.18016654340E+02 -0.40411274771E+01  0.24553641711E+02  0.00000000000E+00 0.  1.
         -3    1    1    2    0  503  0.16184893462E+02  0.18016654340E+02 -0.14378758120E+02  0.28165569319E+02  0.00000000000E+00 0. -1.
<mgrwt>
<rscale>  2 0.24218807E+02</rscale>
<asrwt>0</asrwt>
<pdfrwt beam="1">  1       21 0.26384097E-02 0.24218807E+02</pdfrwt>
<pdfrwt beam="2">  1       21 0.54722382E-02 0.24218807E+02</pdfrwt>
<totfact> 0.12302019E+08</totfact>
</mgrwt>
</event>
<event>
 4    1  0.7119201E+004  0.3397795E+02  0.7546771E-02  0.1557868E+00
         21   -1    0    0  501  502  0.00000000000E+00  0.00000000000E+00  0.12937708333E+03  0.12937708333E+03  0.00000000000E+00 0.  1.
         21   -1    0    0  502  503 -0.00000000000E+00 -0.00000000000E+00 -0.89327962827E+01  0.89327962827E+01  0.00000000000E+00 0.  1.
          1    1    1    2  501    0  0.31606671690E+02  0.12470751350E+02  0.57995801043E+02  0.67216175681E+02  0.00000000000E+00 0. -1.
         -1    1    1    2    0  503 -0.31606671690E+02 -0.12470751350E+02  0.62448486008E+02  0.71093703935E+02  0.00000000000E+00 0.  1.
<mgrwt>
<rscale>  2 0.33977954E+02</rscale>
<asrwt>0</asrwt>
<pdfrwt beam="1">  1       21 0.19904165E-01 0.33977954E+02</pdfrwt>
<pdfrwt beam="2">  1       21 0.13742764E-02 0.33977954E+02</pdfrwt>
<totfact> 0.41844833E+07</totfact>
</mgrwt>
</event>
<event>
 4    1  0.7119201E+004  0.2386028E+02  0.7546771E-02  0.1677933E+00
         21   -1    0    0  501  502  0.00000000000E+00  0.00000000000E+00  0.83115500578E+02  0.83115500578E+02  0.00000000000E+00 0.  1.
         21   -1    0    0  502  503 -0.00000000000E+00 -0.00000000000E+00 -0.69209629484E+01  0.69209629484E+01  0.00000000000E+00 0.  1.
          1    1    1    2  501    0  0.23015573325E+02  0.62925531579E+01  0.42666696490E+02  0.48885169838E+02  0.00000000000E+00 0. -1.
         -1    1    1    2    0  503 -0.23015573325E+02 -0.62925531579E+01  0.33527841139E+02  0.41151293688E+02  0.00000000000E+00 0.  1.
<mgrwt>
<rscale>  2 0.23860277E+02</rscale>
<asrwt>0</asrwt>
<pdfrwt beam="1">  1       21 0.12786999E-01 0.23860277E+02</pdfrwt>
<pdfrwt beam="2">  1       21 0.10647636E-02 0.23860277E+02</pdfrwt>
<totfact> 0.12183062E+08</totfact>
</mgrwt>
</event>
<event>
 4    1  0.7119201E+004  0.2491216E+02  0.7546771E-02  0.1662267E+00
         21   -1    0    0  503  502  0.00000000000E+00  0.00000000000E+00  0.37912532315E+00  0.37912532315E+00  0.00000000000E+00 0.  1.
         21   -1    0    0  501  503 -0.00000000000E+00 -0.00000000000E+00 -0.19308683497E+04  0.19308683497E+04  0.00000000000E+00 0.  1.
          1    1    1    2  501    0 -0.10172382963E+02 -0.22740672796E+02 -0.58851260004E+03  0.58903963872E+03  0.00000000000E+00 0. -1.
         -1    1    1    2    0  502  0.10172382963E+02  0.22740672796E+02 -0.13419766244E+04  0.13422078363E+04  0.00000000000E+00 0.  1.
<mgrwt>
<rscale>  2 0.24912157E+02</rscale>
<asrwt>0</asrwt>
<pdfrwt beam="1">  1       21 0.58325538E-04 0.24912157E+02</pdfrwt>
<pdfrwt beam="2">  1       21 0.29706398E+00 0.24912157E+02</pdfrwt>
<totfact> 0.10807723E+07</totfact>
</mgrwt>
</event>
<event>
 4    1  0.7119201E+004  0.2004408E+02  0.7546771E-02  0.1744453E+00
         21   -1    0    0  501  502  0.00000000000E+00  0.00000000000E+00  0.49196144553E+02  0.49196144553E+02  0.00000000000E+00 0.  1.
         21   -1    0    0  502  503 -0.00000000000E+00 -0.00000000000E+00 -0.99399985851E+01  0.99399985851E+01  0.00000000000E+00 0.  1.
          5    1    1    2  501    0 -0.63153824505E+01 -0.19023177002E+02  0.32117220853E+02  0.37858700375E+02  0.00000000000E+00 0. -1.
         -5    1    1    2    0  503  0.63153824505E+01  0.19023177002E+02  0.71389251153E+01  0.21277442764E+02  0.00000000000E+00 0.  1.
<mgrwt>
<rscale>  2 0.20044084E+02</rscale>
<asrwt>0</asrwt>
<pdfrwt beam="1">  1       21 0.75686375E-02 0.20044084E+02</pdfrwt>
<pdfrwt beam="2">  1       21 0.15292306E-02 0.20044084E+02</pdfrwt>
<totfact> 0.15894748E+08</totfact>
</mgrwt>
</event>
<event>
 4    1  0.7119201E+004  0.2001335E+02  0.7546771E-02  0.1745063E+00
         21   -1    0    0  503  502  0.00000000000E+00  0.00000000000E+00  0.40789298057E+02  0.40789298057E+02  0.00000000000E+00 0.  1.
         21   -1    0    0  501  503 -0.00000000000E+00 -0.00000000000E+00 -0.13428758235E+02  0.13428758235E+02  0.00000000000E+00 0.  1.
          1    1    1    2  501    0  0.41909281894E+01 -0.19569625334E+02 -0.37372154542E+00  0.20016837478E+02  0.00000000000E+00 0. -1.
         -1    1    1    2    0  502 -0.41909281894E+01  0.19569625334E+02  0.27734261367E+02  0.34201218815E+02  0.00000000000E+00 0.  1.
<mgrwt>
<rscale>  2 0.20013348E+02</rscale>
<asrwt>0</asrwt>
<pdfrwt beam="1">  1       21 0.62752766E-02 0.20013348E+02</pdfrwt>
<pdfrwt beam="2">  1       21 0.20659628E-02 0.20013348E+02</pdfrwt>
<totfact> 0.13593766E+08</totfact>
</mgrwt>
</event>
<event>
 4    1  0.7119201E+004  0.4044946E+02  0.7546771E-02  0.1504930E+00
         21   -1    0    0  503  502  0.00000000000E+00  0.00000000000E+00  0.15119131723E+03  0.15119131723E+03  0.00000000000E+00 0.  1.
         21   -1    0    0  501  503 -0.00000000000E+00 -0.00000000000E+00 -0.15342600578E+02  0.15342600578E+02  0.00000000000E+00 0.  1.
          1    1    1    2  501    0 -0.40366819717E+02  0.25843478988E+01  0.22725037573E+02  0.46395973110E+02  0.00000000000E+00 0.  1.
         -1    1    1    2    0  502  0.40366819717E+02 -0.25843478988E+01  0.11312367908E+03  0.12013794470E+03  0.00000000000E+00 0. -1.
<mgrwt>
<rscale>  2 0.40449462E+02</rscale>
<asrwt>0</asrwt>
<pdfrwt beam="1">  1       21 0.23260202E-01 0.40449462E+02</pdfrwt>
<pdfrwt beam="2">  1       21 0.23604002E-02 0.40449462E+02</pdfrwt>
<totfact> 0.14063692E+07</totfact>
</mgrwt>
</event>
<event>
 4    1  0.7119201E+004  0.2107965E+02  0.7546771E-02  0.1724673E+00
         21   -1    0    0  501  502  0.00000000000E+00  0.00000000000E+00  0.38187933743E+00  0.38187933743E+00  0.00000000000E+00 0.  1.
         21   -1    0    0  502  503 -0.00000000000E+00 -0.00000000000E+00 -0.11672588775E+04  0.11672588775E+04  0.00000000000E+00 0.  1.
          4    1    1    2  501    0 -0.20753824610E+02 -0.36919099759E+01 -0.55071261211E+03  0.55111589759E+03  0.00000000000E+00 0.  1.
         -4    1    1    2    0  503  0.20753824610E+02  0.36919099759E+01 -0.61616438605E+03  0.61652485925E+03  0.00000000000E+00 0. -1.
<mgrwt>
<rscale>  2 0.21079645E+02</rscale>
<asrwt>0</asrwt>
<pdfrwt beam="1">  1       21 0.58751589E-04 0.21079645E+02</pdfrwt>
<pdfrwt beam="2">  1       21 0.17957547E+00 0.21079645E+02</pdfrwt>
<totfact> 0.42697647E+07</totfact>
</mgrwt>
</event>
<event>
 4    1  0.7119201E+004  0.2946512E+02  0.7546771E-02  0.1604077E+00
         21   -1    0    0  501  502  0.00000000000E+00  0.00000000000E+00  0.23577607106E+02  0.23577607106E+02  0.00000000000E+00 0.  1.
         21   -1    0    0  502  503 -0.00000000000E+00 -0.00000000000E+00 -0.47872223409E+02  0.47872223409E+02  0.00000000000E+00 0.  1.
          4    1    1    2  501    0 -0.13798484785E+01 -0.29432793270E+02  0.50159363956E+01  0.29889010010E+02  0.00000000000E+00 0.  1.
         -4    1    1    2    0  503  0.13798484785E+01  0.29432793270E+02 -0.29310552699E+02  0.41560820505E+02  0.00000000000E+00 0. -1.
<mgrwt>
<rscale>  2 0.29465120E+02</rscale>
<asrwt>0</asrwt>
<pdfrwt beam="1">  1       21 0.36273242E-02 0.29465120E+02</pdfrwt>
<pdfrwt beam="2">  1       21 0.73649574E-02 0.29465120E+02</pdfrwt>
<totfact> 0.48500746E+07</totfact>
</mgrwt>
</event>
<event>
 4    1  0.7119201E+004  0.3159198E+02  0.7546771E-02  0.1581130E+00
         21   -1    0    0  501  502  0.00000000000E+00  0.00000000000E+00  0.79418217160E+01  0.79418217160E+01  0.00000000000E+00 0.  1.
         21   -1    0    0  502  503 -0.00000000000E+00 -0.00000000000E+00 -0.12625721397E+03  0.12625721397E+03  0.00000000000E+00 0.  1.
          3    1    1    2  501    0  0.24062247818E+02 -0.20470988473E+02 -0.54583820778E+02  0.63067001116E+02  0.00000000000E+00 0. -1.
         -3    1    1    2    0  503 -0.24062247818E+02  0.20470988473E+02 -0.63731571473E+02  0.71132034566E+02  0.00000000000E+00 0.  1.
<mgrwt>
<rscale>  2 0.31591979E+02</rscale>
<asrwt>0</asrwt>
<pdfrwt beam="1">  1       21 0.12218188E-02 0.31591979E+02</pdfrwt>
<pdfrwt beam="2">  1       21 0.19424186E-01 0.31591979E+02</pdfrwt>
<totfact> 0.51539526E+07</totfact>
</mgrwt>
</event>
<event>
 4    1  0.7119201E+004  0.2908311E+02  0.7546771E-02  0.1608451E+00
         21   -1    0    0  503  502  0.00000000000E+00  0.00000000000E+00  0.20887695953E+02  0.20887695953E+02  0.00000000000E+00 0.  1.
         21   -1    0    0  501  503 -0.00000000000E+00 -0.00000000000E+00 -0.40579228569E+02  0.40579228569E+02  0.00000000000E+00 0.  1.
          3    1    1    2  501    0  0.28825109912E+02  0.38652410401E+01 -0.11253978291E+02  0.31184596792E+02  0.00000000000E+00 0. -1.
         -3    1    1    2    0  502 -0.28825109912E+02 -0.38652410401E+01 -0.84375543252E+01  0.30282327730E+02  0.00000000000E+00 0.  1.
<mgrwt>
<rscale>  2 0.29083106E+02</rscale>
<asrwt>0</asrwt>
<pdfrwt beam="1">  1       21 0.32134917E-02 0.29083106E+02</pdfrwt>
<pdfrwt beam="2">  1       21 0.62429582E-02 0.29083106E+02</pdfrwt>
<totfact> 0.76672298E+07</totfact>
</mgrwt>
</event>
<event>
 4    1  0.7119201E+004  0.3080867E+02  0.7546771E-02  0.1589318E+00
         21   -1    0    0  503  502  0.00000000000E+00  0.00000000000E+00  0.75193126498E+03  0.75193126498E+03  0.00000000000E+00 0.  1.
         21   -1    0    0  501  503 -0.00000000000E+00 -0.00000000000E+00 -0.13465258437E+01  0.13465258437E+01  0.00000000000E+00 0.  1.
          2    1    1    2  501    0 -0.29849822594E+02  0.76264051824E+01  0.28110290155E+03  0.28278616520E+03  0.00000000000E+00 0. -1.
         -2    1    1    2    0  502  0.29849822594E+02 -0.76264051824E+01  0.46948183759E+03  0.47049162563E+03  0.00000000000E+00 0.  1.
<mgrwt>
<rscale>  2 0.30808667E+02</rscale>
<asrwt>0</asrwt>
<pdfrwt beam="1">  1       21 0.11568140E+00 0.30808667E+02</pdfrwt>
<pdfrwt beam="2">  1       21 0.20715842E-03 0.30808667E+02</pdfrwt>
<totfact> 0.21261752E+07</totfact>
</mgrwt>
</event>
<event>
 4    1  0.7119201E+004  0.2099506E+02  0.7546771E-02  0.1726235E+00
         21   -1    0    0  503  502  0.00000000000E+00  0.00000000000E+00  0.63262928498E+02  0.63262928498E+02  0.00000000000E+00 0.  1.
         21   -1    0    0  501  503 -0.00000000000E+00 -0.00000000000E+00 -0.33970288117E+02  0.33970288117E+02  0.00000000000E+00 0.  1.
          3    1    1    2  501    0  0.22919636706E+01 -0.20869582932E+02 -0.28698610466E+02  0.35558442484E+02  0.00000000000E+00 0.  1.
         -3    1    1    2    0  502 -0.22919636706E+01  0.20869582932E+02  0.57991250847E+02  0.61674774130E+02  0.00000000000E+00 0. -1.
<mgrwt>
<rscale>  2 0.20995061E+02</rscale>
<asrwt>0</asrwt>
<pdfrwt beam="1">  1       21 0.97327582E-02 0.20995061E+02</pdfrwt>
<pdfrwt beam="2">  1       21 0.52261982E-02 0.20995061E+02</pdfrwt>
<totfact> 0.15931898E+07</totfact>
</mgrwt>
</event>
<event>
 4    1  0.7119201E+004  0.2466082E+02  0.7546771E-02  0.1665922E+00
         21   -1    0    0  501  502  0.00000000000E+00  0.00000000000E+00  0.65581272298E+02  0.65581272298E+02  0.00000000000E+00 0.  1.
         21   -1    0    0  502  503 -0.00000000000E+00 -0.00000000000E+00 -0.95118503308E+01  0.95118503308E+01  0.00000000000E+00 0.  1.
          5    1    1    2  501    0  0.67420581637E+01 -0.23721315765E+02  0.33980490944E+02  0.41986068340E+02  0.00000000000E+00 0. -1.
         -5    1    1    2    0  503 -0.67420581637E+01  0.23721315765E+02  0.22088931024E+02  0.33107054289E+02  0.00000000000E+00 0.  1.
<mgrwt>
<rscale>  2 0.24660823E+02</rscale>
<asrwt>0</asrwt>
<pdfrwt beam="1">  1       21 0.10089426E-01 0.24660823E+02</pdfrwt>
<pdfrwt beam="2">  1       21 0.14633616E-02 0.24660823E+02</pdfrwt>
<totfact> 0.11289797E+08</totfact>
</mgrwt>
</event>
<event>
 4    1  0.7119201E+004  0.2656345E+02  0.7546771E-02  0.1639510E+00
         21   -1    0    0  503  502  0.00000000000E+00  0.00000000000E+00  0.13675023912E+04  0.13675023912E+04  0.00000000000E+00 0.  1.
         21   -1    0    0  501  503 -0.00000000000E+00 -0.00000000000E+00 -0.71749005739E+00  0.71749005739E+00  0.00000000000E+00 0.  1.
          3    1    1    2  501    0 -0.12735638160E+02  0.23311384152E+02  0.32085247769E+03  0.32195019732E+03  0.00000000000E+00 0.  1.
         -3    1    1    2    0  502  0.12735638160E+02 -0.23311384152E+02  0.10459324235E+04  0.10462696840E+04  0.00000000000E+00 0. -1.
<mgrwt>
<rscale>  2 0.26563454E+02</rscale>
<asrwt>0</asrwt>
<pdfrwt beam="1">  1       21 0.21038290E+00 0.26563454E+02</pdfrwt>
<pdfrwt beam="2">  1       21 0.11038418E-03 0.26563454E+02</pdfrwt>
<totfact> 0.12026654E+07</totfact>
</mgrwt>
</event>
<event>
 4    1  0.7119201E+004  0.2214339E+02  0.7546771E-02  0.1705784E+00
         21   -1    0    0  503  502  0.00000000000E+00  0.00000000000E+00  0.19186476938E+02  0.19186476938E+02  0.00000000000E+00 0. -1.
         21   -1    0    0  501  503 -0.00000000000E+00 -0.00000000000E+00 -0.25779014910E+02  0.25779014910E+02  0.00000000000E+00 0. -1.
          4    1    1    2  501    0  0.20542086800E+02  0.82675533071E+01 -0.53873692811E+01  0.22789328985E+02  0.00000000000E+00 0.  1.
         -4    1    1    2    0  502 -0.20542086800E+02 -0.82675533071E+01 -0.12051686912E+01  0.22176162864E+02  0.00000000000E+00 0. -1.
<mgrwt>
<rscale>  2 0.22143391E+02</rscale>
<asrwt>0</asrwt>
<pdfrwt beam="1">  1       21 0.29517657E-02 0.22143391E+02</pdfrwt>
<pdfrwt beam="2">  1       21 0.39660023E-02 0.22143391E+02</pdfrwt>
<totfact> 0.16765775E+08</totfact>
</mgrwt>
</event>
<event>
 4    1  0.7119201E+004  0.2059296E+02  0.7546771E-02  0.1733787E+00
         21   -1    0    0  503  502  0.00000000000E+00  0.00000000000E+00  0.80269708975E+03  0.80269708975E+03  0.00000000000E+00 0.  1.
         21   -1    0    0  501  503 -0.00000000000E+00 -0.00000000000E+00 -0.74157225335E+00  0.74157225335E+00  0.00000000000E+00 0.  1.
          1    1    1    2  501    0 -0.20232138057E+02 -0.38380647243E+01  0.18554761173E+03  0.18668686716E+03  0.00000000000E+00 0.  1.
         -1    1    1    2    0  502  0.20232138057E+02  0.38380647243E+01  0.61640790577E+03  0.61675179485E+03  0.00000000000E+00 0. -1.
<mgrwt>
<rscale>  2 0.20592964E+02</rscale>
<asrwt>0</asrwt>
<pdfrwt beam="1">  1       21 0.12349116E+00 0.20592964E+02</pdfrwt>
<pdfrwt beam="2">  1       21 0.11408868E-03 0.20592964E+02</pdfrwt>
<totfact> 0.40182956E+07</totfact>
</mgrwt>
</event>
<event>
 4    1  0.7119201E+004  0.2190091E+02  0.7546771E-02  0.1709971E+00
         21   -1    0    0  503  502  0.00000000000E+00  0.00000000000E+00  0.21955434192E+01  0.21955434192E+01  0.00000000000E+00 0. -1.
         21   -1    0    0  501  503 -0.00000000000E+00 -0.00000000000E+00 -0.35233641760E+03  0.35233641760E+03  0.00000000000E+00 0. -1.
          4    1    1    2  501    0 -0.19078569399E+02  0.10754440706E+02 -0.65803125786E+02  0.69352009116E+02  0.00000000000E+00 0.  1.
         -4    1    1    2    0  502  0.19078569399E+02 -0.10754440706E+02 -0.28433774839E+03  0.28517995190E+03  0.00000000000E+00 0. -1.
<mgrwt>
<rscale>  2 0.21900909E+02</rscale>
<asrwt>0</asrwt>
<pdfrwt beam="1">  1       21 0.33777607E-03 0.21900909E+02</pdfrwt>
<pdfrwt beam="2">  1       21 0.54205577E-01 0.21900909E+02</pdfrwt>
<totfact> 0.48291702E+07</totfact>
</mgrwt>
</event>
<event>
 4    1  0.7119201E+004  0.6812167E+02  0.7546771E-02  0.1366599E+00
         21   -1    0    0  501  502  0.00000000000E+00  0.00000000000E+00  0.75135371858E+01  0.75135371858E+01  0.00000000000E+00 0.  1.
         21   -1    0    0  502  503 -0.00000000000E+00 -0.00000000000E+00 -0.61986151038E+03  0.61986151038E+03  0.00000000000E+00 0.  1.
          2    1    1    2  501    0  0.66753040894E+02  0.13586539493E+02 -0.28733954122E+03  0.29530420667E+03  0.00000000000E+00 0.  1.
         -2    1    1    2    0  503 -0.66753040894E+02 -0.13586539493E+02 -0.32500843197E+03  0.33207084089E+03  0.00000000000E+00 0. -1.
<mgrwt>
<rscale>  2 0.68121674E+02</rscale>
<asrwt>0</asrwt>
<pdfrwt beam="1">  1       21 0.11559290E-02 0.68121674E+02</pdfrwt>
<pdfrwt beam="2">  1       21 0.95363296E-01 0.68121674E+02</pdfrwt>
<totfact> 0.26695397E+06</totfact>
</mgrwt>
</event>
<event>
 4    1  0.7119201E+004  0.2068455E+02  0.7546771E-02  0.1732048E+00
         21   -1    0    0  503  502  0.00000000000E+00  0.00000000000E+00  0.91555434144E+02  0.91555434144E+02  0.00000000000E+00 0.  1.
         21   -1    0    0  501  503 -0.00000000000E+00 -0.00000000000E+00 -0.47054558489E+01  0.47054558489E+01  0.00000000000E+00 0.  1.
          5    1    1    2  501    0 -0.12619358936E+02  0.16389094437E+02  0.47414135952E+02  0.51729594282E+02  0.00000000000E+00 0.  1.
         -5    1    1    2    0  502  0.12619358936E+02 -0.16389094437E+02  0.39435842342E+02  0.44531295711E+02  0.00000000000E+00 0. -1.
<mgrwt>
<rscale>  2 0.20684551E+02</rscale>
<asrwt>0</asrwt>
<pdfrwt beam="1">  1       21 0.14085450E-01 0.20684551E+02</pdfrwt>
<pdfrwt beam="2">  1       21 0.72391635E-03 0.20684551E+02</pdfrwt>
<totfact> 0.17657901E+08</totfact>
</mgrwt>
</event>
<event>
 4    1  0.7119201E+004  0.2226305E+02  0.7546771E-02  0.1703742E+00
         21   -1    0    0  501  502  0.00000000000E+00  0.00000000000E+00  0.98459688440E+02  0.98459688440E+02  0.00000000000E+00 0.  1.
         21   -1    0    0  502  503 -0.00000000000E+00 -0.00000000000E+00 -0.59519258503E+01  0.59519258503E+01  0.00000000000E+00 0.  1.
          4    1    1    2  501    0 -0.65107034130E+01  0.21289763195E+02  0.66756086498E+02  0.70370578798E+02  0.00000000000E+00 0.  1.
         -4    1    1    2    0  503  0.65107034130E+01 -0.21289763195E+02  0.25751676092E+02  0.34041035492E+02  0.00000000000E+00 0. -1.
<mgrwt>
<rscale>  2 0.22263047E+02</rscale>
<asrwt>0</asrwt>
<pdfrwt beam="1">  1       21 0.15147643E-01 0.22263047E+02</pdfrwt>
<pdfrwt beam="2">  1       21 0.91568097E-03 0.22263047E+02</pdfrwt>
<totfact> 0.11243868E+08</totfact>
</mgrwt>
</event>
<event>
 4    1  0.7119201E+004  0.2267643E+02  0.7546771E-02  0.1696809E+00
         21   -1    0    0  501  502  0.00000000000E+00  0.00000000000E+00  0.27638779243E+02  0.27638779243E+02  0.00000000000E+00 0.  1.
         21   -1    0    0  502  503 -0.00000000000E+00 -0.00000000000E+00 -0.21905603066E+02  0.21905603066E+02  0.00000000000E+00 0.  1.
          5    1    1    2  501    0  0.15177453393E+02  0.16848308611E+02 -0.67491102555E+01  0.23659481901E+02  0.00000000000E+00 0. -1.
         -5    1    1    2    0  503 -0.15177453393E+02 -0.16848308611E+02  0.12482286432E+02  0.25884900408E+02  0.00000000000E+00 0.  1.
<mgrwt>
<rscale>  2 0.22676433E+02</rscale>
<asrwt>0</asrwt>
<pdfrwt beam="1">  1       21 0.42521199E-02 0.22676433E+02</pdfrwt>
<pdfrwt beam="2">  1       21 0.33700928E-02 0.22676433E+02</pdfrwt>
<totfact> 0.12307420E+08</totfact>
</mgrwt>
</event>
<event>
 4    1  0.7119201E+004  0.2847391E+02  0.7546771E-02  0.1615597E+00
         21   -1    0    0  501  502  0.00000000000E+00  0.00000000000E+00  0.23477379493E+01  0.23477379493E+01  0.00000000000E+00 0. -1.
         21   -1    0    0  502  503 -0.00000000000E+00 -0.00000000000E+00 -0.35088058797E+03  0.35088058797E+03  0.00000000000E+00 0. -1.
          1    1    1    2  501    0  0.26285943431E+02 -0.10945902756E+02 -0.19646341686E+03  0.19851608946E+03  0.00000000000E+00 0.  1.
         -1    1    1    2    0  503 -0.26285943431E+02  0.10945902756E+02 -0.15206943316E+03  0.15471223646E+03  0.00000000000E+00 0. -1.
<mgrwt>
<rscale>  2 0.28473911E+02</rscale>
<asrwt>0</asrwt>
<pdfrwt beam="1">  1       21 0.36119026E-03 0.28473911E+02</pdfrwt>
<pdfrwt beam="2">  1       21 0.53981658E-01 0.28473911E+02</pdfrwt>
<totfact> 0.46766151E+07</totfact>
</mgrwt>
</event>
<event>
 4    1  0.7119201E+004  0.2602942E+02  0.7546771E-02  0.1646642E+00
         21   -1    0    0  501  502  0.00000000000E+00  0.00000000000E+00  0.15528272602E+03  0.15528272602E+03  0.00000000000E+00 0.  1.
         21   -1    0    0  502  503 -0.00000000000E+00 -0.00000000000E+00 -0.44171745638E+01  0.44171745638E+01  0.00000000000E+00 0.  1.
          4    1    1    2  501    0  0.25893959501E+02  0.26520716504E+01  0.66606648436E+02  0.71512070579E+02  0.00000000000E+00 0.  1.
         -4    1    1    2    0  503 -0.25893959501E+02 -0.26520716504E+01  0.84258903019E+02  0.88187830003E+02  0.00000000000E+00 0. -1.
<mgrwt>
<rscale>  2 0.26029418E+02</rscale>
<asrwt>0</asrwt>
<pdfrwt beam="1">  1       21 0.23889646E-01 0.26029418E+02</pdfrwt>
<pdfrwt beam="2">  1       21 0.67956543E-03 0.26029418E+02</pdfrwt>
<totfact> 0.82816145E+07</totfact>
</mgrwt>
</event>
<event>
 4    1  0.7119201E+004  0.2136558E+02  0.7546771E-02  0.1719461E+00
         21   -1    0    0  501  502  0.00000000000E+00  0.00000000000E+00  0.57397977906E+02  0.57397977906E+02  0.00000000000E+00 0.  1.
         21   -1    0    0  502  503 -0.00000000000E+00 -0.00000000000E+00 -0.79823294003E+01  0.79823294003E+01  0.00000000000E+00 0.  1.
          5    1    1    2  501    0 -0.18517014841E+02 -0.10658710838E+02  0.22727361690E+02  0.31193283328E+02  0.00000000000E+00 0.  1.
         -5    1    1    2    0  503  0.18517014841E+02  0.10658710838E+02  0.26688286815E+02  0.34187023978E+02  0.00000000000E+00 0. -1.
<mgrwt>
<rscale>  2 0.21365579E+02</rscale>
<asrwt>0</asrwt>
<pdfrwt beam="1">  1       21 0.88304579E-02 0.21365579E+02</pdfrwt>
<pdfrwt beam="2">  1       21 0.12280507E-02 0.21365579E+02</pdfrwt>
<totfact> 0.17575349E+08</totfact>
</mgrwt>
</event>
<event>
 4    1  0.7119201E+004  0.2469587E+02  0.7546771E-02  0.1665409E+00
         21   -1    0    0  501  502  0.00000000000E+00  0.00000000000E+00  0.49229164968E+00  0.49229164968E+00  0.00000000000E+00 0. -1.
         21   -1    0    0  502  503 -0.00000000000E+00 -0.00000000000E+00 -0.12922940402E+04  0.12922940402E+04  0.00000000000E+00 0. -1.
          3    1    1    2  501    0 -0.46116154314E+01 -0.24261467397E+02 -0.77732672829E+03  0.77771892629E+03  0.00000000000E+00 0.  1.
         -3    1    1    2    0  503  0.46116154314E+01  0.24261467397E+02 -0.51447502028E+03  0.51506740558E+03  0.00000000000E+00 0. -1.
<mgrwt>
<rscale>  2 0.24695866E+02</rscale>
<asrwt>0</asrwt>
<pdfrwt beam="1">  1       21 0.75736269E-04 0.24695866E+02</pdfrwt>
<pdfrwt beam="2">  1       21 0.19881685E+00 0.24695866E+02</pdfrwt>
<totfact> 0.23658064E+07</totfact>
</mgrwt>
</event>
<event>
 4    1  0.7119201E+004  0.3092504E+02  0.7546771E-02  0.1588083E+00
         21   -1    0    0  501  502  0.00000000000E+00  0.00000000000E+00  0.51321166406E+00  0.51321166406E+00  0.00000000000E+00 0.  1.
         21   -1    0    0  502  503 -0.00000000000E+00 -0.00000000000E+00 -0.22055745892E+04  0.22055745892E+04  0.00000000000E+00 0.  1.
          2    1    1    2  501    0 -0.25756546225E+02 -0.17116023425E+02 -0.15369480545E+04  0.15372591454E+04  0.00000000000E+00 0. -1.
         -2    1    1    2    0  503  0.25756546225E+02  0.17116023425E+02 -0.66811332301E+03  0.66882865542E+03  0.00000000000E+00 0.  1.
<mgrwt>
<rscale>  2 0.30925037E+02</rscale>
<asrwt>0</asrwt>
<pdfrwt beam="1">  1       21 0.78956784E-04 0.30925037E+02</pdfrwt>
<pdfrwt beam="2">  1       21 0.33931425E+00 0.30925037E+02</pdfrwt>
<totfact> 0.43224410E+06</totfact>
</mgrwt>
</event>
<event>
 4    1  0.7119201E+004  0.2067315E+02  0.7546771E-02  0.1732264E+00
         21   -1    0    0  503  502  0.00000000000E+00  0.00000000000E+00  0.23708109088E+01  0.23708109088E+01  0.00000000000E+00 0. -1.
         21   -1    0    0  501  503 -0.00000000000E+00 -0.00000000000E+00 -0.19540772391E+03  0.19540772391E+03  0.00000000000E+00 0. -1.
          5    1    1    2  501    0  0.17635282516E+02  0.10787767725E+02 -0.12404493772E+03  0.12575581774E+03  0.00000000000E+00 0.  1.
         -5    1    1    2    0  502 -0.17635282516E+02 -0.10787767725E+02 -0.68991975277E+02  0.72022717073E+02  0.00000000000E+00 0. -1.
<mgrwt>
<rscale>  2 0.20673150E+02</rscale>
<asrwt>0</asrwt>
<pdfrwt beam="1">  1       21 0.36474014E-03 0.20673150E+02</pdfrwt>
<pdfrwt beam="2">  1       21 0.30062727E-01 0.20673150E+02</pdfrwt>
<totfact> 0.12898483E+08</totfact>
</mgrwt>
</event>
<event>
 4    1  0.7119201E+004  0.2147508E+02  0.7546771E-02  0.1717492E+00
         21   -1    0    0  501  502  0.00000000000E+00  0.00000000000E+00  0.12268225760E+03  0.12268225760E+03  0.00000000000E+00 0.  1.
         21   -1    0    0  502  503 -0.00000000000E+00 -0.00000000000E+00 -0.40628943178E+01  0.40628943178E+01  0.00000000000E+00 0.  1.
          3    1    1    2  501    0 -0.10360690476E+02  0.18810502245E+02  0.76637742126E+02  0.79589713029E+02  0.00000000000E+00 0. -1.
         -3    1    1    2    0  503  0.10360690476E+02 -0.18810502245E+02  0.41981621154E+02  0.47155438887E+02  0.00000000000E+00 0.  1.
<mgrwt>
<rscale>  2 0.21475076E+02</rscale>
<asrwt>0</asrwt>
<pdfrwt beam="1">  1       21 0.18874191E-01 0.21475076E+02</pdfrwt>
<pdfrwt beam="2">  1       21 0.62506076E-03 0.21475076E+02</pdfrwt>
<totfact> 0.13466334E+08</totfact>
</mgrwt>
</event>
<event>
 4    1  0.7119201E+004  0.2322049E+02  0.7546771E-02  0.1687961E+00
         21   -1    0    0  503  502  0.00000000000E+00  0.00000000000E+00  0.82038399751E+02  0.82038399751E+02  0.00000000000E+00 0. -1.
         21   -1    0    0  501  503 -0.00000000000E+00 -0.00000000000E+00 -0.65736031305E+01  0.65736031305E+01  0.00000000000E+00 0. -1.
          3    1    1    2  501    0  0.78227196746E+01  0.21863127738E+02  0.38325329661E+02  0.44810960615E+02  0.00000000000E+00 0. -1.
         -3    1    1    2    0  502 -0.78227196746E+01 -0.21863127738E+02  0.37139466959E+02  0.43801042266E+02  0.00000000000E+00 0.  1.
<mgrwt>
<rscale>  2 0.23220493E+02</rscale>
<asrwt>0</asrwt>
<pdfrwt beam="1">  1       21 0.12621292E-01 0.23220493E+02</pdfrwt>
<pdfrwt beam="2">  1       21 0.10113236E-02 0.23220493E+02</pdfrwt>
<totfact> 0.13351209E+08</totfact>
</mgrwt>
</event>
<event>
 4    1  0.7119201E+004  0.2888281E+02  0.7546771E-02  0.1610776E+00
         21   -1    0    0  501  502  0.00000000000E+00  0.00000000000E+00  0.13654941369E+04  0.13654941369E+04  0.00000000000E+00 0.  1.
         21   -1    0    0  502  503 -0.00000000000E+00 -0.00000000000E+00 -0.68601487811E+00  0.68601487811E+00  0.00000000000E+00 0.  1.
          1    1    1    2  501    0 -0.28869318457E+02  0.88265495760E+00  0.90839832354E+03  0.90885737651E+03  0.00000000000E+00 0. -1.
         -1    1    1    2    0  503  0.28869318457E+02 -0.88265495760E+00  0.45640979852E+03  0.45732277531E+03  0.00000000000E+00 0.  1.
<mgrwt>
<rscale>  2 0.28882809E+02</rscale>
<asrwt>0</asrwt>
<pdfrwt beam="1">  1       21 0.21007385E+00 0.28882809E+02</pdfrwt>
<pdfrwt beam="2">  1       21 0.10554184E-03 0.28882809E+02</pdfrwt>
<totfact> 0.12981501E+07</totfact>
</mgrwt>
</event>
<event>
 4    1  0.7119201E+004  0.4111775E+02  0.7546771E-02  0.1500143E+00
         21   -1    0    0  501  502  0.00000000000E+00  0.00000000000E+00  0.53042873368E+02  0.53042873368E+02  0.00000000000E+00 0. -1.
         21   -1    0    0  502  503 -0.00000000000E+00 -0.00000000000E+00 -0.33245675073E+02  0.33245675073E+02  0.00000000000E+00 0. -1.
          5    1    1    2  501    0 -0.27566506066E+02  0.30508313840E+02  0.11338773156E+01  0.41133382402E+02  0.00000000000E+00 0. -1.
         -5    1    1    2    0  503  0.27566506066E+02 -0.30508313840E+02  0.18663320979E+02  0.45155166039E+02  0.00000000000E+00 0.  1.
<mgrwt>
<rscale>  2 0.41117751E+02</rscale>
<asrwt>0</asrwt>
<pdfrwt beam="1">  1       21 0.81604420E-02 0.41117751E+02</pdfrwt>
<pdfrwt beam="2">  1       21 0.51147193E-02 0.41117751E+02</pdfrwt>
<totfact> 0.25140172E+07</totfact>
</mgrwt>
</event>
<event>
 4    1  0.7119201E+004  0.2279667E+02  0.7546771E-02  0.1694827E+00
         21   -1    0    0  503  502  0.00000000000E+00  0.00000000000E+00  0.18719390606E+02  0.18719390606E+02  0.00000000000E+00 0. -1.
         21   -1    0    0  501  503 -0.00000000000E+00 -0.00000000000E+00 -0.28134898976E+02  0.28134898976E+02  0.00000000000E+00 0. -1.
          2    1    1    2  501    0 -0.13268815057E+02 -0.18537172326E+02 -0.74047301083E+01  0.23969110097E+02  0.00000000000E+00 0. -1.
         -2    1    1    2    0  502  0.13268815057E+02  0.18537172326E+02 -0.20107782620E+01  0.22885179485E+02  0.00000000000E+00 0.  1.
<mgrwt>
<rscale>  2 0.22796671E+02</rscale>
<asrwt>0</asrwt>
<pdfrwt beam="1">  1       21 0.28799062E-02 0.22796671E+02</pdfrwt>
<pdfrwt beam="2">  1       21 0.43284460E-02 0.22796671E+02</pdfrwt>
<totfact> 0.15313389E+08</totfact>
</mgrwt>
</event>
<event>
 4    1  0.7119201E+004  0.2315671E+02  0.7546771E-02  0.1688982E+00
         21   -1    0    0  501  502  0.00000000000E+00  0.00000000000E+00  0.16731507026E+01  0.16731507026E+01  0.00000000000E+00 0. -1.
         21   -1    0    0  502  503 -0.00000000000E+00 -0.00000000000E+00 -0.32366268276E+03  0.32366268276E+03  0.00000000000E+00 0. -1.
          4    1    1    2  501    0  0.21342591367E+02 -0.89848125827E+01 -0.14489704113E+03  0.14673576794E+03  0.00000000000E+00 0.  1.
         -4    1    1    2    0  503 -0.21342591367E+02  0.89848125827E+01 -0.17709249093E+03  0.17860006553E+03  0.00000000000E+00 0. -1.
<mgrwt>
<rscale>  2 0.23156707E+02</rscale>
<asrwt>0</asrwt>
<pdfrwt beam="1">  1       21 0.25740806E-03 0.23156707E+02</pdfrwt>
<pdfrwt beam="2">  1       21 0.49794208E-01 0.23156707E+02</pdfrwt>
<totfact> 0.85816079E+07</totfact>
</mgrwt>
</event>
<event>
 4    1  0.7119201E+004  0.2042911E+02  0.7546771E-02  0.1736927E+00
         21   -1    0    0  501  502  0.00000000000E+00  0.00000000000E+00  0.78365489968E+01  0.78365489968E+01  0.00000000000E+00 0.  1.
         21   -1    0    0  502  503 -0.00000000000E+00 -0.00000000000E+00 -0.55089231564E+02  0.55089231564E+02  0.00000000000E+00 0.  1.
          2    1    1    2  501    0 -0.11775427800E+02  0.16693945068E+02 -0.17887891624E+02  0.27153732130E+02  0.00000000000E+00 0. -1.
         -2    1    1    2    0  503  0.11775427800E+02 -0.16693945068E+02 -0.29364790944E+02  0.35772048432E+02  0.00000000000E+00 0.  1.
<mgrwt>
<rscale>  2 0.20429109E+02</rscale>
<asrwt>0</asrwt>
<pdfrwt beam="1">  1       21 0.12056229E-02 0.20429109E+02</pdfrwt>
<pdfrwt beam="2">  1       21 0.84752664E-02 0.20429109E+02</pdfrwt>
<totfact> 0.19051782E+08</totfact>
</mgrwt>
</event>
<event>
 4    1  0.7119201E+004  0.2930698E+02  0.7546771E-02  0.1605878E+00
         21   -1    0    0  501  502  0.00000000000E+00  0.00000000000E+00  0.46598303859E+02  0.46598303859E+02  0.00000000000E+00 0. -1.
         21   -1    0    0  502  503 -0.00000000000E+00 -0.00000000000E+00 -0.18456908962E+02  0.18456908962E+02  0.00000000000E+00 0. -1.
          2    1    1    2  501    0 -0.28961199922E+02  0.44886329896E+01  0.12875225915E+02  0.32010472809E+02  0.00000000000E+00 0.  1.
         -2    1    1    2    0  503  0.28961199922E+02 -0.44886329896E+01  0.15266168982E+02  0.33044740012E+02  0.00000000000E+00 0. -1.
<mgrwt>
<rscale>  2 0.29306977E+02</rscale>
<asrwt>0</asrwt>
<pdfrwt beam="1">  1       21 0.71689698E-02 0.29306977E+02</pdfrwt>
<pdfrwt beam="2">  1       21 0.28395245E-02 0.29306977E+02</pdfrwt>
<totfact> 0.74464668E+07</totfact>
</mgrwt>
</event>
<event>
 4    1  0.7119201E+004  0.2167063E+02  0.7546771E-02  0.1714011E+00
         21   -1    0    0  501  502  0.00000000000E+00  0.00000000000E+00  0.13865637296E+02  0.13865637296E+02  0.00000000000E+00 0. -1.
         21   -1    0    0  502  503 -0.00000000000E+00 -0.00000000000E+00 -0.44708729684E+02  0.44708729684E+02  0.00000000000E+00 0. -1.
          2    1    1    2  501    0  0.19589047413E+02 -0.92674506998E+01 -0.29842334630E+02  0.36880636616E+02  0.00000000000E+00 0.  1.
         -2    1    1    2    0  503 -0.19589047413E+02  0.92674506998E+01 -0.10007577587E+01  0.21693730364E+02  0.00000000000E+00 0. -1.
<mgrwt>
<rscale>  2 0.21670635E+02</rscale>
<asrwt>0</asrwt>
<pdfrwt beam="1">  1       21 0.21331750E-02 0.21670635E+02</pdfrwt>
<pdfrwt beam="2">  1       21 0.68782661E-02 0.21670635E+02</pdfrwt>
<totfact> 0.11442718E+08</totfact>
</mgrwt>
</event>
<event>
 4    1  0.7119201E+004  0.2531048E+02  0.7546771E-02  0.1656582E+00
         21   -1    0    0  503  502  0.00000000000E+00  0.00000000000E+00  0.23980457427E+01  0.23980457427E+01  0.00000000000E+00 0.  1.
         21   -1    0    0  501  503 -0.00000000000E+00 -0.00000000000E+00 -0.37656153341E+03  0.37656153341E+03  0.00000000000E+00 0.  1.
          1    1    1    2  501    0  0.24944104722E+02  0.42909489969E+01 -0.28922055540E+03  0.29032593799E+03  0.00000000000E+00 0.  1.
         -1    1    1    2    0  502 -0.24944104722E+02 -0.42909489969E+01 -0.84942932271E+02  0.88633641167E+02  0.00000000000E+00 0. -1.
<mgrwt>
<rscale>  2 0.25310484E+02</rscale>
<asrwt>0</asrwt>
<pdfrwt beam="1">  1       21 0.36893002E-03 0.25310484E+02</pdfrwt>
<pdfrwt beam="2">  1       21 0.57932559E-01 0.25310484E+02</pdfrwt>
<totfact> 0.38436891E+07</totfact>
</mgrwt>
</event>
<event>
 4    1  0.7119201E+004  0.2168978E+02  0.7546771E-02  0.1713673E+00
         21   -1    0    0  503  502  0.00000000000E+00  0.00000000000E+00  0.15777945603E+01  0.15777945603E+01  0.00000000000E+00 0. -1.
         21   -1    0    0  501  503 -0.00000000000E+00 -0.00000000000E+00 -0.34744460954E+03  0.34744460954E+03  0.00000000000E+00 0. -1.
          1    1    1    2  501    0 -0.31879302884E+01 -0.21454223771E+02 -0.10721237626E+03  0.10938436927E+03  0.00000000000E+00 0.  1.
         -1    1    1    2    0  502  0.31879302884E+01  0.21454223771E+02 -0.23865443871E+03  0.23963803483E+03  0.00000000000E+00 0. -1.
<mgrwt>
<rscale>  2 0.21689781E+02</rscale>
<asrwt>0</asrwt>
<pdfrwt beam="1">  1       21 0.24273724E-03 0.21689781E+02</pdfrwt>
<pdfrwt beam="2">  1       21 0.53453102E-01 0.21689781E+02</pdfrwt>
<totfact> 0.80024053E+07</totfact>
</mgrwt>
</event>
<event>
 4    1  0.7119201E+004  0.2927612E+02  0.7546771E-02  0.1606231E+00
         21   -1    0    0  503  502  0.00000000000E+00  0.00000000000E+00  0.94291494861E+00  0.94291494861E+00  0.00000000000E+00 0. -1.
         21   -1    0    0  501  503 -0.00000000000E+00 -0.00000000000E+00 -0.15502045257E+04  0.15502045257E+04  0.00000000000E+00 0. -1.
          3    1    1    2  501    0  0.17928113509E+02  0.23144627925E+02 -0.27582262626E+03  0.27737197445E+03  0.00000000000E+00 0.  1.
         -3    1    1    2    0  502 -0.17928113509E+02 -0.23144627925E+02 -0.12734389845E+04  0.12737754662E+04  0.00000000000E+00 0. -1.
<mgrwt>
<rscale>  2 0.29276117E+02</rscale>
<asrwt>0</asrwt>
<pdfrwt beam="1">  1       21 0.14506515E-03 0.29276117E+02</pdfrwt>
<pdfrwt beam="2">  1       21 0.23849085E+00 0.29276117E+02</pdfrwt>
<totfact> 0.57942830E+06</totfact>
</mgrwt>
</event>
<event>
 4    1  0.7119201E+004  0.2242196E+02  0.7546771E-02  0.1701055E+00
         21   -1    0    0  503  502  0.00000000000E+00  0.00000000000E+00  0.37421360110E+01  0.37421360110E+01  0.00000000000E+00 0. -1.
         21   -1    0    0  501  503 -0.00000000000E+00 -0.00000000000E+00 -0.13488467741E+03  0.13488467741E+03  0.00000000000E+00 0. -1.
          5    1    1    2  501    0 -0.10920681517E+01  0.22395346985E+02 -0.69948084241E+02  0.73453922076E+02  0.00000000000E+00 0.  1.
         -5    1    1    2    0  502  0.10920681517E+01 -0.22395346985E+02 -0.61194457163E+02  0.65172891350E+02  0.00000000000E+00 0. -1.
<mgrwt>
<rscale>  2 0.22421958E+02</rscale>
<asrwt>0</asrwt>
<pdfrwt beam="1">  1       21 0.57571313E-03 0.22421958E+02</pdfrwt>
<pdfrwt beam="2">  1       21 0.20751492E-01 0.22421958E+02</pdfrwt>
<totfact> 0.13057637E+08</totfact>
</mgrwt>
</event>
