<event>
 4    1  0.7521660E+004  0.2451598E+02  0.7546771E-02  0.1668053E+00
         21   -1    0    0  501  502  0.00000000000E+00  0.00000000000E+00  0.59408941788E+01  0.59408941788E+01  0.00000000000E+00 0. -1.
         21   -1    0    0  502  503 -0.00000000000E+00 -0.00000000000E+00 -0.10159452747E+03  0.10159452747E+03  0.00000000000E+00 0. -1.
          5    1    1    2  501    0  0.20450204560E+02  0.13521177142E+02 -0.44346206225E+02  0.50671679511E+02  0.00000000000E+00 0. -1.
         -5    1    1    2    0  503 -0.20450204560E+02 -0.13521177142E+02 -0.51307427070E+02  0.56863742142E+02  0.00000000000E+00 0.  1.
<mgrwt>
<rscale>  2 0.24515976E+02</rscale>
<asrwt>0</asrwt>
<pdfrwt beam="1">  1       21 0.91398372E-03 0.24515976E+02</pdfrwt>
<pdfrwt beam="2">  1       21 0.15629927E-01 0.24515976E+02</pdfrwt>
<totfact> 0.10982518E+08</totfact>
</mgrwt>
</event>
<event>
 4    1  0.7521660E+004  0.2238989E+02  0.7546771E-02  0.1701595E+00
         21   -1    0    0  503  502  0.00000000000E+00  0.00000000000E+00  0.93927660416E+01  0.93927660416E+01  0.00000000000E+00 0.  1.
         21   -1    0    0  501  503 -0.00000000000E+00 -0.00000000000E+00 -0.68747556132E+02  0.68747556132E+02  0.00000000000E+00 0.  1.
          4    1    1    2  501    0 -0.17221780260E+02 -0.14307956330E+02 -0.48154633671E+02  0.53105329993E+02  0.00000000000E+00 0. -1.
         -4    1    1    2    0  502  0.17221780260E+02  0.14307956330E+02 -0.11200156419E+02  0.25034992180E+02  0.00000000000E+00 0.  1.
<mgrwt>
<rscale>  2 0.22389893E+02</rscale>
<asrwt>0</asrwt>
<pdfrwt beam="1">  1       21 0.14450410E-02 0.22389893E+02</pdfrwt>
<pdfrwt beam="2">  1       21 0.10576547E-01 0.22389893E+02</pdfrwt>
<totfact> 0.10353580E+08</totfact>
</mgrwt>
</event>
<event>
 4    1  0.7521660E+004  0.2624649E+02  0.7546771E-02  0.1643718E+00
         21   -1    0    0  501  502  0.00000000000E+00  0.00000000000E+00  0.25565468811E+01  0.25565468811E+01  0.00000000000E+00 0.  1.
         21   -1    0    0  502  503 -0.00000000000E+00 -0.00000000000E+00 -0.28354705341E+03  0.28354705341E+03  0.00000000000E+00 0.  1.
          3    1    1    2  501    0  0.16778744094E+02 -0.20182963282E+02 -0.17238450049E+03  0.17437113944E+03  0.00000000000E+00 0. -1.
         -3    1    1    2    0  503 -0.16778744094E+02  0.20182963282E+02 -0.10860600603E+03  0.11173246085E+03  0.00000000000E+00 0.  1.
<mgrwt>
<rscale>  2 0.26246490E+02</rscale>
<asrwt>0</asrwt>
<pdfrwt beam="1">  1       21 0.39331490E-03 0.26246490E+02</pdfrwt>
<pdfrwt beam="2">  1       21 0.43622624E-01 0.26246490E+02</pdfrwt>
<totfact> 0.61404479E+07</totfact>
</mgrwt>
</event>
<event>
 4    1  0.7521660E+004  0.3344179E+02  0.7546771E-02  0.1562890E+00
         21   -1    0    0  501  502  0.00000000000E+00  0.00000000000E+00  0.73427215027E+02  0.73427215027E+02  0.00000000000E+00 0.  1.
         21   -1    0    0  502  503 -0.00000000000E+00 -0.00000000000E+00 -0.20305041864E+02  0.20305041864E+02  0.00000000000E+00 0.  1.
          2    1    1    2  501    0 -0.42000528700E+01  0.33176993034E+02  0.49989551430E+02  0.60144065070E+02  0.00000000000E+00 0.  1.
         -2    1    1    2    0  503  0.42000528700E+01 -0.33176993034E+02  0.31326217338E+01  0.33588191821E+02  0.00000000000E+00 0. -1.
<mgrwt>
<rscale>  2 0.33441790E+02</rscale>
<asrwt>0</asrwt>
<pdfrwt beam="1">  1       21 0.11296494E-01 0.33441790E+02</pdfrwt>
<pdfrwt beam="2">  1       21 0.31238526E-02 0.33441790E+02</pdfrwt>
<totfact> 0.30928516E+07</totfact>
</mgrwt>
</event>
<event>
 4    1  0.7521660E+004  0.2748596E+02  0.7546771E-02  0.1627665E+00
         21   -1    0    0  501  502  0.00000000000E+00  0.00000000000E+00  0.66556225868E+03  0.66556225868E+03  0.00000000000E+00 0. -1.
         21   -1    0    0  502  503 -0.00000000000E+00 -0.00000000000E+00 -0.11545014182E+01  0.11545014182E+01  0.00000000000E+00 0. -1.
          1    1    1    2  501    0  0.21629520202E+02 -0.16960009037E+02  0.28898644768E+03  0.29029062161E+03  0.00000000000E+00 0. -1.
         -1    1    1    2    0  503 -0.21629520202E+02  0.16960009037E+02  0.37542130958E+03  0.37642613849E+03  0.00000000000E+00 0.  1.
<mgrwt>
<rscale>  2 0.27485961E+02</rscale>
<asrwt>0</asrwt>
<pdfrwt beam="1">  1       21 0.10239389E+00 0.27485961E+02</pdfrwt>
<pdfrwt beam="2">  1       21 0.17761614E-03 0.27485961E+02</pdfrwt>
<totfact> 0.34317107E+07</totfact>
</mgrwt>
</event>
<event>
 4    1  0.7521660E+004  0.2056598E+02  0.7546771E-02  0.1734302E+00
         21   -1    0    0  503  502  0.00000000000E+00  0.00000000000E+00  0.21470684643E+01  0.21470684643E+01  0.00000000000E+00 0.  1.
         21   -1    0    0  501  503 -0.00000000000E+00 -0.00000000000E+00 -0.19969449758E+03  0.19969449758E+03  0.00000000000E+00 0.  1.
          5    1    1    2  501    0 -0.20082515810E+01 -0.20467688329E+02 -0.87037463620E+02  0.89434218358E+02  0.00000000000E+00 0.  1.
         -5    1    1    2    0  502  0.20082515810E+01  0.20467688329E+02 -0.11050996549E+03  0.11240734768E+03  0.00000000000E+00 0. -1.
<mgrwt>
<rscale>  2 0.20565975E+02</rscale>
<asrwt>0</asrwt>
<pdfrwt beam="1">  1       21 0.33031828E-03 0.20565975E+02</pdfrwt>
<pdfrwt beam="2">  1       21 0.30722225E-01 0.20565975E+02</pdfrwt>
<totfact> 0.14305644E+08</totfact>
</mgrwt>
</event>
<event>
 4    1  0.7521660E+004  0.3040291E+02  0.7546771E-02  0.1593677E+00
         21   -1    0    0  503  502  0.00000000000E+00  0.00000000000E+00  0.13079872146E+03  0.13079872146E+03  0.00000000000E+00 0. -1.
         21   -1    0    0  501  503 -0.00000000000E+00 -0.00000000000E+00 -0.71023744913E+01  0.71023744913E+01  0.00000000000E+00 0. -1.
          3    1    1    2  501    0  0.30282703824E+02 -0.27009238397E+01  0.66723427373E+02  0.73323617620E+02  0.00000000000E+00 0. -1.
         -3    1    1    2    0  502 -0.30282703824E+02  0.27009238397E+01  0.56972919600E+02  0.64577478336E+02  0.00000000000E+00 0.  1.
<mgrwt>
<rscale>  2 0.30402913E+02</rscale>
<asrwt>0</asrwt>
<pdfrwt beam="1">  1       21 0.20122878E-01 0.30402913E+02</pdfrwt>
<pdfrwt beam="2">  1       21 0.10926731E-02 0.30402913E+02</pdfrwt>
<totfact> 0.56945228E+07</totfact>
</mgrwt>
</event>
<event>
 4    1  0.7521660E+004  0.2574016E+02  0.7546771E-02  0.1650593E+00
         21   -1    0    0  503  502  0.00000000000E+00  0.00000000000E+00  0.11444173893E+01  0.11444173893E+01  0.00000000000E+00 0. -1.
         21   -1    0    0  501  503 -0.00000000000E+00 -0.00000000000E+00 -0.60370738306E+03  0.60370738306E+03  0.00000000000E+00 0. -1.
          5    1    1    2  501    0 -0.18436822569E+02 -0.17962159027E+02 -0.36252997244E+03  0.36344261789E+03  0.00000000000E+00 0.  1.
         -5    1    1    2    0  502  0.18436822569E+02  0.17962159027E+02 -0.24003299324E+03  0.24140918256E+03  0.00000000000E+00 0. -1.
<mgrwt>
<rscale>  2 0.25740155E+02</rscale>
<asrwt>0</asrwt>
<pdfrwt beam="1">  1       21 0.17606434E-03 0.25740155E+02</pdfrwt>
<pdfrwt beam="2">  1       21 0.92877992E-01 0.25740155E+02</pdfrwt>
<totfact> 0.42498884E+07</totfact>
</mgrwt>
</event>
<event>
 4    1  0.7521660E+004  0.2449754E+02  0.7546771E-02  0.1668326E+00
         21   -1    0    0  501  502  0.00000000000E+00  0.00000000000E+00  0.21423734930E+02  0.21423734930E+02  0.00000000000E+00 0.  1.
         21   -1    0    0  502  503 -0.00000000000E+00 -0.00000000000E+00 -0.28196916123E+02  0.28196916123E+02  0.00000000000E+00 0.  1.
          3    1    1    2  501    0  0.24482600659E+02 -0.85532077404E+00 -0.53938317435E+01  0.25084312419E+02  0.00000000000E+00 0. -1.
         -3    1    1    2    0  503 -0.24482600659E+02  0.85532077404E+00 -0.13793494494E+01  0.24536338634E+02  0.00000000000E+00 0.  1.
<mgrwt>
<rscale>  2 0.24497537E+02</rscale>
<asrwt>0</asrwt>
<pdfrwt beam="1">  1       21 0.32959592E-02 0.24497537E+02</pdfrwt>
<pdfrwt beam="2">  1       21 0.43379871E-02 0.24497537E+02</pdfrwt>
<totfact> 0.12631572E+08</totfact>
</mgrwt>
</event>
<event>
 4    1  0.7521660E+004  0.2291463E+02  0.7546771E-02  0.1692898E+00
         21   -1    0    0  503  502  0.00000000000E+00  0.00000000000E+00  0.84322818490E+02  0.84322818490E+02  0.00000000000E+00 0. -1.
         21   -1    0    0  501  503 -0.00000000000E+00 -0.00000000000E+00 -0.65123664992E+01  0.65123664992E+01  0.00000000000E+00 0. -1.
          5    1    1    2  501    0  0.22554165084E+02 -0.40484479624E+01  0.48412088422E+02  0.53561278914E+02  0.00000000000E+00 0.  1.
         -5    1    1    2    0  502 -0.22554165084E+02  0.40484479624E+01  0.29398363568E+02  0.37273906075E+02  0.00000000000E+00 0. -1.
<mgrwt>
<rscale>  2 0.22914631E+02</rscale>
<asrwt>0</asrwt>
<pdfrwt beam="1">  1       21 0.12972740E-01 0.22914631E+02</pdfrwt>
<pdfrwt beam="2">  1       21 0.10019026E-02 0.22914631E+02</pdfrwt>
<totfact> 0.12878955E+08</totfact>
</mgrwt>
</event>
<event>
 4    1  0.7521660E+004  0.2896993E+02  0.7546771E-02  0.1609762E+00
         21   -1    0    0  501  502  0.00000000000E+00  0.00000000000E+00  0.91162642740E+02  0.91162642740E+02  0.00000000000E+00 0. -1.
         21   -1    0    0  502  503 -0.00000000000E+00 -0.00000000000E+00 -0.92351592385E+01  0.92351592385E+01  0.00000000000E+00 0. -1.
          4    1    1    2  501    0 -0.16111148978E+02  0.24076709992E+02  0.38150350288E+02  0.47903092933E+02  0.00000000000E+00 0.  1.
         -4    1    1    2    0  503  0.16111148978E+02 -0.24076709992E+02  0.43777133213E+02  0.52494709046E+02  0.00000000000E+00 0. -1.
<mgrwt>
<rscale>  2 0.28969934E+02</rscale>
<asrwt>0</asrwt>
<pdfrwt beam="1">  1       21 0.14025021E-01 0.28969934E+02</pdfrwt>
<pdfrwt beam="2">  1       21 0.14207938E-02 0.28969934E+02</pdfrwt>
<totfact> 0.70657503E+07</totfact>
</mgrwt>
</event>
<event>
 4    1  0.7521660E+004  0.2012938E+02  0.7546771E-02  0.1742767E+00
         21   -1    0    0  501  502  0.00000000000E+00  0.00000000000E+00  0.22427786877E+03  0.22427786877E+03  0.00000000000E+00 0.  1.
         21   -1    0    0  502  503 -0.00000000000E+00 -0.00000000000E+00 -0.19278789307E+01  0.19278789307E+01  0.00000000000E+00 0.  1.
          5    1    1    2  501    0 -0.20112260225E+02 -0.82995169460E+00  0.13953688343E+03  0.14098132383E+03  0.00000000000E+00 0.  1.
         -5    1    1    2    0  503  0.20112260225E+02  0.82995169460E+00  0.82813106411E+02  0.85224423874E+02  0.00000000000E+00 0. -1.
<mgrwt>
<rscale>  2 0.20129377E+02</rscale>
<asrwt>0</asrwt>
<pdfrwt beam="1">  1       21 0.34504267E-01 0.20129377E+02</pdfrwt>
<pdfrwt beam="2">  1       21 0.29659694E-03 0.20129377E+02</pdfrwt>
<totfact> 0.13446584E+08</totfact>
</mgrwt>
</event>
<event>
 4    1  0.7521660E+004  0.2771762E+02  0.7546771E-02  0.1624780E+00
         21   -1    0    0  503  502  0.00000000000E+00  0.00000000000E+00  0.13275881183E+03  0.13275881183E+03  0.00000000000E+00 0.  1.
         21   -1    0    0  501  503 -0.00000000000E+00 -0.00000000000E+00 -0.33546924769E+02  0.33546924769E+02  0.00000000000E+00 0.  1.
          2    1    1    2  501    0 -0.96955701274E+01  0.25966561869E+02 -0.26035627399E+02  0.38027888575E+02  0.00000000000E+00 0.  1.
         -2    1    1    2    0  502  0.96955701274E+01 -0.25966561869E+02  0.12524751446E+03  0.12827784802E+03  0.00000000000E+00 0. -1.
<mgrwt>
<rscale>  2 0.27717619E+02</rscale>
<asrwt>0</asrwt>
<pdfrwt beam="1">  1       21 0.20424432E-01 0.27717619E+02</pdfrwt>
<pdfrwt beam="2">  1       21 0.51610654E-02 0.27717619E+02</pdfrwt>
<totfact> 0.48495785E+06</totfact>
</mgrwt>
</event>
<event>
 4    1  0.7521660E+004  0.2937393E+02  0.7546771E-02  0.1605114E+00
         21   -1    0    0  501  502  0.00000000000E+00  0.00000000000E+00  0.14063454709E+02  0.14063454709E+02  0.00000000000E+00 0. -1.
         21   -1    0    0  502  503 -0.00000000000E+00 -0.00000000000E+00 -0.63024325232E+02  0.63024325232E+02  0.00000000000E+00 0. -1.
          1    1    1    2  501    0 -0.17935872939E+01 -0.29319120616E+02 -0.18202746267E+02  0.34556732495E+02  0.00000000000E+00 0.  1.
         -1    1    1    2    0  503  0.17935872939E+01  0.29319120616E+02 -0.30758124256E+02  0.42531047446E+02  0.00000000000E+00 0. -1.
<mgrwt>
<rscale>  2 0.29373930E+02</rscale>
<asrwt>0</asrwt>
<pdfrwt beam="1">  1       21 0.21636084E-02 0.29373930E+02</pdfrwt>
<pdfrwt beam="2">  1       21 0.96960500E-02 0.29373930E+02</pdfrwt>
<totfact> 0.69144626E+07</totfact>
</mgrwt>
</event>
<event>
 4    1  0.7521660E+004  0.2447517E+02  0.7546771E-02  0.1668657E+00
         21   -1    0    0  503  502  0.00000000000E+00  0.00000000000E+00  0.16799018961E+02  0.16799018961E+02  0.00000000000E+00 0. -1.
         21   -1    0    0  501  503 -0.00000000000E+00 -0.00000000000E+00 -0.38892089377E+02  0.38892089377E+02  0.00000000000E+00 0. -1.
          5    1    1    2  501    0  0.23994708069E+02  0.48257328161E+01 -0.30178561698E+01  0.24660518413E+02  0.00000000000E+00 0.  1.
         -5    1    1    2    0  502 -0.23994708069E+02 -0.48257328161E+01 -0.19075214246E+02  0.31030589924E+02  0.00000000000E+00 0. -1.
<mgrwt>
<rscale>  2 0.24475165E+02</rscale>
<asrwt>0</asrwt>
<pdfrwt beam="1">  1       21 0.25844645E-02 0.24475165E+02</pdfrwt>
<pdfrwt beam="2">  1       21 0.59833983E-02 0.24475165E+02</pdfrwt>
<totfact> 0.11039023E+08</totfact>
</mgrwt>
</event>
<event>
 4    1  0.7521660E+004  0.2214651E+02  0.7546771E-02  0.1705731E+00
         21   -1    0    0  501  502  0.00000000000E+00  0.00000000000E+00  0.17816945108E+02  0.17816945108E+02  0.00000000000E+00 0.  1.
         21   -1    0    0  502  503 -0.00000000000E+00 -0.00000000000E+00 -0.30374366690E+02  0.30374366690E+02  0.00000000000E+00 0.  1.
          5    1    1    2  501    0  0.19355249344E+02  0.10762993820E+02 -0.13654667600E+02  0.26017641331E+02  0.00000000000E+00 0.  1.
         -5    1    1    2    0  503 -0.19355249344E+02 -0.10762993820E+02  0.10972460187E+01  0.22173670467E+02  0.00000000000E+00 0. -1.
<mgrwt>
<rscale>  2 0.22146506E+02</rscale>
<asrwt>0</asrwt>
<pdfrwt beam="1">  1       21 0.27410685E-02 0.22146506E+02</pdfrwt>
<pdfrwt beam="2">  1       21 0.46729795E-02 0.22146506E+02</pdfrwt>
<totfact> 0.14517233E+08</totfact>
</mgrwt>
</event>
<event>
 4    1  0.7521660E+004  0.2189675E+02  0.7546771E-02  0.1710044E+00
         21   -1    0    0  503  502  0.00000000000E+00  0.00000000000E+00  0.31287859062E+00  0.31287859062E+00  0.00000000000E+00 0. -1.
         21   -1    0    0  501  503 -0.00000000000E+00 -0.00000000000E+00 -0.20172086310E+04  0.20172086310E+04  0.00000000000E+00 0. -1.
          2    1    1    2  501    0  0.21460111809E+02 -0.43510058274E+01 -0.51393221764E+03  0.51439847588E+03  0.00000000000E+00 0. -1.
         -2    1    1    2    0  502 -0.21460111809E+02  0.43510058274E+01 -0.15029635347E+04  0.15031230337E+04  0.00000000000E+00 0.  1.
<mgrwt>
<rscale>  2 0.21896750E+02</rscale>
<asrwt>0</asrwt>
<pdfrwt beam="1">  1       21 0.48134955E-04 0.21896750E+02</pdfrwt>
<pdfrwt beam="2">  1       21 0.31034116E+00 0.21896750E+02</pdfrwt>
<totfact> 0.12177570E+07</totfact>
</mgrwt>
</event>
<event>
 4    1  0.7521660E+004  0.3004312E+02  0.7546771E-02  0.1597612E+00
         21   -1    0    0  501  502  0.00000000000E+00  0.00000000000E+00  0.81198544379E+00  0.81198544379E+00  0.00000000000E+00 0. -1.
         21   -1    0    0  502  503 -0.00000000000E+00 -0.00000000000E+00 -0.15153668008E+04  0.15153668008E+04  0.00000000000E+00 0. -1.
          2    1    1    2  501    0  0.27061303811E+02  0.13048947753E+02 -0.36595385176E+03  0.36718498174E+03  0.00000000000E+00 0.  1.
         -2    1    1    2    0  503 -0.27061303811E+02 -0.13048947753E+02 -0.11486009636E+04  0.11489938045E+04  0.00000000000E+00 0. -1.
<mgrwt>
<rscale>  2 0.30043122E+02</rscale>
<asrwt>0</asrwt>
<pdfrwt beam="1">  1       21 0.12492256E-03 0.30043122E+02</pdfrwt>
<pdfrwt beam="2">  1       21 0.23313013E+00 0.30043122E+02</pdfrwt>
<totfact> 0.76791532E+06</totfact>
</mgrwt>
</event>
<event>
 4    1  0.7521660E+004  0.2119147E+02  0.7546771E-02  0.1722622E+00
         21   -1    0    0  501  502  0.00000000000E+00  0.00000000000E+00  0.14988483713E+02  0.14988483713E+02  0.00000000000E+00 0. -1.
         21   -1    0    0  502  503 -0.00000000000E+00 -0.00000000000E+00 -0.42618522977E+02  0.42618522977E+02  0.00000000000E+00 0. -1.
          1    1    1    2  501    0  0.19674122299E+02 -0.78744766177E+01  0.18817664099E+01  0.21274856405E+02  0.00000000000E+00 0. -1.
         -1    1    1    2    0  503 -0.19674122299E+02  0.78744766177E+01 -0.29511805674E+02  0.36332150285E+02  0.00000000000E+00 0.  1.
<mgrwt>
<rscale>  2 0.21191472E+02</rscale>
<asrwt>0</asrwt>
<pdfrwt beam="1">  1       21 0.23059206E-02 0.21191472E+02</pdfrwt>
<pdfrwt beam="2">  1       21 0.65566958E-02 0.21191472E+02</pdfrwt>
<totfact> 0.10894892E+08</totfact>
</mgrwt>
</event>
<event>
 4    1  0.7521660E+004  0.2775493E+02  0.7546771E-02  0.1624319E+00
         21   -1    0    0  503  502  0.00000000000E+00  0.00000000000E+00  0.98450659552E+02  0.98450659552E+02  0.00000000000E+00 0. -1.
         21   -1    0    0  501  503 -0.00000000000E+00 -0.00000000000E+00 -0.82772178248E+01  0.82772178248E+01  0.00000000000E+00 0. -1.
          2    1    1    2  501    0 -0.27867822699E+01 -0.27614665926E+02  0.57565637301E+02  0.63907265060E+02  0.00000000000E+00 0. -1.
         -2    1    1    2    0  502  0.27867822699E+01  0.27614665926E+02  0.32607804426E+02  0.42820612317E+02  0.00000000000E+00 0.  1.
<mgrwt>
<rscale>  2 0.27754926E+02</rscale>
<asrwt>0</asrwt>
<pdfrwt beam="1">  1       21 0.15146254E-01 0.27754926E+02</pdfrwt>
<pdfrwt beam="2">  1       21 0.12734182E-02 0.27754926E+02</pdfrwt>
<totfact> 0.72443598E+07</totfact>
</mgrwt>
</event>
<event>
 4    1  0.7521660E+004  0.3596996E+02  0.7546771E-02  0.1540152E+00
         21   -1    0    0  501  502  0.00000000000E+00  0.00000000000E+00  0.41873621466E+01  0.41873621466E+01  0.00000000000E+00 0.  1.
         21   -1    0    0  502  503 -0.00000000000E+00 -0.00000000000E+00 -0.31902511765E+03  0.31902511765E+03  0.00000000000E+00 0.  1.
          2    1    1    2  501    0  0.10669769957E+02 -0.34351039822E+02 -0.12875169943E+03  0.13368185380E+03  0.00000000000E+00 0.  1.
         -2    1    1    2    0  503 -0.10669769957E+02  0.34351039822E+02 -0.18608605607E+03  0.18953062600E+03  0.00000000000E+00 0. -1.
<mgrwt>
<rscale>  2 0.35969959E+02</rscale>
<asrwt>0</asrwt>
<pdfrwt beam="1">  1       21 0.64420954E-03 0.35969959E+02</pdfrwt>
<pdfrwt beam="2">  1       21 0.49080789E-01 0.35969959E+02</pdfrwt>
<totfact> 0.24890041E+07</totfact>
</mgrwt>
</event>
<event>
 4    1  0.7521660E+004  0.2357070E+02  0.7546771E-02  0.1682423E+00
         21   -1    0    0  503  502  0.00000000000E+00  0.00000000000E+00  0.86382034909E+00  0.86382034909E+00  0.00000000000E+00 0. -1.
         21   -1    0    0  501  503 -0.00000000000E+00 -0.00000000000E+00 -0.65198445498E+03  0.65198445498E+03  0.00000000000E+00 0. -1.
          2    1    1    2  501    0  0.23565528906E+02 -0.49372418580E+00 -0.36352815211E+03  0.36429149769E+03  0.00000000000E+00 0. -1.
         -2    1    1    2    0  502 -0.23565528906E+02  0.49372418580E+00 -0.28759248253E+03  0.28855677764E+03  0.00000000000E+00 0.  1.
<mgrwt>
<rscale>  2 0.23570700E+02</rscale>
<asrwt>0</asrwt>
<pdfrwt beam="1">  1       21 0.13289600E-03 0.23570700E+02</pdfrwt>
<pdfrwt beam="2">  1       21 0.10030488E+00 0.23570700E+02</pdfrwt>
<totfact> 0.52897378E+07</totfact>
</mgrwt>
</event>
<event>
 4    1  0.7521660E+004  0.2229681E+02  0.7546771E-02  0.1703169E+00
         21   -1    0    0  503  502  0.00000000000E+00  0.00000000000E+00  0.79657264353E+01  0.79657264353E+01  0.00000000000E+00 0. -1.
         21   -1    0    0  501  503 -0.00000000000E+00 -0.00000000000E+00 -0.85167283275E+02  0.85167283275E+02  0.00000000000E+00 0. -1.
          2    1    1    2  501    0  0.11875406883E+02 -0.18871206561E+02 -0.14530041816E+02  0.26613339529E+02  0.00000000000E+00 0.  1.
         -2    1    1    2    0  502 -0.11875406883E+02  0.18871206561E+02 -0.62671515023E+02  0.66519670181E+02  0.00000000000E+00 0. -1.
<mgrwt>
<rscale>  2 0.22296810E+02</rscale>
<asrwt>0</asrwt>
<pdfrwt beam="1">  1       21 0.12254964E-02 0.22296810E+02</pdfrwt>
<pdfrwt beam="2">  1       21 0.13102659E-01 0.22296810E+02</pdfrwt>
<totfact> 0.92787698E+07</totfact>
</mgrwt>
</event>
<event>
 4    1  0.7521660E+004  0.2283701E+02  0.7546771E-02  0.1694166E+00
         21   -1    0    0  501  502  0.00000000000E+00  0.00000000000E+00  0.21620622102E+02  0.21620622102E+02  0.00000000000E+00 0. -1.
         21   -1    0    0  502  503 -0.00000000000E+00 -0.00000000000E+00 -0.27548867932E+02  0.27548867932E+02  0.00000000000E+00 0. -1.
          3    1    1    2  501    0  0.13207729413E+02 -0.18630219757E+02  0.57069452620E+01  0.23539295416E+02  0.00000000000E+00 0.  1.
         -3    1    1    2    0  503 -0.13207729413E+02  0.18630219757E+02 -0.11635191091E+02  0.25630194618E+02  0.00000000000E+00 0. -1.
<mgrwt>
<rscale>  2 0.22837014E+02</rscale>
<asrwt>0</asrwt>
<pdfrwt beam="1">  1       21 0.33262496E-02 0.22837014E+02</pdfrwt>
<pdfrwt beam="2">  1       21 0.42382874E-02 0.22837014E+02</pdfrwt>
<totfact> 0.12653402E+08</totfact>
</mgrwt>
</event>
<event>
 4    1  0.7521660E+004  0.2488754E+02  0.7546771E-02  0.1662622E+00
         21   -1    0    0  501  502  0.00000000000E+00  0.00000000000E+00  0.89467813847E+02  0.89467813847E+02  0.00000000000E+00 0.  1.
         21   -1    0    0  502  503 -0.00000000000E+00 -0.00000000000E+00 -0.69291138291E+01  0.69291138291E+01  0.00000000000E+00 0.  1.
          1    1    1    2  501    0  0.23284945629E+02 -0.87864042259E+01  0.39842788687E+02  0.46976988011E+02  0.00000000000E+00 0. -1.
         -1    1    1    2    0  503 -0.23284945629E+02  0.87864042259E+01  0.42695911330E+02  0.49419939665E+02  0.00000000000E+00 0.  1.
<mgrwt>
<rscale>  2 0.24887539E+02</rscale>
<asrwt>0</asrwt>
<pdfrwt beam="1">  1       21 0.13764278E-01 0.24887539E+02</pdfrwt>
<pdfrwt beam="2">  1       21 0.10660176E-02 0.24887539E+02</pdfrwt>
<totfact> 0.10863146E+08</totfact>
</mgrwt>
</event>
<event>
 4    1  0.7521660E+004  0.2463486E+02  0.7546771E-02  0.1666303E+00
         21   -1    0    0  503  502  0.00000000000E+00  0.00000000000E+00  0.22482863225E+01  0.22482863225E+01  0.00000000000E+00 0. -1.
         21   -1    0    0  501  503 -0.00000000000E+00 -0.00000000000E+00 -0.27097440544E+03  0.27097440544E+03  0.00000000000E+00 0. -1.
          2    1    1    2  501    0 -0.21798170870E+02  0.11476754196E+02 -0.14285109362E+03  0.14495968781E+03  0.00000000000E+00 0. -1.
         -2    1    1    2    0  502  0.21798170870E+02 -0.11476754196E+02 -0.12587502550E+03  0.12826300396E+03  0.00000000000E+00 0.  1.
<mgrwt>
<rscale>  2 0.24634856E+02</rscale>
<asrwt>0</asrwt>
<pdfrwt beam="1">  1       21 0.34589017E-03 0.24634856E+02</pdfrwt>
<pdfrwt beam="2">  1       21 0.41688374E-01 0.24634856E+02</pdfrwt>
<totfact> 0.79684901E+07</totfact>
</mgrwt>
</event>
<event>
 4    1  0.7521660E+004  0.2014710E+02  0.7546771E-02  0.1742419E+00
         21   -1    0    0  503  502  0.00000000000E+00  0.00000000000E+00  0.28592889539E+02  0.28592889539E+02  0.00000000000E+00 0. -1.
         21   -1    0    0  501  503 -0.00000000000E+00 -0.00000000000E+00 -0.21660835110E+02  0.21660835110E+02  0.00000000000E+00 0. -1.
          2    1    1    2  501    0 -0.19079372956E+02  0.64717218652E+01  0.18216629648E+02  0.27161576759E+02  0.00000000000E+00 0.  1.
         -2    1    1    2    0  502  0.19079372956E+02 -0.64717218652E+01 -0.11284575218E+02  0.23092147890E+02  0.00000000000E+00 0. -1.
<mgrwt>
<rscale>  2 0.20147100E+02</rscale>
<asrwt>0</asrwt>
<pdfrwt beam="1">  1       21 0.43989061E-02 0.20147100E+02</pdfrwt>
<pdfrwt beam="2">  1       21 0.33324362E-02 0.20147100E+02</pdfrwt>
<totfact> 0.11457873E+08</totfact>
</mgrwt>
</event>
<event>
 4    1  0.7521660E+004  0.2929685E+02  0.7546771E-02  0.1605994E+00
         21   -1    0    0  503  502  0.00000000000E+00  0.00000000000E+00  0.22378139526E+01  0.22378139526E+01  0.00000000000E+00 0.  1.
         21   -1    0    0  501  503 -0.00000000000E+00 -0.00000000000E+00 -0.40262495541E+03  0.40262495541E+03  0.00000000000E+00 0.  1.
          2    1    1    2  501    0 -0.18177666781E+01 -0.29240402346E+02 -0.15612787277E+03  0.15885281887E+03  0.00000000000E+00 0. -1.
         -2    1    1    2    0  502  0.18177666781E+01  0.29240402346E+02 -0.24425926869E+03  0.24600995050E+03  0.00000000000E+00 0.  1.
<mgrwt>
<rscale>  2 0.29296850E+02</rscale>
<asrwt>0</asrwt>
<pdfrwt beam="1">  1       21 0.34427933E-03 0.29296850E+02</pdfrwt>
<pdfrwt beam="2">  1       21 0.61942254E-01 0.29296850E+02</pdfrwt>
<totfact> 0.38301838E+07</totfact>
</mgrwt>
</event>
<event>
 4    1  0.7521660E+004  0.2022584E+02  0.7546771E-02  0.1740874E+00
         21   -1    0    0  503  502  0.00000000000E+00  0.00000000000E+00  0.92352397714E+01  0.92352397714E+01  0.00000000000E+00 0.  1.
         21   -1    0    0  501  503 -0.00000000000E+00 -0.00000000000E+00 -0.44447196541E+02  0.44447196541E+02  0.00000000000E+00 0.  1.
          5    1    1    2  501    0  0.13839239905E+02  0.14749919656E+02 -0.16040771957E+02  0.25814551245E+02  0.00000000000E+00 0.  1.
         -5    1    1    2    0  502 -0.13839239905E+02 -0.14749919656E+02 -0.19171184812E+02  0.27867885067E+02  0.00000000000E+00 0. -1.
<mgrwt>
<rscale>  2 0.20225842E+02</rscale>
<asrwt>0</asrwt>
<pdfrwt beam="1">  1       21 0.14208061E-02 0.20225842E+02</pdfrwt>
<pdfrwt beam="2">  1       21 0.68380304E-02 0.20225842E+02</pdfrwt>
<totfact> 0.20988082E+08</totfact>
</mgrwt>
</event>
<event>
 4    1  0.7521660E+004  0.2758312E+02  0.7546771E-02  0.1626451E+00
         21   -1    0    0  501  502  0.00000000000E+00  0.00000000000E+00  0.60084399317E+02  0.60084399317E+02  0.00000000000E+00 0.  1.
         21   -1    0    0  502  503 -0.00000000000E+00 -0.00000000000E+00 -0.12836026997E+02  0.12836026997E+02  0.00000000000E+00 0.  1.
          1    1    1    2  501    0  0.25316212911E+02  0.10950701962E+02  0.19386945309E+02  0.33714717232E+02  0.00000000000E+00 0.  1.
         -1    1    1    2    0  503 -0.25316212911E+02 -0.10950701962E+02  0.27861427010E+02  0.39205709082E+02  0.00000000000E+00 0. -1.
<mgrwt>
<rscale>  2 0.27583120E+02</rscale>
<asrwt>0</asrwt>
<pdfrwt beam="1">  1       21 0.92437536E-02 0.27583120E+02</pdfrwt>
<pdfrwt beam="2">  1       21 0.19747734E-02 0.27583120E+02</pdfrwt>
<totfact> 0.84893579E+07</totfact>
</mgrwt>
</event>
<event>
 4    1  0.7521660E+004  0.2341857E+02  0.7546771E-02  0.1684814E+00
         21   -1    0    0  501  502  0.00000000000E+00  0.00000000000E+00  0.64443208709E+01  0.64443208709E+01  0.00000000000E+00 0. -1.
         21   -1    0    0  502  503 -0.00000000000E+00 -0.00000000000E+00 -0.86822746419E+02  0.86822746419E+02  0.00000000000E+00 0. -1.
          3    1    1    2  501    0 -0.23321584029E+02 -0.21291079066E+01 -0.33625550363E+02  0.40976908367E+02  0.00000000000E+00 0. -1.
         -3    1    1    2    0  503  0.23321584029E+02  0.21291079066E+01 -0.46752875185E+02  0.52290158923E+02  0.00000000000E+00 0.  1.
<mgrwt>
<rscale>  2 0.23418569E+02</rscale>
<asrwt>0</asrwt>
<pdfrwt beam="1">  1       21 0.99143393E-03 0.23418569E+02</pdfrwt>
<pdfrwt beam="2">  1       21 0.13357346E-01 0.23418569E+02</pdfrwt>
<totfact> 0.12533615E+08</totfact>
</mgrwt>
</event>
<event>
 4    1  0.7521660E+004  0.2410417E+02  0.7546771E-02  0.1674213E+00
         21   -1    0    0  503  502  0.00000000000E+00  0.00000000000E+00  0.39336297717E+01  0.39336297717E+01  0.00000000000E+00 0. -1.
         21   -1    0    0  501  503 -0.00000000000E+00 -0.00000000000E+00 -0.15101319497E+03  0.15101319497E+03  0.00000000000E+00 0. -1.
          5    1    1    2  501    0  0.14263710025E+02 -0.19430835303E+02 -0.62070377241E+02  0.66586353821E+02  0.00000000000E+00 0.  1.
         -5    1    1    2    0  502 -0.14263710025E+02  0.19430835303E+02 -0.85009187954E+02  0.88360470918E+02  0.00000000000E+00 0. -1.
<mgrwt>
<rscale>  2 0.24104165E+02</rscale>
<asrwt>0</asrwt>
<pdfrwt beam="1">  1       21 0.60517395E-03 0.24104165E+02</pdfrwt>
<pdfrwt beam="2">  1       21 0.23232794E-01 0.24104165E+02</pdfrwt>
<totfact> 0.10142247E+08</totfact>
</mgrwt>
</event>
<event>
 4    1  0.7521660E+004  0.2310069E+02  0.7546771E-02  0.1689883E+00
         21   -1    0    0  503  502  0.00000000000E+00  0.00000000000E+00  0.39317124111E+02  0.39317124111E+02  0.00000000000E+00 0.  1.
         21   -1    0    0  501  503 -0.00000000000E+00 -0.00000000000E+00 -0.14818422087E+02  0.14818422087E+02  0.00000000000E+00 0.  1.
          4    1    1    2  501    0 -0.22479353131E+02 -0.53217129080E+01  0.20097214169E+02  0.30619274368E+02  0.00000000000E+00 0.  1.
         -4    1    1    2    0  502  0.22479353131E+02  0.53217129080E+01  0.44014878553E+01  0.23516271830E+02  0.00000000000E+00 0. -1.
<mgrwt>
<rscale>  2 0.23100691E+02</rscale>
<asrwt>0</asrwt>
<pdfrwt beam="1">  1       21 0.60487883E-02 0.23100691E+02</pdfrwt>
<pdfrwt beam="2">  1       21 0.22797573E-02 0.23100691E+02</pdfrwt>
<totfact> 0.12950015E+08</totfact>
</mgrwt>
</event>
<event>
 4    1  0.7521660E+004  0.2603319E+02  0.7546771E-02  0.1646590E+00
         21   -1    0    0  503  502  0.00000000000E+00  0.00000000000E+00  0.40949368538E+03  0.40949368538E+03  0.00000000000E+00 0. -1.
         21   -1    0    0  501  503 -0.00000000000E+00 -0.00000000000E+00 -0.16550363427E+01  0.16550363427E+01  0.00000000000E+00 0. -1.
          3    1    1    2  501    0  0.25618086244E+02 -0.46303893279E+01  0.20384727313E+03  0.20550288954E+03  0.00000000000E+00 0.  1.
         -3    1    1    2    0  502 -0.25618086244E+02  0.46303893279E+01  0.20399137591E+03  0.20564583218E+03  0.00000000000E+00 0. -1.
<mgrwt>
<rscale>  2 0.26033187E+02</rscale>
<asrwt>0</asrwt>
<pdfrwt beam="1">  1       21 0.62998948E-01 0.26033187E+02</pdfrwt>
<pdfrwt beam="2">  1       21 0.25462130E-03 0.26033187E+02</pdfrwt>
<totfact> 0.56202054E+07</totfact>
</mgrwt>
</event>
<event>
 4    1  0.7521660E+004  0.2367245E+02  0.7546771E-02  0.1680836E+00
         21   -1    0    0  503  502  0.00000000000E+00  0.00000000000E+00  0.26281504424E+03  0.26281504424E+03  0.00000000000E+00 0. -1.
         21   -1    0    0  501  503 -0.00000000000E+00 -0.00000000000E+00 -0.31793996100E+01  0.31793996100E+01  0.00000000000E+00 0. -1.
          2    1    1    2  501    0 -0.10454150837E+01  0.23649357321E+02  0.53491162104E+02  0.58495208502E+02  0.00000000000E+00 0. -1.
         -2    1    1    2    0  502  0.10454150837E+01 -0.23649357321E+02  0.20614448253E+03  0.20749923535E+03  0.00000000000E+00 0.  1.
<mgrwt>
<rscale>  2 0.23672452E+02</rscale>
<asrwt>0</asrwt>
<pdfrwt beam="1">  1       21 0.40433067E-01 0.23672452E+02</pdfrwt>
<pdfrwt beam="2">  1       21 0.48913861E-03 0.23672452E+02</pdfrwt>
<totfact> 0.50244008E+07</totfact>
</mgrwt>
</event>
<event>
 4    1  0.7521660E+004  0.2309412E+02  0.7546771E-02  0.1689989E+00
         21   -1    0    0  503  502  0.00000000000E+00  0.00000000000E+00  0.16059027583E+03  0.16059027583E+03  0.00000000000E+00 0.  1.
         21   -1    0    0  501  503 -0.00000000000E+00 -0.00000000000E+00 -0.35793274917E+01  0.35793274917E+01  0.00000000000E+00 0.  1.
          2    1    1    2  501    0  0.20573883411E+02 -0.10490657643E+02  0.10055258543E+03  0.10317054334E+03  0.00000000000E+00 0.  1.
         -2    1    1    2    0  502 -0.20573883411E+02  0.10490657643E+02  0.56458362911E+02  0.60999059985E+02  0.00000000000E+00 0. -1.
<mgrwt>
<rscale>  2 0.23094124E+02</rscale>
<asrwt>0</asrwt>
<pdfrwt beam="1">  1       21 0.24706191E-01 0.23094124E+02</pdfrwt>
<pdfrwt beam="2">  1       21 0.55066589E-03 0.23094124E+02</pdfrwt>
<totfact> 0.10335666E+08</totfact>
</mgrwt>
</event>
<event>
 4    1  0.7521660E+004  0.2137622E+02  0.7546771E-02  0.1719269E+00
         21   -1    0    0  503  502  0.00000000000E+00  0.00000000000E+00  0.39925493057E+01  0.39925493057E+01  0.00000000000E+00 0.  1.
         21   -1    0    0  501  503 -0.00000000000E+00 -0.00000000000E+00 -0.14081758813E+03  0.14081758813E+03  0.00000000000E+00 0.  1.
          4    1    1    2  501    0 -0.61572614046E+01  0.20470244063E+02 -0.99744295977E+02  0.10200915322E+03  0.00000000000E+00 0.  1.
         -4    1    1    2    0  502  0.61572614046E+01 -0.20470244063E+02 -0.37080742846E+02  0.42800984218E+02  0.00000000000E+00 0. -1.
<mgrwt>
<rscale>  2 0.21376219E+02</rscale>
<asrwt>0</asrwt>
<pdfrwt beam="1">  1       21 0.61423839E-03 0.21376219E+02</pdfrwt>
<pdfrwt beam="2">  1       21 0.21664243E-01 0.21376219E+02</pdfrwt>
<totfact> 0.10854916E+08</totfact>
</mgrwt>
</event>
<event>
 4    1  0.7521660E+004  0.2056751E+02  0.7546771E-02  0.1734272E+00
         21   -1    0    0  503  502  0.00000000000E+00  0.00000000000E+00  0.10105823698E+02  0.10105823698E+02  0.00000000000E+00 0. -1.
         21   -1    0    0  501  503 -0.00000000000E+00 -0.00000000000E+00 -0.50636120547E+02  0.50636120547E+02  0.00000000000E+00 0. -1.
          5    1    1    2  501    0  0.15506448805E+02 -0.13511940781E+02 -0.76207666940E+01  0.21933959588E+02  0.00000000000E+00 0.  1.
         -5    1    1    2    0  502 -0.15506448805E+02  0.13511940781E+02 -0.32909530155E+02  0.38807984658E+02  0.00000000000E+00 0. -1.
<mgrwt>
<rscale>  2 0.20567511E+02</rscale>
<asrwt>0</asrwt>
<pdfrwt beam="1">  1       21 0.15547421E-02 0.20567511E+02</pdfrwt>
<pdfrwt beam="2">  1       21 0.77901722E-02 0.20567511E+02</pdfrwt>
<totfact> 0.14915716E+08</totfact>
</mgrwt>
</event>
<event>
 4    1  0.7521660E+004  0.2658509E+02  0.7546771E-02  0.1639226E+00
         21   -1    0    0  503  502  0.00000000000E+00  0.00000000000E+00  0.76143347708E+02  0.76143347708E+02  0.00000000000E+00 0.  1.
         21   -1    0    0  501  503 -0.00000000000E+00 -0.00000000000E+00 -0.10750032284E+02  0.10750032284E+02  0.00000000000E+00 0.  1.
          5    1    1    2  501    0 -0.64972553474E+00  0.26577149389E+02  0.16641634014E+02  0.31364167382E+02  0.00000000000E+00 0.  1.
         -5    1    1    2    0  502  0.64972553474E+00 -0.26577149389E+02  0.48751681409E+02  0.55529212610E+02  0.00000000000E+00 0. -1.
<mgrwt>
<rscale>  2 0.26585090E+02</rscale>
<asrwt>0</asrwt>
<pdfrwt beam="1">  1       21 0.11714361E-01 0.26585090E+02</pdfrwt>
<pdfrwt beam="2">  1       21 0.16538512E-02 0.26585090E+02</pdfrwt>
<totfact> 0.74400859E+07</totfact>
</mgrwt>
</event>
<event>
 4    1  0.7521660E+004  0.2132835E+02  0.7546771E-02  0.1720133E+00
         21   -1    0    0  501  502  0.00000000000E+00  0.00000000000E+00  0.11214850338E+03  0.11214850338E+03  0.00000000000E+00 0.  1.
         21   -1    0    0  502  503 -0.00000000000E+00 -0.00000000000E+00 -0.57962638453E+01  0.57962638453E+01  0.00000000000E+00 0.  1.
          2    1    1    2  501    0  0.55745933780E+01 -0.20586950492E+02  0.85487471578E+02  0.88107924835E+02  0.00000000000E+00 0.  1.
         -2    1    1    2    0  503 -0.55745933780E+01  0.20586950492E+02  0.20864767954E+02  0.29836842387E+02  0.00000000000E+00 0. -1.
<mgrwt>
<rscale>  2 0.21328353E+02</rscale>
<asrwt>0</asrwt>
<pdfrwt beam="1">  1       21 0.17253614E-01 0.21328353E+02</pdfrwt>
<pdfrwt beam="2">  1       21 0.89173298E-03 0.21328353E+02</pdfrwt>
<totfact> 0.92517860E+07</totfact>
</mgrwt>
</event>
<event>
 4    1  0.7521660E+004  0.2150633E+02  0.7546771E-02  0.1716932E+00
         21   -1    0    0  503  502  0.00000000000E+00  0.00000000000E+00  0.49498456811E+02  0.49498456811E+02  0.00000000000E+00 0. -1.
         21   -1    0    0  501  503 -0.00000000000E+00 -0.00000000000E+00 -0.94675557771E+01  0.94675557771E+01  0.00000000000E+00 0. -1.
          4    1    1    2  501    0  0.13346856369E+02  0.16863683087E+02  0.23381121190E+02  0.31767895906E+02  0.00000000000E+00 0.  1.
         -4    1    1    2    0  502 -0.13346856369E+02 -0.16863683087E+02  0.16649779845E+02  0.27198116683E+02  0.00000000000E+00 0. -1.
<mgrwt>
<rscale>  2 0.21506334E+02</rscale>
<asrwt>0</asrwt>
<pdfrwt beam="1">  1       21 0.76151471E-02 0.21506334E+02</pdfrwt>
<pdfrwt beam="2">  1       21 0.14565471E-02 0.21506334E+02</pdfrwt>
<totfact> 0.17321898E+08</totfact>
</mgrwt>
</event>
<event>
 4    1  0.7521660E+004  0.2101577E+02  0.7546771E-02  0.1725851E+00
         21   -1    0    0  501  502  0.00000000000E+00  0.00000000000E+00  0.20992440103E+00  0.20992440103E+00  0.00000000000E+00 0.  1.
         21   -1    0    0  502  503 -0.00000000000E+00 -0.00000000000E+00 -0.21061010242E+04  0.21061010242E+04  0.00000000000E+00 0.  1.
          1    1    1    2  501    0  0.33024347160E+01 -0.20754670339E+02 -0.10869004174E+04  0.10871035736E+04  0.00000000000E+00 0. -1.
         -1    1    1    2    0  503 -0.33024347160E+01  0.20754670339E+02 -0.10189906824E+04  0.10192073750E+04  0.00000000000E+00 0.  1.
<mgrwt>
<rscale>  2 0.21015766E+02</rscale>
<asrwt>0</asrwt>
<pdfrwt beam="1">  1       21 0.32295368E-04 0.21015766E+02</pdfrwt>
<pdfrwt beam="2">  1       21 0.32402250E+00 0.21015766E+02</pdfrwt>
<totfact> 0.18276122E+07</totfact>
</mgrwt>
</event>
<event>
 4    1  0.7521660E+004  0.2236736E+02  0.7546771E-02  0.1701975E+00
         21   -1    0    0  503  502  0.00000000000E+00  0.00000000000E+00  0.13022488077E+03  0.13022488077E+03  0.00000000000E+00 0.  1.
         21   -1    0    0  501  503 -0.00000000000E+00 -0.00000000000E+00 -0.65493356555E+01  0.65493356555E+01  0.00000000000E+00 0.  1.
          2    1    1    2  501    0  0.22172387324E+02  0.29468877993E+01  0.10580834465E+03  0.10814668143E+03  0.00000000000E+00 0.  1.
         -2    1    1    2    0  502 -0.22172387324E+02 -0.29468877993E+01  0.17867200466E+02  0.28627534994E+02  0.00000000000E+00 0. -1.
<mgrwt>
<rscale>  2 0.22367363E+02</rscale>
<asrwt>0</asrwt>
<pdfrwt beam="1">  1       21 0.20034595E-01 0.22367363E+02</pdfrwt>
<pdfrwt beam="2">  1       21 0.10075902E-02 0.22367363E+02</pdfrwt>
<totfact> 0.60278306E+07</totfact>
</mgrwt>
</event>
<event>
 4    1  0.7521660E+004  0.2177874E+02  0.7546771E-02  0.1712107E+00
         21   -1    0    0  501  502  0.00000000000E+00  0.00000000000E+00  0.17561105130E+01  0.17561105130E+01  0.00000000000E+00 0.  1.
         21   -1    0    0  502  503 -0.00000000000E+00 -0.00000000000E+00 -0.27023231227E+03  0.27023231227E+03  0.00000000000E+00 0.  1.
          1    1    1    2  501    0 -0.13907860968E+02 -0.16759618389E+02 -0.13732431333E+03  0.13904057119E+03  0.00000000000E+00 0.  1.
         -1    1    1    2    0  503  0.13907860968E+02  0.16759618389E+02 -0.13115188842E+03  0.13294785158E+03  0.00000000000E+00 0. -1.
<mgrwt>
<rscale>  2 0.21778737E+02</rscale>
<asrwt>0</asrwt>
<pdfrwt beam="1">  1       21 0.27017116E-03 0.21778737E+02</pdfrwt>
<pdfrwt beam="2">  1       21 0.41574155E-01 0.21778737E+02</pdfrwt>
<totfact> 0.11122065E+08</totfact>
</mgrwt>
</event>
<event>
 4    1  0.7521660E+004  0.2143588E+02  0.7546771E-02  0.1718195E+00
         21   -1    0    0  503  502  0.00000000000E+00  0.00000000000E+00  0.94623111118E+02  0.94623111118E+02  0.00000000000E+00 0. -1.
         21   -1    0    0  501  503 -0.00000000000E+00 -0.00000000000E+00 -0.48771061849E+01  0.48771061849E+01  0.00000000000E+00 0. -1.
          5    1    1    2  501    0 -0.98316850366E+01  0.19048222619E+02  0.41605945831E+02  0.46803328344E+02  0.00000000000E+00 0.  1.
         -5    1    1    2    0  502  0.98316850366E+01 -0.19048222619E+02  0.48140059103E+02  0.52696888959E+02  0.00000000000E+00 0. -1.
<mgrwt>
<rscale>  2 0.21435877E+02</rscale>
<asrwt>0</asrwt>
<pdfrwt beam="1">  1       21 0.14557400E-01 0.21435877E+02</pdfrwt>
<pdfrwt beam="2">  1       21 0.75032410E-03 0.21435877E+02</pdfrwt>
<totfact> 0.16009580E+08</totfact>
</mgrwt>
</event>
<event>
 4    1  0.7521660E+004  0.5305553E+02  0.7546771E-02  0.1429525E+00
         21   -1    0    0  501  502  0.00000000000E+00  0.00000000000E+00  0.43824099602E+01  0.43824099602E+01  0.00000000000E+00 0.  1.
         21   -1    0    0  502  503 -0.00000000000E+00 -0.00000000000E+00 -0.68958599397E+03  0.68958599397E+03  0.00000000000E+00 0.  1.
          2    1    1    2  501    0 -0.51063829332E+02  0.14400510678E+02 -0.43344888813E+03  0.43668389940E+03  0.00000000000E+00 0. -1.
         -2    1    1    2    0  503  0.51063829332E+02 -0.14400510678E+02 -0.25175469588E+03  0.25728450453E+03  0.00000000000E+00 0.  1.
<mgrwt>
<rscale>  2 0.53055531E+02</rscale>
<asrwt>0</asrwt>
<pdfrwt beam="1">  1       21 0.67421686E-03 0.53055531E+02</pdfrwt>
<pdfrwt beam="2">  1       21 0.10609016E+00 0.53055531E+02</pdfrwt>
<totfact> 0.47360846E+06</totfact>
</mgrwt>
</event>
<event>
 4    1  0.7521660E+004  0.2031265E+02  0.7546771E-02  0.1739181E+00
         21   -1    0    0  501  502  0.00000000000E+00  0.00000000000E+00  0.33768288214E+02  0.33768288214E+02  0.00000000000E+00 0.  1.
         21   -1    0    0  502  503 -0.00000000000E+00 -0.00000000000E+00 -0.12598193289E+02  0.12598193289E+02  0.00000000000E+00 0.  1.
          3    1    1    2  501    0 -0.19981896300E+02  0.36507205658E+01  0.14608815656E+02  0.25020420366E+02  0.00000000000E+00 0. -1.
         -3    1    1    2    0  503  0.19981896300E+02 -0.36507205658E+01  0.65612792686E+01  0.21346061136E+02  0.00000000000E+00 0.  1.
<mgrwt>
<rscale>  2 0.20312655E+02</rscale>
<asrwt>0</asrwt>
<pdfrwt beam="1">  1       21 0.51951212E-02 0.20312655E+02</pdfrwt>
<pdfrwt beam="2">  1       21 0.19381836E-02 0.20312655E+02</pdfrwt>
<totfact> 0.20348834E+08</totfact>
</mgrwt>
</event>
<event>
 4    1  0.7521660E+004  0.4411961E+02  0.7546771E-02  0.1479914E+00
         21   -1    0    0  501  502  0.00000000000E+00  0.00000000000E+00  0.67629790454E+03  0.67629790454E+03  0.00000000000E+00 0. -1.
         21   -1    0    0  502  503 -0.00000000000E+00 -0.00000000000E+00 -0.29220131685E+01  0.29220131685E+01  0.00000000000E+00 0. -1.
          1    1    1    2  501    0  0.19882860372E+02 -0.39385431736E+02  0.29511632590E+03  0.29839602240E+03  0.00000000000E+00 0.  1.
         -1    1    1    2    0  503 -0.19882860372E+02  0.39385431736E+02  0.37825956547E+03  0.38082389531E+03  0.00000000000E+00 0. -1.
<mgrwt>
<rscale>  2 0.44119614E+02</rscale>
<asrwt>0</asrwt>
<pdfrwt beam="1">  1       21 0.10404571E+00 0.44119614E+02</pdfrwt>
<pdfrwt beam="2">  1       21 0.44954103E-03 0.44119614E+02</pdfrwt>
<totfact> 0.89980473E+06</totfact>
</mgrwt>
</event>
<event>
 4    1  0.7521660E+004  0.3127911E+02  0.7546771E-02  0.1584365E+00
         21   -1    0    0  503  502  0.00000000000E+00  0.00000000000E+00  0.13951763595E+04  0.13951763595E+04  0.00000000000E+00 0.  1.
         21   -1    0    0  501  503 -0.00000000000E+00 -0.00000000000E+00 -0.73952790199E+00  0.73952790199E+00  0.00000000000E+00 0.  1.
          1    1    1    2  501    0  0.26225283641E+02 -0.17047507377E+02  0.85598629550E+03  0.85655759940E+03  0.00000000000E+00 0. -1.
         -1    1    1    2    0  502 -0.26225283641E+02  0.17047507377E+02  0.53845053606E+03  0.53935828797E+03  0.00000000000E+00 0.  1.
<mgrwt>
<rscale>  2 0.31279115E+02</rscale>
<asrwt>0</asrwt>
<pdfrwt beam="1">  1       21 0.21464041E+00 0.31279115E+02</pdfrwt>
<pdfrwt beam="2">  1       21 0.11377464E-03 0.31279115E+02</pdfrwt>
<totfact> 0.11074644E+07</totfact>
</mgrwt>
</event>
<event>
 4    1  0.7521660E+004  0.2128790E+02  0.7546771E-02  0.1720866E+00
         21   -1    0    0  501  502  0.00000000000E+00  0.00000000000E+00  0.15258683048E+03  0.15258683048E+03  0.00000000000E+00 0.  1.
         21   -1    0    0  502  503 -0.00000000000E+00 -0.00000000000E+00 -0.29719729247E+01  0.29719729247E+01  0.00000000000E+00 0.  1.
          1    1    1    2  501    0  0.59615045048E+01  0.20436125074E+02  0.76838348489E+02  0.79732719397E+02  0.00000000000E+00 0.  1.
         -1    1    1    2    0  503 -0.59615045048E+01 -0.20436125074E+02  0.72776509071E+02  0.75826084012E+02  0.00000000000E+00 0. -1.
<mgrwt>
<rscale>  2 0.21287901E+02</rscale>
<asrwt>0</asrwt>
<pdfrwt beam="1">  1       21 0.23474891E-01 0.21287901E+02</pdfrwt>
<pdfrwt beam="2">  1       21 0.45722672E-03 0.21287901E+02</pdfrwt>
<totfact> 0.14543354E+08</totfact>
</mgrwt>
</event>
<event>
 4    1  0.7521660E+004  0.7986403E+02  0.7546771E-02  0.1329438E+00
         21   -1    0    0  501  502  0.00000000000E+00  0.00000000000E+00  0.15504925359E+03  0.15504925359E+03  0.00000000000E+00 0. -1.
         21   -1    0    0  502  503 -0.00000000000E+00 -0.00000000000E+00 -0.41261673243E+02  0.41261673243E+02  0.00000000000E+00 0. -1.
          2    1    1    2  501    0  0.74460869834E+02 -0.28876322408E+02  0.51498617321E+02  0.95028262734E+02  0.00000000000E+00 0. -1.
         -2    1    1    2    0  503 -0.74460869834E+02  0.28876322408E+02  0.62288963028E+02  0.10128266410E+03  0.00000000000E+00 0.  1.
<mgrwt>
<rscale>  2 0.79864029E+02</rscale>
<asrwt>0</asrwt>
<pdfrwt beam="1">  1       21 0.23853731E-01 0.79864029E+02</pdfrwt>
<pdfrwt beam="2">  1       21 0.63479498E-02 0.79864029E+02</pdfrwt>
<totfact> 0.28751939E+06</totfact>
</mgrwt>
</event>
<event>
 4    1  0.7521660E+004  0.2329975E+02  0.7546771E-02  0.1686697E+00
         21   -1    0    0  501  502  0.00000000000E+00  0.00000000000E+00  0.20809992793E+02  0.20809992793E+02  0.00000000000E+00 0.  1.
         21   -1    0    0  502  503 -0.00000000000E+00 -0.00000000000E+00 -0.30500509517E+02  0.30500509517E+02  0.00000000000E+00 0.  1.
          1    1    1    2  501    0 -0.21952027995E+02 -0.78093943285E+01  0.49135345056E+01  0.23812202632E+02  0.00000000000E+00 0. -1.
         -1    1    1    2    0  503  0.21952027995E+02  0.78093943285E+01 -0.14604051230E+02  0.27498299678E+02  0.00000000000E+00 0.  1.
<mgrwt>
<rscale>  2 0.23299746E+02</rscale>
<asrwt>0</asrwt>
<pdfrwt beam="1">  1       21 0.32015374E-02 0.23299746E+02</pdfrwt>
<pdfrwt beam="2">  1       21 0.46923860E-02 0.23299746E+02</pdfrwt>
<totfact> 0.11500363E+08</totfact>
</mgrwt>
</event>
<event>
 4    1  0.7521660E+004  0.2073971E+02  0.7546771E-02  0.1731006E+00
         21   -1    0    0  503  502  0.00000000000E+00  0.00000000000E+00  0.21628281104E+02  0.21628281104E+02  0.00000000000E+00 0. -1.
         21   -1    0    0  501  503 -0.00000000000E+00 -0.00000000000E+00 -0.21858718269E+02  0.21858718269E+02  0.00000000000E+00 0. -1.
          1    1    1    2  501    0  0.12356022053E+02  0.16657253278E+02  0.64141253861E+01  0.21708900760E+02  0.00000000000E+00 0.  1.
         -1    1    1    2    0  502 -0.12356022053E+02 -0.16657253278E+02 -0.66445625506E+01  0.21778098613E+02  0.00000000000E+00 0. -1.
<mgrwt>
<rscale>  2 0.20739705E+02</rscale>
<asrwt>0</asrwt>
<pdfrwt beam="1">  1       21 0.33274279E-02 0.20739705E+02</pdfrwt>
<pdfrwt beam="2">  1       21 0.33628797E-02 0.20739705E+02</pdfrwt>
<totfact> 0.17647578E+08</totfact>
</mgrwt>
</event>
<event>
 4    1  0.7521660E+004  0.2363830E+02  0.7546771E-02  0.1681368E+00
         21   -1    0    0  501  502  0.00000000000E+00  0.00000000000E+00  0.64756784630E+01  0.64756784630E+01  0.00000000000E+00 0. -1.
         21   -1    0    0  502  503 -0.00000000000E+00 -0.00000000000E+00 -0.94914929646E+02  0.94914929646E+02  0.00000000000E+00 0. -1.
          4    1    1    2  501    0 -0.18324280092E+02  0.14932856114E+02 -0.28935387470E+02  0.37363432399E+02  0.00000000000E+00 0. -1.
         -4    1    1    2    0  503  0.18324280092E+02 -0.14932856114E+02 -0.59503863713E+02  0.64027175710E+02  0.00000000000E+00 0.  1.
<mgrwt>
<rscale>  2 0.23638304E+02</rscale>
<asrwt>0</asrwt>
<pdfrwt beam="1">  1       21 0.99625828E-03 0.23638304E+02</pdfrwt>
<pdfrwt beam="2">  1       21 0.14602296E-01 0.23638304E+02</pdfrwt>
<totfact> 0.10726703E+08</totfact>
</mgrwt>
</event>
<event>
 4    1  0.7521660E+004  0.2798384E+02  0.7546771E-02  0.1621507E+00
         21   -1    0    0  503  502  0.00000000000E+00  0.00000000000E+00  0.49356488527E+00  0.49356488527E+00  0.00000000000E+00 0.  1.
         21   -1    0    0  501  503 -0.00000000000E+00 -0.00000000000E+00 -0.17517372500E+04  0.17517372500E+04  0.00000000000E+00 0.  1.
          3    1    1    2  501    0 -0.16096821588E+02  0.22890770293E+02 -0.11446118108E+04  0.11449538385E+04  0.00000000000E+00 0.  1.
         -3    1    1    2    0  502  0.16096821588E+02 -0.22890770293E+02 -0.60663187429E+03  0.60727697630E+03  0.00000000000E+00 0. -1.
<mgrwt>
<rscale>  2 0.27983835E+02</rscale>
<asrwt>0</asrwt>
<pdfrwt beam="1">  1       21 0.75933756E-04 0.27983835E+02</pdfrwt>
<pdfrwt beam="2">  1       21 0.26949557E+00 0.27983835E+02</pdfrwt>
<totfact> 0.10197086E+07</totfact>
</mgrwt>
</event>
<event>
 4    1  0.7521660E+004  0.2637536E+02  0.7546771E-02  0.1641998E+00
         21   -1    0    0  503  502  0.00000000000E+00  0.00000000000E+00  0.88171614738E+01  0.88171614738E+01  0.00000000000E+00 0. -1.
         21   -1    0    0  501  503 -0.00000000000E+00 -0.00000000000E+00 -0.81278589954E+02  0.81278589954E+02  0.00000000000E+00 0. -1.
          3    1    1    2  501    0  0.26124467980E+01 -0.26245665027E+02 -0.43939630097E+02  0.51247935607E+02  0.00000000000E+00 0.  1.
         -3    1    1    2    0  502 -0.26124467980E+01  0.26245665027E+02 -0.28521798383E+02  0.38847815820E+02  0.00000000000E+00 0. -1.
<mgrwt>
<rscale>  2 0.26375364E+02</rscale>
<asrwt>0</asrwt>
<pdfrwt beam="1">  1       21 0.13564863E-02 0.26375364E+02</pdfrwt>
<pdfrwt beam="2">  1       21 0.12504399E-01 0.26375364E+02</pdfrwt>
<totfact> 0.90044237E+07</totfact>
</mgrwt>
</event>
<event>
 4    1  0.7521660E+004  0.2034112E+02  0.7546771E-02  0.1738628E+00
         21   -1    0    0  501  502  0.00000000000E+00  0.00000000000E+00  0.10818807254E+02  0.10818807254E+02  0.00000000000E+00 0. -1.
         21   -1    0    0  502  503 -0.00000000000E+00 -0.00000000000E+00 -0.39652678152E+02  0.39652678152E+02  0.00000000000E+00 0. -1.
          5    1    1    2  501    0  0.64085446119E+01 -0.19305229277E+02 -0.19172345784E+02  0.27952462581E+02  0.00000000000E+00 0. -1.
         -5    1    1    2    0  503 -0.64085446119E+01  0.19305229277E+02 -0.96615251139E+01  0.22519022825E+02  0.00000000000E+00 0.  1.
<mgrwt>
<rscale>  2 0.20341124E+02</rscale>
<asrwt>0</asrwt>
<pdfrwt beam="1">  1       21 0.16644319E-02 0.20341124E+02</pdfrwt>
<pdfrwt beam="2">  1       21 0.61004118E-02 0.20341124E+02</pdfrwt>
<totfact> 0.19871471E+08</totfact>
</mgrwt>
</event>
<event>
 4    1  0.7521660E+004  0.2159818E+02  0.7546771E-02  0.1715295E+00
         21   -1    0    0  503  502  0.00000000000E+00  0.00000000000E+00  0.31631582619E+03  0.31631582619E+03  0.00000000000E+00 0.  1.
         21   -1    0    0  501  503 -0.00000000000E+00 -0.00000000000E+00 -0.14903283475E+01  0.14903283475E+01  0.00000000000E+00 0.  1.
          1    1    1    2  501    0  0.15423297192E+02  0.15119629018E+02  0.17366799955E+03  0.17500587232E+03  0.00000000000E+00 0.  1.
         -1    1    1    2    0  502 -0.15423297192E+02 -0.15119629018E+02  0.14115749829E+03  0.14280028221E+03  0.00000000000E+00 0. -1.
<mgrwt>
<rscale>  2 0.21598178E+02</rscale>
<asrwt>0</asrwt>
<pdfrwt beam="1">  1       21 0.48663920E-01 0.21598178E+02</pdfrwt>
<pdfrwt beam="2">  1       21 0.22928154E-03 0.21598178E+02</pdfrwt>
<totfact> 0.10418705E+08</totfact>
</mgrwt>
</event>
<event>
 4    1  0.7521660E+004  0.2064602E+02  0.7546771E-02  0.1732778E+00
         21   -1    0    0  501  502  0.00000000000E+00  0.00000000000E+00  0.10252005427E+03  0.10252005427E+03  0.00000000000E+00 0. -1.
         21   -1    0    0  502  503 -0.00000000000E+00 -0.00000000000E+00 -0.58874747150E+01  0.58874747150E+01  0.00000000000E+00 0. -1.
          1    1    1    2  501    0 -0.18371931140E+02  0.94196860366E+01  0.77695937270E+02  0.80392269573E+02  0.00000000000E+00 0.  1.
         -1    1    1    2    0  503  0.18371931140E+02 -0.94196860366E+01  0.18936642281E+02  0.28015259408E+02  0.00000000000E+00 0. -1.
<mgrwt>
<rscale>  2 0.20646025E+02</rscale>
<asrwt>0</asrwt>
<pdfrwt beam="1">  1       21 0.15772315E-01 0.20646025E+02</pdfrwt>
<pdfrwt beam="2">  1       21 0.90576542E-03 0.20646025E+02</pdfrwt>
<totfact> 0.10440014E+08</totfact>
</mgrwt>
</event>
<event>
 4    1  0.7521660E+004  0.2169503E+02  0.7546771E-02  0.1713580E+00
         21   -1    0    0  503  502  0.00000000000E+00  0.00000000000E+00  0.96911813526E+01  0.96911813526E+01  0.00000000000E+00 0. -1.
         21   -1    0    0  501  503 -0.00000000000E+00 -0.00000000000E+00 -0.50054365263E+02  0.50054365263E+02  0.00000000000E+00 0. -1.
          1    1    1    2  501    0 -0.89503983578E+01  0.19762710275E+02 -0.25330581954E+02  0.33351352751E+02  0.00000000000E+00 0.  1.
         -1    1    1    2    0  502  0.89503983578E+01 -0.19762710275E+02 -0.15032601956E+02  0.26394193865E+02  0.00000000000E+00 0. -1.
<mgrwt>
<rscale>  2 0.21695030E+02</rscale>
<asrwt>0</asrwt>
<pdfrwt beam="1">  1       21 0.14909510E-02 0.21695030E+02</pdfrwt>
<pdfrwt beam="2">  1       21 0.77006714E-02 0.21695030E+02</pdfrwt>
<totfact> 0.16463828E+08</totfact>
</mgrwt>
</event>
<event>
 4    1  0.7521660E+004  0.2295639E+02  0.7546771E-02  0.1692218E+00
         21   -1    0    0  503  502  0.00000000000E+00  0.00000000000E+00  0.67700176860E+01  0.67700176860E+01  0.00000000000E+00 0. -1.
         21   -1    0    0  501  503 -0.00000000000E+00 -0.00000000000E+00 -0.91800019905E+02  0.91800019905E+02  0.00000000000E+00 0. -1.
          1    1    1    2  501    0 -0.22451988019E+02 -0.47858118207E+01 -0.23297533748E+02  0.32707351460E+02  0.00000000000E+00 0.  1.
         -1    1    1    2    0  502  0.22451988019E+02  0.47858118207E+01 -0.61732468472E+02  0.65862686131E+02  0.00000000000E+00 0. -1.
<mgrwt>
<rscale>  2 0.22956388E+02</rscale>
<asrwt>0</asrwt>
<pdfrwt beam="1">  1       21 0.10415412E-02 0.22956388E+02</pdfrwt>
<pdfrwt beam="2">  1       21 0.14123079E-01 0.22956388E+02</pdfrwt>
<totfact> 0.10530708E+08</totfact>
</mgrwt>
</event>
<event>
 4    1  0.7521660E+004  0.2079183E+02  0.7546771E-02  0.1730025E+00
         21   -1    0    0  503  502  0.00000000000E+00  0.00000000000E+00  0.77147868589E+02  0.77147868589E+02  0.00000000000E+00 0. -1.
         21   -1    0    0  501  503 -0.00000000000E+00 -0.00000000000E+00 -0.11363847922E+02  0.11363847922E+02  0.00000000000E+00 0. -1.
          5    1    1    2  501    0  0.14244857558E+02  0.15145438256E+02  0.64400773135E+02  0.67673922948E+02  0.00000000000E+00 0.  1.
         -5    1    1    2    0  502 -0.14244857558E+02 -0.15145438256E+02  0.13832475323E+01  0.20837793563E+02  0.00000000000E+00 0. -1.
<mgrwt>
<rscale>  2 0.20791832E+02</rscale>
<asrwt>0</asrwt>
<pdfrwt beam="1">  1       21 0.11868903E-01 0.20791832E+02</pdfrwt>
<pdfrwt beam="2">  1       21 0.17482843E-02 0.20791832E+02</pdfrwt>
<totfact> 0.62689512E+07</totfact>
</mgrwt>
</event>
<event>
 4    1  0.7521660E+004  0.4116487E+02  0.7546771E-02  0.1499810E+00
         21   -1    0    0  503  502  0.00000000000E+00  0.00000000000E+00  0.26845583425E+03  0.26845583425E+03  0.00000000000E+00 0. -1.
         21   -1    0    0  501  503 -0.00000000000E+00 -0.00000000000E+00 -0.63230321943E+01  0.63230321943E+01  0.00000000000E+00 0. -1.
          3    1    1    2  501    0  0.40458833908E+02  0.75914162602E+01  0.12537977782E+03  0.13196452375E+03  0.00000000000E+00 0.  1.
         -3    1    1    2    0  502 -0.40458833908E+02 -0.75914162602E+01  0.13675302423E+03  0.14281434270E+03  0.00000000000E+00 0. -1.
<mgrwt>
<rscale>  2 0.41164874E+02</rscale>
<asrwt>0</asrwt>
<pdfrwt beam="1">  1       21 0.41300889E-01 0.41164874E+02</pdfrwt>
<pdfrwt beam="2">  1       21 0.97277439E-03 0.41164874E+02</pdfrwt>
<totfact> 0.19052159E+07</totfact>
</mgrwt>
</event>
<event>
 4    1  0.7521660E+004  0.3362764E+02  0.7546771E-02  0.1561136E+00
         21   -1    0    0  501  502  0.00000000000E+00  0.00000000000E+00  0.13790419772E+02  0.13790419772E+02  0.00000000000E+00 0.  1.
         21   -1    0    0  502  503 -0.00000000000E+00 -0.00000000000E+00 -0.82000561736E+02  0.82000561736E+02  0.00000000000E+00 0.  1.
          2    1    1    2  501    0 -0.10621960485E+01 -0.33610860607E+02 -0.34015480034E+02  0.47831695487E+02  0.00000000000E+00 0.  1.
         -2    1    1    2    0  503  0.10621960485E+01  0.33610860607E+02 -0.34194661929E+02  0.47959286021E+02  0.00000000000E+00 0. -1.
<mgrwt>
<rscale>  2 0.33627641E+02</rscale>
<asrwt>0</asrwt>
<pdfrwt beam="1">  1       21 0.21216031E-02 0.33627641E+02</pdfrwt>
<pdfrwt beam="2">  1       21 0.12615471E-01 0.33627641E+02</pdfrwt>
<totfact> 0.47103549E+07</totfact>
</mgrwt>
</event>
<event>
 4    1  0.7521660E+004  0.2302407E+02  0.7546771E-02  0.1691120E+00
         21   -1    0    0  503  502  0.00000000000E+00  0.00000000000E+00  0.95798670095E+01  0.95798670095E+01  0.00000000000E+00 0.  1.
         21   -1    0    0  501  503 -0.00000000000E+00 -0.00000000000E+00 -0.55589346698E+02  0.55589346698E+02  0.00000000000E+00 0.  1.
          2    1    1    2  501    0  0.22391722553E+02 -0.53589765247E+01 -0.20803330158E+02  0.31030411115E+02  0.00000000000E+00 0. -1.
         -2    1    1    2    0  502 -0.22391722553E+02  0.53589765247E+01 -0.25206149531E+02  0.34138802593E+02  0.00000000000E+00 0.  1.
<mgrwt>
<rscale>  2 0.23024071E+02</rscale>
<asrwt>0</asrwt>
<pdfrwt beam="1">  1       21 0.14738257E-02 0.23024071E+02</pdfrwt>
<pdfrwt beam="2">  1       21 0.85522070E-02 0.23024071E+02</pdfrwt>
<totfact> 0.14378368E+08</totfact>
</mgrwt>
</event>
<event>
 4    1  0.7521660E+004  0.2095392E+02  0.7546771E-02  0.1726998E+00
         21   -1    0    0  503  502  0.00000000000E+00  0.00000000000E+00  0.11537640992E+03  0.11537640992E+03  0.00000000000E+00 0.  1.
         21   -1    0    0  501  503 -0.00000000000E+00 -0.00000000000E+00 -0.43509629114E+01  0.43509629114E+01  0.00000000000E+00 0.  1.
          2    1    1    2  501    0  0.20865187851E+02 -0.19262851364E+01  0.76708409526E+02  0.79518845128E+02  0.00000000000E+00 0. -1.
         -2    1    1    2    0  502 -0.20865187851E+02  0.19262851364E+01  0.34317037481E+02  0.40208527702E+02  0.00000000000E+00 0.  1.
<mgrwt>
<rscale>  2 0.20953917E+02</rscale>
<asrwt>0</asrwt>
<pdfrwt beam="1">  1       21 0.17750215E-01 0.20953917E+02</pdfrwt>
<pdfrwt beam="2">  1       21 0.66937900E-03 0.20953917E+02</pdfrwt>
<totfact> 0.13429603E+08</totfact>
</mgrwt>
</event>
<event>
 4    1  0.7521660E+004  0.2391655E+02  0.7546771E-02  0.1677070E+00
         21   -1    0    0  501  502  0.00000000000E+00  0.00000000000E+00  0.15087231797E+03  0.15087231797E+03  0.00000000000E+00 0.  1.
         21   -1    0    0  502  503 -0.00000000000E+00 -0.00000000000E+00 -0.43387143432E+01  0.43387143432E+01  0.00000000000E+00 0.  1.
          5    1    1    2  501    0  0.54922687747E+01  0.23277373699E+02  0.10083275280E+03  0.10363032944E+03  0.00000000000E+00 0. -1.
         -5    1    1    2    0  503 -0.54922687747E+01 -0.23277373699E+02  0.45700850832E+02  0.51580702878E+02  0.00000000000E+00 0.  1.
<mgrwt>
<rscale>  2 0.23916545E+02</rscale>
<asrwt>0</asrwt>
<pdfrwt beam="1">  1       21 0.23211122E-01 0.23916545E+02</pdfrwt>
<pdfrwt beam="2">  1       21 0.66749463E-03 0.23916545E+02</pdfrwt>
<totfact> 0.87637145E+07</totfact>
</mgrwt>
</event>
<event>
 4    1  0.7521660E+004  0.4871825E+02  0.7546771E-02  0.1452380E+00
         21   -1    0    0  503  502  0.00000000000E+00  0.00000000000E+00  0.87455209600E+01  0.87455209600E+01  0.00000000000E+00 0. -1.
         21   -1    0    0  501  503 -0.00000000000E+00 -0.00000000000E+00 -0.28447036353E+03  0.28447036353E+03  0.00000000000E+00 0. -1.
          2    1    1    2  501    0  0.39677162269E+02  0.28269966886E+02 -0.16929705867E+03  0.17616742692E+03  0.00000000000E+00 0. -1.
         -2    1    1    2    0  502 -0.39677162269E+02 -0.28269966886E+02 -0.10642778390E+03  0.11704845757E+03  0.00000000000E+00 0.  1.
<mgrwt>
<rscale>  2 0.48718254E+02</rscale>
<asrwt>0</asrwt>
<pdfrwt beam="1">  1       21 0.13454647E-02 0.48718254E+02</pdfrwt>
<pdfrwt beam="2">  1       21 0.43764674E-01 0.48718254E+02</pdfrwt>
<totfact> 0.10551220E+07</totfact>
</mgrwt>
</event>
<event>
 4    1  0.7521660E+004  0.2331173E+02  0.7546771E-02  0.1686506E+00
         21   -1    0    0  501  502  0.00000000000E+00  0.00000000000E+00  0.39900237107E+02  0.39900237107E+02  0.00000000000E+00 0.  1.
         21   -1    0    0  502  503 -0.00000000000E+00 -0.00000000000E+00 -0.14821828720E+02  0.14821828720E+02  0.00000000000E+00 0.  1.
          4    1    1    2  501    0  0.94081839790E+00 -0.23292737815E+02  0.47476686527E+01  0.23790273891E+02  0.00000000000E+00 0.  1.
         -4    1    1    2    0  503 -0.94081839790E+00  0.23292737815E+02  0.20330739734E+02  0.30931791935E+02  0.00000000000E+00 0. -1.
<mgrwt>
<rscale>  2 0.23311730E+02</rscale>
<asrwt>0</asrwt>
<pdfrwt beam="1">  1       21 0.61384980E-02 0.23311730E+02</pdfrwt>
<pdfrwt beam="2">  1       21 0.22802814E-02 0.23311730E+02</pdfrwt>
<totfact> 0.12676759E+08</totfact>
</mgrwt>
</event>
<event>
 4    1  0.7521660E+004  0.2186464E+02  0.7546771E-02  0.1710604E+00
         21   -1    0    0  501  502  0.00000000000E+00  0.00000000000E+00  0.11563634486E+02  0.11563634486E+02  0.00000000000E+00 0.  1.
         21   -1    0    0  502  503 -0.00000000000E+00 -0.00000000000E+00 -0.41376215118E+02  0.41376215118E+02  0.00000000000E+00 0.  1.
          5    1    1    2  501    0  0.31814778126E+00 -0.21862322788E+02 -0.15668815212E+02  0.26899333558E+02  0.00000000000E+00 0. -1.
         -5    1    1    2    0  503 -0.31814778126E+00  0.21862322788E+02 -0.14143765420E+02  0.26040516047E+02  0.00000000000E+00 0.  1.
<mgrwt>
<rscale>  2 0.21864638E+02</rscale>
<asrwt>0</asrwt>
<pdfrwt beam="1">  1       21 0.17790207E-02 0.21864638E+02</pdfrwt>
<pdfrwt beam="2">  1       21 0.63655715E-02 0.21864638E+02</pdfrwt>
<totfact> 0.17160215E+08</totfact>
</mgrwt>
</event>
<event>
 4    1  0.7521660E+004  0.3575640E+02  0.7546771E-02  0.1541984E+00
         21   -1    0    0  501  502  0.00000000000E+00  0.00000000000E+00  0.44910258799E+01  0.44910258799E+01  0.00000000000E+00 0. -1.
         21   -1    0    0  502  503 -0.00000000000E+00 -0.00000000000E+00 -0.31409887438E+03  0.31409887438E+03  0.00000000000E+00 0. -1.
          3    1    1    2  501    0  0.34934661951E+02 -0.76216433642E+01 -0.10605584496E+03  0.11192123258E+03  0.00000000000E+00 0.  1.
         -3    1    1    2    0  503 -0.34934661951E+02  0.76216433642E+01 -0.20355200354E+03  0.20666866767E+03  0.00000000000E+00 0. -1.
<mgrwt>
<rscale>  2 0.35756399E+02</rscale>
<asrwt>0</asrwt>
<pdfrwt beam="1">  1       21 0.69092711E-03 0.35756399E+02</pdfrwt>
<pdfrwt beam="2">  1       21 0.48322900E-01 0.35756399E+02</pdfrwt>
<totfact> 0.23073902E+07</totfact>
</mgrwt>
</event>
<event>
 4    1  0.7521660E+004  0.2498002E+02  0.7546771E-02  0.1661289E+00
         21   -1    0    0  501  502  0.00000000000E+00  0.00000000000E+00  0.54956205356E+03  0.54956205356E+03  0.00000000000E+00 0.  1.
         21   -1    0    0  502  503 -0.00000000000E+00 -0.00000000000E+00 -0.12743001578E+01  0.12743001578E+01  0.00000000000E+00 0.  1.
          5    1    1    2  501    0  0.62208179171E+01 -0.24193030573E+02  0.36505706197E+03  0.36591072655E+03  0.00000000000E+00 0.  1.
         -5    1    1    2    0  503 -0.62208179171E+01  0.24193030573E+02  0.18323069143E+03  0.18492562717E+03  0.00000000000E+00 0. -1.
<mgrwt>
<rscale>  2 0.24980018E+02</rscale>
<asrwt>0</asrwt>
<pdfrwt beam="1">  1       21 0.84547819E-01 0.24980018E+02</pdfrwt>
<pdfrwt beam="2">  1       21 0.19604662E-03 0.24980018E+02</pdfrwt>
<totfact> 0.44235053E+07</totfact>
</mgrwt>
</event>
<event>
 4    1  0.7521660E+004  0.2095264E+02  0.7546771E-02  0.1727021E+00
         21   -1    0    0  501  502  0.00000000000E+00  0.00000000000E+00  0.25374458028E+01  0.25374458028E+01  0.00000000000E+00 0.  1.
         21   -1    0    0  502  503 -0.00000000000E+00 -0.00000000000E+00 -0.17430649314E+03  0.17430649314E+03  0.00000000000E+00 0.  1.
          3    1    1    2  501    0  0.19577275659E+02 -0.74661426604E+01 -0.78269699596E+02  0.81025668052E+02  0.00000000000E+00 0. -1.
         -3    1    1    2    0  503 -0.19577275659E+02  0.74661426604E+01 -0.93499347741E+02  0.95818270890E+02  0.00000000000E+00 0.  1.
<mgrwt>
<rscale>  2 0.20952637E+02</rscale>
<asrwt>0</asrwt>
<pdfrwt beam="1">  1       21 0.39037614E-03 0.20952637E+02</pdfrwt>
<pdfrwt beam="2">  1       21 0.26816393E-01 0.20952637E+02</pdfrwt>
<totfact> 0.14404118E+08</totfact>
</mgrwt>
</event>
<event>
 4    1  0.7521660E+004  0.5299855E+02  0.7546771E-02  0.1429808E+00
         21   -1    0    0  503  502  0.00000000000E+00  0.00000000000E+00  0.68012033531E+02  0.68012033531E+02  0.00000000000E+00 0.  1.
         21   -1    0    0  501  503 -0.00000000000E+00 -0.00000000000E+00 -0.41674501881E+02  0.41674501881E+02  0.00000000000E+00 0.  1.
          2    1    1    2  501    0 -0.35274622457E+02  0.39554352832E+02  0.79646027057E+01  0.53593663000E+02  0.00000000000E+00 0.  1.
         -2    1    1    2    0  502  0.35274622457E+02 -0.39554352832E+02  0.18372928945E+02  0.56092872412E+02  0.00000000000E+00 0. -1.
<mgrwt>
<rscale>  2 0.52998545E+02</rscale>
<asrwt>0</asrwt>
<pdfrwt beam="1">  1       21 0.10463390E-01 0.52998545E+02</pdfrwt>
<pdfrwt beam="2">  1       21 0.64114618E-02 0.52998545E+02</pdfrwt>
<totfact> 0.11814135E+07</totfact>
</mgrwt>
</event>
<event>
 4    1  0.7521660E+004  0.2083960E+02  0.7546771E-02  0.1729129E+00
         21   -1    0    0  501  502  0.00000000000E+00  0.00000000000E+00  0.32855827309E+01  0.32855827309E+01  0.00000000000E+00 0.  1.
         21   -1    0    0  502  503 -0.00000000000E+00 -0.00000000000E+00 -0.15017993410E+03  0.15017993410E+03  0.00000000000E+00 0.  1.
          4    1    1    2  501    0  0.16941143171E+02  0.12136171733E+02 -0.46882296198E+02  0.51305347607E+02  0.00000000000E+00 0. -1.
         -4    1    1    2    0  503 -0.16941143171E+02 -0.12136171733E+02 -0.10001205517E+03  0.10216016922E+03  0.00000000000E+00 0.  1.
<mgrwt>
<rscale>  2 0.20839602E+02</rscale>
<asrwt>0</asrwt>
<pdfrwt beam="1">  1       21 0.50547435E-03 0.20839602E+02</pdfrwt>
<pdfrwt beam="2">  1       21 0.23104601E-01 0.20839602E+02</pdfrwt>
<totfact> 0.12827558E+08</totfact>
</mgrwt>
</event>
<event>
 4    1  0.7521660E+004  0.2112092E+02  0.7546771E-02  0.1723914E+00
         21   -1    0    0  503  502  0.00000000000E+00  0.00000000000E+00  0.35275623582E+00  0.35275623582E+00  0.00000000000E+00 0. -1.
         21   -1    0    0  501  503 -0.00000000000E+00 -0.00000000000E+00 -0.15120400577E+04  0.15120400577E+04  0.00000000000E+00 0. -1.
          4    1    1    2  501    0  0.18578377235E+02 -0.10046753905E+02 -0.10617534340E+04  0.10619634871E+04  0.00000000000E+00 0.  1.
         -4    1    1    2    0  502 -0.18578377235E+02  0.10046753905E+02 -0.44993386749E+03  0.45042932684E+03  0.00000000000E+00 0. -1.
<mgrwt>
<rscale>  2 0.21120922E+02</rscale>
<asrwt>0</asrwt>
<pdfrwt beam="1">  1       21 0.54270699E-04 0.21120922E+02</pdfrwt>
<pdfrwt beam="2">  1       21 0.23261937E+00 0.21120922E+02</pdfrwt>
<totfact> 0.24480599E+07</totfact>
</mgrwt>
</event>
<event>
 4    1  0.7521660E+004  0.2001260E+02  0.7546771E-02  0.1745078E+00
         21   -1    0    0  501  502  0.00000000000E+00  0.00000000000E+00  0.25114890403E+03  0.25114890403E+03  0.00000000000E+00 0.  1.
         21   -1    0    0  502  503 -0.00000000000E+00 -0.00000000000E+00 -0.15962007760E+01  0.15962007760E+01  0.00000000000E+00 0.  1.
          4    1    1    2  501    0  0.19543938995E+02  0.43056437187E+01  0.12866689383E+03  0.13021395351E+03  0.00000000000E+00 0.  1.
         -4    1    1    2    0  503 -0.19543938995E+02 -0.43056437187E+01  0.12088580942E+03  0.12253115130E+03  0.00000000000E+00 0. -1.
<mgrwt>
<rscale>  2 0.20012599E+02</rscale>
<asrwt>0</asrwt>
<pdfrwt beam="1">  1       21 0.38638262E-01 0.20012599E+02</pdfrwt>
<pdfrwt beam="2">  1       21 0.24556955E-03 0.20012599E+02</pdfrwt>
<totfact> 0.14306151E+08</totfact>
</mgrwt>
</event>
<event>
 4    1  0.7521660E+004  0.3455891E+02  0.7546771E-02  0.1552553E+00
         21   -1    0    0  503  502  0.00000000000E+00  0.00000000000E+00  0.20791932145E+03  0.20791932145E+03  0.00000000000E+00 0.  1.
         21   -1    0    0  501  503 -0.00000000000E+00 -0.00000000000E+00 -0.58166536950E+01  0.58166536950E+01  0.00000000000E+00 0.  1.
          3    1    1    2  501    0 -0.33773436119E+02 -0.73261973229E+01  0.11298336480E+03  0.11815057713E+03  0.00000000000E+00 0.  1.
         -3    1    1    2    0  502  0.33773436119E+02  0.73261973229E+01  0.89119302949E+02  0.95585398010E+02  0.00000000000E+00 0. -1.
<mgrwt>
<rscale>  2 0.34558908E+02</rscale>
<asrwt>0</asrwt>
<pdfrwt beam="1">  1       21 0.31987582E-01 0.34558908E+02</pdfrwt>
<pdfrwt beam="2">  1       21 0.89486996E-03 0.34558908E+02</pdfrwt>
<totfact> 0.34160044E+07</totfact>
</mgrwt>
</event>
<event>
 4    1  0.7521660E+004  0.4230425E+02  0.7546771E-02  0.1491908E+00
         21   -1    0    0  501  502  0.00000000000E+00  0.00000000000E+00  0.32783063956E+01  0.32783063956E+01  0.00000000000E+00 0.  1.
         21   -1    0    0  502  503 -0.00000000000E+00 -0.00000000000E+00 -0.63180220971E+03  0.63180220971E+03  0.00000000000E+00 0.  1.
          3    1    1    2  501    0  0.38272158473E+02  0.18024737571E+02 -0.43134487767E+03  0.43341441228E+03  0.00000000000E+00 0.  1.
         -3    1    1    2    0  503 -0.38272158473E+02 -0.18024737571E+02 -0.19717902564E+03  0.20166610382E+03  0.00000000000E+00 0. -1.
<mgrwt>
<rscale>  2 0.42304247E+02</rscale>
<asrwt>0</asrwt>
<pdfrwt beam="1">  1       21 0.50435469E-03 0.42304247E+02</pdfrwt>
<pdfrwt beam="2">  1       21 0.97200368E-01 0.42304247E+02</pdfrwt>
<totfact> 0.87870671E+06</totfact>
</mgrwt>
</event>
<event>
 4    1  0.7521660E+004  0.2216804E+02  0.7546771E-02  0.1705362E+00
         21   -1    0    0  501  502  0.00000000000E+00  0.00000000000E+00  0.24064935047E+02  0.24064935047E+02  0.00000000000E+00 0. -1.
         21   -1    0    0  502  503 -0.00000000000E+00 -0.00000000000E+00 -0.21551931162E+02  0.21551931162E+02  0.00000000000E+00 0. -1.
          4    1    1    2  501    0  0.22025231476E+02  0.25122415856E+01 -0.39690616628E+01  0.22520560159E+02  0.00000000000E+00 0. -1.
         -4    1    1    2    0  503 -0.22025231476E+02 -0.25122415856E+01  0.64820655480E+01  0.23096306050E+02  0.00000000000E+00 0.  1.
<mgrwt>
<rscale>  2 0.22168044E+02</rscale>
<asrwt>0</asrwt>
<pdfrwt beam="1">  1       21 0.37022977E-02 0.22168044E+02</pdfrwt>
<pdfrwt beam="2">  1       21 0.33156817E-02 0.22168044E+02</pdfrwt>
<totfact> 0.15590343E+08</totfact>
</mgrwt>
</event>
<event>
 4    1  0.7521660E+004  0.3125840E+02  0.7546771E-02  0.1584581E+00
         21   -1    0    0  501  502  0.00000000000E+00  0.00000000000E+00  0.30223300315E+01  0.30223300315E+01  0.00000000000E+00 0.  1.
         21   -1    0    0  502  503 -0.00000000000E+00 -0.00000000000E+00 -0.36894058988E+03  0.36894058988E+03  0.00000000000E+00 0.  1.
          3    1    1    2  501    0  0.61032578687E+01 -0.30656775860E+02 -0.11753817868E+03  0.12162364535E+03  0.00000000000E+00 0. -1.
         -3    1    1    2    0  503 -0.61032578687E+01  0.30656775860E+02 -0.24838008118E+03  0.25033927456E+03  0.00000000000E+00 0.  1.
<mgrwt>
<rscale>  2 0.31258401E+02</rscale>
<asrwt>0</asrwt>
<pdfrwt beam="1">  1       21 0.46497400E-03 0.31258401E+02</pdfrwt>
<pdfrwt beam="2">  1       21 0.56760072E-01 0.31258401E+02</pdfrwt>
<totfact> 0.29635818E+07</totfact>
</mgrwt>
</event>
<event>
 4    1  0.7521660E+004  0.7467817E+02  0.7546771E-02  0.1344871E+00
         21   -1    0    0  503  502  0.00000000000E+00  0.00000000000E+00  0.87958079785E+02  0.87958079785E+02  0.00000000000E+00 0.  1.
         21   -1    0    0  501  503 -0.00000000000E+00 -0.00000000000E+00 -0.63403260234E+02  0.63403260234E+02  0.00000000000E+00 0.  1.
          2    1    1    2  501    0 -0.12054483496E+02  0.73698835622E+02  0.12268466397E+02  0.75679219156E+02  0.00000000000E+00 0. -1.
         -2    1    1    2    0  502  0.12054483496E+02 -0.73698835622E+02  0.12286353155E+02  0.75682120862E+02  0.00000000000E+00 0.  1.
<mgrwt>
<rscale>  2 0.74678169E+02</rscale>
<asrwt>0</asrwt>
<pdfrwt beam="1">  1       21 0.13532012E-01 0.74678169E+02</pdfrwt>
<pdfrwt beam="2">  1       21 0.97543477E-02 0.74678169E+02</pdfrwt>
<totfact> 0.38414156E+06</totfact>
</mgrwt>
</event>
<event>
 4    1  0.7521660E+004  0.2185225E+02  0.7546771E-02  0.1710820E+00
         21   -1    0    0  503  502  0.00000000000E+00  0.00000000000E+00  0.27455540012E+02  0.27455540012E+02  0.00000000000E+00 0. -1.
         21   -1    0    0  501  503 -0.00000000000E+00 -0.00000000000E+00 -0.18717643283E+02  0.18717643283E+02  0.00000000000E+00 0. -1.
          5    1    1    2  501    0 -0.40874391312E+01 -0.21466571676E+02  0.10511706259E+02  0.24249058263E+02  0.00000000000E+00 0. -1.
         -5    1    1    2    0  502  0.40874391312E+01  0.21466571676E+02 -0.17738095303E+01  0.21924125032E+02  0.00000000000E+00 0.  1.
<mgrwt>
<rscale>  2 0.21852251E+02</rscale>
<asrwt>0</asrwt>
<pdfrwt beam="1">  1       21 0.42239292E-02 0.21852251E+02</pdfrwt>
<pdfrwt beam="2">  1       21 0.28796374E-02 0.21852251E+02</pdfrwt>
<totfact> 0.15712267E+08</totfact>
</mgrwt>
</event>
<event>
 4    1  0.7521660E+004  0.2082164E+02  0.7546771E-02  0.1729466E+00
         21   -1    0    0  503  502  0.00000000000E+00  0.00000000000E+00  0.21487798470E+01  0.21487798470E+01  0.00000000000E+00 0.  1.
         21   -1    0    0  501  503 -0.00000000000E+00 -0.00000000000E+00 -0.25229351445E+03  0.25229351445E+03  0.00000000000E+00 0.  1.
          3    1    1    2  501    0 -0.72142686382E+01 -0.19531901375E+02 -0.68135971302E+02  0.71246413443E+02  0.00000000000E+00 0.  1.
         -3    1    1    2    0  502  0.72142686382E+01  0.19531901375E+02 -0.18200876330E+03  0.18319588085E+03  0.00000000000E+00 0. -1.
<mgrwt>
<rscale>  2 0.20821644E+02</rscale>
<asrwt>0</asrwt>
<pdfrwt beam="1">  1       21 0.33058167E-03 0.20821644E+02</pdfrwt>
<pdfrwt beam="2">  1       21 0.38814369E-01 0.20821644E+02</pdfrwt>
<totfact> 0.93236863E+07</totfact>
</mgrwt>
</event>
<event>
 4    1  0.7521660E+004  0.5020316E+02  0.7546771E-02  0.1444249E+00
         21   -1    0    0  501  502  0.00000000000E+00  0.00000000000E+00  0.17990309254E+03  0.17990309254E+03  0.00000000000E+00 0. -1.
         21   -1    0    0  502  503 -0.00000000000E+00 -0.00000000000E+00 -0.15104947508E+02  0.15104947508E+02  0.00000000000E+00 0. -1.
          2    1    1    2  501    0 -0.43166395416E+02  0.25632402310E+02  0.10865653685E+03  0.11969377905E+03  0.00000000000E+00 0. -1.
         -2    1    1    2    0  503  0.43166395416E+02 -0.25632402310E+02  0.56141608176E+02  0.75314261000E+02  0.00000000000E+00 0.  1.
<mgrwt>
<rscale>  2 0.50203165E+02</rscale>
<asrwt>0</asrwt>
<pdfrwt beam="1">  1       21 0.27677397E-01 0.50203165E+02</pdfrwt>
<pdfrwt beam="2">  1       21 0.23238382E-02 0.50203165E+02</pdfrwt>
<totfact> 0.10779439E+07</totfact>
</mgrwt>
</event>
<event>
 4    1  0.7521660E+004  0.2573162E+02  0.7546771E-02  0.1650710E+00
         21   -1    0    0  501  502  0.00000000000E+00  0.00000000000E+00  0.35245886439E+03  0.35245886439E+03  0.00000000000E+00 0.  1.
         21   -1    0    0  502  503 -0.00000000000E+00 -0.00000000000E+00 -0.19542599293E+01  0.19542599293E+01  0.00000000000E+00 0.  1.
          1    1    1    2  501    0 -0.25168839233E+02  0.53521579765E+01  0.14037613663E+03  0.14271501602E+03  0.00000000000E+00 0. -1.
         -1    1    1    2    0  503  0.25168839233E+02 -0.53521579765E+01  0.21012846784E+03  0.21169810830E+03  0.00000000000E+00 0.  1.
<mgrwt>
<rscale>  2 0.25731616E+02</rscale>
<asrwt>0</asrwt>
<pdfrwt beam="1">  1       21 0.54224390E-01 0.25731616E+02</pdfrwt>
<pdfrwt beam="2">  1       21 0.30065565E-03 0.25731616E+02</pdfrwt>
<totfact> 0.59375491E+07</totfact>
</mgrwt>
</event>
<event>
 4    1  0.7521660E+004  0.2207549E+02  0.7546771E-02  0.1706950E+00
         21   -1    0    0  503  502  0.00000000000E+00  0.00000000000E+00  0.50673813084E+01  0.50673813084E+01  0.00000000000E+00 0.  1.
         21   -1    0    0  501  503 -0.00000000000E+00 -0.00000000000E+00 -0.11430244037E+03  0.11430244037E+03  0.00000000000E+00 0.  1.
          1    1    1    2  501    0 -0.20410564723E+02  0.84104643371E+01 -0.30845185238E+02  0.37930891303E+02  0.00000000000E+00 0.  1.
         -1    1    1    2    0  502  0.20410564723E+02 -0.84104643371E+01 -0.78389873828E+02  0.81438930380E+02  0.00000000000E+00 0. -1.
<mgrwt>
<rscale>  2 0.22075486E+02</rscale>
<asrwt>0</asrwt>
<pdfrwt beam="1">  1       21 0.77959728E-03 0.22075486E+02</pdfrwt>
<pdfrwt beam="2">  1       21 0.17584987E-01 0.22075486E+02</pdfrwt>
<totfact> 0.11048233E+08</totfact>
</mgrwt>
</event>
<event>
 4    1  0.7521660E+004  0.2225981E+02  0.7546771E-02  0.1703797E+00
         21   -1    0    0  503  502  0.00000000000E+00  0.00000000000E+00  0.13829782700E+01  0.13829782700E+01  0.00000000000E+00 0.  1.
         21   -1    0    0  501  503 -0.00000000000E+00 -0.00000000000E+00 -0.39250789304E+03  0.39250789304E+03  0.00000000000E+00 0.  1.
          1    1    1    2  501    0 -0.20700001386E+02  0.81858950861E+01 -0.13740751086E+03  0.13919886126E+03  0.00000000000E+00 0. -1.
         -1    1    1    2    0  502  0.20700001386E+02 -0.81858950861E+01 -0.25371740391E+03  0.25469201005E+03  0.00000000000E+00 0.  1.
<mgrwt>
<rscale>  2 0.22259805E+02</rscale>
<asrwt>0</asrwt>
<pdfrwt beam="1">  1       21 0.21276582E-03 0.22259805E+02</pdfrwt>
<pdfrwt beam="2">  1       21 0.60385849E-01 0.22259805E+02</pdfrwt>
<totfact> 0.76571832E+07</totfact>
</mgrwt>
</event>
<event>
 4    1  0.7521660E+004  0.2683034E+02  0.7546771E-02  0.1636023E+00
         21   -1    0    0  501  502  0.00000000000E+00  0.00000000000E+00  0.39180531519E+01  0.39180531519E+01  0.00000000000E+00 0.  1.
         21   -1    0    0  502  503 -0.00000000000E+00 -0.00000000000E+00 -0.18386280188E+03  0.18386280188E+03  0.00000000000E+00 0.  1.
          2    1    1    2  501    0 -0.26550608697E+02  0.38642621852E+01 -0.87457382328E+02  0.91480386248E+02  0.00000000000E+00 0.  1.
         -2    1    1    2    0  503  0.26550608697E+02 -0.38642621852E+01 -0.92487366399E+02  0.96300468783E+02  0.00000000000E+00 0. -1.
<mgrwt>
<rscale>  2 0.26830344E+02</rscale>
<asrwt>0</asrwt>
<pdfrwt beam="1">  1       21 0.60277738E-03 0.26830344E+02</pdfrwt>
<pdfrwt beam="2">  1       21 0.28286586E-01 0.26830344E+02</pdfrwt>
<totfact> 0.73585866E+07</totfact>
</mgrwt>
</event>
<event>
 4    1  0.7521660E+004  0.2380321E+02  0.7546771E-02  0.1678812E+00
         21   -1    0    0  501  502  0.00000000000E+00  0.00000000000E+00  0.14913533373E+03  0.14913533373E+03  0.00000000000E+00 0. -1.
         21   -1    0    0  502  503 -0.00000000000E+00 -0.00000000000E+00 -0.38086044190E+01  0.38086044190E+01  0.00000000000E+00 0. -1.
          1    1    1    2  501    0  0.19788869642E+02 -0.13228512870E+02  0.68860579588E+02  0.72858577640E+02  0.00000000000E+00 0. -1.
         -1    1    1    2    0  503 -0.19788869642E+02  0.13228512870E+02  0.76466149722E+02  0.80085360509E+02  0.00000000000E+00 0.  1.
<mgrwt>
<rscale>  2 0.23803212E+02</rscale>
<asrwt>0</asrwt>
<pdfrwt beam="1">  1       21 0.22943893E-01 0.23803212E+02</pdfrwt>
<pdfrwt beam="2">  1       21 0.58593926E-03 0.23803212E+02</pdfrwt>
<totfact> 0.10841327E+08</totfact>
</mgrwt>
</event>
<event>
 4    1  0.7521660E+004  0.2215935E+02  0.7546771E-02  0.1705511E+00
         21   -1    0    0  501  502  0.00000000000E+00  0.00000000000E+00  0.76525767875E+02  0.76525767875E+02  0.00000000000E+00 0. -1.
         21   -1    0    0  502  503 -0.00000000000E+00 -0.00000000000E+00 -0.66102421469E+01  0.66102421469E+01  0.00000000000E+00 0. -1.
          4    1    1    2  501    0 -0.16691802521E+02 -0.14574647357E+02  0.27843493667E+02  0.35585063672E+02  0.00000000000E+00 0.  1.
         -4    1    1    2    0  503  0.16691802521E+02  0.14574647357E+02  0.42072032062E+02  0.47550946350E+02  0.00000000000E+00 0. -1.
<mgrwt>
<rscale>  2 0.22159346E+02</rscale>
<asrwt>0</asrwt>
<pdfrwt beam="1">  1       21 0.11773194E-01 0.22159346E+02</pdfrwt>
<pdfrwt beam="2">  1       21 0.10169604E-02 0.22159346E+02</pdfrwt>
<totfact> 0.14672100E+08</totfact>
</mgrwt>
</event>
<event>
 4    1  0.7521660E+004  0.2031568E+02  0.7546771E-02  0.1739122E+00
         21   -1    0    0  501  502  0.00000000000E+00  0.00000000000E+00  0.59885346365E+03  0.59885346365E+03  0.00000000000E+00 0.  1.
         21   -1    0    0  502  503 -0.00000000000E+00 -0.00000000000E+00 -0.87593841956E+00  0.87593841956E+00  0.00000000000E+00 0.  1.
          1    1    1    2  501    0  0.19502660898E+02 -0.56897404198E+01  0.16053301555E+03  0.16181339873E+03  0.00000000000E+00 0. -1.
         -1    1    1    2    0  503 -0.19502660898E+02  0.56897404198E+01  0.43744450969E+03  0.43791600334E+03  0.00000000000E+00 0.  1.
<mgrwt>
<rscale>  2 0.20315682E+02</rscale>
<asrwt>0</asrwt>
<pdfrwt beam="1">  1       21 0.92130975E-01 0.20315682E+02</pdfrwt>
<pdfrwt beam="2">  1       21 0.13476024E-03 0.20315682E+02</pdfrwt>
<totfact> 0.60233644E+07</totfact>
</mgrwt>
</event>
<event>
 4    1  0.7521660E+004  0.2111661E+02  0.7546771E-02  0.1723993E+00
         21   -1    0    0  503  502  0.00000000000E+00  0.00000000000E+00  0.30690572838E+03  0.30690572838E+03  0.00000000000E+00 0. -1.
         21   -1    0    0  501  503 -0.00000000000E+00 -0.00000000000E+00 -0.15483149004E+01  0.15483149004E+01  0.00000000000E+00 0. -1.
          5    1    1    2  501    0 -0.20955987105E+02  0.25995905091E+01  0.11439798765E+03  0.11633061009E+03  0.00000000000E+00 0.  1.
         -5    1    1    2    0  502  0.20955987105E+02 -0.25995905091E+01  0.19095942583E+03  0.19212343319E+03  0.00000000000E+00 0. -1.
<mgrwt>
<rscale>  2 0.21116611E+02</rscale>
<asrwt>0</asrwt>
<pdfrwt beam="1">  1       21 0.47216218E-01 0.21116611E+02</pdfrwt>
<pdfrwt beam="2">  1       21 0.23820254E-03 0.21116611E+02</pdfrwt>
<totfact> 0.10386736E+08</totfact>
</mgrwt>
</event>
<event>
 4    1  0.7521660E+004  0.2119249E+02  0.7546771E-02  0.1722604E+00
         21   -1    0    0  503  502  0.00000000000E+00  0.00000000000E+00  0.26578785588E+03  0.26578785588E+03  0.00000000000E+00 0. -1.
         21   -1    0    0  501  503 -0.00000000000E+00 -0.00000000000E+00 -0.30898498210E+01  0.30898498210E+01  0.00000000000E+00 0. -1.
          3    1    1    2  501    0  0.18294082076E+02 -0.10698050943E+02  0.40852520189E+02  0.46022278723E+02  0.00000000000E+00 0.  1.
         -3    1    1    2    0  502 -0.18294082076E+02  0.10698050943E+02  0.22184548587E+03  0.22285542698E+03  0.00000000000E+00 0. -1.
<mgrwt>
<rscale>  2 0.21192492E+02</rscale>
<asrwt>0</asrwt>
<pdfrwt beam="1">  1       21 0.40890421E-01 0.21192492E+02</pdfrwt>
<pdfrwt beam="2">  1       21 0.47536172E-03 0.21192492E+02</pdfrwt>
<totfact> 0.49944321E+07</totfact>
</mgrwt>
</event>
<event>
 4    1  0.7521660E+004  0.2536459E+02  0.7546771E-02  0.1655820E+00
         21   -1    0    0  501  502  0.00000000000E+00  0.00000000000E+00  0.65239119644E+03  0.65239119644E+03  0.00000000000E+00 0.  1.
         21   -1    0    0  502  503 -0.00000000000E+00 -0.00000000000E+00 -0.10215334992E+01  0.10215334992E+01  0.00000000000E+00 0.  1.
          2    1    1    2  501    0 -0.14209639277E+01 -0.25324760889E+02  0.26489021507E+03  0.26610183895E+03  0.00000000000E+00 0.  1.
         -2    1    1    2    0  503  0.14209639277E+01  0.25324760889E+02  0.38647944787E+03  0.38731089099E+03  0.00000000000E+00 0. -1.
<mgrwt>
<rscale>  2 0.25364594E+02</rscale>
<asrwt>0</asrwt>
<pdfrwt beam="1">  1       21 0.10036754E+00 0.25364594E+02</pdfrwt>
<pdfrwt beam="2">  1       21 0.15715952E-03 0.25364594E+02</pdfrwt>
<totfact> 0.42152722E+07</totfact>
</mgrwt>
</event>
<event>
 4    1  0.7521660E+004  0.2060700E+02  0.7546771E-02  0.1733520E+00
         21   -1    0    0  503  502  0.00000000000E+00  0.00000000000E+00  0.20972412723E+01  0.20972412723E+01  0.00000000000E+00 0. -1.
         21   -1    0    0  501  503 -0.00000000000E+00 -0.00000000000E+00 -0.21940974297E+03  0.21940974297E+03  0.00000000000E+00 0. -1.
          4    1    1    2  501    0 -0.20359297423E+02 -0.31854940575E+01 -0.13942154497E+03  0.14093621098E+03  0.00000000000E+00 0. -1.
         -4    1    1    2    0  502  0.20359297423E+02  0.31854940575E+01 -0.77890956729E+02  0.80570773262E+02  0.00000000000E+00 0.  1.
<mgrwt>
<rscale>  2 0.20606998E+02</rscale>
<asrwt>0</asrwt>
<pdfrwt beam="1">  1       21 0.32265259E-03 0.20606998E+02</pdfrwt>
<pdfrwt beam="2">  1       21 0.33755336E-01 0.20606998E+02</pdfrwt>
<totfact> 0.12472832E+08</totfact>
</mgrwt>
</event>
<event>
 4    1  0.7521660E+004  0.2414324E+02  0.7546771E-02  0.1673622E+00
         21   -1    0    0  501  502  0.00000000000E+00  0.00000000000E+00  0.60671586763E+01  0.60671586763E+01  0.00000000000E+00 0.  1.
         21   -1    0    0  502  503 -0.00000000000E+00 -0.00000000000E+00 -0.96560741794E+02  0.96560741794E+02  0.00000000000E+00 0.  1.
          4    1    1    2  501    0  0.12224979905E+02 -0.20819367750E+02 -0.48890001013E+02  0.54526401002E+02  0.00000000000E+00 0. -1.
         -4    1    1    2    0  503 -0.12224979905E+02  0.20819367750E+02 -0.41603582104E+02  0.48101499468E+02  0.00000000000E+00 0.  1.
<mgrwt>
<rscale>  2 0.24143244E+02</rscale>
<asrwt>0</asrwt>
<pdfrwt beam="1">  1       21 0.93340910E-03 0.24143244E+02</pdfrwt>
<pdfrwt beam="2">  1       21 0.14855498E-01 0.24143244E+02</pdfrwt>
<totfact> 0.11557376E+08</totfact>
</mgrwt>
</event>
<event>
 4    1  0.7521660E+004  0.2264261E+02  0.7546771E-02  0.1697370E+00
         21   -1    0    0  503  502  0.00000000000E+00  0.00000000000E+00  0.47553629137E+02  0.47553629137E+02  0.00000000000E+00 0. -1.
         21   -1    0    0  501  503 -0.00000000000E+00 -0.00000000000E+00 -0.11684496986E+02  0.11684496986E+02  0.00000000000E+00 0. -1.
          2    1    1    2  501    0 -0.70396339061E+01 -0.21520486249E+02  0.96994731180E+01  0.24632652166E+02  0.00000000000E+00 0. -1.
         -2    1    1    2    0  502  0.70396339061E+01  0.21520486249E+02  0.26169659032E+02  0.34605473957E+02  0.00000000000E+00 0.  1.
<mgrwt>
<rscale>  2 0.22642610E+02</rscale>
<asrwt>0</asrwt>
<pdfrwt beam="1">  1       21 0.73159428E-02 0.22642610E+02</pdfrwt>
<pdfrwt beam="2">  1       21 0.17976150E-02 0.22642610E+02</pdfrwt>
<totfact> 0.13635105E+08</totfact>
</mgrwt>
</event>
<event>
 4    1  0.7521660E+004  0.2403345E+02  0.7546771E-02  0.1675286E+00
         21   -1    0    0  503  502  0.00000000000E+00  0.00000000000E+00  0.32391190080E+01  0.32391190080E+01  0.00000000000E+00 0.  1.
         21   -1    0    0  501  503 -0.00000000000E+00 -0.00000000000E+00 -0.17910171786E+03  0.17910171786E+03  0.00000000000E+00 0.  1.
          5    1    1    2  501    0 -0.97360211246E+01  0.21973087726E+02 -0.81916393977E+02  0.85369211627E+02  0.00000000000E+00 0.  1.
         -5    1    1    2    0  502  0.97360211246E+01 -0.21973087726E+02 -0.93946204878E+02  0.96971625245E+02  0.00000000000E+00 0. -1.
<mgrwt>
<rscale>  2 0.24033449E+02</rscale>
<asrwt>0</asrwt>
<pdfrwt beam="1">  1       21 0.49832598E-03 0.24033449E+02</pdfrwt>
<pdfrwt beam="2">  1       21 0.27554111E-01 0.24033449E+02</pdfrwt>
<totfact> 0.99581855E+07</totfact>
</mgrwt>
</event>
<event>
 4    1  0.7521660E+004  0.2068673E+02  0.7546771E-02  0.1732007E+00
         21   -1    0    0  501  502  0.00000000000E+00  0.00000000000E+00  0.84788557877E+03  0.84788557877E+03  0.00000000000E+00 0.  1.
         21   -1    0    0  502  503 -0.00000000000E+00 -0.00000000000E+00 -0.51883463078E+00  0.51883463078E+00  0.00000000000E+00 0.  1.
          4    1    1    2  501    0 -0.18792964882E+02 -0.86466929554E+01  0.35370474274E+03  0.35430916707E+03  0.00000000000E+00 0.  1.
         -4    1    1    2    0  503  0.18792964882E+02  0.86466929554E+01  0.49366200139E+03  0.49409524633E+03  0.00000000000E+00 0. -1.
<mgrwt>
<rscale>  2 0.20686731E+02</rscale>
<asrwt>0</asrwt>
<pdfrwt beam="1">  1       21 0.13044283E+00 0.20686731E+02</pdfrwt>
<pdfrwt beam="2">  1       21 0.79821391E-04 0.20686731E+02</pdfrwt>
<totfact> 0.58910665E+07</totfact>
</mgrwt>
</event>
<event>
 4    1  0.7521660E+004  0.2471947E+02  0.7546771E-02  0.1665064E+00
         21   -1    0    0  503  502  0.00000000000E+00  0.00000000000E+00  0.15380645789E+02  0.15380645789E+02  0.00000000000E+00 0. -1.
         21   -1    0    0  501  503 -0.00000000000E+00 -0.00000000000E+00 -0.40730873054E+02  0.40730873054E+02  0.00000000000E+00 0. -1.
          5    1    1    2  501    0 -0.66643546135E+01 -0.23804175160E+02 -0.82742168963E+01  0.26067509330E+02  0.00000000000E+00 0.  1.
         -5    1    1    2    0  502  0.66643546135E+01  0.23804175160E+02 -0.17076010369E+02  0.30044009512E+02  0.00000000000E+00 0. -1.
<mgrwt>
<rscale>  2 0.24719474E+02</rscale>
<asrwt>0</asrwt>
<pdfrwt beam="1">  1       21 0.23662532E-02 0.24719474E+02</pdfrwt>
<pdfrwt beam="2">  1       21 0.62662882E-02 0.24719474E+02</pdfrwt>
<totfact> 0.11779430E+08</totfact>
</mgrwt>
</event>
<event>
 4    1  0.7521660E+004  0.3096428E+02  0.7546771E-02  0.1587668E+00
         21   -1    0    0  503  502  0.00000000000E+00  0.00000000000E+00  0.17279916892E+03  0.17279916892E+03  0.00000000000E+00 0.  1.
         21   -1    0    0  501  503 -0.00000000000E+00 -0.00000000000E+00 -0.55500785074E+01  0.55500785074E+01  0.00000000000E+00 0.  1.
          4    1    1    2  501    0 -0.26260858756E+02  0.16405910894E+02  0.85099409423E+02  0.90557694864E+02  0.00000000000E+00 0.  1.
         -4    1    1    2    0  502  0.26260858756E+02 -0.16405910894E+02  0.82149680987E+02  0.87791552562E+02  0.00000000000E+00 0. -1.
<mgrwt>
<rscale>  2 0.30964280E+02</rscale>
<asrwt>0</asrwt>
<pdfrwt beam="1">  1       21 0.26584483E-01 0.30964280E+02</pdfrwt>
<pdfrwt beam="2">  1       21 0.85385837E-03 0.30964280E+02</pdfrwt>
<totfact> 0.50449420E+07</totfact>
</mgrwt>
</event>
<event>
 4    1  0.7521660E+004  0.2142979E+02  0.7546771E-02  0.1718304E+00
         21   -1    0    0  503  502  0.00000000000E+00  0.00000000000E+00  0.28941968884E+01  0.28941968884E+01  0.00000000000E+00 0. -1.
         21   -1    0    0  501  503 -0.00000000000E+00 -0.00000000000E+00 -0.21632899741E+03  0.21632899741E+03  0.00000000000E+00 0. -1.
          2    1    1    2  501    0 -0.27041143534E+01 -0.21258496714E+02 -0.50130636520E+02  0.54518956656E+02  0.00000000000E+00 0.  1.
         -2    1    1    2    0  502  0.27041143534E+01  0.21258496714E+02 -0.16330416401E+03  0.16470423765E+03  0.00000000000E+00 0. -1.
<mgrwt>
<rscale>  2 0.21429790E+02</rscale>
<asrwt>0</asrwt>
<pdfrwt beam="1">  1       21 0.44526107E-03 0.21429790E+02</pdfrwt>
<pdfrwt beam="2">  1       21 0.33281383E-01 0.21429790E+02</pdfrwt>
<totfact> 0.80837581E+07</totfact>
</mgrwt>
</event>
<event>
 4    1  0.7521660E+004  0.2030265E+02  0.7546771E-02  0.1739376E+00
         21   -1    0    0  503  502  0.00000000000E+00  0.00000000000E+00  0.12108240867E+02  0.12108240867E+02  0.00000000000E+00 0. -1.
         21   -1    0    0  501  503 -0.00000000000E+00 -0.00000000000E+00 -0.34051623524E+02  0.34051623524E+02  0.00000000000E+00 0. -1.
          5    1    1    2  501    0 -0.17918716159E+02  0.95455257226E+01 -0.11344901466E+02  0.23257348073E+02  0.00000000000E+00 0.  1.
         -5    1    1    2    0  502  0.17918716159E+02 -0.95455257226E+01 -0.10598481191E+02  0.22902516317E+02  0.00000000000E+00 0. -1.
<mgrwt>
<rscale>  2 0.20302646E+02</rscale>
<asrwt>0</asrwt>
<pdfrwt beam="1">  1       21 0.18628063E-02 0.20302646E+02</pdfrwt>
<pdfrwt beam="2">  1       21 0.52387114E-02 0.20302646E+02</pdfrwt>
<totfact> 0.21329075E+08</totfact>
</mgrwt>
</event>
<event>
 4    1  0.7521660E+004  0.2441593E+02  0.7546771E-02  0.1669536E+00
         21   -1    0    0  501  502  0.00000000000E+00  0.00000000000E+00  0.61207152690E+03  0.61207152690E+03  0.00000000000E+00 0. -1.
         21   -1    0    0  502  503 -0.00000000000E+00 -0.00000000000E+00 -0.11922570598E+01  0.11922570598E+01  0.00000000000E+00 0. -1.
          3    1    1    2  501    0  0.13398977998E+02  0.20410908401E+02  0.43664416320E+03  0.43732626614E+03  0.00000000000E+00 0.  1.
         -3    1    1    2    0  503 -0.13398977998E+02 -0.20410908401E+02  0.17423510664E+03  0.17593751782E+03  0.00000000000E+00 0. -1.
<mgrwt>
<rscale>  2 0.24415933E+02</rscale>
<asrwt>0</asrwt>
<pdfrwt beam="1">  1       21 0.94164599E-01 0.24415933E+02</pdfrwt>
<pdfrwt beam="2">  1       21 0.18342465E-03 0.24415933E+02</pdfrwt>
<totfact> 0.38471477E+07</totfact>
</mgrwt>
</event>
<event>
 4    1  0.7521660E+004  0.2033152E+02  0.7546771E-02  0.1738815E+00
         21   -1    0    0  503  502  0.00000000000E+00  0.00000000000E+00  0.11979585137E+02  0.11979585137E+02  0.00000000000E+00 0. -1.
         21   -1    0    0  501  503 -0.00000000000E+00 -0.00000000000E+00 -0.34820774242E+02  0.34820774242E+02  0.00000000000E+00 0. -1.
          5    1    1    2  501    0 -0.16350277891E+02  0.12084658911E+02 -0.91966366913E+01  0.22314764049E+02  0.00000000000E+00 0.  1.
         -5    1    1    2    0  502  0.16350277891E+02 -0.12084658911E+02 -0.13644552413E+02  0.24485595330E+02  0.00000000000E+00 0. -1.
<mgrwt>
<rscale>  2 0.20331517E+02</rscale>
<asrwt>0</asrwt>
<pdfrwt beam="1">  1       21 0.18430131E-02 0.20331517E+02</pdfrwt>
<pdfrwt beam="2">  1       21 0.53570422E-02 0.20331517E+02</pdfrwt>
<totfact> 0.20933024E+08</totfact>
</mgrwt>
</event>
<event>
 4    1  0.7521660E+004  0.2931992E+02  0.7546771E-02  0.1605730E+00
         21   -1    0    0  501  502  0.00000000000E+00  0.00000000000E+00  0.12483352970E+03  0.12483352970E+03  0.00000000000E+00 0. -1.
         21   -1    0    0  502  503 -0.00000000000E+00 -0.00000000000E+00 -0.68993024270E+01  0.68993024270E+01  0.00000000000E+00 0. -1.
          5    1    1    2  501    0  0.29246873652E+02 -0.20683408505E+01  0.61811919898E+02  0.68413237708E+02  0.00000000000E+00 0.  1.
         -5    1    1    2    0  503 -0.29246873652E+02  0.20683408505E+01  0.56122307376E+02  0.63319594420E+02  0.00000000000E+00 0. -1.
<mgrwt>
<rscale>  2 0.29319919E+02</rscale>
<asrwt>0</asrwt>
<pdfrwt beam="1">  1       21 0.19205157E-01 0.29319919E+02</pdfrwt>
<pdfrwt beam="2">  1       21 0.10614312E-02 0.29319919E+02</pdfrwt>
<totfact> 0.64098860E+07</totfact>
</mgrwt>
</event>
<event>
 4    1  0.7521660E+004  0.2026964E+02  0.7546771E-02  0.1740018E+00
         21   -1    0    0  501  502  0.00000000000E+00  0.00000000000E+00  0.10003877530E+01  0.10003877530E+01  0.00000000000E+00 0.  1.
         21   -1    0    0  502  503 -0.00000000000E+00 -0.00000000000E+00 -0.41184536852E+03  0.41184536852E+03  0.00000000000E+00 0.  1.
          2    1    1    2  501    0  0.14709316243E+02  0.13946125773E+02 -0.19453261713E+03  0.19558578050E+03  0.00000000000E+00 0. -1.
         -2    1    1    2    0  503 -0.14709316243E+02 -0.13946125773E+02 -0.21631236364E+03  0.21725997577E+03  0.00000000000E+00 0.  1.
<mgrwt>
<rscale>  2 0.20269643E+02</rscale>
<asrwt>0</asrwt>
<pdfrwt beam="1">  1       21 0.15390585E-03 0.20269643E+02</pdfrwt>
<pdfrwt beam="2">  1       21 0.63360808E-01 0.20269643E+02</pdfrwt>
<totfact> 0.10808890E+08</totfact>
</mgrwt>
</event>
<event>
 4    1  0.7521660E+004  0.2033683E+02  0.7546771E-02  0.1738712E+00
         21   -1    0    0  501  502  0.00000000000E+00  0.00000000000E+00  0.11773266394E+01  0.11773266394E+01  0.00000000000E+00 0. -1.
         21   -1    0    0  502  503 -0.00000000000E+00 -0.00000000000E+00 -0.40285380050E+03  0.40285380050E+03  0.00000000000E+00 0. -1.
          5    1    1    2  501    0  0.20162835246E+02  0.26545638270E+01 -0.27311036210E+03  0.27386649398E+03  0.00000000000E+00 0. -1.
         -5    1    1    2    0  503 -0.20162835246E+02 -0.26545638270E+01 -0.12856611176E+03  0.13016463317E+03  0.00000000000E+00 0.  1.
<mgrwt>
<rscale>  2 0.20336830E+02</rscale>
<asrwt>0</asrwt>
<pdfrwt beam="1">  1       21 0.18112701E-03 0.20336830E+02</pdfrwt>
<pdfrwt beam="2">  1       21 0.61977563E-01 0.20336830E+02</pdfrwt>
<totfact> 0.89549003E+07</totfact>
</mgrwt>
</event>
<event>
 4    1  0.7521660E+004  0.2121138E+02  0.7546771E-02  0.1722259E+00
         21   -1    0    0  501  502  0.00000000000E+00  0.00000000000E+00  0.18245549190E+01  0.18245549190E+01  0.00000000000E+00 0.  1.
         21   -1    0    0  502  503 -0.00000000000E+00 -0.00000000000E+00 -0.29191929688E+03  0.29191929688E+03  0.00000000000E+00 0.  1.
          1    1    1    2  501    0  0.38556144632E+01  0.20858016232E+02 -0.20292119217E+03  0.20402679441E+03  0.00000000000E+00 0. -1.
         -1    1    1    2    0  503 -0.38556144632E+01 -0.20858016232E+02 -0.87173549787E+02  0.89717057388E+02  0.00000000000E+00 0.  1.
<mgrwt>
<rscale>  2 0.21211379E+02</rscale>
<asrwt>0</asrwt>
<pdfrwt beam="1">  1       21 0.28070095E-03 0.21211379E+02</pdfrwt>
<pdfrwt beam="2">  1       21 0.44910630E-01 0.21211379E+02</pdfrwt>
<totfact> 0.90233108E+07</totfact>
</mgrwt>
</event>
<event>
 4    1  0.7521660E+004  0.4432292E+02  0.7546771E-02  0.1478613E+00
         21   -1    0    0  503  502  0.00000000000E+00  0.00000000000E+00  0.49261913177E+03  0.49261913177E+03  0.00000000000E+00 0. -1.
         21   -1    0    0  501  503 -0.00000000000E+00 -0.00000000000E+00 -0.42670303829E+01  0.42670303829E+01  0.00000000000E+00 0. -1.
          3    1    1    2  501    0  0.13442978149E+02 -0.42235144785E+02  0.18063428851E+03  0.18599265389E+03  0.00000000000E+00 0. -1.
         -3    1    1    2    0  502 -0.13442978149E+02  0.42235144785E+02  0.30771781289E+03  0.31089350827E+03  0.00000000000E+00 0.  1.
<mgrwt>
<rscale>  2 0.44322919E+02</rscale>
<asrwt>0</asrwt>
<pdfrwt beam="1">  1       21 0.75787514E-01 0.44322919E+02</pdfrwt>
<pdfrwt beam="2">  1       21 0.65646660E-03 0.44322919E+02</pdfrwt>
<totfact> 0.10209548E+07</totfact>
</mgrwt>
</event>
<event>
 4    1  0.7521660E+004  0.2649225E+02  0.7546771E-02  0.1640449E+00
         21   -1    0    0  501  502  0.00000000000E+00  0.00000000000E+00  0.79668316070E+00  0.79668316070E+00  0.00000000000E+00 0. -1.
         21   -1    0    0  502  503 -0.00000000000E+00 -0.00000000000E+00 -0.95196106534E+03  0.95196106534E+03  0.00000000000E+00 0. -1.
          2    1    1    2  501    0 -0.12827555835E-02  0.26492251172E+02 -0.60568921963E+03  0.60626831531E+03  0.00000000000E+00 0.  1.
         -2    1    1    2    0  503  0.12827555835E-02 -0.26492251172E+02 -0.34547516255E+03  0.34648943319E+03  0.00000000000E+00 0. -1.
<mgrwt>
<rscale>  2 0.26492251E+02</rscale>
<asrwt>0</asrwt>
<pdfrwt beam="1">  1       21 0.12256618E-03 0.26492251E+02</pdfrwt>
<pdfrwt beam="2">  1       21 0.14645609E+00 0.26492251E+02</pdfrwt>
<totfact> 0.25614404E+07</totfact>
</mgrwt>
</event>
<event>
 4    1  0.7521660E+004  0.2660138E+02  0.7546771E-02  0.1639012E+00
         21   -1    0    0  501  502  0.00000000000E+00  0.00000000000E+00  0.50292106904E+03  0.50292106904E+03  0.00000000000E+00 0. -1.
         21   -1    0    0  502  503 -0.00000000000E+00 -0.00000000000E+00 -0.14075386901E+01  0.14075386901E+01  0.00000000000E+00 0. -1.
          3    1    1    2  501    0 -0.11515748800E+02 -0.23979596981E+02  0.25547016162E+03  0.25685139093E+03  0.00000000000E+00 0.  1.
         -3    1    1    2    0  503  0.11515748800E+02  0.23979596981E+02  0.24604336873E+03  0.24747721680E+03  0.00000000000E+00 0. -1.
<mgrwt>
<rscale>  2 0.26601382E+02</rscale>
<asrwt>0</asrwt>
<pdfrwt beam="1">  1       21 0.77372329E-01 0.26601382E+02</pdfrwt>
<pdfrwt beam="2">  1       21 0.21654482E-03 0.26601382E+02</pdfrwt>
<totfact> 0.46784687E+07</totfact>
</mgrwt>
</event>
<event>
 4    1  0.7521660E+004  0.2102001E+02  0.7546771E-02  0.1725773E+00
         21   -1    0    0  501  502  0.00000000000E+00  0.00000000000E+00  0.15419115348E+01  0.15419115348E+01  0.00000000000E+00 0. -1.
         21   -1    0    0  502  503 -0.00000000000E+00 -0.00000000000E+00 -0.29639300002E+03  0.29639300002E+03  0.00000000000E+00 0. -1.
          2    1    1    2  501    0  0.20530150911E+02  0.45115322106E+01 -0.12028419340E+03  0.12210703584E+03  0.00000000000E+00 0.  1.
         -2    1    1    2    0  503 -0.20530150911E+02 -0.45115322106E+01 -0.17456689509E+03  0.17582787572E+03  0.00000000000E+00 0. -1.
<mgrwt>
<rscale>  2 0.21020015E+02</rscale>
<asrwt>0</asrwt>
<pdfrwt beam="1">  1       21 0.23721705E-03 0.21020015E+02</pdfrwt>
<pdfrwt beam="2">  1       21 0.45598945E-01 0.21020015E+02</pdfrwt>
<totfact> 0.11156670E+08</totfact>
</mgrwt>
</event>
<event>
 4    1  0.7521660E+004  0.2697121E+02  0.7546771E-02  0.1634203E+00
         21   -1    0    0  501  502  0.00000000000E+00  0.00000000000E+00  0.80955362227E+01  0.80955362227E+01  0.00000000000E+00 0. -1.
         21   -1    0    0  502  503 -0.00000000000E+00 -0.00000000000E+00 -0.10509247203E+03  0.10509247203E+03  0.00000000000E+00 0. -1.
          5    1    1    2  501    0 -0.22769975802E+02  0.14455952086E+02 -0.70046243846E+02  0.75059460601E+02  0.00000000000E+00 0.  1.
         -5    1    1    2    0  503  0.22769975802E+02 -0.14455952086E+02 -0.26950691957E+02  0.38128547648E+02  0.00000000000E+00 0. -1.
<mgrwt>
<rscale>  2 0.26971213E+02</rscale>
<asrwt>0</asrwt>
<pdfrwt beam="1">  1       21 0.12454672E-02 0.26971213E+02</pdfrwt>
<pdfrwt beam="2">  1       21 0.16168072E-01 0.26971213E+02</pdfrwt>
<totfact> 0.66507132E+07</totfact>
</mgrwt>
</event>
<event>
 4    1  0.7521660E+004  0.2403140E+02  0.7546771E-02  0.1675317E+00
         21   -1    0    0  503  502  0.00000000000E+00  0.00000000000E+00  0.41233178678E+01  0.41233178678E+01  0.00000000000E+00 0.  1.
         21   -1    0    0  501  503 -0.00000000000E+00 -0.00000000000E+00 -0.17319741437E+03  0.17319741437E+03  0.00000000000E+00 0.  1.
          3    1    1    2  501    0  0.21126427091E+02 -0.11453484607E+02 -0.45755605757E+02  0.51682527893E+02  0.00000000000E+00 0.  1.
         -3    1    1    2    0  502 -0.21126427091E+02  0.11453484607E+02 -0.12331849075E+03  0.12563820435E+03  0.00000000000E+00 0. -1.
<mgrwt>
<rscale>  2 0.24031401E+02</rscale>
<asrwt>0</asrwt>
<pdfrwt beam="1">  1       21 0.63435670E-03 0.24031401E+02</pdfrwt>
<pdfrwt beam="2">  1       21 0.26645752E-01 0.24031401E+02</pdfrwt>
<totfact> 0.73981298E+07</totfact>
</mgrwt>
</event>
<event>
 4    1  0.7521660E+004  0.2011906E+02  0.7546771E-02  0.1742971E+00
         21   -1    0    0  501  502  0.00000000000E+00  0.00000000000E+00  0.43301297803E+01  0.43301297803E+01  0.00000000000E+00 0. -1.
         21   -1    0    0  502  503 -0.00000000000E+00 -0.00000000000E+00 -0.16498881603E+03  0.16498881603E+03  0.00000000000E+00 0. -1.
          3    1    1    2  501    0  0.18955883291E+02 -0.67417533994E+01 -0.13606469572E+03  0.13754409537E+03  0.00000000000E+00 0. -1.
         -3    1    1    2    0  503 -0.18955883291E+02  0.67417533994E+01 -0.24593990530E+02  0.31774850439E+02  0.00000000000E+00 0.  1.
<mgrwt>
<rscale>  2 0.20119064E+02</rscale>
<asrwt>0</asrwt>
<pdfrwt beam="1">  1       21 0.66617382E-03 0.20119064E+02</pdfrwt>
<pdfrwt beam="2">  1       21 0.25382894E-01 0.20119064E+02</pdfrwt>
<totfact> 0.71589408E+07</totfact>
</mgrwt>
</event>
<event>
 4    1  0.7521660E+004  0.4835788E+02  0.7546771E-02  0.1454405E+00
         21   -1    0    0  503  502  0.00000000000E+00  0.00000000000E+00  0.35295260502E+03  0.35295260502E+03  0.00000000000E+00 0.  1.
         21   -1    0    0  501  503 -0.00000000000E+00 -0.00000000000E+00 -0.72104037893E+01  0.72104037893E+01  0.00000000000E+00 0.  1.
          5    1    1    2  501    0 -0.48324294660E+02 -0.18019151773E+01  0.22416135212E+03  0.22931811123E+03  0.00000000000E+00 0.  1.
         -5    1    1    2    0  502  0.48324294660E+02  0.18019151773E+01  0.12158084911E+03  0.13084489758E+03  0.00000000000E+00 0. -1.
<mgrwt>
<rscale>  2 0.48357878E+02</rscale>
<asrwt>0</asrwt>
<pdfrwt beam="1">  1       21 0.54300387E-01 0.48357878E+02</pdfrwt>
<pdfrwt beam="2">  1       21 0.11092932E-02 0.48357878E+02</pdfrwt>
<totfact> 0.92431737E+06</totfact>
</mgrwt>
</event>
<event>
 4    1  0.7521660E+004  0.2290995E+02  0.7546771E-02  0.1692974E+00
         21   -1    0    0  503  502  0.00000000000E+00  0.00000000000E+00  0.27838225488E+03  0.27838225488E+03  0.00000000000E+00 0.  1.
         21   -1    0    0  501  503 -0.00000000000E+00 -0.00000000000E+00 -0.29499868103E+01  0.29499868103E+01  0.00000000000E+00 0.  1.
          4    1    1    2  501    0  0.21947850738E+02 -0.65694648104E+01  0.53214132030E+02  0.57936256935E+02  0.00000000000E+00 0. -1.
         -4    1    1    2    0  502 -0.21947850738E+02  0.65694648104E+01  0.22221813604E+03  0.22339598475E+03  0.00000000000E+00 0.  1.
<mgrwt>
<rscale>  2 0.22909955E+02</rscale>
<asrwt>0</asrwt>
<pdfrwt beam="1">  1       21 0.42828018E-01 0.22909955E+02</pdfrwt>
<pdfrwt beam="2">  1       21 0.45384435E-03 0.22909955E+02</pdfrwt>
<totfact> 0.49915809E+07</totfact>
</mgrwt>
</event>
<event>
 4    1  0.7521660E+004  0.2370620E+02  0.7546771E-02  0.1680312E+00
         21   -1    0    0  503  502  0.00000000000E+00  0.00000000000E+00  0.89230365992E+02  0.89230365992E+02  0.00000000000E+00 0. -1.
         21   -1    0    0  501  503 -0.00000000000E+00 -0.00000000000E+00 -0.82202471547E+01  0.82202471547E+01  0.00000000000E+00 0. -1.
          1    1    1    2  501    0  0.15762944977E+02  0.17706308281E+02  0.16943561205E+02  0.29138772342E+02  0.00000000000E+00 0.  1.
         -1    1    1    2    0  502 -0.15762944977E+02 -0.17706308281E+02  0.64066557632E+02  0.68311840805E+02  0.00000000000E+00 0. -1.
<mgrwt>
<rscale>  2 0.23706197E+02</rscale>
<asrwt>0</asrwt>
<pdfrwt beam="1">  1       21 0.13727748E-01 0.23706197E+02</pdfrwt>
<pdfrwt beam="2">  1       21 0.12646535E-02 0.23706197E+02</pdfrwt>
<totfact> 0.83187587E+07</totfact>
</mgrwt>
</event>
<event>
 4    1  0.7521660E+004  0.2396159E+02  0.7546771E-02  0.1676381E+00
         21   -1    0    0  503  502  0.00000000000E+00  0.00000000000E+00  0.92040632623E+02  0.92040632623E+02  0.00000000000E+00 0. -1.
         21   -1    0    0  501  503 -0.00000000000E+00 -0.00000000000E+00 -0.64376698865E+01  0.64376698865E+01  0.00000000000E+00 0. -1.
          2    1    1    2  501    0 -0.87491175884E+01  0.22307194320E+02  0.34131824512E+02  0.41702990559E+02  0.00000000000E+00 0.  1.
         -2    1    1    2    0  502  0.87491175884E+01 -0.22307194320E+02  0.51471138224E+02  0.56775311951E+02  0.00000000000E+00 0. -1.
<mgrwt>
<rscale>  2 0.23961594E+02</rscale>
<asrwt>0</asrwt>
<pdfrwt beam="1">  1       21 0.14160096E-01 0.23961594E+02</pdfrwt>
<pdfrwt beam="2">  1       21 0.99041082E-03 0.23961594E+02</pdfrwt>
<totfact> 0.11446543E+08</totfact>
</mgrwt>
</event>
<event>
 4    1  0.7521660E+004  0.2265552E+02  0.7546771E-02  0.1697156E+00
         21   -1    0    0  501  502  0.00000000000E+00  0.00000000000E+00  0.26334636882E+03  0.26334636882E+03  0.00000000000E+00 0.  1.
         21   -1    0    0  502  503 -0.00000000000E+00 -0.00000000000E+00 -0.21880128941E+01  0.21880128941E+01  0.00000000000E+00 0.  1.
          5    1    1    2  501    0 -0.13676002261E+02 -0.18062096721E+02  0.86701771803E+02  0.89612887520E+02  0.00000000000E+00 0. -1.
         -5    1    1    2    0  503  0.13676002261E+02  0.18062096721E+02  0.17445658412E+03  0.17592149419E+03  0.00000000000E+00 0.  1.
<mgrwt>
<rscale>  2 0.22655515E+02</rscale>
<asrwt>0</asrwt>
<pdfrwt beam="1">  1       21 0.40514801E-01 0.22655515E+02</pdfrwt>
<pdfrwt beam="2">  1       21 0.33661758E-03 0.22655515E+02</pdfrwt>
<totfact> 0.85683792E+07</totfact>
</mgrwt>
</event>
<event>
 4    1  0.7521660E+004  0.6515420E+02  0.7546771E-02  0.1377392E+00
         21   -1    0    0  501  502  0.00000000000E+00  0.00000000000E+00  0.17344217940E+02  0.17344217940E+02  0.00000000000E+00 0. -1.
         21   -1    0    0  502  503 -0.00000000000E+00 -0.00000000000E+00 -0.26343006841E+03  0.26343006841E+03  0.00000000000E+00 0. -1.
          4    1    1    2  501    0 -0.28374265456E+02 -0.58651260379E+02 -0.16042261318E+03  0.17314873405E+03  0.00000000000E+00 0. -1.
         -4    1    1    2    0  503  0.28374265456E+02  0.58651260379E+02 -0.85663237283E+02  0.10762555229E+03  0.00000000000E+00 0.  1.
<mgrwt>
<rscale>  2 0.65154196E+02</rscale>
<asrwt>0</asrwt>
<pdfrwt beam="1">  1       21 0.26683414E-02 0.65154196E+02</pdfrwt>
<pdfrwt beam="2">  1       21 0.40527701E-01 0.65154196E+02</pdfrwt>
<totfact> 0.42808988E+06</totfact>
</mgrwt>
</event>
<event>
 4    1  0.7521660E+004  0.2255166E+02  0.7546771E-02  0.1698882E+00
         21   -1    0    0  501  502  0.00000000000E+00  0.00000000000E+00  0.37122046135E+02  0.37122046135E+02  0.00000000000E+00 0. -1.
         21   -1    0    0  502  503 -0.00000000000E+00 -0.00000000000E+00 -0.13751449092E+02  0.13751449092E+02  0.00000000000E+00 0. -1.
          2    1    1    2  501    0 -0.11120162395E+01 -0.22524227836E+02  0.13238982838E+02  0.26150489218E+02  0.00000000000E+00 0. -1.
         -2    1    1    2    0  503  0.11120162395E+01  0.22524227836E+02  0.10131614205E+02  0.24723006009E+02  0.00000000000E+00 0.  1.
<mgrwt>
<rscale>  2 0.22551661E+02</rscale>
<asrwt>0</asrwt>
<pdfrwt beam="1">  1       21 0.57110840E-02 0.22551661E+02</pdfrwt>
<pdfrwt beam="2">  1       21 0.21156076E-02 0.22551661E+02</pdfrwt>
<totfact> 0.15815273E+08</totfact>
</mgrwt>
</event>
<event>
 4    1  0.7521660E+004  0.2113612E+02  0.7546771E-02  0.1723635E+00
         21   -1    0    0  503  502  0.00000000000E+00  0.00000000000E+00  0.65954914959E+01  0.65954914959E+01  0.00000000000E+00 0. -1.
         21   -1    0    0  501  503 -0.00000000000E+00 -0.00000000000E+00 -0.82251581887E+02  0.82251581887E+02  0.00000000000E+00 0. -1.
          3    1    1    2  501    0  0.19036479455E+02 -0.91841208472E+01 -0.19164426918E+02  0.28530875992E+02  0.00000000000E+00 0. -1.
         -3    1    1    2    0  502 -0.19036479455E+02  0.91841208472E+01 -0.56491663473E+02  0.60316197391E+02  0.00000000000E+00 0.  1.
<mgrwt>
<rscale>  2 0.21136121E+02</rscale>
<asrwt>0</asrwt>
<pdfrwt beam="1">  1       21 0.10146910E-02 0.21136121E+02</pdfrwt>
<pdfrwt beam="2">  1       21 0.12654089E-01 0.21136121E+02</pdfrwt>
<totfact> 0.12865500E+08</totfact>
</mgrwt>
</event>
<event>
 4    1  0.7521660E+004  0.2707769E+02  0.7546771E-02  0.1632836E+00
         21   -1    0    0  503  502  0.00000000000E+00  0.00000000000E+00  0.27303985131E+01  0.27303985131E+01  0.00000000000E+00 0.  1.
         21   -1    0    0  501  503 -0.00000000000E+00 -0.00000000000E+00 -0.27549928536E+03  0.27549928536E+03  0.00000000000E+00 0.  1.
          5    1    1    2  501    0  0.56908231370E+01  0.26472928408E+02 -0.11426257418E+03  0.11742715727E+03  0.00000000000E+00 0. -1.
         -5    1    1    2    0  502 -0.56908231370E+01 -0.26472928408E+02 -0.15850631267E+03  0.16080252660E+03  0.00000000000E+00 0.  1.
<mgrwt>
<rscale>  2 0.27077692E+02</rscale>
<asrwt>0</asrwt>
<pdfrwt beam="1">  1       21 0.42006121E-03 0.27077692E+02</pdfrwt>
<pdfrwt beam="2">  1       21 0.42384515E-01 0.27077692E+02</pdfrwt>
<totfact> 0.59298453E+07</totfact>
</mgrwt>
</event>
<event>
 4    1  0.7521660E+004  0.3101971E+02  0.7546771E-02  0.1587083E+00
         21   -1    0    0  503  502  0.00000000000E+00  0.00000000000E+00  0.11027602188E+03  0.11027602188E+03  0.00000000000E+00 0.  1.
         21   -1    0    0  501  503 -0.00000000000E+00 -0.00000000000E+00 -0.87534561397E+01  0.87534561397E+01  0.00000000000E+00 0.  1.
          2    1    1    2  501    0 -0.35296574527E+01 -0.30818242837E+02  0.47402914724E+02  0.56650321249E+02  0.00000000000E+00 0. -1.
         -2    1    1    2    0  502  0.35296574527E+01  0.30818242837E+02  0.54119651020E+02  0.62379156774E+02  0.00000000000E+00 0.  1.
<mgrwt>
<rscale>  2 0.31019713E+02</rscale>
<asrwt>0</asrwt>
<pdfrwt beam="1">  1       21 0.16965541E-01 0.31019713E+02</pdfrwt>
<pdfrwt beam="2">  1       21 0.13466856E-02 0.31019713E+02</pdfrwt>
<totfact> 0.56078991E+07</totfact>
</mgrwt>
</event>
<event>
 4    1  0.7521660E+004  0.3060307E+02  0.7546771E-02  0.1591517E+00
         21   -1    0    0  503  502  0.00000000000E+00  0.00000000000E+00  0.18248970794E+02  0.18248970794E+02  0.00000000000E+00 0. -1.
         21   -1    0    0  501  503 -0.00000000000E+00 -0.00000000000E+00 -0.51462909848E+02  0.51462909848E+02  0.00000000000E+00 0. -1.
          2    1    1    2  501    0  0.26447609192E+02 -0.15397146335E+02 -0.18439898827E+02  0.35729231953E+02  0.00000000000E+00 0. -1.
         -2    1    1    2    0  502 -0.26447609192E+02  0.15397146335E+02 -0.14774040227E+02  0.33982648688E+02  0.00000000000E+00 0.  1.
<mgrwt>
<rscale>  2 0.30603074E+02</rscale>
<asrwt>0</asrwt>
<pdfrwt beam="1">  1       21 0.28075340E-02 0.30603074E+02</pdfrwt>
<pdfrwt beam="2">  1       21 0.79173706E-02 0.30603074E+02</pdfrwt>
<totfact> 0.65032737E+07</totfact>
</mgrwt>
</event>
<event>
 4    1  0.7521660E+004  0.2287305E+02  0.7546771E-02  0.1693576E+00
         21   -1    0    0  503  502  0.00000000000E+00  0.00000000000E+00  0.10506599768E+03  0.10506599768E+03  0.00000000000E+00 0.  1.
         21   -1    0    0  501  503 -0.00000000000E+00 -0.00000000000E+00 -0.49980857460E+01  0.49980857460E+01  0.00000000000E+00 0.  1.
          2    1    1    2  501    0 -0.94964976337E+01  0.20808482590E+02  0.53389575241E+02  0.58082899028E+02  0.00000000000E+00 0. -1.
         -2    1    1    2    0  502  0.94964976337E+01 -0.20808482590E+02  0.46678336688E+02  0.51981184394E+02  0.00000000000E+00 0.  1.
<mgrwt>
<rscale>  2 0.22873050E+02</rscale>
<asrwt>0</asrwt>
<pdfrwt beam="1">  1       21 0.16163998E-01 0.22873050E+02</pdfrwt>
<pdfrwt beam="2">  1       21 0.76893635E-03 0.22873050E+02</pdfrwt>
<totfact> 0.13166114E+08</totfact>
</mgrwt>
</event>
<event>
 4    1  0.7521660E+004  0.4896429E+02  0.7546771E-02  0.1451009E+00
         21   -1    0    0  501  502  0.00000000000E+00  0.00000000000E+00  0.24956262556E+03  0.24956262556E+03  0.00000000000E+00 0.  1.
         21   -1    0    0  502  503 -0.00000000000E+00 -0.00000000000E+00 -0.99722151273E+01  0.99722151273E+01  0.00000000000E+00 0.  1.
          4    1    1    2  501    0  0.48405331170E+02  0.73773899838E+01  0.14463535518E+03  0.15269868348E+03  0.00000000000E+00 0. -1.
         -4    1    1    2    0  503 -0.48405331170E+02 -0.73773899838E+01  0.94955055248E+02  0.10683615720E+03  0.00000000000E+00 0.  1.
<mgrwt>
<rscale>  2 0.48964293E+02</rscale>
<asrwt>0</asrwt>
<pdfrwt beam="1">  1       21 0.38394245E-01 0.48964293E+02</pdfrwt>
<pdfrwt beam="2">  1       21 0.15341871E-02 0.48964293E+02</pdfrwt>
<totfact> 0.11106348E+07</totfact>
</mgrwt>
</event>
<event>
 4    1  0.7521660E+004  0.2939318E+02  0.7546771E-02  0.1604895E+00
         21   -1    0    0  503  502  0.00000000000E+00  0.00000000000E+00  0.18485277190E+01  0.18485277190E+01  0.00000000000E+00 0. -1.
         21   -1    0    0  501  503 -0.00000000000E+00 -0.00000000000E+00 -0.49269755065E+03  0.49269755065E+03  0.00000000000E+00 0. -1.
          1    1    1    2  501    0  0.28809093714E+02  0.58305314670E+01 -0.18936816133E+03  0.19163574693E+03  0.00000000000E+00 0. -1.
         -1    1    1    2    0  502 -0.28809093714E+02 -0.58305314670E+01 -0.30148086161E+03  0.30291033144E+03  0.00000000000E+00 0.  1.
<mgrwt>
<rscale>  2 0.29393179E+02</rscale>
<asrwt>0</asrwt>
<pdfrwt beam="1">  1       21 0.28438900E-03 0.29393179E+02</pdfrwt>
<pdfrwt beam="2">  1       21 0.75799591E-01 0.29393179E+02</pdfrwt>
<totfact> 0.33455072E+07</totfact>
</mgrwt>
</event>
<event>
 4    1  0.7521660E+004  0.2078415E+02  0.7546771E-02  0.1730169E+00
         21   -1    0    0  503  502  0.00000000000E+00  0.00000000000E+00  0.76267931802E+01  0.76267931802E+01  0.00000000000E+00 0. -1.
         21   -1    0    0  501  503 -0.00000000000E+00 -0.00000000000E+00 -0.56891331260E+02  0.56891331260E+02  0.00000000000E+00 0. -1.
          3    1    1    2  501    0  0.19602743249E+02  0.69074963721E+01 -0.22487845977E+02  0.30621630683E+02  0.00000000000E+00 0.  1.
         -3    1    1    2    0  502 -0.19602743249E+02 -0.69074963721E+01 -0.26776692103E+02  0.33896493757E+02  0.00000000000E+00 0. -1.
<mgrwt>
<rscale>  2 0.20784154E+02</rscale>
<asrwt>0</asrwt>
<pdfrwt beam="1">  1       21 0.11733528E-02 0.20784154E+02</pdfrwt>
<pdfrwt beam="2">  1       21 0.87525123E-02 0.20784154E+02</pdfrwt>
<totfact> 0.18932988E+08</totfact>
</mgrwt>
</event>
<event>
 4    1  0.7521660E+004  0.2560291E+02  0.7546771E-02  0.1652490E+00
         21   -1    0    0  501  502  0.00000000000E+00  0.00000000000E+00  0.16064032035E+02  0.16064032035E+02  0.00000000000E+00 0.  1.
         21   -1    0    0  502  503 -0.00000000000E+00 -0.00000000000E+00 -0.55928106850E+02  0.55928106850E+02  0.00000000000E+00 0.  1.
          2    1    1    2  501    0  0.25008178051E+02 -0.54863547253E+01 -0.38649459063E+02  0.46360432951E+02  0.00000000000E+00 0.  1.
         -2    1    1    2    0  503 -0.25008178051E+02  0.54863547253E+01 -0.12146157524E+01  0.25631705933E+02  0.00000000000E+00 0. -1.
<mgrwt>
<rscale>  2 0.25602911E+02</rscale>
<asrwt>0</asrwt>
<pdfrwt beam="1">  1       21 0.24713896E-02 0.25602911E+02</pdfrwt>
<pdfrwt beam="2">  1       21 0.86043240E-02 0.25602911E+02</pdfrwt>
<totfact> 0.66281030E+07</totfact>
</mgrwt>
</event>
<event>
 4    1  0.7521660E+004  0.2019918E+02  0.7546771E-02  0.1741396E+00
         21   -1    0    0  501  502  0.00000000000E+00  0.00000000000E+00  0.33770757619E+02  0.33770757619E+02  0.00000000000E+00 0. -1.
         21   -1    0    0  502  503 -0.00000000000E+00 -0.00000000000E+00 -0.12631813541E+02  0.12631813541E+02  0.00000000000E+00 0. -1.
          3    1    1    2  501    0  0.17320325049E+02  0.10392945944E+02  0.15411408905E+02  0.25407056297E+02  0.00000000000E+00 0. -1.
         -3    1    1    2    0  503 -0.17320325049E+02 -0.10392945944E+02  0.57275351724E+01  0.20995514863E+02  0.00000000000E+00 0.  1.
<mgrwt>
<rscale>  2 0.20199183E+02</rscale>
<asrwt>0</asrwt>
<pdfrwt beam="1">  1       21 0.51955011E-02 0.20199183E+02</pdfrwt>
<pdfrwt beam="2">  1       21 0.19433559E-02 0.20199183E+02</pdfrwt>
<totfact> 0.20226476E+08</totfact>
</mgrwt>
</event>
<event>
 4    1  0.7521660E+004  0.3062321E+02  0.7546771E-02  0.1591300E+00
         21   -1    0    0  503  502  0.00000000000E+00  0.00000000000E+00  0.30881295246E+02  0.30881295246E+02  0.00000000000E+00 0. -1.
         21   -1    0    0  501  503 -0.00000000000E+00 -0.00000000000E+00 -0.36029880388E+02  0.36029880388E+02  0.00000000000E+00 0. -1.
          3    1    1    2  501    0  0.11447378079E+02 -0.28403144430E+02 -0.15837392429E+02  0.34476137796E+02  0.00000000000E+00 0.  1.
         -3    1    1    2    0  502 -0.11447378079E+02  0.28403144430E+02  0.10688807287E+02  0.32435037839E+02  0.00000000000E+00 0. -1.
<mgrwt>
<rscale>  2 0.30623211E+02</rscale>
<asrwt>0</asrwt>
<pdfrwt beam="1">  1       21 0.47509685E-02 0.30623211E+02</pdfrwt>
<pdfrwt beam="2">  1       21 0.55430585E-02 0.30623211E+02</pdfrwt>
<totfact> 0.50523158E+07</totfact>
</mgrwt>
</event>
<event>
 4    1  0.7521660E+004  0.2455049E+02  0.7546771E-02  0.1667544E+00
         21   -1    0    0  503  502  0.00000000000E+00  0.00000000000E+00  0.22139816130E+03  0.22139816130E+03  0.00000000000E+00 0. -1.
         21   -1    0    0  501  503 -0.00000000000E+00 -0.00000000000E+00 -0.77785433703E+01  0.77785433703E+01  0.00000000000E+00 0. -1.
          4    1    1    2  501    0  0.16442327611E+02 -0.18231191210E+02  0.19919504133E+03  0.20070224453E+03  0.00000000000E+00 0. -1.
         -4    1    1    2    0  502 -0.16442327611E+02  0.18231191210E+02  0.14424576607E+02  0.28474460144E+02  0.00000000000E+00 0.  1.
<mgrwt>
<rscale>  2 0.24550488E+02</rscale>
<asrwt>0</asrwt>
<pdfrwt beam="1">  1       21 0.34061251E-01 0.24550488E+02</pdfrwt>
<pdfrwt beam="2">  1       21 0.11966991E-02 0.24550488E+02</pdfrwt>
<totfact> 0.18341607E+07</totfact>
</mgrwt>
</event>
<event>
 4    1  0.7521660E+004  0.2002295E+02  0.7546771E-02  0.1744872E+00
         21   -1    0    0  501  502  0.00000000000E+00  0.00000000000E+00  0.19341994633E+01  0.19341994633E+01  0.00000000000E+00 0.  1.
         21   -1    0    0  502  503 -0.00000000000E+00 -0.00000000000E+00 -0.20733898819E+03  0.20733898819E+03  0.00000000000E+00 0.  1.
          4    1    1    2  501    0 -0.12848350798E+02 -0.15357034998E+02 -0.10092036426E+03  0.10288750441E+03  0.00000000000E+00 0.  1.
         -4    1    1    2    0  503  0.12848350798E+02  0.15357034998E+02 -0.10448442447E+03  0.10638568324E+03  0.00000000000E+00 0. -1.
<mgrwt>
<rscale>  2 0.20022953E+02</rscale>
<asrwt>0</asrwt>
<pdfrwt beam="1">  1       21 0.29756912E-03 0.20022953E+02</pdfrwt>
<pdfrwt beam="2">  1       21 0.31898309E-01 0.20022953E+02</pdfrwt>
<totfact> 0.15425499E+08</totfact>
</mgrwt>
</event>
<event>
 4    1  0.7521660E+004  0.2925569E+02  0.7546771E-02  0.1606465E+00
         21   -1    0    0  503  502  0.00000000000E+00  0.00000000000E+00  0.44109545620E+00  0.44109545620E+00  0.00000000000E+00 0. -1.
         21   -1    0    0  501  503 -0.00000000000E+00 -0.00000000000E+00 -0.19556828915E+04  0.19556828915E+04  0.00000000000E+00 0. -1.
          2    1    1    2  501    0  0.26294623063E+02  0.12825300606E+02 -0.89112094581E+03  0.89160105182E+03  0.00000000000E+00 0. -1.
         -2    1    1    2    0  502 -0.26294623063E+02 -0.12825300606E+02 -0.10641208502E+04  0.10645229351E+04  0.00000000000E+00 0.  1.
<mgrwt>
<rscale>  2 0.29255692E+02</rscale>
<asrwt>0</asrwt>
<pdfrwt beam="1">  1       21 0.67860912E-04 0.29255692E+02</pdfrwt>
<pdfrwt beam="2">  1       21 0.30087397E+00 0.29255692E+02</pdfrwt>
<totfact> 0.83724350E+06</totfact>
</mgrwt>
</event>
<event>
 4    1  0.7521660E+004  0.4028253E+02  0.7546771E-02  0.1506143E+00
         21   -1    0    0  503  502  0.00000000000E+00  0.00000000000E+00  0.13512514620E+03  0.13512514620E+03  0.00000000000E+00 0. -1.
         21   -1    0    0  501  503 -0.00000000000E+00 -0.00000000000E+00 -0.12732636287E+02  0.12732636287E+02  0.00000000000E+00 0. -1.
          5    1    1    2  501    0 -0.11839538639E+02 -0.38503348120E+02  0.43568631285E+02  0.59337240614E+02  0.00000000000E+00 0. -1.
         -5    1    1    2    0  502  0.11839538639E+02  0.38503348120E+02  0.78823878627E+02  0.88520541873E+02  0.00000000000E+00 0.  1.
<mgrwt>
<rscale>  2 0.40282533E+02</rscale>
<asrwt>0</asrwt>
<pdfrwt beam="1">  1       21 0.20788483E-01 0.40282533E+02</pdfrwt>
<pdfrwt beam="2">  1       21 0.19588672E-02 0.40282533E+02</pdfrwt>
<totfact> 0.23048533E+07</totfact>
</mgrwt>
</event>
<event>
 4    1  0.7521660E+004  0.2002139E+02  0.7546771E-02  0.1744903E+00
         21   -1    0    0  503  502  0.00000000000E+00  0.00000000000E+00  0.21156201630E+03  0.21156201630E+03  0.00000000000E+00 0. -1.
         21   -1    0    0  501  503 -0.00000000000E+00 -0.00000000000E+00 -0.18958063382E+01  0.18958063382E+01  0.00000000000E+00 0. -1.
          2    1    1    2  501    0  0.14125219044E+02  0.14189236152E+02  0.10735748219E+03  0.10920844847E+03  0.00000000000E+00 0. -1.
         -2    1    1    2    0  502 -0.14125219044E+02 -0.14189236152E+02  0.10230872777E+03  0.10424937417E+03  0.00000000000E+00 0.  1.
<mgrwt>
<rscale>  2 0.20021394E+02</rscale>
<asrwt>0</asrwt>
<pdfrwt beam="1">  1       21 0.32547984E-01 0.20021394E+02</pdfrwt>
<pdfrwt beam="2">  1       21 0.29166268E-03 0.20021394E+02</pdfrwt>
<totfact> 0.15306962E+08</totfact>
</mgrwt>
</event>
<event>
 4    1  0.7521660E+004  0.2598941E+02  0.7546771E-02  0.1647184E+00
         21   -1    0    0  503  502  0.00000000000E+00  0.00000000000E+00  0.22883161696E+02  0.22883161696E+02  0.00000000000E+00 0.  1.
         21   -1    0    0  501  503 -0.00000000000E+00 -0.00000000000E+00 -0.31185421108E+02  0.31185421108E+02  0.00000000000E+00 0.  1.
          4    1    1    2  501    0 -0.38903263903E+01  0.25696591465E+02  0.21013349618E+01  0.26074222154E+02  0.00000000000E+00 0.  1.
         -4    1    1    2    0  502  0.38903263903E+01 -0.25696591465E+02 -0.10403594373E+02  0.27994360650E+02  0.00000000000E+00 0. -1.
<mgrwt>
<rscale>  2 0.25989410E+02</rscale>
<asrwt>0</asrwt>
<pdfrwt beam="1">  1       21 0.35204864E-02 0.25989410E+02</pdfrwt>
<pdfrwt beam="2">  1       21 0.47977571E-02 0.25989410E+02</pdfrwt>
<totfact> 0.98587648E+07</totfact>
</mgrwt>
</event>
<event>
 4    1  0.7521660E+004  0.2310654E+02  0.7546771E-02  0.1689789E+00
         21   -1    0    0  503  502  0.00000000000E+00  0.00000000000E+00  0.22902708269E+01  0.22902708269E+01  0.00000000000E+00 0. -1.
         21   -1    0    0  501  503 -0.00000000000E+00 -0.00000000000E+00 -0.23322973546E+03  0.23322973546E+03  0.00000000000E+00 0. -1.
          5    1    1    2  501    0  0.21159183312E+01 -0.23009451910E+02 -0.11293606562E+03  0.11527561279E+03  0.00000000000E+00 0. -1.
         -5    1    1    2    0  502 -0.21159183312E+01  0.23009451910E+02 -0.11800339902E+03  0.12024439350E+03  0.00000000000E+00 0.  1.
<mgrwt>
<rscale>  2 0.23106536E+02</rscale>
<asrwt>0</asrwt>
<pdfrwt beam="1">  1       21 0.35234920E-03 0.23106536E+02</pdfrwt>
<pdfrwt beam="2">  1       21 0.35881514E-01 0.23106536E+02</pdfrwt>
<totfact> 0.10113155E+08</totfact>
</mgrwt>
</event>
<event>
 4    1  0.7521660E+004  0.2103518E+02  0.7546771E-02  0.1725493E+00
         21   -1    0    0  501  502  0.00000000000E+00  0.00000000000E+00  0.34695476777E+02  0.34695476777E+02  0.00000000000E+00 0. -1.
         21   -1    0    0  502  503 -0.00000000000E+00 -0.00000000000E+00 -0.13290002385E+02  0.13290002385E+02  0.00000000000E+00 0. -1.
          3    1    1    2  501    0  0.20582461657E+02 -0.43406093137E+01  0.15524673476E+02  0.26143720156E+02  0.00000000000E+00 0. -1.
         -3    1    1    2    0  503 -0.20582461657E+02  0.43406093137E+01  0.58808009163E+01  0.21841759006E+02  0.00000000000E+00 0.  1.
<mgrwt>
<rscale>  2 0.21035176E+02</rscale>
<asrwt>0</asrwt>
<pdfrwt beam="1">  1       21 0.53377656E-02 0.21035176E+02</pdfrwt>
<pdfrwt beam="2">  1       21 0.20446158E-02 0.21035176E+02</pdfrwt>
<totfact> 0.18165022E+08</totfact>
</mgrwt>
</event>
<event>
 4    1  0.7521660E+004  0.2577116E+02  0.7546771E-02  0.1650166E+00
         21   -1    0    0  501  502  0.00000000000E+00  0.00000000000E+00  0.11630536826E+01  0.11630536826E+01  0.00000000000E+00 0.  1.
         21   -1    0    0  502  503 -0.00000000000E+00 -0.00000000000E+00 -0.57575972578E+03  0.57575972578E+03  0.00000000000E+00 0.  1.
          4    1    1    2  501    0 -0.22389360294E+02  0.12762021341E+02 -0.31340959267E+03  0.31446736782E+03  0.00000000000E+00 0.  1.
         -4    1    1    2    0  503  0.22389360294E+02 -0.12762021341E+02 -0.26118707943E+03  0.26245541165E+03  0.00000000000E+00 0. -1.
<mgrwt>
<rscale>  2 0.25771159E+02</rscale>
<asrwt>0</asrwt>
<pdfrwt beam="1">  1       21 0.17893156E-03 0.25771159E+02</pdfrwt>
<pdfrwt beam="2">  1       21 0.88578309E-01 0.25771159E+02</pdfrwt>
<totfact> 0.45996411E+07</totfact>
</mgrwt>
</event>
<event>
 4    1  0.7521660E+004  0.2340018E+02  0.7546771E-02  0.1685104E+00
         21   -1    0    0  501  502  0.00000000000E+00  0.00000000000E+00  0.13471562810E+03  0.13471562810E+03  0.00000000000E+00 0.  1.
         21   -1    0    0  502  503 -0.00000000000E+00 -0.00000000000E+00 -0.40897393470E+01  0.40897393470E+01  0.00000000000E+00 0.  1.
          2    1    1    2  501    0  0.19045326988E+02  0.13595733027E+02  0.70751631755E+02  0.74520881856E+02  0.00000000000E+00 0.  1.
         -2    1    1    2    0  503 -0.19045326988E+02 -0.13595733027E+02  0.59874257003E+02  0.64284485595E+02  0.00000000000E+00 0. -1.
<mgrwt>
<rscale>  2 0.23400180E+02</rscale>
<asrwt>0</asrwt>
<pdfrwt beam="1">  1       21 0.20725478E-01 0.23400180E+02</pdfrwt>
<pdfrwt beam="2">  1       21 0.62919077E-03 0.23400180E+02</pdfrwt>
<totfact> 0.11612382E+08</totfact>
</mgrwt>
</event>
<event>
 4    1  0.7521660E+004  0.2192988E+02  0.7546771E-02  0.1709468E+00
         21   -1    0    0  501  502  0.00000000000E+00  0.00000000000E+00  0.19891797591E+01  0.19891797591E+01  0.00000000000E+00 0.  1.
         21   -1    0    0  502  503 -0.00000000000E+00 -0.00000000000E+00 -0.27237309814E+03  0.27237309814E+03  0.00000000000E+00 0.  1.
          4    1    1    2  501    0  0.19847675741E+02  0.93268030052E+01 -0.18117641603E+03  0.18249880332E+03  0.00000000000E+00 0.  1.
         -4    1    1    2    0  503 -0.19847675741E+02 -0.93268030052E+01 -0.89207502347E+02  0.91863474579E+02  0.00000000000E+00 0. -1.
<mgrwt>
<rscale>  2 0.21929877E+02</rscale>
<asrwt>0</asrwt>
<pdfrwt beam="1">  1       21 0.30602774E-03 0.21929877E+02</pdfrwt>
<pdfrwt beam="2">  1       21 0.41903542E-01 0.21929877E+02</pdfrwt>
<totfact> 0.91592820E+07</totfact>
</mgrwt>
</event>
<event>
 4    1  0.7521660E+004  0.2421165E+02  0.7546771E-02  0.1672590E+00
         21   -1    0    0  501  502  0.00000000000E+00  0.00000000000E+00  0.13078227197E+02  0.13078227197E+02  0.00000000000E+00 0. -1.
         21   -1    0    0  502  503 -0.00000000000E+00 -0.00000000000E+00 -0.49585675788E+02  0.49585675788E+02  0.00000000000E+00 0. -1.
          4    1    1    2  501    0  0.12331895383E+02  0.20835742748E+02 -0.27964194683E+02  0.36989187662E+02  0.00000000000E+00 0. -1.
         -4    1    1    2    0  503 -0.12331895383E+02 -0.20835742748E+02 -0.85432539069E+01  0.25674715323E+02  0.00000000000E+00 0.  1.
<mgrwt>
<rscale>  2 0.24211646E+02</rscale>
<asrwt>0</asrwt>
<pdfrwt beam="1">  1       21 0.20120349E-02 0.24211646E+02</pdfrwt>
<pdfrwt beam="2">  1       21 0.76285656E-02 0.24211646E+02</pdfrwt>
<totfact> 0.10930349E+08</totfact>
</mgrwt>
</event>
<event>
 4    1  0.7521660E+004  0.2111870E+02  0.7546771E-02  0.1723955E+00
         21   -1    0    0  503  502  0.00000000000E+00  0.00000000000E+00  0.43507114685E+01  0.43507114685E+01  0.00000000000E+00 0.  1.
         21   -1    0    0  501  503 -0.00000000000E+00 -0.00000000000E+00 -0.10255425043E+03  0.10255425043E+03  0.00000000000E+00 0.  1.
          3    1    1    2  501    0 -0.13788916235E+01 -0.21073634454E+02 -0.50188842800E+02  0.54451073018E+02  0.00000000000E+00 0.  1.
         -3    1    1    2    0  502  0.13788916235E+01  0.21073634454E+02 -0.48014696166E+02  0.52453888885E+02  0.00000000000E+00 0. -1.
<mgrwt>
<rscale>  2 0.21118698E+02</rscale>
<asrwt>0</asrwt>
<pdfrwt beam="1">  1       21 0.66934026E-03 0.21118698E+02</pdfrwt>
<pdfrwt beam="2">  1       21 0.15777576E-01 0.21118698E+02</pdfrwt>
<totfact> 0.16468719E+08</totfact>
</mgrwt>
</event>
<event>
 4    1  0.7521660E+004  0.5467189E+02  0.7546771E-02  0.1421657E+00
         21   -1    0    0  503  502  0.00000000000E+00  0.00000000000E+00  0.35980847960E+02  0.35980847960E+02  0.00000000000E+00 0.  1.
         21   -1    0    0  501  503 -0.00000000000E+00 -0.00000000000E+00 -0.10423962250E+03  0.10423962250E+03  0.00000000000E+00 0.  1.
          5    1    1    2  501    0  0.53269272348E+02  0.12304462385E+02 -0.25359404048E+01  0.54730669325E+02  0.00000000000E+00 0.  1.
         -5    1    1    2    0  502 -0.53269272348E+02 -0.12304462385E+02 -0.65722834132E+02  0.85489801131E+02  0.00000000000E+00 0. -1.
<mgrwt>
<rscale>  2 0.54671886E+02</rscale>
<asrwt>0</asrwt>
<pdfrwt beam="1">  1       21 0.55355151E-02 0.54671886E+02</pdfrwt>
<pdfrwt beam="2">  1       21 0.16036865E-01 0.54671886E+02</pdfrwt>
<totfact> 0.71963938E+06</totfact>
</mgrwt>
</event>
<event>
 4    1  0.7521660E+004  0.3339483E+02  0.7546771E-02  0.1563335E+00
         21   -1    0    0  503  502  0.00000000000E+00  0.00000000000E+00  0.12665178910E+02  0.12665178910E+02  0.00000000000E+00 0.  1.
         21   -1    0    0  501  503 -0.00000000000E+00 -0.00000000000E+00 -0.88785903164E+02  0.88785903164E+02  0.00000000000E+00 0.  1.
          5    1    1    2  501    0 -0.25355136553E+02 -0.21733190027E+02 -0.42667195039E+02  0.54182137562E+02  0.00000000000E+00 0.  1.
         -5    1    1    2    0  502  0.25355136553E+02  0.21733190027E+02 -0.33453529215E+02  0.47268944512E+02  0.00000000000E+00 0. -1.
<mgrwt>
<rscale>  2 0.33394827E+02</rscale>
<asrwt>0</asrwt>
<pdfrwt beam="1">  1       21 0.19484890E-02 0.33394827E+02</pdfrwt>
<pdfrwt beam="2">  1       21 0.13659370E-01 0.33394827E+02</pdfrwt>
<totfact> 0.46866735E+07</totfact>
</mgrwt>
</event>
<event>
 4    1  0.7521660E+004  0.2433927E+02  0.7546771E-02  0.1670678E+00
         21   -1    0    0  503  502  0.00000000000E+00  0.00000000000E+00  0.12366308481E+01  0.12366308481E+01  0.00000000000E+00 0. -1.
         21   -1    0    0  501  503 -0.00000000000E+00 -0.00000000000E+00 -0.47948271819E+03  0.47948271819E+03  0.00000000000E+00 0. -1.
          3    1    1    2  501    0  0.90283694064E+01  0.22602849097E+02 -0.23185016074E+03  0.23312420997E+03  0.00000000000E+00 0. -1.
         -3    1    1    2    0  502 -0.90283694064E+01 -0.22602849097E+02 -0.24639592660E+03  0.24759513906E+03  0.00000000000E+00 0.  1.
<mgrwt>
<rscale>  2 0.24339274E+02</rscale>
<asrwt>0</asrwt>
<pdfrwt beam="1">  1       21 0.19025116E-03 0.24339274E+02</pdfrwt>
<pdfrwt beam="2">  1       21 0.73766472E-01 0.24339274E+02</pdfrwt>
<totfact> 0.61174147E+07</totfact>
</mgrwt>
</event>
<event>
 4    1  0.7521660E+004  0.3948819E+02  0.7546771E-02  0.1512012E+00
         21   -1    0    0  503  502  0.00000000000E+00  0.00000000000E+00  0.26565453603E+03  0.26565453603E+03  0.00000000000E+00 0.  1.
         21   -1    0    0  501  503 -0.00000000000E+00 -0.00000000000E+00 -0.64300416307E+01  0.64300416307E+01  0.00000000000E+00 0.  1.
          4    1    1    2  501    0  0.38065758515E+02 -0.10503101441E+02  0.89452899145E+02  0.97781073203E+02  0.00000000000E+00 0. -1.
         -4    1    1    2    0  502 -0.38065758515E+02  0.10503101441E+02  0.16977159526E+03  0.17430350446E+03  0.00000000000E+00 0.  1.
<mgrwt>
<rscale>  2 0.39488190E+02</rscale>
<asrwt>0</asrwt>
<pdfrwt beam="1">  1       21 0.40869920E-01 0.39488190E+02</pdfrwt>
<pdfrwt beam="2">  1       21 0.98923738E-03 0.39488190E+02</pdfrwt>
<totfact> 0.18833887E+07</totfact>
</mgrwt>
</event>
<event>
 4    1  0.7521660E+004  0.2084258E+02  0.7546771E-02  0.1729074E+00
         21   -1    0    0  503  502  0.00000000000E+00  0.00000000000E+00  0.64694708831E+02  0.64694708831E+02  0.00000000000E+00 0. -1.
         21   -1    0    0  501  503 -0.00000000000E+00 -0.00000000000E+00 -0.72539421557E+01  0.72539421557E+01  0.00000000000E+00 0. -1.
          1    1    1    2  501    0 -0.67750196424E+01  0.19710710041E+02  0.38527725849E+02  0.43804093879E+02  0.00000000000E+00 0.  1.
         -1    1    1    2    0  502  0.67750196424E+01 -0.19710710041E+02  0.18913040826E+02  0.28144557107E+02  0.00000000000E+00 0. -1.
<mgrwt>
<rscale>  2 0.20842576E+02</rscale>
<asrwt>0</asrwt>
<pdfrwt beam="1">  1       21 0.99530317E-02 0.20842576E+02</pdfrwt>
<pdfrwt beam="2">  1       21 0.11159911E-02 0.20842576E+02</pdfrwt>
<totfact> 0.16548016E+08</totfact>
</mgrwt>
</event>
<event>
 4    1  0.7521660E+004  0.2527643E+02  0.7546771E-02  0.1657063E+00
         21   -1    0    0  501  502  0.00000000000E+00  0.00000000000E+00  0.55928400602E+01  0.55928400602E+01  0.00000000000E+00 0. -1.
         21   -1    0    0  502  503 -0.00000000000E+00 -0.00000000000E+00 -0.12122733960E+03  0.12122733960E+03  0.00000000000E+00 0. -1.
          1    1    1    2  501    0 -0.68960995814E+01  0.24317515165E+02 -0.42588253271E+02  0.49524307667E+02  0.00000000000E+00 0.  1.
         -1    1    1    2    0  503  0.68960995814E+01 -0.24317515165E+02 -0.73046246270E+02  0.77295871994E+02  0.00000000000E+00 0. -1.
<mgrwt>
<rscale>  2 0.25276426E+02</rscale>
<asrwt>0</asrwt>
<pdfrwt beam="1">  1       21 0.86043700E-03 0.25276426E+02</pdfrwt>
<pdfrwt beam="2">  1       21 0.18650359E-01 0.25276426E+02</pdfrwt>
<totfact> 0.89334128E+07</totfact>
</mgrwt>
</event>
<event>
 4    1  0.7521660E+004  0.2041232E+02  0.7546771E-02  0.1737251E+00
         21   -1    0    0  503  502  0.00000000000E+00  0.00000000000E+00  0.22384427653E+02  0.22384427653E+02  0.00000000000E+00 0.  1.
         21   -1    0    0  501  503 -0.00000000000E+00 -0.00000000000E+00 -0.18779709510E+02  0.18779709510E+02  0.00000000000E+00 0.  1.
          3    1    1    2  501    0  0.12282826351E+02 -0.16303224109E+02  0.37359515304E+01  0.20751392083E+02  0.00000000000E+00 0. -1.
         -3    1    1    2    0  502 -0.12282826351E+02  0.16303224109E+02 -0.13123338755E+00  0.20412745081E+02  0.00000000000E+00 0.  1.
<mgrwt>
<rscale>  2 0.20412323E+02</rscale>
<asrwt>0</asrwt>
<pdfrwt beam="1">  1       21 0.34437581E-02 0.20412323E+02</pdfrwt>
<pdfrwt beam="2">  1       21 0.28891861E-02 0.20412323E+02</pdfrwt>
<totfact> 0.21066964E+08</totfact>
</mgrwt>
</event>
<event>
 4    1  0.7521660E+004  0.2146810E+02  0.7546771E-02  0.1717617E+00
         21   -1    0    0  501  502  0.00000000000E+00  0.00000000000E+00  0.67098509952E+02  0.67098509952E+02  0.00000000000E+00 0.  1.
         21   -1    0    0  502  503 -0.00000000000E+00 -0.00000000000E+00 -0.71075597490E+01  0.71075597490E+01  0.00000000000E+00 0.  1.
          3    1    1    2  501    0 -0.10393779161E+02 -0.18784265947E+02  0.23193673635E+02  0.31604205244E+02  0.00000000000E+00 0.  1.
         -3    1    1    2    0  503  0.10393779161E+02  0.18784265947E+02  0.36797276568E+02  0.42601864457E+02  0.00000000000E+00 0. -1.
<mgrwt>
<rscale>  2 0.21468099E+02</rscale>
<asrwt>0</asrwt>
<pdfrwt beam="1">  1       21 0.10322847E-01 0.21468099E+02</pdfrwt>
<pdfrwt beam="2">  1       21 0.10934708E-02 0.21468099E+02</pdfrwt>
<totfact> 0.16212858E+08</totfact>
</mgrwt>
</event>
<event>
 4    1  0.7521660E+004  0.2107128E+02  0.7546771E-02  0.1724827E+00
         21   -1    0    0  501  502  0.00000000000E+00  0.00000000000E+00  0.65957388406E+03  0.65957388406E+03  0.00000000000E+00 0. -1.
         21   -1    0    0  502  503 -0.00000000000E+00 -0.00000000000E+00 -0.69321501811E+00  0.69321501811E+00  0.00000000000E+00 0. -1.
          1    1    1    2  501    0  0.31311379578E+01 -0.20837345592E+02  0.38559208020E+03  0.38616738768E+03  0.00000000000E+00 0.  1.
         -1    1    1    2    0  503 -0.31311379578E+01  0.20837345592E+02  0.27328858885E+03  0.27409971140E+03  0.00000000000E+00 0. -1.
<mgrwt>
<rscale>  2 0.21071284E+02</rscale>
<asrwt>0</asrwt>
<pdfrwt beam="1">  1       21 0.10147240E+00 0.21071284E+02</pdfrwt>
<pdfrwt beam="2">  1       21 0.10664899E-03 0.21071284E+02</pdfrwt>
<totfact> 0.68810967E+07</totfact>
</mgrwt>
</event>
<event>
 4    1  0.7521660E+004  0.2026860E+02  0.7546771E-02  0.1740039E+00
         21   -1    0    0  503  502  0.00000000000E+00  0.00000000000E+00  0.14120284769E+03  0.14120284769E+03  0.00000000000E+00 0.  1.
         21   -1    0    0  501  503 -0.00000000000E+00 -0.00000000000E+00 -0.29094043606E+01  0.29094043606E+01  0.00000000000E+00 0.  1.
          3    1    1    2  501    0  0.19974487290E+02  0.34403436499E+01  0.69116168522E+02  0.72026806524E+02  0.00000000000E+00 0. -1.
         -3    1    1    2    0  502 -0.19974487290E+02 -0.34403436499E+01  0.69177274806E+02  0.72085445525E+02  0.00000000000E+00 0.  1.
<mgrwt>
<rscale>  2 0.20268599E+02</rscale>
<asrwt>0</asrwt>
<pdfrwt beam="1">  1       21 0.21723510E-01 0.20268599E+02</pdfrwt>
<pdfrwt beam="2">  1       21 0.44760078E-03 0.20268599E+02</pdfrwt>
<totfact> 0.16944391E+08</totfact>
</mgrwt>
</event>
<event>
 4    1  0.7521660E+004  0.2098668E+02  0.7546771E-02  0.1726390E+00
         21   -1    0    0  503  502  0.00000000000E+00  0.00000000000E+00  0.58710273157E+02  0.58710273157E+02  0.00000000000E+00 0.  1.
         21   -1    0    0  501  503 -0.00000000000E+00 -0.00000000000E+00 -0.75756769932E+01  0.75756769932E+01  0.00000000000E+00 0.  1.
          4    1    1    2  501    0 -0.14624985438E+02  0.15051596650E+02  0.22297410672E+02  0.30620504298E+02  0.00000000000E+00 0.  1.
         -4    1    1    2    0  502  0.14624985438E+02 -0.15051596650E+02  0.28837185492E+02  0.35665445853E+02  0.00000000000E+00 0. -1.
<mgrwt>
<rscale>  2 0.20986681E+02</rscale>
<asrwt>0</asrwt>
<pdfrwt beam="1">  1       21 0.90323494E-02 0.20986681E+02</pdfrwt>
<pdfrwt beam="2">  1       21 0.11654888E-02 0.20986681E+02</pdfrwt>
<totfact> 0.18221517E+08</totfact>
</mgrwt>
</event>
<event>
 4    1  0.7521660E+004  0.2626724E+02  0.7546771E-02  0.1643440E+00
         21   -1    0    0  503  502  0.00000000000E+00  0.00000000000E+00  0.26778893167E+02  0.26778893167E+02  0.00000000000E+00 0. -1.
         21   -1    0    0  501  503 -0.00000000000E+00 -0.00000000000E+00 -0.37682621017E+02  0.37682621017E+02  0.00000000000E+00 0. -1.
          4    1    1    2  501    0  0.19961114823E+02 -0.17074013931E+02 -0.23577281576E+02  0.35296689125E+02  0.00000000000E+00 0. -1.
         -4    1    1    2    0  502 -0.19961114823E+02  0.17074013931E+02  0.12673553726E+02  0.29164825059E+02  0.00000000000E+00 0.  1.
<mgrwt>
<rscale>  2 0.26267243E+02</rscale>
<asrwt>0</asrwt>
<pdfrwt beam="1">  1       21 0.41198297E-02 0.26267243E+02</pdfrwt>
<pdfrwt beam="2">  1       21 0.57973263E-02 0.26267243E+02</pdfrwt>
<totfact> 0.56920764E+07</totfact>
</mgrwt>
</event>
<event>
 4    1  0.7521660E+004  0.2452365E+02  0.7546771E-02  0.1667940E+00
         21   -1    0    0  501  502  0.00000000000E+00  0.00000000000E+00  0.18153852723E+02  0.18153852723E+02  0.00000000000E+00 0.  1.
         21   -1    0    0  502  503 -0.00000000000E+00 -0.00000000000E+00 -0.36180446402E+02  0.36180446402E+02  0.00000000000E+00 0.  1.
          5    1    1    2  501    0 -0.39602174428E+01  0.24201780101E+02 -0.16903664507E+02  0.29784951839E+02  0.00000000000E+00 0. -1.
         -5    1    1    2    0  503  0.39602174428E+01 -0.24201780101E+02 -0.11229291717E+01  0.24549347287E+02  0.00000000000E+00 0.  1.
<mgrwt>
<rscale>  2 0.24523651E+02</rscale>
<asrwt>0</asrwt>
<pdfrwt beam="1">  1       21 0.27929004E-02 0.24523651E+02</pdfrwt>
<pdfrwt beam="2">  1       21 0.55662225E-02 0.24523651E+02</pdfrwt>
<totfact> 0.10996372E+08</totfact>
</mgrwt>
</event>
<event>
 4    1  0.7521660E+004  0.2788461E+02  0.7546771E-02  0.1622722E+00
         21   -1    0    0  501  502  0.00000000000E+00  0.00000000000E+00  0.56760042509E+02  0.56760042509E+02  0.00000000000E+00 0. -1.
         21   -1    0    0  502  503 -0.00000000000E+00 -0.00000000000E+00 -0.33405802009E+02  0.33405802009E+02  0.00000000000E+00 0. -1.
          3    1    1    2  501    0  0.25841909423E+02 -0.10476030870E+02  0.46303733990E+02  0.54051709379E+02  0.00000000000E+00 0. -1.
         -3    1    1    2    0  503 -0.25841909423E+02  0.10476030870E+02 -0.22949493490E+02  0.36114135139E+02  0.00000000000E+00 0.  1.
<mgrwt>
<rscale>  2 0.27884611E+02</rscale>
<asrwt>0</asrwt>
<pdfrwt beam="1">  1       21 0.87323142E-02 0.27884611E+02</pdfrwt>
<pdfrwt beam="2">  1       21 0.51393542E-02 0.27884611E+02</pdfrwt>
<totfact> 0.20773051E+07</totfact>
</mgrwt>
</event>
<event>
 4    1  0.7521660E+004  0.2931981E+02  0.7546771E-02  0.1605731E+00
         21   -1    0    0  503  502  0.00000000000E+00  0.00000000000E+00  0.77317172666E+02  0.77317172666E+02  0.00000000000E+00 0. -1.
         21   -1    0    0  501  503 -0.00000000000E+00 -0.00000000000E+00 -0.14647298716E+02  0.14647298716E+02  0.00000000000E+00 0. -1.
          1    1    1    2  501    0 -0.29081776625E+02  0.37284774098E+01  0.53904571445E+02  0.61362481193E+02  0.00000000000E+00 0. -1.
         -1    1    1    2    0  502  0.29081776625E+02 -0.37284774098E+01  0.87653025051E+01  0.30601990188E+02  0.00000000000E+00 0.  1.
<mgrwt>
<rscale>  2 0.29319810E+02</rscale>
<asrwt>0</asrwt>
<pdfrwt beam="1">  1       21 0.11894949E-01 0.29319810E+02</pdfrwt>
<pdfrwt beam="2">  1       21 0.22534306E-02 0.29319810E+02</pdfrwt>
<totfact> 0.46041363E+07</totfact>
</mgrwt>
</event>
<event>
 4    1  0.7521660E+004  0.2271836E+02  0.7546771E-02  0.1696117E+00
         21   -1    0    0  501  502  0.00000000000E+00  0.00000000000E+00  0.23605159949E+01  0.23605159949E+01  0.00000000000E+00 0. -1.
         21   -1    0    0  502  503 -0.00000000000E+00 -0.00000000000E+00 -0.22558669277E+03  0.22558669277E+03  0.00000000000E+00 0. -1.
          5    1    1    2  501    0  0.22597098651E+02 -0.23441200503E+01 -0.91625320473E+02  0.94399804650E+02  0.00000000000E+00 0. -1.
         -5    1    1    2    0  503 -0.22597098651E+02  0.23441200503E+01 -0.13160085630E+03  0.13354740411E+03  0.00000000000E+00 0.  1.
<mgrwt>
<rscale>  2 0.22718357E+02</rscale>
<asrwt>0</asrwt>
<pdfrwt beam="1">  1       21 0.36315628E-03 0.22718357E+02</pdfrwt>
<pdfrwt beam="2">  1       21 0.34705648E-01 0.22718357E+02</pdfrwt>
<totfact> 0.10245940E+08</totfact>
</mgrwt>
</event>
<event>
 4    1  0.7521660E+004  0.2725673E+02  0.7546771E-02  0.1630555E+00
         21   -1    0    0  503  502  0.00000000000E+00  0.00000000000E+00  0.30345259669E+02  0.30345259669E+02  0.00000000000E+00 0. -1.
         21   -1    0    0  501  503 -0.00000000000E+00 -0.00000000000E+00 -0.25199078065E+02  0.25199078065E+02  0.00000000000E+00 0. -1.
          2    1    1    2  501    0  0.90471878124E+01 -0.25711431651E+02  0.72561990494E+01  0.28206058738E+02  0.00000000000E+00 0. -1.
         -2    1    1    2    0  502 -0.90471878124E+01  0.25711431651E+02 -0.21100174460E+01  0.27338278997E+02  0.00000000000E+00 0.  1.
<mgrwt>
<rscale>  2 0.27256730E+02</rscale>
<asrwt>0</asrwt>
<pdfrwt beam="1">  1       21 0.46685015E-02 0.27256730E+02</pdfrwt>
<pdfrwt beam="2">  1       21 0.38767812E-02 0.27256730E+02</pdfrwt>
<totfact> 0.89544715E+07</totfact>
</mgrwt>
</event>
<event>
 4    1  0.7521660E+004  0.3416598E+02  0.7546771E-02  0.1556134E+00
         21   -1    0    0  503  502  0.00000000000E+00  0.00000000000E+00  0.21338423744E+01  0.21338423744E+01  0.00000000000E+00 0.  1.
         21   -1    0    0  501  503 -0.00000000000E+00 -0.00000000000E+00 -0.10149481925E+04  0.10149481925E+04  0.00000000000E+00 0.  1.
          1    1    1    2  501    0  0.35701885168E+00  0.34164118652E+02 -0.16111987480E+03  0.16470254559E+03  0.00000000000E+00 0.  1.
         -1    1    1    2    0  502 -0.35701885168E+00 -0.34164118652E+02 -0.85169447529E+03  0.85237948926E+03  0.00000000000E+00 0. -1.
<mgrwt>
<rscale>  2 0.34165984E+02</rscale>
<asrwt>0</asrwt>
<pdfrwt beam="1">  1       21 0.32828447E-03 0.34165984E+02</pdfrwt>
<pdfrwt beam="2">  1       21 0.15614539E+00 0.34165984E+02</pdfrwt>
<totfact> 0.53919443E+06</totfact>
</mgrwt>
</event>
<event>
 4    1  0.7521660E+004  0.2525926E+02  0.7546771E-02  0.1657306E+00
         21   -1    0    0  503  502  0.00000000000E+00  0.00000000000E+00  0.79471748374E+01  0.79471748374E+01  0.00000000000E+00 0.  1.
         21   -1    0    0  501  503 -0.00000000000E+00 -0.00000000000E+00 -0.85784979315E+02  0.85784979315E+02  0.00000000000E+00 0.  1.
          4    1    1    2  501    0  0.72613113761E+01 -0.24193046125E+02 -0.27050909849E+02  0.37010563997E+02  0.00000000000E+00 0. -1.
         -4    1    1    2    0  502 -0.72613113761E+01  0.24193046125E+02 -0.50786894629E+02  0.56721590155E+02  0.00000000000E+00 0.  1.
<mgrwt>
<rscale>  2 0.25259258E+02</rscale>
<asrwt>0</asrwt>
<pdfrwt beam="1">  1       21 0.12226423E-02 0.25259258E+02</pdfrwt>
<pdfrwt beam="2">  1       21 0.13197689E-01 0.25259258E+02</pdfrwt>
<totfact> 0.95180863E+07</totfact>
</mgrwt>
</event>
<event>
 4    1  0.7521660E+004  0.4624519E+02  0.7546771E-02  0.1466715E+00
         21   -1    0    0  501  502  0.00000000000E+00  0.00000000000E+00  0.27002481363E+03  0.27002481363E+03  0.00000000000E+00 0. -1.
         21   -1    0    0  502  503 -0.00000000000E+00 -0.00000000000E+00 -0.11838008189E+02  0.11838008189E+02  0.00000000000E+00 0. -1.
          2    1    1    2  501    0  0.24638360441E+02 -0.39135265219E+02  0.21017023772E+03  0.21519792427E+03  0.00000000000E+00 0. -1.
         -2    1    1    2    0  503 -0.24638360441E+02  0.39135265219E+02  0.48016567720E+02  0.66664897544E+02  0.00000000000E+00 0.  1.
<mgrwt>
<rscale>  2 0.46245192E+02</rscale>
<asrwt>0</asrwt>
<pdfrwt beam="1">  1       21 0.41542274E-01 0.46245192E+02</pdfrwt>
<pdfrwt beam="2">  1       21 0.18212322E-02 0.46245192E+02</pdfrwt>
<totfact> 0.72459528E+06</totfact>
</mgrwt>
</event>
<event>
 4    1  0.7521660E+004  0.2885198E+02  0.7546771E-02  0.1611137E+00
         21   -1    0    0  503  502  0.00000000000E+00  0.00000000000E+00  0.13646552478E+03  0.13646552478E+03  0.00000000000E+00 0. -1.
         21   -1    0    0  501  503 -0.00000000000E+00 -0.00000000000E+00 -0.83535702129E+01  0.83535702129E+01  0.00000000000E+00 0. -1.
          1    1    1    2  501    0  0.13922966857E+02 -0.25270289767E+02  0.26446478909E+02  0.39138891115E+02  0.00000000000E+00 0. -1.
         -1    1    1    2    0  502 -0.13922966857E+02  0.25270289767E+02  0.10166547565E+03  0.10568020387E+03  0.00000000000E+00 0.  1.
<mgrwt>
<rscale>  2 0.28851977E+02</rscale>
<asrwt>0</asrwt>
<pdfrwt beam="1">  1       21 0.20994695E-01 0.28851977E+02</pdfrwt>
<pdfrwt beam="2">  1       21 0.12851647E-02 0.28851977E+02</pdfrwt>
<totfact> 0.40807202E+07</totfact>
</mgrwt>
</event>
<event>
 4    1  0.7521660E+004  0.2143827E+02  0.7546771E-02  0.1718152E+00
         21   -1    0    0  501  502  0.00000000000E+00  0.00000000000E+00  0.33011637206E+02  0.33011637206E+02  0.00000000000E+00 0.  1.
         21   -1    0    0  502  503 -0.00000000000E+00 -0.00000000000E+00 -0.14210077592E+02  0.14210077592E+02  0.00000000000E+00 0.  1.
          5    1    1    2  501    0  0.17887085978E+02 -0.11817422836E+02  0.12760551571E+02  0.24948567166E+02  0.00000000000E+00 0.  1.
         -5    1    1    2    0  503 -0.17887085978E+02  0.11817422836E+02  0.60410080424E+01  0.22273147632E+02  0.00000000000E+00 0. -1.
<mgrwt>
<rscale>  2 0.21438268E+02</rscale>
<asrwt>0</asrwt>
<pdfrwt beam="1">  1       21 0.50787134E-02 0.21438268E+02</pdfrwt>
<pdfrwt beam="2">  1       21 0.21861658E-02 0.21438268E+02</pdfrwt>
<totfact> 0.17849742E+08</totfact>
</mgrwt>
</event>
<event>
 4    1  0.7521660E+004  0.2707493E+02  0.7546771E-02  0.1632871E+00
         21   -1    0    0  501  502  0.00000000000E+00  0.00000000000E+00  0.34224466929E+01  0.34224466929E+01  0.00000000000E+00 0.  1.
         21   -1    0    0  502  503 -0.00000000000E+00 -0.00000000000E+00 -0.22761392914E+03  0.22761392914E+03  0.00000000000E+00 0.  1.
          2    1    1    2  501    0 -0.38434705118E+01  0.26800733527E+02 -0.84041306456E+02  0.88294919298E+02  0.00000000000E+00 0. -1.
         -2    1    1    2    0  503  0.38434705118E+01 -0.26800733527E+02 -0.14015017600E+03  0.14274145654E+03  0.00000000000E+00 0.  1.
<mgrwt>
<rscale>  2 0.27074925E+02</rscale>
<asrwt>0</asrwt>
<pdfrwt beam="1">  1       21 0.52653038E-03 0.27074925E+02</pdfrwt>
<pdfrwt beam="2">  1       21 0.35017520E-01 0.27074925E+02</pdfrwt>
<totfact> 0.60859822E+07</totfact>
</mgrwt>
</event>
<event>
 4    1  0.7521660E+004  0.2470458E+02  0.7546771E-02  0.1665282E+00
         21   -1    0    0  501  502  0.00000000000E+00  0.00000000000E+00  0.55769622149E+02  0.55769622149E+02  0.00000000000E+00 0.  1.
         21   -1    0    0  502  503 -0.00000000000E+00 -0.00000000000E+00 -0.14082095717E+02  0.14082095717E+02  0.00000000000E+00 0.  1.
          5    1    1    2  501    0 -0.11983389196E+02  0.21603579320E+02  0.43553293567E+01  0.25085556599E+02  0.00000000000E+00 0. -1.
         -5    1    1    2    0  503  0.11983389196E+02 -0.21603579320E+02  0.37332197075E+02  0.44766161266E+02  0.00000000000E+00 0.  1.
<mgrwt>
<rscale>  2 0.24704580E+02</rscale>
<asrwt>0</asrwt>
<pdfrwt beam="1">  1       21 0.85799418E-02 0.24704580E+02</pdfrwt>
<pdfrwt beam="2">  1       21 0.21664763E-02 0.24704580E+02</pdfrwt>
<totfact> 0.80907749E+07</totfact>
</mgrwt>
</event>
<event>
 4    1  0.7521660E+004  0.5151648E+02  0.7546771E-02  0.1437330E+00
         21   -1    0    0  503  502  0.00000000000E+00  0.00000000000E+00  0.52760951346E+01  0.52760951346E+01  0.00000000000E+00 0.  1.
         21   -1    0    0  501  503 -0.00000000000E+00 -0.00000000000E+00 -0.50651254332E+03  0.50651254332E+03  0.00000000000E+00 0.  1.
          4    1    1    2  501    0 -0.50983487929E+02 -0.73913151216E+01 -0.27188659933E+03  0.27672417761E+03  0.00000000000E+00 0.  1.
         -4    1    1    2    0  502  0.50983487929E+02  0.73913151216E+01 -0.22934984886E+03  0.23506446084E+03  0.00000000000E+00 0. -1.
<mgrwt>
<rscale>  2 0.51516479E+02</rscale>
<asrwt>0</asrwt>
<pdfrwt beam="1">  1       21 0.81170652E-03 0.51516479E+02</pdfrwt>
<pdfrwt beam="2">  1       21 0.77925047E-01 0.51516479E+02</pdfrwt>
<totfact> 0.70673022E+06</totfact>
</mgrwt>
</event>
<event>
 4    1  0.7521660E+004  0.4053638E+02  0.7546771E-02  0.1504301E+00
         21   -1    0    0  501  502  0.00000000000E+00  0.00000000000E+00  0.19064726984E+02  0.19064726984E+02  0.00000000000E+00 0. -1.
         21   -1    0    0  502  503 -0.00000000000E+00 -0.00000000000E+00 -0.11797268584E+03  0.11797268584E+03  0.00000000000E+00 0. -1.
          5    1    1    2  501    0 -0.19399414895E+01  0.40489934160E+02 -0.13889997713E+02  0.42850089589E+02  0.00000000000E+00 0. -1.
         -5    1    1    2    0  503  0.19399414895E+01 -0.40489934160E+02 -0.85017961141E+02  0.94187323233E+02  0.00000000000E+00 0.  1.
<mgrwt>
<rscale>  2 0.40536380E+02</rscale>
<asrwt>0</asrwt>
<pdfrwt beam="1">  1       21 0.29330349E-02 0.40536380E+02</pdfrwt>
<pdfrwt beam="2">  1       21 0.18149644E-01 0.40536380E+02</pdfrwt>
<totfact> 0.15556445E+07</totfact>
</mgrwt>
</event>
<event>
 4    1  0.7521660E+004  0.2160408E+02  0.7546771E-02  0.1715191E+00
         21   -1    0    0  501  502  0.00000000000E+00  0.00000000000E+00  0.15537722192E+01  0.15537722192E+01  0.00000000000E+00 0. -1.
         21   -1    0    0  502  503 -0.00000000000E+00 -0.00000000000E+00 -0.30411527333E+03  0.30411527333E+03  0.00000000000E+00 0. -1.
          5    1    1    2  501    0 -0.63479092853E+01  0.20650429088E+02 -0.16819825515E+03  0.16958003776E+03  0.00000000000E+00 0. -1.
         -5    1    1    2    0  503  0.63479092853E+01 -0.20650429088E+02 -0.13436324596E+03  0.13608900778E+03  0.00000000000E+00 0.  1.
<mgrwt>
<rscale>  2 0.21604078E+02</rscale>
<asrwt>0</asrwt>
<pdfrwt beam="1">  1       21 0.23904184E-03 0.21604078E+02</pdfrwt>
<pdfrwt beam="2">  1       21 0.46786973E-01 0.21604078E+02</pdfrwt>
<totfact> 0.10581690E+08</totfact>
</mgrwt>
</event>
<event>
 4    1  0.7521660E+004  0.2196256E+02  0.7546771E-02  0.1708900E+00
         21   -1    0    0  501  502  0.00000000000E+00  0.00000000000E+00  0.52661808966E+01  0.52661808966E+01  0.00000000000E+00 0.  1.
         21   -1    0    0  502  503 -0.00000000000E+00 -0.00000000000E+00 -0.95960899250E+02  0.95960899250E+02  0.00000000000E+00 0.  1.
          1    1    1    2  501    0  0.17525134001E+02 -0.13237217387E+02 -0.34551145726E+02  0.40940638940E+02  0.00000000000E+00 0. -1.
         -1    1    1    2    0  503 -0.17525134001E+02  0.13237217387E+02 -0.56143572628E+02  0.60286441207E+02  0.00000000000E+00 0.  1.
<mgrwt>
<rscale>  2 0.21962565E+02</rscale>
<asrwt>0</asrwt>
<pdfrwt beam="1">  1       21 0.81018180E-03 0.21962565E+02</pdfrwt>
<pdfrwt beam="2">  1       21 0.14763213E-01 0.21962565E+02</pdfrwt>
<totfact> 0.14046662E+08</totfact>
</mgrwt>
</event>
<event>
 4    1  0.7521660E+004  0.3591509E+02  0.7546771E-02  0.1540621E+00
         21   -1    0    0  501  502  0.00000000000E+00  0.00000000000E+00  0.61231674774E+00  0.61231674774E+00  0.00000000000E+00 0.  1.
         21   -1    0    0  502  503 -0.00000000000E+00 -0.00000000000E+00 -0.23277369508E+04  0.23277369508E+04  0.00000000000E+00 0.  1.
          5    1    1    2  501    0 -0.58189510875E+01 -0.35440567304E+02 -0.80472151523E+03  0.80552257019E+03  0.00000000000E+00 0. -1.
         -5    1    1    2    0  503  0.58189510875E+01  0.35440567304E+02 -0.15224031188E+04  0.15228266974E+04  0.00000000000E+00 0.  1.
<mgrwt>
<rscale>  2 0.35915094E+02</rscale>
<asrwt>0</asrwt>
<pdfrwt beam="1">  1       21 0.94204320E-04 0.35915094E+02</pdfrwt>
<pdfrwt beam="2">  1       21 0.35810675E+00 0.35915094E+02</pdfrwt>
<totfact> 0.26503708E+06</totfact>
</mgrwt>
</event>
<event>
 4    1  0.7521660E+004  0.2793656E+02  0.7546771E-02  0.1622085E+00
         21   -1    0    0  501  502  0.00000000000E+00  0.00000000000E+00  0.94192540287E+02  0.94192540287E+02  0.00000000000E+00 0.  1.
         21   -1    0    0  502  503 -0.00000000000E+00 -0.00000000000E+00 -0.89354849566E+01  0.89354849566E+01  0.00000000000E+00 0.  1.
          3    1    1    2  501    0 -0.43668446932E+01 -0.27593147300E+02  0.56533577234E+02  0.63059467690E+02  0.00000000000E+00 0.  1.
         -3    1    1    2    0  503  0.43668446932E+01  0.27593147300E+02  0.28723478097E+02  0.40068557554E+02  0.00000000000E+00 0. -1.
<mgrwt>
<rscale>  2 0.27936555E+02</rscale>
<asrwt>0</asrwt>
<pdfrwt beam="1">  1       21 0.14491159E-01 0.27936555E+02</pdfrwt>
<pdfrwt beam="2">  1       21 0.13746901E-02 0.27936555E+02</pdfrwt>
<totfact> 0.69654580E+07</totfact>
</mgrwt>
</event>
<event>
 4    1  0.7521660E+004  0.2035972E+02  0.7546771E-02  0.1738268E+00
         21   -1    0    0  501  502  0.00000000000E+00  0.00000000000E+00  0.20997992290E+01  0.20997992290E+01  0.00000000000E+00 0. -1.
         21   -1    0    0  502  503 -0.00000000000E+00 -0.00000000000E+00 -0.40986204700E+03  0.40986204700E+03  0.00000000000E+00 0. -1.
          1    1    1    2  501    0 -0.14424511263E+02  0.14368428672E+02 -0.55581477401E+02  0.59193064609E+02  0.00000000000E+00 0. -1.
         -1    1    1    2    0  503  0.14424511263E+02 -0.14368428672E+02 -0.35218077037E+03  0.35276878162E+03  0.00000000000E+00 0.  1.
<mgrwt>
<rscale>  2 0.20359722E+02</rscale>
<asrwt>0</asrwt>
<pdfrwt beam="1">  1       21 0.32304588E-03 0.20359722E+02</pdfrwt>
<pdfrwt beam="2">  1       21 0.63055729E-01 0.20359722E+02</pdfrwt>
<totfact> 0.37527378E+07</totfact>
</mgrwt>
</event>
<event>
 4    1  0.7521660E+004  0.2418524E+02  0.7546771E-02  0.1672988E+00
         21   -1    0    0  503  502  0.00000000000E+00  0.00000000000E+00  0.76409816487E+01  0.76409816487E+01  0.00000000000E+00 0. -1.
         21   -1    0    0  501  503 -0.00000000000E+00 -0.00000000000E+00 -0.88123525643E+02  0.88123525643E+02  0.00000000000E+00 0. -1.
          4    1    1    2  501    0 -0.23846483808E+02  0.40337096402E+01 -0.22889624362E+02  0.33299557158E+02  0.00000000000E+00 0. -1.
         -4    1    1    2    0  502  0.23846483808E+02 -0.40337096402E+01 -0.57592919633E+02  0.62464950134E+02  0.00000000000E+00 0.  1.
<mgrwt>
<rscale>  2 0.24185235E+02</rscale>
<asrwt>0</asrwt>
<pdfrwt beam="1">  1       21 0.11755356E-02 0.24185235E+02</pdfrwt>
<pdfrwt beam="2">  1       21 0.13557465E-01 0.24185235E+02</pdfrwt>
<totfact> 0.95418676E+07</totfact>
</mgrwt>
</event>
<event>
 4    1  0.7521660E+004  0.2311794E+02  0.7546771E-02  0.1689605E+00
         21   -1    0    0  501  502  0.00000000000E+00  0.00000000000E+00  0.47483283146E+00  0.47483283146E+00  0.00000000000E+00 0. -1.
         21   -1    0    0  502  503 -0.00000000000E+00 -0.00000000000E+00 -0.11882786872E+04  0.11882786872E+04  0.00000000000E+00 0. -1.
          1    1    1    2  501    0 -0.32940415239E+01  0.22882054883E+02 -0.45731756106E+03  0.45790150775E+03  0.00000000000E+00 0.  1.
         -1    1    1    2    0  503  0.32940415239E+01 -0.22882054883E+02 -0.73048629335E+03  0.73085201233E+03  0.00000000000E+00 0. -1.
<mgrwt>
<rscale>  2 0.23117940E+02</rscale>
<asrwt>0</asrwt>
<pdfrwt beam="1">  1       21 0.73052684E-04 0.23117940E+02</pdfrwt>
<pdfrwt beam="2">  1       21 0.18280840E+00 0.23117940E+02</pdfrwt>
<totfact> 0.30522833E+07</totfact>
</mgrwt>
</event>
<event>
 4    1  0.7521660E+004  0.3004794E+02  0.7546771E-02  0.1597559E+00
         21   -1    0    0  501  502  0.00000000000E+00  0.00000000000E+00  0.12947617153E+03  0.12947617153E+03  0.00000000000E+00 0. -1.
         21   -1    0    0  502  503 -0.00000000000E+00 -0.00000000000E+00 -0.80145931795E+01  0.80145931795E+01  0.00000000000E+00 0. -1.
          1    1    1    2  501    0  0.46132411637E+01  0.29691696546E+02  0.35951717442E+02  0.46855147261E+02  0.00000000000E+00 0. -1.
         -1    1    1    2    0  503 -0.46132411637E+01 -0.29691696546E+02  0.85509860912E+02  0.90635617453E+02  0.00000000000E+00 0.  1.
<mgrwt>
<rscale>  2 0.30047942E+02</rscale>
<asrwt>0</asrwt>
<pdfrwt beam="1">  1       21 0.19919409E-01 0.30047942E+02</pdfrwt>
<pdfrwt beam="2">  1       21 0.12330144E-02 0.30047942E+02</pdfrwt>
<totfact> 0.48114098E+07</totfact>
</mgrwt>
</event>
<event>
 4    1  0.7521660E+004  0.3776982E+02  0.7546771E-02  0.1525295E+00
         21   -1    0    0  503  502  0.00000000000E+00  0.00000000000E+00  0.38102370755E+02  0.38102370755E+02  0.00000000000E+00 0.  1.
         21   -1    0    0  501  503 -0.00000000000E+00 -0.00000000000E+00 -0.39088365873E+02  0.39088365873E+02  0.00000000000E+00 0.  1.
          2    1    1    2  501    0  0.36018754485E+02 -0.11366988687E+02  0.74323131909E+01  0.38494134435E+02  0.00000000000E+00 0.  1.
         -2    1    1    2    0  502 -0.36018754485E+02  0.11366988687E+02 -0.84183083093E+01  0.38696602193E+02  0.00000000000E+00 0. -1.
<mgrwt>
<rscale>  2 0.37769817E+02</rscale>
<asrwt>0</asrwt>
<pdfrwt beam="1">  1       21 0.58619032E-02 0.37769817E+02</pdfrwt>
<pdfrwt beam="2">  1       21 0.60135948E-02 0.37769817E+02</pdfrwt>
<totfact> 0.32843606E+07</totfact>
</mgrwt>
</event>
<event>
 4    1  0.7521660E+004  0.2007083E+02  0.7546771E-02  0.1743923E+00
         21   -1    0    0  503  502  0.00000000000E+00  0.00000000000E+00  0.15367150896E+02  0.15367150896E+02  0.00000000000E+00 0. -1.
         21   -1    0    0  501  503 -0.00000000000E+00 -0.00000000000E+00 -0.31267800443E+02  0.31267800443E+02  0.00000000000E+00 0. -1.
          1    1    1    2  501    0  0.19867189521E+02  0.28518534625E+01  0.14238123595E+01  0.20121270568E+02  0.00000000000E+00 0.  1.
         -1    1    1    2    0  502 -0.19867189521E+02 -0.28518534625E+01 -0.17324461907E+02  0.26513680771E+02  0.00000000000E+00 0. -1.
<mgrwt>
<rscale>  2 0.20070832E+02</rscale>
<asrwt>0</asrwt>
<pdfrwt beam="1">  1       21 0.23641771E-02 0.20070832E+02</pdfrwt>
<pdfrwt beam="2">  1       21 0.48104308E-02 0.20070832E+02</pdfrwt>
<totfact> 0.16891235E+08</totfact>
</mgrwt>
</event>
<event>
 4    1  0.7521660E+004  0.2447842E+02  0.7546771E-02  0.1668609E+00
         21   -1    0    0  501  502  0.00000000000E+00  0.00000000000E+00  0.19080283560E+01  0.19080283560E+01  0.00000000000E+00 0.  1.
         21   -1    0    0  502  503 -0.00000000000E+00 -0.00000000000E+00 -0.31404554903E+03  0.31404554903E+03  0.00000000000E+00 0.  1.
          4    1    1    2  501    0  0.20092328666E+01  0.24395817718E+02 -0.15528168751E+03  0.15719922205E+03  0.00000000000E+00 0. -1.
         -4    1    1    2    0  503 -0.20092328666E+01 -0.24395817718E+02 -0.15685583316E+03  0.15875435533E+03  0.00000000000E+00 0.  1.
<mgrwt>
<rscale>  2 0.24478418E+02</rscale>
<asrwt>0</asrwt>
<pdfrwt beam="1">  1       21 0.29354304E-03 0.24478418E+02</pdfrwt>
<pdfrwt beam="2">  1       21 0.48314665E-01 0.24478418E+02</pdfrwt>
<totfact> 0.76198027E+07</totfact>
</mgrwt>
</event>
<event>
 4    1  0.7521660E+004  0.3192523E+02  0.7546771E-02  0.1577733E+00
         21   -1    0    0  503  502  0.00000000000E+00  0.00000000000E+00  0.86793197895E+02  0.86793197895E+02  0.00000000000E+00 0.  1.
         21   -1    0    0  501  503 -0.00000000000E+00 -0.00000000000E+00 -0.12075912313E+02  0.12075912313E+02  0.00000000000E+00 0.  1.
          3    1    1    2  501    0  0.20191015158E+02  0.24729400662E+02  0.45565497628E+02  0.55636632935E+02  0.00000000000E+00 0. -1.
         -3    1    1    2    0  502 -0.20191015158E+02 -0.24729400662E+02  0.29151787954E+02  0.43232477273E+02  0.00000000000E+00 0.  1.
<mgrwt>
<rscale>  2 0.31925231E+02</rscale>
<asrwt>0</asrwt>
<pdfrwt beam="1">  1       21 0.13352799E-01 0.31925231E+02</pdfrwt>
<pdfrwt beam="2">  1       21 0.18578327E-02 0.31925231E+02</pdfrwt>
<totfact> 0.51968291E+07</totfact>
</mgrwt>
</event>
<event>
 4    1  0.7521660E+004  0.3733661E+02  0.7546771E-02  0.1528779E+00
         21   -1    0    0  501  502  0.00000000000E+00  0.00000000000E+00  0.13581701122E+04  0.13581701122E+04  0.00000000000E+00 0. -1.
         21   -1    0    0  502  503 -0.00000000000E+00 -0.00000000000E+00 -0.14215318909E+01  0.14215318909E+01  0.00000000000E+00 0. -1.
          2    1    1    2  501    0 -0.21942054785E+02 -0.30208749083E+02  0.10367781273E+04  0.10374501952E+04  0.00000000000E+00 0.  1.
         -2    1    1    2    0  503  0.21942054785E+02  0.30208749083E+02  0.31997045295E+03  0.32214144882E+03  0.00000000000E+00 0. -1.
<mgrwt>
<rscale>  2 0.37336608E+02</rscale>
<asrwt>0</asrwt>
<pdfrwt beam="1">  1       21 0.20894821E+00 0.37336608E+02</pdfrwt>
<pdfrwt beam="2">  1       21 0.21869830E-03 0.37336608E+02</pdfrwt>
<totfact> 0.46580711E+06</totfact>
</mgrwt>
</event>
<event>
 4    1  0.7521660E+004  0.2625231E+02  0.7546771E-02  0.1643640E+00
         21   -1    0    0  501  502  0.00000000000E+00  0.00000000000E+00  0.67395444106E+02  0.67395444106E+02  0.00000000000E+00 0.  1.
         21   -1    0    0  502  503 -0.00000000000E+00 -0.00000000000E+00 -0.10598854175E+02  0.10598854175E+02  0.00000000000E+00 0.  1.
          5    1    1    2  501    0 -0.39287324323E+01 -0.25956672529E+02  0.35712891845E+02  0.44323745682E+02  0.00000000000E+00 0. -1.
         -5    1    1    2    0  503  0.39287324323E+01  0.25956672529E+02  0.21083698086E+02  0.33670552599E+02  0.00000000000E+00 0.  1.
<mgrwt>
<rscale>  2 0.26252310E+02</rscale>
<asrwt>0</asrwt>
<pdfrwt beam="1">  1       21 0.10368530E-01 0.26252310E+02</pdfrwt>
<pdfrwt beam="2">  1       21 0.16305930E-02 0.26252310E+02</pdfrwt>
<totfact> 0.92971861E+07</totfact>
</mgrwt>
</event>
<event>
 4    1  0.7521660E+004  0.2684304E+02  0.7546771E-02  0.1635859E+00
         21   -1    0    0  501  502  0.00000000000E+00  0.00000000000E+00  0.86286941434E+00  0.86286941434E+00  0.00000000000E+00 0.  1.
         21   -1    0    0  502  503 -0.00000000000E+00 -0.00000000000E+00 -0.83518102986E+03  0.83518102986E+03  0.00000000000E+00 0.  1.
          3    1    1    2  501    0  0.58681137465E+01 -0.26193775995E+02 -0.42216887127E+03  0.42302139961E+03  0.00000000000E+00 0.  1.
         -3    1    1    2    0  503 -0.58681137465E+01  0.26193775995E+02 -0.41214928917E+03  0.41302249966E+03  0.00000000000E+00 0. -1.
<mgrwt>
<rscale>  2 0.26843037E+02</rscale>
<asrwt>0</asrwt>
<pdfrwt beam="1">  1       21 0.13274941E-03 0.26843037E+02</pdfrwt>
<pdfrwt beam="2">  1       21 0.12848913E+00 0.26843037E+02</pdfrwt>
<totfact> 0.31113006E+07</totfact>
</mgrwt>
</event>
<event>
 4    1  0.7521660E+004  0.2203374E+02  0.7546771E-02  0.1707669E+00
         21   -1    0    0  503  502  0.00000000000E+00  0.00000000000E+00  0.76290538382E+00  0.76290538382E+00  0.00000000000E+00 0. -1.
         21   -1    0    0  501  503 -0.00000000000E+00 -0.00000000000E+00 -0.64882947572E+03  0.64882947572E+03  0.00000000000E+00 0. -1.
          2    1    1    2  501    0  0.21871809885E+02 -0.26664263077E+01 -0.27901473522E+03  0.27988338352E+03  0.00000000000E+00 0.  1.
         -2    1    1    2    0  502 -0.21871809885E+02  0.26664263077E+01 -0.36905183511E+03  0.36970899759E+03  0.00000000000E+00 0. -1.
<mgrwt>
<rscale>  2 0.22033745E+02</rscale>
<asrwt>0</asrwt>
<pdfrwt beam="1">  1       21 0.11737031E-03 0.22033745E+02</pdfrwt>
<pdfrwt beam="2">  1       21 0.99819702E-01 0.22033745E+02</pdfrwt>
<totfact> 0.62892416E+07</totfact>
</mgrwt>
</event>
<event>
 4    1  0.7521660E+004  0.2396239E+02  0.7546771E-02  0.1676369E+00
         21   -1    0    0  503  502  0.00000000000E+00  0.00000000000E+00  0.37766832594E+03  0.37766832594E+03  0.00000000000E+00 0.  1.
         21   -1    0    0  501  503 -0.00000000000E+00 -0.00000000000E+00 -0.15350581055E+01  0.15350581055E+01  0.00000000000E+00 0.  1.
          4    1    1    2  501    0  0.15562276646E+02  0.18221190523E+02  0.20661208537E+03  0.20799699532E+03  0.00000000000E+00 0.  1.
         -4    1    1    2    0  502 -0.15562276646E+02 -0.18221190523E+02  0.16952118246E+03  0.17120638873E+03  0.00000000000E+00 0. -1.
<mgrwt>
<rscale>  2 0.23962392E+02</rscale>
<asrwt>0</asrwt>
<pdfrwt beam="1">  1       21 0.58102745E-01 0.23962392E+02</pdfrwt>
<pdfrwt beam="2">  1       21 0.23616309E-03 0.23962392E+02</pdfrwt>
<totfact> 0.72396925E+07</totfact>
</mgrwt>
</event>
<event>
 4    1  0.7521660E+004  0.2661017E+02  0.7546771E-02  0.1638896E+00
         21   -1    0    0  501  502  0.00000000000E+00  0.00000000000E+00  0.80586950468E+02  0.80586950468E+02  0.00000000000E+00 0.  1.
         21   -1    0    0  502  503 -0.00000000000E+00 -0.00000000000E+00 -0.11822458100E+02  0.11822458100E+02  0.00000000000E+00 0.  1.
          3    1    1    2  501    0 -0.23546963510E+02  0.12395218091E+02  0.57795359671E+02  0.63627073809E+02  0.00000000000E+00 0.  1.
         -3    1    1    2    0  503  0.23546963510E+02 -0.12395218091E+02  0.10969132697E+02  0.28782334758E+02  0.00000000000E+00 0. -1.
<mgrwt>
<rscale>  2 0.26610166E+02</rscale>
<asrwt>0</asrwt>
<pdfrwt beam="1">  1       21 0.12397992E-01 0.26610166E+02</pdfrwt>
<pdfrwt beam="2">  1       21 0.18188398E-02 0.26610166E+02</pdfrwt>
<totfact> 0.58449180E+07</totfact>
</mgrwt>
</event>
<event>
 4    1  0.7521660E+004  0.2651119E+02  0.7546771E-02  0.1640199E+00
         21   -1    0    0  501  502  0.00000000000E+00  0.00000000000E+00  0.36253742520E+03  0.36253742520E+03  0.00000000000E+00 0. -1.
         21   -1    0    0  502  503 -0.00000000000E+00 -0.00000000000E+00 -0.24793455800E+01  0.24793455800E+01  0.00000000000E+00 0. -1.
          4    1    1    2  501    0  0.11159613767E+02 -0.24047993007E+02  0.94801514206E+02  0.98438661322E+02  0.00000000000E+00 0. -1.
         -4    1    1    2    0  503 -0.11159613767E+02  0.24047993007E+02  0.26525656542E+03  0.26657810946E+03  0.00000000000E+00 0.  1.
<mgrwt>
<rscale>  2 0.26511185E+02</rscale>
<asrwt>0</asrwt>
<pdfrwt beam="1">  1       21 0.55774946E-01 0.26511185E+02</pdfrwt>
<pdfrwt beam="2">  1       21 0.38143807E-03 0.26511185E+02</pdfrwt>
<totfact> 0.39852645E+07</totfact>
</mgrwt>
</event>
<event>
 4    1  0.7521660E+004  0.2066911E+02  0.7546771E-02  0.1732340E+00
         21   -1    0    0  501  502  0.00000000000E+00  0.00000000000E+00  0.57440954554E+01  0.57440954554E+01  0.00000000000E+00 0. -1.
         21   -1    0    0  502  503 -0.00000000000E+00 -0.00000000000E+00 -0.15572211196E+03  0.15572211196E+03  0.00000000000E+00 0. -1.
          2    1    1    2  501    0 -0.20633330934E+02  0.12156099256E+01 -0.16637790897E+02  0.26533528579E+02  0.00000000000E+00 0.  1.
         -2    1    1    2    0  503  0.20633330934E+02 -0.12156099256E+01 -0.13334022560E+03  0.13493267883E+03  0.00000000000E+00 0. -1.
<mgrwt>
<rscale>  2 0.20669109E+02</rscale>
<asrwt>0</asrwt>
<pdfrwt beam="1">  1       21 0.88370699E-03 0.20669109E+02</pdfrwt>
<pdfrwt beam="2">  1       21 0.23957248E-01 0.20669109E+02</pdfrwt>
<totfact> 0.52508879E+07</totfact>
</mgrwt>
</event>
<event>
 4    1  0.7521660E+004  0.2601980E+02  0.7546771E-02  0.1646772E+00
         21   -1    0    0  501  502  0.00000000000E+00  0.00000000000E+00  0.53061566666E+01  0.53061566666E+01  0.00000000000E+00 0. -1.
         21   -1    0    0  502  503 -0.00000000000E+00 -0.00000000000E+00 -0.13169596324E+03  0.13169596324E+03  0.00000000000E+00 0. -1.
          1    1    1    2  501    0 -0.17367987343E+01  0.25961775090E+02 -0.51104465209E+02  0.57347158604E+02  0.00000000000E+00 0. -1.
         -1    1    1    2    0  503  0.17367987343E+01 -0.25961775090E+02 -0.75285341360E+02  0.79654961298E+02  0.00000000000E+00 0.  1.
<mgrwt>
<rscale>  2 0.26019805E+02</rscale>
<asrwt>0</asrwt>
<pdfrwt beam="1">  1       21 0.81633180E-03 0.26019805E+02</pdfrwt>
<pdfrwt beam="2">  1       21 0.20260917E-01 0.26019805E+02</pdfrwt>
<totfact> 0.84247075E+07</totfact>
</mgrwt>
</event>
<event>
 4    1  0.7521660E+004  0.2082768E+02  0.7546771E-02  0.1729352E+00
         21   -1    0    0  501  502  0.00000000000E+00  0.00000000000E+00  0.51467559836E+01  0.51467559836E+01  0.00000000000E+00 0. -1.
         21   -1    0    0  502  503 -0.00000000000E+00 -0.00000000000E+00 -0.85254276959E+02  0.85254276959E+02  0.00000000000E+00 0. -1.
          3    1    1    2  501    0  0.77793749457E+01 -0.19320290147E+02 -0.35233193444E+02  0.40928843206E+02  0.00000000000E+00 0.  1.
         -3    1    1    2    0  503 -0.77793749457E+01  0.19320290147E+02 -0.44874327532E+02  0.49472189737E+02  0.00000000000E+00 0. -1.
<mgrwt>
<rscale>  2 0.20827681E+02</rscale>
<asrwt>0</asrwt>
<pdfrwt beam="1">  1       21 0.79180864E-03 0.20827681E+02</pdfrwt>
<pdfrwt beam="2">  1       21 0.13116042E-01 0.20827681E+02</pdfrwt>
<totfact> 0.17464109E+08</totfact>
</mgrwt>
</event>
<event>
 4    1  0.7521660E+004  0.2433149E+02  0.7546771E-02  0.1670794E+00
         21   -1    0    0  501  502  0.00000000000E+00  0.00000000000E+00  0.32665396169E+01  0.32665396169E+01  0.00000000000E+00 0. -1.
         21   -1    0    0  502  503 -0.00000000000E+00 -0.00000000000E+00 -0.25904568059E+03  0.25904568059E+03  0.00000000000E+00 0. -1.
          1    1    1    2  501    0 -0.73338056449E+01 -0.23199932828E+02 -0.56009056561E+02  0.61065833371E+02  0.00000000000E+00 0.  1.
         -1    1    1    2    0  503  0.73338056449E+01  0.23199932828E+02 -0.19977008441E+03  0.20124638683E+03  0.00000000000E+00 0. -1.
<mgrwt>
<rscale>  2 0.24331494E+02</rscale>
<asrwt>0</asrwt>
<pdfrwt beam="1">  1       21 0.50254462E-03 0.24331494E+02</pdfrwt>
<pdfrwt beam="2">  1       21 0.39853177E-01 0.24331494E+02</pdfrwt>
<totfact> 0.49937323E+07</totfact>
</mgrwt>
</event>
<event>
 4    1  0.7521660E+004  0.2551881E+02  0.7546771E-02  0.1653660E+00
         21   -1    0    0  503  502  0.00000000000E+00  0.00000000000E+00  0.31117417398E+01  0.31117417398E+01  0.00000000000E+00 0.  1.
         21   -1    0    0  501  503 -0.00000000000E+00 -0.00000000000E+00 -0.21588626215E+03  0.21588626215E+03  0.00000000000E+00 0.  1.
          1    1    1    2  501    0 -0.20239357700E+02 -0.15542786684E+02 -0.87225334317E+02  0.90881619510E+02  0.00000000000E+00 0.  1.
         -1    1    1    2    0  502  0.20239357700E+02  0.15542786684E+02 -0.12554918609E+03  0.12811638438E+03  0.00000000000E+00 0. -1.
<mgrwt>
<rscale>  2 0.25518813E+02</rscale>
<asrwt>0</asrwt>
<pdfrwt beam="1">  1       21 0.47872940E-03 0.25518813E+02</pdfrwt>
<pdfrwt beam="2">  1       21 0.33213278E-01 0.25518813E+02</pdfrwt>
<totfact> 0.76251423E+07</totfact>
</mgrwt>
</event>
<event>
 4    1  0.7521660E+004  0.2073804E+02  0.7546771E-02  0.1731037E+00
         21   -1    0    0  501  502  0.00000000000E+00  0.00000000000E+00  0.37989542355E+00  0.37989542355E+00  0.00000000000E+00 0.  1.
         21   -1    0    0  502  503 -0.00000000000E+00 -0.00000000000E+00 -0.11884132768E+04  0.11884132768E+04  0.00000000000E+00 0.  1.
          1    1    1    2  501    0 -0.20736787891E+02 -0.22757190580E+00 -0.46458684993E+03  0.46504946757E+03  0.00000000000E+00 0.  1.
         -1    1    1    2    0  503  0.20736787891E+02  0.22757190580E+00 -0.72344653141E+03  0.72374370462E+03  0.00000000000E+00 0. -1.
<mgrwt>
<rscale>  2 0.20738037E+02</rscale>
<asrwt>0</asrwt>
<pdfrwt beam="1">  1       21 0.58445660E-04 0.20738037E+02</pdfrwt>
<pdfrwt beam="2">  1       21 0.18283215E+00 0.20738037E+02</pdfrwt>
<totfact> 0.41011129E+07</totfact>
</mgrwt>
</event>
<event>
 4    1  0.7521660E+004  0.2319195E+02  0.7546771E-02  0.1688417E+00
         21   -1    0    0  503  502  0.00000000000E+00  0.00000000000E+00  0.44383691181E+01  0.44383691181E+01  0.00000000000E+00 0. -1.
         21   -1    0    0  501  503 -0.00000000000E+00 -0.00000000000E+00 -0.13338763761E+03  0.13338763761E+03  0.00000000000E+00 0. -1.
          3    1    1    2  501    0  0.20308857769E+02  0.11198965690E+02 -0.85317580971E+02  0.88413551898E+02  0.00000000000E+00 0.  1.
         -3    1    1    2    0  502 -0.20308857769E+02 -0.11198965690E+02 -0.43631687519E+02  0.49412454829E+02  0.00000000000E+00 0. -1.
<mgrwt>
<rscale>  2 0.23191950E+02</rscale>
<asrwt>0</asrwt>
<pdfrwt beam="1">  1       21 0.68282600E-03 0.23191950E+02</pdfrwt>
<pdfrwt beam="2">  1       21 0.20521175E-01 0.23191950E+02</pdfrwt>
<totfact> 0.10437417E+08</totfact>
</mgrwt>
</event>
<event>
 4    1  0.7521660E+004  0.3352178E+02  0.7546771E-02  0.1562133E+00
         21   -1    0    0  501  502  0.00000000000E+00  0.00000000000E+00  0.15615368363E+04  0.15615368363E+04  0.00000000000E+00 0.  1.
         21   -1    0    0  502  503 -0.00000000000E+00 -0.00000000000E+00 -0.72488528331E+00  0.72488528331E+00  0.00000000000E+00 0.  1.
          2    1    1    2  501    0  0.26280570374E+02  0.20809646421E+02  0.71381902294E+03  0.71460570056E+03  0.00000000000E+00 0.  1.
         -2    1    1    2    0  503 -0.26280570374E+02 -0.20809646421E+02  0.84699292808E+03  0.84765602103E+03  0.00000000000E+00 0. -1.
<mgrwt>
<rscale>  2 0.33521780E+02</rscale>
<asrwt>0</asrwt>
<pdfrwt beam="1">  1       21 0.24023374E+00 0.33521780E+02</pdfrwt>
<pdfrwt beam="2">  1       21 0.11152206E-03 0.33521780E+02</pdfrwt>
<totfact> 0.83518349E+06</totfact>
</mgrwt>
</event>
<event>
 4    1  0.7521660E+004  0.6299250E+02  0.7546771E-02  0.1385686E+00
         21   -1    0    0  501  502  0.00000000000E+00  0.00000000000E+00  0.23857551900E+02  0.23857551900E+02  0.00000000000E+00 0.  1.
         21   -1    0    0  502  503 -0.00000000000E+00 -0.00000000000E+00 -0.17313530322E+03  0.17313530322E+03  0.00000000000E+00 0.  1.
          3    1    1    2  501    0  0.23815989452E+02  0.58316838621E+02 -0.55100845605E+02  0.83690849002E+02  0.00000000000E+00 0.  1.
         -3    1    1    2    0  503 -0.23815989452E+02 -0.58316838621E+02 -0.94176905715E+02  0.11330200612E+03  0.00000000000E+00 0. -1.
<mgrwt>
<rscale>  2 0.62992500E+02</rscale>
<asrwt>0</asrwt>
<pdfrwt beam="1">  1       21 0.36703924E-02 0.62992500E+02</pdfrwt>
<pdfrwt beam="2">  1       21 0.26636202E-01 0.62992500E+02</pdfrwt>
<totfact> 0.56925252E+06</totfact>
</mgrwt>
</event>
<event>
 4    1  0.7521660E+004  0.2421240E+02  0.7546771E-02  0.1672579E+00
         21   -1    0    0  503  502  0.00000000000E+00  0.00000000000E+00  0.36447151338E+02  0.36447151338E+02  0.00000000000E+00 0.  1.
         21   -1    0    0  501  503 -0.00000000000E+00 -0.00000000000E+00 -0.20997110083E+02  0.20997110083E+02  0.00000000000E+00 0.  1.
          3    1    1    2  501    0 -0.19241952295E+02  0.14696510104E+02  0.21617694647E+02  0.32458663855E+02  0.00000000000E+00 0.  1.
         -3    1    1    2    0  502  0.19241952295E+02 -0.14696510104E+02 -0.61676533926E+01  0.24985597566E+02  0.00000000000E+00 0. -1.
<mgrwt>
<rscale>  2 0.24212396E+02</rscale>
<asrwt>0</asrwt>
<pdfrwt beam="1">  1       21 0.56072540E-02 0.24212396E+02</pdfrwt>
<pdfrwt beam="2">  1       21 0.32303246E-02 0.24212396E+02</pdfrwt>
<totfact> 0.86290138E+07</totfact>
</mgrwt>
</event>
<event>
 4    1  0.7521660E+004  0.4341813E+02  0.7546771E-02  0.1484466E+00
         21   -1    0    0  501  502  0.00000000000E+00  0.00000000000E+00  0.98725833097E+01  0.98725833097E+01  0.00000000000E+00 0. -1.
         21   -1    0    0  502  503 -0.00000000000E+00 -0.00000000000E+00 -0.20155824659E+03  0.20155824659E+03  0.00000000000E+00 0. -1.
          5    1    1    2  501    0  0.38380817614E+02  0.20298941130E+02 -0.12009964013E+03  0.12770692123E+03  0.00000000000E+00 0. -1.
         -5    1    1    2    0  503 -0.38380817614E+02 -0.20298941130E+02 -0.71586023148E+02  0.83723908664E+02  0.00000000000E+00 0.  1.
<mgrwt>
<rscale>  2 0.43418132E+02</rscale>
<asrwt>0</asrwt>
<pdfrwt beam="1">  1       21 0.15188590E-02 0.43418132E+02</pdfrwt>
<pdfrwt beam="2">  1       21 0.31008961E-01 0.43418132E+02</pdfrwt>
<totfact> 0.16673278E+07</totfact>
</mgrwt>
</event>
<event>
 4    1  0.7521660E+004  0.3107212E+02  0.7546771E-02  0.1586531E+00
         21   -1    0    0  503  502  0.00000000000E+00  0.00000000000E+00  0.57722552779E+01  0.57722552779E+01  0.00000000000E+00 0.  1.
         21   -1    0    0  501  503 -0.00000000000E+00 -0.00000000000E+00 -0.20806319116E+03  0.20806319116E+03  0.00000000000E+00 0.  1.
          4    1    1    2  501    0 -0.30451830410E+02 -0.61775900836E+01 -0.53798662853E+02  0.62127069135E+02  0.00000000000E+00 0.  1.
         -4    1    1    2    0  502  0.30451830410E+02  0.61775900836E+01 -0.14849227303E+03  0.15170837730E+03  0.00000000000E+00 0. -1.
<mgrwt>
<rscale>  2 0.31072119E+02</rscale>
<asrwt>0</asrwt>
<pdfrwt beam="1">  1       21 0.88803934E-03 0.31072119E+02</pdfrwt>
<pdfrwt beam="2">  1       21 0.32009719E-01 0.31072119E+02</pdfrwt>
<totfact> 0.33831233E+07</totfact>
</mgrwt>
</event>
<event>
 4    1  0.7521660E+004  0.2796848E+02  0.7546771E-02  0.1621695E+00
         21   -1    0    0  503  502  0.00000000000E+00  0.00000000000E+00  0.15943969403E+02  0.15943969403E+02  0.00000000000E+00 0. -1.
         21   -1    0    0  501  503 -0.00000000000E+00 -0.00000000000E+00 -0.65664335594E+02  0.65664335594E+02  0.00000000000E+00 0. -1.
          3    1    1    2  501    0 -0.21185407895E+02  0.18259643890E+02 -0.45377939011E+02  0.53304722601E+02  0.00000000000E+00 0. -1.
         -3    1    1    2    0  502  0.21185407895E+02 -0.18259643890E+02 -0.43424271801E+01  0.28303582397E+02  0.00000000000E+00 0.  1.
<mgrwt>
<rscale>  2 0.27968484E+02</rscale>
<asrwt>0</asrwt>
<pdfrwt beam="1">  1       21 0.24529184E-02 0.27968484E+02</pdfrwt>
<pdfrwt beam="2">  1       21 0.10102205E-01 0.27968484E+02</pdfrwt>
<totfact> 0.52508081E+07</totfact>
</mgrwt>
</event>
<event>
 4    1  0.7521660E+004  0.3605427E+02  0.7546771E-02  0.1539433E+00
         21   -1    0    0  503  502  0.00000000000E+00  0.00000000000E+00  0.48668314650E+03  0.48668314650E+03  0.00000000000E+00 0.  1.
         21   -1    0    0  501  503 -0.00000000000E+00 -0.00000000000E+00 -0.28413498910E+01  0.28413498910E+01  0.00000000000E+00 0.  1.
          3    1    1    2  501    0 -0.25507992597E+02 -0.25480437039E+02  0.30185944888E+03  0.30400499542E+03  0.00000000000E+00 0.  1.
         -3    1    1    2    0  502  0.25507992597E+02  0.25480437039E+02  0.18198234773E+03  0.18551950097E+03  0.00000000000E+00 0. -1.
<mgrwt>
<rscale>  2 0.36054270E+02</rscale>
<asrwt>0</asrwt>
<pdfrwt beam="1">  1       21 0.74874264E-01 0.36054270E+02</pdfrwt>
<pdfrwt beam="2">  1       21 0.43713114E-03 0.36054270E+02</pdfrwt>
<totfact> 0.18800335E+07</totfact>
</mgrwt>
</event>
<event>
 4    1  0.7521660E+004  0.2414216E+02  0.7546771E-02  0.1673638E+00
         21   -1    0    0  503  502  0.00000000000E+00  0.00000000000E+00  0.72019144118E+03  0.72019144118E+03  0.00000000000E+00 0. -1.
         21   -1    0    0  501  503 -0.00000000000E+00 -0.00000000000E+00 -0.91440495020E+00  0.91440495020E+00  0.00000000000E+00 0. -1.
          3    1    1    2  501    0 -0.15745484834E+02 -0.18300913862E+02  0.48188375713E+03  0.48248813366E+03  0.00000000000E+00 0. -1.
         -3    1    1    2    0  502  0.15745484834E+02  0.18300913862E+02  0.23739327910E+03  0.23861771247E+03  0.00000000000E+00 0.  1.
<mgrwt>
<rscale>  2 0.24142157E+02</rscale>
<asrwt>0</asrwt>
<pdfrwt beam="1">  1       21 0.11079823E+00 0.24142157E+02</pdfrwt>
<pdfrwt beam="2">  1       21 0.14067826E-03 0.24142157E+02</pdfrwt>
<totfact> 0.39301471E+07</totfact>
</mgrwt>
</event>
<event>
 4    1  0.7521660E+004  0.2755774E+02  0.7546771E-02  0.1626768E+00
         21   -1    0    0  501  502  0.00000000000E+00  0.00000000000E+00  0.22309651392E+01  0.22309651392E+01  0.00000000000E+00 0. -1.
         21   -1    0    0  502  503 -0.00000000000E+00 -0.00000000000E+00 -0.48326589613E+03  0.48326589613E+03  0.00000000000E+00 0. -1.
          3    1    1    2  501    0  0.10958439482E+02  0.25285201551E+02 -0.10853324845E+03  0.11197720675E+03  0.00000000000E+00 0. -1.
         -3    1    1    2    0  503 -0.10958439482E+02 -0.25285201551E+02 -0.37250168254E+03  0.37351965451E+03  0.00000000000E+00 0.  1.
<mgrwt>
<rscale>  2 0.27557736E+02</rscale>
<asrwt>0</asrwt>
<pdfrwt beam="1">  1       21 0.34322510E-03 0.27557736E+02</pdfrwt>
<pdfrwt beam="2">  1       21 0.74348666E-01 0.27557736E+02</pdfrwt>
<totfact> 0.26117682E+07</totfact>
</mgrwt>
</event>
<event>
 4    1  0.7521660E+004  0.2401536E+02  0.7546771E-02  0.1675561E+00
         21   -1    0    0  501  502  0.00000000000E+00  0.00000000000E+00  0.77527189515E+00  0.77527189515E+00  0.00000000000E+00 0.  1.
         21   -1    0    0  502  503 -0.00000000000E+00 -0.00000000000E+00 -0.79897333429E+03  0.79897333429E+03  0.00000000000E+00 0.  1.
          3    1    1    2  501    0 -0.79507058672E+01  0.22661066758E+02 -0.50406835119E+03  0.50464010972E+03  0.00000000000E+00 0. -1.
         -3    1    1    2    0  503  0.79507058672E+01 -0.22661066758E+02 -0.29412971120E+03  0.29510849646E+03  0.00000000000E+00 0.  1.
<mgrwt>
<rscale>  2 0.24015363E+02</rscale>
<asrwt>0</asrwt>
<pdfrwt beam="1">  1       21 0.11927325E-03 0.24015363E+02</pdfrwt>
<pdfrwt beam="2">  1       21 0.12291830E+00 0.24015363E+02</pdfrwt>
<totfact> 0.39349499E+07</totfact>
</mgrwt>
</event>
<event>
 4    1  0.7521660E+004  0.2092439E+02  0.7546771E-02  0.1727547E+00
         21   -1    0    0  503  502  0.00000000000E+00  0.00000000000E+00  0.56646338923E+02  0.56646338923E+02  0.00000000000E+00 0.  1.
         21   -1    0    0  501  503 -0.00000000000E+00 -0.00000000000E+00 -0.77631297292E+01  0.77631297292E+01  0.00000000000E+00 0.  1.
          5    1    1    2  501    0  0.11438218340E+02 -0.17521335427E+02  0.26571152326E+02  0.33820942770E+02  0.00000000000E+00 0. -1.
         -5    1    1    2    0  502 -0.11438218340E+02  0.17521335427E+02  0.22312056868E+02  0.30588525882E+02  0.00000000000E+00 0.  1.
<mgrwt>
<rscale>  2 0.20924388E+02</rscale>
<asrwt>0</asrwt>
<pdfrwt beam="1">  1       21 0.87148211E-02 0.20924388E+02</pdfrwt>
<pdfrwt beam="2">  1       21 0.11943277E-02 0.20924388E+02</pdfrwt>
<totfact> 0.18605030E+08</totfact>
</mgrwt>
</event>
<event>
 4    1  0.7521660E+004  0.2082620E+02  0.7546771E-02  0.1729380E+00
         21   -1    0    0  501  502  0.00000000000E+00  0.00000000000E+00  0.11515763517E+03  0.11515763517E+03  0.00000000000E+00 0.  1.
         21   -1    0    0  502  503 -0.00000000000E+00 -0.00000000000E+00 -0.42122767891E+01  0.42122767891E+01  0.00000000000E+00 0.  1.
          1    1    1    2  501    0  0.45521616673E+01  0.20322611724E+02  0.74890907610E+02  0.77732739343E+02  0.00000000000E+00 0. -1.
         -1    1    1    2    0  503 -0.45521616673E+01 -0.20322611724E+02  0.36054450774E+02  0.41637172619E+02  0.00000000000E+00 0.  1.
<mgrwt>
<rscale>  2 0.20826203E+02</rscale>
<asrwt>0</asrwt>
<pdfrwt beam="1">  1       21 0.17716557E-01 0.20826203E+02</pdfrwt>
<pdfrwt beam="2">  1       21 0.64804267E-03 0.20826203E+02</pdfrwt>
<totfact> 0.14109651E+08</totfact>
</mgrwt>
</event>
<event>
 4    1  0.7521660E+004  0.2003268E+02  0.7546771E-02  0.1744679E+00
         21   -1    0    0  503  502  0.00000000000E+00  0.00000000000E+00  0.18897644250E+02  0.18897644250E+02  0.00000000000E+00 0. -1.
         21   -1    0    0  501  503 -0.00000000000E+00 -0.00000000000E+00 -0.21541344938E+02  0.21541344938E+02  0.00000000000E+00 0. -1.
          4    1    1    2  501    0 -0.36674370744E+01 -0.19694119894E+02  0.10858448117E+01  0.20062091418E+02  0.00000000000E+00 0.  1.
         -4    1    1    2    0  502  0.36674370744E+01  0.19694119894E+02 -0.37295454996E+01  0.20376897770E+02  0.00000000000E+00 0. -1.
<mgrwt>
<rscale>  2 0.20032685E+02</rscale>
<asrwt>0</asrwt>
<pdfrwt beam="1">  1       21 0.29073299E-02 0.20032685E+02</pdfrwt>
<pdfrwt beam="2">  1       21 0.33140531E-02 0.20032685E+02</pdfrwt>
<totfact> 0.22008633E+08</totfact>
</mgrwt>
</event>
<event>
 4    1  0.7521660E+004  0.2145364E+02  0.7546771E-02  0.1717876E+00
         21   -1    0    0  501  502  0.00000000000E+00  0.00000000000E+00  0.27964647328E+02  0.27964647328E+02  0.00000000000E+00 0. -1.
         21   -1    0    0  502  503 -0.00000000000E+00 -0.00000000000E+00 -0.16491231293E+02  0.16491231293E+02  0.00000000000E+00 0. -1.
          2    1    1    2  501    0 -0.10587948896E+02  0.18658890264E+02  0.47478980338E+01  0.21972741828E+02  0.00000000000E+00 0. -1.
         -2    1    1    2    0  503  0.10587948896E+02 -0.18658890264E+02  0.67255180011E+01  0.22483136793E+02  0.00000000000E+00 0.  1.
<mgrwt>
<rscale>  2 0.21453644E+02</rscale>
<asrwt>0</asrwt>
<pdfrwt beam="1">  1       21 0.43022534E-02 0.21453644E+02</pdfrwt>
<pdfrwt beam="2">  1       21 0.25371125E-02 0.21453644E+02</pdfrwt>
<totfact> 0.18460983E+08</totfact>
</mgrwt>
</event>
<event>
 4    1  0.7521660E+004  0.2160599E+02  0.7546771E-02  0.1715157E+00
         21   -1    0    0  501  502  0.00000000000E+00  0.00000000000E+00  0.65475271308E+01  0.65475271308E+01  0.00000000000E+00 0.  1.
         21   -1    0    0  502  503 -0.00000000000E+00 -0.00000000000E+00 -0.74588067369E+02  0.74588067369E+02  0.00000000000E+00 0.  1.
          2    1    1    2  501    0 -0.17372265865E+02 -0.12846142793E+02 -0.42541759315E+02  0.47713942319E+02  0.00000000000E+00 0. -1.
         -2    1    1    2    0  503  0.17372265865E+02  0.12846142793E+02 -0.25498780923E+02  0.33421652181E+02  0.00000000000E+00 0.  1.
<mgrwt>
<rscale>  2 0.21605995E+02</rscale>
<asrwt>0</asrwt>
<pdfrwt beam="1">  1       21 0.10073119E-02 0.21605995E+02</pdfrwt>
<pdfrwt beam="2">  1       21 0.11475087E-01 0.21605995E+02</pdfrwt>
<totfact> 0.15415612E+08</totfact>
</mgrwt>
</event>
<event>
 4    1  0.7521660E+004  0.2026662E+02  0.7546771E-02  0.1740077E+00
         21   -1    0    0  503  502  0.00000000000E+00  0.00000000000E+00  0.66263641190E+01  0.66263641190E+01  0.00000000000E+00 0.  1.
         21   -1    0    0  501  503 -0.00000000000E+00 -0.00000000000E+00 -0.62201744353E+02  0.62201744353E+02  0.00000000000E+00 0.  1.
          4    1    1    2  501    0  0.83990550273E+01  0.18444285703E+02 -0.25756668177E+02  0.32774101910E+02  0.00000000000E+00 0.  1.
         -4    1    1    2    0  502 -0.83990550273E+01 -0.18444285703E+02 -0.29818712057E+02  0.36054006562E+02  0.00000000000E+00 0. -1.
<mgrwt>
<rscale>  2 0.20266618E+02</rscale>
<asrwt>0</asrwt>
<pdfrwt beam="1">  1       21 0.10194406E-02 0.20266618E+02</pdfrwt>
<pdfrwt beam="2">  1       21 0.95694993E-02 0.20266618E+02</pdfrwt>
<totfact> 0.20038420E+08</totfact>
</mgrwt>
</event>
<event>
 4    1  0.7521660E+004  0.7097603E+02  0.7546771E-02  0.1356805E+00
         21   -1    0    0  501  502  0.00000000000E+00  0.00000000000E+00  0.77035992289E+03  0.77035992289E+03  0.00000000000E+00 0.  1.
         21   -1    0    0  502  503 -0.00000000000E+00 -0.00000000000E+00 -0.75175055502E+01  0.75175055502E+01  0.00000000000E+00 0.  1.
          1    1    1    2  501    0 -0.11251590419E+02 -0.70078514191E+02  0.24111896934E+03  0.25134827196E+03  0.00000000000E+00 0. -1.
         -1    1    1    2    0  503  0.11251590419E+02  0.70078514191E+02  0.52172344799E+03  0.52652915648E+03  0.00000000000E+00 0.  1.
<mgrwt>
<rscale>  2 0.70976027E+02</rscale>
<asrwt>0</asrwt>
<pdfrwt beam="1">  1       21 0.11851685E+00 0.70976027E+02</pdfrwt>
<pdfrwt beam="2">  1       21 0.11565399E-02 0.70976027E+02</pdfrwt>
<totfact> 0.16133052E+06</totfact>
</mgrwt>
</event>
<event>
 4    1  0.7521660E+004  0.2027809E+02  0.7546771E-02  0.1739854E+00
         21   -1    0    0  503  502  0.00000000000E+00  0.00000000000E+00  0.65078804445E+01  0.65078804445E+01  0.00000000000E+00 0. -1.
         21   -1    0    0  501  503 -0.00000000000E+00 -0.00000000000E+00 -0.65178055672E+02  0.65178055672E+02  0.00000000000E+00 0. -1.
          3    1    1    2  501    0  0.19236292334E+02 -0.64160764901E+01 -0.35602722629E+02  0.40972610838E+02  0.00000000000E+00 0. -1.
         -3    1    1    2    0  502 -0.19236292334E+02  0.64160764901E+01 -0.23067452599E+02  0.30713325279E+02  0.00000000000E+00 0.  1.
<mgrwt>
<rscale>  2 0.20278091E+02</rscale>
<asrwt>0</asrwt>
<pdfrwt beam="1">  1       21 0.10012124E-02 0.20278091E+02</pdfrwt>
<pdfrwt beam="2">  1       21 0.10027393E-01 0.20278091E+02</pdfrwt>
<totfact> 0.19067986E+08</totfact>
</mgrwt>
</event>
<event>
 4    1  0.7521660E+004  0.2410925E+02  0.7546771E-02  0.1674136E+00
         21   -1    0    0  503  502  0.00000000000E+00  0.00000000000E+00  0.22635508957E+01  0.22635508957E+01  0.00000000000E+00 0. -1.
         21   -1    0    0  501  503 -0.00000000000E+00 -0.00000000000E+00 -0.31950295023E+03  0.31950295023E+03  0.00000000000E+00 0. -1.
          5    1    1    2  501    0  0.12707260105E+02 -0.20488573355E+02 -0.87341987544E+02  0.90608381983E+02  0.00000000000E+00 0. -1.
         -5    1    1    2    0  502 -0.12707260105E+02  0.20488573355E+02 -0.22989741179E+03  0.23115811914E+03  0.00000000000E+00 0.  1.
<mgrwt>
<rscale>  2 0.24109253E+02</rscale>
<asrwt>0</asrwt>
<pdfrwt beam="1">  1       21 0.34823873E-03 0.24109253E+02</pdfrwt>
<pdfrwt beam="2">  1       21 0.49154282E-01 0.24109253E+02</pdfrwt>
<totfact> 0.57195287E+07</totfact>
</mgrwt>
</event>
<event>
 4    1  0.7521660E+004  0.2006497E+02  0.7546771E-02  0.1744039E+00
         21   -1    0    0  501  502  0.00000000000E+00  0.00000000000E+00  0.50077102735E+02  0.50077102735E+02  0.00000000000E+00 0.  1.
         21   -1    0    0  502  503 -0.00000000000E+00 -0.00000000000E+00 -0.88795562977E+01  0.88795562977E+01  0.00000000000E+00 0.  1.
          5    1    1    2  501    0  0.72026901742E+01  0.18727636797E+02  0.29664837627E+02  0.35813485130E+02  0.00000000000E+00 0.  1.
         -5    1    1    2    0  503 -0.72026901742E+01 -0.18727636797E+02  0.11532708810E+02  0.23143173902E+02  0.00000000000E+00 0. -1.
<mgrwt>
<rscale>  2 0.20064973E+02</rscale>
<asrwt>0</asrwt>
<pdfrwt beam="1">  1       21 0.77041695E-02 0.20064973E+02</pdfrwt>
<pdfrwt beam="2">  1       21 0.13660856E-02 0.20064973E+02</pdfrwt>
<totfact> 0.18320860E+08</totfact>
</mgrwt>
</event>
<event>
 4    1  0.7521660E+004  0.2014904E+02  0.7546771E-02  0.1742380E+00
         21   -1    0    0  501  502  0.00000000000E+00  0.00000000000E+00  0.44707171261E+01  0.44707171261E+01  0.00000000000E+00 0.  1.
         21   -1    0    0  502  503 -0.00000000000E+00 -0.00000000000E+00 -0.10261290835E+03  0.10261290835E+03  0.00000000000E+00 0.  1.
          2    1    1    2  501    0 -0.16632483539E+02  0.11372960443E+02 -0.30911960211E+02  0.36898956923E+02  0.00000000000E+00 0.  1.
         -2    1    1    2    0  503  0.16632483539E+02 -0.11372960443E+02 -0.67230231009E+02  0.70184668549E+02  0.00000000000E+00 0. -1.
<mgrwt>
<rscale>  2 0.20149038E+02</rscale>
<asrwt>0</asrwt>
<pdfrwt beam="1">  1       21 0.68780271E-03 0.20149038E+02</pdfrwt>
<pdfrwt beam="2">  1       21 0.15786600E-01 0.20149038E+02</pdfrwt>
<totfact> 0.15577471E+08</totfact>
</mgrwt>
</event>
<event>
 4    1  0.7521660E+004  0.3514505E+02  0.7546771E-02  0.1547316E+00
         21   -1    0    0  503  502  0.00000000000E+00  0.00000000000E+00  0.32220588661E+01  0.32220588661E+01  0.00000000000E+00 0. -1.
         21   -1    0    0  501  503 -0.00000000000E+00 -0.00000000000E+00 -0.48500977445E+03  0.48500977445E+03  0.00000000000E+00 0. -1.
          5    1    1    2  501    0  0.42104627568E+01  0.34891931299E+02 -0.35265642018E+03  0.35440333740E+03  0.00000000000E+00 0. -1.
         -5    1    1    2    0  502 -0.42104627568E+01 -0.34891931299E+02 -0.12913129540E+03  0.13382849592E+03  0.00000000000E+00 0.  1.
<mgrwt>
<rscale>  2 0.35145055E+02</rscale>
<asrwt>0</asrwt>
<pdfrwt beam="1">  1       21 0.49570157E-03 0.35145055E+02</pdfrwt>
<pdfrwt beam="2">  1       21 0.74616858E-01 0.35145055E+02</pdfrwt>
<totfact> 0.15638787E+07</totfact>
</mgrwt>
</event>
<event>
 4    1  0.7521660E+004  0.2414249E+02  0.7546771E-02  0.1673633E+00
         21   -1    0    0  503  502  0.00000000000E+00  0.00000000000E+00  0.10877633526E+02  0.10877633526E+02  0.00000000000E+00 0. -1.
         21   -1    0    0  501  503 -0.00000000000E+00 -0.00000000000E+00 -0.74480468451E+02  0.74480468451E+02  0.00000000000E+00 0. -1.
          3    1    1    2  501    0  0.51917381810E+01  0.23577650322E+02 -0.91947239149E+01  0.25834138033E+02  0.00000000000E+00 0.  1.
         -3    1    1    2    0  502 -0.51917381810E+01 -0.23577650322E+02 -0.54408111010E+02  0.59523963945E+02  0.00000000000E+00 0. -1.
<mgrwt>
<rscale>  2 0.24142488E+02</rscale>
<asrwt>0</asrwt>
<pdfrwt beam="1">  1       21 0.16734821E-02 0.24142488E+02</pdfrwt>
<pdfrwt beam="2">  1       21 0.11458533E-01 0.24142488E+02</pdfrwt>
<totfact> 0.74001473E+07</totfact>
</mgrwt>
</event>
<event>
 4    1  0.7521660E+004  0.4125291E+02  0.7546771E-02  0.1499189E+00
         21   -1    0    0  503  502  0.00000000000E+00  0.00000000000E+00  0.12144582611E+03  0.12144582611E+03  0.00000000000E+00 0. -1.
         21   -1    0    0  501  503 -0.00000000000E+00 -0.00000000000E+00 -0.15526281525E+02  0.15526281525E+02  0.00000000000E+00 0. -1.
          5    1    1    2  501    0 -0.26574973795E+01  0.41167222069E+02  0.31577718215E+02  0.51951465358E+02  0.00000000000E+00 0. -1.
         -5    1    1    2    0  502  0.26574973795E+01 -0.41167222069E+02  0.74341826368E+02  0.85020642275E+02  0.00000000000E+00 0.  1.
<mgrwt>
<rscale>  2 0.41252909E+02</rscale>
<asrwt>0</asrwt>
<pdfrwt beam="1">  1       21 0.18683973E-01 0.41252909E+02</pdfrwt>
<pdfrwt beam="2">  1       21 0.23886588E-02 0.41252909E+02</pdfrwt>
<totfact> 0.20499409E+07</totfact>
</mgrwt>
</event>
<event>
 4    1  0.7521660E+004  0.2716838E+02  0.7546771E-02  0.1631678E+00
         21   -1    0    0  501  502  0.00000000000E+00  0.00000000000E+00  0.86443383848E+02  0.86443383848E+02  0.00000000000E+00 0. -1.
         21   -1    0    0  502  503 -0.00000000000E+00 -0.00000000000E+00 -0.13531980064E+02  0.13531980064E+02  0.00000000000E+00 0. -1.
          5    1    1    2  501    0 -0.20454375147E+02  0.17881258946E+02  0.66820603906E+02  0.72132613917E+02  0.00000000000E+00 0. -1.
         -5    1    1    2    0  503  0.20454375147E+02 -0.17881258946E+02  0.60907998781E+01  0.27842749995E+02  0.00000000000E+00 0.  1.
<mgrwt>
<rscale>  2 0.27168380E+02</rscale>
<asrwt>0</asrwt>
<pdfrwt beam="1">  1       21 0.13298982E-01 0.27168380E+02</pdfrwt>
<pdfrwt beam="2">  1       21 0.20818431E-02 0.27168380E+02</pdfrwt>
<totfact> 0.42350974E+07</totfact>
</mgrwt>
</event>
<event>
 4    1  0.7521660E+004  0.2200296E+02  0.7546771E-02  0.1708201E+00
         21   -1    0    0  501  502  0.00000000000E+00  0.00000000000E+00  0.10744118853E+02  0.10744118853E+02  0.00000000000E+00 0. -1.
         21   -1    0    0  502  503 -0.00000000000E+00 -0.00000000000E+00 -0.47583696179E+02  0.47583696179E+02  0.00000000000E+00 0. -1.
          4    1    1    2  501    0 -0.33046136007E+01 -0.21753389122E+02 -0.11703461448E+02  0.24921906412E+02  0.00000000000E+00 0. -1.
         -4    1    1    2    0  503  0.33046136007E+01  0.21753389122E+02 -0.25136115878E+02  0.33405908621E+02  0.00000000000E+00 0.  1.
<mgrwt>
<rscale>  2 0.22002964E+02</rscale>
<asrwt>0</asrwt>
<pdfrwt beam="1">  1       21 0.16529414E-02 0.22002964E+02</pdfrwt>
<pdfrwt beam="2">  1       21 0.73205687E-02 0.22002964E+02</pdfrwt>
<totfact> 0.15346812E+08</totfact>
</mgrwt>
</event>
<event>
 4    1  0.7521660E+004  0.2007230E+02  0.7546771E-02  0.1743894E+00
         21   -1    0    0  503  502  0.00000000000E+00  0.00000000000E+00  0.43410236694E+01  0.43410236694E+01  0.00000000000E+00 0. -1.
         21   -1    0    0  501  503 -0.00000000000E+00 -0.00000000000E+00 -0.11021560163E+03  0.11021560163E+03  0.00000000000E+00 0. -1.
          2    1    1    2  501    0 -0.20066166323E+02 -0.49634070923E+00 -0.75698383479E+02  0.78314383394E+02  0.00000000000E+00 0. -1.
         -2    1    1    2    0  502  0.20066166323E+02  0.49634070923E+00 -0.30176194484E+02  0.36242241908E+02  0.00000000000E+00 0.  1.
<mgrwt>
<rscale>  2 0.20072304E+02</rscale>
<asrwt>0</asrwt>
<pdfrwt beam="1">  1       21 0.66784982E-03 0.20072304E+02</pdfrwt>
<pdfrwt beam="2">  1       21 0.16956246E-01 0.20072304E+02</pdfrwt>
<totfact> 0.14387023E+08</totfact>
</mgrwt>
</event>
<event>
 4    1  0.7521660E+004  0.3755215E+02  0.7546771E-02  0.1527038E+00
         21   -1    0    0  503  502  0.00000000000E+00  0.00000000000E+00  0.24157588092E+03  0.24157588092E+03  0.00000000000E+00 0. -1.
         21   -1    0    0  501  503 -0.00000000000E+00 -0.00000000000E+00 -0.64372514544E+01  0.64372514544E+01  0.00000000000E+00 0. -1.
          2    1    1    2  501    0  0.34045715328E+02 -0.15844670657E+02  0.79713519268E+02  0.88115886619E+02  0.00000000000E+00 0. -1.
         -2    1    1    2    0  502 -0.34045715328E+02  0.15844670657E+02  0.15542511019E+03  0.15989724575E+03  0.00000000000E+00 0.  1.
<mgrwt>
<rscale>  2 0.37552155E+02</rscale>
<asrwt>0</asrwt>
<pdfrwt beam="1">  1       21 0.37165513E-01 0.37552155E+02</pdfrwt>
<pdfrwt beam="2">  1       21 0.99034657E-03 0.37552155E+02</pdfrwt>
<totfact> 0.22385151E+07</totfact>
</mgrwt>
</event>
<event>
 4    1  0.7521660E+004  0.2206310E+02  0.7546771E-02  0.1707163E+00
         21   -1    0    0  501  502  0.00000000000E+00  0.00000000000E+00  0.40123179720E+01  0.40123179720E+01  0.00000000000E+00 0. -1.
         21   -1    0    0  502  503 -0.00000000000E+00 -0.00000000000E+00 -0.16342458036E+03  0.16342458036E+03  0.00000000000E+00 0. -1.
          3    1    1    2  501    0 -0.21550609868E+02  0.47277519796E+01 -0.12219933089E+03  0.12417510578E+03  0.00000000000E+00 0. -1.
         -3    1    1    2    0  503  0.21550609868E+02 -0.47277519796E+01 -0.37212931492E+02  0.43261792550E+02  0.00000000000E+00 0.  1.
<mgrwt>
<rscale>  2 0.22063101E+02</rscale>
<asrwt>0</asrwt>
<pdfrwt beam="1">  1       21 0.61727970E-03 0.22063101E+02</pdfrwt>
<pdfrwt beam="2">  1       21 0.25142243E-01 0.22063101E+02</pdfrwt>
<totfact> 0.83568400E+07</totfact>
</mgrwt>
</event>
<event>
 4    1  0.7521660E+004  0.2347387E+02  0.7546771E-02  0.1683942E+00
         21   -1    0    0  501  502  0.00000000000E+00  0.00000000000E+00  0.45322519428E+03  0.45322519428E+03  0.00000000000E+00 0. -1.
         21   -1    0    0  502  503 -0.00000000000E+00 -0.00000000000E+00 -0.12850469660E+01  0.12850469660E+01  0.00000000000E+00 0. -1.
          3    1    1    2  501    0 -0.21836329439E+02  0.86137954578E+01  0.17320908676E+03  0.17479247836E+03  0.00000000000E+00 0. -1.
         -3    1    1    2    0  503  0.21836329439E+02 -0.86137954578E+01  0.27873106056E+03  0.27971776289E+03  0.00000000000E+00 0.  1.
<mgrwt>
<rscale>  2 0.23473874E+02</rscale>
<asrwt>0</asrwt>
<pdfrwt beam="1">  1       21 0.69726825E-01 0.23473874E+02</pdfrwt>
<pdfrwt beam="2">  1       21 0.19769990E-03 0.23473874E+02</pdfrwt>
<totfact> 0.64457826E+07</totfact>
</mgrwt>
</event>
<event>
 4    1  0.7521660E+004  0.3174650E+02  0.7546771E-02  0.1579549E+00
         21   -1    0    0  503  502  0.00000000000E+00  0.00000000000E+00  0.50077990000E+01  0.50077990000E+01  0.00000000000E+00 0. -1.
         21   -1    0    0  501  503 -0.00000000000E+00 -0.00000000000E+00 -0.20125460390E+03  0.20125460390E+03  0.00000000000E+00 0. -1.
          5    1    1    2  501    0 -0.29587437852E+02 -0.11507546586E+02 -0.97961069736E+02  0.10297675122E+03  0.00000000000E+00 0.  1.
         -5    1    1    2    0  502  0.29587437852E+02  0.11507546586E+02 -0.98285735160E+02  0.10328565168E+03  0.00000000000E+00 0. -1.
<mgrwt>
<rscale>  2 0.31746498E+02</rscale>
<asrwt>0</asrwt>
<pdfrwt beam="1">  1       21 0.77043054E-03 0.31746498E+02</pdfrwt>
<pdfrwt beam="2">  1       21 0.30962250E-01 0.31746498E+02</pdfrwt>
<totfact> 0.44776107E+07</totfact>
</mgrwt>
</event>
<event>
 4    1  0.7521660E+004  0.2934913E+02  0.7546771E-02  0.1605397E+00
         21   -1    0    0  501  502  0.00000000000E+00  0.00000000000E+00  0.18290667971E+01  0.18290667971E+01  0.00000000000E+00 0. -1.
         21   -1    0    0  502  503 -0.00000000000E+00 -0.00000000000E+00 -0.10352690466E+04  0.10352690466E+04  0.00000000000E+00 0. -1.
          2    1    1    2  501    0  0.28282675842E+02 -0.78397367725E+01 -0.13386753782E+03  0.13704703174E+03  0.00000000000E+00 0. -1.
         -2    1    1    2    0  503 -0.28282675842E+02  0.78397367725E+01 -0.89957244197E+03  0.90005108165E+03  0.00000000000E+00 0.  1.
<mgrwt>
<rscale>  2 0.29349126E+02</rscale>
<asrwt>0</asrwt>
<pdfrwt beam="1">  1       21 0.28139486E-03 0.29349126E+02</pdfrwt>
<pdfrwt beam="2">  1       21 0.15927218E+00 0.29349126E+02</pdfrwt>
<totfact> 0.63529276E+06</totfact>
</mgrwt>
</event>
<event>
 4    1  0.7521660E+004  0.2701903E+02  0.7546771E-02  0.1633588E+00
         21   -1    0    0  501  502  0.00000000000E+00  0.00000000000E+00  0.46144225665E+02  0.46144225665E+02  0.00000000000E+00 0. -1.
         21   -1    0    0  502  503 -0.00000000000E+00 -0.00000000000E+00 -0.21238206047E+02  0.21238206047E+02  0.00000000000E+00 0. -1.
          4    1    1    2  501    0  0.35550888406E+01 -0.26784125887E+02  0.29469210222E+02  0.39980775472E+02  0.00000000000E+00 0. -1.
         -4    1    1    2    0  503 -0.35550888406E+01  0.26784125887E+02 -0.45631906039E+01  0.27401656240E+02  0.00000000000E+00 0.  1.
<mgrwt>
<rscale>  2 0.27019031E+02</rscale>
<asrwt>0</asrwt>
<pdfrwt beam="1">  1       21 0.70991116E-02 0.27019031E+02</pdfrwt>
<pdfrwt beam="2">  1       21 0.32674163E-02 0.27019031E+02</pdfrwt>
<totfact> 0.59504116E+07</totfact>
</mgrwt>
</event>
<event>
 4    1  0.7521660E+004  0.2308685E+02  0.7546771E-02  0.1690106E+00
         21   -1    0    0  501  502  0.00000000000E+00  0.00000000000E+00  0.35250602087E+02  0.35250602087E+02  0.00000000000E+00 0. -1.
         21   -1    0    0  502  503 -0.00000000000E+00 -0.00000000000E+00 -0.16098956726E+02  0.16098956726E+02  0.00000000000E+00 0. -1.
          3    1    1    2  501    0  0.22481735537E+02 -0.52511157417E+01  0.32458133780E+01  0.23313900441E+02  0.00000000000E+00 0. -1.
         -3    1    1    2    0  503 -0.22481735537E+02  0.52511157417E+01  0.15905831983E+02  0.28035658372E+02  0.00000000000E+00 0.  1.
<mgrwt>
<rscale>  2 0.23086850E+02</rscale>
<asrwt>0</asrwt>
<pdfrwt beam="1">  1       21 0.54231696E-02 0.23086850E+02</pdfrwt>
<pdfrwt beam="2">  1       21 0.24767626E-02 0.23086850E+02</pdfrwt>
<totfact> 0.13570939E+08</totfact>
</mgrwt>
</event>
<event>
 4    1  0.7521660E+004  0.2312283E+02  0.7546771E-02  0.1689527E+00
         21   -1    0    0  501  502  0.00000000000E+00  0.00000000000E+00  0.14123957957E+03  0.14123957957E+03  0.00000000000E+00 0.  1.
         21   -1    0    0  502  503 -0.00000000000E+00 -0.00000000000E+00 -0.58378990929E+01  0.58378990929E+01  0.00000000000E+00 0.  1.
          2    1    1    2  501    0 -0.21479633124E+02 -0.85609920881E+01  0.11130387338E+03  0.11368033011E+03  0.00000000000E+00 0. -1.
         -2    1    1    2    0  503  0.21479633124E+02  0.85609920881E+01  0.24097807104E+02  0.33397148559E+02  0.00000000000E+00 0.  1.
<mgrwt>
<rscale>  2 0.23122829E+02</rscale>
<asrwt>0</asrwt>
<pdfrwt beam="1">  1       21 0.21729164E-01 0.23122829E+02</pdfrwt>
<pdfrwt beam="2">  1       21 0.89813842E-03 0.23122829E+02</pdfrwt>
<totfact> 0.62666542E+07</totfact>
</mgrwt>
</event>
<event>
 4    1  0.7521660E+004  0.2026660E+02  0.7546771E-02  0.1740078E+00
         21   -1    0    0  501  502  0.00000000000E+00  0.00000000000E+00  0.12197453580E+03  0.12197453580E+03  0.00000000000E+00 0. -1.
         21   -1    0    0  502  503 -0.00000000000E+00 -0.00000000000E+00 -0.44439892889E+01  0.44439892889E+01  0.00000000000E+00 0. -1.
          3    1    1    2  501    0 -0.73810825858E+00  0.20253157802E+02  0.27653676337E+02  0.34284997006E+02  0.00000000000E+00 0.  1.
         -3    1    1    2    0  503  0.73810825858E+00 -0.20253157802E+02  0.89876870176E+02  0.92133528085E+02  0.00000000000E+00 0. -1.
<mgrwt>
<rscale>  2 0.20266603E+02</rscale>
<asrwt>0</asrwt>
<pdfrwt beam="1">  1       21 0.18765311E-01 0.20266603E+02</pdfrwt>
<pdfrwt beam="2">  1       21 0.68369075E-03 0.20266603E+02</pdfrwt>
<totfact> 0.11711651E+08</totfact>
</mgrwt>
</event>
<event>
 4    1  0.7521660E+004  0.2532465E+02  0.7546771E-02  0.1656382E+00
         21   -1    0    0  503  502  0.00000000000E+00  0.00000000000E+00  0.16949217964E+02  0.16949217964E+02  0.00000000000E+00 0.  1.
         21   -1    0    0  501  503 -0.00000000000E+00 -0.00000000000E+00 -0.41537431092E+02  0.41537431092E+02  0.00000000000E+00 0.  1.
          4    1    1    2  501    0 -0.22994299460E+02 -0.10611322571E+02 -0.35678543390E+01  0.25574744553E+02  0.00000000000E+00 0. -1.
         -4    1    1    2    0  502  0.22994299460E+02  0.10611322571E+02 -0.21020358789E+02  0.32911904503E+02  0.00000000000E+00 0.  1.
<mgrwt>
<rscale>  2 0.25324652E+02</rscale>
<asrwt>0</asrwt>
<pdfrwt beam="1">  1       21 0.26075720E-02 0.25324652E+02</pdfrwt>
<pdfrwt beam="2">  1       21 0.63903740E-02 0.25324652E+02</pdfrwt>
<totfact> 0.98801415E+07</totfact>
</mgrwt>
</event>
<event>
 4    1  0.7521660E+004  0.2176047E+02  0.7546771E-02  0.1712428E+00
         21   -1    0    0  501  502  0.00000000000E+00  0.00000000000E+00  0.41378689326E+01  0.41378689326E+01  0.00000000000E+00 0. -1.
         21   -1    0    0  502  503 -0.00000000000E+00 -0.00000000000E+00 -0.11810294693E+03  0.11810294693E+03  0.00000000000E+00 0. -1.
          5    1    1    2  501    0  0.21192211125E+02 -0.49404609617E+01 -0.67753489063E+02  0.71162161624E+02  0.00000000000E+00 0. -1.
         -5    1    1    2    0  503 -0.21192211125E+02  0.49404609617E+01 -0.46211588931E+02  0.51078654234E+02  0.00000000000E+00 0.  1.
<mgrwt>
<rscale>  2 0.21760468E+02</rscale>
<asrwt>0</asrwt>
<pdfrwt beam="1">  1       21 0.63659525E-03 0.21760468E+02</pdfrwt>
<pdfrwt beam="2">  1       21 0.18169683E-01 0.21760468E+02</pdfrwt>
<totfact> 0.14051448E+08</totfact>
</mgrwt>
</event>
<event>
 4    1  0.7521660E+004  0.3105171E+02  0.7546771E-02  0.1586746E+00
         21   -1    0    0  501  502  0.00000000000E+00  0.00000000000E+00  0.17230970368E+02  0.17230970368E+02  0.00000000000E+00 0. -1.
         21   -1    0    0  502  503 -0.00000000000E+00 -0.00000000000E+00 -0.78028412796E+02  0.78028412796E+02  0.00000000000E+00 0. -1.
          1    1    1    2  501    0  0.19131866598E+02  0.24457727697E+02 -0.55730033110E+02  0.63796907088E+02  0.00000000000E+00 0. -1.
         -1    1    1    2    0  503 -0.19131866598E+02 -0.24457727697E+02 -0.50674093182E+01  0.31462476075E+02  0.00000000000E+00 0.  1.
<mgrwt>
<rscale>  2 0.31051711E+02</rscale>
<asrwt>0</asrwt>
<pdfrwt beam="1">  1       21 0.26509186E-02 0.31051711E+02</pdfrwt>
<pdfrwt beam="2">  1       21 0.12004371E-01 0.31051711E+02</pdfrwt>
<totfact> 0.35604189E+07</totfact>
</mgrwt>
</event>
<event>
 4    1  0.7521660E+004  0.2003637E+02  0.7546771E-02  0.1744606E+00
         21   -1    0    0  501  502  0.00000000000E+00  0.00000000000E+00  0.80872264543E+02  0.80872264543E+02  0.00000000000E+00 0. -1.
         21   -1    0    0  502  503 -0.00000000000E+00 -0.00000000000E+00 -0.50538721347E+01  0.50538721347E+01  0.00000000000E+00 0. -1.
          2    1    1    2  501    0 -0.89730016282E+00  0.20016269542E+02  0.32182446470E+02  0.37909973025E+02  0.00000000000E+00 0. -1.
         -2    1    1    2    0  503  0.89730016282E+00 -0.20016269542E+02  0.43635945938E+02  0.48016163653E+02  0.00000000000E+00 0.  1.
<mgrwt>
<rscale>  2 0.20036372E+02</rscale>
<asrwt>0</asrwt>
<pdfrwt beam="1">  1       21 0.12441886E-01 0.20036372E+02</pdfrwt>
<pdfrwt beam="2">  1       21 0.77751885E-03 0.20036372E+02</pdfrwt>
<totfact> 0.19360224E+08</totfact>
</mgrwt>
</event>
<event>
 4    1  0.7521660E+004  0.6231350E+02  0.7546771E-02  0.1388372E+00
         21   -1    0    0  501  502  0.00000000000E+00  0.00000000000E+00  0.15238699437E+03  0.15238699437E+03  0.00000000000E+00 0.  1.
         21   -1    0    0  502  503 -0.00000000000E+00 -0.00000000000E+00 -0.27543185820E+02  0.27543185820E+02  0.00000000000E+00 0.  1.
          4    1    1    2  501    0 -0.55469956568E+02 -0.28391129928E+02  0.37805121706E+02  0.72884837706E+02  0.00000000000E+00 0. -1.
         -4    1    1    2    0  503  0.55469956568E+02  0.28391129928E+02  0.87038686847E+02  0.10704534249E+03  0.00000000000E+00 0.  1.
<mgrwt>
<rscale>  2 0.62313500E+02</rscale>
<asrwt>0</asrwt>
<pdfrwt beam="1">  1       21 0.23444153E-01 0.62313500E+02</pdfrwt>
<pdfrwt beam="2">  1       21 0.42374133E-02 0.62313500E+02</pdfrwt>
<totfact> 0.57001366E+06</totfact>
</mgrwt>
</event>
<event>
 4    1  0.7521660E+004  0.2769047E+02  0.7546771E-02  0.1625117E+00
         21   -1    0    0  503  502  0.00000000000E+00  0.00000000000E+00  0.18951753698E+01  0.18951753698E+01  0.00000000000E+00 0. -1.
         21   -1    0    0  501  503 -0.00000000000E+00 -0.00000000000E+00 -0.43313199067E+03  0.43313199067E+03  0.00000000000E+00 0. -1.
          5    1    1    2  501    0 -0.14745413977E+02  0.23437897489E+02 -0.15977840889E+03  0.16216011291E+03  0.00000000000E+00 0. -1.
         -5    1    1    2    0  502  0.14745413977E+02 -0.23437897489E+02 -0.27145840641E+03  0.27286705313E+03  0.00000000000E+00 0.  1.
<mgrwt>
<rscale>  2 0.27690473E+02</rscale>
<asrwt>0</asrwt>
<pdfrwt beam="1">  1       21 0.29156539E-03 0.27690473E+02</pdfrwt>
<pdfrwt beam="2">  1       21 0.66635703E-01 0.27690473E+02</pdfrwt>
<totfact> 0.41657578E+07</totfact>
</mgrwt>
</event>
<event>
 4    1  0.7521660E+004  0.2007359E+02  0.7546771E-02  0.1743869E+00
         21   -1    0    0  503  502  0.00000000000E+00  0.00000000000E+00  0.12165780793E+01  0.12165780793E+01  0.00000000000E+00 0. -1.
         21   -1    0    0  501  503 -0.00000000000E+00 -0.00000000000E+00 -0.34389526937E+03  0.34389526937E+03  0.00000000000E+00 0. -1.
          2    1    1    2  501    0 -0.17467789612E+02 -0.98906635581E+01 -0.13820479096E+03  0.13965497894E+03  0.00000000000E+00 0. -1.
         -2    1    1    2    0  502  0.17467789612E+02  0.98906635581E+01 -0.20447390033E+03  0.20545686850E+03  0.00000000000E+00 0.  1.
<mgrwt>
<rscale>  2 0.20073587E+02</rscale>
<asrwt>0</asrwt>
<pdfrwt beam="1">  1       21 0.18716578E-03 0.20073587E+02</pdfrwt>
<pdfrwt beam="2">  1       21 0.52906986E-01 0.20073587E+02</pdfrwt>
<totfact> 0.11631943E+08</totfact>
</mgrwt>
</event>
<event>
 4    1  0.7521660E+004  0.2343103E+02  0.7546771E-02  0.1684617E+00
         21   -1    0    0  501  502  0.00000000000E+00  0.00000000000E+00  0.57868166033E+01  0.57868166033E+01  0.00000000000E+00 0.  1.
         21   -1    0    0  502  503 -0.00000000000E+00 -0.00000000000E+00 -0.12985111496E+03  0.12985111496E+03  0.00000000000E+00 0.  1.
          5    1    1    2  501    0  0.23196909786E+02  0.33040031753E+01 -0.26833493039E+02  0.35623719756E+02  0.00000000000E+00 0.  1.
         -5    1    1    2    0  503 -0.23196909786E+02 -0.33040031753E+01 -0.97230805320E+02  0.10001421181E+03  0.00000000000E+00 0. -1.
<mgrwt>
<rscale>  2 0.23431028E+02</rscale>
<asrwt>0</asrwt>
<pdfrwt beam="1">  1       21 0.89027960E-03 0.23431028E+02</pdfrwt>
<pdfrwt beam="2">  1       21 0.19977092E-01 0.23431028E+02</pdfrwt>
<totfact> 0.73831378E+07</totfact>
</mgrwt>
</event>
<event>
 4    1  0.7521660E+004  0.2736675E+02  0.7546771E-02  0.1629164E+00
         21   -1    0    0  503  502  0.00000000000E+00  0.00000000000E+00  0.21846573761E+01  0.21846573761E+01  0.00000000000E+00 0.  1.
         21   -1    0    0  501  503 -0.00000000000E+00 -0.00000000000E+00 -0.34369547443E+03  0.34369547443E+03  0.00000000000E+00 0.  1.
          2    1    1    2  501    0 -0.25456874212E+02  0.10044227850E+02 -0.16201504437E+03  0.16431011399E+03  0.00000000000E+00 0. -1.
         -2    1    1    2    0  502  0.25456874212E+02 -0.10044227850E+02 -0.17949577268E+03  0.18157001781E+03  0.00000000000E+00 0.  1.
<mgrwt>
<rscale>  2 0.27366749E+02</rscale>
<asrwt>0</asrwt>
<pdfrwt beam="1">  1       21 0.33610142E-03 0.27366749E+02</pdfrwt>
<pdfrwt beam="2">  1       21 0.52876182E-01 0.27366749E+02</pdfrwt>
<totfact> 0.53714817E+07</totfact>
</mgrwt>
</event>
<event>
 4    1  0.7521660E+004  0.2082429E+02  0.7546771E-02  0.1729416E+00
         21   -1    0    0  501  502  0.00000000000E+00  0.00000000000E+00  0.22043416626E+02  0.22043416626E+02  0.00000000000E+00 0. -1.
         21   -1    0    0  502  503 -0.00000000000E+00 -0.00000000000E+00 -0.22573818375E+02  0.22573818375E+02  0.00000000000E+00 0. -1.
          5    1    1    2  501    0  0.18212001751E+02 -0.10098229901E+02  0.77324154886E+01  0.22213543261E+02  0.00000000000E+00 0.  1.
         -5    1    1    2    0  503 -0.18212001751E+02  0.10098229901E+02 -0.82628172374E+01  0.22403691740E+02  0.00000000000E+00 0. -1.
<mgrwt>
<rscale>  2 0.20824295E+02</rscale>
<asrwt>0</asrwt>
<pdfrwt beam="1">  1       21 0.33912949E-02 0.20824295E+02</pdfrwt>
<pdfrwt beam="2">  1       21 0.34728951E-02 0.20824295E+02</pdfrwt>
<totfact> 0.16314770E+08</totfact>
</mgrwt>
</event>
<event>
 4    1  0.7521660E+004  0.3113296E+02  0.7546771E-02  0.1585893E+00
         21   -1    0    0  501  502  0.00000000000E+00  0.00000000000E+00  0.66081574673E+02  0.66081574673E+02  0.00000000000E+00 0. -1.
         21   -1    0    0  502  503 -0.00000000000E+00 -0.00000000000E+00 -0.16175209296E+02  0.16175209296E+02  0.00000000000E+00 0. -1.
          2    1    1    2  501    0  0.11547425819E+02 -0.28912244124E+02  0.12397073641E+02  0.33510421337E+02  0.00000000000E+00 0. -1.
         -2    1    1    2    0  503 -0.11547425819E+02  0.28912244124E+02  0.37509291736E+02  0.48746362632E+02  0.00000000000E+00 0.  1.
<mgrwt>
<rscale>  2 0.31132955E+02</rscale>
<asrwt>0</asrwt>
<pdfrwt beam="1">  1       21 0.10166396E-01 0.31132955E+02</pdfrwt>
<pdfrwt beam="2">  1       21 0.24884938E-02 0.31132955E+02</pdfrwt>
<totfact> 0.52039412E+07</totfact>
</mgrwt>
</event>
<event>
 4    1  0.7521660E+004  0.2731809E+02  0.7546771E-02  0.1629778E+00
         21   -1    0    0  501  502  0.00000000000E+00  0.00000000000E+00  0.66277497154E+02  0.66277497154E+02  0.00000000000E+00 0.  1.
         21   -1    0    0  502  503 -0.00000000000E+00 -0.00000000000E+00 -0.11290429140E+02  0.11290429140E+02  0.00000000000E+00 0.  1.
          2    1    1    2  501    0  0.68722632621E+01 -0.26439550600E+02  0.25476698154E+02  0.37354249920E+02  0.00000000000E+00 0.  1.
         -2    1    1    2    0  503 -0.68722632621E+01  0.26439550600E+02  0.29510369860E+02  0.40213676374E+02  0.00000000000E+00 0. -1.
<mgrwt>
<rscale>  2 0.27318086E+02</rscale>
<asrwt>0</asrwt>
<pdfrwt beam="1">  1       21 0.10196538E-01 0.27318086E+02</pdfrwt>
<pdfrwt beam="2">  1       21 0.17369891E-02 0.27318086E+02</pdfrwt>
<totfact> 0.87655091E+07</totfact>
</mgrwt>
</event>
<event>
 4    1  0.7521660E+004  0.7218478E+02  0.7546771E-02  0.1352817E+00
         21   -1    0    0  501  502  0.00000000000E+00  0.00000000000E+00  0.26228972577E+03  0.26228972577E+03  0.00000000000E+00 0. -1.
         21   -1    0    0  502  503 -0.00000000000E+00 -0.00000000000E+00 -0.20512058036E+02  0.20512058036E+02  0.00000000000E+00 0. -1.
          3    1    1    2  501    0 -0.44588096366E+02  0.56767454099E+02  0.95793651424E+02  0.11994609554E+03  0.00000000000E+00 0.  1.
         -3    1    1    2    0  503  0.44588096366E+02 -0.56767454099E+02  0.14598401631E+03  0.16285568827E+03  0.00000000000E+00 0. -1.
<mgrwt>
<rscale>  2 0.72184778E+02</rscale>
<asrwt>0</asrwt>
<pdfrwt beam="1">  1       21 0.40352263E-01 0.72184778E+02</pdfrwt>
<pdfrwt beam="2">  1       21 0.31557014E-02 0.72184778E+02</pdfrwt>
<totfact> 0.33169662E+06</totfact>
</mgrwt>
</event>
<event>
 4    1  0.7521660E+004  0.2268713E+02  0.7546771E-02  0.1696632E+00
         21   -1    0    0  503  502  0.00000000000E+00  0.00000000000E+00  0.45211548587E+02  0.45211548587E+02  0.00000000000E+00 0.  1.
         21   -1    0    0  501  503 -0.00000000000E+00 -0.00000000000E+00 -0.12864395590E+02  0.12864395590E+02  0.00000000000E+00 0.  1.
          3    1    1    2  501    0  0.22600331970E+02 -0.19826386060E+01  0.26022831914E+02  0.34523812678E+02  0.00000000000E+00 0. -1.
         -3    1    1    2    0  502 -0.22600331970E+02  0.19826386060E+01  0.63243210833E+01  0.23552131499E+02  0.00000000000E+00 0.  1.
<mgrwt>
<rscale>  2 0.22687130E+02</rscale>
<asrwt>0</asrwt>
<pdfrwt beam="1">  1       21 0.69556228E-02 0.22687130E+02</pdfrwt>
<pdfrwt beam="2">  1       21 0.19791378E-02 0.22687130E+02</pdfrwt>
<totfact> 0.12779437E+08</totfact>
</mgrwt>
</event>
<event>
 4    1  0.7521660E+004  0.2494163E+02  0.7546771E-02  0.1661842E+00
         21   -1    0    0  501  502  0.00000000000E+00  0.00000000000E+00  0.13469975871E+01  0.13469975871E+01  0.00000000000E+00 0.  1.
         21   -1    0    0  502  503 -0.00000000000E+00 -0.00000000000E+00 -0.49315413099E+03  0.49315413099E+03  0.00000000000E+00 0.  1.
          2    1    1    2  501    0 -0.12107044470E+02 -0.21806062292E+02 -0.30821681792E+03  0.30922433884E+03  0.00000000000E+00 0. -1.
         -2    1    1    2    0  503  0.12107044470E+02  0.21806062292E+02 -0.18359031548E+03  0.18527678974E+03  0.00000000000E+00 0.  1.
<mgrwt>
<rscale>  2 0.24941629E+02</rscale>
<asrwt>0</asrwt>
<pdfrwt beam="1">  1       21 0.20723027E-03 0.24941629E+02</pdfrwt>
<pdfrwt beam="2">  1       21 0.75869913E-01 0.24941629E+02</pdfrwt>
<totfact> 0.51260357E+07</totfact>
</mgrwt>
</event>
<event>
 4    1  0.7521660E+004  0.2661318E+02  0.7546771E-02  0.1638857E+00
         21   -1    0    0  501  502  0.00000000000E+00  0.00000000000E+00  0.54582095602E+01  0.54582095602E+01  0.00000000000E+00 0. -1.
         21   -1    0    0  502  503 -0.00000000000E+00 -0.00000000000E+00 -0.20864463730E+03  0.20864463730E+03  0.00000000000E+00 0. -1.
          3    1    1    2  501    0 -0.46558936631E+01 -0.26202743717E+02 -0.35769390132E+02  0.44583745855E+02  0.00000000000E+00 0. -1.
         -3    1    1    2    0  503  0.46558936631E+01  0.26202743717E+02 -0.16741703760E+03  0.16951910100E+03  0.00000000000E+00 0.  1.
<mgrwt>
<rscale>  2 0.26613176E+02</rscale>
<asrwt>0</asrwt>
<pdfrwt beam="1">  1       21 0.83972464E-03 0.26613176E+02</pdfrwt>
<pdfrwt beam="2">  1       21 0.32099171E-01 0.26613176E+02</pdfrwt>
<totfact> 0.35486686E+07</totfact>
</mgrwt>
</event>
<event>
 4    1  0.7521660E+004  0.2784514E+02  0.7546771E-02  0.1623207E+00
         21   -1    0    0  503  502  0.00000000000E+00  0.00000000000E+00  0.17448780139E+03  0.17448780139E+03  0.00000000000E+00 0. -1.
         21   -1    0    0  501  503 -0.00000000000E+00 -0.00000000000E+00 -0.47299879304E+01  0.47299879304E+01  0.00000000000E+00 0. -1.
          1    1    1    2  501    0  0.24979374298E+02  0.12303768230E+02  0.10692886460E+03  0.11049494983E+03  0.00000000000E+00 0. -1.
         -1    1    1    2    0  502 -0.24979374298E+02 -0.12303768230E+02  0.62828948862E+02  0.68722839494E+02  0.00000000000E+00 0.  1.
<mgrwt>
<rscale>  2 0.27845141E+02</rscale>
<asrwt>0</asrwt>
<pdfrwt beam="1">  1       21 0.26844272E-01 0.27845141E+02</pdfrwt>
<pdfrwt beam="2">  1       21 0.72769059E-03 0.27845141E+02</pdfrwt>
<totfact> 0.61604472E+07</totfact>
</mgrwt>
</event>
<event>
 4    1  0.7521660E+004  0.2800463E+02  0.7546771E-02  0.1621253E+00
         21   -1    0    0  503  502  0.00000000000E+00  0.00000000000E+00  0.22610051524E+01  0.22610051524E+01  0.00000000000E+00 0. -1.
         21   -1    0    0  501  503 -0.00000000000E+00 -0.00000000000E+00 -0.34777810625E+03  0.34777810625E+03  0.00000000000E+00 0. -1.
          4    1    1    2  501    0 -0.12277966114E+01  0.27977703809E+02 -0.16378151528E+03  0.16615849103E+03  0.00000000000E+00 0.  1.
         -4    1    1    2    0  502  0.12277966114E+01 -0.27977703809E+02 -0.18173558583E+03  0.18388062038E+03  0.00000000000E+00 0. -1.
<mgrwt>
<rscale>  2 0.28004632E+02</rscale>
<asrwt>0</asrwt>
<pdfrwt beam="1">  1       21 0.34784709E-03 0.28004632E+02</pdfrwt>
<pdfrwt beam="2">  1       21 0.53504302E-01 0.28004632E+02</pdfrwt>
<totfact> 0.50135365E+07</totfact>
</mgrwt>
</event>
<event>
 4    1  0.7521660E+004  0.4066633E+02  0.7546771E-02  0.1503364E+00
         21   -1    0    0  503  502  0.00000000000E+00  0.00000000000E+00  0.73748552921E+02  0.73748552921E+02  0.00000000000E+00 0.  1.
         21   -1    0    0  501  503 -0.00000000000E+00 -0.00000000000E+00 -0.22684392169E+02  0.22684392169E+02  0.00000000000E+00 0.  1.
          4    1    1    2  501    0 -0.20910880256E+02  0.34878157315E+02  0.30696199850E+02  0.50951029980E+02  0.00000000000E+00 0. -1.
         -4    1    1    2    0  502  0.20910880256E+02 -0.34878157315E+02  0.20367960902E+02  0.45481915111E+02  0.00000000000E+00 0.  1.
<mgrwt>
<rscale>  2 0.40666335E+02</rscale>
<asrwt>0</asrwt>
<pdfrwt beam="1">  1       21 0.11345931E-01 0.40666335E+02</pdfrwt>
<pdfrwt beam="2">  1       21 0.34899065E-02 0.40666335E+02</pdfrwt>
<totfact> 0.26661618E+07</totfact>
</mgrwt>
</event>
<event>
 4    1  0.7521660E+004  0.4572861E+02  0.7546771E-02  0.1469844E+00
         21   -1    0    0  501  502  0.00000000000E+00  0.00000000000E+00  0.57729459051E+01  0.57729459051E+01  0.00000000000E+00 0.  1.
         21   -1    0    0  502  503 -0.00000000000E+00 -0.00000000000E+00 -0.38711026545E+03  0.38711026545E+03  0.00000000000E+00 0.  1.
          2    1    1    2  501    0  0.23434073079E+01  0.45668523372E+02 -0.14086206097E+03  0.14809870291E+03  0.00000000000E+00 0. -1.
         -2    1    1    2    0  503 -0.23434073079E+01 -0.45668523372E+02 -0.24047525857E+03  0.24478450844E+03  0.00000000000E+00 0.  1.
<mgrwt>
<rscale>  2 0.45728608E+02</rscale>
<asrwt>0</asrwt>
<pdfrwt beam="1">  1       21 0.88814532E-03 0.45728608E+02</pdfrwt>
<pdfrwt beam="2">  1       21 0.59555439E-01 0.45728608E+02</pdfrwt>
<totfact> 0.10706839E+07</totfact>
</mgrwt>
</event>
<event>
 4    1  0.7521660E+004  0.2605373E+02  0.7546771E-02  0.1646312E+00
         21   -1    0    0  501  502  0.00000000000E+00  0.00000000000E+00  0.28310596768E+01  0.28310596768E+01  0.00000000000E+00 0. -1.
         21   -1    0    0  502  503 -0.00000000000E+00 -0.00000000000E+00 -0.25163784071E+03  0.25163784071E+03  0.00000000000E+00 0. -1.
          4    1    1    2  501    0 -0.88729879861E+01  0.24496258586E+02 -0.15203747669E+03  0.15425365772E+03  0.00000000000E+00 0. -1.
         -4    1    1    2    0  503  0.88729879861E+01 -0.24496258586E+02 -0.96769304341E+02  0.10021524267E+03  0.00000000000E+00 0.  1.
<mgrwt>
<rscale>  2 0.26053725E+02</rscale>
<asrwt>0</asrwt>
<pdfrwt beam="1">  1       21 0.43554760E-03 0.26053725E+02</pdfrwt>
<pdfrwt beam="2">  1       21 0.38713518E-01 0.26053725E+02</pdfrwt>
<totfact> 0.66185485E+07</totfact>
</mgrwt>
</event>
<event>
 4    1  0.7521660E+004  0.2899961E+02  0.7546771E-02  0.1609417E+00
         21   -1    0    0  503  502  0.00000000000E+00  0.00000000000E+00  0.10265410435E+02  0.10265410435E+02  0.00000000000E+00 0.  1.
         21   -1    0    0  501  503 -0.00000000000E+00 -0.00000000000E+00 -0.16127606429E+03  0.16127606429E+03  0.00000000000E+00 0.  1.
          3    1    1    2  501    0  0.18712282353E+02  0.22154631394E+02 -0.13566908752E+03  0.13873384054E+03  0.00000000000E+00 0. -1.
         -3    1    1    2    0  502 -0.18712282353E+02 -0.22154631394E+02 -0.15341566335E+02  0.32807634183E+02  0.00000000000E+00 0.  1.
<mgrwt>
<rscale>  2 0.28999607E+02</rscale>
<asrwt>0</asrwt>
<pdfrwt beam="1">  1       21 0.15792941E-02 0.28999607E+02</pdfrwt>
<pdfrwt beam="2">  1       21 0.24811700E-01 0.28999607E+02</pdfrwt>
<totfact> 0.22123362E+07</totfact>
</mgrwt>
</event>
<event>
 4    1  0.7521660E+004  0.3381996E+02  0.7546771E-02  0.1559336E+00
         21   -1    0    0  503  502  0.00000000000E+00  0.00000000000E+00  0.18155871049E+01  0.18155871049E+01  0.00000000000E+00 0.  1.
         21   -1    0    0  501  503 -0.00000000000E+00 -0.00000000000E+00 -0.64437357695E+03  0.64437357695E+03  0.00000000000E+00 0.  1.
          4    1    1    2  501    0 -0.32524644942E+02  0.92702457656E+01 -0.36956172528E+03  0.37110599399E+03  0.00000000000E+00 0.  1.
         -4    1    1    2    0  502  0.32524644942E+02 -0.92702457656E+01 -0.27299626456E+03  0.27508317006E+03  0.00000000000E+00 0. -1.
<mgrwt>
<rscale>  2 0.33819964E+02</rscale>
<asrwt>0</asrwt>
<pdfrwt beam="1">  1       21 0.27932087E-03 0.33819964E+02</pdfrwt>
<pdfrwt beam="2">  1       21 0.99134476E-01 0.33819964E+02</pdfrwt>
<totfact> 0.19697067E+07</totfact>
</mgrwt>
</event>
<event>
 4    1  0.7521660E+004  0.3618001E+02  0.7546771E-02  0.1538365E+00
         21   -1    0    0  503  502  0.00000000000E+00  0.00000000000E+00  0.44356349153E+02  0.44356349153E+02  0.00000000000E+00 0.  1.
         21   -1    0    0  501  503 -0.00000000000E+00 -0.00000000000E+00 -0.30459560066E+02  0.30459560066E+02  0.00000000000E+00 0.  1.
          5    1    1    2  501    0 -0.21263948625E+02 -0.29271787674E+02  0.13550333314E+02  0.38634241259E+02  0.00000000000E+00 0. -1.
         -5    1    1    2    0  502  0.21263948625E+02  0.29271787674E+02  0.34645577352E+00  0.36181667960E+02  0.00000000000E+00 0.  1.
<mgrwt>
<rscale>  2 0.36180009E+02</rscale>
<asrwt>0</asrwt>
<pdfrwt beam="1">  1       21 0.68240537E-02 0.36180009E+02</pdfrwt>
<pdfrwt beam="2">  1       21 0.46860861E-02 0.36180009E+02</pdfrwt>
<totfact> 0.38090042E+07</totfact>
</mgrwt>
</event>
<event>
 4    1  0.7521660E+004  0.2196773E+02  0.7546771E-02  0.1708811E+00
         21   -1    0    0  503  502  0.00000000000E+00  0.00000000000E+00  0.72694848402E+02  0.72694848402E+02  0.00000000000E+00 0.  1.
         21   -1    0    0  501  503 -0.00000000000E+00 -0.00000000000E+00 -0.16942480572E+02  0.16942480572E+02  0.00000000000E+00 0.  1.
          1    1    1    2  501    0  0.20365727525E+02 -0.82351919933E+01  0.62828337908E+02  0.66558104608E+02  0.00000000000E+00 0.  1.
         -1    1    1    2    0  502 -0.20365727525E+02  0.82351919933E+01 -0.70759700777E+01  0.23079224366E+02  0.00000000000E+00 0. -1.
<mgrwt>
<rscale>  2 0.21967732E+02</rscale>
<asrwt>0</asrwt>
<pdfrwt beam="1">  1       21 0.11183823E-01 0.21967732E+02</pdfrwt>
<pdfrwt beam="2">  1       21 0.26065355E-02 0.21967732E+02</pdfrwt>
<totfact> 0.38053058E+07</totfact>
</mgrwt>
</event>
<event>
 4    1  0.7521660E+004  0.2141355E+02  0.7546771E-02  0.1718596E+00
         21   -1    0    0  503  502  0.00000000000E+00  0.00000000000E+00  0.49859598858E+01  0.49859598858E+01  0.00000000000E+00 0.  1.
         21   -1    0    0  501  503 -0.00000000000E+00 -0.00000000000E+00 -0.98874623176E+02  0.98874623176E+02  0.00000000000E+00 0.  1.
          3    1    1    2  501    0  0.15655305303E+02 -0.14609978146E+02 -0.60671032132E+02  0.64339056455E+02  0.00000000000E+00 0. -1.
         -3    1    1    2    0  502 -0.15655305303E+02  0.14609978146E+02 -0.33217631158E+02  0.39521526607E+02  0.00000000000E+00 0.  1.
<mgrwt>
<rscale>  2 0.21413548E+02</rscale>
<asrwt>0</asrwt>
<pdfrwt beam="1">  1       21 0.76707090E-03 0.21413548E+02</pdfrwt>
<pdfrwt beam="2">  1       21 0.15211478E-01 0.21413548E+02</pdfrwt>
<totfact> 0.14375054E+08</totfact>
</mgrwt>
</event>
<event>
 4    1  0.7521660E+004  0.2140135E+02  0.7546771E-02  0.1718816E+00
         21   -1    0    0  501  502  0.00000000000E+00  0.00000000000E+00  0.36037697778E+03  0.36037697778E+03  0.00000000000E+00 0.  1.
         21   -1    0    0  502  503 -0.00000000000E+00 -0.00000000000E+00 -0.28615676872E+01  0.28615676872E+01  0.00000000000E+00 0.  1.
          2    1    1    2  501    0 -0.20801942370E+02 -0.50296215040E+01  0.31416561808E+03  0.31489371776E+03  0.00000000000E+00 0. -1.
         -2    1    1    2    0  503  0.20801942370E+02  0.50296215040E+01  0.43349792012E+02  0.48344827710E+02  0.00000000000E+00 0.  1.
<mgrwt>
<rscale>  2 0.21401353E+02</rscale>
<asrwt>0</asrwt>
<pdfrwt beam="1">  1       21 0.55442576E-01 0.21401353E+02</pdfrwt>
<pdfrwt beam="2">  1       21 0.44024147E-03 0.21401353E+02</pdfrwt>
<totfact> 0.31189334E+07</totfact>
</mgrwt>
</event>
<event>
 4    1  0.7521660E+004  0.2498281E+02  0.7546771E-02  0.1661249E+00
         21   -1    0    0  503  502  0.00000000000E+00  0.00000000000E+00  0.11624436328E+02  0.11624436328E+02  0.00000000000E+00 0.  1.
         21   -1    0    0  501  503 -0.00000000000E+00 -0.00000000000E+00 -0.75331860816E+02  0.75331860816E+02  0.00000000000E+00 0.  1.
          2    1    1    2  501    0  0.14274386499E+02  0.20503236129E+02 -0.85509408836E+01  0.26405669688E+02  0.00000000000E+00 0. -1.
         -2    1    1    2    0  502 -0.14274386499E+02 -0.20503236129E+02 -0.55156483604E+02  0.60550627456E+02  0.00000000000E+00 0.  1.
<mgrwt>
<rscale>  2 0.24982810E+02</rscale>
<asrwt>0</asrwt>
<pdfrwt beam="1">  1       21 0.17883748E-02 0.24982810E+02</pdfrwt>
<pdfrwt beam="2">  1       21 0.11589517E-01 0.24982810E+02</pdfrwt>
<totfact> 0.66166444E+07</totfact>
</mgrwt>
</event>
<event>
 4    1  0.7521660E+004  0.4464922E+02  0.7546771E-02  0.1476543E+00
         21   -1    0    0  503  502  0.00000000000E+00  0.00000000000E+00  0.68056906332E+02  0.68056906332E+02  0.00000000000E+00 0. -1.
         21   -1    0    0  501  503 -0.00000000000E+00 -0.00000000000E+00 -0.34084337675E+02  0.34084337675E+02  0.00000000000E+00 0. -1.
          3    1    1    2  501    0  0.42407111703E+02 -0.13971017993E+02 -0.21627879133E+01  0.44701567292E+02  0.00000000000E+00 0.  1.
         -3    1    1    2    0  502 -0.42407111703E+02  0.13971017993E+02  0.36135356570E+02  0.57439676715E+02  0.00000000000E+00 0. -1.
<mgrwt>
<rscale>  2 0.44649216E+02</rscale>
<asrwt>0</asrwt>
<pdfrwt beam="1">  1       21 0.10470293E-01 0.44649216E+02</pdfrwt>
<pdfrwt beam="2">  1       21 0.52437443E-02 0.44649216E+02</pdfrwt>
<totfact> 0.16064771E+07</totfact>
</mgrwt>
</event>
<event>
 4    1  0.7521660E+004  0.2110915E+02  0.7546771E-02  0.1724130E+00
         21   -1    0    0  503  502  0.00000000000E+00  0.00000000000E+00  0.88067947627E+01  0.88067947627E+01  0.00000000000E+00 0. -1.
         21   -1    0    0  501  503 -0.00000000000E+00 -0.00000000000E+00 -0.53932275598E+02  0.53932275598E+02  0.00000000000E+00 0. -1.
          4    1    1    2  501    0 -0.21100781511E+02 -0.59441998999E+00 -0.30363871069E+02  0.36980548695E+02  0.00000000000E+00 0. -1.
         -4    1    1    2    0  502  0.21100781511E+02  0.59441998999E+00 -0.14761609767E+02  0.25758521666E+02  0.00000000000E+00 0.  1.
<mgrwt>
<rscale>  2 0.21109152E+02</rscale>
<asrwt>0</asrwt>
<pdfrwt beam="1">  1       21 0.13548915E-02 0.21109152E+02</pdfrwt>
<pdfrwt beam="2">  1       21 0.82972731E-02 0.21109152E+02</pdfrwt>
<totfact> 0.16712142E+08</totfact>
</mgrwt>
</event>
<event>
 4    1  0.7521660E+004  0.3141946E+02  0.7546771E-02  0.1582908E+00
         21   -1    0    0  501  502  0.00000000000E+00  0.00000000000E+00  0.27480906614E+03  0.27480906614E+03  0.00000000000E+00 0.  1.
         21   -1    0    0  502  503 -0.00000000000E+00 -0.00000000000E+00 -0.36117343128E+01  0.36117343128E+01  0.00000000000E+00 0.  1.
          5    1    1    2  501    0  0.28869589769E+02 -0.12398767222E+02  0.14582371703E+03  0.14917016823E+03  0.00000000000E+00 0.  1.
         -5    1    1    2    0  503 -0.28869589769E+02  0.12398767222E+02  0.12537361480E+03  0.12925063222E+03  0.00000000000E+00 0. -1.
<mgrwt>
<rscale>  2 0.31419463E+02</rscale>
<asrwt>0</asrwt>
<pdfrwt beam="1">  1       21 0.42278301E-01 0.31419463E+02</pdfrwt>
<pdfrwt beam="2">  1       21 0.55565165E-03 0.31419463E+02</pdfrwt>
<totfact> 0.40560634E+07</totfact>
</mgrwt>
</event>
<event>
 4    1  0.7521660E+004  0.2194671E+02  0.7546771E-02  0.1709175E+00
         21   -1    0    0  503  502  0.00000000000E+00  0.00000000000E+00  0.60492640955E+02  0.60492640955E+02  0.00000000000E+00 0. -1.
         21   -1    0    0  501  503 -0.00000000000E+00 -0.00000000000E+00 -0.80589764303E+01  0.80589764303E+01  0.00000000000E+00 0. -1.
          3    1    1    2  501    0  0.19482299542E+02  0.10104354290E+02  0.22461883672E+02  0.31403728905E+02  0.00000000000E+00 0.  1.
         -3    1    1    2    0  502 -0.19482299542E+02 -0.10104354290E+02  0.29971780853E+02  0.37147888480E+02  0.00000000000E+00 0. -1.
<mgrwt>
<rscale>  2 0.21946708E+02</rscale>
<asrwt>0</asrwt>
<pdfrwt beam="1">  1       21 0.93065599E-02 0.21946708E+02</pdfrwt>
<pdfrwt beam="2">  1       21 0.12398426E-02 0.21946708E+02</pdfrwt>
<totfact> 0.16026665E+08</totfact>
</mgrwt>
</event>
<event>
 4    1  0.7521660E+004  0.2329468E+02  0.7546771E-02  0.1686778E+00
         21   -1    0    0  503  502  0.00000000000E+00  0.00000000000E+00  0.21920686743E+02  0.21920686743E+02  0.00000000000E+00 0.  1.
         21   -1    0    0  501  503 -0.00000000000E+00 -0.00000000000E+00 -0.24850877054E+02  0.24850877054E+02  0.00000000000E+00 0.  1.
          4    1    1    2  501    0 -0.22900937409E+02  0.42648762860E+01 -0.10967792980E-01  0.23294682317E+02  0.00000000000E+00 0.  1.
         -4    1    1    2    0  502  0.22900937409E+02 -0.42648762860E+01 -0.29192225175E+01  0.23476881480E+02  0.00000000000E+00 0. -1.
<mgrwt>
<rscale>  2 0.23294680E+02</rscale>
<asrwt>0</asrwt>
<pdfrwt beam="1">  1       21 0.33724133E-02 0.23294680E+02</pdfrwt>
<pdfrwt beam="2">  1       21 0.38232119E-02 0.23294680E+02</pdfrwt>
<totfact> 0.14655337E+08</totfact>
</mgrwt>
</event>
<event>
 4    1  0.7521660E+004  0.2211493E+02  0.7546771E-02  0.1706272E+00
         21   -1    0    0  503  502  0.00000000000E+00  0.00000000000E+00  0.70181042418E+01  0.70181042418E+01  0.00000000000E+00 0. -1.
         21   -1    0    0  501  503 -0.00000000000E+00 -0.00000000000E+00 -0.85153744924E+02  0.85153744924E+02  0.00000000000E+00 0. -1.
          5    1    1    2  501    0 -0.16886579766E+02 -0.14279830250E+02 -0.58708969546E+02  0.62736060071E+02  0.00000000000E+00 0.  1.
         -5    1    1    2    0  502  0.16886579766E+02  0.14279830250E+02 -0.19426671136E+02  0.29435789094E+02  0.00000000000E+00 0. -1.
<mgrwt>
<rscale>  2 0.22114930E+02</rscale>
<asrwt>0</asrwt>
<pdfrwt beam="1">  1       21 0.10797084E-02 0.22114930E+02</pdfrwt>
<pdfrwt beam="2">  1       21 0.13100576E-01 0.22114930E+02</pdfrwt>
<totfact> 0.11205571E+08</totfact>
</mgrwt>
</event>
<event>
 4    1  0.7521660E+004  0.2135378E+02  0.7546771E-02  0.1719674E+00
         21   -1    0    0  503  502  0.00000000000E+00  0.00000000000E+00  0.21049822533E+02  0.21049822533E+02  0.00000000000E+00 0.  1.
         21   -1    0    0  501  503 -0.00000000000E+00 -0.00000000000E+00 -0.21664234237E+02  0.21664234237E+02  0.00000000000E+00 0.  1.
          4    1    1    2  501    0  0.16682951090E+02  0.13329037670E+02 -0.96984874918E-01  0.21354004504E+02  0.00000000000E+00 0. -1.
         -4    1    1    2    0  502 -0.16682951090E+02 -0.13329037670E+02 -0.51742682860E+00  0.21360052266E+02  0.00000000000E+00 0.  1.
<mgrwt>
<rscale>  2 0.21353784E+02</rscale>
<asrwt>0</asrwt>
<pdfrwt beam="1">  1       21 0.32384342E-02 0.21353784E+02</pdfrwt>
<pdfrwt beam="2">  1       21 0.33329591E-02 0.21353784E+02</pdfrwt>
<totfact> 0.18840816E+08</totfact>
</mgrwt>
</event>
<event>
 4    1  0.7521660E+004  0.3528315E+02  0.7546771E-02  0.1546100E+00
         21   -1    0    0  501  502  0.00000000000E+00  0.00000000000E+00  0.22439155649E+01  0.22439155649E+01  0.00000000000E+00 0.  1.
         21   -1    0    0  502  503 -0.00000000000E+00 -0.00000000000E+00 -0.56377404642E+03  0.56377404642E+03  0.00000000000E+00 0.  1.
          5    1    1    2  501    0 -0.31884816466E+02 -0.15108241707E+02 -0.31649227104E+03  0.31845291350E+03  0.00000000000E+00 0. -1.
         -5    1    1    2    0  503  0.31884816466E+02  0.15108241707E+02 -0.24503785981E+03  0.24756504848E+03  0.00000000000E+00 0.  1.
<mgrwt>
<rscale>  2 0.35283147E+02</rscale>
<asrwt>0</asrwt>
<pdfrwt beam="1">  1       21 0.34521758E-03 0.35283147E+02</pdfrwt>
<pdfrwt beam="2">  1       21 0.86734519E-01 0.35283147E+02</pdfrwt>
<totfact> 0.19431711E+07</totfact>
</mgrwt>
</event>
<event>
 4    1  0.7521660E+004  0.2011923E+02  0.7546771E-02  0.1742967E+00
         21   -1    0    0  503  502  0.00000000000E+00  0.00000000000E+00  0.74312600799E+00  0.74312600799E+00  0.00000000000E+00 0.  1.
         21   -1    0    0  501  503 -0.00000000000E+00 -0.00000000000E+00 -0.54485184503E+03  0.54485184503E+03  0.00000000000E+00 0.  1.
          3    1    1    2  501    0 -0.10071420267E+01  0.20094004739E+02 -0.27655516605E+03  0.27728603144E+03  0.00000000000E+00 0. -1.
         -3    1    1    2    0  502  0.10071420267E+01 -0.20094004739E+02 -0.26755355298E+03  0.26830893961E+03  0.00000000000E+00 0.  1.
<mgrwt>
<rscale>  2 0.20119229E+02</rscale>
<asrwt>0</asrwt>
<pdfrwt beam="1">  1       21 0.11432707E-03 0.20119229E+02</pdfrwt>
<pdfrwt beam="2">  1       21 0.83823364E-01 0.20119229E+02</pdfrwt>
<totfact> 0.92770665E+07</totfact>
</mgrwt>
</event>
<event>
 4    1  0.7521660E+004  0.2535996E+02  0.7546771E-02  0.1655885E+00
         21   -1    0    0  503  502  0.00000000000E+00  0.00000000000E+00  0.52389518140E+03  0.52389518140E+03  0.00000000000E+00 0. -1.
         21   -1    0    0  501  503 -0.00000000000E+00 -0.00000000000E+00 -0.12964503584E+01  0.12964503584E+01  0.00000000000E+00 0. -1.
          2    1    1    2  501    0  0.21380551400E+02  0.13638169909E+02  0.32181944444E+03  0.32281710375E+03  0.00000000000E+00 0.  1.
         -2    1    1    2    0  502 -0.21380551400E+02 -0.13638169909E+02  0.20077928660E+03  0.20237452800E+03  0.00000000000E+00 0. -1.
<mgrwt>
<rscale>  2 0.25359962E+02</rscale>
<asrwt>0</asrwt>
<pdfrwt beam="1">  1       21 0.80599090E-01 0.25359962E+02</pdfrwt>
<pdfrwt beam="2">  1       21 0.19945432E-03 0.25359962E+02</pdfrwt>
<totfact> 0.47893805E+07</totfact>
</mgrwt>
</event>
<event>
 4    1  0.7521660E+004  0.2613625E+02  0.7546771E-02  0.1645198E+00
         21   -1    0    0  503  502  0.00000000000E+00  0.00000000000E+00  0.25339097966E+03  0.25339097966E+03  0.00000000000E+00 0.  1.
         21   -1    0    0  501  503 -0.00000000000E+00 -0.00000000000E+00 -0.30121393782E+01  0.30121393782E+01  0.00000000000E+00 0.  1.
          5    1    1    2  501    0  0.11348928604E+02 -0.23543694686E+02  0.16673252782E+03  0.16876859771E+03  0.00000000000E+00 0.  1.
         -5    1    1    2    0  502 -0.11348928604E+02  0.23543694686E+02  0.83646312466E+02  0.87634521332E+02  0.00000000000E+00 0. -1.
<mgrwt>
<rscale>  2 0.26136253E+02</rscale>
<asrwt>0</asrwt>
<pdfrwt beam="1">  1       21 0.38983211E-01 0.26136253E+02</pdfrwt>
<pdfrwt beam="2">  1       21 0.46340626E-03 0.26136253E+02</pdfrwt>
<totfact> 0.59650371E+07</totfact>
</mgrwt>
</event>
<event>
 4    1  0.7521660E+004  0.2675894E+02  0.7546771E-02  0.1636951E+00
         21   -1    0    0  503  502  0.00000000000E+00  0.00000000000E+00  0.22593342282E+02  0.22593342282E+02  0.00000000000E+00 0. -1.
         21   -1    0    0  501  503 -0.00000000000E+00 -0.00000000000E+00 -0.31694934693E+02  0.31694934693E+02  0.00000000000E+00 0. -1.
          1    1    1    2  501    0 -0.26758880638E+02 -0.55270866739E-01 -0.47859876365E+01  0.27183569036E+02  0.00000000000E+00 0.  1.
         -1    1    1    2    0  502  0.26758880638E+02  0.55270866739E-01 -0.43156047739E+01  0.27104707939E+02  0.00000000000E+00 0. -1.
<mgrwt>
<rscale>  2 0.26758938E+02</rscale>
<asrwt>0</asrwt>
<pdfrwt beam="1">  1       21 0.34758988E-02 0.26758938E+02</pdfrwt>
<pdfrwt beam="2">  1       21 0.48761438E-02 0.26758938E+02</pdfrwt>
<totfact> 0.98770894E+07</totfact>
</mgrwt>
</event>
<event>
 4    1  0.7521660E+004  0.3193812E+02  0.7546771E-02  0.1577603E+00
         21   -1    0    0  501  502  0.00000000000E+00  0.00000000000E+00  0.18765599677E+03  0.18765599677E+03  0.00000000000E+00 0. -1.
         21   -1    0    0  502  503 -0.00000000000E+00 -0.00000000000E+00 -0.61335964716E+01  0.61335964716E+01  0.00000000000E+00 0. -1.
          3    1    1    2  501    0 -0.31686481587E+02 -0.40012918229E+01  0.12344521920E+03  0.12750986470E+03  0.00000000000E+00 0. -1.
         -3    1    1    2    0  503  0.31686481587E+02  0.40012918229E+01  0.58077181094E+02  0.66279728541E+02  0.00000000000E+00 0.  1.
<mgrwt>
<rscale>  2 0.31938119E+02</rscale>
<asrwt>0</asrwt>
<pdfrwt beam="1">  1       21 0.28870149E-01 0.31938119E+02</pdfrwt>
<pdfrwt beam="2">  1       21 0.94363037E-03 0.31938119E+02</pdfrwt>
<totfact> 0.37534379E+07</totfact>
</mgrwt>
</event>
<event>
 4    1  0.7521660E+004  0.2699149E+02  0.7546771E-02  0.1633942E+00
         21   -1    0    0  503  502  0.00000000000E+00  0.00000000000E+00  0.88158812971E+01  0.88158812971E+01  0.00000000000E+00 0. -1.
         21   -1    0    0  501  503 -0.00000000000E+00 -0.00000000000E+00 -0.11316825771E+03  0.11316825771E+03  0.00000000000E+00 0. -1.
          3    1    1    2  501    0  0.12123246956E+02 -0.24115709486E+02 -0.83854730308E+02  0.88091749647E+02  0.00000000000E+00 0. -1.
         -3    1    1    2    0  502 -0.12123246956E+02  0.24115709486E+02 -0.20497646106E+02  0.33892389362E+02  0.00000000000E+00 0.  1.
<mgrwt>
<rscale>  2 0.26991491E+02</rscale>
<asrwt>0</asrwt>
<pdfrwt beam="1">  1       21 0.13562895E-02 0.26991491E+02</pdfrwt>
<pdfrwt beam="2">  1       21 0.17410501E-01 0.26991491E+02</pdfrwt>
<totfact> 0.51404406E+07</totfact>
</mgrwt>
</event>
<event>
 4    1  0.7521660E+004  0.2291186E+02  0.7546771E-02  0.1692943E+00
         21   -1    0    0  503  502  0.00000000000E+00  0.00000000000E+00  0.11333498850E+01  0.11333498850E+01  0.00000000000E+00 0.  1.
         21   -1    0    0  501  503 -0.00000000000E+00 -0.00000000000E+00 -0.49609268972E+03  0.49609268972E+03  0.00000000000E+00 0.  1.
          3    1    1    2  501    0  0.14988721534E+02  0.17328928014E+02 -0.18345099104E+03  0.18487622787E+03  0.00000000000E+00 0. -1.
         -3    1    1    2    0  502 -0.14988721534E+02 -0.17328928014E+02 -0.31150834880E+03  0.31234981173E+03  0.00000000000E+00 0.  1.
<mgrwt>
<rscale>  2 0.22911864E+02</rscale>
<asrwt>0</asrwt>
<pdfrwt beam="1">  1       21 0.17436136E-03 0.22911864E+02</pdfrwt>
<pdfrwt beam="2">  1       21 0.76322022E-01 0.22911864E+02</pdfrwt>
<totfact> 0.63738942E+07</totfact>
</mgrwt>
</event>
<event>
 4    1  0.7521660E+004  0.2581991E+02  0.7546771E-02  0.1649497E+00
         21   -1    0    0  503  502  0.00000000000E+00  0.00000000000E+00  0.12943893603E+01  0.12943893603E+01  0.00000000000E+00 0.  1.
         21   -1    0    0  501  503 -0.00000000000E+00 -0.00000000000E+00 -0.51715770508E+03  0.51715770508E+03  0.00000000000E+00 0.  1.
          2    1    1    2  501    0  0.11939629505E+02 -0.22893512156E+02 -0.27450366900E+03  0.27571530960E+03  0.00000000000E+00 0. -1.
         -2    1    1    2    0  502 -0.11939629505E+02  0.22893512156E+02 -0.24135964672E+03  0.24273678484E+03  0.00000000000E+00 0.  1.
<mgrwt>
<rscale>  2 0.25819908E+02</rscale>
<asrwt>0</asrwt>
<pdfrwt beam="1">  1       21 0.19913663E-03 0.25819908E+02</pdfrwt>
<pdfrwt beam="2">  1       21 0.79562802E-01 0.25819908E+02</pdfrwt>
<totfact> 0.49517221E+07</totfact>
</mgrwt>
</event>
<event>
 4    1  0.7521660E+004  0.3449077E+02  0.7546771E-02  0.1553170E+00
         21   -1    0    0  501  502  0.00000000000E+00  0.00000000000E+00  0.26111240259E+02  0.26111240259E+02  0.00000000000E+00 0. -1.
         21   -1    0    0  502  503 -0.00000000000E+00 -0.00000000000E+00 -0.48669784755E+02  0.48669784755E+02  0.00000000000E+00 0. -1.
          2    1    1    2  501    0 -0.33892630600E+02  0.63955108112E+01 -0.20731569063E+02  0.40241905066E+02  0.00000000000E+00 0. -1.
         -2    1    1    2    0  503  0.33892630600E+02 -0.63955108112E+01 -0.18269754335E+01  0.34539119948E+02  0.00000000000E+00 0.  1.
<mgrwt>
<rscale>  2 0.34490766E+02</rscale>
<asrwt>0</asrwt>
<pdfrwt beam="1">  1       21 0.40171139E-02 0.34490766E+02</pdfrwt>
<pdfrwt beam="2">  1       21 0.74876591E-02 0.34490766E+02</pdfrwt>
<totfact> 0.41472940E+07</totfact>
</mgrwt>
</event>
<event>
 4    1  0.7521660E+004  0.2065592E+02  0.7546771E-02  0.1732590E+00
         21   -1    0    0  503  502  0.00000000000E+00  0.00000000000E+00  0.26759283528E+02  0.26759283528E+02  0.00000000000E+00 0.  1.
         21   -1    0    0  501  503 -0.00000000000E+00 -0.00000000000E+00 -0.20764038186E+02  0.20764038186E+02  0.00000000000E+00 0.  1.
          4    1    1    2  501    0 -0.19192710623E+02  0.76359071207E+01 -0.84500488787E+01  0.22317494139E+02  0.00000000000E+00 0. -1.
         -4    1    1    2    0  502  0.19192710623E+02 -0.76359071207E+01  0.14445294220E+02  0.25205827574E+02  0.00000000000E+00 0.  1.
<mgrwt>
<rscale>  2 0.20655925E+02</rscale>
<asrwt>0</asrwt>
<pdfrwt beam="1">  1       21 0.41168129E-02 0.20655925E+02</pdfrwt>
<pdfrwt beam="2">  1       21 0.31944674E-02 0.20655925E+02</pdfrwt>
<totfact> 0.13685582E+08</totfact>
</mgrwt>
</event>
<event>
 4    1  0.7521660E+004  0.3095951E+02  0.7546771E-02  0.1587718E+00
         21   -1    0    0  501  502  0.00000000000E+00  0.00000000000E+00  0.41739135456E+02  0.41739135456E+02  0.00000000000E+00 0. -1.
         21   -1    0    0  502  503 -0.00000000000E+00 -0.00000000000E+00 -0.25151045342E+02  0.25151045342E+02  0.00000000000E+00 0. -1.
          1    1    1    2  501    0  0.29680884920E+02 -0.88054670666E+01  0.18156801236E+02  0.35890954445E+02  0.00000000000E+00 0. -1.
         -1    1    1    2    0  503 -0.29680884920E+02  0.88054670666E+01 -0.15687111230E+01  0.30999226353E+02  0.00000000000E+00 0.  1.
<mgrwt>
<rscale>  2 0.30959509E+02</rscale>
<asrwt>0</asrwt>
<pdfrwt beam="1">  1       21 0.64214054E-02 0.30959509E+02</pdfrwt>
<pdfrwt beam="2">  1       21 0.38693916E-02 0.30959509E+02</pdfrwt>
<totfact> 0.55366137E+07</totfact>
</mgrwt>
</event>
<event>
 4    1  0.7521660E+004  0.3578692E+02  0.7546771E-02  0.1541722E+00
         21   -1    0    0  501  502  0.00000000000E+00  0.00000000000E+00  0.27006326463E+03  0.27006326463E+03  0.00000000000E+00 0.  1.
         21   -1    0    0  502  503 -0.00000000000E+00 -0.00000000000E+00 -0.54639936623E+01  0.54639936623E+01  0.00000000000E+00 0.  1.
          2    1    1    2  501    0  0.29233959800E+02 -0.20641682673E+02  0.18236939208E+03  0.18584751447E+03  0.00000000000E+00 0. -1.
         -2    1    1    2    0  503 -0.29233959800E+02  0.20641682673E+02  0.82229878889E+02  0.89679743818E+02  0.00000000000E+00 0.  1.
<mgrwt>
<rscale>  2 0.35786918E+02</rscale>
<asrwt>0</asrwt>
<pdfrwt beam="1">  1       21 0.41548184E-01 0.35786918E+02</pdfrwt>
<pdfrwt beam="2">  1       21 0.84061462E-03 0.35786918E+02</pdfrwt>
<totfact> 0.23025400E+07</totfact>
</mgrwt>
</event>
<event>
 4    1  0.7521660E+004  0.3389494E+02  0.7546771E-02  0.1558639E+00
         21   -1    0    0  501  502  0.00000000000E+00  0.00000000000E+00  0.68257266870E+00  0.68257266870E+00  0.00000000000E+00 0. -1.
         21   -1    0    0  502  503 -0.00000000000E+00 -0.00000000000E+00 -0.17962066957E+04  0.17962066957E+04  0.00000000000E+00 0. -1.
          4    1    1    2  501    0  0.58262177841E-01 -0.33894891701E+02 -0.11231733621E+04  0.11236846837E+04  0.00000000000E+00 0. -1.
         -4    1    1    2    0  503 -0.58262177841E-01  0.33894891701E+02 -0.67235076094E+03  0.67320458466E+03  0.00000000000E+00 0.  1.
<mgrwt>
<rscale>  2 0.33894942E+02</rscale>
<asrwt>0</asrwt>
<pdfrwt beam="1">  1       21 0.10500911E-03 0.33894942E+02</pdfrwt>
<pdfrwt beam="2">  1       21 0.27634494E+00 0.33894942E+02</pdfrwt>
<totfact> 0.59484062E+06</totfact>
</mgrwt>
</event>
<event>
 4    1  0.7521660E+004  0.2136276E+02  0.7546771E-02  0.1719512E+00
         21   -1    0    0  501  502  0.00000000000E+00  0.00000000000E+00  0.24376015013E+02  0.24376015013E+02  0.00000000000E+00 0. -1.
         21   -1    0    0  502  503 -0.00000000000E+00 -0.00000000000E+00 -0.20374411014E+02  0.20374411014E+02  0.00000000000E+00 0. -1.
          2    1    1    2  501    0 -0.18987144945E+02  0.97906008754E+01  0.83729351704E+01  0.22945012138E+02  0.00000000000E+00 0.  1.
         -2    1    1    2    0  503  0.18987144945E+02 -0.97906008754E+01 -0.43713311722E+01  0.21805413889E+02  0.00000000000E+00 0. -1.
<mgrwt>
<rscale>  2 0.21362761E+02</rscale>
<asrwt>0</asrwt>
<pdfrwt beam="1">  1       21 0.37501561E-02 0.21362761E+02</pdfrwt>
<pdfrwt beam="2">  1       21 0.31345248E-02 0.21362761E+02</pdfrwt>
<totfact> 0.16487156E+08</totfact>
</mgrwt>
</event>
<event>
 4    1  0.7521660E+004  0.2425396E+02  0.7546771E-02  0.1671955E+00
         21   -1    0    0  503  502  0.00000000000E+00  0.00000000000E+00  0.15088131715E+03  0.15088131715E+03  0.00000000000E+00 0. -1.
         21   -1    0    0  501  503 -0.00000000000E+00 -0.00000000000E+00 -0.40167238029E+01  0.40167238029E+01  0.00000000000E+00 0. -1.
          4    1    1    2  501    0  0.24229305613E+02  0.10933057251E+01  0.60161434845E+02  0.64866422828E+02  0.00000000000E+00 0. -1.
         -4    1    1    2    0  502 -0.24229305613E+02 -0.10933057251E+01  0.86703158507E+02  0.90031618129E+02  0.00000000000E+00 0.  1.
<mgrwt>
<rscale>  2 0.24253960E+02</rscale>
<asrwt>0</asrwt>
<pdfrwt beam="1">  1       21 0.23212506E-01 0.24253960E+02</pdfrwt>
<pdfrwt beam="2">  1       21 0.61795763E-03 0.24253960E+02</pdfrwt>
<totfact> 0.98640444E+07</totfact>
</mgrwt>
</event>
<event>
 4    1  0.7521660E+004  0.2026066E+02  0.7546771E-02  0.1740194E+00
         21   -1    0    0  501  502  0.00000000000E+00  0.00000000000E+00  0.40053286279E+00  0.40053286279E+00  0.00000000000E+00 0. -1.
         21   -1    0    0  502  503 -0.00000000000E+00 -0.00000000000E+00 -0.15050671600E+04  0.15050671600E+04  0.00000000000E+00 0. -1.
          3    1    1    2  501    0 -0.19442973166E+02 -0.56978219285E+01 -0.32715314600E+03  0.32777991903E+03  0.00000000000E+00 0. -1.
         -3    1    1    2    0  503  0.19442973166E+02  0.56978219285E+01 -0.11775134811E+04  0.11776877738E+04  0.00000000000E+00 0.  1.
<mgrwt>
<rscale>  2 0.20260661E+02</rscale>
<asrwt>0</asrwt>
<pdfrwt beam="1">  1       21 0.61619846E-04 0.20260661E+02</pdfrwt>
<pdfrwt beam="2">  1       21 0.23155103E+00 0.20260661E+02</pdfrwt>
<totfact> 0.20614525E+07</totfact>
</mgrwt>
</event>
<event>
 4    1  0.7521660E+004  0.4605063E+02  0.7546771E-02  0.1467887E+00
         21   -1    0    0  503  502  0.00000000000E+00  0.00000000000E+00  0.26576222390E+01  0.26576222390E+01  0.00000000000E+00 0. -1.
         21   -1    0    0  501  503 -0.00000000000E+00 -0.00000000000E+00 -0.84911944490E+03  0.84911944490E+03  0.00000000000E+00 0. -1.
          5    1    1    2  501    0 -0.46038001100E+02  0.10782189648E+01 -0.52777518328E+03  0.52978043017E+03  0.00000000000E+00 0.  1.
         -5    1    1    2    0  502  0.46038001100E+02 -0.10782189648E+01 -0.31868663938E+03  0.32199663697E+03  0.00000000000E+00 0. -1.
<mgrwt>
<rscale>  2 0.46050625E+02</rscale>
<asrwt>0</asrwt>
<pdfrwt beam="1">  1       21 0.40886525E-03 0.46050625E+02</pdfrwt>
<pdfrwt beam="2">  1       21 0.13063367E+00 0.46050625E+02</pdfrwt>
<totfact> 0.61345653E+06</totfact>
</mgrwt>
</event>
<event>
 4    1  0.7521660E+004  0.2180997E+02  0.7546771E-02  0.1711559E+00
         21   -1    0    0  501  502  0.00000000000E+00  0.00000000000E+00  0.42349904575E+00  0.42349904575E+00  0.00000000000E+00 0.  1.
         21   -1    0    0  502  503 -0.00000000000E+00 -0.00000000000E+00 -0.11319701129E+04  0.11319701129E+04  0.00000000000E+00 0.  1.
          1    1    1    2  501    0 -0.18450883290E+02  0.11629254795E+02 -0.61560680305E+03  0.61599302806E+03  0.00000000000E+00 0. -1.
         -1    1    1    2    0  503  0.18450883290E+02 -0.11629254795E+02 -0.51593981077E+03  0.51640058385E+03  0.00000000000E+00 0.  1.
<mgrwt>
<rscale>  2 0.21809967E+02</rscale>
<asrwt>0</asrwt>
<pdfrwt beam="1">  1       21 0.65153366E-04 0.21809967E+02</pdfrwt>
<pdfrwt beam="2">  1       21 0.17415014E+00 0.21809967E+02</pdfrwt>
<totfact> 0.40062669E+07</totfact>
</mgrwt>
</event>
<event>
 4    1  0.7521660E+004  0.2489993E+02  0.7546771E-02  0.1662443E+00
         21   -1    0    0  503  502  0.00000000000E+00  0.00000000000E+00  0.15213078786E+02  0.15213078786E+02  0.00000000000E+00 0.  1.
         21   -1    0    0  501  503 -0.00000000000E+00 -0.00000000000E+00 -0.64180106719E+02  0.64180106719E+02  0.00000000000E+00 0.  1.
          4    1    1    2  501    0  0.21615647237E+02  0.12360031323E+02 -0.50096753352E+00  0.24904970353E+02  0.00000000000E+00 0.  1.
         -4    1    1    2    0  502 -0.21615647237E+02 -0.12360031323E+02 -0.48466060400E+02  0.54488215152E+02  0.00000000000E+00 0. -1.
<mgrwt>
<rscale>  2 0.24899931E+02</rscale>
<asrwt>0</asrwt>
<pdfrwt beam="1">  1       21 0.23404737E-02 0.24899931E+02</pdfrwt>
<pdfrwt beam="2">  1       21 0.98738625E-02 0.24899931E+02</pdfrwt>
<totfact> 0.57057262E+07</totfact>
</mgrwt>
</event>
<event>
 4    1  0.7521660E+004  0.2587041E+02  0.7546771E-02  0.1648806E+00
         21   -1    0    0  501  502  0.00000000000E+00  0.00000000000E+00  0.13262659350E+02  0.13262659350E+02  0.00000000000E+00 0.  1.
         21   -1    0    0  502  503 -0.00000000000E+00 -0.00000000000E+00 -0.52167584389E+02  0.52167584389E+02  0.00000000000E+00 0.  1.
          1    1    1    2  501    0 -0.38872186523E+01 -0.25576704379E+02 -0.25365522881E+02  0.36231036789E+02  0.00000000000E+00 0. -1.
         -1    1    1    2    0  503  0.38872186523E+01  0.25576704379E+02 -0.13539402158E+02  0.29199206951E+02  0.00000000000E+00 0.  1.
<mgrwt>
<rscale>  2 0.25870413E+02</rscale>
<asrwt>0</asrwt>
<pdfrwt beam="1">  1       21 0.20404091E-02 0.25870413E+02</pdfrwt>
<pdfrwt beam="2">  1       21 0.80257823E-02 0.25870413E+02</pdfrwt>
<totfact> 0.10021883E+08</totfact>
</mgrwt>
</event>
<event>
 4    1  0.7521660E+004  0.2277841E+02  0.7546771E-02  0.1695127E+00
         21   -1    0    0  503  502  0.00000000000E+00  0.00000000000E+00  0.58831672731E+02  0.58831672731E+02  0.00000000000E+00 0.  1.
         21   -1    0    0  501  503 -0.00000000000E+00 -0.00000000000E+00 -0.88918466424E+01  0.88918466424E+01  0.00000000000E+00 0.  1.
          5    1    1    2  501    0 -0.52027967922E+01 -0.22176266456E+02  0.21911931768E+02  0.31606781585E+02  0.00000000000E+00 0.  1.
         -5    1    1    2    0  502  0.52027967922E+01  0.22176266456E+02  0.28027894321E+02  0.36116737788E+02  0.00000000000E+00 0. -1.
<mgrwt>
<rscale>  2 0.22778408E+02</rscale>
<asrwt>0</asrwt>
<pdfrwt beam="1">  1       21 0.90510263E-02 0.22778408E+02</pdfrwt>
<pdfrwt beam="2">  1       21 0.13679764E-02 0.22778408E+02</pdfrwt>
<totfact> 0.14622891E+08</totfact>
</mgrwt>
</event>
<event>
 4    1  0.7521660E+004  0.2366527E+02  0.7546771E-02  0.1680948E+00
         21   -1    0    0  501  502  0.00000000000E+00  0.00000000000E+00  0.21785570070E+02  0.21785570070E+02  0.00000000000E+00 0. -1.
         21   -1    0    0  502  503 -0.00000000000E+00 -0.00000000000E+00 -0.25796219306E+02  0.25796219306E+02  0.00000000000E+00 0. -1.
          5    1    1    2  501    0  0.10344179136E+02  0.21284801676E+02 -0.34033247447E+01  0.23908731537E+02  0.00000000000E+00 0.  1.
         -5    1    1    2    0  503 -0.10344179136E+02 -0.21284801676E+02 -0.60732449157E+00  0.23673057839E+02  0.00000000000E+00 0. -1.
<mgrwt>
<rscale>  2 0.23665266E+02</rscale>
<asrwt>0</asrwt>
<pdfrwt beam="1">  1       21 0.33516262E-02 0.23665266E+02</pdfrwt>
<pdfrwt beam="2">  1       21 0.39686491E-02 0.23665266E+02</pdfrwt>
<totfact> 0.14019350E+08</totfact>
</mgrwt>
</event>
<event>
 4    1  0.7521660E+004  0.2940475E+02  0.7546771E-02  0.1604763E+00
         21   -1    0    0  501  502  0.00000000000E+00  0.00000000000E+00  0.14614293318E+03  0.14614293318E+03  0.00000000000E+00 0. -1.
         21   -1    0    0  502  503 -0.00000000000E+00 -0.00000000000E+00 -0.60299164825E+01  0.60299164825E+01  0.00000000000E+00 0. -1.
          5    1    1    2  501    0  0.28056524066E+02  0.88017419151E+01  0.59616710944E+02  0.66473990607E+02  0.00000000000E+00 0.  1.
         -5    1    1    2    0  503 -0.28056524066E+02 -0.88017419151E+01  0.80496305752E+02  0.85698859054E+02  0.00000000000E+00 0. -1.
<mgrwt>
<rscale>  2 0.29404748E+02</rscale>
<asrwt>0</asrwt>
<pdfrwt beam="1">  1       21 0.22483526E-01 0.29404748E+02</pdfrwt>
<pdfrwt beam="2">  1       21 0.92767957E-03 0.29404748E+02</pdfrwt>
<totfact> 0.59514496E+07</totfact>
</mgrwt>
</event>
<event>
 4    1  0.7521660E+004  0.2395366E+02  0.7546771E-02  0.1676502E+00
         21   -1    0    0  501  502  0.00000000000E+00  0.00000000000E+00  0.72363968403E+00  0.72363968403E+00  0.00000000000E+00 0.  1.
         21   -1    0    0  502  503 -0.00000000000E+00 -0.00000000000E+00 -0.91114009779E+03  0.91114009779E+03  0.00000000000E+00 0.  1.
          1    1    1    2  501    0  0.97055478611E+01  0.21899315193E+02 -0.61944871373E+03  0.61991167646E+03  0.00000000000E+00 0. -1.
         -1    1    1    2    0  503 -0.97055478611E+01 -0.21899315193E+02 -0.29096774438E+03  0.29195206102E+03  0.00000000000E+00 0.  1.
<mgrwt>
<rscale>  2 0.23953657E+02</rscale>
<asrwt>0</asrwt>
<pdfrwt beam="1">  1       21 0.11132940E-03 0.23953657E+02</pdfrwt>
<pdfrwt beam="2">  1       21 0.14017512E+00 0.23953657E+02</pdfrwt>
<totfact> 0.32038935E+07</totfact>
</mgrwt>
</event>
<event>
 4    1  0.7521660E+004  0.2540406E+02  0.7546771E-02  0.1655265E+00
         21   -1    0    0  501  502  0.00000000000E+00  0.00000000000E+00  0.94786852552E+01  0.94786852552E+01  0.00000000000E+00 0.  1.
         21   -1    0    0  502  503 -0.00000000000E+00 -0.00000000000E+00 -0.10413239300E+03  0.10413239300E+03  0.00000000000E+00 0.  1.
          4    1    1    2  501    0  0.10776522290E+02  0.23005064545E+02 -0.80748531574E+02  0.84650409206E+02  0.00000000000E+00 0. -1.
         -4    1    1    2    0  503 -0.10776522290E+02 -0.23005064545E+02 -0.13905176169E+02  0.28960669048E+02  0.00000000000E+00 0.  1.
<mgrwt>
<rscale>  2 0.25404063E+02</rscale>
<asrwt>0</asrwt>
<pdfrwt beam="1">  1       21 0.14582592E-02 0.25404063E+02</pdfrwt>
<pdfrwt beam="2">  1       21 0.16020369E-01 0.25404063E+02</pdfrwt>
<totfact> 0.52393712E+07</totfact>
</mgrwt>
</event>
<event>
 4    1  0.7521660E+004  0.2193408E+02  0.7546771E-02  0.1709395E+00
         21   -1    0    0  501  502  0.00000000000E+00  0.00000000000E+00  0.75502066484E+01  0.75502066484E+01  0.00000000000E+00 0.  1.
         21   -1    0    0  502  503 -0.00000000000E+00 -0.00000000000E+00 -0.64228026787E+02  0.64228026787E+02  0.00000000000E+00 0.  1.
          3    1    1    2  501    0 -0.36062612707E+01  0.21635589651E+02 -0.25149003340E+02  0.33370289614E+02  0.00000000000E+00 0. -1.
         -3    1    1    2    0  503  0.36062612707E+01 -0.21635589651E+02 -0.31528816798E+02  0.38407943821E+02  0.00000000000E+00 0.  1.
<mgrwt>
<rscale>  2 0.21934080E+02</rscale>
<asrwt>0</asrwt>
<pdfrwt beam="1">  1       21 0.11615702E-02 0.21934080E+02</pdfrwt>
<pdfrwt beam="2">  1       21 0.98812349E-02 0.21934080E+02</pdfrwt>
<totfact> 0.16017907E+08</totfact>
</mgrwt>
</event>
<event>
 4    1  0.7521660E+004  0.2065756E+02  0.7546771E-02  0.1732559E+00
         21   -1    0    0  503  502  0.00000000000E+00  0.00000000000E+00  0.20207664674E+03  0.20207664674E+03  0.00000000000E+00 0.  1.
         21   -1    0    0  501  503 -0.00000000000E+00 -0.00000000000E+00 -0.21605316437E+01  0.21605316437E+01  0.00000000000E+00 0.  1.
          3    1    1    2  501    0  0.50070760996E+01 -0.20041559917E+02  0.11530288609E+03  0.11713876589E+03  0.00000000000E+00 0. -1.
         -3    1    1    2    0  502 -0.50070760996E+01  0.20041559917E+02  0.84613229006E+02  0.87098412488E+02  0.00000000000E+00 0.  1.
<mgrwt>
<rscale>  2 0.20657564E+02</rscale>
<asrwt>0</asrwt>
<pdfrwt beam="1">  1       21 0.31088700E-01 0.20657564E+02</pdfrwt>
<pdfrwt beam="2">  1       21 0.33238964E-03 0.20657564E+02</pdfrwt>
<totfact> 0.13891952E+08</totfact>
</mgrwt>
</event>
<event>
 4    1  0.7521660E+004  0.3372070E+02  0.7546771E-02  0.1560264E+00
         21   -1    0    0  501  502  0.00000000000E+00  0.00000000000E+00  0.42526178742E+01  0.42526178742E+01  0.00000000000E+00 0.  1.
         21   -1    0    0  502  503 -0.00000000000E+00 -0.00000000000E+00 -0.27195207682E+03  0.27195207682E+03  0.00000000000E+00 0.  1.
          2    1    1    2  501    0  0.14048456132E+02 -0.30654956527E+02 -0.11595263939E+03  0.12075636655E+03  0.00000000000E+00 0.  1.
         -2    1    1    2    0  503 -0.14048456132E+02  0.30654956527E+02 -0.15174681955E+03  0.15544832815E+03  0.00000000000E+00 0. -1.
<mgrwt>
<rscale>  2 0.33720698E+02</rscale>
<asrwt>0</asrwt>
<pdfrwt beam="1">  1       21 0.65424870E-03 0.33720698E+02</pdfrwt>
<pdfrwt beam="2">  1       21 0.41838794E-01 0.33720698E+02</pdfrwt>
<totfact> 0.32828568E+07</totfact>
</mgrwt>
</event>
<event>
 4    1  0.7521660E+004  0.2106552E+02  0.7546771E-02  0.1724933E+00
         21   -1    0    0  503  502  0.00000000000E+00  0.00000000000E+00  0.28698921554E+02  0.28698921554E+02  0.00000000000E+00 0. -1.
         21   -1    0    0  501  503 -0.00000000000E+00 -0.00000000000E+00 -0.18562844727E+02  0.18562844727E+02  0.00000000000E+00 0. -1.
          1    1    1    2  501    0 -0.21024045129E+02 -0.13211757005E+01  0.14725552571E+02  0.25702098695E+02  0.00000000000E+00 0. -1.
         -1    1    1    2    0  502  0.21024045129E+02  0.13211757005E+01 -0.45894757451E+01  0.21559667586E+02  0.00000000000E+00 0.  1.
<mgrwt>
<rscale>  2 0.21065516E+02</rscale>
<asrwt>0</asrwt>
<pdfrwt beam="1">  1       21 0.44152187E-02 0.21065516E+02</pdfrwt>
<pdfrwt beam="2">  1       21 0.28558223E-02 0.21065516E+02</pdfrwt>
<totfact> 0.14674815E+08</totfact>
</mgrwt>
</event>
<event>
 4    1  0.7521660E+004  0.2656445E+02  0.7546771E-02  0.1639497E+00
         21   -1    0    0  503  502  0.00000000000E+00  0.00000000000E+00  0.33939526980E+01  0.33939526980E+01  0.00000000000E+00 0.  1.
         21   -1    0    0  501  503 -0.00000000000E+00 -0.00000000000E+00 -0.25451355219E+03  0.25451355219E+03  0.00000000000E+00 0.  1.
          3    1    1    2  501    0  0.15375424246E+02  0.21662556319E+02 -0.70384804926E+02  0.75230916394E+02  0.00000000000E+00 0.  1.
         -3    1    1    2    0  502 -0.15375424246E+02 -0.21662556319E+02 -0.18073479457E+03  0.18267658850E+03  0.00000000000E+00 0. -1.
<mgrwt>
<rscale>  2 0.26564450E+02</rscale>
<asrwt>0</asrwt>
<pdfrwt beam="1">  1       21 0.52214659E-03 0.26564450E+02</pdfrwt>
<pdfrwt beam="2">  1       21 0.39155929E-01 0.26564450E+02</pdfrwt>
<totfact> 0.49750679E+07</totfact>
</mgrwt>
</event>
<event>
 4    1  0.7521660E+004  0.2338358E+02  0.7546771E-02  0.1685367E+00
         21   -1    0    0  501  502  0.00000000000E+00  0.00000000000E+00  0.12987342462E+03  0.12987342462E+03  0.00000000000E+00 0. -1.
         21   -1    0    0  502  503 -0.00000000000E+00 -0.00000000000E+00 -0.46173010170E+01  0.46173010170E+01  0.00000000000E+00 0. -1.
          2    1    1    2  501    0  0.63647435032E+01 -0.22500706884E+02  0.42660512256E+02  0.48648854828E+02  0.00000000000E+00 0.  1.
         -2    1    1    2    0  503 -0.63647435032E+01  0.22500706884E+02  0.82595611344E+02  0.85841870806E+02  0.00000000000E+00 0. -1.
<mgrwt>
<rscale>  2 0.23383579E+02</rscale>
<asrwt>0</asrwt>
<pdfrwt beam="1">  1       21 0.19980524E-01 0.23383579E+02</pdfrwt>
<pdfrwt beam="2">  1       21 0.71035410E-03 0.23383579E+02</pdfrwt>
<totfact> 0.10334934E+08</totfact>
</mgrwt>
</event>
<event>
 4    1  0.7521660E+004  0.2859289E+02  0.7546771E-02  0.1614184E+00
         21   -1    0    0  501  502  0.00000000000E+00  0.00000000000E+00  0.11497299695E+03  0.11497299695E+03  0.00000000000E+00 0. -1.
         21   -1    0    0  502  503 -0.00000000000E+00 -0.00000000000E+00 -0.18445001161E+02  0.18445001161E+02  0.00000000000E+00 0. -1.
          5    1    1    2  501    0 -0.28495854109E+02 -0.23536652396E+01 -0.40285693178E+01  0.28875297612E+02  0.00000000000E+00 0. -1.
         -5    1    1    2    0  503  0.28495854109E+02  0.23536652396E+01  0.10055656510E+03  0.10454270050E+03  0.00000000000E+00 0.  1.
<mgrwt>
<rscale>  2 0.28592891E+02</rscale>
<asrwt>0</asrwt>
<pdfrwt beam="1">  1       21 0.17688153E-01 0.28592891E+02</pdfrwt>
<pdfrwt beam="2">  1       21 0.28376926E-02 0.28592891E+02</pdfrwt>
<totfact> 0.16188001E+07</totfact>
</mgrwt>
</event>
<event>
 4    1  0.7521660E+004  0.2439164E+02  0.7546771E-02  0.1669897E+00
         21   -1    0    0  503  502  0.00000000000E+00  0.00000000000E+00  0.18609713374E+02  0.18609713374E+02  0.00000000000E+00 0.  1.
         21   -1    0    0  501  503 -0.00000000000E+00 -0.00000000000E+00 -0.41491711414E+02  0.41491711414E+02  0.00000000000E+00 0.  1.
          1    1    1    2  501    0 -0.43154110051E+01 -0.24006857922E+02  0.29546836005E+01  0.24569944131E+02  0.00000000000E+00 0. -1.
         -1    1    1    2    0  502  0.43154110051E+01  0.24006857922E+02 -0.25836681641E+02  0.35531480657E+02  0.00000000000E+00 0.  1.
<mgrwt>
<rscale>  2 0.24391638E+02</rscale>
<asrwt>0</asrwt>
<pdfrwt beam="1">  1       21 0.28630329E-02 0.24391638E+02</pdfrwt>
<pdfrwt beam="2">  1       21 0.63833401E-02 0.24391638E+02</pdfrwt>
<totfact> 0.84740028E+07</totfact>
</mgrwt>
</event>
<event>
 4    1  0.7521660E+004  0.4023244E+02  0.7546771E-02  0.1506508E+00
         21   -1    0    0  503  502  0.00000000000E+00  0.00000000000E+00  0.21594738469E+03  0.21594738469E+03  0.00000000000E+00 0. -1.
         21   -1    0    0  501  503 -0.00000000000E+00 -0.00000000000E+00 -0.80196022701E+01  0.80196022701E+01  0.00000000000E+00 0. -1.
          5    1    1    2  501    0 -0.31457225198E+02  0.25081711162E+02  0.75338223416E+02  0.85407828444E+02  0.00000000000E+00 0.  1.
         -5    1    1    2    0  502  0.31457225198E+02 -0.25081711162E+02  0.13258955901E+03  0.13855915852E+03  0.00000000000E+00 0. -1.
<mgrwt>
<rscale>  2 0.40232440E+02</rscale>
<asrwt>0</asrwt>
<pdfrwt beam="1">  1       21 0.33222670E-01 0.40232440E+02</pdfrwt>
<pdfrwt beam="2">  1       21 0.12337851E-02 0.40232440E+02</pdfrwt>
<totfact> 0.19975207E+07</totfact>
</mgrwt>
</event>
<event>
 4    1  0.7521660E+004  0.2090394E+02  0.7546771E-02  0.1727927E+00
         21   -1    0    0  503  502  0.00000000000E+00  0.00000000000E+00  0.11469223312E+02  0.11469223312E+02  0.00000000000E+00 0. -1.
         21   -1    0    0  501  503 -0.00000000000E+00 -0.00000000000E+00 -0.40650657919E+02  0.40650657919E+02  0.00000000000E+00 0. -1.
          5    1    1    2  501    0  0.18758756203E+02  0.92240925674E+01 -0.80626448394E+01  0.22404933827E+02  0.00000000000E+00 0.  1.
         -5    1    1    2    0  502 -0.18758756203E+02 -0.92240925674E+01 -0.21118789768E+02  0.29714947404E+02  0.00000000000E+00 0. -1.
<mgrwt>
<rscale>  2 0.20903943E+02</rscale>
<asrwt>0</asrwt>
<pdfrwt beam="1">  1       21 0.17644959E-02 0.20903943E+02</pdfrwt>
<pdfrwt beam="2">  1       21 0.62539475E-02 0.20903943E+02</pdfrwt>
<totfact> 0.17626753E+08</totfact>
</mgrwt>
</event>
<event>
 4    1  0.7521660E+004  0.3411532E+02  0.7546771E-02  0.1556600E+00
         21   -1    0    0  503  502  0.00000000000E+00  0.00000000000E+00  0.37356439284E+01  0.37356439284E+01  0.00000000000E+00 0.  1.
         21   -1    0    0  501  503 -0.00000000000E+00 -0.00000000000E+00 -0.33759238985E+03  0.33759238985E+03  0.00000000000E+00 0.  1.
          1    1    1    2  501    0 -0.32043986350E+02  0.11706335827E+02 -0.11953130557E+03  0.12430441815E+03  0.00000000000E+00 0. -1.
         -1    1    1    2    0  502  0.32043986350E+02 -0.11706335827E+02 -0.21432544035E+03  0.21702361563E+03  0.00000000000E+00 0.  1.
<mgrwt>
<rscale>  2 0.34115324E+02</rscale>
<asrwt>0</asrwt>
<pdfrwt beam="1">  1       21 0.57471422E-03 0.34115324E+02</pdfrwt>
<pdfrwt beam="2">  1       21 0.51937312E-01 0.34115324E+02</pdfrwt>
<totfact> 0.26182852E+07</totfact>
</mgrwt>
</event>
<event>
 4    1  0.7521660E+004  0.4056946E+02  0.7546771E-02  0.1504062E+00
         21   -1    0    0  503  502  0.00000000000E+00  0.00000000000E+00  0.60907259087E+02  0.60907259087E+02  0.00000000000E+00 0.  1.
         21   -1    0    0  501  503 -0.00000000000E+00 -0.00000000000E+00 -0.37607753871E+02  0.37607753871E+02  0.00000000000E+00 0.  1.
          3    1    1    2  501    0 -0.33782524105E+02 -0.22463791673E+02 -0.14482659187E+02  0.43077004171E+02  0.00000000000E+00 0.  1.
         -3    1    1    2    0  502  0.33782524105E+02  0.22463791673E+02  0.37782164404E+02  0.55438008787E+02  0.00000000000E+00 0. -1.
<mgrwt>
<rscale>  2 0.40569457E+02</rscale>
<asrwt>0</asrwt>
<pdfrwt beam="1">  1       21 0.93703475E-02 0.40569457E+02</pdfrwt>
<pdfrwt beam="2">  1       21 0.57858083E-02 0.40569457E+02</pdfrwt>
<totfact> 0.16270014E+07</totfact>
</mgrwt>
</event>
<event>
 4    1  0.7521660E+004  0.3420534E+02  0.7546771E-02  0.1555773E+00
         21   -1    0    0  503  502  0.00000000000E+00  0.00000000000E+00  0.73455864454E+02  0.73455864454E+02  0.00000000000E+00 0. -1.
         21   -1    0    0  501  503 -0.00000000000E+00 -0.00000000000E+00 -0.15928396123E+02  0.15928396123E+02  0.00000000000E+00 0. -1.
          4    1    1    2  501    0 -0.33136523376E+02 -0.84838552086E+01  0.28540751287E+02  0.44548619111E+02  0.00000000000E+00 0.  1.
         -4    1    1    2    0  502  0.33136523376E+02  0.84838552086E+01  0.28986717044E+02  0.44835641466E+02  0.00000000000E+00 0. -1.
<mgrwt>
<rscale>  2 0.34205336E+02</rscale>
<asrwt>0</asrwt>
<pdfrwt beam="1">  1       21 0.11300902E-01 0.34205336E+02</pdfrwt>
<pdfrwt beam="2">  1       21 0.24505225E-02 0.34205336E+02</pdfrwt>
<totfact> 0.45497931E+07</totfact>
</mgrwt>
</event>
<event>
 4    1  0.7521660E+004  0.2568994E+02  0.7546771E-02  0.1651285E+00
         21   -1    0    0  503  502  0.00000000000E+00  0.00000000000E+00  0.56836810983E+01  0.56836810983E+01  0.00000000000E+00 0. -1.
         21   -1    0    0  501  503 -0.00000000000E+00 -0.00000000000E+00 -0.11753080953E+03  0.11753080953E+03  0.00000000000E+00 0. -1.
          5    1    1    2  501    0  0.27010998962E+01  0.25547547236E+02 -0.62680057016E+02  0.67740406390E+02  0.00000000000E+00 0. -1.
         -5    1    1    2    0  502 -0.27010998962E+01 -0.25547547236E+02 -0.49167071415E+02  0.55474084237E+02  0.00000000000E+00 0.  1.
<mgrwt>
<rscale>  2 0.25689942E+02</rscale>
<asrwt>0</asrwt>
<pdfrwt beam="1">  1       21 0.87441247E-03 0.25689942E+02</pdfrwt>
<pdfrwt beam="2">  1       21 0.18081663E-01 0.25689942E+02</pdfrwt>
<totfact> 0.92401241E+07</totfact>
</mgrwt>
</event>
<event>
 4    1  0.7521660E+004  0.2972610E+02  0.7546771E-02  0.1601136E+00
         21   -1    0    0  503  502  0.00000000000E+00  0.00000000000E+00  0.14813079480E+03  0.14813079480E+03  0.00000000000E+00 0.  1.
         21   -1    0    0  501  503 -0.00000000000E+00 -0.00000000000E+00 -0.60394259788E+01  0.60394259788E+01  0.00000000000E+00 0.  1.
          5    1    1    2  501    0  0.29505866226E+02 -0.36117674343E+01  0.79587094110E+02  0.84957321960E+02  0.00000000000E+00 0.  1.
         -5    1    1    2    0  502 -0.29505866226E+02  0.36117674343E+01  0.62504274714E+02  0.69212898822E+02  0.00000000000E+00 0. -1.
<mgrwt>
<rscale>  2 0.29726100E+02</rscale>
<asrwt>0</asrwt>
<pdfrwt beam="1">  1       21 0.22789350E-01 0.29726100E+02</pdfrwt>
<pdfrwt beam="2">  1       21 0.92914257E-03 0.29726100E+02</pdfrwt>
<totfact> 0.58096115E+07</totfact>
</mgrwt>
</event>
<event>
 4    1  0.7521660E+004  0.2425270E+02  0.7546771E-02  0.1671974E+00
         21   -1    0    0  501  502  0.00000000000E+00  0.00000000000E+00  0.50309548805E+03  0.50309548805E+03  0.00000000000E+00 0.  1.
         21   -1    0    0  502  503 -0.00000000000E+00 -0.00000000000E+00 -0.11693391335E+01  0.11693391335E+01  0.00000000000E+00 0.  1.
          5    1    1    2  501    0  0.11046490892E+02  0.21590937330E+02  0.24774716862E+03  0.24893142247E+03  0.00000000000E+00 0. -1.
         -5    1    1    2    0  503 -0.11046490892E+02 -0.21590937330E+02  0.25417898030E+03  0.25533340471E+03  0.00000000000E+00 0.  1.
<mgrwt>
<rscale>  2 0.24252702E+02</rscale>
<asrwt>0</asrwt>
<pdfrwt beam="1">  1       21 0.77399133E-01 0.24252702E+02</pdfrwt>
<pdfrwt beam="2">  1       21 0.17989873E-03 0.24252702E+02</pdfrwt>
<totfact> 0.59956132E+07</totfact>
</mgrwt>
</event>
<event>
 4    1  0.7521660E+004  0.2082883E+02  0.7546771E-02  0.1729331E+00
         21   -1    0    0  501  502  0.00000000000E+00  0.00000000000E+00  0.36055324775E+02  0.36055324775E+02  0.00000000000E+00 0. -1.
         21   -1    0    0  502  503 -0.00000000000E+00 -0.00000000000E+00 -0.12583868798E+02  0.12583868798E+02  0.00000000000E+00 0. -1.
          1    1    1    2  501    0 -0.31146849729E+01  0.20594631178E+02  0.16825780938E+02  0.26775865999E+02  0.00000000000E+00 0. -1.
         -1    1    1    2    0  503  0.31146849729E+01 -0.20594631178E+02  0.66456750399E+01  0.21863327574E+02  0.00000000000E+00 0.  1.
<mgrwt>
<rscale>  2 0.20828828E+02</rscale>
<asrwt>0</asrwt>
<pdfrwt beam="1">  1       21 0.55469730E-02 0.20828828E+02</pdfrwt>
<pdfrwt beam="2">  1       21 0.19359798E-02 0.20828828E+02</pdfrwt>
<totfact> 0.18515511E+08</totfact>
</mgrwt>
</event>
<event>
 4    1  0.7521660E+004  0.2384435E+02  0.7546771E-02  0.1678178E+00
         21   -1    0    0  503  502  0.00000000000E+00  0.00000000000E+00  0.18654239636E+03  0.18654239636E+03  0.00000000000E+00 0. -1.
         21   -1    0    0  501  503 -0.00000000000E+00 -0.00000000000E+00 -0.31661142356E+01  0.31661142356E+01  0.00000000000E+00 0. -1.
          3    1    1    2  501    0  0.15033565195E+02 -0.18507970435E+02  0.11002065904E+03  0.11257485717E+03  0.00000000000E+00 0.  1.
         -3    1    1    2    0  502 -0.15033565195E+02  0.18507970435E+02  0.73355623085E+02  0.77133653422E+02  0.00000000000E+00 0. -1.
<mgrwt>
<rscale>  2 0.23844351E+02</rscale>
<asrwt>0</asrwt>
<pdfrwt beam="1">  1       21 0.28698822E-01 0.23844351E+02</pdfrwt>
<pdfrwt beam="2">  1       21 0.48709464E-03 0.23844351E+02</pdfrwt>
<totfact> 0.95477301E+07</totfact>
</mgrwt>
</event>
<event>
 4    1  0.7521660E+004  0.2006235E+02  0.7546771E-02  0.1744091E+00
         21   -1    0    0  501  502  0.00000000000E+00  0.00000000000E+00  0.14325350331E+02  0.14325350331E+02  0.00000000000E+00 0.  1.
         21   -1    0    0  502  503 -0.00000000000E+00 -0.00000000000E+00 -0.37884915198E+02  0.37884915198E+02  0.00000000000E+00 0.  1.
          4    1    1    2  501    0  0.13717805539E+02  0.14639661487E+02  0.14892774644E+01  0.20117550165E+02  0.00000000000E+00 0. -1.
         -4    1    1    2    0  503 -0.13717805539E+02 -0.14639661487E+02 -0.25048842331E+02  0.32092715363E+02  0.00000000000E+00 0.  1.
<mgrwt>
<rscale>  2 0.20062350E+02</rscale>
<asrwt>0</asrwt>
<pdfrwt beam="1">  1       21 0.22039001E-02 0.20062350E+02</pdfrwt>
<pdfrwt beam="2">  1       21 0.58284485E-02 0.20062350E+02</pdfrwt>
<totfact> 0.13867769E+08</totfact>
</mgrwt>
</event>
<event>
 4    1  0.7521660E+004  0.2048495E+02  0.7546771E-02  0.1735853E+00
         21   -1    0    0  503  502  0.00000000000E+00  0.00000000000E+00  0.17147061104E+02  0.17147061104E+02  0.00000000000E+00 0. -1.
         21   -1    0    0  501  503 -0.00000000000E+00 -0.00000000000E+00 -0.26196267747E+02  0.26196267747E+02  0.00000000000E+00 0. -1.
          2    1    1    2  501    0  0.11384583783E+02 -0.17030107144E+02 -0.10083625182E+02  0.22832275271E+02  0.00000000000E+00 0.  1.
         -2    1    1    2    0  502 -0.11384583783E+02  0.17030107144E+02  0.10344185386E+01  0.20511053580E+02  0.00000000000E+00 0. -1.
<mgrwt>
<rscale>  2 0.20484953E+02</rscale>
<asrwt>0</asrwt>
<pdfrwt beam="1">  1       21 0.26380094E-02 0.20484953E+02</pdfrwt>
<pdfrwt beam="2">  1       21 0.40301950E-02 0.20484953E+02</pdfrwt>
<totfact> 0.18981968E+08</totfact>
</mgrwt>
</event>
<event>
 4    1  0.7521660E+004  0.2020770E+02  0.7546771E-02  0.1741229E+00
         21   -1    0    0  503  502  0.00000000000E+00  0.00000000000E+00  0.15276643916E+02  0.15276643916E+02  0.00000000000E+00 0. -1.
         21   -1    0    0  501  503 -0.00000000000E+00 -0.00000000000E+00 -0.29175278558E+02  0.29175278558E+02  0.00000000000E+00 0. -1.
          5    1    1    2  501    0  0.16751654420E+02 -0.11301907171E+02 -0.13383307025E+02  0.24237655382E+02  0.00000000000E+00 0. -1.
         -5    1    1    2    0  502 -0.16751654420E+02  0.11301907171E+02 -0.51532761696E+00  0.20214267092E+02  0.00000000000E+00 0.  1.
<mgrwt>
<rscale>  2 0.20207697E+02</rscale>
<asrwt>0</asrwt>
<pdfrwt beam="1">  1       21 0.23502529E-02 0.20207697E+02</pdfrwt>
<pdfrwt beam="2">  1       21 0.44885043E-02 0.20207697E+02</pdfrwt>
<totfact> 0.19057887E+08</totfact>
</mgrwt>
</event>
<event>
 4    1  0.7521660E+004  0.2105782E+02  0.7546771E-02  0.1725075E+00
         21   -1    0    0  501  502  0.00000000000E+00  0.00000000000E+00  0.31706446010E+01  0.31706446010E+01  0.00000000000E+00 0.  1.
         21   -1    0    0  502  503 -0.00000000000E+00 -0.00000000000E+00 -0.14937106699E+03  0.14937106699E+03  0.00000000000E+00 0.  1.
          2    1    1    2  501    0  0.53663135408E+01 -0.20362572993E+02 -0.92350865368E+02  0.94721243837E+02  0.00000000000E+00 0.  1.
         -2    1    1    2    0  503 -0.53663135408E+01  0.20362572993E+02 -0.53849557023E+02  0.57820467756E+02  0.00000000000E+00 0. -1.
<mgrwt>
<rscale>  2 0.21057818E+02</rscale>
<asrwt>0</asrwt>
<pdfrwt beam="1">  1       21 0.48779149E-03 0.21057818E+02</pdfrwt>
<pdfrwt beam="2">  1       21 0.22980163E-01 0.21057818E+02</pdfrwt>
<totfact> 0.13687476E+08</totfact>
</mgrwt>
</event>
<event>
 4    1  0.7521660E+004  0.3253043E+02  0.7546771E-02  0.1571692E+00
         21   -1    0    0  501  502  0.00000000000E+00  0.00000000000E+00  0.25332805666E+02  0.25332805666E+02  0.00000000000E+00 0.  1.
         21   -1    0    0  502  503 -0.00000000000E+00 -0.00000000000E+00 -0.52618020719E+02  0.52618020719E+02  0.00000000000E+00 0.  1.
          5    1    1    2  501    0  0.32502850906E+02  0.13391624664E+01 -0.31337078182E+02  0.45169028571E+02  0.00000000000E+00 0.  1.
         -5    1    1    2    0  503 -0.32502850906E+02 -0.13391624664E+01  0.40518631287E+01  0.32781797814E+02  0.00000000000E+00 0. -1.
<mgrwt>
<rscale>  2 0.32530427E+02</rscale>
<asrwt>0</asrwt>
<pdfrwt beam="1">  1       21 0.38973547E-02 0.32530427E+02</pdfrwt>
<pdfrwt beam="2">  1       21 0.80950801E-02 0.32530427E+02</pdfrwt>
<totfact> 0.37807038E+07</totfact>
</mgrwt>
</event>
<event>
 4    1  0.7521660E+004  0.2813841E+02  0.7546771E-02  0.1619627E+00
         21   -1    0    0  503  502  0.00000000000E+00  0.00000000000E+00  0.17173139710E+04  0.17173139710E+04  0.00000000000E+00 0.  1.
         21   -1    0    0  501  503 -0.00000000000E+00 -0.00000000000E+00 -0.61592020376E+00  0.61592020376E+00  0.00000000000E+00 0.  1.
          3    1    1    2  501    0  0.17631493041E+02 -0.21929445708E+02  0.42762897897E+03  0.42855374668E+03  0.00000000000E+00 0.  1.
         -3    1    1    2    0  502 -0.17631493041E+02  0.21929445708E+02  0.12890690719E+04  0.12893761446E+04  0.00000000000E+00 0. -1.
<mgrwt>
<rscale>  2 0.28138410E+02</rscale>
<asrwt>0</asrwt>
<pdfrwt beam="1">  1       21 0.26419832E+00 0.28138410E+02</pdfrwt>
<pdfrwt beam="2">  1       21 0.94758329E-04 0.28138410E+02</pdfrwt>
<totfact> 0.78994985E+06</totfact>
</mgrwt>
</event>
<event>
 4    1  0.7521660E+004  0.2310741E+02  0.7546771E-02  0.1689775E+00
         21   -1    0    0  501  502  0.00000000000E+00  0.00000000000E+00  0.54361315539E+03  0.54361315539E+03  0.00000000000E+00 0. -1.
         21   -1    0    0  502  503 -0.00000000000E+00 -0.00000000000E+00 -0.10236203276E+01  0.10236203276E+01  0.00000000000E+00 0. -1.
          5    1    1    2  501    0  0.26802440500E+01 -0.22951437493E+02  0.21653441969E+03  0.21776387924E+03  0.00000000000E+00 0. -1.
         -5    1    1    2    0  503 -0.26802440500E+01  0.22951437493E+02  0.32605511538E+03  0.32687289648E+03  0.00000000000E+00 0.  1.
<mgrwt>
<rscale>  2 0.23107406E+02</rscale>
<asrwt>0</asrwt>
<pdfrwt beam="1">  1       21 0.83632563E-01 0.23107406E+02</pdfrwt>
<pdfrwt beam="2">  1       21 0.15748048E-03 0.23107406E+02</pdfrwt>
<totfact> 0.61030522E+07</totfact>
</mgrwt>
</event>
<event>
 4    1  0.7521660E+004  0.2455693E+02  0.7546771E-02  0.1667449E+00
         21   -1    0    0  501  502  0.00000000000E+00  0.00000000000E+00  0.60328629965E+01  0.60328629965E+01  0.00000000000E+00 0. -1.
         21   -1    0    0  502  503 -0.00000000000E+00 -0.00000000000E+00 -0.10464278562E+03  0.10464278562E+03  0.00000000000E+00 0. -1.
          1    1    1    2  501    0  0.40765299890E+01 -0.24216209361E+02 -0.37598229860E+02  0.44907346628E+02  0.00000000000E+00 0. -1.
         -1    1    1    2    0  503 -0.40765299890E+01  0.24216209361E+02 -0.61011692767E+02  0.65768301992E+02  0.00000000000E+00 0.  1.
<mgrwt>
<rscale>  2 0.24556932E+02</rscale>
<asrwt>0</asrwt>
<pdfrwt beam="1">  1       21 0.92813286E-03 0.24556932E+02</pdfrwt>
<pdfrwt beam="2">  1       21 0.16098889E-01 0.24556932E+02</pdfrwt>
<totfact> 0.10205995E+08</totfact>
</mgrwt>
</event>
<event>
 4    1  0.7521660E+004  0.2196974E+02  0.7546771E-02  0.1708776E+00
         21   -1    0    0  503  502  0.00000000000E+00  0.00000000000E+00  0.16689723415E+04  0.16689723415E+04  0.00000000000E+00 0.  1.
         21   -1    0    0  501  503 -0.00000000000E+00 -0.00000000000E+00 -0.46442577016E+00  0.46442577016E+00  0.00000000000E+00 0.  1.
          2    1    1    2  501    0  0.15547637321E+02  0.15522256747E+02  0.32153565327E+03  0.32228534842E+03  0.00000000000E+00 0. -1.
         -2    1    1    2    0  502 -0.15547637321E+02 -0.15522256747E+02  0.13469722624E+04  0.13471514188E+04  0.00000000000E+00 0.  1.
<mgrwt>
<rscale>  2 0.21969740E+02</rscale>
<asrwt>0</asrwt>
<pdfrwt beam="1">  1       21 0.25676017E+00 0.21969740E+02</pdfrwt>
<pdfrwt beam="2">  1       21 0.71451454E-04 0.21969740E+02</pdfrwt>
<totfact> 0.12652851E+07</totfact>
</mgrwt>
</event>
<event>
 4    1  0.7521660E+004  0.2494727E+02  0.7546771E-02  0.1661760E+00
         21   -1    0    0  503  502  0.00000000000E+00  0.00000000000E+00  0.27009523250E+03  0.27009523250E+03  0.00000000000E+00 0. -1.
         21   -1    0    0  501  503 -0.00000000000E+00 -0.00000000000E+00 -0.30357280640E+01  0.30357280640E+01  0.00000000000E+00 0. -1.
          5    1    1    2  501    0 -0.15460728351E+02 -0.19578866690E+02  0.20056620621E+03  0.20211177407E+03  0.00000000000E+00 0.  1.
         -5    1    1    2    0  502  0.15460728351E+02  0.19578866690E+02  0.66493298217E+02  0.71019186491E+02  0.00000000000E+00 0. -1.
<mgrwt>
<rscale>  2 0.24947267E+02</rscale>
<asrwt>0</asrwt>
<pdfrwt beam="1">  1       21 0.41553094E-01 0.24947267E+02</pdfrwt>
<pdfrwt beam="2">  1       21 0.46703530E-03 0.24947267E+02</pdfrwt>
<totfact> 0.51704144E+07</totfact>
</mgrwt>
</event>
<event>
 4    1  0.7521660E+004  0.3875975E+02  0.7546771E-02  0.1517542E+00
         21   -1    0    0  501  502  0.00000000000E+00  0.00000000000E+00  0.73190994177E+01  0.73190994177E+01  0.00000000000E+00 0. -1.
         21   -1    0    0  502  503 -0.00000000000E+00 -0.00000000000E+00 -0.21530919927E+03  0.21530919927E+03  0.00000000000E+00 0. -1.
          5    1    1    2  501    0 -0.21892868116E+02  0.31984694911E+02 -0.12804336760E+03  0.13378124820E+03  0.00000000000E+00 0. -1.
         -5    1    1    2    0  503  0.21892868116E+02 -0.31984694911E+02 -0.79946732243E+02  0.88847050481E+02  0.00000000000E+00 0.  1.
<mgrwt>
<rscale>  2 0.38759752E+02</rscale>
<asrwt>0</asrwt>
<pdfrwt beam="1">  1       21 0.11260155E-02 0.38759752E+02</pdfrwt>
<pdfrwt beam="2">  1       21 0.33124486E-01 0.38759752E+02</pdfrwt>
<totfact> 0.22981013E+07</totfact>
</mgrwt>
</event>
<event>
 4    1  0.7521660E+004  0.2590425E+02  0.7546771E-02  0.1648344E+00
         21   -1    0    0  503  502  0.00000000000E+00  0.00000000000E+00  0.51494108517E+00  0.51494108517E+00  0.00000000000E+00 0. -1.
         21   -1    0    0  501  503 -0.00000000000E+00 -0.00000000000E+00 -0.13234847944E+04  0.13234847944E+04  0.00000000000E+00 0. -1.
          1    1    1    2  501    0 -0.15094330973E+02 -0.21052110773E+02 -0.57936757243E+03  0.57994638905E+03  0.00000000000E+00 0.  1.
         -1    1    1    2    0  502  0.15094330973E+02  0.21052110773E+02 -0.74360228089E+03  0.74405334643E+03  0.00000000000E+00 0. -1.
<mgrwt>
<rscale>  2 0.25904251E+02</rscale>
<asrwt>0</asrwt>
<pdfrwt beam="1">  1       21 0.79221929E-04 0.25904251E+02</pdfrwt>
<pdfrwt beam="2">  1       21 0.20361247E+00 0.25904251E+02</pdfrwt>
<totfact> 0.20992119E+07</totfact>
</mgrwt>
</event>
<event>
 4    1  0.7521660E+004  0.2044053E+02  0.7546771E-02  0.1736707E+00
         21   -1    0    0  503  502  0.00000000000E+00  0.00000000000E+00  0.58613002544E+02  0.58613002544E+02  0.00000000000E+00 0. -1.
         21   -1    0    0  501  503 -0.00000000000E+00 -0.00000000000E+00 -0.84296012044E+01  0.84296012044E+01  0.00000000000E+00 0. -1.
          3    1    1    2  501    0 -0.48663465993E+01 -0.19852805600E+02  0.11921437491E+02  0.23662964550E+02  0.00000000000E+00 0. -1.
         -3    1    1    2    0  502  0.48663465993E+01  0.19852805600E+02  0.38261963849E+02  0.43379639199E+02  0.00000000000E+00 0.  1.
<mgrwt>
<rscale>  2 0.20440529E+02</rscale>
<asrwt>0</asrwt>
<pdfrwt beam="1">  1       21 0.90173848E-02 0.20440529E+02</pdfrwt>
<pdfrwt beam="2">  1       21 0.12968618E-02 0.20440529E+02</pdfrwt>
<totfact> 0.15430572E+08</totfact>
</mgrwt>
</event>
<event>
 4    1  0.7521660E+004  0.3206313E+02  0.7546771E-02  0.1576343E+00
         21   -1    0    0  501  502  0.00000000000E+00  0.00000000000E+00  0.19282732514E+03  0.19282732514E+03  0.00000000000E+00 0. -1.
         21   -1    0    0  502  503 -0.00000000000E+00 -0.00000000000E+00 -0.54427243785E+01  0.54427243785E+01  0.00000000000E+00 0. -1.
          1    1    1    2  501    0  0.23264938003E+02  0.22063246293E+02  0.79515840484E+02  0.85736882759E+02  0.00000000000E+00 0.  1.
         -1    1    1    2    0  503 -0.23264938003E+02 -0.22063246293E+02  0.10786876028E+03  0.11253316676E+03  0.00000000000E+00 0. -1.
<mgrwt>
<rscale>  2 0.32063128E+02</rscale>
<asrwt>0</asrwt>
<pdfrwt beam="1">  1       21 0.29665737E-01 0.32063128E+02</pdfrwt>
<pdfrwt beam="2">  1       21 0.83734236E-03 0.32063128E+02</pdfrwt>
<totfact> 0.42815706E+07</totfact>
</mgrwt>
</event>
<event>
 4    1  0.7521660E+004  0.2321059E+02  0.7546771E-02  0.1688119E+00
         21   -1    0    0  503  502  0.00000000000E+00  0.00000000000E+00  0.14317749688E+01  0.14317749688E+01  0.00000000000E+00 0. -1.
         21   -1    0    0  501  503 -0.00000000000E+00 -0.00000000000E+00 -0.84032490348E+03  0.84032490348E+03  0.00000000000E+00 0. -1.
          1    1    1    2  501    0 -0.23162408981E+02  0.14947302673E+01 -0.10668132660E+03  0.10917708942E+03  0.00000000000E+00 0. -1.
         -1    1    1    2    0  502  0.23162408981E+02 -0.14947302673E+01 -0.73221180191E+03  0.73257958903E+03  0.00000000000E+00 0.  1.
<mgrwt>
<rscale>  2 0.23210588E+02</rscale>
<asrwt>0</asrwt>
<pdfrwt beam="1">  1       21 0.22027287E-03 0.23210588E+02</pdfrwt>
<pdfrwt beam="2">  1       21 0.12928087E+00 0.23210588E+02</pdfrwt>
<totfact> 0.14412370E+07</totfact>
</mgrwt>
</event>
<event>
 4    1  0.7521660E+004  0.4819405E+02  0.7546771E-02  0.1455333E+00
         21   -1    0    0  501  502  0.00000000000E+00  0.00000000000E+00  0.28723425350E+03  0.28723425350E+03  0.00000000000E+00 0.  1.
         21   -1    0    0  502  503 -0.00000000000E+00 -0.00000000000E+00 -0.84536572735E+01  0.84536572735E+01  0.00000000000E+00 0.  1.
          4    1    1    2  501    0  0.12734359347E+02 -0.46481203399E+02  0.17020923741E+03  0.17690068026E+03  0.00000000000E+00 0. -1.
         -4    1    1    2    0  503 -0.12734359347E+02  0.46481203399E+02  0.10857135882E+03  0.11878723051E+03  0.00000000000E+00 0.  1.
<mgrwt>
<rscale>  2 0.48194047E+02</rscale>
<asrwt>0</asrwt>
<pdfrwt beam="1">  1       21 0.44189878E-01 0.48194047E+02</pdfrwt>
<pdfrwt beam="2">  1       21 0.13005629E-02 0.48194047E+02</pdfrwt>
<totfact> 0.10898542E+07</totfact>
</mgrwt>
</event>
<event>
 4    1  0.7521660E+004  0.2624312E+02  0.7546771E-02  0.1643763E+00
         21   -1    0    0  503  502  0.00000000000E+00  0.00000000000E+00  0.36645386994E+02  0.36645386994E+02  0.00000000000E+00 0. -1.
         21   -1    0    0  501  503 -0.00000000000E+00 -0.00000000000E+00 -0.22512756414E+02  0.22512756414E+02  0.00000000000E+00 0. -1.
          5    1    1    2  501    0 -0.19496387752E+02  0.17566790967E+02  0.19088638140E+02  0.32451153851E+02  0.00000000000E+00 0.  1.
         -5    1    1    2    0  502  0.19496387752E+02 -0.17566790967E+02 -0.49560075592E+01  0.26706989557E+02  0.00000000000E+00 0. -1.
<mgrwt>
<rscale>  2 0.26243119E+02</rscale>
<asrwt>0</asrwt>
<pdfrwt beam="1">  1       21 0.56377518E-02 0.26243119E+02</pdfrwt>
<pdfrwt beam="2">  1       21 0.34635010E-02 0.26243119E+02</pdfrwt>
<totfact> 0.78300109E+07</totfact>
</mgrwt>
</event>
<event>
 4    1  0.7521660E+004  0.3209624E+02  0.7546771E-02  0.1576010E+00
         21   -1    0    0  501  502  0.00000000000E+00  0.00000000000E+00  0.57350446709E+02  0.57350446709E+02  0.00000000000E+00 0. -1.
         21   -1    0    0  502  503 -0.00000000000E+00 -0.00000000000E+00 -0.18452312193E+02  0.18452312193E+02  0.00000000000E+00 0. -1.
          3    1    1    2  501    0 -0.25149592330E+02 -0.19941577483E+02  0.13275182288E+02  0.34733254550E+02  0.00000000000E+00 0.  1.
         -3    1    1    2    0  503  0.25149592330E+02  0.19941577483E+02  0.25622952227E+02  0.41069504352E+02  0.00000000000E+00 0. -1.
<mgrwt>
<rscale>  2 0.32096238E+02</rscale>
<asrwt>0</asrwt>
<pdfrwt beam="1">  1       21 0.88231456E-02 0.32096238E+02</pdfrwt>
<pdfrwt beam="2">  1       21 0.28388173E-02 0.32096238E+02</pdfrwt>
<totfact> 0.53980549E+07</totfact>
</mgrwt>
</event>
<event>
 4    1  0.7521660E+004  0.2555414E+02  0.7546771E-02  0.1653168E+00
         21   -1    0    0  501  502  0.00000000000E+00  0.00000000000E+00  0.11436056300E+03  0.11436056300E+03  0.00000000000E+00 0.  1.
         21   -1    0    0  502  503 -0.00000000000E+00 -0.00000000000E+00 -0.66728962197E+01  0.66728962197E+01  0.00000000000E+00 0.  1.
          1    1    1    2  501    0  0.17806961887E+02  0.18328287951E+02  0.76830605918E+02  0.80968858437E+02  0.00000000000E+00 0. -1.
         -1    1    1    2    0  503 -0.17806961887E+02 -0.18328287951E+02  0.30857060862E+02  0.40064600782E+02  0.00000000000E+00 0.  1.
<mgrwt>
<rscale>  2 0.25554139E+02</rscale>
<asrwt>0</asrwt>
<pdfrwt beam="1">  1       21 0.17593931E-01 0.25554139E+02</pdfrwt>
<pdfrwt beam="2">  1       21 0.10265995E-02 0.25554139E+02</pdfrwt>
<totfact> 0.75998693E+07</totfact>
</mgrwt>
</event>
<event>
 4    1  0.7521660E+004  0.2261114E+02  0.7546771E-02  0.1697892E+00
         21   -1    0    0  503  502  0.00000000000E+00  0.00000000000E+00  0.12241094434E+03  0.12241094434E+03  0.00000000000E+00 0. -1.
         21   -1    0    0  501  503 -0.00000000000E+00 -0.00000000000E+00 -0.45388527565E+01  0.45388527565E+01  0.00000000000E+00 0. -1.
          1    1    1    2  501    0 -0.69747512157E-01  0.22611035573E+02  0.41004248222E+02  0.46825336803E+02  0.00000000000E+00 0. -1.
         -1    1    1    2    0  502  0.69747512157E-01 -0.22611035573E+02  0.76867843357E+02  0.80124460290E+02  0.00000000000E+00 0.  1.
<mgrwt>
<rscale>  2 0.22611143E+02</rscale>
<asrwt>0</asrwt>
<pdfrwt beam="1">  1       21 0.18832450E-01 0.22611143E+02</pdfrwt>
<pdfrwt beam="2">  1       21 0.69828513E-03 0.22611143E+02</pdfrwt>
<totfact> 0.11641674E+08</totfact>
</mgrwt>
</event>
<event>
 4    1  0.7521660E+004  0.2773004E+02  0.7546771E-02  0.1624627E+00
         21   -1    0    0  503  502  0.00000000000E+00  0.00000000000E+00  0.49355110908E+03  0.49355110908E+03  0.00000000000E+00 0.  1.
         21   -1    0    0  501  503 -0.00000000000E+00 -0.00000000000E+00 -0.20096017743E+01  0.20096017743E+01  0.00000000000E+00 0.  1.
          1    1    1    2  501    0  0.92080013646E+01 -0.26156597334E+02  0.12831142855E+03  0.13127367432E+03  0.00000000000E+00 0.  1.
         -1    1    1    2    0  502 -0.92080013646E+01  0.26156597334E+02  0.36323007876E+03  0.36428703653E+03  0.00000000000E+00 0. -1.
<mgrwt>
<rscale>  2 0.27730036E+02</rscale>
<asrwt>0</asrwt>
<pdfrwt beam="1">  1       21 0.75930844E-01 0.27730036E+02</pdfrwt>
<pdfrwt beam="2">  1       21 0.30916990E-03 0.27730036E+02</pdfrwt>
<totfact> 0.29171418E+07</totfact>
</mgrwt>
</event>
<event>
 4    1  0.7521660E+004  0.2422169E+02  0.7546771E-02  0.1672439E+00
         21   -1    0    0  501  502  0.00000000000E+00  0.00000000000E+00  0.48032903003E+03  0.48032903003E+03  0.00000000000E+00 0. -1.
         21   -1    0    0  502  503 -0.00000000000E+00 -0.00000000000E+00 -0.12302069723E+01  0.12302069723E+01  0.00000000000E+00 0. -1.
          2    1    1    2  501    0 -0.17134619623E+02  0.17120022559E+02  0.25988216029E+03  0.26100848185E+03  0.00000000000E+00 0. -1.
         -2    1    1    2    0  503  0.17134619623E+02 -0.17120022559E+02  0.21921666277E+03  0.22055075515E+03  0.00000000000E+00 0.  1.
<mgrwt>
<rscale>  2 0.24221692E+02</rscale>
<asrwt>0</asrwt>
<pdfrwt beam="1">  1       21 0.73896624E-01 0.24221692E+02</pdfrwt>
<pdfrwt beam="2">  1       21 0.18926300E-03 0.24221692E+02</pdfrwt>
<totfact> 0.61343410E+07</totfact>
</mgrwt>
</event>
<event>
 4    1  0.7521660E+004  0.2571522E+02  0.7546771E-02  0.1650936E+00
         21   -1    0    0  503  502  0.00000000000E+00  0.00000000000E+00  0.35952627443E+02  0.35952627443E+02  0.00000000000E+00 0.  1.
         21   -1    0    0  501  503 -0.00000000000E+00 -0.00000000000E+00 -0.31494404980E+02  0.31494404980E+02  0.00000000000E+00 0.  1.
          1    1    1    2  501    0  0.25592228702E+02 -0.25120342590E+01  0.23980000332E+02  0.35161241474E+02  0.00000000000E+00 0. -1.
         -1    1    1    2    0  502 -0.25592228702E+02  0.25120342590E+01 -0.19521777869E+02  0.32285790949E+02  0.00000000000E+00 0.  1.
<mgrwt>
<rscale>  2 0.25715219E+02</rscale>
<asrwt>0</asrwt>
<pdfrwt beam="1">  1       21 0.55311735E-02 0.25715219E+02</pdfrwt>
<pdfrwt beam="2">  1       21 0.48452931E-02 0.25715219E+02</pdfrwt>
<totfact> 0.47186689E+07</totfact>
</mgrwt>
</event>
<event>
 4    1  0.7521660E+004  0.2650902E+02  0.7546771E-02  0.1640228E+00
         21   -1    0    0  501  502  0.00000000000E+00  0.00000000000E+00  0.21544574515E+02  0.21544574515E+02  0.00000000000E+00 0. -1.
         21   -1    0    0  502  503 -0.00000000000E+00 -0.00000000000E+00 -0.33202327069E+02  0.33202327069E+02  0.00000000000E+00 0. -1.
          5    1    1    2  501    0  0.26418173787E+02  0.21927213826E+01 -0.21956087262E+01  0.26599786295E+02  0.00000000000E+00 0. -1.
         -5    1    1    2    0  503 -0.26418173787E+02 -0.21927213826E+01 -0.94621438279E+01  0.28147115289E+02  0.00000000000E+00 0.  1.
<mgrwt>
<rscale>  2 0.26509016E+02</rscale>
<asrwt>0</asrwt>
<pdfrwt beam="1">  1       21 0.33145500E-02 0.26509016E+02</pdfrwt>
<pdfrwt beam="2">  1       21 0.51080503E-02 0.26509016E+02</pdfrwt>
<totfact> 0.98568785E+07</totfact>
</mgrwt>
</event>
<event>
 4    1  0.7521660E+004  0.2330346E+02  0.7546771E-02  0.1686638E+00
         21   -1    0    0  501  502  0.00000000000E+00  0.00000000000E+00  0.16095706244E+03  0.16095706244E+03  0.00000000000E+00 0.  1.
         21   -1    0    0  502  503 -0.00000000000E+00 -0.00000000000E+00 -0.40503325557E+01  0.40503325557E+01  0.00000000000E+00 0.  1.
          5    1    1    2  501    0  0.12707259549E+02 -0.19533995559E+02  0.11216994549E+03  0.11456503873E+03  0.00000000000E+00 0. -1.
         -5    1    1    2    0  503 -0.12707259549E+02  0.19533995559E+02  0.44736784389E+02  0.50442356262E+02  0.00000000000E+00 0.  1.
<mgrwt>
<rscale>  2 0.23303464E+02</rscale>
<asrwt>0</asrwt>
<pdfrwt beam="1">  1       21 0.24762620E-01 0.23303464E+02</pdfrwt>
<pdfrwt beam="2">  1       21 0.62312821E-03 0.23303464E+02</pdfrwt>
<totfact> 0.85923440E+07</totfact>
</mgrwt>
</event>
<event>
 4    1  0.7521660E+004  0.2479322E+02  0.7546771E-02  0.1663990E+00
         21   -1    0    0  503  502  0.00000000000E+00  0.00000000000E+00  0.23079271010E+02  0.23079271010E+02  0.00000000000E+00 0.  1.
         21   -1    0    0  501  503 -0.00000000000E+00 -0.00000000000E+00 -0.28812727599E+02  0.28812727599E+02  0.00000000000E+00 0.  1.
          3    1    1    2  501    0 -0.21385304270E+02 -0.12544813928E+02  0.42673067157E+01  0.25157772196E+02  0.00000000000E+00 0. -1.
         -3    1    1    2    0  502  0.21385304270E+02  0.12544813928E+02 -0.10000763305E+02  0.26734226413E+02  0.00000000000E+00 0.  1.
<mgrwt>
<rscale>  2 0.24793217E+02</rscale>
<asrwt>0</asrwt>
<pdfrwt beam="1">  1       21 0.35506571E-02 0.24793217E+02</pdfrwt>
<pdfrwt beam="2">  1       21 0.44327273E-02 0.24793217E+02</pdfrwt>
<totfact> 0.10895567E+08</totfact>
</mgrwt>
</event>
<event>
 4    1  0.7521660E+004  0.2518881E+02  0.7546771E-02  0.1658305E+00
         21   -1    0    0  501  502  0.00000000000E+00  0.00000000000E+00  0.53459674447E+01  0.53459674447E+01  0.00000000000E+00 0. -1.
         21   -1    0    0  502  503 -0.00000000000E+00 -0.00000000000E+00 -0.11903581824E+03  0.11903581824E+03  0.00000000000E+00 0. -1.
          3    1    1    2  501    0  0.58029283554E+00  0.25182126963E+02 -0.53459830077E+02  0.59096782400E+02  0.00000000000E+00 0.  1.
         -3    1    1    2    0  503 -0.58029283554E+00 -0.25182126963E+02 -0.60230020716E+02  0.65285003283E+02  0.00000000000E+00 0. -1.
<mgrwt>
<rscale>  2 0.25188812E+02</rscale>
<asrwt>0</asrwt>
<pdfrwt beam="1">  1       21 0.82245661E-03 0.25188812E+02</pdfrwt>
<pdfrwt beam="2">  1       21 0.18313201E-01 0.25188812E+02</pdfrwt>
<totfact> 0.98584929E+07</totfact>
</mgrwt>
</event>
<event>
 4    1  0.7521660E+004  0.2593505E+02  0.7546771E-02  0.1647924E+00
         21   -1    0    0  501  502  0.00000000000E+00  0.00000000000E+00  0.18665625665E+03  0.18665625665E+03  0.00000000000E+00 0.  1.
         21   -1    0    0  502  503 -0.00000000000E+00 -0.00000000000E+00 -0.36122037923E+01  0.36122037923E+01  0.00000000000E+00 0.  1.
          5    1    1    2  501    0  0.62120571318E+01 -0.25180092254E+02  0.96176236460E+02  0.99611721998E+02  0.00000000000E+00 0.  1.
         -5    1    1    2    0  503 -0.62120571318E+01  0.25180092254E+02  0.86867816400E+02  0.90656738447E+02  0.00000000000E+00 0. -1.
<mgrwt>
<rscale>  2 0.25935048E+02</rscale>
<asrwt>0</asrwt>
<pdfrwt beam="1">  1       21 0.28716340E-01 0.25935048E+02</pdfrwt>
<pdfrwt beam="2">  1       21 0.55572380E-03 0.25935048E+02</pdfrwt>
<totfact> 0.80139208E+07</totfact>
</mgrwt>
</event>
<event>
 4    1  0.7521660E+004  0.2779274E+02  0.7546771E-02  0.1623852E+00
         21   -1    0    0  501  502  0.00000000000E+00  0.00000000000E+00  0.18624289468E+03  0.18624289468E+03  0.00000000000E+00 0. -1.
         21   -1    0    0  502  503 -0.00000000000E+00 -0.00000000000E+00 -0.45824812988E+01  0.45824812988E+01  0.00000000000E+00 0. -1.
          5    1    1    2  501    0 -0.27680310583E+02  0.24973881623E+01  0.12022746247E+03  0.12339805214E+03  0.00000000000E+00 0. -1.
         -5    1    1    2    0  503  0.27680310583E+02 -0.24973881623E+01  0.61432950917E+02  0.67427323838E+02  0.00000000000E+00 0.  1.
<mgrwt>
<rscale>  2 0.27792743E+02</rscale>
<asrwt>0</asrwt>
<pdfrwt beam="1">  1       21 0.28652747E-01 0.27792743E+02</pdfrwt>
<pdfrwt beam="2">  1       21 0.70499727E-03 0.27792743E+02</pdfrwt>
<totfact> 0.57355173E+07</totfact>
</mgrwt>
</event>
<event>
 4    1  0.7521660E+004  0.2495960E+02  0.7546771E-02  0.1661583E+00
         21   -1    0    0  501  502  0.00000000000E+00  0.00000000000E+00  0.36295409263E+00  0.36295409263E+00  0.00000000000E+00 0. -1.
         21   -1    0    0  502  503 -0.00000000000E+00 -0.00000000000E+00 -0.18968321879E+04  0.18968321879E+04  0.00000000000E+00 0. -1.
          4    1    1    2  501    0 -0.18905272735E+02 -0.16296381509E+02 -0.65568373911E+03  0.65615862954E+03  0.00000000000E+00 0.  1.
         -4    1    1    2    0  503  0.18905272735E+02  0.16296381509E+02 -0.12407854947E+04  0.12410365125E+04  0.00000000000E+00 0. -1.
<mgrwt>
<rscale>  2 0.24959595E+02</rscale>
<asrwt>0</asrwt>
<pdfrwt beam="1">  1       21 0.55838866E-04 0.24959595E+02</pdfrwt>
<pdfrwt beam="2">  1       21 0.29182151E+00 0.24959595E+02</pdfrwt>
<totfact> 0.12191671E+07</totfact>
</mgrwt>
</event>
<event>
 4    1  0.7521660E+004  0.3060433E+02  0.7546771E-02  0.1591503E+00
         21   -1    0    0  501  502  0.00000000000E+00  0.00000000000E+00  0.21212715170E+03  0.21212715170E+03  0.00000000000E+00 0.  1.
         21   -1    0    0  502  503 -0.00000000000E+00 -0.00000000000E+00 -0.87517307898E+01  0.87517307898E+01  0.00000000000E+00 0.  1.
          2    1    1    2  501    0 -0.29426035814E+02 -0.84103234091E+01  0.23948757310E+02  0.38860881363E+02  0.00000000000E+00 0.  1.
         -2    1    1    2    0  503  0.29426035814E+02  0.84103234091E+01  0.17942666360E+03  0.18201800113E+03  0.00000000000E+00 0. -1.
<mgrwt>
<rscale>  2 0.30604332E+02</rscale>
<asrwt>0</asrwt>
<pdfrwt beam="1">  1       21 0.32634943E-01 0.30604332E+02</pdfrwt>
<pdfrwt beam="2">  1       21 0.13464203E-02 0.30604332E+02</pdfrwt>
<totfact> 0.17283537E+07</totfact>
</mgrwt>
</event>
<event>
 4    1  0.7521660E+004  0.2473208E+02  0.7546771E-02  0.1664880E+00
         21   -1    0    0  503  502  0.00000000000E+00  0.00000000000E+00  0.51316385537E+02  0.51316385537E+02  0.00000000000E+00 0. -1.
         21   -1    0    0  501  503 -0.00000000000E+00 -0.00000000000E+00 -0.12469945273E+02  0.12469945273E+02  0.00000000000E+00 0. -1.
          5    1    1    2  501    0  0.23159783805E+01  0.24623406439E+02  0.26122739806E+02  0.35973232208E+02  0.00000000000E+00 0.  1.
         -5    1    1    2    0  502 -0.23159783805E+01 -0.24623406439E+02  0.12723700458E+02  0.27813098602E+02  0.00000000000E+00 0. -1.
<mgrwt>
<rscale>  2 0.24732082E+02</rscale>
<asrwt>0</asrwt>
<pdfrwt beam="1">  1       21 0.78948285E-02 0.24732082E+02</pdfrwt>
<pdfrwt beam="2">  1       21 0.19184531E-02 0.24732082E+02</pdfrwt>
<totfact> 0.11185262E+08</totfact>
</mgrwt>
</event>
<event>
 4    1  0.7521660E+004  0.3460184E+02  0.7546771E-02  0.1552165E+00
         21   -1    0    0  503  502  0.00000000000E+00  0.00000000000E+00  0.92247487261E+01  0.92247487261E+01  0.00000000000E+00 0.  1.
         21   -1    0    0  501  503 -0.00000000000E+00 -0.00000000000E+00 -0.13524013394E+03  0.13524013394E+03  0.00000000000E+00 0.  1.
          4    1    1    2  501    0  0.29185220430E+02  0.18587899213E+02 -0.48508191522E+02  0.59584660219E+02  0.00000000000E+00 0.  1.
         -4    1    1    2    0  502 -0.29185220430E+02 -0.18587899213E+02 -0.77507193693E+02  0.84880222449E+02  0.00000000000E+00 0. -1.
<mgrwt>
<rscale>  2 0.34601836E+02</rscale>
<asrwt>0</asrwt>
<pdfrwt beam="1">  1       21 0.14191923E-02 0.34601836E+02</pdfrwt>
<pdfrwt beam="2">  1       21 0.20806172E-01 0.34601836E+02</pdfrwt>
<totfact> 0.36943004E+07</totfact>
</mgrwt>
</event>
<event>
 4    1  0.7521660E+004  0.2760662E+02  0.7546771E-02  0.1626158E+00
         21   -1    0    0  503  502  0.00000000000E+00  0.00000000000E+00  0.58612881581E+01  0.58612881581E+01  0.00000000000E+00 0.  1.
         21   -1    0    0  501  503 -0.00000000000E+00 -0.00000000000E+00 -0.13203627170E+03  0.13203627170E+03  0.00000000000E+00 0.  1.
          4    1    1    2  501    0 -0.26345578985E+02  0.82483933869E+01 -0.71593049426E+02  0.76731286003E+02  0.00000000000E+00 0. -1.
         -4    1    1    2    0  502  0.26345578985E+02 -0.82483933869E+01 -0.54581934116E+02  0.61166273855E+02  0.00000000000E+00 0.  1.
<mgrwt>
<rscale>  2 0.27606621E+02</rscale>
<asrwt>0</asrwt>
<pdfrwt beam="1">  1       21 0.90173667E-03 0.27606621E+02</pdfrwt>
<pdfrwt beam="2">  1       21 0.20313272E-01 0.27606621E+02</pdfrwt>
<totfact> 0.73263797E+07</totfact>
</mgrwt>
</event>
<event>
 4    1  0.7521660E+004  0.2126098E+02  0.7546771E-02  0.1721356E+00
         21   -1    0    0  501  502  0.00000000000E+00  0.00000000000E+00  0.51382763046E+00  0.51382763046E+00  0.00000000000E+00 0. -1.
         21   -1    0    0  502  503 -0.00000000000E+00 -0.00000000000E+00 -0.96022459066E+03  0.96022459066E+03  0.00000000000E+00 0. -1.
          5    1    1    2  501    0  0.87010157714E+01  0.19399005612E+02 -0.61893857561E+03  0.61930363270E+03  0.00000000000E+00 0. -1.
         -5    1    1    2    0  503 -0.87010157714E+01 -0.19399005612E+02 -0.34077218742E+03  0.34143478559E+03  0.00000000000E+00 0.  1.
<mgrwt>
<rscale>  2 0.21260976E+02</rscale>
<asrwt>0</asrwt>
<pdfrwt beam="1">  1       21 0.79050945E-04 0.21260976E+02</pdfrwt>
<pdfrwt beam="2">  1       21 0.14772585E+00 0.21260976E+02</pdfrwt>
<totfact> 0.45021559E+07</totfact>
</mgrwt>
</event>
<event>
 4    1  0.7521660E+004  0.2515911E+02  0.7546771E-02  0.1658727E+00
         21   -1    0    0  503  502  0.00000000000E+00  0.00000000000E+00  0.87383325965E+03  0.87383325965E+03  0.00000000000E+00 0. -1.
         21   -1    0    0  501  503 -0.00000000000E+00 -0.00000000000E+00 -0.87778009761E+00  0.87778009761E+00  0.00000000000E+00 0. -1.
          5    1    1    2  501    0  0.24961600093E+02  0.31463277342E+01  0.25364032962E+03  0.25488506756E+03  0.00000000000E+00 0. -1.
         -5    1    1    2    0  502 -0.24961600093E+02 -0.31463277342E+01  0.61931514993E+03  0.61982597218E+03  0.00000000000E+00 0.  1.
<mgrwt>
<rscale>  2 0.25159111E+02</rscale>
<asrwt>0</asrwt>
<pdfrwt beam="1">  1       21 0.13443519E+00 0.25159111E+02</pdfrwt>
<pdfrwt beam="2">  1       21 0.13504379E-03 0.25159111E+02</pdfrwt>
<totfact> 0.27026382E+07</totfact>
</mgrwt>
</event>
<event>
 4    1  0.7521660E+004  0.3437770E+02  0.7546771E-02  0.1554197E+00
         21   -1    0    0  503  502  0.00000000000E+00  0.00000000000E+00  0.20906839816E+02  0.20906839816E+02  0.00000000000E+00 0.  1.
         21   -1    0    0  501  503 -0.00000000000E+00 -0.00000000000E+00 -0.93766264870E+02  0.93766264870E+02  0.00000000000E+00 0.  1.
          1    1    1    2  501    0 -0.34351969645E+02  0.13297401151E+01 -0.72562529211E+02  0.80294126017E+02  0.00000000000E+00 0.  1.
         -1    1    1    2    0  502  0.34351969645E+02 -0.13297401151E+01 -0.29689584264E+00  0.34378978670E+02  0.00000000000E+00 0. -1.
<mgrwt>
<rscale>  2 0.34377697E+02</rscale>
<asrwt>0</asrwt>
<pdfrwt beam="1">  1       21 0.32164370E-02 0.34377697E+02</pdfrwt>
<pdfrwt beam="2">  1       21 0.14425579E-01 0.34377697E+02</pdfrwt>
<totfact> 0.19548646E+07</totfact>
</mgrwt>
</event>
<event>
 4    1  0.7521660E+004  0.2269581E+02  0.7546771E-02  0.1696489E+00
         21   -1    0    0  501  502  0.00000000000E+00  0.00000000000E+00  0.74308027945E+01  0.74308027945E+01  0.00000000000E+00 0. -1.
         21   -1    0    0  502  503 -0.00000000000E+00 -0.00000000000E+00 -0.73477550769E+02  0.73477550769E+02  0.00000000000E+00 0. -1.
          3    1    1    2  501    0  0.22318329991E+02  0.41221322481E+01 -0.42646781193E+02  0.48309913827E+02  0.00000000000E+00 0. -1.
         -3    1    1    2    0  503 -0.22318329991E+02 -0.41221322481E+01 -0.23399966781E+02  0.32598439736E+02  0.00000000000E+00 0.  1.
<mgrwt>
<rscale>  2 0.22695811E+02</rscale>
<asrwt>0</asrwt>
<pdfrwt beam="1">  1       21 0.11432004E-02 0.22695811E+02</pdfrwt>
<pdfrwt beam="2">  1       21 0.11304239E-01 0.22695811E+02</pdfrwt>
<totfact> 0.13261825E+08</totfact>
</mgrwt>
</event>
<event>
 4    1  0.7521660E+004  0.2863602E+02  0.7546771E-02  0.1613674E+00
         21   -1    0    0  501  502  0.00000000000E+00  0.00000000000E+00  0.10332586068E+02  0.10332586068E+02  0.00000000000E+00 0. -1.
         21   -1    0    0  502  503 -0.00000000000E+00 -0.00000000000E+00 -0.86164878258E+02  0.86164878258E+02  0.00000000000E+00 0. -1.
          5    1    1    2  501    0  0.26334976034E+02 -0.11246805932E+02 -0.51472589503E+02  0.58902029478E+02  0.00000000000E+00 0. -1.
         -5    1    1    2    0  503 -0.26334976034E+02  0.11246805932E+02 -0.24359702687E+02  0.37595434848E+02  0.00000000000E+00 0.  1.
<mgrwt>
<rscale>  2 0.28636019E+02</rscale>
<asrwt>0</asrwt>
<pdfrwt beam="1">  1       21 0.15896287E-02 0.28636019E+02</pdfrwt>
<pdfrwt beam="2">  1       21 0.13256134E-01 0.28636019E+02</pdfrwt>
<totfact> 0.65313172E+07</totfact>
</mgrwt>
</event>
<event>
 4    1  0.7521660E+004  0.2425051E+02  0.7546771E-02  0.1672006E+00
         21   -1    0    0  503  502  0.00000000000E+00  0.00000000000E+00  0.40077149769E+03  0.40077149769E+03  0.00000000000E+00 0.  1.
         21   -1    0    0  501  503 -0.00000000000E+00 -0.00000000000E+00 -0.14864239044E+01  0.14864239044E+01  0.00000000000E+00 0.  1.
          5    1    1    2  501    0  0.23500496199E+02 -0.59844693045E+01  0.17688146844E+03  0.17853610579E+03  0.00000000000E+00 0. -1.
         -5    1    1    2    0  502 -0.23500496199E+02  0.59844693045E+01  0.22240360535E+03  0.22372181581E+03  0.00000000000E+00 0.  1.
<mgrwt>
<rscale>  2 0.24250509E+02</rscale>
<asrwt>0</asrwt>
<pdfrwt beam="1">  1       21 0.61657068E-01 0.24250509E+02</pdfrwt>
<pdfrwt beam="2">  1       21 0.22868092E-03 0.24250509E+02</pdfrwt>
<totfact> 0.67546731E+07</totfact>
</mgrwt>
</event>
<event>
 4    1  0.7521660E+004  0.2293227E+02  0.7546771E-02  0.1692610E+00
         21   -1    0    0  503  502  0.00000000000E+00  0.00000000000E+00  0.24903499726E+03  0.24903499726E+03  0.00000000000E+00 0.  1.
         21   -1    0    0  501  503 -0.00000000000E+00 -0.00000000000E+00 -0.21447609180E+01  0.21447609180E+01  0.00000000000E+00 0.  1.
          1    1    1    2  501    0 -0.18586743994E+02 -0.13432125162E+02  0.13903612825E+03  0.14091463372E+03  0.00000000000E+00 0. -1.
         -1    1    1    2    0  502  0.18586743994E+02  0.13432125162E+02  0.10785410809E+03  0.11026512446E+03  0.00000000000E+00 0.  1.
<mgrwt>
<rscale>  2 0.22932271E+02</rscale>
<asrwt>0</asrwt>
<pdfrwt beam="1">  1       21 0.38313054E-01 0.22932271E+02</pdfrwt>
<pdfrwt beam="2">  1       21 0.32996341E-03 0.22932271E+02</pdfrwt>
<totfact> 0.98300455E+07</totfact>
</mgrwt>
</event>
<event>
 4    1  0.7521660E+004  0.2403159E+02  0.7546771E-02  0.1675314E+00
         21   -1    0    0  503  502  0.00000000000E+00  0.00000000000E+00  0.34795591884E+03  0.34795591884E+03  0.00000000000E+00 0. -1.
         21   -1    0    0  501  503 -0.00000000000E+00 -0.00000000000E+00 -0.20819833765E+01  0.20819833765E+01  0.00000000000E+00 0. -1.
          2    1    1    2  501    0 -0.23699621677E+02 -0.39806383089E+01  0.94118841008E+02  0.97138425876E+02  0.00000000000E+00 0. -1.
         -2    1    1    2    0  502  0.23699621677E+02  0.39806383089E+01  0.25175509446E+03  0.25289947634E+03  0.00000000000E+00 0.  1.
<mgrwt>
<rscale>  2 0.24031595E+02</rscale>
<asrwt>0</asrwt>
<pdfrwt beam="1">  1       21 0.53531634E-01 0.24031595E+02</pdfrwt>
<pdfrwt beam="2">  1       21 0.32030541E-03 0.24031595E+02</pdfrwt>
<totfact> 0.54667118E+07</totfact>
</mgrwt>
</event>
<event>
 4    1  0.7521660E+004  0.2386063E+02  0.7546771E-02  0.1677928E+00
         21   -1    0    0  503  502  0.00000000000E+00  0.00000000000E+00  0.55954459198E+03  0.55954459198E+03  0.00000000000E+00 0.  1.
         21   -1    0    0  501  503 -0.00000000000E+00 -0.00000000000E+00 -0.10191914958E+01  0.10191914958E+01  0.00000000000E+00 0.  1.
          5    1    1    2  501    0 -0.14686760487E+02  0.18805016075E+02  0.29072353274E+03  0.29170104911E+03  0.00000000000E+00 0. -1.
         -5    1    1    2    0  502  0.14686760487E+02 -0.18805016075E+02  0.26780186774E+03  0.26886273436E+03  0.00000000000E+00 0.  1.
<mgrwt>
<rscale>  2 0.23860628E+02</rscale>
<asrwt>0</asrwt>
<pdfrwt beam="1">  1       21 0.86083538E-01 0.23860628E+02</pdfrwt>
<pdfrwt beam="2">  1       21 0.15679914E-03 0.23860628E+02</pdfrwt>
<totfact> 0.58184397E+07</totfact>
</mgrwt>
</event>
<event>
 4    1  0.7521660E+004  0.2198982E+02  0.7546771E-02  0.1708428E+00
         21   -1    0    0  503  502  0.00000000000E+00  0.00000000000E+00  0.10521310165E+04  0.10521310165E+04  0.00000000000E+00 0.  1.
         21   -1    0    0  501  503 -0.00000000000E+00 -0.00000000000E+00 -0.55229012658E+00  0.55229012658E+00  0.00000000000E+00 0.  1.
          3    1    1    2  501    0  0.16536266001E+02  0.14494970703E+02  0.31015560614E+03  0.31093416070E+03  0.00000000000E+00 0. -1.
         -3    1    1    2    0  502 -0.16536266001E+02 -0.14494970703E+02  0.74142312019E+03  0.74174914588E+03  0.00000000000E+00 0.  1.
<mgrwt>
<rscale>  2 0.21989822E+02</rscale>
<asrwt>0</asrwt>
<pdfrwt beam="1">  1       21 0.16186471E+00 0.21989822E+02</pdfrwt>
<pdfrwt beam="2">  1       21 0.84968554E-04 0.21989822E+02</pdfrwt>
<totfact> 0.32922586E+07</totfact>
</mgrwt>
</event>
<event>
 4    1  0.7521660E+004  0.2707640E+02  0.7546771E-02  0.1632852E+00
         21   -1    0    0  503  502  0.00000000000E+00  0.00000000000E+00  0.34565667672E+01  0.34565667672E+01  0.00000000000E+00 0.  1.
         21   -1    0    0  501  503 -0.00000000000E+00 -0.00000000000E+00 -0.25376820050E+03  0.25376820050E+03  0.00000000000E+00 0.  1.
          1    1    1    2  501    0 -0.26214084014E+02  0.67788767638E+01 -0.17727244020E+03  0.17932832856E+03  0.00000000000E+00 0.  1.
         -1    1    1    2    0  502  0.26214084014E+02 -0.67788767638E+01 -0.73039193539E+02  0.77896438710E+02  0.00000000000E+00 0. -1.
<mgrwt>
<rscale>  2 0.27076399E+02</rscale>
<asrwt>0</asrwt>
<pdfrwt beam="1">  1       21 0.53177936E-03 0.27076399E+02</pdfrwt>
<pdfrwt beam="2">  1       21 0.39041272E-01 0.27076399E+02</pdfrwt>
<totfact> 0.48891632E+07</totfact>
</mgrwt>
</event>
<event>
 4    1  0.7521660E+004  0.3456800E+02  0.7546771E-02  0.1552471E+00
         21   -1    0    0  501  502  0.00000000000E+00  0.00000000000E+00  0.18520878215E+02  0.18520878215E+02  0.00000000000E+00 0.  1.
         21   -1    0    0  502  503 -0.00000000000E+00 -0.00000000000E+00 -0.64863421265E+02  0.64863421265E+02  0.00000000000E+00 0.  1.
          5    1    1    2  501    0 -0.15188595134E+02 -0.31052431674E+02 -0.26209735022E+02  0.43380838453E+02  0.00000000000E+00 0. -1.
         -5    1    1    2    0  503  0.15188595134E+02  0.31052431674E+02 -0.20132808029E+02  0.40003461027E+02  0.00000000000E+00 0.  1.
<mgrwt>
<rscale>  2 0.34568004E+02</rscale>
<asrwt>0</asrwt>
<pdfrwt beam="1">  1       21 0.28493659E-02 0.34568004E+02</pdfrwt>
<pdfrwt beam="2">  1       21 0.99789880E-02 0.34568004E+02</pdfrwt>
<totfact> 0.44374198E+07</totfact>
</mgrwt>
</event>
<event>
 4    1  0.7521660E+004  0.3853602E+02  0.7546771E-02  0.1519270E+00
         21   -1    0    0  501  502  0.00000000000E+00  0.00000000000E+00  0.92299176593E+01  0.92299176593E+01  0.00000000000E+00 0. -1.
         21   -1    0    0  502  503 -0.00000000000E+00 -0.00000000000E+00 -0.16811591381E+03  0.16811591381E+03  0.00000000000E+00 0. -1.
          4    1    1    2  501    0  0.11663489709E+02  0.36728567187E+02 -0.61062492347E+02  0.72205627283E+02  0.00000000000E+00 0.  1.
         -4    1    1    2    0  503 -0.11663489709E+02 -0.36728567187E+02 -0.97823503806E+02  0.10514020419E+03  0.00000000000E+00 0. -1.
<mgrwt>
<rscale>  2 0.38536017E+02</rscale>
<asrwt>0</asrwt>
<pdfrwt beam="1">  1       21 0.14199874E-02 0.38536017E+02</pdfrwt>
<pdfrwt beam="2">  1       21 0.25863985E-01 0.38536017E+02</pdfrwt>
<totfact> 0.25410043E+07</totfact>
</mgrwt>
</event>
<event>
 4    1  0.7521660E+004  0.2077265E+02  0.7546771E-02  0.1730386E+00
         21   -1    0    0  501  502  0.00000000000E+00  0.00000000000E+00  0.14995013054E+02  0.14995013054E+02  0.00000000000E+00 0. -1.
         21   -1    0    0  502  503 -0.00000000000E+00 -0.00000000000E+00 -0.31372921449E+02  0.31372921449E+02  0.00000000000E+00 0. -1.
          3    1    1    2  501    0  0.54846959496E+01 -0.20035497954E+02 -0.15193044478E+01  0.20828138514E+02  0.00000000000E+00 0. -1.
         -3    1    1    2    0  503 -0.54846959496E+01  0.20035497954E+02 -0.14858603947E+02  0.25539795990E+02  0.00000000000E+00 0.  1.
<mgrwt>
<rscale>  2 0.20772652E+02</rscale>
<asrwt>0</asrwt>
<pdfrwt beam="1">  1       21 0.23069251E-02 0.20772652E+02</pdfrwt>
<pdfrwt beam="2">  1       21 0.48266033E-02 0.20772652E+02</pdfrwt>
<totfact> 0.17640509E+08</totfact>
</mgrwt>
</event>
<event>
 4    1  0.7521660E+004  0.2083063E+02  0.7546771E-02  0.1729297E+00
         21   -1    0    0  501  502  0.00000000000E+00  0.00000000000E+00  0.55860141737E+02  0.55860141737E+02  0.00000000000E+00 0. -1.
         21   -1    0    0  502  503 -0.00000000000E+00 -0.00000000000E+00 -0.93537645622E+01  0.93537645622E+01  0.00000000000E+00 0. -1.
          3    1    1    2  501    0  0.25095312200E+01  0.20678911603E+02  0.36679359298E+02  0.42181637362E+02  0.00000000000E+00 0. -1.
         -3    1    1    2    0  503 -0.25095312200E+01 -0.20678911603E+02  0.98270178769E+01  0.23032268937E+02  0.00000000000E+00 0.  1.
<mgrwt>
<rscale>  2 0.20830630E+02</rscale>
<asrwt>0</asrwt>
<pdfrwt beam="1">  1       21 0.85938678E-02 0.20830630E+02</pdfrwt>
<pdfrwt beam="2">  1       21 0.14390407E-02 0.20830630E+02</pdfrwt>
<totfact> 0.14349270E+08</totfact>
</mgrwt>
</event>
<event>
 4    1  0.7521660E+004  0.2039574E+02  0.7546771E-02  0.1737571E+00
         21   -1    0    0  503  502  0.00000000000E+00  0.00000000000E+00  0.36985146302E+01  0.36985146302E+01  0.00000000000E+00 0.  1.
         21   -1    0    0  501  503 -0.00000000000E+00 -0.00000000000E+00 -0.18982996752E+03  0.18982996752E+03  0.00000000000E+00 0.  1.
          4    1    1    2  501    0  0.20189471580E+02 -0.28933450752E+01 -0.31295411088E+02  0.37354905483E+02  0.00000000000E+00 0. -1.
         -4    1    1    2    0  502 -0.20189471580E+02  0.28933450752E+01 -0.15483604180E+03  0.15617357666E+03  0.00000000000E+00 0.  1.
<mgrwt>
<rscale>  2 0.20395740E+02</rscale>
<asrwt>0</asrwt>
<pdfrwt beam="1">  1       21 0.56900204E-03 0.20395740E+02</pdfrwt>
<pdfrwt beam="2">  1       21 0.29204621E-01 0.20395740E+02</pdfrwt>
<totfact> 0.70559379E+07</totfact>
</mgrwt>
</event>
<event>
 4    1  0.7521660E+004  0.2092078E+02  0.7546771E-02  0.1727614E+00
         21   -1    0    0  503  502  0.00000000000E+00  0.00000000000E+00  0.10864807972E+03  0.10864807972E+03  0.00000000000E+00 0.  1.
         21   -1    0    0  501  503 -0.00000000000E+00 -0.00000000000E+00 -0.68453582479E+01  0.68453582479E+01  0.00000000000E+00 0.  1.
          5    1    1    2  501    0 -0.20075621535E+02 -0.58863006008E+01  0.13857300357E+02  0.25093901410E+02  0.00000000000E+00 0. -1.
         -5    1    1    2    0  502  0.20075621535E+02  0.58863006008E+01  0.87945421118E+02  0.90399536561E+02  0.00000000000E+00 0.  1.
<mgrwt>
<rscale>  2 0.20920782E+02</rscale>
<asrwt>0</asrwt>
<pdfrwt beam="1">  1       21 0.16715088E-01 0.20920782E+02</pdfrwt>
<pdfrwt beam="2">  1       21 0.10531321E-02 0.20920782E+02</pdfrwt>
<totfact> 0.75753816E+07</totfact>
</mgrwt>
</event>
<event>
 4    1  0.7521660E+004  0.3294052E+02  0.7546771E-02  0.1567689E+00
         21   -1    0    0  501  502  0.00000000000E+00  0.00000000000E+00  0.89638925446E+01  0.89638925446E+01  0.00000000000E+00 0. -1.
         21   -1    0    0  502  503 -0.00000000000E+00 -0.00000000000E+00 -0.13993577099E+03  0.13993577099E+03  0.00000000000E+00 0. -1.
          4    1    1    2  501    0 -0.24799967776E+02  0.21680391036E+02 -0.38135232732E+02  0.50392199125E+02  0.00000000000E+00 0. -1.
         -4    1    1    2    0  503  0.24799967776E+02 -0.21680391036E+02 -0.92836645715E+02  0.98507464411E+02  0.00000000000E+00 0.  1.
<mgrwt>
<rscale>  2 0.32940518E+02</rscale>
<asrwt>0</asrwt>
<pdfrwt beam="1">  1       21 0.13790605E-02 0.32940518E+02</pdfrwt>
<pdfrwt beam="2">  1       21 0.21528578E-01 0.32940518E+02</pdfrwt>
<totfact> 0.35984749E+07</totfact>
</mgrwt>
</event>
<event>
 4    1  0.7521660E+004  0.2067686E+02  0.7546771E-02  0.1732193E+00
         21   -1    0    0  501  502  0.00000000000E+00  0.00000000000E+00  0.50467331888E+01  0.50467331888E+01  0.00000000000E+00 0.  1.
         21   -1    0    0  502  503 -0.00000000000E+00 -0.00000000000E+00 -0.12359605583E+03  0.12359605583E+03  0.00000000000E+00 0.  1.
          3    1    1    2  501    0  0.17378980680E+02 -0.11202843217E+02 -0.95351099190E+02  0.97567232114E+02  0.00000000000E+00 0.  1.
         -3    1    1    2    0  503 -0.17378980680E+02  0.11202843217E+02 -0.23198223449E+02  0.31075556902E+02  0.00000000000E+00 0. -1.
<mgrwt>
<rscale>  2 0.20676863E+02</rscale>
<asrwt>0</asrwt>
<pdfrwt beam="1">  1       21 0.77642051E-03 0.20676863E+02</pdfrwt>
<pdfrwt beam="2">  1       21 0.19014777E-01 0.20676863E+02</pdfrwt>
<totfact> 0.95345428E+07</totfact>
</mgrwt>
</event>
<event>
 4    1  0.7521660E+004  0.6714899E+02  0.7546771E-02  0.1370065E+00
         21   -1    0    0  503  502  0.00000000000E+00  0.00000000000E+00  0.17239190591E+03  0.17239190591E+03  0.00000000000E+00 0. -1.
         21   -1    0    0  501  503 -0.00000000000E+00 -0.00000000000E+00 -0.26753630904E+02  0.26753630904E+02  0.00000000000E+00 0. -1.
          3    1    1    2  501    0 -0.48021432313E+01 -0.66977061143E+02  0.87708177706E+02  0.11046135856E+03  0.00000000000E+00 0. -1.
         -3    1    1    2    0  502  0.48021432313E+01  0.66977061143E+02  0.57930097301E+02  0.88684178253E+02  0.00000000000E+00 0.  1.
<mgrwt>
<rscale>  2 0.67148993E+02</rscale>
<asrwt>0</asrwt>
<pdfrwt beam="1">  1       21 0.26521831E-01 0.67148993E+02</pdfrwt>
<pdfrwt beam="2">  1       21 0.41159433E-02 0.67148993E+02</pdfrwt>
<totfact> 0.47849152E+06</totfact>
</mgrwt>
</event>
<event>
 4    1  0.7521660E+004  0.2517200E+02  0.7546771E-02  0.1658544E+00
         21   -1    0    0  501  502  0.00000000000E+00  0.00000000000E+00  0.27325913336E+03  0.27325913336E+03  0.00000000000E+00 0. -1.
         21   -1    0    0  502  503 -0.00000000000E+00 -0.00000000000E+00 -0.36059366628E+01  0.36059366628E+01  0.00000000000E+00 0. -1.
          4    1    1    2  501    0  0.21933755822E+02  0.12350716046E+02  0.52119347860E+02  0.57879670461E+02  0.00000000000E+00 0. -1.
         -4    1    1    2    0  503 -0.21933755822E+02 -0.12350716046E+02  0.21753384884E+03  0.21898539956E+03  0.00000000000E+00 0.  1.
<mgrwt>
<rscale>  2 0.25172005E+02</rscale>
<asrwt>0</asrwt>
<pdfrwt beam="1">  1       21 0.42039850E-01 0.25172005E+02</pdfrwt>
<pdfrwt beam="2">  1       21 0.55475970E-03 0.25172005E+02</pdfrwt>
<totfact> 0.39276488E+07</totfact>
</mgrwt>
</event>
<event>
 4    1  0.7521660E+004  0.2279492E+02  0.7546771E-02  0.1694856E+00
         21   -1    0    0  503  502  0.00000000000E+00  0.00000000000E+00  0.58122228860E+00  0.58122228860E+00  0.00000000000E+00 0.  1.
         21   -1    0    0  501  503 -0.00000000000E+00 -0.00000000000E+00 -0.92612284124E+03  0.92612284124E+03  0.00000000000E+00 0.  1.
          2    1    1    2  501    0 -0.19776160779E+02 -0.11336315631E+02 -0.37646661961E+03  0.37715610066E+03  0.00000000000E+00 0.  1.
         -2    1    1    2    0  502  0.19776160779E+02  0.11336315631E+02 -0.54907499935E+03  0.54954796287E+03  0.00000000000E+00 0. -1.
<mgrwt>
<rscale>  2 0.22794925E+02</rscale>
<asrwt>0</asrwt>
<pdfrwt beam="1">  1       21 0.89418855E-04 0.22794925E+02</pdfrwt>
<pdfrwt beam="2">  1       21 0.14248037E+00 0.22794925E+02</pdfrwt>
<totfact> 0.41739372E+07</totfact>
</mgrwt>
</event>
<event>
 4    1  0.7521660E+004  0.2629150E+02  0.7546771E-02  0.1643116E+00
         21   -1    0    0  503  502  0.00000000000E+00  0.00000000000E+00  0.51780226942E+02  0.51780226942E+02  0.00000000000E+00 0. -1.
         21   -1    0    0  501  503 -0.00000000000E+00 -0.00000000000E+00 -0.15657164565E+02  0.15657164565E+02  0.00000000000E+00 0. -1.
          1    1    1    2  501    0  0.29290882934E+01 -0.26127828060E+02  0.51167286674E+01  0.26784769359E+02  0.00000000000E+00 0. -1.
         -1    1    1    2    0  502 -0.29290882934E+01  0.26127828060E+02  0.31006333710E+02  0.40652622148E+02  0.00000000000E+00 0.  1.
<mgrwt>
<rscale>  2 0.26291500E+02</rscale>
<asrwt>0</asrwt>
<pdfrwt beam="1">  1       21 0.79661887E-02 0.26291500E+02</pdfrwt>
<pdfrwt beam="2">  1       21 0.24087946E-02 0.26291500E+02</pdfrwt>
<totfact> 0.78804345E+07</totfact>
</mgrwt>
</event>
<event>
 4    1  0.7521660E+004  0.2037041E+02  0.7546771E-02  0.1738061E+00
         21   -1    0    0  501  502  0.00000000000E+00  0.00000000000E+00  0.17860516080E+03  0.17860516080E+03  0.00000000000E+00 0. -1.
         21   -1    0    0  502  503 -0.00000000000E+00 -0.00000000000E+00 -0.24538432868E+01  0.24538432868E+01  0.00000000000E+00 0. -1.
          3    1    1    2  501    0  0.17179463982E+02 -0.10946221256E+02  0.10895614093E+03  0.11084400926E+03  0.00000000000E+00 0.  1.
         -3    1    1    2    0  503 -0.17179463982E+02  0.10946221256E+02  0.67195176583E+02  0.70214994827E+02  0.00000000000E+00 0. -1.
<mgrwt>
<rscale>  2 0.20370413E+02</rscale>
<asrwt>0</asrwt>
<pdfrwt beam="1">  1       21 0.27477707E-01 0.20370413E+02</pdfrwt>
<pdfrwt beam="2">  1       21 0.37751449E-03 0.20370413E+02</pdfrwt>
<totfact> 0.14361753E+08</totfact>
</mgrwt>
</event>
<event>
 4    1  0.7521660E+004  0.2114741E+02  0.7546771E-02  0.1723428E+00
         21   -1    0    0  501  502  0.00000000000E+00  0.00000000000E+00  0.11756054373E+01  0.11756054373E+01  0.00000000000E+00 0. -1.
         21   -1    0    0  502  503 -0.00000000000E+00 -0.00000000000E+00 -0.38555334509E+03  0.38555334509E+03  0.00000000000E+00 0. -1.
          3    1    1    2  501    0 -0.16629521314E+02 -0.13064145609E+02 -0.16985685002E+03  0.17116822829E+03  0.00000000000E+00 0.  1.
         -3    1    1    2    0  503  0.16629521314E+02  0.13064145609E+02 -0.21452088964E+03  0.21556072223E+03  0.00000000000E+00 0. -1.
<mgrwt>
<rscale>  2 0.21147408E+02</rscale>
<asrwt>0</asrwt>
<pdfrwt beam="1">  1       21 0.18086239E-03 0.21147408E+02</pdfrwt>
<pdfrwt beam="2">  1       21 0.59315893E-01 0.21147408E+02</pdfrwt>
<totfact> 0.98959265E+07</totfact>
</mgrwt>
</event>
<event>
 4    1  0.7521660E+004  0.3466451E+02  0.7546771E-02  0.1551600E+00
         21   -1    0    0  501  502  0.00000000000E+00  0.00000000000E+00  0.57931937248E+02  0.57931937248E+02  0.00000000000E+00 0.  1.
         21   -1    0    0  502  503 -0.00000000000E+00 -0.00000000000E+00 -0.21562342478E+02  0.21562342478E+02  0.00000000000E+00 0.  1.
          1    1    1    2  501    0  0.34566898467E+02  0.25995326746E+01  0.10432361883E+02  0.36200306825E+02  0.00000000000E+00 0. -1.
         -1    1    1    2    0  503 -0.34566898467E+02 -0.25995326746E+01  0.25937232887E+02  0.43293972901E+02  0.00000000000E+00 0.  1.
<mgrwt>
<rscale>  2 0.34664507E+02</rscale>
<asrwt>0</asrwt>
<pdfrwt beam="1">  1       21 0.89126057E-02 0.34664507E+02</pdfrwt>
<pdfrwt beam="2">  1       21 0.33172835E-02 0.34664507E+02</pdfrwt>
<totfact> 0.42179857E+07</totfact>
</mgrwt>
</event>
<event>
 4    1  0.7521660E+004  0.3603600E+02  0.7546771E-02  0.1539588E+00
         21   -1    0    0  501  502  0.00000000000E+00  0.00000000000E+00  0.35021725017E+01  0.35021725017E+01  0.00000000000E+00 0.  1.
         21   -1    0    0  502  503 -0.00000000000E+00 -0.00000000000E+00 -0.39948466281E+03  0.39948466281E+03  0.00000000000E+00 0.  1.
          2    1    1    2  501    0 -0.77208386121E+01 -0.35199173912E+02 -0.25198734863E+03  0.25455101073E+03  0.00000000000E+00 0.  1.
         -2    1    1    2    0  503  0.77208386121E+01  0.35199173912E+02 -0.14399514168E+03  0.14843582459E+03  0.00000000000E+00 0. -1.
<mgrwt>
<rscale>  2 0.36035999E+02</rscale>
<asrwt>0</asrwt>
<pdfrwt beam="1">  1       21 0.53879551E-03 0.36035999E+02</pdfrwt>
<pdfrwt beam="2">  1       21 0.61459208E-01 0.36035999E+02</pdfrwt>
<totfact> 0.20728813E+07</totfact>
</mgrwt>
</event>
<event>
 4    1  0.7521660E+004  0.2017054E+02  0.7546771E-02  0.1741958E+00
         21   -1    0    0  501  502  0.00000000000E+00  0.00000000000E+00  0.22215484427E+04  0.22215484427E+04  0.00000000000E+00 0. -1.
         21   -1    0    0  502  503 -0.00000000000E+00 -0.00000000000E+00 -0.19583297408E+00  0.19583297408E+00  0.00000000000E+00 0. -1.
          3    1    1    2  501    0 -0.66394108706E+01 -0.19046490343E+02  0.13935106883E+04  0.13936566611E+04  0.00000000000E+00 0.  1.
         -3    1    1    2    0  503  0.66394108706E+01  0.19046490343E+02  0.82784192145E+03  0.82808761462E+03  0.00000000000E+00 0. -1.
<mgrwt>
<rscale>  2 0.20170537E+02</rscale>
<asrwt>0</asrwt>
<pdfrwt beam="1">  1       21 0.34175650E+00 0.20170537E+02</pdfrwt>
<pdfrwt beam="2">  1       21 0.30129929E-04 0.20170537E+02</pdfrwt>
<totfact> 0.16496124E+07</totfact>
</mgrwt>
</event>
<event>
 4    1  0.7521660E+004  0.2957404E+02  0.7546771E-02  0.1602845E+00
         21   -1    0    0  503  502  0.00000000000E+00  0.00000000000E+00  0.77256185808E+01  0.77256185808E+01  0.00000000000E+00 0.  1.
         21   -1    0    0  501  503 -0.00000000000E+00 -0.00000000000E+00 -0.11791788212E+03  0.11791788212E+03  0.00000000000E+00 0.  1.
          2    1    1    2  501    0  0.29163912715E+02  0.49081841169E+01 -0.42544724971E+02  0.51813875546E+02  0.00000000000E+00 0. -1.
         -2    1    1    2    0  502 -0.29163912715E+02 -0.49081841169E+01 -0.67647538564E+02  0.73829625151E+02  0.00000000000E+00 0.  1.
<mgrwt>
<rscale>  2 0.29574044E+02</rscale>
<asrwt>0</asrwt>
<pdfrwt beam="1">  1       21 0.11885567E-02 0.29574044E+02</pdfrwt>
<pdfrwt beam="2">  1       21 0.18141212E-01 0.29574044E+02</pdfrwt>
<totfact> 0.59757792E+07</totfact>
</mgrwt>
</event>
<event>
 4    1  0.7521660E+004  0.2073829E+02  0.7546771E-02  0.1731033E+00
         21   -1    0    0  503  502  0.00000000000E+00  0.00000000000E+00  0.13023595020E+02  0.13023595020E+02  0.00000000000E+00 0.  1.
         21   -1    0    0  501  503 -0.00000000000E+00 -0.00000000000E+00 -0.37256481745E+02  0.37256481745E+02  0.00000000000E+00 0.  1.
          4    1    1    2  501    0 -0.95879037254E+01  0.18388824870E+02 -0.36418400765E+01  0.21055635281E+02  0.00000000000E+00 0.  1.
         -4    1    1    2    0  502  0.95879037254E+01 -0.18388824870E+02 -0.20591046649E+02  0.29224441484E+02  0.00000000000E+00 0. -1.
<mgrwt>
<rscale>  2 0.20738293E+02</rscale>
<asrwt>0</asrwt>
<pdfrwt beam="1">  1       21 0.20036300E-02 0.20738293E+02</pdfrwt>
<pdfrwt beam="2">  1       21 0.57317664E-02 0.20738293E+02</pdfrwt>
<totfact> 0.16651640E+08</totfact>
</mgrwt>
</event>
<event>
 4    1  0.7521660E+004  0.2198201E+02  0.7546771E-02  0.1708563E+00
         21   -1    0    0  501  502  0.00000000000E+00  0.00000000000E+00  0.19237404286E+03  0.19237404286E+03  0.00000000000E+00 0.  1.
         21   -1    0    0  502  503 -0.00000000000E+00 -0.00000000000E+00 -0.31618003570E+01  0.31618003570E+01  0.00000000000E+00 0.  1.
          5    1    1    2  501    0  0.20073225281E+02  0.89595954815E+01  0.50277961682E+02  0.54873328268E+02  0.00000000000E+00 0. -1.
         -5    1    1    2    0  503 -0.20073225281E+02 -0.89595954815E+01  0.13893428082E+03  0.14066251495E+03  0.00000000000E+00 0.  1.
<mgrwt>
<rscale>  2 0.21982009E+02</rscale>
<asrwt>0</asrwt>
<pdfrwt beam="1">  1       21 0.29595997E-01 0.21982009E+02</pdfrwt>
<pdfrwt beam="2">  1       21 0.48643098E-03 0.21982009E+02</pdfrwt>
<totfact> 0.88530186E+07</totfact>
</mgrwt>
</event>
<event>
 4    1  0.7521660E+004  0.2786318E+02  0.7546771E-02  0.1622985E+00
         21   -1    0    0  503  502  0.00000000000E+00  0.00000000000E+00  0.47391371091E+01  0.47391371091E+01  0.00000000000E+00 0. -1.
         21   -1    0    0  501  503 -0.00000000000E+00 -0.00000000000E+00 -0.16438460509E+03  0.16438460509E+03  0.00000000000E+00 0. -1.
          2    1    1    2  501    0  0.53506944062E+01 -0.27344594089E+02 -0.74858867850E+02  0.79876197032E+02  0.00000000000E+00 0.  1.
         -2    1    1    2    0  502 -0.53506944062E+01  0.27344594089E+02 -0.84786600131E+02  0.89247545167E+02  0.00000000000E+00 0. -1.
<mgrwt>
<rscale>  2 0.27863179E+02</rscale>
<asrwt>0</asrwt>
<pdfrwt beam="1">  1       21 0.72909798E-03 0.27863179E+02</pdfrwt>
<pdfrwt beam="2">  1       21 0.25289940E-01 0.27863179E+02</pdfrwt>
<totfact> 0.68418667E+07</totfact>
</mgrwt>
</event>
<event>
 4    1  0.7521660E+004  0.2087303E+02  0.7546771E-02  0.1728504E+00
         21   -1    0    0  503  502  0.00000000000E+00  0.00000000000E+00  0.16292623223E+03  0.16292623223E+03  0.00000000000E+00 0. -1.
         21   -1    0    0  501  503 -0.00000000000E+00 -0.00000000000E+00 -0.29088137582E+01  0.29088137582E+01  0.00000000000E+00 0. -1.
          4    1    1    2  501    0 -0.18335159729E+02 -0.99752365239E+01  0.56455826326E+02  0.60190894263E+02  0.00000000000E+00 0.  1.
         -4    1    1    2    0  502  0.18335159729E+02  0.99752365239E+01  0.10356159215E+03  0.10564415173E+03  0.00000000000E+00 0. -1.
<mgrwt>
<rscale>  2 0.20873031E+02</rscale>
<asrwt>0</asrwt>
<pdfrwt beam="1">  1       21 0.25065567E-01 0.20873031E+02</pdfrwt>
<pdfrwt beam="2">  1       21 0.44750994E-03 0.20873031E+02</pdfrwt>
<totfact> 0.13287390E+08</totfact>
</mgrwt>
</event>
<event>
 4    1  0.7521660E+004  0.2105776E+02  0.7546771E-02  0.1725076E+00
         21   -1    0    0  501  502  0.00000000000E+00  0.00000000000E+00  0.11479088258E+02  0.11479088258E+02  0.00000000000E+00 0.  1.
         21   -1    0    0  502  503 -0.00000000000E+00 -0.00000000000E+00 -0.40120658728E+02  0.40120658728E+02  0.00000000000E+00 0.  1.
          3    1    1    2  501    0 -0.15558592974E+02 -0.14190119902E+02 -0.93465948837E+01  0.23038840120E+02  0.00000000000E+00 0.  1.
         -3    1    1    2    0  503  0.15558592974E+02  0.14190119902E+02 -0.19294975586E+02  0.28560906866E+02  0.00000000000E+00 0. -1.
<mgrwt>
<rscale>  2 0.21057761E+02</rscale>
<asrwt>0</asrwt>
<pdfrwt beam="1">  1       21 0.17660136E-02 0.21057761E+02</pdfrwt>
<pdfrwt beam="2">  1       21 0.61724090E-02 0.21057761E+02</pdfrwt>
<totfact> 0.18019654E+08</totfact>
</mgrwt>
</event>
<event>
 4    1  0.7521660E+004  0.3023414E+02  0.7546771E-02  0.1595515E+00
         21   -1    0    0  503  502  0.00000000000E+00  0.00000000000E+00  0.43184892292E+02  0.43184892292E+02  0.00000000000E+00 0.  1.
         21   -1    0    0  501  503 -0.00000000000E+00 -0.00000000000E+00 -0.21703819669E+02  0.21703819669E+02  0.00000000000E+00 0.  1.
          3    1    1    2  501    0  0.25129440903E+02  0.16811143262E+02  0.15842102922E+02  0.34133203232E+02  0.00000000000E+00 0. -1.
         -3    1    1    2    0  502 -0.25129440903E+02 -0.16811143262E+02  0.56389697000E+01  0.30755508729E+02  0.00000000000E+00 0.  1.
<mgrwt>
<rscale>  2 0.30234142E+02</rscale>
<asrwt>0</asrwt>
<pdfrwt beam="1">  1       21 0.66438296E-02 0.30234142E+02</pdfrwt>
<pdfrwt beam="2">  1       21 0.33390492E-02 0.30234142E+02</pdfrwt>
<totfact> 0.65814917E+07</totfact>
</mgrwt>
</event>
<event>
 4    1  0.7521660E+004  0.2112037E+02  0.7546771E-02  0.1723924E+00
         21   -1    0    0  501  502  0.00000000000E+00  0.00000000000E+00  0.39424419638E+01  0.39424419638E+01  0.00000000000E+00 0. -1.
         21   -1    0    0  502  503 -0.00000000000E+00 -0.00000000000E+00 -0.19445019311E+03  0.19445019311E+03  0.00000000000E+00 0. -1.
          4    1    1    2  501    0 -0.59907296662E+00 -0.21111867161E+02 -0.15939683516E+03  0.16078998999E+03  0.00000000000E+00 0. -1.
         -4    1    1    2    0  503  0.59907296662E+00  0.21111867161E+02 -0.31110915984E+02  0.37602645077E+02  0.00000000000E+00 0.  1.
<mgrwt>
<rscale>  2 0.21120365E+02</rscale>
<asrwt>0</asrwt>
<pdfrwt beam="1">  1       21 0.60652960E-03 0.21120365E+02</pdfrwt>
<pdfrwt beam="2">  1       21 0.29915411E-01 0.21120365E+02</pdfrwt>
<totfact> 0.62049846E+07</totfact>
</mgrwt>
</event>
<event>
 4    1  0.7521660E+004  0.4247548E+02  0.7546771E-02  0.1490747E+00
         21   -1    0    0  501  502  0.00000000000E+00  0.00000000000E+00  0.10858184744E+03  0.10858184744E+03  0.00000000000E+00 0.  1.
         21   -1    0    0  502  503 -0.00000000000E+00 -0.00000000000E+00 -0.16718652949E+02  0.16718652949E+02  0.00000000000E+00 0.  1.
          3    1    1    2  501    0  0.38387876325E+02  0.18180676109E+02  0.41015839535E+02  0.59046296457E+02  0.00000000000E+00 0.  1.
         -3    1    1    2    0  503 -0.38387876325E+02 -0.18180676109E+02  0.50847354956E+02  0.66254203931E+02  0.00000000000E+00 0. -1.
<mgrwt>
<rscale>  2 0.42475476E+02</rscale>
<asrwt>0</asrwt>
<pdfrwt beam="1">  1       21 0.16704899E-01 0.42475476E+02</pdfrwt>
<pdfrwt beam="2">  1       21 0.25721005E-02 0.42475476E+02</pdfrwt>
<totfact> 0.22332247E+07</totfact>
</mgrwt>
</event>
<event>
 4    1  0.7521660E+004  0.2076417E+02  0.7546771E-02  0.1730545E+00
         21   -1    0    0  503  502  0.00000000000E+00  0.00000000000E+00  0.10245636903E+04  0.10245636903E+04  0.00000000000E+00 0. -1.
         21   -1    0    0  501  503 -0.00000000000E+00 -0.00000000000E+00 -0.42262435818E+00  0.42262435818E+00  0.00000000000E+00 0. -1.
          3    1    1    2  501    0  0.15899114237E+02 -0.13355475634E+02  0.47852657163E+03  0.47897685781E+03  0.00000000000E+00 0.  1.
         -3    1    1    2    0  502 -0.15899114237E+02  0.13355475634E+02  0.54561449432E+03  0.54600945685E+03  0.00000000000E+00 0. -1.
<mgrwt>
<rscale>  2 0.20764165E+02</rscale>
<asrwt>0</asrwt>
<pdfrwt beam="1">  1       21 0.15762319E+00 0.20764165E+02</pdfrwt>
<pdfrwt beam="2">  1       21 0.65019952E-04 0.20764165E+02</pdfrwt>
<totfact> 0.50634421E+07</totfact>
</mgrwt>
</event>
<event>
 4    1  0.7521660E+004  0.3295321E+02  0.7546771E-02  0.1567566E+00
         21   -1    0    0  501  502  0.00000000000E+00  0.00000000000E+00  0.63742663529E+02  0.63742663529E+02  0.00000000000E+00 0. -1.
         21   -1    0    0  502  503 -0.00000000000E+00 -0.00000000000E+00 -0.17296359135E+02  0.17296359135E+02  0.00000000000E+00 0. -1.
          3    1    1    2  501    0 -0.15611064388E+02  0.29020836405E+02  0.28195349326E+02  0.43369251787E+02  0.00000000000E+00 0. -1.
         -3    1    1    2    0  503  0.15611064388E+02 -0.29020836405E+02  0.18250955068E+02  0.37669770876E+02  0.00000000000E+00 0.  1.
<mgrwt>
<rscale>  2 0.32953213E+02</rscale>
<asrwt>0</asrwt>
<pdfrwt beam="1">  1       21 0.98065635E-02 0.32953213E+02</pdfrwt>
<pdfrwt beam="2">  1       21 0.26609784E-02 0.32953213E+02</pdfrwt>
<totfact> 0.50376750E+07</totfact>
</mgrwt>
</event>
<event>
 4    1  0.7521660E+004  0.2643678E+02  0.7546771E-02  0.1641183E+00
         21   -1    0    0  503  502  0.00000000000E+00  0.00000000000E+00  0.94175081674E+02  0.94175081674E+02  0.00000000000E+00 0. -1.
         21   -1    0    0  501  503 -0.00000000000E+00 -0.00000000000E+00 -0.94626251231E+01  0.94626251231E+01  0.00000000000E+00 0. -1.
          2    1    1    2  501    0  0.25906657416E+02  0.52676598573E+01  0.66424020776E+02  0.71491633601E+02  0.00000000000E+00 0.  1.
         -2    1    1    2    0  502 -0.25906657416E+02 -0.52676598573E+01  0.18288435775E+02  0.32146073197E+02  0.00000000000E+00 0. -1.
<mgrwt>
<rscale>  2 0.26436776E+02</rscale>
<asrwt>0</asrwt>
<pdfrwt beam="1">  1       21 0.14488473E-01 0.26436776E+02</pdfrwt>
<pdfrwt beam="2">  1       21 0.14557885E-02 0.26436776E+02</pdfrwt>
<totfact> 0.62995124E+07</totfact>
</mgrwt>
</event>
<event>
 4    1  0.7521660E+004  0.2616915E+02  0.7546771E-02  0.1644755E+00
         21   -1    0    0  503  502  0.00000000000E+00  0.00000000000E+00  0.46418454647E+03  0.46418454647E+03  0.00000000000E+00 0. -1.
         21   -1    0    0  501  503 -0.00000000000E+00 -0.00000000000E+00 -0.16013193418E+01  0.16013193418E+01  0.00000000000E+00 0. -1.
          4    1    1    2  501    0 -0.25287839621E+02  0.67342197609E+01  0.29661780695E+03  0.29776995811E+03  0.00000000000E+00 0.  1.
         -4    1    1    2    0  502  0.25287839621E+02 -0.67342197609E+01  0.16596542018E+03  0.16801590771E+03  0.00000000000E+00 0. -1.
<mgrwt>
<rscale>  2 0.26169153E+02</rscale>
<asrwt>0</asrwt>
<pdfrwt beam="1">  1       21 0.71412900E-01 0.26169153E+02</pdfrwt>
<pdfrwt beam="2">  1       21 0.24635719E-03 0.26169153E+02</pdfrwt>
<totfact> 0.45673673E+07</totfact>
</mgrwt>
</event>
<event>
 4    1  0.7521660E+004  0.4009863E+02  0.7546771E-02  0.1507487E+00
         21   -1    0    0  503  502  0.00000000000E+00  0.00000000000E+00  0.17419270346E+02  0.17419270346E+02  0.00000000000E+00 0.  1.
         21   -1    0    0  501  503 -0.00000000000E+00 -0.00000000000E+00 -0.93264396662E+02  0.93264396662E+02  0.00000000000E+00 0.  1.
          3    1    1    2  501    0 -0.25496127482E+01  0.40017488435E+02 -0.43533180907E+02  0.59186465900E+02  0.00000000000E+00 0. -1.
         -3    1    1    2    0  502  0.25496127482E+01 -0.40017488435E+02 -0.32311945409E+02  0.51497201108E+02  0.00000000000E+00 0.  1.
<mgrwt>
<rscale>  2 0.40098627E+02</rscale>
<asrwt>0</asrwt>
<pdfrwt beam="1">  1       21 0.26798878E-02 0.40098627E+02</pdfrwt>
<pdfrwt beam="2">  1       21 0.14348368E-01 0.40098627E+02</pdfrwt>
<totfact> 0.27034297E+07</totfact>
</mgrwt>
</event>
<event>
 4    1  0.7521660E+004  0.2019668E+02  0.7546771E-02  0.1741445E+00
         21   -1    0    0  501  502  0.00000000000E+00  0.00000000000E+00  0.92769161302E+02  0.92769161302E+02  0.00000000000E+00 0. -1.
         21   -1    0    0  502  503 -0.00000000000E+00 -0.00000000000E+00 -0.72588761354E+01  0.72588761354E+01  0.00000000000E+00 0. -1.
          2    1    1    2  501    0  0.21289797292E+01 -0.20084161085E+02  0.74158957671E+02  0.76859983633E+02  0.00000000000E+00 0. -1.
         -2    1    1    2    0  503 -0.21289797292E+01  0.20084161085E+02  0.11351327495E+02  0.23168053804E+02  0.00000000000E+00 0.  1.
<mgrwt>
<rscale>  2 0.20196685E+02</rscale>
<asrwt>0</asrwt>
<pdfrwt beam="1">  1       21 0.14272178E-01 0.20196685E+02</pdfrwt>
<pdfrwt beam="2">  1       21 0.11167502E-02 0.20196685E+02</pdfrwt>
<totfact> 0.89835066E+07</totfact>
</mgrwt>
</event>
<event>
 4    1  0.7521660E+004  0.3178728E+02  0.7546771E-02  0.1579133E+00
         21   -1    0    0  501  502  0.00000000000E+00  0.00000000000E+00  0.31346077348E+02  0.31346077348E+02  0.00000000000E+00 0. -1.
         21   -1    0    0  502  503 -0.00000000000E+00 -0.00000000000E+00 -0.59621544174E+02  0.59621544174E+02  0.00000000000E+00 0. -1.
          5    1    1    2  501    0  0.34005415102E+01  0.31604860112E+02  0.16688918925E+02  0.35901962066E+02  0.00000000000E+00 0. -1.
         -5    1    1    2    0  503 -0.34005415102E+01 -0.31604860112E+02 -0.44964385752E+02  0.55065659456E+02  0.00000000000E+00 0.  1.
<mgrwt>
<rscale>  2 0.31787275E+02</rscale>
<asrwt>0</asrwt>
<pdfrwt beam="1">  1       21 0.48224734E-02 0.31787275E+02</pdfrwt>
<pdfrwt beam="2">  1       21 0.91725453E-02 0.31787275E+02</pdfrwt>
<totfact> 0.21746277E+07</totfact>
</mgrwt>
</event>
<event>
 4    1  0.7521660E+004  0.2125201E+02  0.7546771E-02  0.1721519E+00
         21   -1    0    0  501  502  0.00000000000E+00  0.00000000000E+00  0.31061524612E+03  0.31061524612E+03  0.00000000000E+00 0. -1.
         21   -1    0    0  502  503 -0.00000000000E+00 -0.00000000000E+00 -0.14798300220E+01  0.14798300220E+01  0.00000000000E+00 0. -1.
          5    1    1    2  501    0  0.16115979913E+00 -0.21251402824E+02  0.13396866779E+03  0.13564384263E+03  0.00000000000E+00 0.  1.
         -5    1    1    2    0  503 -0.16115979913E+00  0.21251402824E+02  0.17516674831E+03  0.17645123351E+03  0.00000000000E+00 0. -1.
<mgrwt>
<rscale>  2 0.21252014E+02</rscale>
<asrwt>0</asrwt>
<pdfrwt beam="1">  1       21 0.47786909E-01 0.21252014E+02</pdfrwt>
<pdfrwt beam="2">  1       21 0.22766640E-03 0.21252014E+02</pdfrwt>
<totfact> 0.10853890E+08</totfact>
</mgrwt>
</event>
<event>
 4    1  0.7521660E+004  0.2713727E+02  0.7546771E-02  0.1632074E+00
         21   -1    0    0  503  502  0.00000000000E+00  0.00000000000E+00  0.20632664148E+04  0.20632664148E+04  0.00000000000E+00 0. -1.
         21   -1    0    0  501  503 -0.00000000000E+00 -0.00000000000E+00 -0.39046581575E+00  0.39046581575E+00  0.00000000000E+00 0. -1.
          5    1    1    2  501    0  0.15469739204E+02  0.22296158812E+02  0.72902370355E+03  0.72952860935E+03  0.00000000000E+00 0. -1.
         -5    1    1    2    0  502 -0.15469739204E+02 -0.22296158812E+02  0.13338522454E+04  0.13341282713E+04  0.00000000000E+00 0.  1.
<mgrwt>
<rscale>  2 0.27137272E+02</rscale>
<asrwt>0</asrwt>
<pdfrwt beam="1">  1       21 0.31741687E+00 0.27137272E+02</pdfrwt>
<pdfrwt beam="2">  1       21 0.60073316E-04 0.27137272E+02</pdfrwt>
<totfact> 0.82491536E+06</totfact>
</mgrwt>
</event>
<event>
 4    1  0.7521660E+004  0.2735775E+02  0.7546771E-02  0.1629277E+00
         21   -1    0    0  503  502  0.00000000000E+00  0.00000000000E+00  0.69360944107E+02  0.69360944107E+02  0.00000000000E+00 0.  1.
         21   -1    0    0  501  503 -0.00000000000E+00 -0.00000000000E+00 -0.17896401606E+02  0.17896401606E+02  0.00000000000E+00 0.  1.
          5    1    1    2  501    0  0.26330381593E+02 -0.74268251640E+01  0.53223582332E+02  0.59843098542E+02  0.00000000000E+00 0. -1.
         -5    1    1    2    0  502 -0.26330381593E+02  0.74268251640E+01 -0.17590398305E+01  0.27414247171E+02  0.00000000000E+00 0.  1.
<mgrwt>
<rscale>  2 0.27357754E+02</rscale>
<asrwt>0</asrwt>
<pdfrwt beam="1">  1       21 0.10670914E-01 0.27357754E+02</pdfrwt>
<pdfrwt beam="2">  1       21 0.27532926E-02 0.27357754E+02</pdfrwt>
<totfact> 0.39815672E+07</totfact>
</mgrwt>
</event>
<event>
 4    1  0.7521660E+004  0.2211886E+02  0.7546771E-02  0.1706204E+00
         21   -1    0    0  501  502  0.00000000000E+00  0.00000000000E+00  0.50334787214E+02  0.50334787214E+02  0.00000000000E+00 0. -1.
         21   -1    0    0  502  503 -0.00000000000E+00 -0.00000000000E+00 -0.10990949985E+02  0.10990949985E+02  0.00000000000E+00 0. -1.
          1    1    1    2  501    0 -0.10119971654E+02  0.19667995641E+02  0.30099754693E+02  0.37352899638E+02  0.00000000000E+00 0. -1.
         -1    1    1    2    0  503  0.10119971654E+02 -0.19667995641E+02  0.92440825358E+01  0.23972837561E+02  0.00000000000E+00 0.  1.
<mgrwt>
<rscale>  2 0.22118858E+02</rscale>
<asrwt>0</asrwt>
<pdfrwt beam="1">  1       21 0.77438133E-02 0.22118858E+02</pdfrwt>
<pdfrwt beam="2">  1       21 0.16909154E-02 0.22118858E+02</pdfrwt>
<totfact> 0.13553880E+08</totfact>
</mgrwt>
</event>
<event>
 4    1  0.7521660E+004  0.2648854E+02  0.7546771E-02  0.1640498E+00
         21   -1    0    0  503  502  0.00000000000E+00  0.00000000000E+00  0.66403594883E+01  0.66403594883E+01  0.00000000000E+00 0.  1.
         21   -1    0    0  501  503 -0.00000000000E+00 -0.00000000000E+00 -0.11298257836E+03  0.11298257836E+03  0.00000000000E+00 0.  1.
          3    1    1    2  501    0 -0.25378367986E+02 -0.75882128322E+01 -0.68394514131E+02  0.73344748270E+02  0.00000000000E+00 0.  1.
         -3    1    1    2    0  502  0.25378367986E+02  0.75882128322E+01 -0.37947704745E+02  0.46278189583E+02  0.00000000000E+00 0. -1.
<mgrwt>
<rscale>  2 0.26488536E+02</rscale>
<asrwt>0</asrwt>
<pdfrwt beam="1">  1       21 0.10215937E-02 0.26488536E+02</pdfrwt>
<pdfrwt beam="2">  1       21 0.17381936E-01 0.26488536E+02</pdfrwt>
<totfact> 0.78883123E+07</totfact>
</mgrwt>
</event>
<event>
 4    1  0.7521660E+004  0.3022630E+02  0.7546771E-02  0.1595601E+00
         21   -1    0    0  503  502  0.00000000000E+00  0.00000000000E+00  0.18684709872E+02  0.18684709872E+02  0.00000000000E+00 0. -1.
         21   -1    0    0  501  503 -0.00000000000E+00 -0.00000000000E+00 -0.52051400818E+02  0.52051400818E+02  0.00000000000E+00 0. -1.
          2    1    1    2  501    0  0.14504210940E+02  0.26518996032E+02 -0.79768724934E+01  0.31261154495E+02  0.00000000000E+00 0.  1.
         -2    1    1    2    0  502 -0.14504210940E+02 -0.26518996032E+02 -0.25389818452E+02  0.39474956195E+02  0.00000000000E+00 0. -1.
<mgrwt>
<rscale>  2 0.30226301E+02</rscale>
<asrwt>0</asrwt>
<pdfrwt beam="1">  1       21 0.28745708E-02 0.30226301E+02</pdfrwt>
<pdfrwt beam="2">  1       21 0.80079078E-02 0.30226301E+02</pdfrwt>
<totfact> 0.61333687E+07</totfact>
</mgrwt>
</event>
<event>
 4    1  0.7521660E+004  0.2275170E+02  0.7546771E-02  0.1695567E+00
         21   -1    0    0  503  502  0.00000000000E+00  0.00000000000E+00  0.32674202623E+01  0.32674202623E+01  0.00000000000E+00 0. -1.
         21   -1    0    0  501  503 -0.00000000000E+00 -0.00000000000E+00 -0.17215414858E+03  0.17215414858E+03  0.00000000000E+00 0. -1.
          5    1    1    2  501    0  0.20680259807E+02  0.94850702466E+01 -0.10921316955E+03  0.11155785990E+03  0.00000000000E+00 0. -1.
         -5    1    1    2    0  502 -0.20680259807E+02 -0.94850702466E+01 -0.59673558766E+02  0.63863708936E+02  0.00000000000E+00 0.  1.
<mgrwt>
<rscale>  2 0.22751697E+02</rscale>
<asrwt>0</asrwt>
<pdfrwt beam="1">  1       21 0.50267998E-03 0.22751697E+02</pdfrwt>
<pdfrwt beam="2">  1       21 0.26485257E-01 0.22751697E+02</pdfrwt>
<totfact> 0.10400912E+08</totfact>
</mgrwt>
</event>
<event>
 4    1  0.7521660E+004  0.4042483E+02  0.7546771E-02  0.1505108E+00
         21   -1    0    0  503  502  0.00000000000E+00  0.00000000000E+00  0.11848320803E+03  0.11848320803E+03  0.00000000000E+00 0. -1.
         21   -1    0    0  501  503 -0.00000000000E+00 -0.00000000000E+00 -0.21564676524E+02  0.21564676524E+02  0.00000000000E+00 0. -1.
          2    1    1    2  501    0  0.24913984668E+02 -0.31834893553E+02  0.64205563356E+01  0.40931535804E+02  0.00000000000E+00 0. -1.
         -2    1    1    2    0  502 -0.24913984668E+02  0.31834893553E+02  0.90497975173E+02  0.99116348753E+02  0.00000000000E+00 0.  1.
<mgrwt>
<rscale>  2 0.40424832E+02</rscale>
<asrwt>0</asrwt>
<pdfrwt beam="1">  1       21 0.18228186E-01 0.40424832E+02</pdfrwt>
<pdfrwt beam="2">  1       21 0.33176426E-02 0.40424832E+02</pdfrwt>
<totfact> 0.12684489E+07</totfact>
</mgrwt>
</event>
<event>
 4    1  0.7521660E+004  0.2018684E+02  0.7546771E-02  0.1741638E+00
         21   -1    0    0  503  502  0.00000000000E+00  0.00000000000E+00  0.12514666473E+02  0.12514666473E+02  0.00000000000E+00 0.  1.
         21   -1    0    0  501  503 -0.00000000000E+00 -0.00000000000E+00 -0.33513153814E+02  0.33513153814E+02  0.00000000000E+00 0.  1.
          1    1    1    2  501    0  0.12642564208E+02 -0.15737669080E+02 -0.14375362200E+02  0.24782245584E+02  0.00000000000E+00 0.  1.
         -1    1    1    2    0  502 -0.12642564208E+02  0.15737669080E+02 -0.66231251413E+01  0.21245574703E+02  0.00000000000E+00 0. -1.
<mgrwt>
<rscale>  2 0.20186844E+02</rscale>
<asrwt>0</asrwt>
<pdfrwt beam="1">  1       21 0.19253334E-02 0.20186844E+02</pdfrwt>
<pdfrwt beam="2">  1       21 0.51558697E-02 0.20186844E+02</pdfrwt>
<totfact> 0.20762227E+08</totfact>
</mgrwt>
</event>
<event>
 4    1  0.7521660E+004  0.7157551E+02  0.7546771E-02  0.1354816E+00
         21   -1    0    0  503  502  0.00000000000E+00  0.00000000000E+00  0.12202580430E+03  0.12202580430E+03  0.00000000000E+00 0. -1.
         21   -1    0    0  501  503 -0.00000000000E+00 -0.00000000000E+00 -0.22075103229E+03  0.22075103229E+03  0.00000000000E+00 0. -1.
          4    1    1    2  501    0  0.52482205359E+02  0.48669007286E+02 -0.20359464695E+03  0.21580971808E+03  0.00000000000E+00 0. -1.
         -4    1    1    2    0  502 -0.52482205359E+02 -0.48669007286E+02  0.10486941896E+03  0.12696711851E+03  0.00000000000E+00 0.  1.
<mgrwt>
<rscale>  2 0.71575514E+02</rscale>
<asrwt>0</asrwt>
<pdfrwt beam="1">  1       21 0.18773201E-01 0.71575514E+02</pdfrwt>
<pdfrwt beam="2">  1       21 0.33961697E-01 0.71575514E+02</pdfrwt>
<totfact> 0.22382550E+05</totfact>
</mgrwt>
</event>
<event>
 4    1  0.7521660E+004  0.3825878E+02  0.7546771E-02  0.1521430E+00
         21   -1    0    0  501  502  0.00000000000E+00  0.00000000000E+00  0.24439988799E+03  0.24439988799E+03  0.00000000000E+00 0.  1.
         21   -1    0    0  502  503 -0.00000000000E+00 -0.00000000000E+00 -0.21193042649E+02  0.21193042649E+02  0.00000000000E+00 0.  1.
          5    1    1    2  501    0 -0.11480674007E+02  0.36495598431E+02  0.22408153440E+03  0.22732414883E+03  0.00000000000E+00 0.  1.
         -5    1    1    2    0  503  0.11480674007E+02 -0.36495598431E+02 -0.87468905928E+00  0.38268781813E+02  0.00000000000E+00 0. -1.
<mgrwt>
<rscale>  2 0.38258784E+02</rscale>
<asrwt>0</asrwt>
<pdfrwt beam="1">  1       21 0.37599981E-01 0.38258784E+02</pdfrwt>
<pdfrwt beam="2">  1       21 0.32604683E-02 0.38258784E+02</pdfrwt>
<totfact> 0.34357921E+06</totfact>
</mgrwt>
</event>
<event>
 4    1  0.7521660E+004  0.2476329E+02  0.7546771E-02  0.1664425E+00
         21   -1    0    0  503  502  0.00000000000E+00  0.00000000000E+00  0.32846259401E+03  0.32846259401E+03  0.00000000000E+00 0.  1.
         21   -1    0    0  501  503 -0.00000000000E+00 -0.00000000000E+00 -0.18685137196E+01  0.18685137196E+01  0.00000000000E+00 0.  1.
          3    1    1    2  501    0  0.13593353679E+02 -0.20698818551E+02  0.15850558324E+03  0.16042830259E+03  0.00000000000E+00 0. -1.
         -3    1    1    2    0  502 -0.13593353679E+02  0.20698818551E+02  0.16808849705E+03  0.16990280514E+03  0.00000000000E+00 0.  1.
<mgrwt>
<rscale>  2 0.24763286E+02</rscale>
<asrwt>0</asrwt>
<pdfrwt beam="1">  1       21 0.50532661E-01 0.24763286E+02</pdfrwt>
<pdfrwt beam="2">  1       21 0.28746391E-03 0.24763286E+02</pdfrwt>
<totfact> 0.72185286E+07</totfact>
</mgrwt>
</event>
<event>
 4    1  0.7521660E+004  0.2627747E+02  0.7546771E-02  0.1643303E+00
         21   -1    0    0  501  502  0.00000000000E+00  0.00000000000E+00  0.12317728182E+03  0.12317728182E+03  0.00000000000E+00 0.  1.
         21   -1    0    0  502  503 -0.00000000000E+00 -0.00000000000E+00 -0.64975656586E+01  0.64975656586E+01  0.00000000000E+00 0.  1.
          5    1    1    2  501    0 -0.79965941744E+01  0.25031175103E+02  0.34319489878E+02  0.43224213479E+02  0.00000000000E+00 0.  1.
         -5    1    1    2    0  503  0.79965941744E+01 -0.25031175103E+02  0.82360226286E+02  0.86450634001E+02  0.00000000000E+00 0. -1.
<mgrwt>
<rscale>  2 0.26277466E+02</rscale>
<asrwt>0</asrwt>
<pdfrwt beam="1">  1       21 0.18950349E-01 0.26277466E+02</pdfrwt>
<pdfrwt beam="2">  1       21 0.99962558E-03 0.26277466E+02</pdfrwt>
<totfact> 0.70004338E+07</totfact>
</mgrwt>
</event>
<event>
 4    1  0.7521660E+004  0.2337324E+02  0.7546771E-02  0.1685531E+00
         21   -1    0    0  501  502  0.00000000000E+00  0.00000000000E+00  0.54520928778E+02  0.54520928778E+02  0.00000000000E+00 0.  1.
         21   -1    0    0  502  503 -0.00000000000E+00 -0.00000000000E+00 -0.15089052339E+02  0.15089052339E+02  0.00000000000E+00 0.  1.
          2    1    1    2  501    0  0.66174770180E+01  0.22416894325E+02  0.39888789582E+02  0.46232279714E+02  0.00000000000E+00 0. -1.
         -2    1    1    2    0  503 -0.66174770180E+01 -0.22416894325E+02 -0.45691314364E+00  0.23377701403E+02  0.00000000000E+00 0.  1.
<mgrwt>
<rscale>  2 0.23373236E+02</rscale>
<asrwt>0</asrwt>
<pdfrwt beam="1">  1       21 0.83878351E-02 0.23373236E+02</pdfrwt>
<pdfrwt beam="2">  1       21 0.23213927E-02 0.23373236E+02</pdfrwt>
<totfact> 0.74356816E+07</totfact>
</mgrwt>
</event>
<event>
 4    1  0.7521660E+004  0.2270178E+02  0.7546771E-02  0.1696390E+00
         21   -1    0    0  501  502  0.00000000000E+00  0.00000000000E+00  0.54293389987E+01  0.54293389987E+01  0.00000000000E+00 0.  1.
         21   -1    0    0  502  503 -0.00000000000E+00 -0.00000000000E+00 -0.97353324843E+02  0.97353324843E+02  0.00000000000E+00 0.  1.
          2    1    1    2  501    0 -0.16595107058E+02 -0.15491073731E+02 -0.54081264240E+02  0.58652826747E+02  0.00000000000E+00 0.  1.
         -2    1    1    2    0  503  0.16595107058E+02  0.15491073731E+02 -0.37842721604E+02  0.44129837094E+02  0.00000000000E+00 0. -1.
<mgrwt>
<rscale>  2 0.22701783E+02</rscale>
<asrwt>0</asrwt>
<pdfrwt beam="1">  1       21 0.83528296E-03 0.22701783E+02</pdfrwt>
<pdfrwt beam="2">  1       21 0.14977434E-01 0.22701783E+02</pdfrwt>
<totfact> 0.13224715E+08</totfact>
</mgrwt>
</event>
<event>
 4    1  0.7521660E+004  0.2403427E+02  0.7546771E-02  0.1675273E+00
         21   -1    0    0  501  502  0.00000000000E+00  0.00000000000E+00  0.12803988616E+03  0.12803988616E+03  0.00000000000E+00 0.  1.
         21   -1    0    0  502  503 -0.00000000000E+00 -0.00000000000E+00 -0.54012449497E+01  0.54012449497E+01  0.00000000000E+00 0.  1.
          4    1    1    2  501    0 -0.98226859940E+01 -0.21935385961E+02  0.88399795572E+02  0.91608788741E+02  0.00000000000E+00 0. -1.
         -4    1    1    2    0  503  0.98226859940E+01  0.21935385961E+02  0.34238845635E+02  0.41832342366E+02  0.00000000000E+00 0.  1.
<mgrwt>
<rscale>  2 0.24034274E+02</rscale>
<asrwt>0</asrwt>
<pdfrwt beam="1">  1       21 0.19698442E-01 0.24034274E+02</pdfrwt>
<pdfrwt beam="2">  1       21 0.83096086E-03 0.24034274E+02</pdfrwt>
<totfact> 0.84463594E+07</totfact>
</mgrwt>
</event>
<event>
 4    1  0.7521660E+004  0.2322398E+02  0.7546771E-02  0.1687905E+00
         21   -1    0    0  503  502  0.00000000000E+00  0.00000000000E+00  0.49412779766E+03  0.49412779766E+03  0.00000000000E+00 0.  1.
         21   -1    0    0  501  503 -0.00000000000E+00 -0.00000000000E+00 -0.12813017287E+01  0.12813017287E+01  0.00000000000E+00 0.  1.
          5    1    1    2  501    0 -0.23179998921E+02 -0.14286610611E+01  0.15109350611E+03  0.15286792015E+03  0.00000000000E+00 0. -1.
         -5    1    1    2    0  502  0.23179998921E+02  0.14286610611E+01  0.34175298981E+03  0.34254117923E+03  0.00000000000E+00 0.  1.
<mgrwt>
<rscale>  2 0.23223984E+02</rscale>
<asrwt>0</asrwt>
<pdfrwt beam="1">  1       21 0.76019509E-01 0.23223984E+02</pdfrwt>
<pdfrwt beam="2">  1       21 0.19712374E-03 0.23223984E+02</pdfrwt>
<totfact> 0.54016980E+07</totfact>
</mgrwt>
</event>
<event>
 4    1  0.7521660E+004  0.2219946E+02  0.7546771E-02  0.1704825E+00
         21   -1    0    0  501  502  0.00000000000E+00  0.00000000000E+00  0.10861578778E+03  0.10861578778E+03  0.00000000000E+00 0. -1.
         21   -1    0    0  502  503 -0.00000000000E+00 -0.00000000000E+00 -0.48779656813E+01  0.48779656813E+01  0.00000000000E+00 0. -1.
          1    1    1    2  501    0  0.20269240864E+02 -0.90539328046E+01  0.66866638360E+02  0.70455398302E+02  0.00000000000E+00 0. -1.
         -1    1    1    2    0  503 -0.20269240864E+02  0.90539328046E+01  0.36871183738E+02  0.43038355157E+02  0.00000000000E+00 0.  1.
<mgrwt>
<rscale>  2 0.22199455E+02</rscale>
<asrwt>0</asrwt>
<pdfrwt beam="1">  1       21 0.16710119E-01 0.22199455E+02</pdfrwt>
<pdfrwt beam="2">  1       21 0.75045634E-03 0.22199455E+02</pdfrwt>
<totfact> 0.12785166E+08</totfact>
</mgrwt>
</event>
<event>
 4    1  0.7521660E+004  0.2083453E+02  0.7546771E-02  0.1729224E+00
         21   -1    0    0  501  502  0.00000000000E+00  0.00000000000E+00  0.11600688738E+03  0.11600688738E+03  0.00000000000E+00 0. -1.
         21   -1    0    0  502  503 -0.00000000000E+00 -0.00000000000E+00 -0.38411563684E+01  0.38411563684E+01  0.00000000000E+00 0. -1.
          4    1    1    2  501    0 -0.17648194163E+02  0.11073333390E+02  0.46446501349E+02  0.50905352932E+02  0.00000000000E+00 0.  1.
         -4    1    1    2    0  503  0.17648194163E+02 -0.11073333390E+02  0.65719229663E+02  0.68942690817E+02  0.00000000000E+00 0. -1.
<mgrwt>
<rscale>  2 0.20834526E+02</rscale>
<asrwt>0</asrwt>
<pdfrwt beam="1">  1       21 0.17847211E-01 0.20834526E+02</pdfrwt>
<pdfrwt beam="2">  1       21 0.59094722E-03 0.20834526E+02</pdfrwt>
<totfact> 0.15968648E+08</totfact>
</mgrwt>
</event>
<event>
 4    1  0.7521660E+004  0.2338235E+02  0.7546771E-02  0.1685386E+00
         21   -1    0    0  501  502  0.00000000000E+00  0.00000000000E+00  0.81017107396E+01  0.81017107396E+01  0.00000000000E+00 0.  1.
         21   -1    0    0  502  503 -0.00000000000E+00 -0.00000000000E+00 -0.70340863460E+02  0.70340863460E+02  0.00000000000E+00 0.  1.
          3    1    1    2  501    0 -0.15661529542E+00  0.23381828400E+02 -0.23215046271E+02  0.32949549330E+02  0.00000000000E+00 0.  1.
         -3    1    1    2    0  503  0.15661529542E+00 -0.23381828400E+02 -0.39024106449E+02  0.45493024869E+02  0.00000000000E+00 0. -1.
<mgrwt>
<rscale>  2 0.23382353E+02</rscale>
<asrwt>0</asrwt>
<pdfrwt beam="1">  1       21 0.12464170E-02 0.23382353E+02</pdfrwt>
<pdfrwt beam="2">  1       21 0.10821672E-01 0.23382353E+02</pdfrwt>
<totfact> 0.12626257E+08</totfact>
</mgrwt>
</event>
<event>
 4    1  0.7521660E+004  0.3158987E+02  0.7546771E-02  0.1581152E+00
         21   -1    0    0  501  502  0.00000000000E+00  0.00000000000E+00  0.21107136030E+02  0.21107136030E+02  0.00000000000E+00 0. -1.
         21   -1    0    0  502  503 -0.00000000000E+00 -0.00000000000E+00 -0.66299161451E+02  0.66299161451E+02  0.00000000000E+00 0. -1.
          2    1    1    2  501    0 -0.51227590619E+01  0.31171735335E+02 -0.46004225992E+02  0.55805990300E+02  0.00000000000E+00 0.  1.
         -2    1    1    2    0  503  0.51227590619E+01 -0.31171735335E+02  0.81220057105E+00  0.31600307181E+02  0.00000000000E+00 0. -1.
<mgrwt>
<rscale>  2 0.31589868E+02</rscale>
<asrwt>0</asrwt>
<pdfrwt beam="1">  1       21 0.32472517E-02 0.31589868E+02</pdfrwt>
<pdfrwt beam="2">  1       21 0.10199871E-01 0.31589868E+02</pdfrwt>
<totfact> 0.34166285E+07</totfact>
</mgrwt>
</event>
<event>
 4    1  0.7521660E+004  0.2454278E+02  0.7546771E-02  0.1667657E+00
         21   -1    0    0  503  502  0.00000000000E+00  0.00000000000E+00  0.17635595581E+01  0.17635595581E+01  0.00000000000E+00 0. -1.
         21   -1    0    0  501  503 -0.00000000000E+00 -0.00000000000E+00 -0.39066050395E+03  0.39066050395E+03  0.00000000000E+00 0. -1.
          5    1    1    2  501    0 -0.92232840108E+01 -0.22743765552E+02 -0.12488153764E+03  0.12727036687E+03  0.00000000000E+00 0.  1.
         -5    1    1    2    0  502  0.92232840108E+01  0.22743765552E+02 -0.26401540675E+03  0.26515369664E+03  0.00000000000E+00 0. -1.
<mgrwt>
<rscale>  2 0.24542776E+02</rscale>
<asrwt>0</asrwt>
<pdfrwt beam="1">  1       21 0.27131649E-03 0.24542776E+02</pdfrwt>
<pdfrwt beam="2">  1       21 0.60101697E-01 0.24542776E+02</pdfrwt>
<totfact> 0.55610695E+07</totfact>
</mgrwt>
</event>
<event>
 4    1  0.7521660E+004  0.2363813E+02  0.7546771E-02  0.1681370E+00
         21   -1    0    0  501  502  0.00000000000E+00  0.00000000000E+00  0.14719372859E+01  0.14719372859E+01  0.00000000000E+00 0.  1.
         21   -1    0    0  502  503 -0.00000000000E+00 -0.00000000000E+00 -0.39178433385E+03  0.39178433385E+03  0.00000000000E+00 0.  1.
          5    1    1    2  501    0  0.13477648454E+02  0.19419423234E+02 -0.22981855919E+03  0.23103101774E+03  0.00000000000E+00 0. -1.
         -5    1    1    2    0  503 -0.13477648454E+02 -0.19419423234E+02 -0.16049383737E+03  0.16222525340E+03  0.00000000000E+00 0.  1.
<mgrwt>
<rscale>  2 0.23638126E+02</rscale>
<asrwt>0</asrwt>
<pdfrwt beam="1">  1       21 0.22645182E-03 0.23638126E+02</pdfrwt>
<pdfrwt beam="2">  1       21 0.60274532E-01 0.23638126E+02</pdfrwt>
<totfact> 0.71268689E+07</totfact>
</mgrwt>
</event>
<event>
 4    1  0.7521660E+004  0.2172693E+02  0.7546771E-02  0.1713018E+00
         21   -1    0    0  503  502  0.00000000000E+00  0.00000000000E+00  0.10330896979E+04  0.10330896979E+04  0.00000000000E+00 0. -1.
         21   -1    0    0  501  503 -0.00000000000E+00 -0.00000000000E+00 -0.47010571905E+00  0.47010571905E+00  0.00000000000E+00 0. -1.
          3    1    1    2  501    0  0.52686248237E+01 -0.21078445712E+02  0.60279498129E+03  0.60318641294E+03  0.00000000000E+00 0. -1.
         -3    1    1    2    0  502 -0.52686248237E+01  0.21078445712E+02  0.42982461085E+03  0.43037339065E+03  0.00000000000E+00 0.  1.
<mgrwt>
<rscale>  2 0.21726925E+02</rscale>
<asrwt>0</asrwt>
<pdfrwt beam="1">  1       21 0.15893506E+00 0.21726925E+02</pdfrwt>
<pdfrwt beam="2">  1       21 0.72324784E-04 0.21726925E+02</pdfrwt>
<totfact> 0.43112840E+07</totfact>
</mgrwt>
</event>
<event>
 4    1  0.7521660E+004  0.2124394E+02  0.7546771E-02  0.1721665E+00
         21   -1    0    0  501  502  0.00000000000E+00  0.00000000000E+00  0.56341598133E+00  0.56341598133E+00  0.00000000000E+00 0.  1.
         21   -1    0    0  502  503 -0.00000000000E+00 -0.00000000000E+00 -0.80493836782E+03  0.80493836782E+03  0.00000000000E+00 0.  1.
          4    1    1    2  501    0  0.40894475167E+01  0.20846613657E+02 -0.37407091842E+03  0.37467366719E+03  0.00000000000E+00 0. -1.
         -4    1    1    2    0  503 -0.40894475167E+01 -0.20846613657E+02 -0.43030403342E+03  0.43082811660E+03  0.00000000000E+00 0.  1.
<mgrwt>
<rscale>  2 0.21243938E+02</rscale>
<asrwt>0</asrwt>
<pdfrwt beam="1">  1       21 0.86678936E-04 0.21243938E+02</pdfrwt>
<pdfrwt beam="2">  1       21 0.12383731E+00 0.21243938E+02</pdfrwt>
<totfact> 0.59378906E+07</totfact>
</mgrwt>
</event>
<event>
 4    1  0.7521660E+004  0.2495782E+02  0.7546771E-02  0.1661608E+00
         21   -1    0    0  501  502  0.00000000000E+00  0.00000000000E+00  0.71388189443E+02  0.71388189443E+02  0.00000000000E+00 0. -1.
         21   -1    0    0  502  503 -0.00000000000E+00 -0.00000000000E+00 -0.10175820767E+02  0.10175820767E+02  0.00000000000E+00 0. -1.
          3    1    1    2  501    0 -0.24805703539E+02  0.27513456158E+01  0.15209543322E+02  0.29227094259E+02  0.00000000000E+00 0.  1.
         -3    1    1    2    0  503  0.24805703539E+02 -0.27513456158E+01  0.46002825354E+02  0.52336915951E+02  0.00000000000E+00 0. -1.
<mgrwt>
<rscale>  2 0.24957821E+02</rscale>
<asrwt>0</asrwt>
<pdfrwt beam="1">  1       21 0.10982798E-01 0.24957821E+02</pdfrwt>
<pdfrwt beam="2">  1       21 0.15655109E-02 0.24957821E+02</pdfrwt>
<totfact> 0.88721265E+07</totfact>
</mgrwt>
</event>
<event>
 4    1  0.7521660E+004  0.3551231E+02  0.7546771E-02  0.1544098E+00
         21   -1    0    0  501  502  0.00000000000E+00  0.00000000000E+00  0.53857183476E+03  0.53857183476E+03  0.00000000000E+00 0. -1.
         21   -1    0    0  502  503 -0.00000000000E+00 -0.00000000000E+00 -0.26774943034E+01  0.26774943034E+01  0.00000000000E+00 0. -1.
          1    1    1    2  501    0  0.34824957704E+02 -0.69531837048E+01  0.36379865702E+03  0.36552782013E+03  0.00000000000E+00 0. -1.
         -1    1    1    2    0  503 -0.34824957704E+02  0.69531837048E+01  0.17209568344E+03  0.17572150893E+03  0.00000000000E+00 0.  1.
<mgrwt>
<rscale>  2 0.35512314E+02</rscale>
<asrwt>0</asrwt>
<pdfrwt beam="1">  1       21 0.82857119E-01 0.35512314E+02</pdfrwt>
<pdfrwt beam="2">  1       21 0.41192263E-03 0.35512314E+02</pdfrwt>
<totfact> 0.16514728E+07</totfact>
</mgrwt>
</event>
<event>
 4    1  0.7521660E+004  0.2522046E+02  0.7546771E-02  0.1657855E+00
         21   -1    0    0  503  502  0.00000000000E+00  0.00000000000E+00  0.31111306506E+01  0.31111306506E+01  0.00000000000E+00 0.  1.
         21   -1    0    0  501  503 -0.00000000000E+00 -0.00000000000E+00 -0.23258236399E+03  0.23258236399E+03  0.00000000000E+00 0.  1.
          4    1    1    2  501    0  0.23895740175E+02 -0.80663079513E+01 -0.15572106513E+03  0.15775018811E+03  0.00000000000E+00 0.  1.
         -4    1    1    2    0  502 -0.23895740175E+02  0.80663079513E+01 -0.73750168206E+02  0.77943306530E+02  0.00000000000E+00 0. -1.
<mgrwt>
<rscale>  2 0.25220462E+02</rscale>
<asrwt>0</asrwt>
<pdfrwt beam="1">  1       21 0.47863543E-03 0.25220462E+02</pdfrwt>
<pdfrwt beam="2">  1       21 0.35781906E-01 0.25220462E+02</pdfrwt>
<totfact> 0.66237205E+07</totfact>
</mgrwt>
</event>
<event>
 4    1  0.7521660E+004  0.2667457E+02  0.7546771E-02  0.1638052E+00
         21   -1    0    0  503  502  0.00000000000E+00  0.00000000000E+00  0.28244857211E+01  0.28244857211E+01  0.00000000000E+00 0. -1.
         21   -1    0    0  501  503 -0.00000000000E+00 -0.00000000000E+00 -0.38441976242E+03  0.38441976242E+03  0.00000000000E+00 0. -1.
          2    1    1    2  501    0 -0.16333673815E+02 -0.21088953667E+02 -0.30447301280E+03  0.30563924550E+03  0.00000000000E+00 0.  1.
         -2    1    1    2    0  502  0.16333673815E+02  0.21088953667E+02 -0.77122263906E+02  0.81605002647E+02  0.00000000000E+00 0. -1.
<mgrwt>
<rscale>  2 0.26674573E+02</rscale>
<asrwt>0</asrwt>
<pdfrwt beam="1">  1       21 0.43453654E-03 0.26674573E+02</pdfrwt>
<pdfrwt beam="2">  1       21 0.59141464E-01 0.26674573E+02</pdfrwt>
<totfact> 0.29287762E+07</totfact>
</mgrwt>
</event>
<event>
 4    1  0.7521660E+004  0.2754776E+02  0.7546771E-02  0.1626892E+00
         21   -1    0    0  501  502  0.00000000000E+00  0.00000000000E+00  0.60191427982E+01  0.60191427982E+01  0.00000000000E+00 0.  1.
         21   -1    0    0  502  503 -0.00000000000E+00 -0.00000000000E+00 -0.15506333542E+03  0.15506333542E+03  0.00000000000E+00 0.  1.
          4    1    1    2  501    0  0.89085952918E+01 -0.26067531910E+02 -0.10934425130E+03  0.11276100648E+03  0.00000000000E+00 0. -1.
         -4    1    1    2    0  503 -0.89085952918E+01  0.26067531910E+02 -0.39699941317E+02  0.48321471734E+02  0.00000000000E+00 0.  1.
<mgrwt>
<rscale>  2 0.27547764E+02</rscale>
<asrwt>0</asrwt>
<pdfrwt beam="1">  1       21 0.92602204E-03 0.27547764E+02</pdfrwt>
<pdfrwt beam="2">  1       21 0.23855896E-01 0.27547764E+02</pdfrwt>
<totfact> 0.52894458E+07</totfact>
</mgrwt>
</event>
<event>
 4    1  0.7521660E+004  0.2149919E+02  0.7546771E-02  0.1717060E+00
         21   -1    0    0  501  502  0.00000000000E+00  0.00000000000E+00  0.14149075659E+03  0.14149075659E+03  0.00000000000E+00 0.  1.
         21   -1    0    0  502  503 -0.00000000000E+00 -0.00000000000E+00 -0.32671904333E+01  0.32671904333E+01  0.00000000000E+00 0.  1.
          2    1    1    2  501    0  0.14956575238E+01 -0.21447103885E+02  0.68273633542E+02  0.71578658087E+02  0.00000000000E+00 0. -1.
         -2    1    1    2    0  503 -0.14956575238E+01  0.21447103885E+02  0.69949932616E+02  0.73179288938E+02  0.00000000000E+00 0.  1.
<mgrwt>
<rscale>  2 0.21499192E+02</rscale>
<asrwt>0</asrwt>
<pdfrwt beam="1">  1       21 0.21767804E-01 0.21499192E+02</pdfrwt>
<pdfrwt beam="2">  1       21 0.50264479E-03 0.21499192E+02</pdfrwt>
<totfact> 0.14493216E+08</totfact>
</mgrwt>
</event>
<event>
 4    1  0.7521660E+004  0.2927122E+02  0.7546771E-02  0.1606287E+00
         21   -1    0    0  503  502  0.00000000000E+00  0.00000000000E+00  0.14542282610E+01  0.14542282610E+01  0.00000000000E+00 0. -1.
         21   -1    0    0  501  503 -0.00000000000E+00 -0.00000000000E+00 -0.59106126264E+03  0.59106126264E+03  0.00000000000E+00 0. -1.
          5    1    1    2  501    0 -0.26220890599E+02  0.13010343978E+02 -0.31151148208E+03  0.31288369664E+03  0.00000000000E+00 0. -1.
         -5    1    1    2    0  502  0.26220890599E+02 -0.13010343978E+02 -0.27809555230E+03  0.27963179426E+03  0.00000000000E+00 0.  1.
<mgrwt>
<rscale>  2 0.29271217E+02</rscale>
<asrwt>0</asrwt>
<pdfrwt beam="1">  1       21 0.22372714E-03 0.29271217E+02</pdfrwt>
<pdfrwt beam="2">  1       21 0.90932617E-01 0.29271217E+02</pdfrwt>
<totfact> 0.32197530E+07</totfact>
</mgrwt>
</event>
<event>
 4    1  0.7521660E+004  0.2090764E+02  0.7546771E-02  0.1727859E+00
         21   -1    0    0  503  502  0.00000000000E+00  0.00000000000E+00  0.16380894682E+03  0.16380894682E+03  0.00000000000E+00 0.  1.
         21   -1    0    0  501  503 -0.00000000000E+00 -0.00000000000E+00 -0.30872094254E+01  0.30872094254E+01  0.00000000000E+00 0.  1.
          3    1    1    2  501    0  0.58268824888E+01 -0.20079261163E+02  0.11109164075E+03  0.11304194767E+03  0.00000000000E+00 0. -1.
         -3    1    1    2    0  502 -0.58268824888E+01  0.20079261163E+02  0.49630096643E+02  0.53854208574E+02  0.00000000000E+00 0.  1.
<mgrwt>
<rscale>  2 0.20907637E+02</rscale>
<asrwt>0</asrwt>
<pdfrwt beam="1">  1       21 0.25201370E-01 0.20907637E+02</pdfrwt>
<pdfrwt beam="2">  1       21 0.47495542E-03 0.20907637E+02</pdfrwt>
<totfact> 0.12065750E+08</totfact>
</mgrwt>
</event>
<event>
 4    1  0.7521660E+004  0.2287902E+02  0.7546771E-02  0.1693479E+00
         21   -1    0    0  501  502  0.00000000000E+00  0.00000000000E+00  0.19257359958E+02  0.19257359958E+02  0.00000000000E+00 0.  1.
         21   -1    0    0  502  503 -0.00000000000E+00 -0.00000000000E+00 -0.29400241309E+02  0.29400241309E+02  0.00000000000E+00 0.  1.
          1    1    1    2  501    0 -0.15425023860E+02  0.16897281515E+02 -0.11754423708E+02  0.25721896516E+02  0.00000000000E+00 0. -1.
         -1    1    1    2    0  503  0.15425023860E+02 -0.16897281515E+02  0.16115423565E+01  0.22935704751E+02  0.00000000000E+00 0.  1.
<mgrwt>
<rscale>  2 0.22879018E+02</rscale>
<asrwt>0</asrwt>
<pdfrwt beam="1">  1       21 0.29626708E-02 0.22879018E+02</pdfrwt>
<pdfrwt beam="2">  1       21 0.45231141E-02 0.22879018E+02</pdfrwt>
<totfact> 0.13682748E+08</totfact>
</mgrwt>
</event>
<event>
 4    1  0.7521660E+004  0.2061502E+02  0.7546771E-02  0.1733367E+00
         21   -1    0    0  501  502  0.00000000000E+00  0.00000000000E+00  0.40835734265E+02  0.40835734265E+02  0.00000000000E+00 0. -1.
         21   -1    0    0  502  503 -0.00000000000E+00 -0.00000000000E+00 -0.10849699044E+02  0.10849699044E+02  0.00000000000E+00 0. -1.
          1    1    1    2  501    0 -0.76977684279E+01 -0.19123897488E+02  0.20212943096E+02  0.28871130260E+02  0.00000000000E+00 0.  1.
         -1    1    1    2    0  503  0.76977684279E+01  0.19123897488E+02  0.97730921247E+01  0.22814303049E+02  0.00000000000E+00 0. -1.
<mgrwt>
<rscale>  2 0.20615021E+02</rscale>
<asrwt>0</asrwt>
<pdfrwt beam="1">  1       21 0.62824206E-02 0.20615021E+02</pdfrwt>
<pdfrwt beam="2">  1       21 0.16691845E-02 0.20615021E+02</pdfrwt>
<totfact> 0.18956833E+08</totfact>
</mgrwt>
</event>
<event>
 4    1  0.7521660E+004  0.2125262E+02  0.7546771E-02  0.1721507E+00
         21   -1    0    0  503  502  0.00000000000E+00  0.00000000000E+00  0.12708751104E+03  0.12708751104E+03  0.00000000000E+00 0. -1.
         21   -1    0    0  501  503 -0.00000000000E+00 -0.00000000000E+00 -0.54542895594E+01  0.54542895594E+01  0.00000000000E+00 0. -1.
          5    1    1    2  501    0 -0.21021695525E+02  0.31244811738E+01  0.99933032931E+02  0.10216792616E+03  0.00000000000E+00 0.  1.
         -5    1    1    2    0  502  0.21021695525E+02 -0.31244811738E+01  0.21700188554E+02  0.30373874442E+02  0.00000000000E+00 0. -1.
<mgrwt>
<rscale>  2 0.21252625E+02</rscale>
<asrwt>0</asrwt>
<pdfrwt beam="1">  1       21 0.19551923E-01 0.21252625E+02</pdfrwt>
<pdfrwt beam="2">  1       21 0.83912156E-03 0.21252625E+02</pdfrwt>
<totfact> 0.81559865E+07</totfact>
</mgrwt>
</event>
<event>
 4    1  0.7521660E+004  0.2045679E+02  0.7546771E-02  0.1736394E+00
         21   -1    0    0  501  502  0.00000000000E+00  0.00000000000E+00  0.26957894505E+03  0.26957894505E+03  0.00000000000E+00 0. -1.
         21   -1    0    0  502  503 -0.00000000000E+00 -0.00000000000E+00 -0.15961970402E+01  0.15961970402E+01  0.00000000000E+00 0. -1.
          1    1    1    2  501    0  0.88441360115E+01 -0.18446180699E+02  0.15646415899E+03  0.15779579643E+03  0.00000000000E+00 0. -1.
         -1    1    1    2    0  503 -0.88441360115E+01  0.18446180699E+02  0.11151858902E+03  0.11337934565E+03  0.00000000000E+00 0.  1.
<mgrwt>
<rscale>  2 0.20456792E+02</rscale>
<asrwt>0</asrwt>
<pdfrwt beam="1">  1       21 0.41473648E-01 0.20456792E+02</pdfrwt>
<pdfrwt beam="2">  1       21 0.24556899E-03 0.20456792E+02</pdfrwt>
<totfact> 0.12608774E+08</totfact>
</mgrwt>
</event>
<event>
 4    1  0.7521660E+004  0.2803454E+02  0.7546771E-02  0.1620889E+00
         21   -1    0    0  501  502  0.00000000000E+00  0.00000000000E+00  0.29308451916E+01  0.29308451916E+01  0.00000000000E+00 0.  1.
         21   -1    0    0  502  503 -0.00000000000E+00 -0.00000000000E+00 -0.31639208266E+03  0.31639208266E+03  0.00000000000E+00 0.  1.
          5    1    1    2  501    0 -0.27652691590E+02  0.46112979676E+01 -0.21906897548E+03  0.22085549900E+03  0.00000000000E+00 0. -1.
         -5    1    1    2    0  503  0.27652691590E+02 -0.46112979676E+01 -0.94392261985E+02  0.98467428847E+02  0.00000000000E+00 0.  1.
<mgrwt>
<rscale>  2 0.28034540E+02</rscale>
<asrwt>0</asrwt>
<pdfrwt beam="1">  1       21 0.45089937E-03 0.28034540E+02</pdfrwt>
<pdfrwt beam="2">  1       21 0.48675693E-01 0.28034540E+02</pdfrwt>
<totfact> 0.41176886E+07</totfact>
</mgrwt>
</event>
<event>
 4    1  0.7521660E+004  0.3348085E+02  0.7546771E-02  0.1562520E+00
         21   -1    0    0  501  502  0.00000000000E+00  0.00000000000E+00  0.26348538364E+03  0.26348538364E+03  0.00000000000E+00 0.  1.
         21   -1    0    0  502  503 -0.00000000000E+00 -0.00000000000E+00 -0.42586776291E+01  0.42586776291E+01  0.00000000000E+00 0.  1.
          4    1    1    2  501    0 -0.30747729192E+02  0.13249307212E+02  0.12536071727E+03  0.12975467786E+03  0.00000000000E+00 0.  1.
         -4    1    1    2    0  503  0.30747729192E+02 -0.13249307212E+02  0.13386598874E+03  0.13798938341E+03  0.00000000000E+00 0. -1.
<mgrwt>
<rscale>  2 0.33480845E+02</rscale>
<asrwt>0</asrwt>
<pdfrwt beam="1">  1       21 0.40536200E-01 0.33480845E+02</pdfrwt>
<pdfrwt beam="2">  1       21 0.65518138E-03 0.33480845E+02</pdfrwt>
<totfact> 0.34765605E+07</totfact>
</mgrwt>
</event>
<event>
 4    1  0.7521660E+004  0.3538265E+02  0.7546771E-02  0.1545229E+00
         21   -1    0    0  503  502  0.00000000000E+00  0.00000000000E+00  0.95005546800E+03  0.95005546800E+03  0.00000000000E+00 0. -1.
         21   -1    0    0  501  503 -0.00000000000E+00 -0.00000000000E+00 -0.13186688143E+01  0.13186688143E+01  0.00000000000E+00 0. -1.
          2    1    1    2  501    0 -0.22970265424E+01 -0.35308014980E+02  0.48694886355E+03  0.48823265762E+03  0.00000000000E+00 0. -1.
         -2    1    1    2    0  502  0.22970265424E+01  0.35308014980E+02  0.46178793563E+03  0.46314147919E+03  0.00000000000E+00 0.  1.
<mgrwt>
<rscale>  2 0.35382655E+02</rscale>
<asrwt>0</asrwt>
<pdfrwt beam="1">  1       21 0.14616183E+00 0.35382655E+02</pdfrwt>
<pdfrwt beam="2">  1       21 0.20287288E-03 0.35382655E+02</pdfrwt>
<totfact> 0.12897842E+07</totfact>
</mgrwt>
</event>
<event>
 4    1  0.7521660E+004  0.3134448E+02  0.7546771E-02  0.1583686E+00
         21   -1    0    0  503  502  0.00000000000E+00  0.00000000000E+00  0.99172833763E+01  0.99172833763E+01  0.00000000000E+00 0. -1.
         21   -1    0    0  501  503 -0.00000000000E+00 -0.00000000000E+00 -0.99923568090E+02  0.99923568090E+02  0.00000000000E+00 0. -1.
          5    1    1    2  501    0 -0.13439873694E+02  0.28316892712E+02 -0.39918591295E+02  0.50754020025E+02  0.00000000000E+00 0. -1.
         -5    1    1    2    0  502  0.13439873694E+02 -0.28316892712E+02 -0.50087693419E+02  0.59086831441E+02  0.00000000000E+00 0.  1.
<mgrwt>
<rscale>  2 0.31344483E+02</rscale>
<asrwt>0</asrwt>
<pdfrwt beam="1">  1       21 0.15257359E-02 0.31344483E+02</pdfrwt>
<pdfrwt beam="2">  1       21 0.15372857E-01 0.31344483E+02</pdfrwt>
<totfact> 0.55060179E+07</totfact>
</mgrwt>
</event>
<event>
 4    1  0.7521660E+004  0.2066698E+02  0.7546771E-02  0.1732381E+00
         21   -1    0    0  503  502  0.00000000000E+00  0.00000000000E+00  0.13865163561E+02  0.13865163561E+02  0.00000000000E+00 0.  1.
         21   -1    0    0  501  503 -0.00000000000E+00 -0.00000000000E+00 -0.32109100702E+02  0.32109100702E+02  0.00000000000E+00 0.  1.
          5    1    1    2  501    0 -0.51032038410E+01  0.20027014499E+02 -0.13753606126E+02  0.24825101825E+02  0.00000000000E+00 0.  1.
         -5    1    1    2    0  502  0.51032038410E+01 -0.20027014499E+02 -0.44903310156E+01  0.21149162438E+02  0.00000000000E+00 0. -1.
<mgrwt>
<rscale>  2 0.20666978E+02</rscale>
<asrwt>0</asrwt>
<pdfrwt beam="1">  1       21 0.21331021E-02 0.20666978E+02</pdfrwt>
<pdfrwt beam="2">  1       21 0.49398616E-02 0.20666978E+02</pdfrwt>
<totfact> 0.19144216E+08</totfact>
</mgrwt>
</event>
<event>
 4    1  0.7521660E+004  0.2115036E+02  0.7546771E-02  0.1723374E+00
         21   -1    0    0  501  502  0.00000000000E+00  0.00000000000E+00  0.26772173184E+03  0.26772173184E+03  0.00000000000E+00 0.  1.
         21   -1    0    0  502  503 -0.00000000000E+00 -0.00000000000E+00 -0.19067047445E+01  0.19067047445E+01  0.00000000000E+00 0.  1.
          2    1    1    2  501    0  0.89263213172E+01 -0.19174427984E+02  0.85498105032E+02  0.88075330626E+02  0.00000000000E+00 0. -1.
         -2    1    1    2    0  503 -0.89263213172E+01  0.19174427984E+02  0.18031692207E+03  0.18155310596E+03  0.00000000000E+00 0.  1.
<mgrwt>
<rscale>  2 0.21150364E+02</rscale>
<asrwt>0</asrwt>
<pdfrwt beam="1">  1       21 0.41187929E-01 0.21150364E+02</pdfrwt>
<pdfrwt beam="2">  1       21 0.29333940E-03 0.21150364E+02</pdfrwt>
<totfact> 0.99659812E+07</totfact>
</mgrwt>
</event>
<event>
 4    1  0.7521660E+004  0.2116210E+02  0.7546771E-02  0.1723159E+00
         21   -1    0    0  503  502  0.00000000000E+00  0.00000000000E+00  0.28368357979E+00  0.28368357979E+00  0.00000000000E+00 0.  1.
         21   -1    0    0  501  503 -0.00000000000E+00 -0.00000000000E+00 -0.16319805836E+04  0.16319805836E+04  0.00000000000E+00 0.  1.
          2    1    1    2  501    0  0.21151997790E+02 -0.65392631108E+00 -0.96339408266E+03  0.96362648009E+03  0.00000000000E+00 0. -1.
         -2    1    1    2    0  502 -0.21151997790E+02  0.65392631108E+00 -0.66830281736E+03  0.66863778709E+03  0.00000000000E+00 0.  1.
<mgrwt>
<rscale>  2 0.21162104E+02</rscale>
<asrwt>0</asrwt>
<pdfrwt beam="1">  1       21 0.43642501E-04 0.21162104E+02</pdfrwt>
<pdfrwt beam="2">  1       21 0.25108042E+00 0.21162104E+02</pdfrwt>
<totfact> 0.26900938E+07</totfact>
</mgrwt>
</event>
<event>
 4    1  0.7521660E+004  0.2532164E+02  0.7546771E-02  0.1656425E+00
         21   -1    0    0  501  502  0.00000000000E+00  0.00000000000E+00  0.49990291523E+01  0.49990291523E+01  0.00000000000E+00 0. -1.
         21   -1    0    0  502  503 -0.00000000000E+00 -0.00000000000E+00 -0.18685632180E+03  0.18685632180E+03  0.00000000000E+00 0. -1.
          1    1    1    2  501    0  0.15077827925E+02 -0.20343171497E+02 -0.37210903464E+02  0.45009297463E+02  0.00000000000E+00 0. -1.
         -1    1    1    2    0  503 -0.15077827925E+02  0.20343171497E+02 -0.14464638919E+03  0.14684605349E+03  0.00000000000E+00 0.  1.
<mgrwt>
<rscale>  2 0.25321641E+02</rscale>
<asrwt>0</asrwt>
<pdfrwt beam="1">  1       21 0.76908138E-03 0.25321641E+02</pdfrwt>
<pdfrwt beam="2">  1       21 0.28747127E-01 0.25321641E+02</pdfrwt>
<totfact> 0.49006713E+07</totfact>
</mgrwt>
</event>
<event>
 4    1  0.7521660E+004  0.2691224E+02  0.7546771E-02  0.1634963E+00
         21   -1    0    0  501  502  0.00000000000E+00  0.00000000000E+00  0.49619203942E+02  0.49619203942E+02  0.00000000000E+00 0.  1.
         21   -1    0    0  502  503 -0.00000000000E+00 -0.00000000000E+00 -0.14864633223E+02  0.14864633223E+02  0.00000000000E+00 0.  1.
          3    1    1    2  501    0  0.17807350397E+02 -0.20178381806E+02  0.13047317728E+02  0.29908214932E+02  0.00000000000E+00 0.  1.
         -3    1    1    2    0  503 -0.17807350397E+02  0.20178381806E+02  0.21707252990E+02  0.34575622234E+02  0.00000000000E+00 0. -1.
<mgrwt>
<rscale>  2 0.26912243E+02</rscale>
<asrwt>0</asrwt>
<pdfrwt beam="1">  1       21 0.76337236E-02 0.26912243E+02</pdfrwt>
<pdfrwt beam="2">  1       21 0.22868667E-02 0.26912243E+02</pdfrwt>
<totfact> 0.92146538E+07</totfact>
</mgrwt>
</event>
<event>
 4    1  0.7521660E+004  0.2084211E+02  0.7546771E-02  0.1729082E+00
         21   -1    0    0  503  502  0.00000000000E+00  0.00000000000E+00  0.20509061547E+01  0.20509061547E+01  0.00000000000E+00 0. -1.
         21   -1    0    0  501  503 -0.00000000000E+00 -0.00000000000E+00 -0.27640748694E+03  0.27640748694E+03  0.00000000000E+00 0. -1.
          1    1    1    2  501    0  0.50372425616E+01  0.20224241334E+02 -0.69868620954E+02  0.72911027589E+02  0.00000000000E+00 0.  1.
         -1    1    1    2    0  502 -0.50372425616E+01 -0.20224241334E+02 -0.20448795983E+03  0.20554736550E+03  0.00000000000E+00 0. -1.
<mgrwt>
<rscale>  2 0.20842115E+02</rscale>
<asrwt>0</asrwt>
<pdfrwt beam="1">  1       21 0.31552405E-03 0.20842115E+02</pdfrwt>
<pdfrwt beam="2">  1       21 0.42524226E-01 0.20842115E+02</pdfrwt>
<totfact> 0.84065839E+07</totfact>
</mgrwt>
</event>
<event>
 4    1  0.7521660E+004  0.2143756E+02  0.7546771E-02  0.1718165E+00
         21   -1    0    0  501  502  0.00000000000E+00  0.00000000000E+00  0.11514001430E+02  0.11514001430E+02  0.00000000000E+00 0. -1.
         21   -1    0    0  502  503 -0.00000000000E+00 -0.00000000000E+00 -0.46017705567E+02  0.46017705567E+02  0.00000000000E+00 0. -1.
          4    1    1    2  501    0 -0.90492783396E+01  0.19433978729E+02 -0.27728305994E+02  0.35048936089E+02  0.00000000000E+00 0. -1.
         -4    1    1    2    0  503  0.90492783396E+01 -0.19433978729E+02 -0.67753981433E+01  0.22482770908E+02  0.00000000000E+00 0.  1.
<mgrwt>
<rscale>  2 0.21437560E+02</rscale>
<asrwt>0</asrwt>
<pdfrwt beam="1">  1       21 0.17713848E-02 0.21437560E+02</pdfrwt>
<pdfrwt beam="2">  1       21 0.70796470E-02 0.21437560E+02</pdfrwt>
<totfact> 0.14464395E+08</totfact>
</mgrwt>
</event>
<event>
 4    1  0.7521660E+004  0.2313509E+02  0.7546771E-02  0.1689330E+00
         21   -1    0    0  501  502  0.00000000000E+00  0.00000000000E+00  0.10300194117E+03  0.10300194117E+03  0.00000000000E+00 0.  1.
         21   -1    0    0  502  503 -0.00000000000E+00 -0.00000000000E+00 -0.70309634181E+01  0.70309634181E+01  0.00000000000E+00 0.  1.
          5    1    1    2  501    0  0.18570002539E+02  0.13798090291E+02  0.19882043388E+02  0.30504556041E+02  0.00000000000E+00 0. -1.
         -5    1    1    2    0  503 -0.18570002539E+02 -0.13798090291E+02  0.76088934367E+02  0.79528348550E+02  0.00000000000E+00 0.  1.
<mgrwt>
<rscale>  2 0.23135088E+02</rscale>
<asrwt>0</asrwt>
<pdfrwt beam="1">  1       21 0.15846451E-01 0.23135088E+02</pdfrwt>
<pdfrwt beam="2">  1       21 0.10816868E-02 0.23135088E+02</pdfrwt>
<totfact> 0.81950715E+07</totfact>
</mgrwt>
</event>
<event>
 4    1  0.7521660E+004  0.2071281E+02  0.7546771E-02  0.1731514E+00
         21   -1    0    0  503  502  0.00000000000E+00  0.00000000000E+00  0.58649703508E+03  0.58649703508E+03  0.00000000000E+00 0.  1.
         21   -1    0    0  501  503 -0.00000000000E+00 -0.00000000000E+00 -0.76958594439E+00  0.76958594439E+00  0.00000000000E+00 0.  1.
          5    1    1    2  501    0  0.33776234425E+01  0.20435556838E+02  0.35818897291E+03  0.35878734738E+03  0.00000000000E+00 0. -1.
         -5    1    1    2    0  502 -0.33776234425E+01 -0.20435556838E+02  0.22753847623E+03  0.22847927365E+03  0.00000000000E+00 0.  1.
<mgrwt>
<rscale>  2 0.20712806E+02</rscale>
<asrwt>0</asrwt>
<pdfrwt beam="1">  1       21 0.90229956E-01 0.20712806E+02</pdfrwt>
<pdfrwt beam="2">  1       21 0.11839831E-03 0.20712806E+02</pdfrwt>
<totfact> 0.76089137E+07</totfact>
</mgrwt>
</event>
<event>
 4    1  0.7521660E+004  0.2076388E+02  0.7546771E-02  0.1730551E+00
         21   -1    0    0  501  502  0.00000000000E+00  0.00000000000E+00  0.62541427062E+01  0.62541427062E+01  0.00000000000E+00 0.  1.
         21   -1    0    0  502  503 -0.00000000000E+00 -0.00000000000E+00 -0.11196955567E+03  0.11196955567E+03  0.00000000000E+00 0.  1.
          4    1    1    2  501    0  0.19627300364E+02 -0.67755238779E+01 -0.16211779369E+02  0.26343128776E+02  0.00000000000E+00 0.  1.
         -4    1    1    2    0  503 -0.19627300364E+02  0.67755238779E+01 -0.89503633594E+02  0.91880569599E+02  0.00000000000E+00 0. -1.
<mgrwt>
<rscale>  2 0.20763878E+02</rscale>
<asrwt>0</asrwt>
<pdfrwt beam="1">  1       21 0.96217589E-03 0.20763878E+02</pdfrwt>
<pdfrwt beam="2">  1       21 0.17226084E-01 0.20763878E+02</pdfrwt>
<totfact> 0.82191982E+07</totfact>
</mgrwt>
</event>
<event>
 4    1  0.7521660E+004  0.2058610E+02  0.7546771E-02  0.1733918E+00
         21   -1    0    0  501  502  0.00000000000E+00  0.00000000000E+00  0.66553843353E+03  0.66553843353E+03  0.00000000000E+00 0.  1.
         21   -1    0    0  502  503 -0.00000000000E+00 -0.00000000000E+00 -0.68377383414E+00  0.68377383414E+00  0.00000000000E+00 0.  1.
          1    1    1    2  501    0 -0.17048098469E+02  0.11539060914E+02  0.41977479765E+03  0.42027927421E+03  0.00000000000E+00 0.  1.
         -1    1    1    2    0  503  0.17048098469E+02 -0.11539060914E+02  0.24507986204E+03  0.24594293315E+03  0.00000000000E+00 0. -1.
<mgrwt>
<rscale>  2 0.20586102E+02</rscale>
<asrwt>0</asrwt>
<pdfrwt beam="1">  1       21 0.10239001E+00 0.20586102E+02</pdfrwt>
<pdfrwt beam="2">  1       21 0.10519651E-03 0.20586102E+02</pdfrwt>
<totfact> 0.68409667E+07</totfact>
</mgrwt>
</event>
<event>
 4    1  0.7521660E+004  0.2172770E+02  0.7546771E-02  0.1713004E+00
         21   -1    0    0  503  502  0.00000000000E+00  0.00000000000E+00  0.64941296457E+00  0.64941296457E+00  0.00000000000E+00 0. -1.
         21   -1    0    0  501  503 -0.00000000000E+00 -0.00000000000E+00 -0.76003703638E+03  0.76003703638E+03  0.00000000000E+00 0. -1.
          1    1    1    2  501    0 -0.40205171521E+01 -0.21352475760E+02 -0.45904743818E+03  0.45956135965E+03  0.00000000000E+00 0.  1.
         -1    1    1    2    0  502  0.40205171521E+01  0.21352475760E+02 -0.30034018523E+03  0.30112508969E+03  0.00000000000E+00 0. -1.
<mgrwt>
<rscale>  2 0.21727696E+02</rscale>
<asrwt>0</asrwt>
<pdfrwt beam="1">  1       21 0.99909676E-04 0.21727696E+02</pdfrwt>
<pdfrwt beam="2">  1       21 0.11692879E+00 0.21727696E+02</pdfrwt>
<totfact> 0.55545864E+07</totfact>
</mgrwt>
</event>
<event>
 4    1  0.7521660E+004  0.3340110E+02  0.7546771E-02  0.1563275E+00
         21   -1    0    0  503  502  0.00000000000E+00  0.00000000000E+00  0.46840143252E+02  0.46840143252E+02  0.00000000000E+00 0.  1.
         21   -1    0    0  501  503 -0.00000000000E+00 -0.00000000000E+00 -0.57409442166E+02  0.57409442166E+02  0.00000000000E+00 0.  1.
          2    1    1    2  501    0  0.24235184648E+02  0.22984543161E+02  0.34587322075E+02  0.48082390202E+02  0.00000000000E+00 0. -1.
         -2    1    1    2    0  502 -0.24235184648E+02 -0.22984543161E+02 -0.45156620989E+02  0.56167195215E+02  0.00000000000E+00 0.  1.
<mgrwt>
<rscale>  2 0.33401099E+02</rscale>
<asrwt>0</asrwt>
<pdfrwt beam="1">  1       21 0.72061758E-02 0.33401099E+02</pdfrwt>
<pdfrwt beam="2">  1       21 0.88322219E-02 0.33401099E+02</pdfrwt>
<totfact> 0.12154472E+07</totfact>
</mgrwt>
</event>
<event>
 4    1  0.7521660E+004  0.2124789E+02  0.7546771E-02  0.1721594E+00
         21   -1    0    0  503  502  0.00000000000E+00  0.00000000000E+00  0.76009872575E+00  0.76009872575E+00  0.00000000000E+00 0. -1.
         21   -1    0    0  501  503 -0.00000000000E+00 -0.00000000000E+00 -0.69490318037E+03  0.69490318037E+03  0.00000000000E+00 0. -1.
          1    1    1    2  501    0  0.18578000369E+01  0.21166515025E+02 -0.47963767032E+03  0.48010807905E+03  0.00000000000E+00 0.  1.
         -1    1    1    2    0  502 -0.18578000369E+01 -0.21166515025E+02 -0.21450541133E+03  0.21555520005E+03  0.00000000000E+00 0. -1.
<mgrwt>
<rscale>  2 0.21247889E+02</rscale>
<asrwt>0</asrwt>
<pdfrwt beam="1">  1       21 0.11693844E-03 0.21247889E+02</pdfrwt>
<pdfrwt beam="2">  1       21 0.10690802E+00 0.21247889E+02</pdfrwt>
<totfact> 0.53920597E+07</totfact>
</mgrwt>
</event>
<event>
 4    1  0.7521660E+004  0.2154841E+02  0.7546771E-02  0.1716181E+00
         21   -1    0    0  503  502  0.00000000000E+00  0.00000000000E+00  0.33407576806E+01  0.33407576806E+01  0.00000000000E+00 0. -1.
         21   -1    0    0  501  503 -0.00000000000E+00 -0.00000000000E+00 -0.14920741864E+03  0.14920741864E+03  0.00000000000E+00 0. -1.
          1    1    1    2  501    0  0.14776430912E+02  0.15684097584E+02 -0.92892396343E+02  0.95358959337E+02  0.00000000000E+00 0. -1.
         -1    1    1    2    0  502 -0.14776430912E+02 -0.15684097584E+02 -0.52974264615E+02  0.57189216982E+02  0.00000000000E+00 0.  1.
<mgrwt>
<rscale>  2 0.21548407E+02</rscale>
<asrwt>0</asrwt>
<pdfrwt beam="1">  1       21 0.51396272E-03 0.21548407E+02</pdfrwt>
<pdfrwt beam="2">  1       21 0.22954987E-01 0.21548407E+02</pdfrwt>
<totfact> 0.12784117E+08</totfact>
</mgrwt>
</event>
<event>
 4    1  0.7521660E+004  0.5040301E+02  0.7546771E-02  0.1443180E+00
         21   -1    0    0  501  502  0.00000000000E+00  0.00000000000E+00  0.39160107678E+03  0.39160107678E+03  0.00000000000E+00 0.  1.
         21   -1    0    0  502  503 -0.00000000000E+00 -0.00000000000E+00 -0.65212712407E+01  0.65212712407E+01  0.00000000000E+00 0.  1.
          5    1    1    2  501    0 -0.41273276322E+01 -0.50233739688E+02  0.17818865582E+03  0.18518007587E+03  0.00000000000E+00 0. -1.
         -5    1    1    2    0  503  0.41273276322E+01  0.50233739688E+02  0.20689114972E+03  0.21294227215E+03  0.00000000000E+00 0.  1.
<mgrwt>
<rscale>  2 0.50403010E+02</rscale>
<asrwt>0</asrwt>
<pdfrwt beam="1">  1       21 0.60246301E-01 0.50403010E+02</pdfrwt>
<pdfrwt beam="2">  1       21 0.10032728E-02 0.50403010E+02</pdfrwt>
<totfact> 0.87643867E+06</totfact>
</mgrwt>
</event>
<event>
 4    1  0.7521660E+004  0.2083553E+02  0.7546771E-02  0.1729205E+00
         21   -1    0    0  501  502  0.00000000000E+00  0.00000000000E+00  0.36995330999E+03  0.36995330999E+03  0.00000000000E+00 0. -1.
         21   -1    0    0  502  503 -0.00000000000E+00 -0.00000000000E+00 -0.14211550104E+01  0.14211550104E+01  0.00000000000E+00 0. -1.
          5    1    1    2  501    0  0.76313481068E+00  0.20821546967E+02  0.10674234357E+03  0.10875682555E+03  0.00000000000E+00 0. -1.
         -5    1    1    2    0  503 -0.76313481068E+00 -0.20821546967E+02  0.26178981141E+03  0.26261763945E+03  0.00000000000E+00 0.  1.
<mgrwt>
<rscale>  2 0.20835527E+02</rscale>
<asrwt>0</asrwt>
<pdfrwt beam="1">  1       21 0.56915817E-01 0.20835527E+02</pdfrwt>
<pdfrwt beam="2">  1       21 0.21863953E-03 0.20835527E+02</pdfrwt>
<totfact> 0.81421787E+07</totfact>
</mgrwt>
</event>
<event>
 4    1  0.7521660E+004  0.2434203E+02  0.7546771E-02  0.1670636E+00
         21   -1    0    0  501  502  0.00000000000E+00  0.00000000000E+00  0.11556424905E+02  0.11556424905E+02  0.00000000000E+00 0.  1.
         21   -1    0    0  502  503 -0.00000000000E+00 -0.00000000000E+00 -0.60308601218E+02  0.60308601218E+02  0.00000000000E+00 0.  1.
          2    1    1    2  501    0  0.53674953617E+01  0.23742876955E+02 -0.10467819062E+02  0.26497347952E+02  0.00000000000E+00 0. -1.
         -2    1    1    2    0  503 -0.53674953617E+01 -0.23742876955E+02 -0.38284357251E+02  0.45367678171E+02  0.00000000000E+00 0.  1.
<mgrwt>
<rscale>  2 0.24342026E+02</rscale>
<asrwt>0</asrwt>
<pdfrwt beam="1">  1       21 0.17779115E-02 0.24342026E+02</pdfrwt>
<pdfrwt beam="2">  1       21 0.92782463E-02 0.24342026E+02</pdfrwt>
<totfact> 0.96002094E+07</totfact>
</mgrwt>
</event>
<event>
 4    1  0.7521660E+004  0.2007398E+02  0.7546771E-02  0.1743861E+00
         21   -1    0    0  501  502  0.00000000000E+00  0.00000000000E+00  0.13388546433E+02  0.13388546433E+02  0.00000000000E+00 0. -1.
         21   -1    0    0  502  503 -0.00000000000E+00 -0.00000000000E+00 -0.32433652367E+02  0.32433652367E+02  0.00000000000E+00 0. -1.
          1    1    1    2  501    0  0.10980772461E+02 -0.16804388213E+02 -0.33739365269E+01  0.20355546535E+02  0.00000000000E+00 0. -1.
         -1    1    1    2    0  503 -0.10980772461E+02  0.16804388213E+02 -0.15671169407E+02  0.25466652266E+02  0.00000000000E+00 0.  1.
<mgrwt>
<rscale>  2 0.20073984E+02</rscale>
<asrwt>0</asrwt>
<pdfrwt beam="1">  1       21 0.20597764E-02 0.20073984E+02</pdfrwt>
<pdfrwt beam="2">  1       21 0.49897926E-02 0.20073984E+02</pdfrwt>
<totfact> 0.19688908E+08</totfact>
</mgrwt>
</event>
<event>
 4    1  0.7521660E+004  0.3202710E+02  0.7546771E-02  0.1576705E+00
         21   -1    0    0  503  502  0.00000000000E+00  0.00000000000E+00  0.43066666043E+03  0.43066666043E+03  0.00000000000E+00 0.  1.
         21   -1    0    0  501  503 -0.00000000000E+00 -0.00000000000E+00 -0.24313649913E+01  0.24313649913E+01  0.00000000000E+00 0.  1.
          2    1    1    2  501    0  0.81289771624E+01  0.30978291622E+02  0.18317956161E+03  0.18595829267E+03  0.00000000000E+00 0.  1.
         -2    1    1    2    0  502 -0.81289771624E+01 -0.30978291622E+02  0.24505573383E+03  0.24713973275E+03  0.00000000000E+00 0. -1.
<mgrwt>
<rscale>  2 0.32027095E+02</rscale>
<asrwt>0</asrwt>
<pdfrwt beam="1">  1       21 0.66256349E-01 0.32027095E+02</pdfrwt>
<pdfrwt beam="2">  1       21 0.37405650E-03 0.32027095E+02</pdfrwt>
<totfact> 0.30007892E+07</totfact>
</mgrwt>
</event>
<event>
 4    1  0.7521660E+004  0.6612657E+02  0.7546771E-02  0.1373783E+00
         21   -1    0    0  501  502  0.00000000000E+00  0.00000000000E+00  0.48926578752E+03  0.48926578752E+03  0.00000000000E+00 0. -1.
         21   -1    0    0  502  503 -0.00000000000E+00 -0.00000000000E+00 -0.10035704659E+02  0.10035704659E+02  0.00000000000E+00 0. -1.
          1    1    1    2  501    0 -0.30018868337E+02 -0.58920207839E+02  0.32220681493E+03  0.32892241477E+03  0.00000000000E+00 0. -1.
         -1    1    1    2    0  503  0.30018868337E+02  0.58920207839E+02  0.15702326793E+03  0.17037907741E+03  0.00000000000E+00 0.  1.
<mgrwt>
<rscale>  2 0.66126571E+02</rscale>
<asrwt>0</asrwt>
<pdfrwt beam="1">  1       21 0.75271641E-01 0.66126571E+02</pdfrwt>
<pdfrwt beam="2">  1       21 0.15439549E-02 0.66126571E+02</pdfrwt>
<totfact> 0.28595139E+06</totfact>
</mgrwt>
</event>
<event>
 4    1  0.7521660E+004  0.2214372E+02  0.7546771E-02  0.1705778E+00
         21   -1    0    0  501  502  0.00000000000E+00  0.00000000000E+00  0.11888218168E+01  0.11888218168E+01  0.00000000000E+00 0. -1.
         21   -1    0    0  502  503 -0.00000000000E+00 -0.00000000000E+00 -0.48194385143E+03  0.48194385143E+03  0.00000000000E+00 0. -1.
          2    1    1    2  501    0 -0.22109798423E+02 -0.12252555446E+01 -0.14865577791E+03  0.15029599044E+03  0.00000000000E+00 0. -1.
         -2    1    1    2    0  503  0.22109798423E+02  0.12252555446E+01 -0.33209925170E+03  0.33283668280E+03  0.00000000000E+00 0.  1.
<mgrwt>
<rscale>  2 0.22143722E+02</rscale>
<asrwt>0</asrwt>
<pdfrwt beam="1">  1       21 0.18289567E-03 0.22143722E+02</pdfrwt>
<pdfrwt beam="2">  1       21 0.74145207E-01 0.22143722E+02</pdfrwt>
<totfact> 0.62673882E+07</totfact>
</mgrwt>
</event>
<event>
 4    1  0.7521660E+004  0.2347508E+02  0.7546771E-02  0.1683923E+00
         21   -1    0    0  503  502  0.00000000000E+00  0.00000000000E+00  0.25637067618E+03  0.25637067618E+03  0.00000000000E+00 0.  1.
         21   -1    0    0  501  503 -0.00000000000E+00 -0.00000000000E+00 -0.31684803089E+01  0.31684803089E+01  0.00000000000E+00 0.  1.
          4    1    1    2  501    0  0.11099262765E+02  0.20685396514E+02  0.20019156500E+03  0.20156324556E+03  0.00000000000E+00 0. -1.
         -4    1    1    2    0  502 -0.11099262765E+02 -0.20685396514E+02  0.53010630870E+02  0.57975910930E+02  0.00000000000E+00 0.  1.
<mgrwt>
<rscale>  2 0.23475077E+02</rscale>
<asrwt>0</asrwt>
<pdfrwt beam="1">  1       21 0.39441626E-01 0.23475077E+02</pdfrwt>
<pdfrwt beam="2">  1       21 0.48745871E-03 0.23475077E+02</pdfrwt>
<totfact> 0.52814529E+07</totfact>
</mgrwt>
</event>
<event>
 4    1  0.7521660E+004  0.2864232E+02  0.7546771E-02  0.1613600E+00
         21   -1    0    0  501  502  0.00000000000E+00  0.00000000000E+00  0.25245477362E+02  0.25245477362E+02  0.00000000000E+00 0. -1.
         21   -1    0    0  502  503 -0.00000000000E+00 -0.00000000000E+00 -0.32512645613E+02  0.32512645613E+02  0.00000000000E+00 0. -1.
          1    1    1    2  501    0  0.25273626070E+02 -0.13476889585E+02 -0.29845855443E+01  0.28797404023E+02  0.00000000000E+00 0.  1.
         -1    1    1    2    0  503 -0.25273626070E+02  0.13476889585E+02 -0.42825827066E+01  0.28960718952E+02  0.00000000000E+00 0. -1.
<mgrwt>
<rscale>  2 0.28642324E+02</rscale>
<asrwt>0</asrwt>
<pdfrwt beam="1">  1       21 0.38839196E-02 0.28642324E+02</pdfrwt>
<pdfrwt beam="2">  1       21 0.50019455E-02 0.28642324E+02</pdfrwt>
<totfact> 0.80963422E+07</totfact>
</mgrwt>
</event>
<event>
 4    1  0.7521660E+004  0.2381076E+02  0.7546771E-02  0.1678695E+00
         21   -1    0    0  501  502  0.00000000000E+00  0.00000000000E+00  0.29078930435E+00  0.29078930435E+00  0.00000000000E+00 0.  1.
         21   -1    0    0  502  503 -0.00000000000E+00 -0.00000000000E+00 -0.20133292101E+04  0.20133292101E+04  0.00000000000E+00 0.  1.
          3    1    1    2  501    0 -0.97366083926E+01 -0.21729029393E+02 -0.11855032175E+04  0.11857423122E+04  0.00000000000E+00 0. -1.
         -3    1    1    2    0  503  0.97366083926E+01  0.21729029393E+02 -0.82753520331E+03  0.82787768721E+03  0.00000000000E+00 0.  1.
<mgrwt>
<rscale>  2 0.23810759E+02</rscale>
<asrwt>0</asrwt>
<pdfrwt beam="1">  1       21 0.44735188E-04 0.23810759E+02</pdfrwt>
<pdfrwt beam="2">  1       21 0.30975423E+00 0.23810759E+02</pdfrwt>
<totfact> 0.13616911E+07</totfact>
</mgrwt>
</event>
<event>
 4    1  0.7521660E+004  0.2329388E+02  0.7546771E-02  0.1686790E+00
         21   -1    0    0  501  502  0.00000000000E+00  0.00000000000E+00  0.76728962558E+01  0.76728962558E+01  0.00000000000E+00 0. -1.
         21   -1    0    0  502  503 -0.00000000000E+00 -0.00000000000E+00 -0.79288795824E+02  0.79288795824E+02  0.00000000000E+00 0. -1.
          1    1    1    2  501    0  0.55024840129E+01  0.22634656062E+02 -0.21511592089E+02  0.31707311137E+02  0.00000000000E+00 0. -1.
         -1    1    1    2    0  503 -0.55024840129E+01 -0.22634656062E+02 -0.50104307479E+02  0.55254380943E+02  0.00000000000E+00 0.  1.
<mgrwt>
<rscale>  2 0.23293883E+02</rscale>
<asrwt>0</asrwt>
<pdfrwt beam="1">  1       21 0.11804456E-02 0.23293883E+02</pdfrwt>
<pdfrwt beam="2">  1       21 0.12198276E-01 0.23293883E+02</pdfrwt>
<totfact> 0.11210289E+08</totfact>
</mgrwt>
</event>
<event>
 4    1  0.7521660E+004  0.3592860E+02  0.7546771E-02  0.1540506E+00
         21   -1    0    0  503  502  0.00000000000E+00  0.00000000000E+00  0.62898510791E+02  0.62898510791E+02  0.00000000000E+00 0.  1.
         21   -1    0    0  501  503 -0.00000000000E+00 -0.00000000000E+00 -0.38600545367E+02  0.38600545367E+02  0.00000000000E+00 0.  1.
          2    1    1    2  501    0 -0.34888820709E+02  0.85810742743E+01 -0.22581058809E+02  0.42435467042E+02  0.00000000000E+00 0. -1.
         -2    1    1    2    0  502  0.34888820709E+02 -0.85810742743E+01  0.46879024234E+02  0.59063589116E+02  0.00000000000E+00 0.  1.
<mgrwt>
<rscale>  2 0.35928605E+02</rscale>
<asrwt>0</asrwt>
<pdfrwt beam="1">  1       21 0.96766940E-02 0.35928605E+02</pdfrwt>
<pdfrwt beam="2">  1       21 0.59385454E-02 0.35928605E+02</pdfrwt>
<totfact> 0.14497058E+07</totfact>
</mgrwt>
</event>
<event>
 4    1  0.7521660E+004  0.2035572E+02  0.7546771E-02  0.1738345E+00
         21   -1    0    0  503  502  0.00000000000E+00  0.00000000000E+00  0.22450081439E+02  0.22450081439E+02  0.00000000000E+00 0. -1.
         21   -1    0    0  501  503 -0.00000000000E+00 -0.00000000000E+00 -0.18932176725E+02  0.18932176725E+02  0.00000000000E+00 0. -1.
          3    1    1    2  501    0  0.13906832267E+02  0.14864563739E+02 -0.15199754120E+01  0.20412387516E+02  0.00000000000E+00 0.  1.
         -3    1    1    2    0  502 -0.13906832267E+02 -0.14864563739E+02  0.50378801251E+01  0.20969870648E+02  0.00000000000E+00 0. -1.
<mgrwt>
<rscale>  2 0.20355718E+02</rscale>
<asrwt>0</asrwt>
<pdfrwt beam="1">  1       21 0.34538587E-02 0.20355718E+02</pdfrwt>
<pdfrwt beam="2">  1       21 0.29126426E-02 0.20355718E+02</pdfrwt>
<totfact> 0.20691508E+08</totfact>
</mgrwt>
</event>
<event>
 4    1  0.7521660E+004  0.2105651E+02  0.7546771E-02  0.1725099E+00
         21   -1    0    0  501  502  0.00000000000E+00  0.00000000000E+00  0.10335884669E+02  0.10335884669E+02  0.00000000000E+00 0. -1.
         21   -1    0    0  502  503 -0.00000000000E+00 -0.00000000000E+00 -0.56457640792E+02  0.56457640792E+02  0.00000000000E+00 0. -1.
          5    1    1    2  501    0 -0.65721207991E+01  0.20004599834E+02 -0.66932524235E+01  0.22094714624E+02  0.00000000000E+00 0.  1.
         -5    1    1    2    0  503  0.65721207991E+01 -0.20004599834E+02 -0.39428503699E+02  0.44698810837E+02  0.00000000000E+00 0. -1.
<mgrwt>
<rscale>  2 0.21056514E+02</rscale>
<asrwt>0</asrwt>
<pdfrwt beam="1">  1       21 0.15901361E-02 0.21056514E+02</pdfrwt>
<pdfrwt beam="2">  1       21 0.86857910E-02 0.21056514E+02</pdfrwt>
<totfact> 0.12161846E+08</totfact>
</mgrwt>
</event>
<event>
 4    1  0.7521660E+004  0.2263955E+02  0.7546771E-02  0.1697420E+00
         21   -1    0    0  501  502  0.00000000000E+00  0.00000000000E+00  0.17041819951E+02  0.17041819951E+02  0.00000000000E+00 0.  1.
         21   -1    0    0  502  503 -0.00000000000E+00 -0.00000000000E+00 -0.34943779396E+02  0.34943779396E+02  0.00000000000E+00 0.  1.
          1    1    1    2  501    0 -0.18405391392E+02 -0.13182977463E+02 -0.18652387143E+02  0.29333613368E+02  0.00000000000E+00 0. -1.
         -1    1    1    2    0  503  0.18405391392E+02  0.13182977463E+02  0.75042769744E+00  0.22651985980E+02  0.00000000000E+00 0.  1.
<mgrwt>
<rscale>  2 0.22639552E+02</rscale>
<asrwt>0</asrwt>
<pdfrwt beam="1">  1       21 0.26218185E-02 0.22639552E+02</pdfrwt>
<pdfrwt beam="2">  1       21 0.53759659E-02 0.22639552E+02</pdfrwt>
<totfact> 0.12528233E+08</totfact>
</mgrwt>
</event>
<event>
 4    1  0.7521660E+004  0.2119263E+02  0.7546771E-02  0.1722601E+00
         21   -1    0    0  503  502  0.00000000000E+00  0.00000000000E+00  0.52728745929E+01  0.52728745929E+01  0.00000000000E+00 0.  1.
         21   -1    0    0  501  503 -0.00000000000E+00 -0.00000000000E+00 -0.87011323618E+02  0.87011323618E+02  0.00000000000E+00 0.  1.
          1    1    1    2  501    0  0.10967127385E+02 -0.18134215256E+02 -0.47568800012E+02  0.52076082616E+02  0.00000000000E+00 0. -1.
         -1    1    1    2    0  502 -0.10967127385E+02  0.18134215256E+02 -0.34169649013E+02  0.40208115595E+02  0.00000000000E+00 0.  1.
<mgrwt>
<rscale>  2 0.21192632E+02</rscale>
<asrwt>0</asrwt>
<pdfrwt beam="1">  1       21 0.81121154E-03 0.21192632E+02</pdfrwt>
<pdfrwt beam="2">  1       21 0.13386356E-01 0.21192632E+02</pdfrwt>
<totfact> 0.16365598E+08</totfact>
</mgrwt>
</event>
<event>
 4    1  0.7521660E+004  0.2554885E+02  0.7546771E-02  0.1653242E+00
         21   -1    0    0  501  502  0.00000000000E+00  0.00000000000E+00  0.64600330934E+03  0.64600330934E+03  0.00000000000E+00 0.  1.
         21   -1    0    0  502  503 -0.00000000000E+00 -0.00000000000E+00 -0.10117999991E+01  0.10117999991E+01  0.00000000000E+00 0.  1.
          2    1    1    2  501    0  0.25541460865E+02 -0.61423304917E+00  0.33438384564E+03  0.33535846453E+03  0.00000000000E+00 0. -1.
         -2    1    1    2    0  503 -0.25541460865E+02  0.61423304917E+00  0.31060766370E+03  0.31165664481E+03  0.00000000000E+00 0.  1.
<mgrwt>
<rscale>  2 0.25548845E+02</rscale>
<asrwt>0</asrwt>
<pdfrwt beam="1">  1       21 0.99384795E-01 0.25548845E+02</pdfrwt>
<pdfrwt beam="2">  1       21 0.15566205E-03 0.25548845E+02</pdfrwt>
<totfact> 0.43735740E+07</totfact>
</mgrwt>
</event>
<event>
 4    1  0.7521660E+004  0.1055739E+03  0.7546771E-02  0.1268993E+00
         21   -1    0    0  501  502  0.00000000000E+00  0.00000000000E+00  0.88676754200E+01  0.88676754200E+01  0.00000000000E+00 0.  1.
         21   -1    0    0  502  503 -0.00000000000E+00 -0.00000000000E+00 -0.15129029831E+04  0.15129029831E+04  0.00000000000E+00 0.  1.
          1    1    1    2  501    0  0.10539937076E+03  0.60676944076E+01 -0.43902787580E+03  0.45154326482E+03  0.00000000000E+00 0.  1.
         -1    1    1    2    0  503 -0.10539937076E+03 -0.60676944076E+01 -0.10650074319E+04  0.10702273937E+04  0.00000000000E+00 0. -1.
<mgrwt>
<rscale>  2 0.10557388E+03</rscale>
<asrwt>0</asrwt>
<pdfrwt beam="1">  1       21 0.13642589E-02 0.10557388E+03</pdfrwt>
<pdfrwt beam="2">  1       21 0.23275411E+00 0.10557388E+03</pdfrwt>
<totfact> 0.20360117E+05</totfact>
</mgrwt>
</event>
<event>
 4    1  0.7521660E+004  0.2292280E+02  0.7546771E-02  0.1692765E+00
         21   -1    0    0  501  502  0.00000000000E+00  0.00000000000E+00  0.94131725295E+00  0.94131725295E+00  0.00000000000E+00 0.  1.
         21   -1    0    0  502  503 -0.00000000000E+00 -0.00000000000E+00 -0.62201204141E+03  0.62201204141E+03  0.00000000000E+00 0.  1.
          2    1    1    2  501    0  0.53709660436E+01  0.22284693502E+02 -0.21078012602E+03  0.21202291472E+03  0.00000000000E+00 0. -1.
         -2    1    1    2    0  503 -0.53709660436E+01 -0.22284693502E+02 -0.41029059813E+03  0.41093044394E+03  0.00000000000E+00 0.  1.
<mgrwt>
<rscale>  2 0.22922802E+02</rscale>
<asrwt>0</asrwt>
<pdfrwt beam="1">  1       21 0.14481829E-03 0.22922802E+02</pdfrwt>
<pdfrwt beam="2">  1       21 0.95693996E-01 0.22922802E+02</pdfrwt>
<totfact> 0.51501800E+07</totfact>
</mgrwt>
</event>
<event>
 4    1  0.7521660E+004  0.2878006E+02  0.7546771E-02  0.1611979E+00
         21   -1    0    0  501  502  0.00000000000E+00  0.00000000000E+00  0.61794403186E+02  0.61794403186E+02  0.00000000000E+00 0.  1.
         21   -1    0    0  502  503 -0.00000000000E+00 -0.00000000000E+00 -0.13669764772E+02  0.13669764772E+02  0.00000000000E+00 0.  1.
          1    1    1    2  501    0 -0.17985638199E+02 -0.22467942792E+02  0.18801102487E+02  0.34376926702E+02  0.00000000000E+00 0.  1.
         -1    1    1    2    0  503  0.17985638199E+02  0.22467942792E+02  0.29323535927E+02  0.41087241256E+02  0.00000000000E+00 0. -1.
<mgrwt>
<rscale>  2 0.28780056E+02</rscale>
<asrwt>0</asrwt>
<pdfrwt beam="1">  1       21 0.95068311E-02 0.28780056E+02</pdfrwt>
<pdfrwt beam="2">  1       21 0.21030408E-02 0.28780056E+02</pdfrwt>
<totfact> 0.74296388E+07</totfact>
</mgrwt>
</event>
<event>
 4    1  0.7521660E+004  0.4390615E+02  0.7546771E-02  0.1481288E+00
         21   -1    0    0  501  502  0.00000000000E+00  0.00000000000E+00  0.63714929049E+01  0.63714929049E+01  0.00000000000E+00 0.  1.
         21   -1    0    0  502  503 -0.00000000000E+00 -0.00000000000E+00 -0.32291173543E+03  0.32291173543E+03  0.00000000000E+00 0.  1.
          2    1    1    2  501    0  0.24624253763E+02  0.36351014775E+02 -0.19960465743E+03  0.20437653832E+03  0.00000000000E+00 0. -1.
         -2    1    1    2    0  503 -0.24624253763E+02 -0.36351014775E+02 -0.11693558509E+03  0.12490669001E+03  0.00000000000E+00 0.  1.
<mgrwt>
<rscale>  2 0.43906152E+02</rscale>
<asrwt>0</asrwt>
<pdfrwt beam="1">  1       21 0.98022971E-03 0.43906152E+02</pdfrwt>
<pdfrwt beam="2">  1       21 0.49678727E-01 0.43906152E+02</pdfrwt>
<totfact> 0.13217368E+07</totfact>
</mgrwt>
</event>
<event>
 4    1  0.7521660E+004  0.3140335E+02  0.7546771E-02  0.1583075E+00
         21   -1    0    0  501  502  0.00000000000E+00  0.00000000000E+00  0.20643706955E+02  0.20643706955E+02  0.00000000000E+00 0.  1.
         21   -1    0    0  502  503 -0.00000000000E+00 -0.00000000000E+00 -0.56157382515E+02  0.56157382515E+02  0.00000000000E+00 0.  1.
          4    1    1    2  501    0  0.21657056493E+02 -0.22740764993E+02 -0.29172671217E+01  0.31538562679E+02  0.00000000000E+00 0.  1.
         -4    1    1    2    0  503 -0.21657056493E+02  0.22740764993E+02 -0.32596408439E+02  0.45262526791E+02  0.00000000000E+00 0. -1.
<mgrwt>
<rscale>  2 0.31403352E+02</rscale>
<asrwt>0</asrwt>
<pdfrwt beam="1">  1       21 0.31759549E-02 0.31403352E+02</pdfrwt>
<pdfrwt beam="2">  1       21 0.86395973E-02 0.31403352E+02</pdfrwt>
<totfact> 0.46620439E+07</totfact>
</mgrwt>
</event>
<event>
 4    1  0.7521660E+004  0.2896762E+02  0.7546771E-02  0.1609789E+00
         21   -1    0    0  503  502  0.00000000000E+00  0.00000000000E+00  0.19537639469E+04  0.19537639469E+04  0.00000000000E+00 0. -1.
         21   -1    0    0  501  503 -0.00000000000E+00 -0.00000000000E+00 -0.47421835736E+00  0.47421835736E+00  0.00000000000E+00 0. -1.
          5    1    1    2  501    0  0.86835467035E+01  0.27635468681E+02  0.67655784025E+03  0.67717769774E+03  0.00000000000E+00 0.  1.
         -5    1    1    2    0  502 -0.86835467035E+01 -0.27635468681E+02  0.12767318883E+04  0.12770604676E+04  0.00000000000E+00 0. -1.
<mgrwt>
<rscale>  2 0.28967622E+02</rscale>
<asrwt>0</asrwt>
<pdfrwt beam="1">  1       21 0.30057262E+00 0.28967622E+02</pdfrwt>
<pdfrwt beam="2">  1       21 0.72958235E-04 0.28967622E+02</pdfrwt>
<totfact> 0.75776507E+06</totfact>
</mgrwt>
</event>
<event>
 4    1  0.7521660E+004  0.2144397E+02  0.7546771E-02  0.1718049E+00
         21   -1    0    0  503  502  0.00000000000E+00  0.00000000000E+00  0.70634643653E+01  0.70634643653E+01  0.00000000000E+00 0. -1.
         21   -1    0    0  501  503 -0.00000000000E+00 -0.00000000000E+00 -0.67209960842E+02  0.67209960842E+02  0.00000000000E+00 0. -1.
          1    1    1    2  501    0  0.20176272978E+02  0.72637484224E+01 -0.23496039911E+02  0.31810500215E+02  0.00000000000E+00 0. -1.
         -1    1    1    2    0  502 -0.20176272978E+02 -0.72637484224E+01 -0.36650456566E+02  0.42462924992E+02  0.00000000000E+00 0.  1.
<mgrwt>
<rscale>  2 0.21443974E+02</rscale>
<asrwt>0</asrwt>
<pdfrwt beam="1">  1       21 0.10866868E-02 0.21443974E+02</pdfrwt>
<pdfrwt beam="2">  1       21 0.10339994E-01 0.21443974E+02</pdfrwt>
<totfact> 0.16314647E+08</totfact>
</mgrwt>
</event>
<event>
 4    1  0.7521660E+004  0.2245304E+02  0.7546771E-02  0.1700533E+00
         21   -1    0    0  501  502  0.00000000000E+00  0.00000000000E+00  0.36052423955E+03  0.36052423955E+03  0.00000000000E+00 0. -1.
         21   -1    0    0  502  503 -0.00000000000E+00 -0.00000000000E+00 -0.14005412498E+01  0.14005412498E+01  0.00000000000E+00 0. -1.
          5    1    1    2  501    0 -0.22103166135E+02 -0.39483043730E+01  0.18671980469E+03  0.18806494762E+03  0.00000000000E+00 0.  1.
         -5    1    1    2    0  503  0.22103166135E+02  0.39483043730E+01  0.17240389362E+03  0.17385983318E+03  0.00000000000E+00 0. -1.
<mgrwt>
<rscale>  2 0.22453041E+02</rscale>
<asrwt>0</asrwt>
<pdfrwt beam="1">  1       21 0.55465193E-01 0.22453041E+02</pdfrwt>
<pdfrwt beam="2">  1       21 0.21546817E-03 0.22453041E+02</pdfrwt>
<totfact> 0.89202685E+07</totfact>
</mgrwt>
</event>
<event>
 4    1  0.7521660E+004  0.3860847E+02  0.7546771E-02  0.1518709E+00
         21   -1    0    0  501  502  0.00000000000E+00  0.00000000000E+00  0.20822252694E+01  0.20822252694E+01  0.00000000000E+00 0. -1.
         21   -1    0    0  502  503 -0.00000000000E+00 -0.00000000000E+00 -0.85095612784E+03  0.85095612784E+03  0.00000000000E+00 0. -1.
          2    1    1    2  501    0 -0.33096132048E+02 -0.19881138412E+02 -0.59437156474E+03  0.59562418570E+03  0.00000000000E+00 0. -1.
         -2    1    1    2    0  503  0.33096132048E+02  0.19881138412E+02 -0.25450233784E+03  0.25741416741E+03  0.00000000000E+00 0.  1.
<mgrwt>
<rscale>  2 0.38608466E+02</rscale>
<asrwt>0</asrwt>
<pdfrwt beam="1">  1       21 0.32034145E-03 0.38608466E+02</pdfrwt>
<pdfrwt beam="2">  1       21 0.13091670E+00 0.38608466E+02</pdfrwt>
<totfact> 0.86437547E+06</totfact>
</mgrwt>
</event>
<event>
 4    1  0.7521660E+004  0.3161132E+02  0.7546771E-02  0.1580931E+00
         21   -1    0    0  501  502  0.00000000000E+00  0.00000000000E+00  0.31286444255E+02  0.31286444255E+02  0.00000000000E+00 0. -1.
         21   -1    0    0  502  503 -0.00000000000E+00 -0.00000000000E+00 -0.32074084635E+02  0.32074084635E+02  0.00000000000E+00 0. -1.
          1    1    1    2  501    0 -0.29426265388E+02 -0.11548614010E+02  0.16577965332E+01  0.31654760615E+02  0.00000000000E+00 0. -1.
         -1    1    1    2    0  503  0.29426265388E+02  0.11548614010E+02 -0.24454369134E+01  0.31705768275E+02  0.00000000000E+00 0.  1.
<mgrwt>
<rscale>  2 0.31611320E+02</rscale>
<asrwt>0</asrwt>
<pdfrwt beam="1">  1       21 0.48132991E-02 0.31611320E+02</pdfrwt>
<pdfrwt beam="2">  1       21 0.49344745E-02 0.31611320E+02</pdfrwt>
<totfact> 0.60106536E+07</totfact>
</mgrwt>
</event>
<event>
 4    1  0.7521660E+004  0.3960104E+02  0.7546771E-02  0.1511168E+00
         21   -1    0    0  501  502  0.00000000000E+00  0.00000000000E+00  0.16854858402E+03  0.16854858402E+03  0.00000000000E+00 0.  1.
         21   -1    0    0  502  503 -0.00000000000E+00 -0.00000000000E+00 -0.98297187504E+01  0.98297187504E+01  0.00000000000E+00 0.  1.
          5    1    1    2  501    0  0.38324392474E+02  0.99741369611E+01  0.58741014784E+02  0.70843131527E+02  0.00000000000E+00 0.  1.
         -5    1    1    2    0  503 -0.38324392474E+02 -0.99741369611E+01  0.99977850481E+02  0.10753517124E+03  0.00000000000E+00 0. -1.
<mgrwt>
<rscale>  2 0.39601041E+02</rscale>
<asrwt>0</asrwt>
<pdfrwt beam="1">  1       21 0.25930549E-01 0.39601041E+02</pdfrwt>
<pdfrwt beam="2">  1       21 0.15122645E-02 0.39601041E+02</pdfrwt>
<totfact> 0.23046585E+07</totfact>
</mgrwt>
</event>
<event>
 4    1  0.7521660E+004  0.2083305E+02  0.7546771E-02  0.1729252E+00
         21   -1    0    0  503  502  0.00000000000E+00  0.00000000000E+00  0.93579001325E+02  0.93579001325E+02  0.00000000000E+00 0.  1.
         21   -1    0    0  501  503 -0.00000000000E+00 -0.00000000000E+00 -0.55919613377E+01  0.55919613377E+01  0.00000000000E+00 0.  1.
          4    1    1    2  501    0  0.16582342533E+02 -0.12611181847E+02  0.23512756099E+02  0.31414418518E+02  0.00000000000E+00 0. -1.
         -4    1    1    2    0  502 -0.16582342533E+02  0.12611181847E+02  0.64474283889E+02  0.67756544145E+02  0.00000000000E+00 0.  1.
<mgrwt>
<rscale>  2 0.20833050E+02</rscale>
<asrwt>0</asrwt>
<pdfrwt beam="1">  1       21 0.14396768E-01 0.20833050E+02</pdfrwt>
<pdfrwt beam="2">  1       21 0.86030181E-03 0.20833050E+02</pdfrwt>
<totfact> 0.13194650E+08</totfact>
</mgrwt>
</event>
<event>
 4    1  0.7521660E+004  0.2106973E+02  0.7546771E-02  0.1724855E+00
         21   -1    0    0  503  502  0.00000000000E+00  0.00000000000E+00  0.69897450803E+00  0.69897450803E+00  0.00000000000E+00 0.  1.
         21   -1    0    0  501  503 -0.00000000000E+00 -0.00000000000E+00 -0.75640887822E+03  0.75640887822E+03  0.00000000000E+00 0.  1.
          5    1    1    2  501    0  0.19056816742E+02 -0.89872822656E+01 -0.52944051532E+03  0.52985959722E+03  0.00000000000E+00 0. -1.
         -5    1    1    2    0  502 -0.19056816742E+02  0.89872822656E+01 -0.22626938840E+03  0.22724825551E+03  0.00000000000E+00 0.  1.
<mgrwt>
<rscale>  2 0.21069730E+02</rscale>
<asrwt>0</asrwt>
<pdfrwt beam="1">  1       21 0.10753516E-03 0.21069730E+02</pdfrwt>
<pdfrwt beam="2">  1       21 0.11636992E+00 0.21069730E+02</pdfrwt>
<totfact> 0.50224228E+07</totfact>
</mgrwt>
</event>
<event>
 4    1  0.7521660E+004  0.2030493E+02  0.7546771E-02  0.1739331E+00
         21   -1    0    0  503  502  0.00000000000E+00  0.00000000000E+00  0.59186977809E+00  0.59186977809E+00  0.00000000000E+00 0. -1.
         21   -1    0    0  501  503 -0.00000000000E+00 -0.00000000000E+00 -0.79483649090E+03  0.79483649090E+03  0.00000000000E+00 0. -1.
          5    1    1    2  501    0  0.19035563907E+02  0.70666539434E+01 -0.53694953508E+03  0.53733331696E+03  0.00000000000E+00 0. -1.
         -5    1    1    2    0  502 -0.19035563907E+02 -0.70666539434E+01 -0.25729508604E+03  0.25809504372E+03  0.00000000000E+00 0.  1.
<mgrwt>
<rscale>  2 0.20304933E+02</rscale>
<asrwt>0</asrwt>
<pdfrwt beam="1">  1       21 0.91056336E-04 0.20304933E+02</pdfrwt>
<pdfrwt beam="2">  1       21 0.12228328E+00 0.20304933E+02</pdfrwt>
<totfact> 0.56398805E+07</totfact>
</mgrwt>
</event>
<event>
 4    1  0.7521660E+004  0.2492320E+02  0.7546771E-02  0.1662108E+00
         21   -1    0    0  501  502  0.00000000000E+00  0.00000000000E+00  0.84080368371E+02  0.84080368371E+02  0.00000000000E+00 0.  1.
         21   -1    0    0  502  503 -0.00000000000E+00 -0.00000000000E+00 -0.76480446309E+01  0.76480446309E+01  0.00000000000E+00 0.  1.
          5    1    1    2  501    0  0.24921155356E+02 -0.31895342563E+00  0.46677160344E+02  0.52914298761E+02  0.00000000000E+00 0.  1.
         -5    1    1    2    0  503 -0.24921155356E+02  0.31895342563E+00  0.29755163396E+02  0.38814114241E+02  0.00000000000E+00 0. -1.
<mgrwt>
<rscale>  2 0.24923196E+02</rscale>
<asrwt>0</asrwt>
<pdfrwt beam="1">  1       21 0.12935441E-01 0.24923196E+02</pdfrwt>
<pdfrwt beam="2">  1       21 0.11766223E-02 0.24923196E+02</pdfrwt>
<totfact> 0.10399415E+08</totfact>
</mgrwt>
</event>
<event>
 4    1  0.7521660E+004  0.2046395E+02  0.7546771E-02  0.1736256E+00
         21   -1    0    0  501  502  0.00000000000E+00  0.00000000000E+00  0.44262156703E+01  0.44262156703E+01  0.00000000000E+00 0. -1.
         21   -1    0    0  502  503 -0.00000000000E+00 -0.00000000000E+00 -0.11549168607E+03  0.11549168607E+03  0.00000000000E+00 0. -1.
          2    1    1    2  501    0  0.72847932689E+01 -0.19123420844E+02 -0.30038622983E+02  0.36346833541E+02  0.00000000000E+00 0. -1.
         -2    1    1    2    0  503 -0.72847932689E+01  0.19123420844E+02 -0.81026847420E+02  0.83571068203E+02  0.00000000000E+00 0.  1.
<mgrwt>
<rscale>  2 0.20463955E+02</rscale>
<asrwt>0</asrwt>
<pdfrwt beam="1">  1       21 0.68095625E-03 0.20463955E+02</pdfrwt>
<pdfrwt beam="2">  1       21 0.17767952E-01 0.20463955E+02</pdfrwt>
<totfact> 0.12979394E+08</totfact>
</mgrwt>
</event>
<event>
 4    1  0.7521660E+004  0.2037189E+02  0.7546771E-02  0.1738032E+00
         21   -1    0    0  501  502  0.00000000000E+00  0.00000000000E+00  0.49564957470E+03  0.49564957470E+03  0.00000000000E+00 0. -1.
         21   -1    0    0  502  503 -0.00000000000E+00 -0.00000000000E+00 -0.16314763471E+01  0.16314763471E+01  0.00000000000E+00 0. -1.
          1    1    1    2  501    0 -0.20354938024E+02 -0.83097927893E+00  0.42048382523E+03  0.42097703181E+03  0.00000000000E+00 0. -1.
         -1    1    1    2    0  503  0.20354938024E+02  0.83097927893E+00  0.73534273119E+02  0.76304019237E+02  0.00000000000E+00 0.  1.
<mgrwt>
<rscale>  2 0.20371893E+02</rscale>
<asrwt>0</asrwt>
<pdfrwt beam="1">  1       21 0.76253661E-01 0.20371893E+02</pdfrwt>
<pdfrwt beam="2">  1       21 0.25099676E-03 0.20371893E+02</pdfrwt>
<totfact> 0.36744383E+07</totfact>
</mgrwt>
</event>
<event>
 4    1  0.7521660E+004  0.2032657E+02  0.7546771E-02  0.1738911E+00
         21   -1    0    0  503  502  0.00000000000E+00  0.00000000000E+00  0.25923129656E+02  0.25923129656E+02  0.00000000000E+00 0.  1.
         21   -1    0    0  501  503 -0.00000000000E+00 -0.00000000000E+00 -0.17384247412E+02  0.17384247412E+02  0.00000000000E+00 0.  1.
          2    1    1    2  501    0 -0.76288109082E+01 -0.18840669423E+02 -0.19756128527E+01  0.20422356043E+02  0.00000000000E+00 0.  1.
         -2    1    1    2    0  502  0.76288109082E+01  0.18840669423E+02  0.10514495097E+02  0.22885021025E+02  0.00000000000E+00 0. -1.
<mgrwt>
<rscale>  2 0.20326573E+02</rscale>
<asrwt>0</asrwt>
<pdfrwt beam="1">  1       21 0.39881738E-02 0.20326573E+02</pdfrwt>
<pdfrwt beam="2">  1       21 0.26744996E-02 0.20326573E+02</pdfrwt>
<totfact> 0.18844889E+08</totfact>
</mgrwt>
</event>
<event>
 4    1  0.7521660E+004  0.2159420E+02  0.7546771E-02  0.1715366E+00
         21   -1    0    0  503  502  0.00000000000E+00  0.00000000000E+00  0.12466673860E+03  0.12466673860E+03  0.00000000000E+00 0.  1.
         21   -1    0    0  501  503 -0.00000000000E+00 -0.00000000000E+00 -0.40660690726E+01  0.40660690726E+01  0.00000000000E+00 0.  1.
          2    1    1    2  501    0  0.21499667998E+02  0.20183116318E+01  0.42085345970E+02  0.47302068150E+02  0.00000000000E+00 0.  1.
         -2    1    1    2    0  502 -0.21499667998E+02 -0.20183116318E+01  0.78515323560E+02  0.81430739525E+02  0.00000000000E+00 0. -1.
<mgrwt>
<rscale>  2 0.21594196E+02</rscale>
<asrwt>0</asrwt>
<pdfrwt beam="1">  1       21 0.19179495E-01 0.21594196E+02</pdfrwt>
<pdfrwt beam="2">  1       21 0.62554918E-03 0.21594196E+02</pdfrwt>
<totfact> 0.13103199E+08</totfact>
</mgrwt>
</event>
<event>
 4    1  0.7521660E+004  0.2182980E+02  0.7546771E-02  0.1711212E+00
         21   -1    0    0  503  502  0.00000000000E+00  0.00000000000E+00  0.33667179717E+03  0.33667179717E+03  0.00000000000E+00 0.  1.
         21   -1    0    0  501  503 -0.00000000000E+00 -0.00000000000E+00 -0.16053890944E+01  0.16053890944E+01  0.00000000000E+00 0.  1.
          3    1    1    2  501    0  0.29281181760E+01  0.21632525658E+02  0.10935414242E+03  0.11151174156E+03  0.00000000000E+00 0. -1.
         -3    1    1    2    0  502 -0.29281181760E+01 -0.21632525658E+02  0.22571226566E+03  0.22676544470E+03  0.00000000000E+00 0.  1.
<mgrwt>
<rscale>  2 0.21829797E+02</rscale>
<asrwt>0</asrwt>
<pdfrwt beam="1">  1       21 0.51795605E-01 0.21829797E+02</pdfrwt>
<pdfrwt beam="2">  1       21 0.24698321E-03 0.21829797E+02</pdfrwt>
<totfact> 0.83130228E+07</totfact>
</mgrwt>
</event>
<event>
 4    1  0.7521660E+004  0.2227879E+02  0.7546771E-02  0.1703475E+00
         21   -1    0    0  501  502  0.00000000000E+00  0.00000000000E+00  0.22400623017E+02  0.22400623017E+02  0.00000000000E+00 0.  1.
         21   -1    0    0  502  503 -0.00000000000E+00 -0.00000000000E+00 -0.22784378403E+02  0.22784378403E+02  0.00000000000E+00 0.  1.
          5    1    1    2  501    0 -0.55932716005E+01  0.21565244028E+02 -0.39389894983E+01  0.22624324862E+02  0.00000000000E+00 0. -1.
         -5    1    1    2    0  503  0.55932716005E+01 -0.21565244028E+02  0.35552341125E+01  0.22560676558E+02  0.00000000000E+00 0.  1.
<mgrwt>
<rscale>  2 0.22278789E+02</rscale>
<asrwt>0</asrwt>
<pdfrwt beam="1">  1       21 0.34462497E-02 0.22278789E+02</pdfrwt>
<pdfrwt beam="2">  1       21 0.35052890E-02 0.22278789E+02</pdfrwt>
<totfact> 0.16014649E+08</totfact>
</mgrwt>
</event>
<event>
 4    1  0.7521660E+004  0.2687066E+02  0.7546771E-02  0.1635501E+00
         21   -1    0    0  501  502  0.00000000000E+00  0.00000000000E+00  0.75154712801E+03  0.75154712801E+03  0.00000000000E+00 0. -1.
         21   -1    0    0  502  503 -0.00000000000E+00 -0.00000000000E+00 -0.11614490944E+01  0.11614490944E+01  0.00000000000E+00 0. -1.
          5    1    1    2  501    0  0.35479376480E+01 -0.26635404401E+02  0.53164908821E+03  0.53232770511E+03  0.00000000000E+00 0.  1.
         -5    1    1    2    0  503 -0.35479376480E+01  0.26635404401E+02  0.21873659071E+03  0.22038087200E+03  0.00000000000E+00 0. -1.
<mgrwt>
<rscale>  2 0.26870665E+02</rscale>
<asrwt>0</asrwt>
<pdfrwt beam="1">  1       21 0.11562225E+00 0.26870665E+02</pdfrwt>
<pdfrwt beam="2">  1       21 0.17868508E-03 0.26870665E+02</pdfrwt>
<totfact> 0.25808754E+07</totfact>
</mgrwt>
</event>
<event>
 4    1  0.7521660E+004  0.2062400E+02  0.7546771E-02  0.1733196E+00
         21   -1    0    0  503  502  0.00000000000E+00  0.00000000000E+00  0.44057426994E+00  0.44057426994E+00  0.00000000000E+00 0. -1.
         21   -1    0    0  501  503 -0.00000000000E+00 -0.00000000000E+00 -0.10547317531E+04  0.10547317531E+04  0.00000000000E+00 0. -1.
          2    1    1    2  501    0 -0.24951251903E+01 -0.20472506787E+02 -0.37364089734E+03  0.37420965962E+03  0.00000000000E+00 0. -1.
         -2    1    1    2    0  502  0.24951251903E+01  0.20472506787E+02 -0.68065028145E+03  0.68096266772E+03  0.00000000000E+00 0.  1.
<mgrwt>
<rscale>  2 0.20623995E+02</rscale>
<asrwt>0</asrwt>
<pdfrwt beam="1">  1       21 0.67779811E-04 0.20623995E+02</pdfrwt>
<pdfrwt beam="2">  1       21 0.16226845E+00 0.20623995E+02</pdfrwt>
<totfact> 0.44483864E+07</totfact>
</mgrwt>
</event>
<event>
 4    1  0.7521660E+004  0.2192537E+02  0.7546771E-02  0.1709546E+00
         21   -1    0    0  501  502  0.00000000000E+00  0.00000000000E+00  0.76980596519E+01  0.76980596519E+01  0.00000000000E+00 0.  1.
         21   -1    0    0  502  503 -0.00000000000E+00 -0.00000000000E+00 -0.63579813510E+02  0.63579813510E+02  0.00000000000E+00 0.  1.
          3    1    1    2  501    0 -0.21922611611E+02 -0.34758963971E+00 -0.23184023882E+02  0.31909570379E+02  0.00000000000E+00 0. -1.
         -3    1    1    2    0  503  0.21922611611E+02  0.34758963971E+00 -0.32697729976E+02  0.39368302783E+02  0.00000000000E+00 0.  1.
<mgrwt>
<rscale>  2 0.21925367E+02</rscale>
<asrwt>0</asrwt>
<pdfrwt beam="1">  1       21 0.11843168E-02 0.21925367E+02</pdfrwt>
<pdfrwt beam="2">  1       21 0.97815100E-02 0.21925367E+02</pdfrwt>
<totfact> 0.15817291E+08</totfact>
</mgrwt>
</event>
<event>
 4    1  0.7521660E+004  0.2068342E+02  0.7546771E-02  0.1732069E+00
         21   -1    0    0  503  502  0.00000000000E+00  0.00000000000E+00  0.28589865583E+03  0.28589865583E+03  0.00000000000E+00 0.  1.
         21   -1    0    0  501  503 -0.00000000000E+00 -0.00000000000E+00 -0.15780756088E+01  0.15780756088E+01  0.00000000000E+00 0.  1.
          1    1    1    2  501    0 -0.28176579713E+01 -0.20490595708E+02  0.10944921619E+03  0.11138642033E+03  0.00000000000E+00 0. -1.
         -1    1    1    2    0  502  0.28176579713E+01  0.20490595708E+02  0.17487136403E+03  0.17609031111E+03  0.00000000000E+00 0.  1.
<mgrwt>
<rscale>  2 0.20683416E+02</rscale>
<asrwt>0</asrwt>
<pdfrwt beam="1">  1       21 0.43984367E-01 0.20683416E+02</pdfrwt>
<pdfrwt beam="2">  1       21 0.24278109E-03 0.20683416E+02</pdfrwt>
<totfact> 0.11504954E+08</totfact>
</mgrwt>
</event>
<event>
 4    1  0.7521660E+004  0.3376883E+02  0.7546771E-02  0.1559814E+00
         21   -1    0    0  501  502  0.00000000000E+00  0.00000000000E+00  0.11563235011E+02  0.11563235011E+02  0.00000000000E+00 0. -1.
         21   -1    0    0  502  503 -0.00000000000E+00 -0.00000000000E+00 -0.12266633257E+03  0.12266633257E+03  0.00000000000E+00 0. -1.
          5    1    1    2  501    0  0.32797539529E+02  0.80408549167E+01 -0.85268561144E+02  0.91711839293E+02  0.00000000000E+00 0.  1.
         -5    1    1    2    0  503 -0.32797539529E+02 -0.80408549167E+01 -0.25834536413E+02  0.42517728286E+02  0.00000000000E+00 0. -1.
<mgrwt>
<rscale>  2 0.33768831E+02</rscale>
<asrwt>0</asrwt>
<pdfrwt beam="1">  1       21 0.17789593E-02 0.33768831E+02</pdfrwt>
<pdfrwt beam="2">  1       21 0.18871743E-01 0.33768831E+02</pdfrwt>
<totfact> 0.30839147E+07</totfact>
</mgrwt>
</event>
<event>
 4    1  0.7521660E+004  0.2086329E+02  0.7546771E-02  0.1728686E+00
         21   -1    0    0  503  502  0.00000000000E+00  0.00000000000E+00  0.25730728808E+03  0.25730728808E+03  0.00000000000E+00 0. -1.
         21   -1    0    0  501  503 -0.00000000000E+00 -0.00000000000E+00 -0.18657167236E+01  0.18657167236E+01  0.00000000000E+00 0. -1.
          3    1    1    2  501    0 -0.18047217240E+02 -0.10467792808E+02  0.16730125275E+03  0.16859711121E+03  0.00000000000E+00 0.  1.
         -3    1    1    2    0  502  0.18047217240E+02  0.10467792808E+02  0.88140318604E+02  0.90575893592E+02  0.00000000000E+00 0. -1.
<mgrwt>
<rscale>  2 0.20863287E+02</rscale>
<asrwt>0</asrwt>
<pdfrwt beam="1">  1       21 0.39585708E-01 0.20863287E+02</pdfrwt>
<pdfrwt beam="2">  1       21 0.28703355E-03 0.20863287E+02</pdfrwt>
<totfact> 0.11040256E+08</totfact>
</mgrwt>
</event>
<event>
 4    1  0.7521660E+004  0.5122133E+02  0.7546771E-02  0.1438863E+00
         21   -1    0    0  503  502  0.00000000000E+00  0.00000000000E+00  0.55370406725E+02  0.55370406725E+02  0.00000000000E+00 0. -1.
         21   -1    0    0  501  503 -0.00000000000E+00 -0.00000000000E+00 -0.47546942754E+02  0.47546942754E+02  0.00000000000E+00 0. -1.
          3    1    1    2  501    0 -0.29273117950E+02 -0.42032240550E+02  0.69319287435E+01  0.51688260914E+02  0.00000000000E+00 0.  1.
         -3    1    1    2    0  502  0.29273117950E+02  0.42032240550E+02  0.89153522777E+00  0.51229088565E+02  0.00000000000E+00 0. -1.
<mgrwt>
<rscale>  2 0.51221330E+02</rscale>
<asrwt>0</asrwt>
<pdfrwt beam="1">  1       21 0.85185241E-02 0.51221330E+02</pdfrwt>
<pdfrwt beam="2">  1       21 0.73149143E-02 0.51221330E+02</pdfrwt>
<totfact> 0.13393131E+07</totfact>
</mgrwt>
</event>
<event>
 4    1  0.7521660E+004  0.2345635E+02  0.7546771E-02  0.1684218E+00
         21   -1    0    0  501  502  0.00000000000E+00  0.00000000000E+00  0.47859926605E+02  0.47859926605E+02  0.00000000000E+00 0.  1.
         21   -1    0    0  502  503 -0.00000000000E+00 -0.00000000000E+00 -0.12975837082E+02  0.12975837082E+02  0.00000000000E+00 0.  1.
          3    1    1    2  501    0 -0.74160036073E+00  0.23444624738E+02  0.27714162777E+02  0.36308059968E+02  0.00000000000E+00 0.  1.
         -3    1    1    2    0  503  0.74160036073E+00 -0.23444624738E+02  0.71699267463E+01  0.24527703719E+02  0.00000000000E+00 0. -1.
<mgrwt>
<rscale>  2 0.23456351E+02</rscale>
<asrwt>0</asrwt>
<pdfrwt beam="1">  1       21 0.73630655E-02 0.23456351E+02</pdfrwt>
<pdfrwt beam="2">  1       21 0.19962827E-02 0.23456351E+02</pdfrwt>
<totfact> 0.11612836E+08</totfact>
</mgrwt>
</event>
<event>
 4    1  0.7521660E+004  0.2036966E+02  0.7546771E-02  0.1738075E+00
         21   -1    0    0  503  502  0.00000000000E+00  0.00000000000E+00  0.16058412684E+00  0.16058412684E+00  0.00000000000E+00 0.  1.
         21   -1    0    0  501  503 -0.00000000000E+00 -0.00000000000E+00 -0.26218012203E+04  0.26218012203E+04  0.00000000000E+00 0.  1.
          1    1    1    2  501    0  0.15023936073E+02 -0.13755158595E+02 -0.11530629621E+04  0.11532428702E+04  0.00000000000E+00 0.  1.
         -1    1    1    2    0  502 -0.15023936073E+02  0.13755158595E+02 -0.14685776741E+04  0.14687189343E+04  0.00000000000E+00 0. -1.
<mgrwt>
<rscale>  2 0.20369660E+02</rscale>
<asrwt>0</asrwt>
<pdfrwt beam="1">  1       21 0.24702956E-04 0.20369660E+02</pdfrwt>
<pdfrwt beam="2">  1       21 0.40339149E+00 0.20369660E+02</pdfrwt>
<totfact> 0.10526586E+07</totfact>
</mgrwt>
</event>
<event>
 4    1  0.7521660E+004  0.2605508E+02  0.7546771E-02  0.1646294E+00
         21   -1    0    0  503  502  0.00000000000E+00  0.00000000000E+00  0.59540734882E+02  0.59540734882E+02  0.00000000000E+00 0.  1.
         21   -1    0    0  501  503 -0.00000000000E+00 -0.00000000000E+00 -0.13293908533E+02  0.13293908533E+02  0.00000000000E+00 0.  1.
          5    1    1    2  501    0 -0.23962682220E+02  0.10230198598E+02  0.93841559052E+01  0.27693491737E+02  0.00000000000E+00 0.  1.
         -5    1    1    2    0  502  0.23962682220E+02 -0.10230198598E+02  0.36862670444E+02  0.45141151678E+02  0.00000000000E+00 0. -1.
<mgrwt>
<rscale>  2 0.26055078E+02</rscale>
<asrwt>0</asrwt>
<pdfrwt beam="1">  1       21 0.91601129E-02 0.26055078E+02</pdfrwt>
<pdfrwt beam="2">  1       21 0.20452167E-02 0.26055078E+02</pdfrwt>
<totfact> 0.80472274E+07</totfact>
</mgrwt>
</event>
<event>
 4    1  0.7521660E+004  0.4217504E+02  0.7546771E-02  0.1492789E+00
         21   -1    0    0  501  502  0.00000000000E+00  0.00000000000E+00  0.19654906988E+03  0.19654906988E+03  0.00000000000E+00 0.  1.
         21   -1    0    0  502  503 -0.00000000000E+00 -0.00000000000E+00 -0.13759184902E+02  0.13759184902E+02  0.00000000000E+00 0.  1.
          1    1    1    2  501    0  0.20151215022E+02 -0.37049457068E+02  0.15291420692E+03  0.15862373219E+03  0.00000000000E+00 0.  1.
         -1    1    1    2    0  503 -0.20151215022E+02  0.37049457068E+02  0.29875678052E+02  0.51684522586E+02  0.00000000000E+00 0. -1.
<mgrwt>
<rscale>  2 0.42175037E+02</rscale>
<asrwt>0</asrwt>
<pdfrwt beam="1">  1       21 0.30238316E-01 0.42175037E+02</pdfrwt>
<pdfrwt beam="2">  1       21 0.21167978E-02 0.42175037E+02</pdfrwt>
<totfact> 0.10368244E+07</totfact>
</mgrwt>
</event>
<event>
 4    1  0.7521660E+004  0.2695904E+02  0.7546771E-02  0.1634360E+00
         21   -1    0    0  503  502  0.00000000000E+00  0.00000000000E+00  0.63817703762E+00  0.63817703762E+00  0.00000000000E+00 0. -1.
         21   -1    0    0  501  503 -0.00000000000E+00 -0.00000000000E+00 -0.14122444420E+04  0.14122444420E+04  0.00000000000E+00 0. -1.
          2    1    1    2  501    0 -0.23275179553E+02 -0.13603527019E+02 -0.10166263754E+04  0.10169837644E+04  0.00000000000E+00 0.  1.
         -2    1    1    2    0  502  0.23275179553E+02  0.13603527019E+02 -0.39497988960E+03  0.39589885465E+03  0.00000000000E+00 0. -1.
<mgrwt>
<rscale>  2 0.26959042E+02</rscale>
<asrwt>0</asrwt>
<pdfrwt beam="1">  1       21 0.98180937E-04 0.26959042E+02</pdfrwt>
<pdfrwt beam="2">  1       21 0.21726870E+00 0.26959042E+02</pdfrwt>
<totfact> 0.13067348E+07</totfact>
</mgrwt>
</event>
<event>
 4    1  0.7521660E+004  0.2424521E+02  0.7546771E-02  0.1672086E+00
         21   -1    0    0  503  502  0.00000000000E+00  0.00000000000E+00  0.85362578771E+02  0.85362578771E+02  0.00000000000E+00 0.  1.
         21   -1    0    0  501  503 -0.00000000000E+00 -0.00000000000E+00 -0.76270721723E+01  0.76270721723E+01  0.00000000000E+00 0.  1.
          5    1    1    2  501    0  0.15407642833E+02  0.18719901430E+02  0.53357988585E+02  0.58608063550E+02  0.00000000000E+00 0. -1.
         -5    1    1    2    0  502 -0.15407642833E+02 -0.18719901430E+02  0.24377518014E+02  0.34381587394E+02  0.00000000000E+00 0.  1.
<mgrwt>
<rscale>  2 0.24245209E+02</rscale>
<asrwt>0</asrwt>
<pdfrwt beam="1">  1       21 0.13132704E-01 0.24245209E+02</pdfrwt>
<pdfrwt beam="2">  1       21 0.11733958E-02 0.24245209E+02</pdfrwt>
<totfact> 0.10104384E+08</totfact>
</mgrwt>
</event>
<event>
 4    1  0.7521660E+004  0.2083337E+02  0.7546771E-02  0.1729246E+00
         21   -1    0    0  501  502  0.00000000000E+00  0.00000000000E+00  0.13269036950E+03  0.13269036950E+03  0.00000000000E+00 0. -1.
         21   -1    0    0  502  503 -0.00000000000E+00 -0.00000000000E+00 -0.32822986888E+01  0.32822986888E+01  0.00000000000E+00 0. -1.
          5    1    1    2  501    0  0.15777375113E+02  0.13605290060E+02  0.68693827032E+02  0.71783503366E+02  0.00000000000E+00 0. -1.
         -5    1    1    2    0  503 -0.15777375113E+02 -0.13605290060E+02  0.60714243780E+02  0.64189164825E+02  0.00000000000E+00 0.  1.
<mgrwt>
<rscale>  2 0.20833374E+02</rscale>
<asrwt>0</asrwt>
<pdfrwt beam="1">  1       21 0.20413899E-01 0.20833374E+02</pdfrwt>
<pdfrwt beam="2">  1       21 0.50496913E-03 0.20833374E+02</pdfrwt>
<totfact> 0.15954763E+08</totfact>
</mgrwt>
</event>
<event>
 4    1  0.7521660E+004  0.2310423E+02  0.7546771E-02  0.1689826E+00
         21   -1    0    0  503  502  0.00000000000E+00  0.00000000000E+00  0.36962493789E+01  0.36962493789E+01  0.00000000000E+00 0.  1.
         21   -1    0    0  501  503 -0.00000000000E+00 -0.00000000000E+00 -0.18081156514E+03  0.18081156514E+03  0.00000000000E+00 0.  1.
          4    1    1    2  501    0  0.15313946446E+02  0.17299955323E+02 -0.12994649390E+03  0.13198445623E+03  0.00000000000E+00 0.  1.
         -4    1    1    2    0  502 -0.15313946446E+02 -0.17299955323E+02 -0.47168821855E+02  0.52523358281E+02  0.00000000000E+00 0. -1.
<mgrwt>
<rscale>  2 0.23104229E+02</rscale>
<asrwt>0</asrwt>
<pdfrwt beam="1">  1       21 0.56865366E-03 0.23104229E+02</pdfrwt>
<pdfrwt beam="2">  1       21 0.27817168E-01 0.23104229E+02</pdfrwt>
<totfact> 0.79694681E+07</totfact>
</mgrwt>
</event>
<event>
 4    1  0.7521660E+004  0.2410390E+02  0.7546771E-02  0.1674217E+00
         21   -1    0    0  501  502  0.00000000000E+00  0.00000000000E+00  0.40492973144E+02  0.40492973144E+02  0.00000000000E+00 0. -1.
         21   -1    0    0  502  503 -0.00000000000E+00 -0.00000000000E+00 -0.14536645194E+02  0.14536645194E+02  0.00000000000E+00 0. -1.
          1    1    1    2  501    0  0.17769940681E+01 -0.24038310830E+02  0.98447522276E+01  0.26036843932E+02  0.00000000000E+00 0. -1.
         -1    1    1    2    0  503 -0.17769940681E+01  0.24038310830E+02  0.16111575723E+02  0.28992774406E+02  0.00000000000E+00 0.  1.
<mgrwt>
<rscale>  2 0.24103902E+02</rscale>
<asrwt>0</asrwt>
<pdfrwt beam="1">  1       21 0.62296881E-02 0.24103902E+02</pdfrwt>
<pdfrwt beam="2">  1       21 0.22364070E-02 0.24103902E+02</pdfrwt>
<totfact> 0.12882437E+08</totfact>
</mgrwt>
</event>
<event>
 4    1  0.7521660E+004  0.2656460E+02  0.7546771E-02  0.1639495E+00
         21   -1    0    0  503  502  0.00000000000E+00  0.00000000000E+00  0.66314800527E+00  0.66314800527E+00  0.00000000000E+00 0. -1.
         21   -1    0    0  501  503 -0.00000000000E+00 -0.00000000000E+00 -0.14014237173E+04  0.14014237173E+04  0.00000000000E+00 0. -1.
          3    1    1    2  501    0 -0.29732975575E+01 -0.26397674364E+02 -0.10443041833E+04  0.10446419985E+04  0.00000000000E+00 0. -1.
         -3    1    1    2    0  502  0.29732975575E+01  0.26397674364E+02 -0.35645638599E+03  0.35744486683E+03  0.00000000000E+00 0.  1.
<mgrwt>
<rscale>  2 0.26564595E+02</rscale>
<asrwt>0</asrwt>
<pdfrwt beam="1">  1       21 0.10202286E-03 0.26564595E+02</pdfrwt>
<pdfrwt beam="2">  1       21 0.21560347E+00 0.26564595E+02</pdfrwt>
<totfact> 0.12609485E+07</totfact>
</mgrwt>
</event>
<event>
 4    1  0.7521660E+004  0.2343027E+02  0.7546771E-02  0.1684629E+00
         21   -1    0    0  503  502  0.00000000000E+00  0.00000000000E+00  0.27270195393E+02  0.27270195393E+02  0.00000000000E+00 0.  1.
         21   -1    0    0  501  503 -0.00000000000E+00 -0.00000000000E+00 -0.23081543688E+02  0.23081543688E+02  0.00000000000E+00 0.  1.
          3    1    1    2  501    0  0.12046588069E+02  0.20096195904E+02  0.11095521258E+02  0.25924659417E+02  0.00000000000E+00 0.  1.
         -3    1    1    2    0  502 -0.12046588069E+02 -0.20096195904E+02 -0.69068695525E+01  0.24427079664E+02  0.00000000000E+00 0. -1.
<mgrwt>
<rscale>  2 0.23430266E+02</rscale>
<asrwt>0</asrwt>
<pdfrwt beam="1">  1       21 0.41954147E-02 0.23430266E+02</pdfrwt>
<pdfrwt beam="2">  1       21 0.35510067E-02 0.23430266E+02</pdfrwt>
<totfact> 0.11695253E+08</totfact>
</mgrwt>
</event>
<event>
 4    1  0.7521660E+004  0.2546288E+02  0.7546771E-02  0.1654441E+00
         21   -1    0    0  501  502  0.00000000000E+00  0.00000000000E+00  0.12609071053E+04  0.12609071053E+04  0.00000000000E+00 0. -1.
         21   -1    0    0  502  503 -0.00000000000E+00 -0.00000000000E+00 -0.72679829250E+00  0.72679829250E+00  0.00000000000E+00 0. -1.
          1    1    1    2  501    0 -0.17006930323E+02  0.18950529387E+02  0.28891574544E+03  0.29003562920E+03  0.00000000000E+00 0. -1.
         -1    1    1    2    0  503  0.17006930323E+02 -0.18950529387E+02  0.97126456161E+03  0.97159827444E+03  0.00000000000E+00 0.  1.
<mgrwt>
<rscale>  2 0.25462880E+02</rscale>
<asrwt>0</asrwt>
<pdfrwt beam="1">  1       21 0.19398396E+00 0.25462880E+02</pdfrwt>
<pdfrwt beam="2">  1       21 0.11181613E-03 0.25462880E+02</pdfrwt>
<totfact> 0.14524786E+07</totfact>
</mgrwt>
</event>
<event>
 4    1  0.7521660E+004  0.2097874E+02  0.7546771E-02  0.1726537E+00
         21   -1    0    0  503  502  0.00000000000E+00  0.00000000000E+00  0.32638980771E+01  0.32638980771E+01  0.00000000000E+00 0.  1.
         21   -1    0    0  501  503 -0.00000000000E+00 -0.00000000000E+00 -0.13946137583E+03  0.13946137583E+03  0.00000000000E+00 0.  1.
          1    1    1    2  501    0  0.11722866279E+02  0.17397751518E+02 -0.81087913190E+02  0.83757728104E+02  0.00000000000E+00 0.  1.
         -1    1    1    2    0  502 -0.11722866279E+02 -0.17397751518E+02 -0.55109564559E+02  0.58967545799E+02  0.00000000000E+00 0. -1.
<mgrwt>
<rscale>  2 0.20978736E+02</rscale>
<asrwt>0</asrwt>
<pdfrwt beam="1">  1       21 0.50213825E-03 0.20978736E+02</pdfrwt>
<pdfrwt beam="2">  1       21 0.21455593E-01 0.20978736E+02</pdfrwt>
<totfact> 0.14779622E+08</totfact>
</mgrwt>
</event>
<event>
 4    1  0.7521660E+004  0.2209320E+02  0.7546771E-02  0.1706645E+00
         21   -1    0    0  503  502  0.00000000000E+00  0.00000000000E+00  0.32672038044E+01  0.32672038044E+01  0.00000000000E+00 0.  1.
         21   -1    0    0  501  503 -0.00000000000E+00 -0.00000000000E+00 -0.14980752744E+03  0.14980752744E+03  0.00000000000E+00 0.  1.
          4    1    1    2  501    0 -0.72118967393E+01  0.20882955796E+02 -0.69261828837E+02  0.72700139141E+02  0.00000000000E+00 0.  1.
         -4    1    1    2    0  502  0.72118967393E+01 -0.20882955796E+02 -0.77278494795E+02  0.80374592100E+02  0.00000000000E+00 0. -1.
<mgrwt>
<rscale>  2 0.22093196E+02</rscale>
<asrwt>0</asrwt>
<pdfrwt beam="1">  1       21 0.50264667E-03 0.22093196E+02</pdfrwt>
<pdfrwt beam="2">  1       21 0.23047315E-01 0.22093196E+02</pdfrwt>
<totfact> 0.13211436E+08</totfact>
</mgrwt>
</event>
<event>
 4    1  0.7521660E+004  0.3075557E+02  0.7546771E-02  0.1589884E+00
         21   -1    0    0  501  502  0.00000000000E+00  0.00000000000E+00  0.36226948326E+01  0.36226948326E+01  0.00000000000E+00 0. -1.
         21   -1    0    0  502  503 -0.00000000000E+00 -0.00000000000E+00 -0.26170935136E+03  0.26170935136E+03  0.00000000000E+00 0. -1.
          3    1    1    2  501    0  0.84753314356E+00  0.30743885589E+02 -0.13541697185E+03  0.13886562238E+03  0.00000000000E+00 0.  1.
         -3    1    1    2    0  503 -0.84753314356E+00 -0.30743885589E+02 -0.12266968468E+03  0.12646642381E+03  0.00000000000E+00 0. -1.
<mgrwt>
<rscale>  2 0.30755566E+02</rscale>
<asrwt>0</asrwt>
<pdfrwt beam="1">  1       21 0.55733770E-03 0.30755566E+02</pdfrwt>
<pdfrwt beam="2">  1       21 0.40262974E-01 0.30755566E+02</pdfrwt>
<totfact> 0.44155710E+07</totfact>
</mgrwt>
</event>
<event>
 4    1  0.7521660E+004  0.2338792E+02  0.7546771E-02  0.1685298E+00
         21   -1    0    0  503  502  0.00000000000E+00  0.00000000000E+00  0.15067105530E+03  0.15067105530E+03  0.00000000000E+00 0. -1.
         21   -1    0    0  501  503 -0.00000000000E+00 -0.00000000000E+00 -0.36304268294E+01  0.36304268294E+01  0.00000000000E+00 0. -1.
          3    1    1    2  501    0 -0.15760001582E+02  0.17280548645E+02  0.73758879621E+02  0.77378080451E+02  0.00000000000E+00 0.  1.
         -3    1    1    2    0  502  0.15760001582E+02 -0.17280548645E+02  0.73281748852E+02  0.76923401681E+02  0.00000000000E+00 0. -1.
<mgrwt>
<rscale>  2 0.23387924E+02</rscale>
<asrwt>0</asrwt>
<pdfrwt beam="1">  1       21 0.23180157E-01 0.23387924E+02</pdfrwt>
<pdfrwt beam="2">  1       21 0.55852732E-03 0.23387924E+02</pdfrwt>
<totfact> 0.11374070E+08</totfact>
</mgrwt>
</event>
<event>
 4    1  0.7521660E+004  0.2326316E+02  0.7546771E-02  0.1687280E+00
         21   -1    0    0  501  502  0.00000000000E+00  0.00000000000E+00  0.11327659835E+03  0.11327659835E+03  0.00000000000E+00 0. -1.
         21   -1    0    0  502  503 -0.00000000000E+00 -0.00000000000E+00 -0.48572185845E+01  0.48572185845E+01  0.00000000000E+00 0. -1.
          1    1    1    2  501    0 -0.23157740399E+02 -0.22121227865E+01  0.46640683116E+02  0.52120319925E+02  0.00000000000E+00 0. -1.
         -1    1    1    2    0  503  0.23157740399E+02  0.22121227865E+01  0.61778696646E+02  0.66013497006E+02  0.00000000000E+00 0.  1.
<mgrwt>
<rscale>  2 0.23263156E+02</rscale>
<asrwt>0</asrwt>
<pdfrwt beam="1">  1       21 0.17427167E-01 0.23263156E+02</pdfrwt>
<pdfrwt beam="2">  1       21 0.74726449E-03 0.23263156E+02</pdfrwt>
<totfact> 0.12131825E+08</totfact>
</mgrwt>
</event>
<event>
 4    1  0.7521660E+004  0.3446739E+02  0.7546771E-02  0.1553382E+00
         21   -1    0    0  501  502  0.00000000000E+00  0.00000000000E+00  0.23649860013E+01  0.23649860013E+01  0.00000000000E+00 0. -1.
         21   -1    0    0  502  503 -0.00000000000E+00 -0.00000000000E+00 -0.52721739691E+03  0.52721739691E+03  0.00000000000E+00 0. -1.
          5    1    1    2  501    0  0.43494388101E+01 -0.34191860261E+02 -0.31995795725E+03  0.32180909765E+03  0.00000000000E+00 0.  1.
         -5    1    1    2    0  503 -0.43494388101E+01  0.34191860261E+02 -0.20489445366E+03  0.20777328525E+03  0.00000000000E+00 0. -1.
<mgrwt>
<rscale>  2 0.34467389E+02</rscale>
<asrwt>0</asrwt>
<pdfrwt beam="1">  1       21 0.36384383E-03 0.34467389E+02</pdfrwt>
<pdfrwt beam="2">  1       21 0.81110408E-01 0.34467389E+02</pdfrwt>
<totfact> 0.20694385E+07</totfact>
</mgrwt>
</event>
<event>
 4    1  0.7521660E+004  0.5555098E+02  0.7546771E-02  0.1417511E+00
         21   -1    0    0  503  502  0.00000000000E+00  0.00000000000E+00  0.54452136217E+02  0.54452136217E+02  0.00000000000E+00 0. -1.
         21   -1    0    0  501  503 -0.00000000000E+00 -0.00000000000E+00 -0.14176297150E+03  0.14176297150E+03  0.00000000000E+00 0. -1.
          2    1    1    2  501    0  0.32843250691E+02  0.44802146229E+02 -0.11966402694E+03  0.13192949165E+03  0.00000000000E+00 0. -1.
         -2    1    1    2    0  502 -0.32843250691E+02 -0.44802146229E+02  0.32353191659E+02  0.64285616068E+02  0.00000000000E+00 0.  1.
<mgrwt>
<rscale>  2 0.55550980E+02</rscale>
<asrwt>0</asrwt>
<pdfrwt beam="1">  1       21 0.83772519E-02 0.55550980E+02</pdfrwt>
<pdfrwt beam="2">  1       21 0.21809688E-01 0.55550980E+02</pdfrwt>
<totfact> 0.20804696E+06</totfact>
</mgrwt>
</event>
<event>
 4    1  0.7521660E+004  0.2078697E+02  0.7546771E-02  0.1730116E+00
         21   -1    0    0  501  502  0.00000000000E+00  0.00000000000E+00  0.40713031789E+02  0.40713031789E+02  0.00000000000E+00 0. -1.
         21   -1    0    0  502  503 -0.00000000000E+00 -0.00000000000E+00 -0.11345500042E+02  0.11345500042E+02  0.00000000000E+00 0. -1.
          4    1    1    2  501    0 -0.80173558539E+01  0.19178635465E+02  0.80711028915E+01  0.22298895826E+02  0.00000000000E+00 0.  1.
         -4    1    1    2    0  503  0.80173558539E+01 -0.19178635465E+02  0.21296428855E+02  0.29759636005E+02  0.00000000000E+00 0. -1.
<mgrwt>
<rscale>  2 0.20786968E+02</rscale>
<asrwt>0</asrwt>
<pdfrwt beam="1">  1       21 0.62635433E-02 0.20786968E+02</pdfrwt>
<pdfrwt beam="2">  1       21 0.17454616E-02 0.20786968E+02</pdfrwt>
<totfact> 0.17844502E+08</totfact>
</mgrwt>
</event>
<event>
 4    1  0.7521660E+004  0.2320883E+02  0.7546771E-02  0.1688147E+00
         21   -1    0    0  501  502  0.00000000000E+00  0.00000000000E+00  0.22155999150E+01  0.22155999150E+01  0.00000000000E+00 0.  1.
         21   -1    0    0  502  503 -0.00000000000E+00 -0.00000000000E+00 -0.43075012601E+03  0.43075012601E+03  0.00000000000E+00 0.  1.
          1    1    1    2  501    0  0.20644310266E+02 -0.10604823661E+02 -0.71389163891E+02  0.75067053707E+02  0.00000000000E+00 0.  1.
         -1    1    1    2    0  503 -0.20644310266E+02  0.10604823661E+02 -0.35714536220E+03  0.35789867222E+03  0.00000000000E+00 0. -1.
<mgrwt>
<rscale>  2 0.23208831E+02</rscale>
<asrwt>0</asrwt>
<pdfrwt beam="1">  1       21 0.34086119E-03 0.23208831E+02</pdfrwt>
<pdfrwt beam="2">  1       21 0.66269315E-01 0.23208831E+02</pdfrwt>
<totfact> 0.32322905E+07</totfact>
</mgrwt>
</event>
<event>
 4    1  0.7521660E+004  0.2533115E+02  0.7546771E-02  0.1656291E+00
         21   -1    0    0  501  502  0.00000000000E+00  0.00000000000E+00  0.34049272513E+00  0.34049272513E+00  0.00000000000E+00 0. -1.
         21   -1    0    0  502  503 -0.00000000000E+00 -0.00000000000E+00 -0.23127087088E+04  0.23127087088E+04  0.00000000000E+00 0. -1.
          1    1    1    2  501    0  0.23264424192E+02  0.10021670141E+02 -0.65855118998E+03  0.65903819094E+03  0.00000000000E+00 0.  1.
         -1    1    1    2    0  503 -0.23264424192E+02 -0.10021670141E+02 -0.16538170261E+04  0.16540110106E+04  0.00000000000E+00 0. -1.
<mgrwt>
<rscale>  2 0.25331153E+02</rscale>
<asrwt>0</asrwt>
<pdfrwt beam="1">  1       21 0.52380474E-04 0.25331153E+02</pdfrwt>
<pdfrwt beam="2">  1       21 0.35582187E+00 0.25331153E+02</pdfrwt>
<totfact> 0.64415981E+06</totfact>
</mgrwt>
</event>
<event>
 4    1  0.7521660E+004  0.3056638E+02  0.7546771E-02  0.1591911E+00
         21   -1    0    0  503  502  0.00000000000E+00  0.00000000000E+00  0.84393599895E+02  0.84393599895E+02  0.00000000000E+00 0.  1.
         21   -1    0    0  501  503 -0.00000000000E+00 -0.00000000000E+00 -0.13235133494E+02  0.13235133494E+02  0.00000000000E+00 0.  1.
          4    1    1    2  501    0 -0.25152420671E+01 -0.30462712267E+02  0.55319237014E+02  0.63202225160E+02  0.00000000000E+00 0. -1.
         -4    1    1    2    0  502  0.25152420671E+01  0.30462712267E+02  0.15839229386E+02  0.34426508229E+02  0.00000000000E+00 0.  1.
<mgrwt>
<rscale>  2 0.30566375E+02</rscale>
<asrwt>0</asrwt>
<pdfrwt beam="1">  1       21 0.12983630E-01 0.30566375E+02</pdfrwt>
<pdfrwt beam="2">  1       21 0.20361744E-02 0.30566375E+02</pdfrwt>
<totfact> 0.46864457E+07</totfact>
</mgrwt>
</event>
<event>
 4    1  0.7521660E+004  0.2439342E+02  0.7546771E-02  0.1669870E+00
         21   -1    0    0  503  502  0.00000000000E+00  0.00000000000E+00  0.32315180822E+03  0.32315180822E+03  0.00000000000E+00 0.  1.
         21   -1    0    0  501  503 -0.00000000000E+00 -0.00000000000E+00 -0.18951494025E+01  0.18951494025E+01  0.00000000000E+00 0.  1.
          5    1    1    2  501    0  0.23317526583E+02 -0.71646242569E+01  0.13324780069E+03  0.13546222822E+03  0.00000000000E+00 0. -1.
         -5    1    1    2    0  502 -0.23317526583E+02  0.71646242569E+01  0.18800885813E+03  0.18958472940E+03  0.00000000000E+00 0.  1.
<mgrwt>
<rscale>  2 0.24393419E+02</rscale>
<asrwt>0</asrwt>
<pdfrwt beam="1">  1       21 0.49715619E-01 0.24393419E+02</pdfrwt>
<pdfrwt beam="2">  1       21 0.29156170E-03 0.24393419E+02</pdfrwt>
<totfact> 0.72736552E+07</totfact>
</mgrwt>
</event>
<event>
 4    1  0.7521660E+004  0.9114732E+02  0.7546771E-02  0.1300097E+00
         21   -1    0    0  501  502  0.00000000000E+00  0.00000000000E+00  0.80642376310E+02  0.80642376310E+02  0.00000000000E+00 0. -1.
         21   -1    0    0  502  503 -0.00000000000E+00 -0.00000000000E+00 -0.11364922801E+03  0.11364922801E+03  0.00000000000E+00 0. -1.
          3    1    1    2  501    0  0.59484909724E+02 -0.69060687680E+02 -0.46211712454E+02  0.10219273671E+03  0.00000000000E+00 0. -1.
         -3    1    1    2    0  503 -0.59484909724E+02  0.69060687680E+02  0.13204860755E+02  0.92098867612E+02  0.00000000000E+00 0.  1.
<mgrwt>
<rscale>  2 0.91147315E+02</rscale>
<asrwt>0</asrwt>
<pdfrwt beam="1">  1       21 0.12406520E-01 0.91147315E+02</pdfrwt>
<pdfrwt beam="2">  1       21 0.17484496E-01 0.91147315E+02</pdfrwt>
<totfact> 0.16160644E+06</totfact>
</mgrwt>
</event>
<event>
 4    1  0.7521660E+004  0.2320817E+02  0.7546771E-02  0.1688158E+00
         21   -1    0    0  503  502  0.00000000000E+00  0.00000000000E+00  0.65452397308E+03  0.65452397308E+03  0.00000000000E+00 0. -1.
         21   -1    0    0  501  503 -0.00000000000E+00 -0.00000000000E+00 -0.11116467771E+01  0.11116467771E+01  0.00000000000E+00 0. -1.
          2    1    1    2  501    0  0.28839822790E+01 -0.23028280853E+02  0.49377472423E+03  0.49431983306E+03  0.00000000000E+00 0. -1.
         -2    1    1    2    0  502 -0.28839822790E+01  0.23028280853E+02  0.15963760207E+03  0.16131578679E+03  0.00000000000E+00 0.  1.
<mgrwt>
<rscale>  2 0.23208168E+02</rscale>
<asrwt>0</asrwt>
<pdfrwt beam="1">  1       21 0.10069569E+00 0.23208168E+02</pdfrwt>
<pdfrwt beam="2">  1       21 0.17102310E-03 0.23208168E+02</pdfrwt>
<totfact> 0.36391340E+07</totfact>
</mgrwt>
</event>
<event>
 4    1  0.7521660E+004  0.2151454E+02  0.7546771E-02  0.1716786E+00
         21   -1    0    0  503  502  0.00000000000E+00  0.00000000000E+00  0.96641897242E+02  0.96641897242E+02  0.00000000000E+00 0. -1.
         21   -1    0    0  501  503 -0.00000000000E+00 -0.00000000000E+00 -0.48161891726E+01  0.48161891726E+01  0.00000000000E+00 0. -1.
          5    1    1    2  501    0 -0.76782878282E+01 -0.20097747158E+02  0.49682481221E+02  0.54140783935E+02  0.00000000000E+00 0. -1.
         -5    1    1    2    0  502  0.76782878282E+01  0.20097747158E+02  0.42143226848E+02  0.47317302479E+02  0.00000000000E+00 0.  1.
<mgrwt>
<rscale>  2 0.21514543E+02</rscale>
<asrwt>0</asrwt>
<pdfrwt beam="1">  1       21 0.14867983E-01 0.21514543E+02</pdfrwt>
<pdfrwt beam="2">  1       21 0.74095226E-03 0.21514543E+02</pdfrwt>
<totfact> 0.15755546E+08</totfact>
</mgrwt>
</event>
<event>
 4    1  0.7521660E+004  0.2180165E+02  0.7546771E-02  0.1711705E+00
         21   -1    0    0  503  502  0.00000000000E+00  0.00000000000E+00  0.69884906823E+02  0.69884906823E+02  0.00000000000E+00 0.  1.
         21   -1    0    0  501  503 -0.00000000000E+00 -0.00000000000E+00 -0.94107705982E+01  0.94107705982E+01  0.00000000000E+00 0.  1.
          5    1    1    2  501    0  0.18479590629E+02  0.11567908265E+02  0.51114587501E+02  0.55569891370E+02  0.00000000000E+00 0. -1.
         -5    1    1    2    0  502 -0.18479590629E+02 -0.11567908265E+02  0.93595487237E+01  0.23725786051E+02  0.00000000000E+00 0.  1.
<mgrwt>
<rscale>  2 0.21801646E+02</rscale>
<asrwt>0</asrwt>
<pdfrwt beam="1">  1       21 0.10751524E-01 0.21801646E+02</pdfrwt>
<pdfrwt beam="2">  1       21 0.14478109E-02 0.21801646E+02</pdfrwt>
<totfact> 0.99698913E+07</totfact>
</mgrwt>
</event>
<event>
 4    1  0.7521660E+004  0.2266566E+02  0.7546771E-02  0.1696988E+00
         21   -1    0    0  501  502  0.00000000000E+00  0.00000000000E+00  0.29754490081E+03  0.29754490081E+03  0.00000000000E+00 0. -1.
         21   -1    0    0  502  503 -0.00000000000E+00 -0.00000000000E+00 -0.17849009757E+01  0.17849009757E+01  0.00000000000E+00 0. -1.
          4    1    1    2  501    0  0.22665419845E+02 -0.10504508460E+00  0.12082421616E+03  0.12293178394E+03  0.00000000000E+00 0.  1.
         -4    1    1    2    0  503 -0.22665419845E+02  0.10504508460E+00  0.17493578367E+03  0.17639801785E+03  0.00000000000E+00 0. -1.
<mgrwt>
<rscale>  2 0.22665663E+02</rscale>
<asrwt>0</asrwt>
<pdfrwt beam="1">  1       21 0.45776099E-01 0.22665663E+02</pdfrwt>
<pdfrwt beam="2">  1       21 0.27460039E-03 0.22665663E+02</pdfrwt>
<totfact> 0.91395694E+07</totfact>
</mgrwt>
</event>
<event>
 4    1  0.7521660E+004  0.2371997E+02  0.7546771E-02  0.1680099E+00
         21   -1    0    0  503  502  0.00000000000E+00  0.00000000000E+00  0.61662854404E+02  0.61662854404E+02  0.00000000000E+00 0.  1.
         21   -1    0    0  501  503 -0.00000000000E+00 -0.00000000000E+00 -0.12082103170E+02  0.12082103170E+02  0.00000000000E+00 0.  1.
          2    1    1    2  501    0 -0.56217770484E+01  0.23044148177E+02  0.43033854196E+02  0.49138068230E+02  0.00000000000E+00 0. -1.
         -2    1    1    2    0  502  0.56217770484E+01 -0.23044148177E+02  0.65468970372E+01  0.24606889344E+02  0.00000000000E+00 0.  1.
<mgrwt>
<rscale>  2 0.23719973E+02</rscale>
<asrwt>0</asrwt>
<pdfrwt beam="1">  1       21 0.94865929E-02 0.23719973E+02</pdfrwt>
<pdfrwt beam="2">  1       21 0.18587851E-02 0.23719973E+02</pdfrwt>
<totfact> 0.85827260E+07</totfact>
</mgrwt>
</event>
<event>
 4    1  0.7521660E+004  0.3964612E+02  0.7546771E-02  0.1510832E+00
         21   -1    0    0  501  502  0.00000000000E+00  0.00000000000E+00  0.42250851111E+03  0.42250851111E+03  0.00000000000E+00 0. -1.
         21   -1    0    0  502  503 -0.00000000000E+00 -0.00000000000E+00 -0.37249596498E+01  0.37249596498E+01  0.00000000000E+00 0. -1.
          2    1    1    2  501    0 -0.25745240199E+02 -0.30149590237E+02  0.21701168712E+03  0.22060346219E+03  0.00000000000E+00 0.  1.
         -2    1    1    2    0  503  0.25745240199E+02  0.30149590237E+02  0.20177186435E+03  0.20563000858E+03  0.00000000000E+00 0. -1.
<mgrwt>
<rscale>  2 0.39646124E+02</rscale>
<asrwt>0</asrwt>
<pdfrwt beam="1">  1       21 0.65001271E-01 0.39646124E+02</pdfrwt>
<pdfrwt beam="2">  1       21 0.57307105E-03 0.39646124E+02</pdfrwt>
<totfact> 0.17070359E+07</totfact>
</mgrwt>
</event>
<event>
 4    1  0.7521660E+004  0.2234756E+02  0.7546771E-02  0.1702309E+00
         21   -1    0    0  503  502  0.00000000000E+00  0.00000000000E+00  0.27465817832E+02  0.27465817832E+02  0.00000000000E+00 0.  1.
         21   -1    0    0  501  503 -0.00000000000E+00 -0.00000000000E+00 -0.18297662509E+02  0.18297662509E+02  0.00000000000E+00 0.  1.
          1    1    1    2  501    0 -0.14739467675E+02 -0.16797670111E+02  0.27734953176E+01  0.22519012073E+02  0.00000000000E+00 0. -1.
         -1    1    1    2    0  502  0.14739467675E+02  0.16797670111E+02  0.63946600053E+01  0.23244468268E+02  0.00000000000E+00 0.  1.
<mgrwt>
<rscale>  2 0.22347564E+02</rscale>
<asrwt>0</asrwt>
<pdfrwt beam="1">  1       21 0.42255104E-02 0.22347564E+02</pdfrwt>
<pdfrwt beam="2">  1       21 0.28150250E-02 0.22347564E+02</pdfrwt>
<totfact> 0.16379018E+08</totfact>
</mgrwt>
</event>
<event>
 4    1  0.7521660E+004  0.4147050E+02  0.7546771E-02  0.1497661E+00
         21   -1    0    0  501  502  0.00000000000E+00  0.00000000000E+00  0.10407599370E+02  0.10407599370E+02  0.00000000000E+00 0. -1.
         21   -1    0    0  502  503 -0.00000000000E+00 -0.00000000000E+00 -0.19216621132E+03  0.19216621132E+03  0.00000000000E+00 0. -1.
          5    1    1    2  501    0  0.30389528593E+02  0.28218408255E+02 -0.52968463167E+02  0.67271540066E+02  0.00000000000E+00 0. -1.
         -5    1    1    2    0  503 -0.30389528593E+02 -0.28218408255E+02 -0.12879014878E+03  0.13530227062E+03  0.00000000000E+00 0.  1.
<mgrwt>
<rscale>  2 0.41470496E+02</rscale>
<asrwt>0</asrwt>
<pdfrwt beam="1">  1       21 0.16011692E-02 0.41470496E+02</pdfrwt>
<pdfrwt beam="2">  1       21 0.29564031E-01 0.41470496E+02</pdfrwt>
<totfact> 0.16680536E+07</totfact>
</mgrwt>
</event>
<event>
 4    1  0.7521660E+004  0.4431872E+02  0.7546771E-02  0.1478640E+00
         21   -1    0    0  501  502  0.00000000000E+00  0.00000000000E+00  0.62586072202E+01  0.62586072202E+01  0.00000000000E+00 0. -1.
         21   -1    0    0  502  503 -0.00000000000E+00 -0.00000000000E+00 -0.34750998709E+03  0.34750998709E+03  0.00000000000E+00 0. -1.
          2    1    1    2  501    0  0.10911411472E+02 -0.42954507864E+02 -0.22569141360E+03  0.23000165829E+03  0.00000000000E+00 0.  1.
         -2    1    1    2    0  503 -0.10911411472E+02  0.42954507864E+02 -0.11555996628E+03  0.12376693602E+03  0.00000000000E+00 0. -1.
<mgrwt>
<rscale>  2 0.44318717E+02</rscale>
<asrwt>0</asrwt>
<pdfrwt beam="1">  1       21 0.96286272E-03 0.44318717E+02</pdfrwt>
<pdfrwt beam="2">  1       21 0.53463071E-01 0.44318717E+02</pdfrwt>
<totfact> 0.11739777E+07</totfact>
</mgrwt>
</event>
<event>
 4    1  0.7521660E+004  0.2900736E+02  0.7546771E-02  0.1609327E+00
         21   -1    0    0  503  502  0.00000000000E+00  0.00000000000E+00  0.67274566536E+01  0.67274566536E+01  0.00000000000E+00 0. -1.
         21   -1    0    0  501  503 -0.00000000000E+00 -0.00000000000E+00 -0.12510612339E+03  0.12510612339E+03  0.00000000000E+00 0. -1.
          2    1    1    2  501    0  0.11903863099E+02 -0.26452312988E+02 -0.58125546467E+02  0.64961573035E+02  0.00000000000E+00 0. -1.
         -2    1    1    2    0  502 -0.11903863099E+02  0.26452312988E+02 -0.60253120265E+02  0.66872007004E+02  0.00000000000E+00 0.  1.
<mgrwt>
<rscale>  2 0.29007358E+02</rscale>
<asrwt>0</asrwt>
<pdfrwt beam="1">  1       21 0.10349934E-02 0.29007358E+02</pdfrwt>
<pdfrwt beam="2">  1       21 0.19247095E-01 0.29007358E+02</pdfrwt>
<totfact> 0.66176935E+07</totfact>
</mgrwt>
</event>
<event>
 4    1  0.7521660E+004  0.2635892E+02  0.7546771E-02  0.1642217E+00
         21   -1    0    0  501  502  0.00000000000E+00  0.00000000000E+00  0.33807198692E+02  0.33807198692E+02  0.00000000000E+00 0.  1.
         21   -1    0    0  502  503 -0.00000000000E+00 -0.00000000000E+00 -0.34136320618E+02  0.34136320618E+02  0.00000000000E+00 0.  1.
          1    1    1    2  501    0  0.50619807476E+01  0.25868302557E+02 -0.21595179810E+02  0.34075570682E+02  0.00000000000E+00 0. -1.
         -1    1    1    2    0  503 -0.50619807476E+01 -0.25868302557E+02  0.21266057884E+02  0.33867948627E+02  0.00000000000E+00 0.  1.
<mgrwt>
<rscale>  2 0.26358921E+02</rscale>
<asrwt>0</asrwt>
<pdfrwt beam="1">  1       21 0.52011074E-02 0.26358921E+02</pdfrwt>
<pdfrwt beam="2">  1       21 0.52517417E-02 0.26358921E+02</pdfrwt>
<totfact> 0.46052172E+07</totfact>
</mgrwt>
</event>
<event>
 4    1  0.7521660E+004  0.2602188E+02  0.7546771E-02  0.1646744E+00
         21   -1    0    0  503  502  0.00000000000E+00  0.00000000000E+00  0.64139741476E+01  0.64139741476E+01  0.00000000000E+00 0.  1.
         21   -1    0    0  501  503 -0.00000000000E+00 -0.00000000000E+00 -0.12818222983E+03  0.12818222983E+03  0.00000000000E+00 0.  1.
          2    1    1    2  501    0  0.22970551491E+02  0.12226688097E+02 -0.89148432808E+02  0.92868623387E+02  0.00000000000E+00 0. -1.
         -2    1    1    2    0  502 -0.22970551491E+02 -0.12226688097E+02 -0.32619822876E+02  0.41727580592E+02  0.00000000000E+00 0.  1.
<mgrwt>
<rscale>  2 0.26021878E+02</rscale>
<asrwt>0</asrwt>
<pdfrwt beam="1">  1       21 0.98676535E-03 0.26021878E+02</pdfrwt>
<pdfrwt beam="2">  1       21 0.19720341E-01 0.26021878E+02</pdfrwt>
<totfact> 0.66424809E+07</totfact>
</mgrwt>
</event>
<event>
 4    1  0.7521660E+004  0.2548969E+02  0.7546771E-02  0.1654066E+00
         21   -1    0    0  501  502  0.00000000000E+00  0.00000000000E+00  0.19635389200E+01  0.19635389200E+01  0.00000000000E+00 0.  1.
         21   -1    0    0  502  503 -0.00000000000E+00 -0.00000000000E+00 -0.33763333780E+03  0.33763333780E+03  0.00000000000E+00 0.  1.
          5    1    1    2  501    0 -0.99441942897E+01 -0.23469924452E+02 -0.19182331070E+03  0.19350944908E+03  0.00000000000E+00 0.  1.
         -5    1    1    2    0  503  0.99441942897E+01  0.23469924452E+02 -0.14384648818E+03  0.14608742764E+03  0.00000000000E+00 0. -1.
<mgrwt>
<rscale>  2 0.25489691E+02</rscale>
<asrwt>0</asrwt>
<pdfrwt beam="1">  1       21 0.30208291E-03 0.25489691E+02</pdfrwt>
<pdfrwt beam="2">  1       21 0.51943590E-01 0.25489691E+02</pdfrwt>
<totfact> 0.64038960E+07</totfact>
</mgrwt>
</event>
<event>
 4    1  0.7521660E+004  0.2016322E+02  0.7546771E-02  0.1742102E+00
         21   -1    0    0  503  502  0.00000000000E+00  0.00000000000E+00  0.74090026721E+01  0.74090026721E+01  0.00000000000E+00 0. -1.
         21   -1    0    0  501  503 -0.00000000000E+00 -0.00000000000E+00 -0.78079909704E+02  0.78079909704E+02  0.00000000000E+00 0. -1.
          4    1    1    2  501    0  0.33392163880E+00  0.20160451240E+02 -0.58638753145E+02  0.62008537060E+02  0.00000000000E+00 0.  1.
         -4    1    1    2    0  502 -0.33392163880E+00 -0.20160451240E+02 -0.12032153887E+02  0.23480375317E+02  0.00000000000E+00 0. -1.
<mgrwt>
<rscale>  2 0.20163216E+02</rscale>
<asrwt>0</asrwt>
<pdfrwt beam="1">  1       21 0.11398466E-02 0.20163216E+02</pdfrwt>
<pdfrwt beam="2">  1       21 0.12012294E-01 0.20163216E+02</pdfrwt>
<totfact> 0.11623502E+08</totfact>
</mgrwt>
</event>
<event>
 4    1  0.7521660E+004  0.2107531E+02  0.7546771E-02  0.1724753E+00
         21   -1    0    0  501  502  0.00000000000E+00  0.00000000000E+00  0.38371028372E+01  0.38371028372E+01  0.00000000000E+00 0. -1.
         21   -1    0    0  502  503 -0.00000000000E+00 -0.00000000000E+00 -0.11576351349E+03  0.11576351349E+03  0.00000000000E+00 0. -1.
          5    1    1    2  501    0  0.80544070477E+01 -0.19475500478E+02 -0.56437260725E+02  0.60243945670E+02  0.00000000000E+00 0. -1.
         -5    1    1    2    0  503 -0.80544070477E+01  0.19475500478E+02 -0.55489149924E+02  0.59356670653E+02  0.00000000000E+00 0.  1.
<mgrwt>
<rscale>  2 0.21075308E+02</rscale>
<asrwt>0</asrwt>
<pdfrwt beam="1">  1       21 0.59032352E-03 0.21075308E+02</pdfrwt>
<pdfrwt beam="2">  1       21 0.17809771E-01 0.21075308E+02</pdfrwt>
<totfact> 0.16107143E+08</totfact>
</mgrwt>
</event>
<event>
 4    1  0.7521660E+004  0.2379397E+02  0.7546771E-02  0.1678954E+00
         21   -1    0    0  501  502  0.00000000000E+00  0.00000000000E+00  0.86798237726E+03  0.86798237726E+03  0.00000000000E+00 0.  1.
         21   -1    0    0  502  503 -0.00000000000E+00 -0.00000000000E+00 -0.10014744254E+01  0.10014744254E+01  0.00000000000E+00 0.  1.
          1    1    1    2  501    0  0.97978855581E+01  0.21683041231E+02  0.17692039731E+03  0.17851324831E+03  0.00000000000E+00 0. -1.
         -1    1    1    2    0  503 -0.97978855581E+01 -0.21683041231E+02  0.69006050552E+03  0.69047060337E+03  0.00000000000E+00 0.  1.
<mgrwt>
<rscale>  2 0.23793966E+02</rscale>
<asrwt>0</asrwt>
<pdfrwt beam="1">  1       21 0.13353515E+00 0.23793966E+02</pdfrwt>
<pdfrwt beam="2">  1       21 0.15407368E-03 0.23793966E+02</pdfrwt>
<totfact> 0.22493098E+07</totfact>
</mgrwt>
</event>
<event>
 4    1  0.7521660E+004  0.2565619E+02  0.7546771E-02  0.1651752E+00
         21   -1    0    0  503  502  0.00000000000E+00  0.00000000000E+00  0.19707720164E+02  0.19707720164E+02  0.00000000000E+00 0.  1.
         21   -1    0    0  501  503 -0.00000000000E+00 -0.00000000000E+00 -0.33408951264E+02  0.33408951264E+02  0.00000000000E+00 0.  1.
          3    1    1    2  501    0 -0.17193736533E+02  0.19042462366E+02 -0.64184831633E+01  0.26446868908E+02  0.00000000000E+00 0. -1.
         -3    1    1    2    0  502  0.17193736533E+02 -0.19042462366E+02 -0.72827479373E+01  0.26669802520E+02  0.00000000000E+00 0.  1.
<mgrwt>
<rscale>  2 0.25656187E+02</rscale>
<asrwt>0</asrwt>
<pdfrwt beam="1">  1       21 0.30319570E-02 0.25656187E+02</pdfrwt>
<pdfrwt beam="2">  1       21 0.51398386E-02 0.25656187E+02</pdfrwt>
<totfact> 0.11126034E+08</totfact>
</mgrwt>
</event>
<event>
 4    1  0.7521660E+004  0.2007860E+02  0.7546771E-02  0.1743769E+00
         21   -1    0    0  501  502  0.00000000000E+00  0.00000000000E+00  0.44840324396E+01  0.44840324396E+01  0.00000000000E+00 0. -1.
         21   -1    0    0  502  503 -0.00000000000E+00 -0.00000000000E+00 -0.95365488838E+02  0.95365488838E+02  0.00000000000E+00 0. -1.
          1    1    1    2  501    0 -0.62610184959E+01  0.19077473320E+02 -0.33497623959E+02  0.39054335890E+02  0.00000000000E+00 0. -1.
         -1    1    1    2    0  503  0.62610184959E+01 -0.19077473320E+02 -0.57383832439E+02  0.60795185387E+02  0.00000000000E+00 0.  1.
<mgrwt>
<rscale>  2 0.20078604E+02</rscale>
<asrwt>0</asrwt>
<pdfrwt beam="1">  1       21 0.68985119E-03 0.20078604E+02</pdfrwt>
<pdfrwt beam="2">  1       21 0.14671613E-01 0.20078604E+02</pdfrwt>
<totfact> 0.17538813E+08</totfact>
</mgrwt>
</event>
<event>
 4    1  0.7521660E+004  0.3019700E+02  0.7546771E-02  0.1595921E+00
         21   -1    0    0  503  502  0.00000000000E+00  0.00000000000E+00  0.50908649816E+02  0.50908649816E+02  0.00000000000E+00 0. -1.
         21   -1    0    0  501  503 -0.00000000000E+00 -0.00000000000E+00 -0.17959183925E+02  0.17959183925E+02  0.00000000000E+00 0. -1.
          5    1    1    2  501    0  0.30155846516E+02  0.15759993647E+01  0.14703559915E+02  0.33586508114E+02  0.00000000000E+00 0.  1.
         -5    1    1    2    0  502 -0.30155846516E+02 -0.15759993647E+01  0.18245905976E+02  0.35281325627E+02  0.00000000000E+00 0. -1.
<mgrwt>
<rscale>  2 0.30197001E+02</rscale>
<asrwt>0</asrwt>
<pdfrwt beam="1">  1       21 0.78320999E-02 0.30197001E+02</pdfrwt>
<pdfrwt beam="2">  1       21 0.27629514E-02 0.30197001E+02</pdfrwt>
<totfact> 0.67683002E+07</totfact>
</mgrwt>
</event>
<event>
 4    1  0.7521660E+004  0.3447823E+02  0.7546771E-02  0.1553283E+00
         21   -1    0    0  501  502  0.00000000000E+00  0.00000000000E+00  0.10905564910E+01  0.10905564910E+01  0.00000000000E+00 0. -1.
         21   -1    0    0  502  503 -0.00000000000E+00 -0.00000000000E+00 -0.11038456280E+04  0.11038456280E+04  0.00000000000E+00 0. -1.
          1    1    1    2  501    0  0.22813467854E+01  0.34402667979E+02 -0.61316654856E+03  0.61413513528E+03  0.00000000000E+00 0. -1.
         -1    1    1    2    0  503 -0.22813467854E+01 -0.34402667979E+02 -0.48958852292E+03  0.49080104919E+03  0.00000000000E+00 0.  1.
<mgrwt>
<rscale>  2 0.34478227E+02</rscale>
<asrwt>0</asrwt>
<pdfrwt beam="1">  1       21 0.16777791E-03 0.34478227E+02</pdfrwt>
<pdfrwt beam="2">  1       21 0.16982241E+00 0.34478227E+02</pdfrwt>
<totfact> 0.11728463E+07</totfact>
</mgrwt>
</event>
<event>
 4    1  0.7521660E+004  0.3128728E+02  0.7546771E-02  0.1584280E+00
         21   -1    0    0  501  502  0.00000000000E+00  0.00000000000E+00  0.82246684513E+03  0.82246684513E+03  0.00000000000E+00 0. -1.
         21   -1    0    0  502  503 -0.00000000000E+00 -0.00000000000E+00 -0.14173252150E+01  0.14173252150E+01  0.00000000000E+00 0. -1.
          4    1    1    2  501    0  0.25414796179E+02  0.18247791809E+02  0.24561689520E+03  0.24760160133E+03  0.00000000000E+00 0.  1.
         -4    1    1    2    0  503 -0.25414796179E+02 -0.18247791809E+02  0.57543262471E+03  0.57628256901E+03  0.00000000000E+00 0. -1.
<mgrwt>
<rscale>  2 0.31287278E+02</rscale>
<asrwt>0</asrwt>
<pdfrwt beam="1">  1       21 0.12653298E+00 0.31287278E+02</pdfrwt>
<pdfrwt beam="2">  1       21 0.21805069E-03 0.31287278E+02</pdfrwt>
<totfact> 0.16083360E+07</totfact>
</mgrwt>
</event>
<event>
 4    1  0.7521660E+004  0.2709660E+02  0.7546771E-02  0.1632594E+00
         21   -1    0    0  501  502  0.00000000000E+00  0.00000000000E+00  0.42744546494E+03  0.42744546494E+03  0.00000000000E+00 0. -1.
         21   -1    0    0  502  503 -0.00000000000E+00 -0.00000000000E+00 -0.17185894782E+01  0.17185894782E+01  0.00000000000E+00 0. -1.
          2    1    1    2  501    0  0.27096567059E+02 -0.40743560214E-01  0.21772890290E+03  0.21940852483E+03  0.00000000000E+00 0. -1.
         -2    1    1    2    0  503 -0.27096567059E+02  0.40743560214E-01  0.20799797255E+03  0.20975552959E+03  0.00000000000E+00 0.  1.
<mgrwt>
<rscale>  2 0.27096598E+02</rscale>
<asrwt>0</asrwt>
<pdfrwt beam="1">  1       21 0.65760756E-01 0.27096598E+02</pdfrwt>
<pdfrwt beam="2">  1       21 0.26439872E-03 0.27096598E+02</pdfrwt>
<totfact> 0.49164565E+07</totfact>
</mgrwt>
</event>
<event>
 4    1  0.7521660E+004  0.2049576E+02  0.7546771E-02  0.1735645E+00
         21   -1    0    0  501  502  0.00000000000E+00  0.00000000000E+00  0.18284404300E+03  0.18284404300E+03  0.00000000000E+00 0. -1.
         21   -1    0    0  502  503 -0.00000000000E+00 -0.00000000000E+00 -0.27018518034E+01  0.27018518034E+01  0.00000000000E+00 0. -1.
          1    1    1    2  501    0  0.19597829570E+02  0.60000883332E+01  0.12596282472E+03  0.12761939193E+03  0.00000000000E+00 0.  1.
         -1    1    1    2    0  503 -0.19597829570E+02 -0.60000883332E+01  0.54179366469E+02  0.57926502871E+02  0.00000000000E+00 0. -1.
<mgrwt>
<rscale>  2 0.20495755E+02</rscale>
<asrwt>0</asrwt>
<pdfrwt beam="1">  1       21 0.28129843E-01 0.20495755E+02</pdfrwt>
<pdfrwt beam="2">  1       21 0.41566965E-03 0.20495755E+02</pdfrwt>
<totfact> 0.11984716E+08</totfact>
</mgrwt>
</event>
<event>
 4    1  0.7521660E+004  0.2515680E+02  0.7546771E-02  0.1658760E+00
         21   -1    0    0  501  502  0.00000000000E+00  0.00000000000E+00  0.26711345181E+02  0.26711345181E+02  0.00000000000E+00 0.  1.
         21   -1    0    0  502  503 -0.00000000000E+00 -0.00000000000E+00 -0.26372072357E+02  0.26372072357E+02  0.00000000000E+00 0.  1.
          1    1    1    2  501    0 -0.56079990587E+01  0.24523758399E+02  0.86296643093E+01  0.26595779469E+02  0.00000000000E+00 0.  1.
         -1    1    1    2    0  503  0.56079990587E+01 -0.24523758399E+02 -0.82903914853E+01  0.26487638069E+02  0.00000000000E+00 0. -1.
<mgrwt>
<rscale>  2 0.25156796E+02</rscale>
<asrwt>0</asrwt>
<pdfrwt beam="1">  1       21 0.41094377E-02 0.25156796E+02</pdfrwt>
<pdfrwt beam="2">  1       21 0.40572419E-02 0.25156796E+02</pdfrwt>
<totfact> 0.99937925E+07</totfact>
</mgrwt>
</event>
<event>
 4    1  0.7521660E+004  0.2706137E+02  0.7546771E-02  0.1633045E+00
         21   -1    0    0  501  502  0.00000000000E+00  0.00000000000E+00  0.77038690657E+01  0.77038690657E+01  0.00000000000E+00 0.  1.
         21   -1    0    0  502  503 -0.00000000000E+00 -0.00000000000E+00 -0.95706982198E+02  0.95706982198E+02  0.00000000000E+00 0.  1.
          3    1    1    2  501    0 -0.17273572177E+02 -0.20831264441E+02 -0.48257826275E+02  0.55327530857E+02  0.00000000000E+00 0. -1.
         -3    1    1    2    0  503  0.17273572177E+02  0.20831264441E+02 -0.39745286857E+02  0.48083320407E+02  0.00000000000E+00 0.  1.
<mgrwt>
<rscale>  2 0.27061372E+02</rscale>
<asrwt>0</asrwt>
<pdfrwt beam="1">  1       21 0.11852106E-02 0.27061372E+02</pdfrwt>
<pdfrwt beam="2">  1       21 0.14724152E-01 0.27061372E+02</pdfrwt>
<totfact> 0.84280550E+07</totfact>
</mgrwt>
</event>
<event>
 4    1  0.7521660E+004  0.5352198E+02  0.7546771E-02  0.1427221E+00
         21   -1    0    0  501  502  0.00000000000E+00  0.00000000000E+00  0.77007083139E+02  0.77007083139E+02  0.00000000000E+00 0.  1.
         21   -1    0    0  502  503 -0.00000000000E+00 -0.00000000000E+00 -0.42515379832E+02  0.42515379832E+02  0.00000000000E+00 0.  1.
          1    1    1    2  501    0 -0.46127558827E+02 -0.27144992624E+02 -0.38864166075E+01  0.53662897256E+02  0.00000000000E+00 0.  1.
         -1    1    1    2    0  503  0.46127558827E+02  0.27144992624E+02  0.38378119915E+02  0.65859565714E+02  0.00000000000E+00 0. -1.
<mgrwt>
<rscale>  2 0.53521980E+02</rscale>
<asrwt>0</asrwt>
<pdfrwt beam="1">  1       21 0.11847244E-01 0.53521980E+02</pdfrwt>
<pdfrwt beam="2">  1       21 0.65408277E-02 0.53521980E+02</pdfrwt>
<totfact> 0.92424761E+06</totfact>
</mgrwt>
</event>
<event>
 4    1  0.7521660E+004  0.2763051E+02  0.7546771E-02  0.1625861E+00
         21   -1    0    0  501  502  0.00000000000E+00  0.00000000000E+00  0.31291326575E+03  0.31291326575E+03  0.00000000000E+00 0.  1.
         21   -1    0    0  502  503 -0.00000000000E+00 -0.00000000000E+00 -0.25279500045E+01  0.25279500045E+01  0.00000000000E+00 0.  1.
          2    1    1    2  501    0 -0.27167342396E+02 -0.50378928993E+01  0.18464519265E+03  0.18670107667E+03  0.00000000000E+00 0. -1.
         -2    1    1    2    0  503  0.27167342396E+02  0.50378928993E+01  0.12574012309E+03  0.12874013909E+03  0.00000000000E+00 0.  1.
<mgrwt>
<rscale>  2 0.27630506E+02</rscale>
<asrwt>0</asrwt>
<pdfrwt beam="1">  1       21 0.48140472E-01 0.27630506E+02</pdfrwt>
<pdfrwt beam="2">  1       21 0.38891563E-03 0.27630506E+02</pdfrwt>
<totfact> 0.52191144E+07</totfact>
</mgrwt>
</event>
<event>
 4    1  0.7521660E+004  0.2159543E+02  0.7546771E-02  0.1715344E+00
         21   -1    0    0  501  502  0.00000000000E+00  0.00000000000E+00  0.53847146441E+02  0.53847146441E+02  0.00000000000E+00 0. -1.
         21   -1    0    0  502  503 -0.00000000000E+00 -0.00000000000E+00 -0.86839069739E+01  0.86839069739E+01  0.00000000000E+00 0. -1.
          2    1    1    2  501    0  0.21591708693E+02  0.40099279793E+00  0.20970971743E+02  0.30102231402E+02  0.00000000000E+00 0.  1.
         -2    1    1    2    0  503 -0.21591708693E+02 -0.40099279793E+00  0.24192267725E+02  0.32428822014E+02  0.00000000000E+00 0. -1.
<mgrwt>
<rscale>  2 0.21595432E+02</rscale>
<asrwt>0</asrwt>
<pdfrwt beam="1">  1       21 0.82841762E-02 0.21595432E+02</pdfrwt>
<pdfrwt beam="2">  1       21 0.13359857E-02 0.21595432E+02</pdfrwt>
<totfact> 0.17236248E+08</totfact>
</mgrwt>
</event>
<event>
 4    1  0.7521660E+004  0.2493807E+02  0.7546771E-02  0.1661893E+00
         21   -1    0    0  503  502  0.00000000000E+00  0.00000000000E+00  0.19331558341E+02  0.19331558341E+02  0.00000000000E+00 0.  1.
         21   -1    0    0  501  503 -0.00000000000E+00 -0.00000000000E+00 -0.32699866566E+02  0.32699866566E+02  0.00000000000E+00 0.  1.
          1    1    1    2  501    0 -0.15843443194E+02 -0.19258569105E+02 -0.33742618732E+01  0.25165309842E+02  0.00000000000E+00 0.  1.
         -1    1    1    2    0  502  0.15843443194E+02  0.19258569105E+02 -0.99940463519E+01  0.26866115066E+02  0.00000000000E+00 0. -1.
<mgrwt>
<rscale>  2 0.24938067E+02</rscale>
<asrwt>0</asrwt>
<pdfrwt beam="1">  1       21 0.29740859E-02 0.24938067E+02</pdfrwt>
<pdfrwt beam="2">  1       21 0.50307486E-02 0.24938067E+02</pdfrwt>
<totfact> 0.11775698E+08</totfact>
</mgrwt>
</event>
<event>
 4    1  0.7521660E+004  0.3281422E+02  0.7546771E-02  0.1568914E+00
         21   -1    0    0  503  502  0.00000000000E+00  0.00000000000E+00  0.85076262028E+01  0.85076262028E+01  0.00000000000E+00 0. -1.
         21   -1    0    0  501  503 -0.00000000000E+00 -0.00000000000E+00 -0.23214634866E+03  0.23214634866E+03  0.00000000000E+00 0. -1.
          2    1    1    2  501    0 -0.32288158542E+02 -0.58521838425E+01 -0.30672003827E+02  0.44917090918E+02  0.00000000000E+00 0.  1.
         -2    1    1    2    0  502  0.32288158542E+02  0.58521838425E+01 -0.19296671863E+03  0.19573688394E+03  0.00000000000E+00 0. -1.
<mgrwt>
<rscale>  2 0.32814223E+02</rscale>
<asrwt>0</asrwt>
<pdfrwt beam="1">  1       21 0.13088657E-02 0.32814223E+02</pdfrwt>
<pdfrwt beam="2">  1       21 0.35714819E-01 0.32814223E+02</pdfrwt>
<totfact> 0.15422346E+07</totfact>
</mgrwt>
</event>
<event>
 4    1  0.7521660E+004  0.2583375E+02  0.7546771E-02  0.1649307E+00
         21   -1    0    0  501  502  0.00000000000E+00  0.00000000000E+00  0.49006058276E+01  0.49006058276E+01  0.00000000000E+00 0. -1.
         21   -1    0    0  502  503 -0.00000000000E+00 -0.00000000000E+00 -0.13856104064E+03  0.13856104064E+03  0.00000000000E+00 0. -1.
          4    1    1    2  501    0  0.21513021800E+02  0.14302891375E+02 -0.76225886148E+02  0.80484585653E+02  0.00000000000E+00 0.  1.
         -4    1    1    2    0  503 -0.21513021800E+02 -0.14302891375E+02 -0.57434548668E+02  0.62977060818E+02  0.00000000000E+00 0. -1.
<mgrwt>
<rscale>  2 0.25833753E+02</rscale>
<asrwt>0</asrwt>
<pdfrwt beam="1">  1       21 0.75393955E-03 0.25833753E+02</pdfrwt>
<pdfrwt beam="2">  1       21 0.21317078E-01 0.25833753E+02</pdfrwt>
<totfact> 0.86630345E+07</totfact>
</mgrwt>
</event>
<event>
 4    1  0.7521660E+004  0.2343995E+02  0.7546771E-02  0.1684476E+00
         21   -1    0    0  501  502  0.00000000000E+00  0.00000000000E+00  0.29142031246E+01  0.29142031246E+01  0.00000000000E+00 0.  1.
         21   -1    0    0  502  503 -0.00000000000E+00 -0.00000000000E+00 -0.20667228289E+03  0.20667228289E+03  0.00000000000E+00 0.  1.
          1    1    1    2  501    0  0.11895592602E+02  0.20197182771E+02 -0.13292248693E+03  0.13497340052E+03  0.00000000000E+00 0.  1.
         -1    1    1    2    0  503 -0.11895592602E+02 -0.20197182771E+02 -0.70835592834E+02  0.74613085497E+02  0.00000000000E+00 0. -1.
<mgrwt>
<rscale>  2 0.23439951E+02</rscale>
<asrwt>0</asrwt>
<pdfrwt beam="1">  1       21 0.44833880E-03 0.23439951E+02</pdfrwt>
<pdfrwt beam="2">  1       21 0.31795746E-01 0.23439951E+02</pdfrwt>
<totfact> 0.89101729E+07</totfact>
</mgrwt>
</event>
<event>
 4    1  0.7521660E+004  0.2883048E+02  0.7546771E-02  0.1611388E+00
         21   -1    0    0  501  502  0.00000000000E+00  0.00000000000E+00  0.18019870973E+02  0.18019870973E+02  0.00000000000E+00 0. -1.
         21   -1    0    0  502  503 -0.00000000000E+00 -0.00000000000E+00 -0.46127096504E+02  0.46127096504E+02  0.00000000000E+00 0. -1.
          5    1    1    2  501    0 -0.28014130708E+02  0.68121208241E+01 -0.14151977382E+02  0.32116584085E+02  0.00000000000E+00 0.  1.
         -5    1    1    2    0  503  0.28014130708E+02 -0.68121208241E+01 -0.13955248148E+02  0.32030383393E+02  0.00000000000E+00 0. -1.
<mgrwt>
<rscale>  2 0.28830479E+02</rscale>
<asrwt>0</asrwt>
<pdfrwt beam="1">  1       21 0.27722878E-02 0.28830479E+02</pdfrwt>
<pdfrwt beam="2">  1       21 0.70964764E-02 0.28830479E+02</pdfrwt>
<totfact> 0.78289886E+07</totfact>
</mgrwt>
</event>
<event>
 4    1  0.7521660E+004  0.2015143E+02  0.7546771E-02  0.1742333E+00
         21   -1    0    0  503  502  0.00000000000E+00  0.00000000000E+00  0.76653587790E+01  0.76653587790E+01  0.00000000000E+00 0.  1.
         21   -1    0    0  501  503 -0.00000000000E+00 -0.00000000000E+00 -0.69063226910E+02  0.69063226910E+02  0.00000000000E+00 0.  1.
          5    1    1    2  501    0 -0.19241521663E+01 -0.20059357808E+02 -0.49214802783E+02  0.53180607463E+02  0.00000000000E+00 0. -1.
         -5    1    1    2    0  502  0.19241521663E+01  0.20059357808E+02 -0.12183065348E+02  0.23547978226E+02  0.00000000000E+00 0.  1.
<mgrwt>
<rscale>  2 0.20151432E+02</rscale>
<asrwt>0</asrwt>
<pdfrwt beam="1">  1       21 0.11792860E-02 0.20151432E+02</pdfrwt>
<pdfrwt beam="2">  1       21 0.10625112E-01 0.20151432E+02</pdfrwt>
<totfact> 0.13534654E+08</totfact>
</mgrwt>
</event>
<event>
 4    1  0.7521660E+004  0.2128245E+02  0.7546771E-02  0.1720965E+00
         21   -1    0    0  503  502  0.00000000000E+00  0.00000000000E+00  0.17012164399E+02  0.17012164399E+02  0.00000000000E+00 0.  1.
         21   -1    0    0  501  503 -0.00000000000E+00 -0.00000000000E+00 -0.35076318237E+02  0.35076318237E+02  0.00000000000E+00 0.  1.
          3    1    1    2  501    0  0.38807034108E+00 -0.21278915478E+02  0.37521965400E+01  0.21610687665E+02  0.00000000000E+00 0.  1.
         -3    1    1    2    0  502 -0.38807034108E+00  0.21278915478E+02 -0.21816350378E+02  0.30477794971E+02  0.00000000000E+00 0. -1.
<mgrwt>
<rscale>  2 0.21282454E+02</rscale>
<asrwt>0</asrwt>
<pdfrwt beam="1">  1       21 0.26172561E-02 0.21282454E+02</pdfrwt>
<pdfrwt beam="2">  1       21 0.53963566E-02 0.21282454E+02</pdfrwt>
<totfact> 0.12257450E+08</totfact>
</mgrwt>
</event>
<event>
 4    1  0.7521660E+004  0.3084057E+02  0.7546771E-02  0.1588979E+00
         21   -1    0    0  503  502  0.00000000000E+00  0.00000000000E+00  0.53614554579E+02  0.53614554579E+02  0.00000000000E+00 0. -1.
         21   -1    0    0  501  503 -0.00000000000E+00 -0.00000000000E+00 -0.18076409534E+02  0.18076409534E+02  0.00000000000E+00 0. -1.
          2    1    1    2  501    0 -0.19061680073E+02 -0.24244441078E+02  0.22656622210E+02  0.38268304122E+02  0.00000000000E+00 0.  1.
         -2    1    1    2    0  502  0.19061680073E+02  0.24244441078E+02  0.12881522834E+02  0.33422659992E+02  0.00000000000E+00 0. -1.
<mgrwt>
<rscale>  2 0.30840567E+02</rscale>
<asrwt>0</asrwt>
<pdfrwt beam="1">  1       21 0.82483930E-02 0.30840567E+02</pdfrwt>
<pdfrwt beam="2">  1       21 0.27809861E-02 0.30840567E+02</pdfrwt>
<totfact> 0.61799502E+07</totfact>
</mgrwt>
</event>
<event>
 4    1  0.7521660E+004  0.3870554E+02  0.7546771E-02  0.1517959E+00
         21   -1    0    0  501  502  0.00000000000E+00  0.00000000000E+00  0.18590186356E+01  0.18590186356E+01  0.00000000000E+00 0.  1.
         21   -1    0    0  502  503 -0.00000000000E+00 -0.00000000000E+00 -0.10055487263E+04  0.10055487263E+04  0.00000000000E+00 0.  1.
          2    1    1    2  501    0  0.38663347934E+02  0.18067299490E+01 -0.72630780058E+03  0.72733839437E+03  0.00000000000E+00 0. -1.
         -2    1    1    2    0  503 -0.38663347934E+02 -0.18067299490E+01 -0.27738190710E+03  0.28006935058E+03  0.00000000000E+00 0.  1.
<mgrwt>
<rscale>  2 0.38705539E+02</rscale>
<asrwt>0</asrwt>
<pdfrwt beam="1">  1       21 0.28600295E-03 0.38705539E+02</pdfrwt>
<pdfrwt beam="2">  1       21 0.15469976E+00 0.38705539E+02</pdfrwt>
<totfact> 0.68364047E+06</totfact>
</mgrwt>
</event>
<event>
 4    1  0.7521660E+004  0.2103698E+02  0.7546771E-02  0.1725459E+00
         21   -1    0    0  501  502  0.00000000000E+00  0.00000000000E+00  0.36804634116E+02  0.36804634116E+02  0.00000000000E+00 0. -1.
         21   -1    0    0  502  503 -0.00000000000E+00 -0.00000000000E+00 -0.12425724208E+02  0.12425724208E+02  0.00000000000E+00 0. -1.
          2    1    1    2  501    0 -0.44317473878E+01 -0.20564877240E+02  0.77658501291E+01  0.22424606776E+02  0.00000000000E+00 0.  1.
         -2    1    1    2    0  503  0.44317473878E+01  0.20564877240E+02  0.16613059779E+02  0.26805751548E+02  0.00000000000E+00 0. -1.
<mgrwt>
<rscale>  2 0.21036981E+02</rscale>
<asrwt>0</asrwt>
<pdfrwt beam="1">  1       21 0.56622513E-02 0.21036981E+02</pdfrwt>
<pdfrwt beam="2">  1       21 0.19116499E-02 0.21036981E+02</pdfrwt>
<totfact> 0.18325184E+08</totfact>
</mgrwt>
</event>
<event>
 4    1  0.7521660E+004  0.2347987E+02  0.7546771E-02  0.1683848E+00
         21   -1    0    0  503  502  0.00000000000E+00  0.00000000000E+00  0.11590337619E+02  0.11590337619E+02  0.00000000000E+00 0.  1.
         21   -1    0    0  501  503 -0.00000000000E+00 -0.00000000000E+00 -0.59307504895E+02  0.59307504895E+02  0.00000000000E+00 0.  1.
          5    1    1    2  501    0 -0.14580927809E+02 -0.18403822183E+02 -0.39631538720E+02  0.46064769489E+02  0.00000000000E+00 0. -1.
         -5    1    1    2    0  502  0.14580927809E+02  0.18403822183E+02 -0.80856285561E+01  0.24833073025E+02  0.00000000000E+00 0.  1.
<mgrwt>
<rscale>  2 0.23479866E+02</rscale>
<asrwt>0</asrwt>
<pdfrwt beam="1">  1       21 0.17831289E-02 0.23479866E+02</pdfrwt>
<pdfrwt beam="2">  1       21 0.91242314E-02 0.23479866E+02</pdfrwt>
<totfact> 0.97251151E+07</totfact>
</mgrwt>
</event>
<event>
 4    1  0.7521660E+004  0.2301082E+02  0.7546771E-02  0.1691335E+00
         21   -1    0    0  503  502  0.00000000000E+00  0.00000000000E+00  0.53671839474E+01  0.53671839474E+01  0.00000000000E+00 0. -1.
         21   -1    0    0  501  503 -0.00000000000E+00 -0.00000000000E+00 -0.10614264203E+03  0.10614264203E+03  0.00000000000E+00 0. -1.
          4    1    1    2  501    0 -0.15108833580E+02  0.17355720352E+02 -0.35578936315E+02  0.42371672027E+02  0.00000000000E+00 0. -1.
         -4    1    1    2    0  502  0.15108833580E+02 -0.17355720352E+02 -0.65196521769E+02  0.69138153952E+02  0.00000000000E+00 0.  1.
<mgrwt>
<rscale>  2 0.23010821E+02</rscale>
<asrwt>0</asrwt>
<pdfrwt beam="1">  1       21 0.82572068E-03 0.23010821E+02</pdfrwt>
<pdfrwt beam="2">  1       21 0.16329636E-01 0.23010821E+02</pdfrwt>
<totfact> 0.11653038E+08</totfact>
</mgrwt>
</event>
<event>
 4    1  0.7521660E+004  0.3392951E+02  0.7546771E-02  0.1558317E+00
         21   -1    0    0  503  502  0.00000000000E+00  0.00000000000E+00  0.11675290490E+02  0.11675290490E+02  0.00000000000E+00 0. -1.
         21   -1    0    0  501  503 -0.00000000000E+00 -0.00000000000E+00 -0.10048577835E+03  0.10048577835E+03  0.00000000000E+00 0. -1.
          3    1    1    2  501    0  0.11351870928E+02  0.31974160074E+02 -0.36727627197E+02  0.50001304839E+02  0.00000000000E+00 0.  1.
         -3    1    1    2    0  502 -0.11351870928E+02 -0.31974160074E+02 -0.52082860664E+02  0.62159764004E+02  0.00000000000E+00 0. -1.
<mgrwt>
<rscale>  2 0.33929513E+02</rscale>
<asrwt>0</asrwt>
<pdfrwt beam="1">  1       21 0.17961985E-02 0.33929513E+02</pdfrwt>
<pdfrwt beam="2">  1       21 0.15459351E-01 0.33929513E+02</pdfrwt>
<totfact> 0.43091781E+07</totfact>
</mgrwt>
</event>
<event>
 4    1  0.7521660E+004  0.2090464E+02  0.7546771E-02  0.1727914E+00
         21   -1    0    0  501  502  0.00000000000E+00  0.00000000000E+00  0.22493196371E+03  0.22493196371E+03  0.00000000000E+00 0. -1.
         21   -1    0    0  502  503 -0.00000000000E+00 -0.00000000000E+00 -0.23515010320E+01  0.23515010320E+01  0.00000000000E+00 0. -1.
          3    1    1    2  501    0  0.39712870884E+01 -0.20523957738E+02  0.15866571038E+03  0.16003690703E+03  0.00000000000E+00 0.  1.
         -3    1    1    2    0  503 -0.39712870884E+01  0.20523957738E+02  0.63914752300E+02  0.67246557710E+02  0.00000000000E+00 0. -1.
<mgrwt>
<rscale>  2 0.20904640E+02</rscale>
<asrwt>0</asrwt>
<pdfrwt beam="1">  1       21 0.34604901E-01 0.20904640E+02</pdfrwt>
<pdfrwt beam="2">  1       21 0.36176957E-03 0.20904640E+02</pdfrwt>
<totfact> 0.10127069E+08</totfact>
</mgrwt>
</event>
<event>
 4    1  0.7521660E+004  0.3041191E+02  0.7546771E-02  0.1593580E+00
         21   -1    0    0  503  502  0.00000000000E+00  0.00000000000E+00  0.38148154577E+01  0.38148154577E+01  0.00000000000E+00 0. -1.
         21   -1    0    0  501  503 -0.00000000000E+00 -0.00000000000E+00 -0.24375867999E+03  0.24375867999E+03  0.00000000000E+00 0. -1.
          4    1    1    2  501    0  0.98078400950E+01 -0.28786985365E+02 -0.12905811974E+03  0.13259292035E+03  0.00000000000E+00 0. -1.
         -4    1    1    2    0  502 -0.98078400950E+01  0.28786985365E+02 -0.11088574479E+03  0.11498057510E+03  0.00000000000E+00 0.  1.
<mgrwt>
<rscale>  2 0.30411910E+02</rscale>
<asrwt>0</asrwt>
<pdfrwt beam="1">  1       21 0.58689477E-03 0.30411910E+02</pdfrwt>
<pdfrwt beam="2">  1       21 0.37501330E-01 0.30411910E+02</pdfrwt>
<totfact> 0.46677917E+07</totfact>
</mgrwt>
</event>
<event>
 4    1  0.7521660E+004  0.2086129E+02  0.7546771E-02  0.1728723E+00
         21   -1    0    0  501  502  0.00000000000E+00  0.00000000000E+00  0.86944815751E+00  0.86944815751E+00  0.00000000000E+00 0. -1.
         21   -1    0    0  502  503 -0.00000000000E+00 -0.00000000000E+00 -0.57019137083E+03  0.57019137083E+03  0.00000000000E+00 0. -1.
          5    1    1    2  501    0 -0.13131524018E+02 -0.16209770833E+02 -0.38445551416E+03  0.38502108508E+03  0.00000000000E+00 0.  1.
         -5    1    1    2    0  503  0.13131524018E+02  0.16209770833E+02 -0.18486640851E+03  0.18603973390E+03  0.00000000000E+00 0. -1.
<mgrwt>
<rscale>  2 0.20861294E+02</rscale>
<asrwt>0</asrwt>
<pdfrwt beam="1">  1       21 0.13376159E-03 0.20861294E+02</pdfrwt>
<pdfrwt beam="2">  1       21 0.87721533E-01 0.20861294E+02</pdfrwt>
<totfact> 0.68018133E+07</totfact>
</mgrwt>
</event>
<event>
 4    1  0.7521660E+004  0.2002512E+02  0.7546771E-02  0.1744829E+00
         21   -1    0    0  501  502  0.00000000000E+00  0.00000000000E+00  0.57032865122E+03  0.57032865122E+03  0.00000000000E+00 0. -1.
         21   -1    0    0  502  503 -0.00000000000E+00 -0.00000000000E+00 -0.71424044554E+00  0.71424044554E+00  0.00000000000E+00 0. -1.
          2    1    1    2  501    0  0.32720659342E+01 -0.19755985023E+02  0.24916876628E+03  0.24997215735E+03  0.00000000000E+00 0. -1.
         -2    1    1    2    0  503 -0.32720659342E+01  0.19755985023E+02  0.32044564450E+03  0.32107073432E+03  0.00000000000E+00 0.  1.
<mgrwt>
<rscale>  2 0.20025118E+02</rscale>
<asrwt>0</asrwt>
<pdfrwt beam="1">  1       21 0.87742505E-01 0.20025118E+02</pdfrwt>
<pdfrwt beam="2">  1       21 0.10988360E-03 0.20025118E+02</pdfrwt>
<totfact> 0.89014386E+07</totfact>
</mgrwt>
</event>
<event>
 4    1  0.7521660E+004  0.2123747E+02  0.7546771E-02  0.1721783E+00
         21   -1    0    0  503  502  0.00000000000E+00  0.00000000000E+00  0.10027421261E+01  0.10027421261E+01  0.00000000000E+00 0.  1.
         21   -1    0    0  501  503 -0.00000000000E+00 -0.00000000000E+00 -0.52823203037E+03  0.52823203037E+03  0.00000000000E+00 0.  1.
          5    1    1    2  501    0  0.10982997929E+02  0.18177011721E+02 -0.16164705473E+03  0.16303619322E+03  0.00000000000E+00 0. -1.
         -5    1    1    2    0  502 -0.10982997929E+02 -0.18177011721E+02 -0.36558223352E+03  0.36619857927E+03  0.00000000000E+00 0.  1.
<mgrwt>
<rscale>  2 0.21237467E+02</rscale>
<asrwt>0</asrwt>
<pdfrwt beam="1">  1       21 0.15426788E-03 0.21237467E+02</pdfrwt>
<pdfrwt beam="2">  1       21 0.81266538E-01 0.21237467E+02</pdfrwt>
<totfact> 0.65458423E+07</totfact>
</mgrwt>
</event>
<event>
 4    1  0.7521660E+004  0.2506457E+02  0.7546771E-02  0.1660076E+00
         21   -1    0    0  503  502  0.00000000000E+00  0.00000000000E+00  0.13903967768E+01  0.13903967768E+01  0.00000000000E+00 0.  1.
         21   -1    0    0  501  503 -0.00000000000E+00 -0.00000000000E+00 -0.47652811531E+03  0.47652811531E+03  0.00000000000E+00 0.  1.
          2    1    1    2  501    0  0.18627955926E+02  0.16769972859E+02 -0.29196270932E+03  0.29303661267E+03  0.00000000000E+00 0. -1.
         -2    1    1    2    0  502 -0.18627955926E+02 -0.16769972859E+02 -0.18317500922E+03  0.18488189942E+03  0.00000000000E+00 0.  1.
<mgrwt>
<rscale>  2 0.25064571E+02</rscale>
<asrwt>0</asrwt>
<pdfrwt beam="1">  1       21 0.21390749E-03 0.25064571E+02</pdfrwt>
<pdfrwt beam="2">  1       21 0.73311916E-01 0.25064571E+02</pdfrwt>
<totfact> 0.52633258E+07</totfact>
</mgrwt>
</event>
<event>
 4    1  0.7521660E+004  0.2014024E+02  0.7546771E-02  0.1742554E+00
         21   -1    0    0  501  502  0.00000000000E+00  0.00000000000E+00  0.16151350434E+02  0.16151350434E+02  0.00000000000E+00 0. -1.
         21   -1    0    0  502  503 -0.00000000000E+00 -0.00000000000E+00 -0.29474692665E+02  0.29474692665E+02  0.00000000000E+00 0. -1.
          3    1    1    2  501    0 -0.10287544221E+01 -0.20113944465E+02 -0.15436190133E+02  0.25375284499E+02  0.00000000000E+00 0.  1.
         -3    1    1    2    0  503  0.10287544221E+01  0.20113944465E+02  0.21128479025E+01  0.20250758600E+02  0.00000000000E+00 0. -1.
<mgrwt>
<rscale>  2 0.20140236E+02</rscale>
<asrwt>0</asrwt>
<pdfrwt beam="1">  1       21 0.24848232E-02 0.20140236E+02</pdfrwt>
<pdfrwt beam="2">  1       21 0.45345680E-02 0.20140236E+02</pdfrwt>
<totfact> 0.17196149E+08</totfact>
</mgrwt>
</event>
<event>
 4    1  0.7521660E+004  0.3015510E+02  0.7546771E-02  0.1596381E+00
         21   -1    0    0  501  502  0.00000000000E+00  0.00000000000E+00  0.35880669941E+01  0.35880669941E+01  0.00000000000E+00 0.  1.
         21   -1    0    0  502  503 -0.00000000000E+00 -0.00000000000E+00 -0.29036633682E+03  0.29036633682E+03  0.00000000000E+00 0.  1.
          1    1    1    2  501    0 -0.19491028650E+01  0.30092042547E+02 -0.19580872021E+03  0.19811709906E+03  0.00000000000E+00 0. -1.
         -1    1    1    2    0  503  0.19491028650E+01 -0.30092042547E+02 -0.90969549611E+02  0.95837304757E+02  0.00000000000E+00 0.  1.
<mgrwt>
<rscale>  2 0.30155100E+02</rscale>
<asrwt>0</asrwt>
<pdfrwt beam="1">  1       21 0.55201040E-03 0.30155100E+02</pdfrwt>
<pdfrwt beam="2">  1       21 0.44671737E-01 0.30155100E+02</pdfrwt>
<totfact> 0.36545638E+07</totfact>
</mgrwt>
</event>
<event>
 4    1  0.7521660E+004  0.2175096E+02  0.7546771E-02  0.1712595E+00
         21   -1    0    0  503  502  0.00000000000E+00  0.00000000000E+00  0.25991125138E+03  0.25991125138E+03  0.00000000000E+00 0. -1.
         21   -1    0    0  501  503 -0.00000000000E+00 -0.00000000000E+00 -0.21415781187E+01  0.21415781187E+01  0.00000000000E+00 0. -1.
          3    1    1    2  501    0  0.13085781367E+02 -0.17374310228E+02  0.17963810199E+03  0.18095013682E+03  0.00000000000E+00 0. -1.
         -3    1    1    2    0  502 -0.13085781367E+02  0.17374310228E+02  0.78131571272E+02  0.81102692676E+02  0.00000000000E+00 0.  1.
<mgrwt>
<rscale>  2 0.21750962E+02</rscale>
<asrwt>0</asrwt>
<pdfrwt beam="1">  1       21 0.39986321E-01 0.21750962E+02</pdfrwt>
<pdfrwt beam="2">  1       21 0.32947376E-03 0.21750962E+02</pdfrwt>
<totfact> 0.89657175E+07</totfact>
</mgrwt>
</event>
<event>
 4    1  0.7521660E+004  0.2077286E+02  0.7546771E-02  0.1730382E+00
         21   -1    0    0  501  502  0.00000000000E+00  0.00000000000E+00  0.50485383289E+02  0.50485383289E+02  0.00000000000E+00 0. -1.
         21   -1    0    0  502  503 -0.00000000000E+00 -0.00000000000E+00 -0.11280790490E+02  0.11280790490E+02  0.00000000000E+00 0. -1.
          5    1    1    2  501    0 -0.36025780647E+01 -0.20458079652E+02  0.34804728195E+02  0.40532464723E+02  0.00000000000E+00 0.  1.
         -5    1    1    2    0  503  0.36025780647E+01  0.20458079652E+02  0.43998646036E+01  0.21233709056E+02  0.00000000000E+00 0. -1.
<mgrwt>
<rscale>  2 0.20772857E+02</rscale>
<asrwt>0</asrwt>
<pdfrwt beam="1">  1       21 0.77669819E-02 0.20772857E+02</pdfrwt>
<pdfrwt beam="2">  1       21 0.17355063E-02 0.20772857E+02</pdfrwt>
<totfact> 0.12721342E+08</totfact>
</mgrwt>
</event>
<event>
 4    1  0.7521660E+004  0.2086151E+02  0.7546771E-02  0.1728719E+00
         21   -1    0    0  503  502  0.00000000000E+00  0.00000000000E+00  0.82524934202E+01  0.82524934202E+01  0.00000000000E+00 0.  1.
         21   -1    0    0  501  503 -0.00000000000E+00 -0.00000000000E+00 -0.54010498717E+02  0.54010498717E+02  0.00000000000E+00 0.  1.
          1    1    1    2  501    0 -0.66705927587E+01 -0.19766281498E+02 -0.27661416287E+02  0.34646163467E+02  0.00000000000E+00 0. -1.
         -1    1    1    2    0  502  0.66705927587E+01  0.19766281498E+02 -0.18096589010E+02  0.27616828670E+02  0.00000000000E+00 0.  1.
<mgrwt>
<rscale>  2 0.20861512E+02</rscale>
<asrwt>0</asrwt>
<pdfrwt beam="1">  1       21 0.12696144E-02 0.20861512E+02</pdfrwt>
<pdfrwt beam="2">  1       21 0.83093074E-02 0.20861512E+02</pdfrwt>
<totfact> 0.18322989E+08</totfact>
</mgrwt>
</event>
<event>
 4    1  0.7521660E+004  0.2723705E+02  0.7546771E-02  0.1630804E+00
         21   -1    0    0  503  502  0.00000000000E+00  0.00000000000E+00  0.32575289084E+01  0.32575289084E+01  0.00000000000E+00 0. -1.
         21   -1    0    0  501  503 -0.00000000000E+00 -0.00000000000E+00 -0.23924670917E+03  0.23924670917E+03  0.00000000000E+00 0. -1.
          2    1    1    2  501    0  0.65886922699E+01 -0.26428131093E+02 -0.14459052234E+03  0.14713353163E+03  0.00000000000E+00 0. -1.
         -2    1    1    2    0  502 -0.65886922699E+01  0.26428131093E+02 -0.91398657919E+02  0.95370706448E+02  0.00000000000E+00 0.  1.
<mgrwt>
<rscale>  2 0.27237052E+02</rscale>
<asrwt>0</asrwt>
<pdfrwt beam="1">  1       21 0.50115812E-03 0.27237052E+02</pdfrwt>
<pdfrwt beam="2">  1       21 0.36807199E-01 0.27237052E+02</pdfrwt>
<totfact> 0.59736948E+07</totfact>
</mgrwt>
</event>
<event>
 4    1  0.7521660E+004  0.2335540E+02  0.7546771E-02  0.1685813E+00
         21   -1    0    0  501  502  0.00000000000E+00  0.00000000000E+00  0.29987325805E+03  0.29987325805E+03  0.00000000000E+00 0. -1.
         21   -1    0    0  502  503 -0.00000000000E+00 -0.00000000000E+00 -0.19781615485E+01  0.19781615485E+01  0.00000000000E+00 0. -1.
          1    1    1    2  501    0 -0.23194914531E+02 -0.27332684468E+01  0.10613934115E+03  0.10867858370E+03  0.00000000000E+00 0.  1.
         -1    1    1    2    0  503  0.23194914531E+02  0.27332684468E+01  0.19175575535E+03  0.19317283590E+03  0.00000000000E+00 0. -1.
<mgrwt>
<rscale>  2 0.23355402E+02</rscale>
<asrwt>0</asrwt>
<pdfrwt beam="1">  1       21 0.46134311E-01 0.23355402E+02</pdfrwt>
<pdfrwt beam="2">  1       21 0.30433278E-03 0.23355402E+02</pdfrwt>
<totfact> 0.78117364E+07</totfact>
</mgrwt>
</event>
<event>
 4    1  0.7521660E+004  0.2175891E+02  0.7546771E-02  0.1712455E+00
         21   -1    0    0  503  502  0.00000000000E+00  0.00000000000E+00  0.73384709033E+01  0.73384709033E+01  0.00000000000E+00 0.  1.
         21   -1    0    0  501  503 -0.00000000000E+00 -0.00000000000E+00 -0.70466873606E+02  0.70466873606E+02  0.00000000000E+00 0.  1.
          5    1    1    2  501    0  0.20895597160E+02 -0.60682871991E+01 -0.42869208061E+02  0.48075140041E+02  0.00000000000E+00 0.  1.
         -5    1    1    2    0  502 -0.20895597160E+02  0.60682871991E+01 -0.20259194642E+02  0.29730204468E+02  0.00000000000E+00 0. -1.
<mgrwt>
<rscale>  2 0.21758908E+02</rscale>
<asrwt>0</asrwt>
<pdfrwt beam="1">  1       21 0.11289955E-02 0.21758908E+02</pdfrwt>
<pdfrwt beam="2">  1       21 0.10841058E-01 0.21758908E+02</pdfrwt>
<totfact> 0.14306721E+08</totfact>
</mgrwt>
</event>
<event>
 4    1  0.7521660E+004  0.3693318E+02  0.7546771E-02  0.1532074E+00
         21   -1    0    0  501  502  0.00000000000E+00  0.00000000000E+00  0.14944335537E+02  0.14944335537E+02  0.00000000000E+00 0.  1.
         21   -1    0    0  502  503 -0.00000000000E+00 -0.00000000000E+00 -0.93019601387E+02  0.93019601387E+02  0.00000000000E+00 0.  1.
          3    1    1    2  501    0  0.10315807770E+02  0.35463275888E+02 -0.46428231515E+02  0.59326558204E+02  0.00000000000E+00 0. -1.
         -3    1    1    2    0  503 -0.10315807770E+02 -0.35463275888E+02 -0.31647034334E+02  0.48637378720E+02  0.00000000000E+00 0.  1.
<mgrwt>
<rscale>  2 0.36933181E+02</rscale>
<asrwt>0</asrwt>
<pdfrwt beam="1">  1       21 0.22991285E-02 0.36933181E+02</pdfrwt>
<pdfrwt beam="2">  1       21 0.14310708E-01 0.36933181E+02</pdfrwt>
<totfact> 0.34073344E+07</totfact>
</mgrwt>
</event>
<event>
 4    1  0.7521660E+004  0.3406851E+02  0.7546771E-02  0.1557031E+00
         21   -1    0    0  503  502  0.00000000000E+00  0.00000000000E+00  0.69017140720E+03  0.69017140720E+03  0.00000000000E+00 0. -1.
         21   -1    0    0  501  503 -0.00000000000E+00 -0.00000000000E+00 -0.18078936739E+01  0.18078936739E+01  0.00000000000E+00 0. -1.
          4    1    1    2  501    0 -0.11133720936E+02 -0.32197885708E+02  0.43559090182E+03  0.43692115689E+03  0.00000000000E+00 0. -1.
         -4    1    1    2    0  502  0.11133720936E+02  0.32197885708E+02  0.25277261170E+03  0.25505814399E+03  0.00000000000E+00 0.  1.
<mgrwt>
<rscale>  2 0.34068513E+02</rscale>
<asrwt>0</asrwt>
<pdfrwt beam="1">  1       21 0.10618001E+00 0.34068513E+02</pdfrwt>
<pdfrwt beam="2">  1       21 0.27813804E-03 0.34068513E+02</pdfrwt>
<totfact> 0.17011294E+07</totfact>
</mgrwt>
</event>
<event>
 4    1  0.7521660E+004  0.2087265E+02  0.7546771E-02  0.1728511E+00
         21   -1    0    0  501  502  0.00000000000E+00  0.00000000000E+00  0.22302660222E+02  0.22302660222E+02  0.00000000000E+00 0. -1.
         21   -1    0    0  502  503 -0.00000000000E+00 -0.00000000000E+00 -0.19576912627E+02  0.19576912627E+02  0.00000000000E+00 0. -1.
          1    1    1    2  501    0  0.20605684597E+02  0.33276303871E+01  0.38619079936E+00  0.20876218648E+02  0.00000000000E+00 0.  1.
         -1    1    1    2    0  503 -0.20605684597E+02 -0.33276303871E+01  0.23395567954E+01  0.21003354201E+02  0.00000000000E+00 0. -1.
<mgrwt>
<rscale>  2 0.20872646E+02</rscale>
<asrwt>0</asrwt>
<pdfrwt beam="1">  1       21 0.34311785E-02 0.20872646E+02</pdfrwt>
<pdfrwt beam="2">  1       21 0.30118327E-02 0.20872646E+02</pdfrwt>
<totfact> 0.20009504E+08</totfact>
</mgrwt>
</event>
<event>
 4    1  0.7521660E+004  0.2366936E+02  0.7546771E-02  0.1680884E+00
         21   -1    0    0  503  502  0.00000000000E+00  0.00000000000E+00  0.12070957767E+03  0.12070957767E+03  0.00000000000E+00 0. -1.
         21   -1    0    0  501  503 -0.00000000000E+00 -0.00000000000E+00 -0.47276218517E+01  0.47276218517E+01  0.00000000000E+00 0. -1.
          4    1    1    2  501    0 -0.12195530253E+01 -0.23637920100E+02  0.49511677229E+02  0.54878454409E+02  0.00000000000E+00 0. -1.
         -4    1    1    2    0  502  0.12195530253E+01  0.23637920100E+02  0.66470278590E+02  0.70558745114E+02  0.00000000000E+00 0.  1.
<mgrwt>
<rscale>  2 0.23669359E+02</rscale>
<asrwt>0</asrwt>
<pdfrwt beam="1">  1       21 0.18570702E-01 0.23669359E+02</pdfrwt>
<pdfrwt beam="2">  1       21 0.72732653E-03 0.23669359E+02</pdfrwt>
<totfact> 0.11371450E+08</totfact>
</mgrwt>
</event>
<event>
 4    1  0.7521660E+004  0.2290991E+02  0.7546771E-02  0.1692975E+00
         21   -1    0    0  501  502  0.00000000000E+00  0.00000000000E+00  0.75860380118E+01  0.75860380118E+01  0.00000000000E+00 0. -1.
         21   -1    0    0  502  503 -0.00000000000E+00 -0.00000000000E+00 -0.70702134866E+02  0.70702134866E+02  0.00000000000E+00 0. -1.
          5    1    1    2  501    0 -0.22443264305E+02 -0.46004088464E+01 -0.37286164775E+02  0.43762106414E+02  0.00000000000E+00 0.  1.
         -5    1    1    2    0  503  0.22443264305E+02  0.46004088464E+01 -0.25829932080E+02  0.34526066464E+02  0.00000000000E+00 0. -1.
<mgrwt>
<rscale>  2 0.22909908E+02</rscale>
<asrwt>0</asrwt>
<pdfrwt beam="1">  1       21 0.11670828E-02 0.22909908E+02</pdfrwt>
<pdfrwt beam="2">  1       21 0.10877251E-01 0.22909908E+02</pdfrwt>
<totfact> 0.13743847E+08</totfact>
</mgrwt>
</event>
<event>
 4    1  0.7521660E+004  0.2488087E+02  0.7546771E-02  0.1662719E+00
         21   -1    0    0  503  502  0.00000000000E+00  0.00000000000E+00  0.24616624680E+03  0.24616624680E+03  0.00000000000E+00 0.  1.
         21   -1    0    0  501  503 -0.00000000000E+00 -0.00000000000E+00 -0.25685847963E+01  0.25685847963E+01  0.00000000000E+00 0.  1.
          4    1    1    2  501    0 -0.17160450770E+02 -0.18016009959E+02  0.13979619784E+03  0.14199307946E+03  0.00000000000E+00 0.  1.
         -4    1    1    2    0  502  0.17160450770E+02  0.18016009959E+02  0.10380146416E+03  0.10674175213E+03  0.00000000000E+00 0. -1.
<mgrwt>
<rscale>  2 0.24880870E+02</rscale>
<asrwt>0</asrwt>
<pdfrwt beam="1">  1       21 0.37871712E-01 0.24880870E+02</pdfrwt>
<pdfrwt beam="2">  1       21 0.39516709E-03 0.24880870E+02</pdfrwt>
<totfact> 0.78753272E+07</totfact>
</mgrwt>
</event>
<event>
 4    1  0.7521660E+004  0.2116785E+02  0.7546771E-02  0.1723054E+00
         21   -1    0    0  503  502  0.00000000000E+00  0.00000000000E+00  0.24176596396E+02  0.24176596396E+02  0.00000000000E+00 0.  1.
         21   -1    0    0  501  503 -0.00000000000E+00 -0.00000000000E+00 -0.19554108786E+02  0.19554108786E+02  0.00000000000E+00 0.  1.
          5    1    1    2  501    0  0.14951841561E+02 -0.14983998240E+02 -0.26840369932E+01  0.21337334040E+02  0.00000000000E+00 0.  1.
         -5    1    1    2    0  502 -0.14951841561E+02  0.14983998240E+02  0.73065246034E+01  0.22393371142E+02  0.00000000000E+00 0. -1.
<mgrwt>
<rscale>  2 0.21167848E+02</rscale>
<asrwt>0</asrwt>
<pdfrwt beam="1">  1       21 0.37194764E-02 0.21167848E+02</pdfrwt>
<pdfrwt beam="2">  1       21 0.30083244E-02 0.21167848E+02</pdfrwt>
<totfact> 0.17750691E+08</totfact>
</mgrwt>
</event>
<event>
 4    1  0.7521660E+004  0.3437132E+02  0.7546771E-02  0.1554255E+00
         21   -1    0    0  503  502  0.00000000000E+00  0.00000000000E+00  0.81969119508E+00  0.81969119508E+00  0.00000000000E+00 0. -1.
         21   -1    0    0  501  503 -0.00000000000E+00 -0.00000000000E+00 -0.16074962925E+04  0.16074962925E+04  0.00000000000E+00 0. -1.
          5    1    1    2  501    0 -0.14443764204E+02  0.31189181996E+02 -0.54473713148E+03  0.54582041902E+03  0.00000000000E+00 0. -1.
         -5    1    1    2    0  502  0.14443764204E+02 -0.31189181996E+02 -0.10619394698E+04  0.10624955647E+04  0.00000000000E+00 0.  1.
<mgrwt>
<rscale>  2 0.34371317E+02</rscale>
<asrwt>0</asrwt>
<pdfrwt beam="1">  1       21 0.12610748E-03 0.34371317E+02</pdfrwt>
<pdfrwt beam="2">  1       21 0.24730489E+00 0.34371317E+02</pdfrwt>
<totfact> 0.64293976E+06</totfact>
</mgrwt>
</event>
<event>
 4    1  0.7521660E+004  0.2540496E+02  0.7546771E-02  0.1655253E+00
         21   -1    0    0  503  502  0.00000000000E+00  0.00000000000E+00  0.67859561120E+01  0.67859561120E+01  0.00000000000E+00 0.  1.
         21   -1    0    0  501  503 -0.00000000000E+00 -0.00000000000E+00 -0.99142713068E+02  0.99142713068E+02  0.00000000000E+00 0.  1.
          2    1    1    2  501    0  0.19029442123E+02 -0.16831293411E+02 -0.35496362734E+02  0.43650932095E+02  0.00000000000E+00 0. -1.
         -2    1    1    2    0  502 -0.19029442123E+02  0.16831293411E+02 -0.56860394222E+02  0.62277737085E+02  0.00000000000E+00 0.  1.
<mgrwt>
<rscale>  2 0.25404962E+02</rscale>
<asrwt>0</asrwt>
<pdfrwt beam="1">  1       21 0.10439933E-02 0.25404962E+02</pdfrwt>
<pdfrwt beam="2">  1       21 0.15252725E-01 0.25404962E+02</pdfrwt>
<totfact> 0.94613050E+07</totfact>
</mgrwt>
</event>
<event>
 4    1  0.7521660E+004  0.3555203E+02  0.7546771E-02  0.1543752E+00
         21   -1    0    0  501  502  0.00000000000E+00  0.00000000000E+00  0.69860933428E+01  0.69860933428E+01  0.00000000000E+00 0. -1.
         21   -1    0    0  502  503 -0.00000000000E+00 -0.00000000000E+00 -0.23969532894E+03  0.23969532894E+03  0.00000000000E+00 0. -1.
          5    1    1    2  501    0 -0.14559333414E+02  0.32434133200E+02 -0.55279833912E+02  0.65725240381E+02  0.00000000000E+00 0.  1.
         -5    1    1    2    0  503  0.14559333414E+02 -0.32434133200E+02 -0.17742940169E+03  0.18095618190E+03  0.00000000000E+00 0. -1.
<mgrwt>
<rscale>  2 0.35552035E+02</rscale>
<asrwt>0</asrwt>
<pdfrwt beam="1">  1       21 0.10747837E-02 0.35552035E+02</pdfrwt>
<pdfrwt beam="2">  1       21 0.36876202E-01 0.35552035E+02</pdfrwt>
<totfact> 0.19881614E+07</totfact>
</mgrwt>
</event>
<event>
 4    1  0.7521660E+004  0.2705252E+02  0.7546771E-02  0.1633158E+00
         21   -1    0    0  503  502  0.00000000000E+00  0.00000000000E+00  0.41702053274E+01  0.41702053274E+01  0.00000000000E+00 0. -1.
         21   -1    0    0  501  503 -0.00000000000E+00 -0.00000000000E+00 -0.17773507728E+03  0.17773507728E+03  0.00000000000E+00 0. -1.
          2    1    1    2  501    0  0.15691875073E+02  0.22036416239E+02 -0.76565287159E+02  0.81203951761E+02  0.00000000000E+00 0. -1.
         -2    1    1    2    0  502 -0.15691875073E+02 -0.22036416239E+02 -0.96999584792E+02  0.10070133084E+03  0.00000000000E+00 0.  1.
<mgrwt>
<rscale>  2 0.27052515E+02</rscale>
<asrwt>0</asrwt>
<pdfrwt beam="1">  1       21 0.64156987E-03 0.27052515E+02</pdfrwt>
<pdfrwt beam="2">  1       21 0.27343866E-01 0.27052515E+02</pdfrwt>
<totfact> 0.71448125E+07</totfact>
</mgrwt>
</event>
<event>
 4    1  0.7521660E+004  0.2236532E+02  0.7546771E-02  0.1702010E+00
         21   -1    0    0  503  502  0.00000000000E+00  0.00000000000E+00  0.83790006917E+01  0.83790006917E+01  0.00000000000E+00 0.  1.
         21   -1    0    0  501  503 -0.00000000000E+00 -0.00000000000E+00 -0.59701569532E+02  0.59701569532E+02  0.00000000000E+00 0.  1.
          4    1    1    2  501    0  0.85354702227E+01 -0.20672520708E+02 -0.25934085665E+02  0.34245936454E+02  0.00000000000E+00 0.  1.
         -4    1    1    2    0  502 -0.85354702227E+01  0.20672520708E+02 -0.25388483175E+02  0.33834633769E+02  0.00000000000E+00 0. -1.
<mgrwt>
<rscale>  2 0.22365316E+02</rscale>
<asrwt>0</asrwt>
<pdfrwt beam="1">  1       21 0.12890770E-02 0.22365316E+02</pdfrwt>
<pdfrwt beam="2">  1       21 0.91848570E-02 0.22365316E+02</pdfrwt>
<totfact> 0.15531017E+08</totfact>
</mgrwt>
</event>
<event>
 4    1  0.7521660E+004  0.2705796E+02  0.7546771E-02  0.1633089E+00
         21   -1    0    0  501  502  0.00000000000E+00  0.00000000000E+00  0.94707734432E+03  0.94707734432E+03  0.00000000000E+00 0.  1.
         21   -1    0    0  502  503 -0.00000000000E+00 -0.00000000000E+00 -0.83056396119E+00  0.83056396119E+00  0.00000000000E+00 0.  1.
          1    1    1    2  501    0  0.67810824207E+01 -0.26194464062E+02  0.34839749245E+03  0.34944662793E+03  0.00000000000E+00 0. -1.
         -1    1    1    2    0  503 -0.67810824207E+01  0.26194464062E+02  0.59784928792E+03  0.59846128036E+03  0.00000000000E+00 0.  1.
<mgrwt>
<rscale>  2 0.27057957E+02</rscale>
<asrwt>0</asrwt>
<pdfrwt beam="1">  1       21 0.14570334E+00 0.27057957E+02</pdfrwt>
<pdfrwt beam="2">  1       21 0.12777983E-03 0.27057957E+02</pdfrwt>
<totfact> 0.24506718E+07</totfact>
</mgrwt>
</event>
<event>
 4    1  0.7521660E+004  0.2394000E+02  0.7546771E-02  0.1676711E+00
         21   -1    0    0  501  502  0.00000000000E+00  0.00000000000E+00  0.52859495411E+02  0.52859495411E+02  0.00000000000E+00 0.  1.
         21   -1    0    0  502  503 -0.00000000000E+00 -0.00000000000E+00 -0.12622046948E+02  0.12622046948E+02  0.00000000000E+00 0.  1.
          2    1    1    2  501    0 -0.81686359808E+01  0.22503270297E+02  0.78247882273E+01  0.25186327614E+02  0.00000000000E+00 0.  1.
         -2    1    1    2    0  503  0.81686359808E+01 -0.22503270297E+02  0.32412660236E+02  0.40295214746E+02  0.00000000000E+00 0. -1.
<mgrwt>
<rscale>  2 0.23940004E+02</rscale>
<asrwt>0</asrwt>
<pdfrwt beam="1">  1       21 0.81322300E-02 0.23940004E+02</pdfrwt>
<pdfrwt beam="2">  1       21 0.19418534E-02 0.23940004E+02</pdfrwt>
<totfact> 0.10364959E+08</totfact>
</mgrwt>
</event>
<event>
 4    1  0.7521660E+004  0.2038137E+02  0.7546771E-02  0.1737849E+00
         21   -1    0    0  501  502  0.00000000000E+00  0.00000000000E+00  0.31035688815E+03  0.31035688815E+03  0.00000000000E+00 0. -1.
         21   -1    0    0  502  503 -0.00000000000E+00 -0.00000000000E+00 -0.14175969335E+01  0.14175969335E+01  0.00000000000E+00 0. -1.
          4    1    1    2  501    0  0.16584245176E+02  0.11847486722E+02  0.11763765979E+03  0.11939019696E+03  0.00000000000E+00 0. -1.
         -4    1    1    2    0  503 -0.16584245176E+02 -0.11847486722E+02  0.19130163143E+03  0.19238428813E+03  0.00000000000E+00 0.  1.
<mgrwt>
<rscale>  2 0.20381367E+02</rscale>
<asrwt>0</asrwt>
<pdfrwt beam="1">  1       21 0.47747160E-01 0.20381367E+02</pdfrwt>
<pdfrwt beam="2">  1       21 0.21809208E-03 0.20381367E+02</pdfrwt>
<totfact> 0.11434619E+08</totfact>
</mgrwt>
</event>
<event>
 4    1  0.7521660E+004  0.2213760E+02  0.7546771E-02  0.1705883E+00
         21   -1    0    0  503  502  0.00000000000E+00  0.00000000000E+00  0.63309091794E+01  0.63309091794E+01  0.00000000000E+00 0. -1.
         21   -1    0    0  501  503 -0.00000000000E+00 -0.00000000000E+00 -0.83468217835E+02  0.83468217835E+02  0.00000000000E+00 0. -1.
          4    1    1    2  501    0  0.63078088583E+01 -0.21219918720E+02 -0.26471955181E+02  0.34508517994E+02  0.00000000000E+00 0. -1.
         -4    1    1    2    0  502 -0.63078088583E+01  0.21219918720E+02 -0.50665353475E+02  0.55290609020E+02  0.00000000000E+00 0.  1.
<mgrwt>
<rscale>  2 0.22137602E+02</rscale>
<asrwt>0</asrwt>
<pdfrwt beam="1">  1       21 0.97398603E-03 0.22137602E+02</pdfrwt>
<pdfrwt beam="2">  1       21 0.12841264E-01 0.22137602E+02</pdfrwt>
<totfact> 0.13531171E+08</totfact>
</mgrwt>
</event>
<event>
 4    1  0.7521660E+004  0.2218936E+02  0.7546771E-02  0.1704998E+00
         21   -1    0    0  503  502  0.00000000000E+00  0.00000000000E+00  0.12029700280E+02  0.12029700280E+02  0.00000000000E+00 0.  1.
         21   -1    0    0  501  503 -0.00000000000E+00 -0.00000000000E+00 -0.41289196236E+02  0.41289196236E+02  0.00000000000E+00 0.  1.
          1    1    1    2  501    0  0.58043264216E+01  0.21416758833E+02 -0.17118570253E+02  0.28025224559E+02  0.00000000000E+00 0. -1.
         -1    1    1    2    0  502 -0.58043264216E+01 -0.21416758833E+02 -0.12140925703E+02  0.25293671956E+02  0.00000000000E+00 0.  1.
<mgrwt>
<rscale>  2 0.22189362E+02</rscale>
<asrwt>0</asrwt>
<pdfrwt beam="1">  1       21 0.18507232E-02 0.22189362E+02</pdfrwt>
<pdfrwt beam="2">  1       21 0.63521839E-02 0.22189362E+02</pdfrwt>
<totfact> 0.16284559E+08</totfact>
</mgrwt>
</event>
<event>
 4    1  0.7521660E+004  0.2058395E+02  0.7546771E-02  0.1733959E+00
         21   -1    0    0  503  502  0.00000000000E+00  0.00000000000E+00  0.60236879299E+01  0.60236879299E+01  0.00000000000E+00 0.  1.
         21   -1    0    0  501  503 -0.00000000000E+00 -0.00000000000E+00 -0.70851000551E+02  0.70851000551E+02  0.00000000000E+00 0.  1.
          1    1    1    2  501    0  0.18064621695E+02  0.98675383987E+01 -0.29145460199E+02  0.35681321742E+02  0.00000000000E+00 0.  1.
         -1    1    1    2    0  502 -0.18064621695E+02 -0.98675383987E+01 -0.35681852422E+02  0.41193366739E+02  0.00000000000E+00 0. -1.
<mgrwt>
<rscale>  2 0.20583947E+02</rscale>
<asrwt>0</asrwt>
<pdfrwt beam="1">  1       21 0.92672122E-03 0.20583947E+02</pdfrwt>
<pdfrwt beam="2">  1       21 0.10900154E-01 0.20583947E+02</pdfrwt>
<totfact> 0.18736734E+08</totfact>
</mgrwt>
</event>
<event>
 4    1  0.7521660E+004  0.2800805E+02  0.7546771E-02  0.1621212E+00
         21   -1    0    0  501  502  0.00000000000E+00  0.00000000000E+00  0.32954302008E+01  0.32954302008E+01  0.00000000000E+00 0.  1.
         21   -1    0    0  502  503 -0.00000000000E+00 -0.00000000000E+00 -0.28281860101E+03  0.28281860101E+03  0.00000000000E+00 0.  1.
          3    1    1    2  501    0  0.13447770910E+02 -0.24568437286E+02 -0.82839481000E+02  0.87446156380E+02  0.00000000000E+00 0.  1.
         -3    1    1    2    0  503 -0.13447770910E+02  0.24568437286E+02 -0.19668368981E+03  0.19866787483E+03  0.00000000000E+00 0. -1.
<mgrwt>
<rscale>  2 0.28008046E+02</rscale>
<asrwt>0</asrwt>
<pdfrwt beam="1">  1       21 0.50698939E-03 0.28008046E+02</pdfrwt>
<pdfrwt beam="2">  1       21 0.43510543E-01 0.28008046E+02</pdfrwt>
<totfact> 0.42995530E+07</totfact>
</mgrwt>
</event>
<event>
 4    1  0.7521660E+004  0.2590640E+02  0.7546771E-02  0.1648314E+00
         21   -1    0    0  503  502  0.00000000000E+00  0.00000000000E+00  0.10227328615E+03  0.10227328615E+03  0.00000000000E+00 0.  1.
         21   -1    0    0  501  503 -0.00000000000E+00 -0.00000000000E+00 -0.66581658214E+01  0.66581658214E+01  0.00000000000E+00 0.  1.
          5    1    1    2  501    0 -0.24441612085E+02  0.85877474627E+01  0.54345104929E+02  0.60204088213E+02  0.00000000000E+00 0.  1.
         -5    1    1    2    0  502  0.24441612085E+02 -0.85877474627E+01  0.41270015402E+02  0.48727363761E+02  0.00000000000E+00 0. -1.
<mgrwt>
<rscale>  2 0.25906405E+02</rscale>
<asrwt>0</asrwt>
<pdfrwt beam="1">  1       21 0.15734351E-01 0.25906405E+02</pdfrwt>
<pdfrwt beam="2">  1       21 0.10243333E-02 0.25906405E+02</pdfrwt>
<totfact> 0.92774490E+07</totfact>
</mgrwt>
</event>
<event>
 4    1  0.7521660E+004  0.2141755E+02  0.7546771E-02  0.1718524E+00
         21   -1    0    0  501  502  0.00000000000E+00  0.00000000000E+00  0.24922729449E+01  0.24922729449E+01  0.00000000000E+00 0. -1.
         21   -1    0    0  502  503 -0.00000000000E+00 -0.00000000000E+00 -0.18939329519E+03  0.18939329519E+03  0.00000000000E+00 0. -1.
          4    1    1    2  501    0  0.68630318210E+01  0.20288181988E+02 -0.77340615984E+02  0.80251370175E+02  0.00000000000E+00 0.  1.
         -4    1    1    2    0  503 -0.68630318210E+01 -0.20288181988E+02 -0.10956040626E+03  0.11163419796E+03  0.00000000000E+00 0. -1.
<mgrwt>
<rscale>  2 0.21417552E+02</rscale>
<asrwt>0</asrwt>
<pdfrwt beam="1">  1       21 0.38342660E-03 0.21417552E+02</pdfrwt>
<pdfrwt beam="2">  1       21 0.29137431E-01 0.21417552E+02</pdfrwt>
<totfact> 0.12817669E+08</totfact>
</mgrwt>
</event>
<event>
 4    1  0.7521660E+004  0.2905159E+02  0.7546771E-02  0.1608815E+00
         21   -1    0    0  503  502  0.00000000000E+00  0.00000000000E+00  0.17711056323E+02  0.17711056323E+02  0.00000000000E+00 0.  1.
         21   -1    0    0  501  503 -0.00000000000E+00 -0.00000000000E+00 -0.48862926520E+02  0.48862926520E+02  0.00000000000E+00 0.  1.
          2    1    1    2  501    0  0.27599227696E+01  0.28920198842E+02 -0.20812685264E+02  0.35737416564E+02  0.00000000000E+00 0. -1.
         -2    1    1    2    0  502 -0.27599227696E+01 -0.28920198842E+02 -0.10339184933E+02  0.30836566279E+02  0.00000000000E+00 0.  1.
<mgrwt>
<rscale>  2 0.29051593E+02</rscale>
<asrwt>0</asrwt>
<pdfrwt beam="1">  1       21 0.27247780E-02 0.29051593E+02</pdfrwt>
<pdfrwt beam="2">  1       21 0.75173731E-02 0.29051593E+02</pdfrwt>
<totfact> 0.73331265E+07</totfact>
</mgrwt>
</event>
<event>
 4    1  0.7521660E+004  0.2235784E+02  0.7546771E-02  0.1702136E+00
         21   -1    0    0  503  502  0.00000000000E+00  0.00000000000E+00  0.22787643112E+03  0.22787643112E+03  0.00000000000E+00 0.  1.
         21   -1    0    0  501  503 -0.00000000000E+00 -0.00000000000E+00 -0.38345916210E+01  0.38345916210E+01  0.00000000000E+00 0.  1.
          1    1    1    2  501    0 -0.22294769285E+02  0.16781374086E+01  0.18781032437E+03  0.18913643442E+03  0.00000000000E+00 0.  1.
         -1    1    1    2    0  502  0.22294769285E+02 -0.16781374086E+01  0.36231515120E+02  0.42574588319E+02  0.00000000000E+00 0. -1.
<mgrwt>
<rscale>  2 0.22357837E+02</rscale>
<asrwt>0</asrwt>
<pdfrwt beam="1">  1       21 0.35057902E-01 0.22357837E+02</pdfrwt>
<pdfrwt beam="2">  1       21 0.58993735E-03 0.22357837E+02</pdfrwt>
<totfact> 0.49053357E+07</totfact>
</mgrwt>
</event>
<event>
 4    1  0.7521660E+004  0.2126216E+02  0.7546771E-02  0.1721334E+00
         21   -1    0    0  503  502  0.00000000000E+00  0.00000000000E+00  0.79592637457E+01  0.79592637457E+01  0.00000000000E+00 0.  1.
         21   -1    0    0  501  503 -0.00000000000E+00 -0.00000000000E+00 -0.57633987563E+02  0.57633987563E+02  0.00000000000E+00 0.  1.
          4    1    1    2  501    0 -0.15368819779E+02  0.14692812309E+02 -0.20890128624E+02  0.29807328442E+02  0.00000000000E+00 0.  1.
         -4    1    1    2    0  502  0.15368819779E+02 -0.14692812309E+02 -0.28784595193E+02  0.35785922866E+02  0.00000000000E+00 0. -1.
<mgrwt>
<rscale>  2 0.21262158E+02</rscale>
<asrwt>0</asrwt>
<pdfrwt beam="1">  1       21 0.12245021E-02 0.21262158E+02</pdfrwt>
<pdfrwt beam="2">  1       21 0.88667673E-02 0.21262158E+02</pdfrwt>
<totfact> 0.17507550E+08</totfact>
</mgrwt>
</event>
<event>
 4    1  0.7521660E+004  0.2005761E+02  0.7546771E-02  0.1744185E+00
         21   -1    0    0  503  502  0.00000000000E+00  0.00000000000E+00  0.65285625186E+01  0.65285625186E+01  0.00000000000E+00 0.  1.
         21   -1    0    0  501  503 -0.00000000000E+00 -0.00000000000E+00 -0.94543098633E+02  0.94543098633E+02  0.00000000000E+00 0.  1.
          5    1    1    2  501    0  0.50906402931E+01  0.19400856453E+02 -0.73827899297E+02  0.76504029726E+02  0.00000000000E+00 0. -1.
         -5    1    1    2    0  502 -0.50906402931E+01 -0.19400856453E+02 -0.14186636818E+02  0.24567631426E+02  0.00000000000E+00 0.  1.
<mgrwt>
<rscale>  2 0.20057613E+02</rscale>
<asrwt>0</asrwt>
<pdfrwt beam="1">  1       21 0.10043942E-02 0.20057613E+02</pdfrwt>
<pdfrwt beam="2">  1       21 0.14545092E-01 0.20057613E+02</pdfrwt>
<totfact> 0.10176302E+08</totfact>
</mgrwt>
</event>
<event>
 4    1  0.7521660E+004  0.2158152E+02  0.7546771E-02  0.1715591E+00
         21   -1    0    0  503  502  0.00000000000E+00  0.00000000000E+00  0.31408166014E+03  0.31408166014E+03  0.00000000000E+00 0.  1.
         21   -1    0    0  501  503 -0.00000000000E+00 -0.00000000000E+00 -0.17394497849E+01  0.17394497849E+01  0.00000000000E+00 0.  1.
          3    1    1    2  501    0  0.15546725496E+02  0.14968679207E+02  0.21681166199E+03  0.21788313107E+03  0.00000000000E+00 0.  1.
         -3    1    1    2    0  502 -0.15546725496E+02 -0.14968679207E+02  0.95530548370E+02  0.97937978857E+02  0.00000000000E+00 0. -1.
<mgrwt>
<rscale>  2 0.21581521E+02</rscale>
<asrwt>0</asrwt>
<pdfrwt beam="1">  1       21 0.48320210E-01 0.21581521E+02</pdfrwt>
<pdfrwt beam="2">  1       21 0.26760791E-03 0.21581521E+02</pdfrwt>
<totfact> 0.84426840E+07</totfact>
</mgrwt>
</event>
<event>
 4    1  0.7521660E+004  0.2676701E+02  0.7546771E-02  0.1636846E+00
         21   -1    0    0  501  502  0.00000000000E+00  0.00000000000E+00  0.17861154111E+03  0.17861154111E+03  0.00000000000E+00 0. -1.
         21   -1    0    0  502  503 -0.00000000000E+00 -0.00000000000E+00 -0.44223701774E+01  0.44223701774E+01  0.00000000000E+00 0. -1.
          1    1    1    2  501    0  0.26570568636E+02 -0.32369499579E+01  0.59194412280E+02  0.64965001407E+02  0.00000000000E+00 0. -1.
         -1    1    1    2    0  503 -0.26570568636E+02  0.32369499579E+01  0.11499475865E+03  0.11806890988E+03  0.00000000000E+00 0.  1.
<mgrwt>
<rscale>  2 0.26767013E+02</rscale>
<asrwt>0</asrwt>
<pdfrwt beam="1">  1       21 0.27478693E-01 0.26767013E+02</pdfrwt>
<pdfrwt beam="2">  1       21 0.68036478E-03 0.26767013E+02</pdfrwt>
<totfact> 0.64709003E+07</totfact>
</mgrwt>
</event>
<event>
 4    1  0.7521660E+004  0.2451000E+02  0.7546771E-02  0.1668141E+00
         21   -1    0    0  501  502  0.00000000000E+00  0.00000000000E+00  0.10584829592E+01  0.10584829592E+01  0.00000000000E+00 0.  1.
         21   -1    0    0  502  503 -0.00000000000E+00 -0.00000000000E+00 -0.60324188900E+03  0.60324188900E+03  0.00000000000E+00 0.  1.
          1    1    1    2  501    0 -0.24107947020E+02 -0.44212138152E+01 -0.22759429611E+03  0.22891025286E+03  0.00000000000E+00 0. -1.
         -1    1    1    2    0  503  0.24107947020E+02  0.44212138152E+01 -0.37458910993E+03  0.37539011910E+03  0.00000000000E+00 0.  1.
<mgrwt>
<rscale>  2 0.24510003E+02</rscale>
<asrwt>0</asrwt>
<pdfrwt beam="1">  1       21 0.16284355E-03 0.24510003E+02</pdfrwt>
<pdfrwt beam="2">  1       21 0.92806435E-01 0.24510003E+02</pdfrwt>
<totfact> 0.47170848E+07</totfact>
</mgrwt>
</event>
<event>
 4    1  0.7521660E+004  0.2627699E+02  0.7546771E-02  0.1643310E+00
         21   -1    0    0  501  502  0.00000000000E+00  0.00000000000E+00  0.40337853070E+02  0.40337853070E+02  0.00000000000E+00 0. -1.
         21   -1    0    0  502  503 -0.00000000000E+00 -0.00000000000E+00 -0.18030376018E+02  0.18030376018E+02  0.00000000000E+00 0. -1.
          2    1    1    2  501    0 -0.10856554768E+02  0.23929383596E+02  0.45867261955E+01  0.26674299202E+02  0.00000000000E+00 0. -1.
         -2    1    1    2    0  503  0.10856554768E+02 -0.23929383596E+02  0.17720750857E+02  0.31693929886E+02  0.00000000000E+00 0.  1.
<mgrwt>
<rscale>  2 0.26276990E+02</rscale>
<asrwt>0</asrwt>
<pdfrwt beam="1">  1       21 0.62058235E-02 0.26276990E+02</pdfrwt>
<pdfrwt beam="2">  1       21 0.27739040E-02 0.26276990E+02</pdfrwt>
<totfact> 0.95004867E+07</totfact>
</mgrwt>
</event>
<event>
 4    1  0.7521660E+004  0.2104898E+02  0.7546771E-02  0.1725238E+00
         21   -1    0    0  503  502  0.00000000000E+00  0.00000000000E+00  0.21571898236E+01  0.21571898236E+01  0.00000000000E+00 0.  1.
         21   -1    0    0  501  503 -0.00000000000E+00 -0.00000000000E+00 -0.26412038075E+03  0.26412038075E+03  0.00000000000E+00 0.  1.
          3    1    1    2  501    0 -0.19007390498E+02  0.90431642051E+01 -0.19376494432E+03  0.19490488285E+03  0.00000000000E+00 0. -1.
         -3    1    1    2    0  502  0.19007390498E+02 -0.90431642051E+01 -0.68198246609E+02  0.71372687724E+02  0.00000000000E+00 0.  1.
<mgrwt>
<rscale>  2 0.21048984E+02</rscale>
<asrwt>0</asrwt>
<pdfrwt beam="1">  1       21 0.33187557E-03 0.21048984E+02</pdfrwt>
<pdfrwt beam="2">  1       21 0.40633879E-01 0.21048984E+02</pdfrwt>
<totfact> 0.85326845E+07</totfact>
</mgrwt>
</event>
<event>
 4    1  0.7521660E+004  0.2016563E+02  0.7546771E-02  0.1742054E+00
         21   -1    0    0  503  502  0.00000000000E+00  0.00000000000E+00  0.81246273043E+00  0.81246273043E+00  0.00000000000E+00 0.  1.
         21   -1    0    0  501  503 -0.00000000000E+00 -0.00000000000E+00 -0.52902826992E+03  0.52902826992E+03  0.00000000000E+00 0.  1.
          3    1    1    2  501    0 -0.14251639908E+02 -0.14266868136E+02 -0.32560738545E+03  0.32623124042E+03  0.00000000000E+00 0. -1.
         -3    1    1    2    0  502  0.14251639908E+02  0.14266868136E+02 -0.20260842173E+03  0.20360949222E+03  0.00000000000E+00 0.  1.
<mgrwt>
<rscale>  2 0.20165633E+02</rscale>
<asrwt>0</asrwt>
<pdfrwt beam="1">  1       21 0.12499413E-03 0.20165633E+02</pdfrwt>
<pdfrwt beam="2">  1       21 0.81389056E-01 0.20165633E+02</pdfrwt>
<totfact> 0.86978661E+07</totfact>
</mgrwt>
</event>
<event>
 4    1  0.7521660E+004  0.2233239E+02  0.7546771E-02  0.1702566E+00
         21   -1    0    0  501  502  0.00000000000E+00  0.00000000000E+00  0.14976690970E+01  0.14976690970E+01  0.00000000000E+00 0. -1.
         21   -1    0    0  502  503 -0.00000000000E+00 -0.00000000000E+00 -0.33305118270E+03  0.33305118270E+03  0.00000000000E+00 0. -1.
          4    1    1    2  501    0  0.20822085677E+02  0.80731924810E+01 -0.16768296703E+03  0.16916356913E+03  0.00000000000E+00 0.  1.
         -4    1    1    2    0  503 -0.20822085677E+02 -0.80731924810E+01 -0.16387054658E+03  0.16538528267E+03  0.00000000000E+00 0. -1.
<mgrwt>
<rscale>  2 0.22332391E+02</rscale>
<asrwt>0</asrwt>
<pdfrwt beam="1">  1       21 0.23041009E-03 0.22332391E+02</pdfrwt>
<pdfrwt beam="2">  1       21 0.51238764E-01 0.22332391E+02</pdfrwt>
<totfact> 0.94434167E+07</totfact>
</mgrwt>
</event>
<event>
 4    1  0.7521660E+004  0.2162049E+02  0.7546771E-02  0.1714899E+00
         21   -1    0    0  501  502  0.00000000000E+00  0.00000000000E+00  0.43189570492E+01  0.43189570492E+01  0.00000000000E+00 0.  1.
         21   -1    0    0  502  503 -0.00000000000E+00 -0.00000000000E+00 -0.11107079425E+03  0.11107079425E+03  0.00000000000E+00 0.  1.
          1    1    1    2  501    0  0.17990850470E+02  0.11990623606E+02 -0.44150882232E+02  0.49160412498E+02  0.00000000000E+00 0.  1.
         -1    1    1    2    0  503 -0.17990850470E+02 -0.11990623606E+02 -0.62600954971E+02  0.66229338803E+02  0.00000000000E+00 0. -1.
<mgrwt>
<rscale>  2 0.21620494E+02</rscale>
<asrwt>0</asrwt>
<pdfrwt beam="1">  1       21 0.66445498E-03 0.21620494E+02</pdfrwt>
<pdfrwt beam="2">  1       21 0.17087813E-01 0.21620494E+02</pdfrwt>
<totfact> 0.14628727E+08</totfact>
</mgrwt>
</event>
<event>
 4    1  0.7521660E+004  0.2075331E+02  0.7546771E-02  0.1730750E+00
         21   -1    0    0  503  502  0.00000000000E+00  0.00000000000E+00  0.10439075809E+02  0.10439075809E+02  0.00000000000E+00 0.  1.
         21   -1    0    0  501  503 -0.00000000000E+00 -0.00000000000E+00 -0.41314912846E+02  0.41314912846E+02  0.00000000000E+00 0.  1.
          3    1    1    2  501    0 -0.54258477716E+01 -0.20031474382E+02 -0.16394784921E+02  0.26447849867E+02  0.00000000000E+00 0.  1.
         -3    1    1    2    0  502  0.54258477716E+01  0.20031474382E+02 -0.14481052117E+02  0.25306138788E+02  0.00000000000E+00 0. -1.
<mgrwt>
<rscale>  2 0.20753308E+02</rscale>
<asrwt>0</asrwt>
<pdfrwt beam="1">  1       21 0.16060116E-02 0.20753308E+02</pdfrwt>
<pdfrwt beam="2">  1       21 0.63561406E-02 0.20753308E+02</pdfrwt>
<totfact> 0.19770022E+08</totfact>
</mgrwt>
</event>
<event>
 4    1  0.7521660E+004  0.2052967E+02  0.7546771E-02  0.1734996E+00
         21   -1    0    0  503  502  0.00000000000E+00  0.00000000000E+00  0.64913220213E+01  0.64913220213E+01  0.00000000000E+00 0. -1.
         21   -1    0    0  501  503 -0.00000000000E+00 -0.00000000000E+00 -0.64951216034E+02  0.64951216034E+02  0.00000000000E+00 0. -1.
          2    1    1    2  501    0  0.15989500543E+02 -0.12876452856E+02 -0.29908402763E+02  0.36276434798E+02  0.00000000000E+00 0. -1.
         -2    1    1    2    0  502 -0.15989500543E+02  0.12876452856E+02 -0.28551491250E+02  0.35166103258E+02  0.00000000000E+00 0.  1.
<mgrwt>
<rscale>  2 0.20529666E+02</rscale>
<asrwt>0</asrwt>
<pdfrwt beam="1">  1       21 0.99866489E-03 0.20529666E+02</pdfrwt>
<pdfrwt beam="2">  1       21 0.99924952E-02 0.20529666E+02</pdfrwt>
<totfact> 0.19326257E+08</totfact>
</mgrwt>
</event>
<event>
 4    1  0.7521660E+004  0.2162079E+02  0.7546771E-02  0.1714894E+00
         21   -1    0    0  503  502  0.00000000000E+00  0.00000000000E+00  0.34682486358E+02  0.34682486358E+02  0.00000000000E+00 0. -1.
         21   -1    0    0  501  503 -0.00000000000E+00 -0.00000000000E+00 -0.16314159352E+02  0.16314159352E+02  0.00000000000E+00 0. -1.
          3    1    1    2  501    0 -0.17902115030E+02 -0.12123238299E+02  0.19815227827E+02  0.29327493641E+02  0.00000000000E+00 0. -1.
         -3    1    1    2    0  502  0.17902115030E+02  0.12123238299E+02 -0.14469008205E+01  0.21669152069E+02  0.00000000000E+00 0.  1.
<mgrwt>
<rscale>  2 0.21620792E+02</rscale>
<asrwt>0</asrwt>
<pdfrwt beam="1">  1       21 0.53357671E-02 0.21620792E+02</pdfrwt>
<pdfrwt beam="2">  1       21 0.25098707E-02 0.21620792E+02</pdfrwt>
<totfact> 0.13377278E+08</totfact>
</mgrwt>
</event>
<event>
 4    1  0.7521660E+004  0.3846778E+02  0.7546771E-02  0.1519799E+00
         21   -1    0    0  503  502  0.00000000000E+00  0.00000000000E+00  0.13551357095E+04  0.13551357095E+04  0.00000000000E+00 0. -1.
         21   -1    0    0  501  503 -0.00000000000E+00 -0.00000000000E+00 -0.10935430158E+01  0.10935430158E+01  0.00000000000E+00 0. -1.
          3    1    1    2  501    0  0.28287333142E+02 -0.26069085755E+02  0.65131977021E+03  0.65245475974E+03  0.00000000000E+00 0. -1.
         -3    1    1    2    0  502 -0.28287333142E+02  0.26069085755E+02  0.70272239625E+03  0.70377449275E+03  0.00000000000E+00 0.  1.
<mgrwt>
<rscale>  2 0.38467785E+02</rscale>
<asrwt>0</asrwt>
<pdfrwt beam="1">  1       21 0.20848107E+00 0.38467785E+02</pdfrwt>
<pdfrwt beam="2">  1       21 0.16823847E-03 0.38467785E+02</pdfrwt>
<totfact> 0.68925995E+06</totfact>
</mgrwt>
</event>
<event>
 4    1  0.7521660E+004  0.2222187E+02  0.7546771E-02  0.1704443E+00
         21   -1    0    0  501  502  0.00000000000E+00  0.00000000000E+00  0.54336923656E+03  0.54336923656E+03  0.00000000000E+00 0.  1.
         21   -1    0    0  502  503 -0.00000000000E+00 -0.00000000000E+00 -0.11185770878E+01  0.11185770878E+01  0.00000000000E+00 0.  1.
          4    1    1    2  501    0  0.21979414446E+02 -0.32736605276E+01  0.15322666099E+03  0.15482965204E+03  0.00000000000E+00 0.  1.
         -4    1    1    2    0  503 -0.21979414446E+02  0.32736605276E+01  0.38902399848E+03  0.38965816161E+03  0.00000000000E+00 0. -1.
<mgrwt>
<rscale>  2 0.22221870E+02</rscale>
<asrwt>0</asrwt>
<pdfrwt beam="1">  1       21 0.83595056E-01 0.22221870E+02</pdfrwt>
<pdfrwt beam="2">  1       21 0.17208922E-03 0.22221870E+02</pdfrwt>
<totfact> 0.53295312E+07</totfact>
</mgrwt>
</event>
<event>
 4    1  0.7521660E+004  0.2551191E+02  0.7546771E-02  0.1653756E+00
         21   -1    0    0  503  502  0.00000000000E+00  0.00000000000E+00  0.19650585399E+03  0.19650585399E+03  0.00000000000E+00 0.  1.
         21   -1    0    0  501  503 -0.00000000000E+00 -0.00000000000E+00 -0.33277075357E+01  0.33277075357E+01  0.00000000000E+00 0.  1.
          1    1    1    2  501    0  0.23854324569E+02 -0.90459360941E+01  0.10341988937E+03  0.10652009800E+03  0.00000000000E+00 0. -1.
         -1    1    1    2    0  502 -0.23854324569E+02  0.90459360941E+01  0.89758257082E+02  0.93313463524E+02  0.00000000000E+00 0.  1.
<mgrwt>
<rscale>  2 0.25511914E+02</rscale>
<asrwt>0</asrwt>
<pdfrwt beam="1">  1       21 0.30231661E-01 0.25511914E+02</pdfrwt>
<pdfrwt beam="2">  1       21 0.51195516E-03 0.25511914E+02</pdfrwt>
<totfact> 0.82074194E+07</totfact>
</mgrwt>
</event>
<event>
 4    1  0.7521660E+004  0.2218047E+02  0.7546771E-02  0.1705149E+00
         21   -1    0    0  503  502  0.00000000000E+00  0.00000000000E+00  0.79644974793E+01  0.79644974793E+01  0.00000000000E+00 0.  1.
         21   -1    0    0  501  503 -0.00000000000E+00 -0.00000000000E+00 -0.74417872626E+02  0.74417872626E+02  0.00000000000E+00 0.  1.
          2    1    1    2  501    0 -0.60826771992E+00 -0.22172129694E+02 -0.16245784291E+02  0.27493614386E+02  0.00000000000E+00 0. -1.
         -2    1    1    2    0  502  0.60826771992E+00  0.22172129694E+02 -0.50207590856E+02  0.54888755719E+02  0.00000000000E+00 0.  1.
<mgrwt>
<rscale>  2 0.22180472E+02</rscale>
<asrwt>0</asrwt>
<pdfrwt beam="1">  1       21 0.12253073E-02 0.22180472E+02</pdfrwt>
<pdfrwt beam="2">  1       21 0.11448904E-01 0.22180472E+02</pdfrwt>
<totfact> 0.11616002E+08</totfact>
</mgrwt>
</event>
<event>
 4    1  0.7521660E+004  0.2118167E+02  0.7546771E-02  0.1722801E+00
         21   -1    0    0  501  502  0.00000000000E+00  0.00000000000E+00  0.40009254413E+03  0.40009254413E+03  0.00000000000E+00 0.  1.
         21   -1    0    0  502  503 -0.00000000000E+00 -0.00000000000E+00 -0.12022363725E+01  0.12022363725E+01  0.00000000000E+00 0.  1.
          4    1    1    2  501    0 -0.18556906520E+02  0.10212951977E+02  0.25147422786E+03  0.25236471712E+03  0.00000000000E+00 0.  1.
         -4    1    1    2    0  503  0.18556906520E+02 -0.10212951977E+02  0.14741607989E+03  0.14893006338E+03  0.00000000000E+00 0. -1.
<mgrwt>
<rscale>  2 0.21181671E+02</rscale>
<asrwt>0</asrwt>
<pdfrwt beam="1">  1       21 0.61552593E-01 0.21181671E+02</pdfrwt>
<pdfrwt beam="2">  1       21 0.18495976E-03 0.21181671E+02</pdfrwt>
<totfact> 0.89043771E+07</totfact>
</mgrwt>
</event>
<event>
 4    1  0.7521660E+004  0.2870462E+02  0.7546771E-02  0.1612865E+00
         21   -1    0    0  501  502  0.00000000000E+00  0.00000000000E+00  0.25247642093E+02  0.25247642093E+02  0.00000000000E+00 0.  1.
         21   -1    0    0  502  503 -0.00000000000E+00 -0.00000000000E+00 -0.53229162417E+02  0.53229162417E+02  0.00000000000E+00 0.  1.
          2    1    1    2  501    0 -0.24974060127E+02  0.14151031217E+02  0.10415945590E+02  0.30535999840E+02  0.00000000000E+00 0.  1.
         -2    1    1    2    0  503  0.24974060127E+02 -0.14151031217E+02 -0.38397465914E+02  0.47940804669E+02  0.00000000000E+00 0. -1.
<mgrwt>
<rscale>  2 0.28704623E+02</rscale>
<asrwt>0</asrwt>
<pdfrwt beam="1">  1       21 0.38842526E-02 0.28704623E+02</pdfrwt>
<pdfrwt beam="2">  1       21 0.81891020E-02 0.28704623E+02</pdfrwt>
<totfact> 0.36334432E+07</totfact>
</mgrwt>
</event>
<event>
 4    1  0.7521660E+004  0.2912958E+02  0.7546771E-02  0.1607914E+00
         21   -1    0    0  503  502  0.00000000000E+00  0.00000000000E+00  0.10925906808E+04  0.10925906808E+04  0.00000000000E+00 0. -1.
         21   -1    0    0  501  503 -0.00000000000E+00 -0.00000000000E+00 -0.10247152692E+01  0.10247152692E+01  0.00000000000E+00 0. -1.
          1    1    1    2  501    0 -0.11605291352E+02 -0.26717962270E+02  0.81483647672E+03  0.81535698690E+03  0.00000000000E+00 0. -1.
         -1    1    1    2    0  502  0.11605291352E+02  0.26717962270E+02  0.27672948884E+03  0.27825840920E+03  0.00000000000E+00 0.  1.
<mgrwt>
<rscale>  2 0.29129578E+02</rscale>
<asrwt>0</asrwt>
<pdfrwt beam="1">  1       21 0.16808994E+00 0.29129578E+02</pdfrwt>
<pdfrwt beam="2">  1       21 0.15764938E-03 0.29129578E+02</pdfrwt>
<totfact> 0.12927626E+07</totfact>
</mgrwt>
</event>
<event>
 4    1  0.7521660E+004  0.2199538E+02  0.7546771E-02  0.1708332E+00
         21   -1    0    0  503  502  0.00000000000E+00  0.00000000000E+00  0.76154707815E+02  0.76154707815E+02  0.00000000000E+00 0.  1.
         21   -1    0    0  501  503 -0.00000000000E+00 -0.00000000000E+00 -0.77790979399E+01  0.77790979399E+01  0.00000000000E+00 0.  1.
          1    1    1    2  501    0  0.15614754467E+02  0.15491169320E+02  0.16217935721E+02  0.27327976928E+02  0.00000000000E+00 0.  1.
         -1    1    1    2    0  502 -0.15614754467E+02 -0.15491169320E+02  0.52157674154E+02  0.56605828826E+02  0.00000000000E+00 0. -1.
<mgrwt>
<rscale>  2 0.21995383E+02</rscale>
<asrwt>0</asrwt>
<pdfrwt beam="1">  1       21 0.11716108E-01 0.21995383E+02</pdfrwt>
<pdfrwt beam="2">  1       21 0.11967843E-02 0.21995383E+02</pdfrwt>
<totfact> 0.11553543E+08</totfact>
</mgrwt>
</event>
<event>
 4    1  0.7521660E+004  0.2797445E+02  0.7546771E-02  0.1621622E+00
         21   -1    0    0  503  502  0.00000000000E+00  0.00000000000E+00  0.24214179546E+02  0.24214179546E+02  0.00000000000E+00 0.  1.
         21   -1    0    0  501  503 -0.00000000000E+00 -0.00000000000E+00 -0.33836448977E+02  0.33836448977E+02  0.00000000000E+00 0.  1.
          5    1    1    2  501    0  0.26222928981E+02 -0.97430917667E+01  0.13362473422E+01  0.28006345683E+02  0.00000000000E+00 0.  1.
         -5    1    1    2    0  502 -0.26222928981E+02  0.97430917667E+01 -0.10958516772E+02  0.30044282840E+02  0.00000000000E+00 0. -1.
<mgrwt>
<rscale>  2 0.27974450E+02</rscale>
<asrwt>0</asrwt>
<pdfrwt beam="1">  1       21 0.37252584E-02 0.27974450E+02</pdfrwt>
<pdfrwt beam="2">  1       21 0.52056075E-02 0.27974450E+02</pdfrwt>
<totfact> 0.80642571E+07</totfact>
</mgrwt>
</event>
<event>
 4    1  0.7521660E+004  0.2197579E+02  0.7546771E-02  0.1708671E+00
         21   -1    0    0  501  502  0.00000000000E+00  0.00000000000E+00  0.68227783865E+03  0.68227783865E+03  0.00000000000E+00 0.  1.
         21   -1    0    0  502  503 -0.00000000000E+00 -0.00000000000E+00 -0.15417322372E+01  0.15417322372E+01  0.00000000000E+00 0.  1.
          1    1    1    2  501    0 -0.17904857861E+02 -0.12741716717E+02  0.59182588922E+03  0.59223375320E+03  0.00000000000E+00 0. -1.
         -1    1    1    2    0  503  0.17904857861E+02  0.12741716717E+02  0.88910217193E+02  0.91585817685E+02  0.00000000000E+00 0.  1.
<mgrwt>
<rscale>  2 0.21975788E+02</rscale>
<asrwt>0</asrwt>
<pdfrwt beam="1">  1       21 0.10496558E+00 0.21975788E+02</pdfrwt>
<pdfrwt beam="2">  1       21 0.23719012E-03 0.21975788E+02</pdfrwt>
<totfact> 0.20491039E+07</totfact>
</mgrwt>
</event>
<event>
 4    1  0.7521660E+004  0.2007108E+02  0.7546771E-02  0.1743918E+00
         21   -1    0    0  501  502  0.00000000000E+00  0.00000000000E+00  0.58037550191E+02  0.58037550191E+02  0.00000000000E+00 0. -1.
         21   -1    0    0  502  503 -0.00000000000E+00 -0.00000000000E+00 -0.94617801132E+01  0.94617801132E+01  0.00000000000E+00 0. -1.
          4    1    1    2  501    0  0.18994450932E+02 -0.64852840883E+01  0.68683518375E+01  0.21213729820E+02  0.00000000000E+00 0. -1.
         -4    1    1    2    0  503 -0.18994450932E+02  0.64852840883E+01  0.41707418241E+02  0.46285600485E+02  0.00000000000E+00 0.  1.
<mgrwt>
<rscale>  2 0.20071076E+02</rscale>
<asrwt>0</asrwt>
<pdfrwt beam="1">  1       21 0.89288537E-02 0.20071076E+02</pdfrwt>
<pdfrwt beam="2">  1       21 0.14556585E-02 0.20071076E+02</pdfrwt>
<totfact> 0.13097720E+08</totfact>
</mgrwt>
</event>
<event>
 4    1  0.7521660E+004  0.2409115E+02  0.7546771E-02  0.1674410E+00
         21   -1    0    0  503  502  0.00000000000E+00  0.00000000000E+00  0.34888334946E+03  0.34888334946E+03  0.00000000000E+00 0.  1.
         21   -1    0    0  501  503 -0.00000000000E+00 -0.00000000000E+00 -0.18243473499E+01  0.18243473499E+01  0.00000000000E+00 0.  1.
          4    1    1    2  501    0  0.23985931761E+02 -0.22491735976E+01  0.22558967234E+03  0.22687239579E+03  0.00000000000E+00 0.  1.
         -4    1    1    2    0  502 -0.23985931761E+02  0.22491735976E+01  0.12146932977E+03  0.12383530102E+03  0.00000000000E+00 0. -1.
<mgrwt>
<rscale>  2 0.24091154E+02</rscale>
<asrwt>0</asrwt>
<pdfrwt beam="1">  1       21 0.53674308E-01 0.24091154E+02</pdfrwt>
<pdfrwt beam="2">  1       21 0.28066910E-03 0.24091154E+02</pdfrwt>
<totfact> 0.65981200E+07</totfact>
</mgrwt>
</event>
<event>
 4    1  0.7521660E+004  0.2190089E+02  0.7546771E-02  0.1709972E+00
         21   -1    0    0  501  502  0.00000000000E+00  0.00000000000E+00  0.23402251054E+01  0.23402251054E+01  0.00000000000E+00 0.  1.
         21   -1    0    0  502  503 -0.00000000000E+00 -0.00000000000E+00 -0.20839273740E+03  0.20839273740E+03  0.00000000000E+00 0.  1.
          4    1    1    2  501    0 -0.20862519987E+02  0.66636563486E+01 -0.89500063644E+02  0.92140710049E+02  0.00000000000E+00 0.  1.
         -4    1    1    2    0  503  0.20862519987E+02 -0.66636563486E+01 -0.11655244865E+03  0.11859225246E+03  0.00000000000E+00 0. -1.
<mgrwt>
<rscale>  2 0.21900892E+02</rscale>
<asrwt>0</asrwt>
<pdfrwt beam="1">  1       21 0.36003463E-03 0.21900892E+02</pdfrwt>
<pdfrwt beam="2">  1       21 0.32060421E-01 0.21900892E+02</pdfrwt>
<totfact> 0.11885117E+08</totfact>
</mgrwt>
</event>
<event>
 4    1  0.7521660E+004  0.2977001E+02  0.7546771E-02  0.1600645E+00
         21   -1    0    0  503  502  0.00000000000E+00  0.00000000000E+00  0.94072206802E+01  0.94072206802E+01  0.00000000000E+00 0. -1.
         21   -1    0    0  501  503 -0.00000000000E+00 -0.00000000000E+00 -0.96397206442E+02  0.96397206442E+02  0.00000000000E+00 0. -1.
          4    1    1    2  501    0 -0.21985386107E+02 -0.20072282734E+02 -0.35526209218E+02  0.46350461463E+02  0.00000000000E+00 0.  1.
         -4    1    1    2    0  502  0.21985386107E+02  0.20072282734E+02 -0.51463776544E+02  0.59453965659E+02  0.00000000000E+00 0. -1.
<mgrwt>
<rscale>  2 0.29770014E+02</rscale>
<asrwt>0</asrwt>
<pdfrwt beam="1">  1       21 0.14472647E-02 0.29770014E+02</pdfrwt>
<pdfrwt beam="2">  1       21 0.14830340E-01 0.29770014E+02</pdfrwt>
<totfact> 0.62814868E+07</totfact>
</mgrwt>
</event>
<event>
 4    1  0.7521660E+004  0.2760455E+02  0.7546771E-02  0.1626184E+00
         21   -1    0    0  503  502  0.00000000000E+00  0.00000000000E+00  0.43415605962E+02  0.43415605962E+02  0.00000000000E+00 0. -1.
         21   -1    0    0  501  503 -0.00000000000E+00 -0.00000000000E+00 -0.27293150123E+02  0.27293150123E+02  0.00000000000E+00 0. -1.
          1    1    1    2  501    0 -0.26629554003E+02 -0.72717396442E+01  0.29183052627E+02  0.40170410808E+02  0.00000000000E+00 0.  1.
         -1    1    1    2    0  502  0.26629554003E+02  0.72717396442E+01 -0.13060596787E+02  0.30538345277E+02  0.00000000000E+00 0. -1.
<mgrwt>
<rscale>  2 0.27604553E+02</rscale>
<asrwt>0</asrwt>
<pdfrwt beam="1">  1       21 0.66793240E-02 0.27604553E+02</pdfrwt>
<pdfrwt beam="2">  1       21 0.41989462E-02 0.27604553E+02</pdfrwt>
<totfact> 0.44428132E+07</totfact>
</mgrwt>
</event>
<event>
 4    1  0.7521660E+004  0.2610978E+02  0.7546771E-02  0.1645555E+00
         21   -1    0    0  503  502  0.00000000000E+00  0.00000000000E+00  0.11103196785E+02  0.11103196785E+02  0.00000000000E+00 0.  1.
         21   -1    0    0  501  503 -0.00000000000E+00 -0.00000000000E+00 -0.64500417735E+02  0.64500417735E+02  0.00000000000E+00 0.  1.
          2    1    1    2  501    0 -0.15276215120E+02 -0.21174463162E+02 -0.18408886600E+02  0.31946952037E+02  0.00000000000E+00 0.  1.
         -2    1    1    2    0  502  0.15276215120E+02  0.21174463162E+02 -0.34988334350E+02  0.43656662483E+02  0.00000000000E+00 0. -1.
<mgrwt>
<rscale>  2 0.26109781E+02</rscale>
<asrwt>0</asrwt>
<pdfrwt beam="1">  1       21 0.17081841E-02 0.26109781E+02</pdfrwt>
<pdfrwt beam="2">  1       21 0.99231413E-02 0.26109781E+02</pdfrwt>
<totfact> 0.93012950E+07</totfact>
</mgrwt>
</event>
<event>
 4    1  0.7521660E+004  0.2000861E+02  0.7546771E-02  0.1745157E+00
         21   -1    0    0  503  502  0.00000000000E+00  0.00000000000E+00  0.92580761477E+02  0.92580761477E+02  0.00000000000E+00 0.  1.
         21   -1    0    0  501  503 -0.00000000000E+00 -0.00000000000E+00 -0.82643317690E+01  0.82643317690E+01  0.00000000000E+00 0.  1.
          1    1    1    2  501    0  0.16242229218E+02  0.11684797255E+02  0.76973683744E+02  0.79531707425E+02  0.00000000000E+00 0. -1.
         -1    1    1    2    0  502 -0.16242229218E+02 -0.11684797255E+02  0.73427459644E+01  0.21313385821E+02  0.00000000000E+00 0.  1.
<mgrwt>
<rscale>  2 0.20008611E+02</rscale>
<asrwt>0</asrwt>
<pdfrwt beam="1">  1       21 0.14243193E-01 0.20008611E+02</pdfrwt>
<pdfrwt beam="2">  1       21 0.12714357E-02 0.20008611E+02</pdfrwt>
<totfact> 0.73976370E+07</totfact>
</mgrwt>
</event>
<event>
 4    1  0.7521660E+004  0.2562278E+02  0.7546771E-02  0.1652214E+00
         21   -1    0    0  501  502  0.00000000000E+00  0.00000000000E+00  0.48338206328E+03  0.48338206328E+03  0.00000000000E+00 0. -1.
         21   -1    0    0  502  503 -0.00000000000E+00 -0.00000000000E+00 -0.16828967224E+01  0.16828967224E+01  0.00000000000E+00 0. -1.
          2    1    1    2  501    0 -0.25613833303E+02 -0.67713421164E+00  0.34738246068E+03  0.34832614165E+03  0.00000000000E+00 0.  1.
         -2    1    1    2    0  503  0.25613833303E+02  0.67713421164E+00  0.13431670588E+03  0.13673881836E+03  0.00000000000E+00 0. -1.
<mgrwt>
<rscale>  2 0.25622782E+02</rscale>
<asrwt>0</asrwt>
<pdfrwt beam="1">  1       21 0.74366360E-01 0.25622782E+02</pdfrwt>
<pdfrwt beam="2">  1       21 0.25890757E-03 0.25622782E+02</pdfrwt>
<totfact> 0.38889294E+07</totfact>
</mgrwt>
</event>
<event>
 4    1  0.7521660E+004  0.3010344E+02  0.7546771E-02  0.1596948E+00
         21   -1    0    0  503  502  0.00000000000E+00  0.00000000000E+00  0.11579360705E+04  0.11579360705E+04  0.00000000000E+00 0.  1.
         21   -1    0    0  501  503 -0.00000000000E+00 -0.00000000000E+00 -0.12487528164E+01  0.12487528164E+01  0.00000000000E+00 0.  1.
          5    1    1    2  501    0  0.38406203133E+01 -0.29857440311E+02  0.22423052553E+03  0.22624222790E+03  0.00000000000E+00 0. -1.
         -5    1    1    2    0  502 -0.38406203133E+01  0.29857440311E+02  0.93245679221E+03  0.93294259547E+03  0.00000000000E+00 0.  1.
<mgrwt>
<rscale>  2 0.30103440E+02</rscale>
<asrwt>0</asrwt>
<pdfrwt beam="1">  1       21 0.17814315E+00 0.30103440E+02</pdfrwt>
<pdfrwt beam="2">  1       21 0.19211674E-03 0.30103440E+02</pdfrwt>
<totfact> 0.84198375E+06</totfact>
</mgrwt>
</event>
<event>
 4    1  0.7521660E+004  0.2636206E+02  0.7546771E-02  0.1642175E+00
         21   -1    0    0  501  502  0.00000000000E+00  0.00000000000E+00  0.29312692289E+02  0.29312692289E+02  0.00000000000E+00 0. -1.
         21   -1    0    0  502  503 -0.00000000000E+00 -0.00000000000E+00 -0.31547886973E+02  0.31547886973E+02  0.00000000000E+00 0. -1.
          5    1    1    2  501    0  0.26335201224E+02  0.11897993391E+01 -0.16286823799E+02  0.30987401882E+02  0.00000000000E+00 0.  1.
         -5    1    1    2    0  503 -0.26335201224E+02 -0.11897993391E+01  0.14051629116E+02  0.29873177380E+02  0.00000000000E+00 0. -1.
<mgrwt>
<rscale>  2 0.26362065E+02</rscale>
<asrwt>0</asrwt>
<pdfrwt beam="1">  1       21 0.45096450E-02 0.26362065E+02</pdfrwt>
<pdfrwt beam="2">  1       21 0.48535210E-02 0.26362065E+02</pdfrwt>
<totfact> 0.65630085E+07</totfact>
</mgrwt>
</event>
<event>
 4    1  0.7521660E+004  0.2864809E+02  0.7546771E-02  0.1613532E+00
         21   -1    0    0  501  502  0.00000000000E+00  0.00000000000E+00  0.40375090484E+02  0.40375090484E+02  0.00000000000E+00 0.  1.
         21   -1    0    0  502  503 -0.00000000000E+00 -0.00000000000E+00 -0.20333629794E+02  0.20333629794E+02  0.00000000000E+00 0.  1.
          1    1    1    2  501    0 -0.58114386653E+01 -0.28052458550E+02  0.10559765150E+02  0.30532308955E+02  0.00000000000E+00 0. -1.
         -1    1    1    2    0  503  0.58114386653E+01  0.28052458550E+02  0.94816955394E+01  0.30176411324E+02  0.00000000000E+00 0.  1.
<mgrwt>
<rscale>  2 0.28648093E+02</rscale>
<asrwt>0</asrwt>
<pdfrwt beam="1">  1       21 0.62115524E-02 0.28648093E+02</pdfrwt>
<pdfrwt beam="2">  1       21 0.31282507E-02 0.28648093E+02</pdfrwt>
<totfact> 0.80340338E+07</totfact>
</mgrwt>
</event>
<event>
 4    1  0.7521660E+004  0.3429922E+02  0.7546771E-02  0.1554913E+00
         21   -1    0    0  503  502  0.00000000000E+00  0.00000000000E+00  0.43504469452E+03  0.43504469452E+03  0.00000000000E+00 0.  1.
         21   -1    0    0  501  503 -0.00000000000E+00 -0.00000000000E+00 -0.30435028861E+01  0.30435028861E+01  0.00000000000E+00 0.  1.
          1    1    1    2  501    0 -0.25106018625E+02  0.23369303591E+02  0.14286056171E+03  0.14692030702E+03  0.00000000000E+00 0.  1.
         -1    1    1    2    0  502  0.25106018625E+02 -0.23369303591E+02  0.28914062993E+03  0.29116789039E+03  0.00000000000E+00 0. -1.
<mgrwt>
<rscale>  2 0.34299220E+02</rscale>
<asrwt>0</asrwt>
<pdfrwt beam="1">  1       21 0.66929904E-01 0.34299220E+02</pdfrwt>
<pdfrwt beam="2">  1       21 0.46823156E-03 0.34299220E+02</pdfrwt>
<totfact> 0.21291838E+07</totfact>
</mgrwt>
</event>
<event>
 4    1  0.7521660E+004  0.2347598E+02  0.7546771E-02  0.1683909E+00
         21   -1    0    0  501  502  0.00000000000E+00  0.00000000000E+00  0.59431172232E+00  0.59431172232E+00  0.00000000000E+00 0.  1.
         21   -1    0    0  502  503 -0.00000000000E+00 -0.00000000000E+00 -0.10530158675E+04  0.10530158675E+04  0.00000000000E+00 0.  1.
          2    1    1    2  501    0  0.20331004512E+02 -0.11737630178E+02 -0.70821428122E+03  0.70860326688E+03  0.00000000000E+00 0.  1.
         -2    1    1    2    0  503 -0.20331004512E+02  0.11737630178E+02 -0.34420727451E+03  0.34500691230E+03  0.00000000000E+00 0. -1.
<mgrwt>
<rscale>  2 0.23475981E+02</rscale>
<asrwt>0</asrwt>
<pdfrwt beam="1">  1       21 0.91433472E-04 0.23475981E+02</pdfrwt>
<pdfrwt beam="2">  1       21 0.16200085E+00 0.23475981E+02</pdfrwt>
<totfact> 0.29954977E+07</totfact>
</mgrwt>
</event>
<event>
 4    1  0.7521660E+004  0.3106673E+02  0.7546771E-02  0.1586588E+00
         21   -1    0    0  501  502  0.00000000000E+00  0.00000000000E+00  0.36394671446E+02  0.36394671446E+02  0.00000000000E+00 0.  1.
         21   -1    0    0  502  503 -0.00000000000E+00 -0.00000000000E+00 -0.33373835271E+02  0.33373835271E+02  0.00000000000E+00 0.  1.
          1    1    1    2  501    0  0.25317882280E+02 -0.18004074776E+02 -0.14299594416E+02  0.34199711580E+02  0.00000000000E+00 0.  1.
         -1    1    1    2    0  503 -0.25317882280E+02  0.18004074776E+02  0.17320430590E+02  0.35568795137E+02  0.00000000000E+00 0. -1.
<mgrwt>
<rscale>  2 0.31066733E+02</rscale>
<asrwt>0</asrwt>
<pdfrwt beam="1">  1       21 0.55991802E-02 0.31066733E+02</pdfrwt>
<pdfrwt beam="2">  1       21 0.51344362E-02 0.31066733E+02</pdfrwt>
<totfact> 0.44005554E+07</totfact>
</mgrwt>
</event>
<event>
 4    1  0.7521660E+004  0.2765555E+02  0.7546771E-02  0.1625550E+00
         21   -1    0    0  503  502  0.00000000000E+00  0.00000000000E+00  0.10410847988E+02  0.10410847988E+02  0.00000000000E+00 0.  1.
         21   -1    0    0  501  503 -0.00000000000E+00 -0.00000000000E+00 -0.75223790939E+02  0.75223790939E+02  0.00000000000E+00 0.  1.
          3    1    1    2  501    0 -0.10000354932E+02  0.25784151841E+02 -0.38954172644E+02  0.47772975114E+02  0.00000000000E+00 0. -1.
         -3    1    1    2    0  502  0.10000354932E+02 -0.25784151841E+02 -0.25858770307E+02  0.37861663813E+02  0.00000000000E+00 0.  1.
<mgrwt>
<rscale>  2 0.27655553E+02</rscale>
<asrwt>0</asrwt>
<pdfrwt beam="1">  1       21 0.16016689E-02 0.27655553E+02</pdfrwt>
<pdfrwt beam="2">  1       21 0.11572891E-01 0.27655553E+02</pdfrwt>
<totfact> 0.80550137E+07</totfact>
</mgrwt>
</event>
<event>
 4    1  0.7521660E+004  0.2030282E+02  0.7546771E-02  0.1739372E+00
         21   -1    0    0  501  502  0.00000000000E+00  0.00000000000E+00  0.33995798249E+00  0.33995798249E+00  0.00000000000E+00 0.  1.
         21   -1    0    0  502  503 -0.00000000000E+00 -0.00000000000E+00 -0.14201919056E+04  0.14201919056E+04  0.00000000000E+00 0.  1.
          5    1    1    2  501    0  0.54452179351E-01  0.20302748506E+02 -0.43831937807E+03  0.43878933642E+03  0.00000000000E+00 0. -1.
         -5    1    1    2    0  503 -0.54452179351E-01 -0.20302748506E+02 -0.98153256954E+03  0.98174252716E+03  0.00000000000E+00 0.  1.
<mgrwt>
<rscale>  2 0.20302822E+02</rscale>
<asrwt>0</asrwt>
<pdfrwt beam="1">  1       21 0.52301108E-04 0.20302822E+02</pdfrwt>
<pdfrwt beam="2">  1       21 0.21849156E+00 0.20302822E+02</pdfrwt>
<totfact> 0.30306597E+07</totfact>
</mgrwt>
</event>
<event>
 4    1  0.7521660E+004  0.2422087E+02  0.7546771E-02  0.1672452E+00
         21   -1    0    0  501  502  0.00000000000E+00  0.00000000000E+00  0.65707121177E+03  0.65707121177E+03  0.00000000000E+00 0. -1.
         21   -1    0    0  502  503 -0.00000000000E+00 -0.00000000000E+00 -0.13013239085E+01  0.13013239085E+01  0.00000000000E+00 0. -1.
          5    1    1    2  501    0  0.18150614629E+02 -0.16037635946E+02  0.14344980453E+03  0.14548022889E+03  0.00000000000E+00 0. -1.
         -5    1    1    2    0  503 -0.18150614629E+02  0.16037635946E+02  0.51232008333E+03  0.51289230679E+03  0.00000000000E+00 0.  1.
<mgrwt>
<rscale>  2 0.24220871E+02</rscale>
<asrwt>0</asrwt>
<pdfrwt beam="1">  1       21 0.10108761E+00 0.24220871E+02</pdfrwt>
<pdfrwt beam="2">  1       21 0.20020420E-03 0.24220871E+02</pdfrwt>
<totfact> 0.28992794E+07</totfact>
</mgrwt>
</event>
<event>
 4    1  0.7521660E+004  0.2270880E+02  0.7546771E-02  0.1696274E+00
         21   -1    0    0  501  502  0.00000000000E+00  0.00000000000E+00  0.10123994425E+01  0.10123994425E+01  0.00000000000E+00 0.  1.
         21   -1    0    0  502  503 -0.00000000000E+00 -0.00000000000E+00 -0.52282927070E+03  0.52282927070E+03  0.00000000000E+00 0.  1.
          5    1    1    2  501    0  0.10724767188E+02 -0.20016711522E+02 -0.30292742478E+03  0.30377740873E+03  0.00000000000E+00 0.  1.
         -5    1    1    2    0  503 -0.10724767188E+02  0.20016711522E+02 -0.21888944648E+03  0.22006426141E+03  0.00000000000E+00 0. -1.
<mgrwt>
<rscale>  2 0.22708795E+02</rscale>
<asrwt>0</asrwt>
<pdfrwt beam="1">  1       21 0.15575411E-03 0.22708795E+02</pdfrwt>
<pdfrwt beam="2">  1       21 0.80435093E-01 0.22708795E+02</pdfrwt>
<totfact> 0.67038248E+07</totfact>
</mgrwt>
</event>
<event>
 4    1  0.7521660E+004  0.4948253E+02  0.7546771E-02  0.1448153E+00
         21   -1    0    0  501  502  0.00000000000E+00  0.00000000000E+00  0.38122102766E+03  0.38122102766E+03  0.00000000000E+00 0. -1.
         21   -1    0    0  502  503 -0.00000000000E+00 -0.00000000000E+00 -0.94823000795E+01  0.94823000795E+01  0.00000000000E+00 0. -1.
          3    1    1    2  501    0 -0.48831605366E+02 -0.79997004965E+01  0.29683354342E+03  0.30092968180E+03  0.00000000000E+00 0.  1.
         -3    1    1    2    0  503  0.48831605366E+02  0.79997004965E+01  0.74905184161E+02  0.89773645937E+02  0.00000000000E+00 0. -1.
<mgrwt>
<rscale>  2 0.49482531E+02</rscale>
<asrwt>0</asrwt>
<pdfrwt beam="1">  1       21 0.58649377E-01 0.49482531E+02</pdfrwt>
<pdfrwt beam="2">  1       21 0.14588157E-02 0.49482531E+02</pdfrwt>
<totfact> 0.51792925E+06</totfact>
</mgrwt>
</event>
<event>
 4    1  0.7521660E+004  0.2681981E+02  0.7546771E-02  0.1636160E+00
         21   -1    0    0  501  502  0.00000000000E+00  0.00000000000E+00  0.23532378314E+01  0.23532378314E+01  0.00000000000E+00 0.  1.
         21   -1    0    0  502  503 -0.00000000000E+00 -0.00000000000E+00 -0.35237042943E+03  0.35237042943E+03  0.00000000000E+00 0.  1.
          3    1    1    2  501    0 -0.10037076920E+01  0.26801022999E+02 -0.23958063179E+03  0.24107712747E+03  0.00000000000E+00 0.  1.
         -3    1    1    2    0  503  0.10037076920E+01 -0.26801022999E+02 -0.11043655981E+03  0.11364653979E+03  0.00000000000E+00 0. -1.
<mgrwt>
<rscale>  2 0.26819811E+02</rscale>
<asrwt>0</asrwt>
<pdfrwt beam="1">  1       21 0.36203675E-03 0.26819811E+02</pdfrwt>
<pdfrwt beam="2">  1       21 0.54210811E-01 0.26819811E+02</pdfrwt>
<totfact> 0.45642711E+07</totfact>
</mgrwt>
</event>
<event>
 4    1  0.7521660E+004  0.2466653E+02  0.7546771E-02  0.1665838E+00
         21   -1    0    0  501  502  0.00000000000E+00  0.00000000000E+00  0.40445294583E+02  0.40445294583E+02  0.00000000000E+00 0.  1.
         21   -1    0    0  502  503 -0.00000000000E+00 -0.00000000000E+00 -0.22155165410E+02  0.22155165410E+02  0.00000000000E+00 0.  1.
          2    1    1    2  501    0 -0.10340281979E+02 -0.22394556292E+02  0.26878651950E+02  0.36481495496E+02  0.00000000000E+00 0. -1.
         -2    1    1    2    0  503  0.10340281979E+02  0.22394556292E+02 -0.85885227779E+01  0.26118964498E+02  0.00000000000E+00 0.  1.
<mgrwt>
<rscale>  2 0.24666528E+02</rscale>
<asrwt>0</asrwt>
<pdfrwt beam="1">  1       21 0.62223530E-02 0.24666528E+02</pdfrwt>
<pdfrwt beam="2">  1       21 0.34084870E-02 0.24666528E+02</pdfrwt>
<totfact> 0.67426755E+07</totfact>
</mgrwt>
</event>
<event>
 4    1  0.7521660E+004  0.2495508E+02  0.7546771E-02  0.1661648E+00
         21   -1    0    0  503  502  0.00000000000E+00  0.00000000000E+00  0.15620515865E+03  0.15620515865E+03  0.00000000000E+00 0. -1.
         21   -1    0    0  501  503 -0.00000000000E+00 -0.00000000000E+00 -0.40472086259E+01  0.40472086259E+01  0.00000000000E+00 0. -1.
          4    1    1    2  501    0  0.24276120385E+02  0.57815178665E+01  0.66288369115E+02  0.70830105533E+02  0.00000000000E+00 0.  1.
         -4    1    1    2    0  502 -0.24276120385E+02 -0.57815178665E+01  0.85869580906E+02  0.89422261740E+02  0.00000000000E+00 0. -1.
<mgrwt>
<rscale>  2 0.24955079E+02</rscale>
<asrwt>0</asrwt>
<pdfrwt beam="1">  1       21 0.24031558E-01 0.24955079E+02</pdfrwt>
<pdfrwt beam="2">  1       21 0.62264760E-03 0.24955079E+02</pdfrwt>
<totfact> 0.92380666E+07</totfact>
</mgrwt>
</event>
<event>
 4    1  0.7521660E+004  0.6527399E+02  0.7546771E-02  0.1376944E+00
         21   -1    0    0  503  502  0.00000000000E+00  0.00000000000E+00  0.13638815480E+02  0.13638815480E+02  0.00000000000E+00 0. -1.
         21   -1    0    0  501  503 -0.00000000000E+00 -0.00000000000E+00 -0.34900958578E+03  0.34900958578E+03  0.00000000000E+00 0. -1.
          2    1    1    2  501    0  0.48526379412E+02  0.43656436632E+02 -0.22641617079E+03  0.23563738318E+03  0.00000000000E+00 0.  1.
         -2    1    1    2    0  502 -0.48526379412E+02 -0.43656436632E+02 -0.10895459951E+03  0.12701101808E+03  0.00000000000E+00 0. -1.
<mgrwt>
<rscale>  2 0.65273991E+02</rscale>
<asrwt>0</asrwt>
<pdfrwt beam="1">  1       21 0.20982799E-02 0.65273991E+02</pdfrwt>
<pdfrwt beam="2">  1       21 0.53693768E-01 0.65273991E+02</pdfrwt>
<totfact> 0.35780568E+06</totfact>
</mgrwt>
</event>
<event>
 4    1  0.7521660E+004  0.2798007E+02  0.7546771E-02  0.1621553E+00
         21   -1    0    0  503  502  0.00000000000E+00  0.00000000000E+00  0.17482794861E+01  0.17482794861E+01  0.00000000000E+00 0. -1.
         21   -1    0    0  501  503 -0.00000000000E+00 -0.00000000000E+00 -0.56605987869E+03  0.56605987869E+03  0.00000000000E+00 0. -1.
          2    1    1    2  501    0  0.27347303896E+02  0.59168600678E+01 -0.41191979642E+03  0.41286899005E+03  0.00000000000E+00 0.  1.
         -2    1    1    2    0  502 -0.27347303896E+02 -0.59168600678E+01 -0.15239180278E+03  0.15493916812E+03  0.00000000000E+00 0. -1.
<mgrwt>
<rscale>  2 0.27980069E+02</rscale>
<asrwt>0</asrwt>
<pdfrwt beam="1">  1       21 0.26896581E-03 0.27980069E+02</pdfrwt>
<pdfrwt beam="2">  1       21 0.87086220E-01 0.27980069E+02</pdfrwt>
<totfact> 0.26791692E+07</totfact>
</mgrwt>
</event>
<event>
 4    1  0.7521660E+004  0.3284284E+02  0.7546771E-02  0.1568636E+00
         21   -1    0    0  501  502  0.00000000000E+00  0.00000000000E+00  0.28399548230E+02  0.28399548230E+02  0.00000000000E+00 0. -1.
         21   -1    0    0  502  503 -0.00000000000E+00 -0.00000000000E+00 -0.42310043299E+02  0.42310043299E+02  0.00000000000E+00 0. -1.
          2    1    1    2  501    0 -0.24678411846E+01  0.32749985848E+02  0.43533154766E+01  0.33130094608E+02  0.00000000000E+00 0.  1.
         -2    1    1    2    0  503  0.24678411846E+01 -0.32749985848E+02 -0.18263810546E+02  0.37579496920E+02  0.00000000000E+00 0. -1.
<mgrwt>
<rscale>  2 0.32842835E+02</rscale>
<asrwt>0</asrwt>
<pdfrwt beam="1">  1       21 0.43691613E-02 0.32842835E+02</pdfrwt>
<pdfrwt beam="2">  1       21 0.65092374E-02 0.32842835E+02</pdfrwt>
<totfact> 0.45170528E+07</totfact>
</mgrwt>
</event>
<event>
 4    1  0.7521660E+004  0.2506884E+02  0.7546771E-02  0.1660015E+00
         21   -1    0    0  501  502  0.00000000000E+00  0.00000000000E+00  0.49887904671E+01  0.49887904671E+01  0.00000000000E+00 0. -1.
         21   -1    0    0  502  503 -0.00000000000E+00 -0.00000000000E+00 -0.12850188411E+03  0.12850188411E+03  0.00000000000E+00 0. -1.
          3    1    1    2  501    0 -0.23152194546E+02  0.96136747084E+01 -0.52390965954E+02  0.58079774167E+02  0.00000000000E+00 0. -1.
         -3    1    1    2    0  503  0.23152194546E+02 -0.96136747084E+01 -0.71122127689E+02  0.75410900411E+02  0.00000000000E+00 0.  1.
<mgrwt>
<rscale>  2 0.25068842E+02</rscale>
<asrwt>0</asrwt>
<pdfrwt beam="1">  1       21 0.76750620E-03 0.25068842E+02</pdfrwt>
<pdfrwt beam="2">  1       21 0.19769521E-01 0.25068842E+02</pdfrwt>
<totfact> 0.95564530E+07</totfact>
</mgrwt>
</event>
<event>
 4    1  0.7521660E+004  0.2191895E+02  0.7546771E-02  0.1709657E+00
         21   -1    0    0  503  502  0.00000000000E+00  0.00000000000E+00  0.54516877613E+03  0.54516877613E+03  0.00000000000E+00 0.  1.
         21   -1    0    0  501  503 -0.00000000000E+00 -0.00000000000E+00 -0.12653020922E+01  0.12653020922E+01  0.00000000000E+00 0.  1.
          3    1    1    2  501    0 -0.90334808132E+01  0.19970898381E+02  0.12143154334E+03  0.12339392317E+03  0.00000000000E+00 0.  1.
         -3    1    1    2    0  502  0.90334808132E+01 -0.19970898381E+02  0.42247193070E+03  0.42304015505E+03  0.00000000000E+00 0. -1.
<mgrwt>
<rscale>  2 0.21918954E+02</rscale>
<asrwt>0</asrwt>
<pdfrwt beam="1">  1       21 0.83871932E-01 0.21918954E+02</pdfrwt>
<pdfrwt beam="2">  1       21 0.19466230E-03 0.21918954E+02</pdfrwt>
<totfact> 0.44184643E+07</totfact>
</mgrwt>
</event>
<event>
 4    1  0.7521660E+004  0.2614720E+02  0.7546771E-02  0.1645051E+00
         21   -1    0    0  501  502  0.00000000000E+00  0.00000000000E+00  0.32855547864E+03  0.32855547864E+03  0.00000000000E+00 0.  1.
         21   -1    0    0  502  503 -0.00000000000E+00 -0.00000000000E+00 -0.21476841250E+01  0.21476841250E+01  0.00000000000E+00 0.  1.
          2    1    1    2  501    0 -0.49105730518E+00 -0.26142583653E+02  0.19237218356E+03  0.19414101273E+03  0.00000000000E+00 0.  1.
         -2    1    1    2    0  503  0.49105730518E+00  0.26142583653E+02  0.13403561096E+03  0.13656215004E+03  0.00000000000E+00 0. -1.
<mgrwt>
<rscale>  2 0.26147195E+02</rscale>
<asrwt>0</asrwt>
<pdfrwt beam="1">  1       21 0.50546957E-01 0.26147195E+02</pdfrwt>
<pdfrwt beam="2">  1       21 0.33041320E-03 0.26147195E+02</pdfrwt>
<totfact> 0.59582137E+07</totfact>
</mgrwt>
</event>
<event>
 4    1  0.7521660E+004  0.2082098E+02  0.7546771E-02  0.1729478E+00
         21   -1    0    0  503  502  0.00000000000E+00  0.00000000000E+00  0.13332209763E+02  0.13332209763E+02  0.00000000000E+00 0.  1.
         21   -1    0    0  501  503 -0.00000000000E+00 -0.00000000000E+00 -0.37526933399E+02  0.37526933399E+02  0.00000000000E+00 0.  1.
          3    1    1    2  501    0  0.17983436783E+02  0.10493294248E+02 -0.28051997357E+01  0.21009102033E+02  0.00000000000E+00 0.  1.
         -3    1    1    2    0  502 -0.17983436783E+02 -0.10493294248E+02 -0.21389523900E+02  0.29850041128E+02  0.00000000000E+00 0. -1.
<mgrwt>
<rscale>  2 0.20820980E+02</rscale>
<asrwt>0</asrwt>
<pdfrwt beam="1">  1       21 0.20511092E-02 0.20820980E+02</pdfrwt>
<pdfrwt beam="2">  1       21 0.57733742E-02 0.20820980E+02</pdfrwt>
<totfact> 0.15901203E+08</totfact>
</mgrwt>
</event>
<event>
 4    1  0.7521660E+004  0.2598946E+02  0.7546771E-02  0.1647184E+00
         21   -1    0    0  503  502  0.00000000000E+00  0.00000000000E+00  0.73708009653E+01  0.73708009653E+01  0.00000000000E+00 0. -1.
         21   -1    0    0  501  503 -0.00000000000E+00 -0.00000000000E+00 -0.93304010045E+02  0.93304010045E+02  0.00000000000E+00 0. -1.
          3    1    1    2  501    0 -0.14736958291E+02  0.21407338208E+02 -0.49691144259E+02  0.56077284943E+02  0.00000000000E+00 0.  1.
         -3    1    1    2    0  502  0.14736958291E+02 -0.21407338208E+02 -0.36242064820E+02  0.44597526067E+02  0.00000000000E+00 0. -1.
<mgrwt>
<rscale>  2 0.25989461E+02</rscale>
<asrwt>0</asrwt>
<pdfrwt beam="1">  1       21 0.11339694E-02 0.25989461E+02</pdfrwt>
<pdfrwt beam="2">  1       21 0.14354463E-01 0.25989461E+02</pdfrwt>
<totfact> 0.93166116E+07</totfact>
</mgrwt>
</event>
<event>
 4    1  0.7521660E+004  0.3875054E+02  0.7546771E-02  0.1517613E+00
         21   -1    0    0  503  502  0.00000000000E+00  0.00000000000E+00  0.19688326706E+01  0.19688326706E+01  0.00000000000E+00 0. -1.
         21   -1    0    0  501  503 -0.00000000000E+00 -0.00000000000E+00 -0.76492510143E+03  0.76492510143E+03  0.00000000000E+00 0. -1.
          2    1    1    2  501    0  0.13206737253E+02 -0.36430565110E+02 -0.40221730454E+03  0.40407965063E+03  0.00000000000E+00 0.  1.
         -2    1    1    2    0  502 -0.13206737253E+02  0.36430565110E+02 -0.36073896422E+03  0.36281428347E+03  0.00000000000E+00 0. -1.
<mgrwt>
<rscale>  2 0.38750535E+02</rscale>
<asrwt>0</asrwt>
<pdfrwt beam="1">  1       21 0.30289664E-03 0.38750535E+02</pdfrwt>
<pdfrwt beam="2">  1       21 0.11768105E+00 0.38750535E+02</pdfrwt>
<totfact> 0.12058738E+07</totfact>
</mgrwt>
</event>
<event>
 4    1  0.7521660E+004  0.2891600E+02  0.7546771E-02  0.1610389E+00
         21   -1    0    0  501  502  0.00000000000E+00  0.00000000000E+00  0.74297177080E+02  0.74297177080E+02  0.00000000000E+00 0. -1.
         21   -1    0    0  502  503 -0.00000000000E+00 -0.00000000000E+00 -0.19919976861E+02  0.19919976861E+02  0.00000000000E+00 0. -1.
          3    1    1    2  501    0  0.28430075665E+02  0.52788375155E+01  0.58260374459E+02  0.65041575626E+02  0.00000000000E+00 0. -1.
         -3    1    1    2    0  503 -0.28430075665E+02 -0.52788375155E+01 -0.38831742397E+01  0.29175578315E+02  0.00000000000E+00 0.  1.
<mgrwt>
<rscale>  2 0.28916005E+02</rscale>
<asrwt>0</asrwt>
<pdfrwt beam="1">  1       21 0.11430335E-01 0.28916005E+02</pdfrwt>
<pdfrwt beam="2">  1       21 0.30646119E-02 0.28916005E+02</pdfrwt>
<totfact> 0.30361304E+07</totfact>
</mgrwt>
</event>
<event>
 4    1  0.7521660E+004  0.2782076E+02  0.7546771E-02  0.1623507E+00
         21   -1    0    0  503  502  0.00000000000E+00  0.00000000000E+00  0.10284818954E+03  0.10284818954E+03  0.00000000000E+00 0. -1.
         21   -1    0    0  501  503 -0.00000000000E+00 -0.00000000000E+00 -0.78466086013E+01  0.78466086013E+01  0.00000000000E+00 0. -1.
          1    1    1    2  501    0  0.23514544525E+02 -0.14868124656E+02  0.36306138107E+02  0.45739814158E+02  0.00000000000E+00 0. -1.
         -1    1    1    2    0  502 -0.23514544525E+02  0.14868124656E+02  0.58695442834E+02  0.64954983985E+02  0.00000000000E+00 0.  1.
<mgrwt>
<rscale>  2 0.27820764E+02</rscale>
<asrwt>0</asrwt>
<pdfrwt beam="1">  1       21 0.15822797E-01 0.27820764E+02</pdfrwt>
<pdfrwt beam="2">  1       21 0.12071706E-02 0.27820764E+02</pdfrwt>
<totfact> 0.72928824E+07</totfact>
</mgrwt>
</event>
<event>
 4    1  0.7521660E+004  0.4452782E+02  0.7546771E-02  0.1477311E+00
         21   -1    0    0  503  502  0.00000000000E+00  0.00000000000E+00  0.33399028973E+03  0.33399028973E+03  0.00000000000E+00 0.  1.
         21   -1    0    0  501  503 -0.00000000000E+00 -0.00000000000E+00 -0.60532795480E+01  0.60532795480E+01  0.00000000000E+00 0.  1.
          2    1    1    2  501    0  0.38609422709E+02  0.22181952863E+02  0.18758581653E+03  0.19279824978E+03  0.00000000000E+00 0.  1.
         -2    1    1    2    0  502 -0.38609422709E+02 -0.22181952863E+02  0.14035119365E+03  0.14724531950E+03  0.00000000000E+00 0. -1.
<mgrwt>
<rscale>  2 0.44527818E+02</rscale>
<asrwt>0</asrwt>
<pdfrwt beam="1">  1       21 0.51383107E-01 0.44527818E+02</pdfrwt>
<pdfrwt beam="2">  1       21 0.93127404E-03 0.44527818E+02</pdfrwt>
<totfact> 0.13387884E+07</totfact>
</mgrwt>
</event>
<event>
 4    1  0.7521660E+004  0.3298130E+02  0.7546771E-02  0.1567294E+00
         21   -1    0    0  503  502  0.00000000000E+00  0.00000000000E+00  0.21019370557E+03  0.21019370557E+03  0.00000000000E+00 0.  1.
         21   -1    0    0  501  503 -0.00000000000E+00 -0.00000000000E+00 -0.52021360209E+01  0.52021360209E+01  0.00000000000E+00 0.  1.
          5    1    1    2  501    0  0.68652495901E+01 -0.32258868432E+02  0.94726825411E+02  0.10030422572E+03  0.00000000000E+00 0. -1.
         -5    1    1    2    0  502 -0.68652495901E+01  0.32258868432E+02  0.11026474414E+03  0.11509161588E+03  0.00000000000E+00 0.  1.
<mgrwt>
<rscale>  2 0.32981301E+02</rscale>
<asrwt>0</asrwt>
<pdfrwt beam="1">  1       21 0.32337487E-01 0.32981301E+02</pdfrwt>
<pdfrwt beam="2">  1       21 0.80032878E-03 0.32981301E+02</pdfrwt>
<totfact> 0.39291866E+07</totfact>
</mgrwt>
</event>
<event>
 4    1  0.7521660E+004  0.2872359E+02  0.7546771E-02  0.1612642E+00
         21   -1    0    0  503  502  0.00000000000E+00  0.00000000000E+00  0.29804315239E+03  0.29804315239E+03  0.00000000000E+00 0. -1.
         21   -1    0    0  501  503 -0.00000000000E+00 -0.00000000000E+00 -0.28364987905E+01  0.28364987905E+01  0.00000000000E+00 0. -1.
          2    1    1    2  501    0 -0.10831408148E+02 -0.26603101460E+02  0.17094669756E+03  0.17334306394E+03  0.00000000000E+00 0. -1.
         -2    1    1    2    0  502  0.10831408148E+02  0.26603101460E+02  0.12425995604E+03  0.12753658724E+03  0.00000000000E+00 0.  1.
<mgrwt>
<rscale>  2 0.28723586E+02</rscale>
<asrwt>0</asrwt>
<pdfrwt beam="1">  1       21 0.45852768E-01 0.28723586E+02</pdfrwt>
<pdfrwt beam="2">  1       21 0.43638467E-03 0.28723586E+02</pdfrwt>
<totfact> 0.48793144E+07</totfact>
</mgrwt>
</event>
<event>
 4    1  0.7521660E+004  0.2040751E+02  0.7546771E-02  0.1737344E+00
         21   -1    0    0  503  502  0.00000000000E+00  0.00000000000E+00  0.48571008260E+02  0.48571008260E+02  0.00000000000E+00 0. -1.
         21   -1    0    0  501  503 -0.00000000000E+00 -0.00000000000E+00 -0.85990790714E+01  0.85990790714E+01  0.00000000000E+00 0. -1.
          1    1    1    2  501    0 -0.13994127682E+02  0.14853647746E+02  0.18454098607E+02  0.27514000370E+02  0.00000000000E+00 0.  1.
         -1    1    1    2    0  502  0.13994127682E+02 -0.14853647746E+02  0.21517830581E+02  0.29656086962E+02  0.00000000000E+00 0. -1.
<mgrwt>
<rscale>  2 0.20407510E+02</rscale>
<asrwt>0</asrwt>
<pdfrwt beam="1">  1       21 0.74724626E-02 0.20407510E+02</pdfrwt>
<pdfrwt beam="2">  1       21 0.13229353E-02 0.20407510E+02</pdfrwt>
<totfact> 0.20316227E+08</totfact>
</mgrwt>
</event>
<event>
 4    1  0.7521660E+004  0.2685614E+02  0.7546771E-02  0.1635689E+00
         21   -1    0    0  503  502  0.00000000000E+00  0.00000000000E+00  0.21478947983E+01  0.21478947983E+01  0.00000000000E+00 0.  1.
         21   -1    0    0  501  503 -0.00000000000E+00 -0.00000000000E+00 -0.49371699538E+03  0.49371699538E+03  0.00000000000E+00 0.  1.
          5    1    1    2  501    0  0.35458721325E+01 -0.26621026108E+02 -0.10556269919E+03  0.10892536757E+03  0.00000000000E+00 0.  1.
         -5    1    1    2    0  502 -0.35458721325E+01  0.26621026108E+02 -0.38600640139E+03  0.38693952261E+03  0.00000000000E+00 0. -1.
<mgrwt>
<rscale>  2 0.26856140E+02</rscale>
<asrwt>0</asrwt>
<pdfrwt beam="1">  1       21 0.33044534E-03 0.26856140E+02</pdfrwt>
<pdfrwt beam="2">  1       21 0.75956463E-01 0.26856140E+02</pdfrwt>
<totfact> 0.26281732E+07</totfact>
</mgrwt>
</event>
<event>
 4    1  0.7521660E+004  0.3074650E+02  0.7546771E-02  0.1589981E+00
         21   -1    0    0  503  502  0.00000000000E+00  0.00000000000E+00  0.57473621278E+02  0.57473621278E+02  0.00000000000E+00 0. -1.
         21   -1    0    0  501  503 -0.00000000000E+00 -0.00000000000E+00 -0.22126342553E+02  0.22126342553E+02  0.00000000000E+00 0. -1.
          4    1    1    2  501    0  0.17814552349E+02 -0.25059706625E+02  0.37835232544E+02  0.48752969070E+02  0.00000000000E+00 0.  1.
         -4    1    1    2    0  502 -0.17814552349E+02  0.25059706625E+02 -0.24879538191E+01  0.30846994760E+02  0.00000000000E+00 0. -1.
<mgrwt>
<rscale>  2 0.30746499E+02</rscale>
<asrwt>0</asrwt>
<pdfrwt beam="1">  1       21 0.88420955E-02 0.30746499E+02</pdfrwt>
<pdfrwt beam="2">  1       21 0.34040527E-02 0.30746499E+02</pdfrwt>
<totfact> 0.40026964E+07</totfact>
</mgrwt>
</event>
<event>
 4    1  0.7521660E+004  0.2141299E+02  0.7546771E-02  0.1718606E+00
         21   -1    0    0  501  502  0.00000000000E+00  0.00000000000E+00  0.33500864239E+02  0.33500864239E+02  0.00000000000E+00 0. -1.
         21   -1    0    0  502  503 -0.00000000000E+00 -0.00000000000E+00 -0.16757305698E+02  0.16757305698E+02  0.00000000000E+00 0. -1.
          1    1    1    2  501    0 -0.82834856249E+01  0.19745890994E+02  0.19128662733E+02  0.28712751230E+02  0.00000000000E+00 0. -1.
         -1    1    1    2    0  503  0.82834856249E+01 -0.19745890994E+02 -0.23851041920E+01  0.21545418706E+02  0.00000000000E+00 0.  1.
<mgrwt>
<rscale>  2 0.21412995E+02</rscale>
<asrwt>0</asrwt>
<pdfrwt beam="1">  1       21 0.51539791E-02 0.21412995E+02</pdfrwt>
<pdfrwt beam="2">  1       21 0.25780470E-02 0.21412995E+02</pdfrwt>
<totfact> 0.13523307E+08</totfact>
</mgrwt>
</event>
<event>
 4    1  0.7521660E+004  0.2011948E+02  0.7546771E-02  0.1742962E+00
         21   -1    0    0  503  502  0.00000000000E+00  0.00000000000E+00  0.95861552689E+00  0.95861552689E+00  0.00000000000E+00 0.  1.
         21   -1    0    0  501  503 -0.00000000000E+00 -0.00000000000E+00 -0.43246644707E+03  0.43246644707E+03  0.00000000000E+00 0.  1.
          3    1    1    2  501    0  0.88812769354E+00  0.20099868899E+02 -0.18247599395E+03  0.18358181247E+03  0.00000000000E+00 0.  1.
         -3    1    1    2    0  502 -0.88812769354E+00 -0.20099868899E+02 -0.24903183759E+03  0.24984325013E+03  0.00000000000E+00 0. -1.
<mgrwt>
<rscale>  2 0.20119481E+02</rscale>
<asrwt>0</asrwt>
<pdfrwt beam="1">  1       21 0.14747907E-03 0.20119481E+02</pdfrwt>
<pdfrwt beam="2">  1       21 0.66533409E-01 0.20119481E+02</pdfrwt>
<totfact> 0.10390719E+08</totfact>
</mgrwt>
</event>
<event>
 4    1  0.7521660E+004  0.2018121E+02  0.7546771E-02  0.1741748E+00
         21   -1    0    0  503  502  0.00000000000E+00  0.00000000000E+00  0.73318006934E+01  0.73318006934E+01  0.00000000000E+00 0. -1.
         21   -1    0    0  501  503 -0.00000000000E+00 -0.00000000000E+00 -0.59812840565E+02  0.59812840565E+02  0.00000000000E+00 0. -1.
          1    1    1    2  501    0 -0.23964951398E+01 -0.20038410998E+02 -0.35203174131E+02  0.40577636368E+02  0.00000000000E+00 0. -1.
         -1    1    1    2    0  502  0.23964951398E+01  0.20038410998E+02 -0.17277865740E+02  0.26567004890E+02  0.00000000000E+00 0.  1.
<mgrwt>
<rscale>  2 0.20181207E+02</rscale>
<asrwt>0</asrwt>
<pdfrwt beam="1">  1       21 0.11279692E-02 0.20181207E+02</pdfrwt>
<pdfrwt beam="2">  1       21 0.92019762E-02 0.20181207E+02</pdfrwt>
<totfact> 0.18336596E+08</totfact>
</mgrwt>
</event>
<event>
 4    1  0.7521660E+004  0.2165971E+02  0.7546771E-02  0.1714204E+00
         21   -1    0    0  503  502  0.00000000000E+00  0.00000000000E+00  0.56199757429E+02  0.56199757429E+02  0.00000000000E+00 0. -1.
         21   -1    0    0  501  503 -0.00000000000E+00 -0.00000000000E+00 -0.92045883380E+01  0.92045883380E+01  0.00000000000E+00 0. -1.
          5    1    1    2  501    0  0.94211320795E+01  0.19503466444E+02  0.33474987706E+02  0.39871264526E+02  0.00000000000E+00 0.  1.
         -5    1    1    2    0  502 -0.94211320795E+01 -0.19503466444E+02  0.13520181385E+02  0.25533081241E+02  0.00000000000E+00 0. -1.
<mgrwt>
<rscale>  2 0.21659708E+02</rscale>
<asrwt>0</asrwt>
<pdfrwt beam="1">  1       21 0.86461163E-02 0.21659708E+02</pdfrwt>
<pdfrwt beam="2">  1       21 0.14160905E-02 0.21659708E+02</pdfrwt>
<totfact> 0.14732099E+08</totfact>
</mgrwt>
</event>
<event>
 4    1  0.7521660E+004  0.2371182E+02  0.7546771E-02  0.1680225E+00
         21   -1    0    0  501  502  0.00000000000E+00  0.00000000000E+00  0.63088793739E+02  0.63088793739E+02  0.00000000000E+00 0.  1.
         21   -1    0    0  502  503 -0.00000000000E+00 -0.00000000000E+00 -0.89403912817E+01  0.89403912817E+01  0.00000000000E+00 0.  1.
          1    1    1    2  501    0  0.21159412885E+02  0.10701854709E+02  0.29101951204E+02  0.37538966578E+02  0.00000000000E+00 0.  1.
         -1    1    1    2    0  503 -0.21159412885E+02 -0.10701854709E+02  0.25046451253E+02  0.34490218443E+02  0.00000000000E+00 0. -1.
<mgrwt>
<rscale>  2 0.23711821E+02</rscale>
<asrwt>0</asrwt>
<pdfrwt beam="1">  1       21 0.97059680E-02 0.23711821E+02</pdfrwt>
<pdfrwt beam="2">  1       21 0.13754449E-02 0.23711821E+02</pdfrwt>
<totfact> 0.13080188E+08</totfact>
</mgrwt>
</event>
<event>
 4    1  0.7521660E+004  0.2317435E+02  0.7546771E-02  0.1688699E+00
         21   -1    0    0  501  502  0.00000000000E+00  0.00000000000E+00  0.24460655587E+02  0.24460655587E+02  0.00000000000E+00 0.  1.
         21   -1    0    0  502  503 -0.00000000000E+00 -0.00000000000E+00 -0.31021012164E+02  0.31021012164E+02  0.00000000000E+00 0.  1.
          3    1    1    2  501    0  0.22294328079E+02  0.63256124937E+01  0.11716092762E+02  0.25967619597E+02  0.00000000000E+00 0.  1.
         -3    1    1    2    0  503 -0.22294328079E+02 -0.63256124937E+01 -0.18276449340E+02  0.29514048153E+02  0.00000000000E+00 0. -1.
<mgrwt>
<rscale>  2 0.23174349E+02</rscale>
<asrwt>0</asrwt>
<pdfrwt beam="1">  1       21 0.37631778E-02 0.23174349E+02</pdfrwt>
<pdfrwt beam="2">  1       21 0.47724634E-02 0.23174349E+02</pdfrwt>
<totfact> 0.86768264E+07</totfact>
</mgrwt>
</event>
<event>
 4    1  0.7521660E+004  0.2185367E+02  0.7546771E-02  0.1710795E+00
         21   -1    0    0  501  502  0.00000000000E+00  0.00000000000E+00  0.67243009979E+01  0.67243009979E+01  0.00000000000E+00 0. -1.
         21   -1    0    0  502  503 -0.00000000000E+00 -0.00000000000E+00 -0.75181078079E+02  0.75181078079E+02  0.00000000000E+00 0. -1.
          2    1    1    2  501    0  0.21821420488E+02  0.11867686442E+01 -0.43858977925E+02  0.49001966864E+02  0.00000000000E+00 0.  1.
         -2    1    1    2    0  503 -0.21821420488E+02 -0.11867686442E+01 -0.24597799156E+02  0.32903412213E+02  0.00000000000E+00 0. -1.
<mgrwt>
<rscale>  2 0.21853668E+02</rscale>
<asrwt>0</asrwt>
<pdfrwt beam="1">  1       21 0.10345078E-02 0.21853668E+02</pdfrwt>
<pdfrwt beam="2">  1       21 0.11566320E-01 0.21853668E+02</pdfrwt>
<totfact> 0.14668122E+08</totfact>
</mgrwt>
</event>
<event>
 4    1  0.7521660E+004  0.2486861E+02  0.7546771E-02  0.1662896E+00
         21   -1    0    0  503  502  0.00000000000E+00  0.00000000000E+00  0.24052180904E+00  0.24052180904E+00  0.00000000000E+00 0.  1.
         21   -1    0    0  501  503 -0.00000000000E+00 -0.00000000000E+00 -0.26285193990E+04  0.26285193990E+04  0.00000000000E+00 0.  1.
          4    1    1    2  501    0  0.20831545689E+02 -0.13582871549E+02 -0.15081083548E+04  0.15083133817E+04  0.00000000000E+00 0. -1.
         -4    1    1    2    0  502 -0.20831545689E+02  0.13582871549E+02 -0.11201705224E+04  0.11204465391E+04  0.00000000000E+00 0.  1.
<mgrwt>
<rscale>  2 0.24868609E+02</rscale>
<asrwt>0</asrwt>
<pdfrwt beam="1">  1       21 0.37000229E-04 0.24868609E+02</pdfrwt>
<pdfrwt beam="2">  1       21 0.40442177E+00 0.24868609E+02</pdfrwt>
<totfact> 0.58210511E+06</totfact>
</mgrwt>
</event>
<event>
 4    1  0.7521660E+004  0.2172824E+02  0.7546771E-02  0.1712995E+00
         21   -1    0    0  503  502  0.00000000000E+00  0.00000000000E+00  0.99093086326E+02  0.99093086326E+02  0.00000000000E+00 0. -1.
         21   -1    0    0  501  503 -0.00000000000E+00 -0.00000000000E+00 -0.50111144481E+01  0.50111144481E+01  0.00000000000E+00 0. -1.
          5    1    1    2  501    0  0.21479679899E+02 -0.32771302479E+01  0.58591302125E+02  0.62490454599E+02  0.00000000000E+00 0.  1.
         -5    1    1    2    0  502 -0.21479679899E+02  0.32771302479E+01  0.35490669753E+02  0.41613746176E+02  0.00000000000E+00 0. -1.
<mgrwt>
<rscale>  2 0.21728236E+02</rscale>
<asrwt>0</asrwt>
<pdfrwt beam="1">  1       21 0.15245089E-01 0.21728236E+02</pdfrwt>
<pdfrwt beam="2">  1       21 0.77094076E-03 0.21728236E+02</pdfrwt>
<totfact> 0.14276205E+08</totfact>
</mgrwt>
</event>
<event>
 4    1  0.7521660E+004  0.3071990E+02  0.7546771E-02  0.1590265E+00
         21   -1    0    0  503  502  0.00000000000E+00  0.00000000000E+00  0.58694399995E+02  0.58694399995E+02  0.00000000000E+00 0. -1.
         21   -1    0    0  501  503 -0.00000000000E+00 -0.00000000000E+00 -0.16083913365E+02  0.16083913365E+02  0.00000000000E+00 0. -1.
          2    1    1    2  501    0  0.90286298304E+01 -0.29363175686E+02  0.20613217161E+02  0.36994823485E+02  0.00000000000E+00 0.  1.
         -2    1    1    2    0  502 -0.90286298304E+01  0.29363175686E+02  0.21997269469E+02  0.37783489874E+02  0.00000000000E+00 0. -1.
<mgrwt>
<rscale>  2 0.30719900E+02</rscale>
<asrwt>0</asrwt>
<pdfrwt beam="1">  1       21 0.90299076E-02 0.30719900E+02</pdfrwt>
<pdfrwt beam="2">  1       21 0.24744482E-02 0.30719900E+02</pdfrwt>
<totfact> 0.63803149E+07</totfact>
</mgrwt>
</event>
<event>
 4    1  0.7521660E+004  0.1760737E+03  0.7546771E-02  0.1171658E+00
         21   -1    0    0  503  502  0.00000000000E+00  0.00000000000E+00  0.23073964742E+03  0.23073964742E+03  0.00000000000E+00 0.  1.
         21   -1    0    0  501  503 -0.00000000000E+00 -0.00000000000E+00 -0.13594091563E+03  0.13594091563E+03  0.00000000000E+00 0.  1.
          1    1    1    2  501    0  0.10612205114E+03 -0.14049927226E+03  0.67177358836E+02  0.18845352951E+03  0.00000000000E+00 0. -1.
         -1    1    1    2    0  502 -0.10612205114E+03  0.14049927226E+03  0.27621372953E+02  0.17822703355E+03  0.00000000000E+00 0.  1.
<mgrwt>
<rscale>  2 0.17607366E+03</rscale>
<asrwt>0</asrwt>
<pdfrwt beam="1">  1       21 0.35498407E-01 0.17607366E+03</pdfrwt>
<pdfrwt beam="2">  1       21 0.20913987E-01 0.17607366E+03</pdfrwt>
<totfact> 0.16328893E+05</totfact>
</mgrwt>
</event>
<event>
 4    1  0.7521660E+004  0.3079325E+02  0.7546771E-02  0.1589482E+00
         21   -1    0    0  501  502  0.00000000000E+00  0.00000000000E+00  0.58839350029E+03  0.58839350029E+03  0.00000000000E+00 0. -1.
         21   -1    0    0  502  503 -0.00000000000E+00 -0.00000000000E+00 -0.16901260927E+01  0.16901260927E+01  0.00000000000E+00 0. -1.
          5    1    1    2  501    0  0.26045744413E+02 -0.16426912991E+02  0.35696898347E+03  0.35829468240E+03  0.00000000000E+00 0.  1.
         -5    1    1    2    0  503 -0.26045744413E+02  0.16426912991E+02  0.22973439072E+03  0.23178894399E+03  0.00000000000E+00 0. -1.
<mgrwt>
<rscale>  2 0.30793250E+02</rscale>
<asrwt>0</asrwt>
<pdfrwt beam="1">  1       21 0.90521914E-01 0.30793250E+02</pdfrwt>
<pdfrwt beam="2">  1       21 0.26001987E-03 0.30793250E+02</pdfrwt>
<totfact> 0.26326310E+07</totfact>
</mgrwt>
</event>
<event>
 4    1  0.7521660E+004  0.2549818E+02  0.7546771E-02  0.1653948E+00
         21   -1    0    0  501  502  0.00000000000E+00  0.00000000000E+00  0.11671778881E+01  0.11671778881E+01  0.00000000000E+00 0. -1.
         21   -1    0    0  502  503 -0.00000000000E+00 -0.00000000000E+00 -0.11339398516E+04  0.11339398516E+04  0.00000000000E+00 0. -1.
          2    1    1    2  501    0 -0.14802479473E+02 -0.20761588510E+02 -0.97120874313E+03  0.97154340082E+03  0.00000000000E+00 0.  1.
         -2    1    1    2    0  503  0.14802479473E+02  0.20761588510E+02 -0.16156393056E+03  0.16356362864E+03  0.00000000000E+00 0. -1.
<mgrwt>
<rscale>  2 0.25498176E+02</rscale>
<asrwt>0</asrwt>
<pdfrwt beam="1">  1       21 0.17956517E-03 0.25498176E+02</pdfrwt>
<pdfrwt beam="2">  1       21 0.17445293E+00 0.25498176E+02</pdfrwt>
<totfact> 0.96112219E+06</totfact>
</mgrwt>
</event>
<event>
 4    1  0.7521660E+004  0.2305948E+02  0.7546771E-02  0.1690548E+00
         21   -1    0    0  501  502  0.00000000000E+00  0.00000000000E+00  0.11839559266E+03  0.11839559266E+03  0.00000000000E+00 0.  1.
         21   -1    0    0  502  503 -0.00000000000E+00 -0.00000000000E+00 -0.56303688227E+01  0.56303688227E+01  0.00000000000E+00 0.  1.
          2    1    1    2  501    0  0.11983244893E+02 -0.19701307793E+02  0.84276302158E+02  0.87374108249E+02  0.00000000000E+00 0.  1.
         -2    1    1    2    0  503 -0.11983244893E+02  0.19701307793E+02  0.28488921676E+02  0.36651853230E+02  0.00000000000E+00 0. -1.
<mgrwt>
<rscale>  2 0.23059481E+02</rscale>
<asrwt>0</asrwt>
<pdfrwt beam="1">  1       21 0.18214705E-01 0.23059481E+02</pdfrwt>
<pdfrwt beam="2">  1       21 0.86621068E-03 0.23059481E+02</pdfrwt>
<totfact> 0.89930930E+07</totfact>
</mgrwt>
</event>
<event>
 4    1  0.7521660E+004  0.2012642E+02  0.7546771E-02  0.1742826E+00
         21   -1    0    0  503  502  0.00000000000E+00  0.00000000000E+00  0.82503632527E+01  0.82503632527E+01  0.00000000000E+00 0.  1.
         21   -1    0    0  501  503 -0.00000000000E+00 -0.00000000000E+00 -0.97770818202E+02  0.97770818202E+02  0.00000000000E+00 0.  1.
          4    1    1    2  501    0 -0.37008938568E+01  0.19783228734E+02 -0.82162948817E+02  0.84592097224E+02  0.00000000000E+00 0.  1.
         -4    1    1    2    0  502  0.37008938568E+01 -0.19783228734E+02 -0.73575061317E+01  0.21429084230E+02  0.00000000000E+00 0. -1.
<mgrwt>
<rscale>  2 0.20126419E+02</rscale>
<asrwt>0</asrwt>
<pdfrwt beam="1">  1       21 0.12692866E-02 0.20126419E+02</pdfrwt>
<pdfrwt beam="2">  1       21 0.15041665E-01 0.20126419E+02</pdfrwt>
<totfact> 0.67753423E+07</totfact>
</mgrwt>
</event>
<event>
 4    1  0.7521660E+004  0.3431050E+02  0.7546771E-02  0.1554810E+00
         21   -1    0    0  501  502  0.00000000000E+00  0.00000000000E+00  0.12468772985E+01  0.12468772985E+01  0.00000000000E+00 0.  1.
         21   -1    0    0  502  503 -0.00000000000E+00 -0.00000000000E+00 -0.13429522293E+04  0.13429522293E+04  0.00000000000E+00 0.  1.
          3    1    1    2  501    0 -0.13899631791E+02  0.31368942659E+02 -0.10371170873E+04  0.10376844718E+04  0.00000000000E+00 0. -1.
         -3    1    1    2    0  503  0.13899631791E+02 -0.31368942659E+02 -0.30458826471E+03  0.30651463477E+03  0.00000000000E+00 0.  1.
<mgrwt>
<rscale>  2 0.34310499E+02</rscale>
<asrwt>0</asrwt>
<pdfrwt beam="1">  1       21 0.19182867E-03 0.34310499E+02</pdfrwt>
<pdfrwt beam="2">  1       21 0.20660654E+00 0.34310499E+02</pdfrwt>
<totfact> 0.57927034E+06</totfact>
</mgrwt>
</event>
<event>
 4    1  0.7521660E+004  0.3059029E+02  0.7546771E-02  0.1591654E+00
         21   -1    0    0  503  502  0.00000000000E+00  0.00000000000E+00  0.62455181730E+02  0.62455181730E+02  0.00000000000E+00 0. -1.
         21   -1    0    0  501  503 -0.00000000000E+00 -0.00000000000E+00 -0.15116673908E+02  0.15116673908E+02  0.00000000000E+00 0. -1.
          2    1    1    2  501    0 -0.20054883065E+02 -0.23099086123E+02  0.20021999216E+02  0.36560177339E+02  0.00000000000E+00 0. -1.
         -2    1    1    2    0  502  0.20054883065E+02  0.23099086123E+02  0.27316508606E+02  0.41011678299E+02  0.00000000000E+00 0.  1.
<mgrwt>
<rscale>  2 0.30590294E+02</rscale>
<asrwt>0</asrwt>
<pdfrwt beam="1">  1       21 0.96084893E-02 0.30590294E+02</pdfrwt>
<pdfrwt beam="2">  1       21 0.23256422E-02 0.30590294E+02</pdfrwt>
<totfact> 0.63318816E+07</totfact>
</mgrwt>
</event>
<event>
 4    1  0.7521660E+004  0.2606274E+02  0.7546771E-02  0.1646190E+00
         21   -1    0    0  501  502  0.00000000000E+00  0.00000000000E+00  0.11706989251E+02  0.11706989251E+02  0.00000000000E+00 0.  1.
         21   -1    0    0  502  503 -0.00000000000E+00 -0.00000000000E+00 -0.60787347444E+02  0.60787347444E+02  0.00000000000E+00 0.  1.
          2    1    1    2  501    0  0.24569181585E+02 -0.86960854260E+01 -0.32270861335E+02  0.41481020682E+02  0.00000000000E+00 0.  1.
         -2    1    1    2    0  503 -0.24569181585E+02  0.86960854260E+01 -0.16809496858E+02  0.31013316013E+02  0.00000000000E+00 0. -1.
<mgrwt>
<rscale>  2 0.26062743E+02</rscale>
<asrwt>0</asrwt>
<pdfrwt beam="1">  1       21 0.18010753E-02 0.26062743E+02</pdfrwt>
<pdfrwt beam="2">  1       21 0.93518994E-02 0.26062743E+02</pdfrwt>
<totfact> 0.94571925E+07</totfact>
</mgrwt>
</event>
<event>
 4    1  0.7521660E+004  0.2270861E+02  0.7546771E-02  0.1696277E+00
         21   -1    0    0  501  502  0.00000000000E+00  0.00000000000E+00  0.12115558142E+02  0.12115558142E+02  0.00000000000E+00 0. -1.
         21   -1    0    0  502  503 -0.00000000000E+00 -0.00000000000E+00 -0.42569772366E+02  0.42569772366E+02  0.00000000000E+00 0. -1.
          4    1    1    2  501    0 -0.22888156146E+00  0.22707454056E+02 -0.14895858466E+02  0.27158193164E+02  0.00000000000E+00 0.  1.
         -4    1    1    2    0  503  0.22888156146E+00 -0.22707454056E+02 -0.15558355758E+02  0.27527137344E+02  0.00000000000E+00 0. -1.
<mgrwt>
<rscale>  2 0.22708608E+02</rscale>
<asrwt>0</asrwt>
<pdfrwt beam="1">  1       21 0.18639320E-02 0.22708608E+02</pdfrwt>
<pdfrwt beam="2">  1       21 0.65491957E-02 0.22708608E+02</pdfrwt>
<totfact> 0.15444193E+08</totfact>
</mgrwt>
</event>
<event>
 4    1  0.7521660E+004  0.2257100E+02  0.7546771E-02  0.1698560E+00
         21   -1    0    0  503  502  0.00000000000E+00  0.00000000000E+00  0.17195904571E+03  0.17195904571E+03  0.00000000000E+00 0. -1.
         21   -1    0    0  501  503 -0.00000000000E+00 -0.00000000000E+00 -0.30551950448E+01  0.30551950448E+01  0.00000000000E+00 0. -1.
          5    1    1    2  501    0 -0.16129821988E+01  0.22513287646E+02  0.69219686614E+02  0.72806695070E+02  0.00000000000E+00 0. -1.
         -5    1    1    2    0  502  0.16129821988E+01 -0.22513287646E+02  0.99684164052E+02  0.10220754568E+03  0.00000000000E+00 0.  1.
<mgrwt>
<rscale>  2 0.22570995E+02</rscale>
<asrwt>0</asrwt>
<pdfrwt beam="1">  1       21 0.26455230E-01 0.22570995E+02</pdfrwt>
<pdfrwt beam="2">  1       21 0.47003014E-03 0.22570995E+02</pdfrwt>
<totfact> 0.11480614E+08</totfact>
</mgrwt>
</event>
<event>
 4    1  0.7521660E+004  0.2639179E+02  0.7546771E-02  0.1641780E+00
         21   -1    0    0  503  502  0.00000000000E+00  0.00000000000E+00  0.82553674535E+01  0.82553674535E+01  0.00000000000E+00 0. -1.
         21   -1    0    0  501  503 -0.00000000000E+00 -0.00000000000E+00 -0.97770224785E+02  0.97770224785E+02  0.00000000000E+00 0. -1.
          1    1    1    2  501    0  0.18731770787E+02  0.18591598533E+02 -0.64381603061E+02  0.69581014548E+02  0.00000000000E+00 0.  1.
         -1    1    1    2    0  502 -0.18731770787E+02 -0.18591598533E+02 -0.25133254271E+02  0.36444577691E+02  0.00000000000E+00 0. -1.
<mgrwt>
<rscale>  2 0.26391794E+02</rscale>
<asrwt>0</asrwt>
<pdfrwt beam="1">  1       21 0.12700565E-02 0.26391794E+02</pdfrwt>
<pdfrwt beam="2">  1       21 0.15041573E-01 0.26391794E+02</pdfrwt>
<totfact> 0.72705752E+07</totfact>
</mgrwt>
</event>
<event>
 4    1  0.7521660E+004  0.3499644E+02  0.7546771E-02  0.1548632E+00
         21   -1    0    0  503  502  0.00000000000E+00  0.00000000000E+00  0.91332261059E+01  0.91332261059E+01  0.00000000000E+00 0. -1.
         21   -1    0    0  501  503 -0.00000000000E+00 -0.00000000000E+00 -0.15578852915E+03  0.15578852915E+03  0.00000000000E+00 0. -1.
          5    1    1    2  501    0 -0.21062275670E+02 -0.27948731536E+02 -0.10409649948E+03  0.10982182049E+03  0.00000000000E+00 0. -1.
         -5    1    1    2    0  502  0.21062275670E+02  0.27948731536E+02 -0.42558803563E+02  0.55099934769E+02  0.00000000000E+00 0.  1.
<mgrwt>
<rscale>  2 0.34996443E+02</rscale>
<asrwt>0</asrwt>
<pdfrwt beam="1">  1       21 0.14051118E-02 0.34996443E+02</pdfrwt>
<pdfrwt beam="2">  1       21 0.23967465E-01 0.34996443E+02</pdfrwt>
<totfact> 0.29173666E+07</totfact>
</mgrwt>
</event>
<event>
 4    1  0.7521660E+004  0.2263524E+02  0.7546771E-02  0.1697492E+00
         21   -1    0    0  501  502  0.00000000000E+00  0.00000000000E+00  0.10402154768E+01  0.10402154768E+01  0.00000000000E+00 0.  1.
         21   -1    0    0  502  503 -0.00000000000E+00 -0.00000000000E+00 -0.90073125668E+03  0.90073125668E+03  0.00000000000E+00 0.  1.
          2    1    1    2  501    0  0.18757798645E+02 -0.12668824341E+02 -0.75337261264E+03  0.75371257625E+03  0.00000000000E+00 0.  1.
         -2    1    1    2    0  503 -0.18757798645E+02  0.12668824341E+02 -0.14631842856E+03  0.14805889590E+03  0.00000000000E+00 0. -1.
<mgrwt>
<rscale>  2 0.22635241E+02</rscale>
<asrwt>0</asrwt>
<pdfrwt beam="1">  1       21 0.16003349E-03 0.22635241E+02</pdfrwt>
<pdfrwt beam="2">  1       21 0.13857375E+00 0.22635241E+02</pdfrwt>
<totfact> 0.19374230E+07</totfact>
</mgrwt>
</event>
<event>
 4    1  0.7521660E+004  0.2189091E+02  0.7546771E-02  0.1710146E+00
         21   -1    0    0  501  502  0.00000000000E+00  0.00000000000E+00  0.46740117523E+01  0.46740117523E+01  0.00000000000E+00 0. -1.
         21   -1    0    0  502  503 -0.00000000000E+00 -0.00000000000E+00 -0.13465084492E+03  0.13465084492E+03  0.00000000000E+00 0. -1.
          4    1    1    2  501    0 -0.13926996562E+02 -0.16889361241E+02 -0.30962583813E+02  0.37919564248E+02  0.00000000000E+00 0.  1.
         -4    1    1    2    0  503  0.13926996562E+02  0.16889361241E+02 -0.99014249351E+02  0.10140529242E+03  0.00000000000E+00 0. -1.
<mgrwt>
<rscale>  2 0.21890906E+02</rscale>
<asrwt>0</asrwt>
<pdfrwt beam="1">  1       21 0.71907873E-03 0.21890906E+02</pdfrwt>
<pdfrwt beam="2">  1       21 0.20715515E-01 0.21890906E+02</pdfrwt>
<totfact> 0.93561127E+07</totfact>
</mgrwt>
</event>
<event>
 4    1  0.7521660E+004  0.2704282E+02  0.7546771E-02  0.1633283E+00
         21   -1    0    0  503  502  0.00000000000E+00  0.00000000000E+00  0.65132580670E+01  0.65132580670E+01  0.00000000000E+00 0. -1.
         21   -1    0    0  501  503 -0.00000000000E+00 -0.00000000000E+00 -0.17482171745E+03  0.17482171745E+03  0.00000000000E+00 0. -1.
          2    1    1    2  501    0 -0.23925431779E+02  0.12605079191E+02 -0.29924709900E+02  0.40333640672E+02  0.00000000000E+00 0. -1.
         -2    1    1    2    0  502  0.23925431779E+02 -0.12605079191E+02 -0.13838374948E+03  0.14100133485E+03  0.00000000000E+00 0.  1.
<mgrwt>
<rscale>  2 0.27042824E+02</rscale>
<asrwt>0</asrwt>
<pdfrwt beam="1">  1       21 0.10020398E-02 0.27042824E+02</pdfrwt>
<pdfrwt beam="2">  1       21 0.26895646E-01 0.27042824E+02</pdfrwt>
<totfact> 0.37692963E+07</totfact>
</mgrwt>
</event>
<event>
 4    1  0.7521660E+004  0.2057714E+02  0.7546771E-02  0.1734089E+00
         21   -1    0    0  501  502  0.00000000000E+00  0.00000000000E+00  0.37257962975E+02  0.37257962975E+02  0.00000000000E+00 0. -1.
         21   -1    0    0  502  503 -0.00000000000E+00 -0.00000000000E+00 -0.11622446752E+02  0.11622446752E+02  0.00000000000E+00 0. -1.
          3    1    1    2  501    0 -0.13401903426E+02 -0.15614335594E+02  0.16458691241E+02  0.26349706048E+02  0.00000000000E+00 0. -1.
         -3    1    1    2    0  503  0.13401903426E+02  0.15614335594E+02  0.91768249823E+01  0.22530703678E+02  0.00000000000E+00 0.  1.
<mgrwt>
<rscale>  2 0.20577135E+02</rscale>
<asrwt>0</asrwt>
<pdfrwt beam="1">  1       21 0.57319943E-02 0.20577135E+02</pdfrwt>
<pdfrwt beam="2">  1       21 0.17880687E-02 0.20577135E+02</pdfrwt>
<totfact> 0.19758326E+08</totfact>
</mgrwt>
</event>
<event>
 4    1  0.7521660E+004  0.2252120E+02  0.7546771E-02  0.1699391E+00
         21   -1    0    0  501  502  0.00000000000E+00  0.00000000000E+00  0.57842723257E+03  0.57842723257E+03  0.00000000000E+00 0.  1.
         21   -1    0    0  502  503 -0.00000000000E+00 -0.00000000000E+00 -0.89873145734E+00  0.89873145734E+00  0.00000000000E+00 0.  1.
          5    1    1    2  501    0  0.22109393055E+02 -0.42870997908E+01  0.33394305965E+03  0.33470161573E+03  0.00000000000E+00 0.  1.
         -5    1    1    2    0  503 -0.22109393055E+02  0.42870997908E+01  0.24358544147E+03  0.24462434830E+03  0.00000000000E+00 0. -1.
<mgrwt>
<rscale>  2 0.22521201E+02</rscale>
<asrwt>0</asrwt>
<pdfrwt beam="1">  1       21 0.88988507E-01 0.22521201E+02</pdfrwt>
<pdfrwt beam="2">  1       21 0.13826684E-03 0.22521201E+02</pdfrwt>
<totfact> 0.64082086E+07</totfact>
</mgrwt>
</event>
<event>
 4    1  0.7521660E+004  0.2153534E+02  0.7546771E-02  0.1716414E+00
         21   -1    0    0  503  502  0.00000000000E+00  0.00000000000E+00  0.41061131786E+01  0.41061131786E+01  0.00000000000E+00 0. -1.
         21   -1    0    0  501  503 -0.00000000000E+00 -0.00000000000E+00 -0.11653262276E+03  0.11653262276E+03  0.00000000000E+00 0. -1.
          1    1    1    2  501    0  0.17186500975E+01  0.21466653133E+02 -0.66794771369E+02  0.70180570225E+02  0.00000000000E+00 0. -1.
         -1    1    1    2    0  502 -0.17186500975E+01 -0.21466653133E+02 -0.45631738211E+02  0.50458165712E+02  0.00000000000E+00 0.  1.
<mgrwt>
<rscale>  2 0.21535342E+02</rscale>
<asrwt>0</asrwt>
<pdfrwt beam="1">  1       21 0.63170964E-03 0.21535342E+02</pdfrwt>
<pdfrwt beam="2">  1       21 0.17928098E-01 0.21535342E+02</pdfrwt>
<totfact> 0.14499915E+08</totfact>
</mgrwt>
</event>
<event>
 4    1  0.7521660E+004  0.3420986E+02  0.7546771E-02  0.1555731E+00
         21   -1    0    0  503  502  0.00000000000E+00  0.00000000000E+00  0.35195744591E+02  0.35195744591E+02  0.00000000000E+00 0. -1.
         21   -1    0    0  501  503 -0.00000000000E+00 -0.00000000000E+00 -0.35345513812E+02  0.35345513812E+02  0.00000000000E+00 0. -1.
          4    1    1    2  501    0 -0.28946505087E+02 -0.18232235746E+02  0.85098362210E+01  0.35252402606E+02  0.00000000000E+00 0.  1.
         -4    1    1    2    0  502  0.28946505087E+02  0.18232235746E+02 -0.86596054422E+01  0.35288855797E+02  0.00000000000E+00 0. -1.
<mgrwt>
<rscale>  2 0.34209861E+02</rscale>
<asrwt>0</asrwt>
<pdfrwt beam="1">  1       21 0.54147299E-02 0.34209861E+02</pdfrwt>
<pdfrwt beam="2">  1       21 0.54377713E-02 0.34209861E+02</pdfrwt>
<totfact> 0.43202893E+07</totfact>
</mgrwt>
</event>
<event>
 4    1  0.7521660E+004  0.2266369E+02  0.7546771E-02  0.1697020E+00
         21   -1    0    0  503  502  0.00000000000E+00  0.00000000000E+00  0.30188492183E+03  0.30188492183E+03  0.00000000000E+00 0. -1.
         21   -1    0    0  501  503 -0.00000000000E+00 -0.00000000000E+00 -0.21776945806E+01  0.21776945806E+01  0.00000000000E+00 0. -1.
          2    1    1    2  501    0 -0.19094236097E+02  0.12208727205E+02  0.22095014366E+03  0.22210945243E+03  0.00000000000E+00 0. -1.
         -2    1    1    2    0  502  0.19094236097E+02 -0.12208727205E+02  0.78757083583E+02  0.81953163982E+02  0.00000000000E+00 0.  1.
<mgrwt>
<rscale>  2 0.22663691E+02</rscale>
<asrwt>0</asrwt>
<pdfrwt beam="1">  1       21 0.46443801E-01 0.22663691E+02</pdfrwt>
<pdfrwt beam="2">  1       21 0.33503018E-03 0.22663691E+02</pdfrwt>
<totfact> 0.66527720E+07</totfact>
</mgrwt>
</event>
<event>
 4    1  0.7521660E+004  0.2351592E+02  0.7546771E-02  0.1683281E+00
         21   -1    0    0  501  502  0.00000000000E+00  0.00000000000E+00  0.19948082906E+03  0.19948082906E+03  0.00000000000E+00 0. -1.
         21   -1    0    0  502  503 -0.00000000000E+00 -0.00000000000E+00 -0.32362409811E+01  0.32362409811E+01  0.00000000000E+00 0. -1.
          1    1    1    2  501    0  0.13458733177E+02 -0.19283694633E+02  0.13650394415E+03  0.13851471094E+03  0.00000000000E+00 0. -1.
         -1    1    1    2    0  503 -0.13458733177E+02  0.19283694633E+02  0.59740643922E+02  0.64202359097E+02  0.00000000000E+00 0.  1.
<mgrwt>
<rscale>  2 0.23515918E+02</rscale>
<asrwt>0</asrwt>
<pdfrwt beam="1">  1       21 0.30689349E-01 0.23515918E+02</pdfrwt>
<pdfrwt beam="2">  1       21 0.49788338E-03 0.23515918E+02</pdfrwt>
<totfact> 0.81525584E+07</totfact>
</mgrwt>
</event>
<event>
 4    1  0.7521660E+004  0.2277322E+02  0.7546771E-02  0.1695213E+00
         21   -1    0    0  501  502  0.00000000000E+00  0.00000000000E+00  0.42329221138E+03  0.42329221138E+03  0.00000000000E+00 0.  1.
         21   -1    0    0  502  503 -0.00000000000E+00 -0.00000000000E+00 -0.16827203123E+01  0.16827203123E+01  0.00000000000E+00 0.  1.
          3    1    1    2  501    0  0.15267416631E+01  0.22721987918E+02  0.10000717662E+03  0.10256731961E+03  0.00000000000E+00 0. -1.
         -3    1    1    2    0  503 -0.15267416631E+01 -0.22721987918E+02  0.32160231444E+03  0.32240761208E+03  0.00000000000E+00 0.  1.
<mgrwt>
<rscale>  2 0.22773223E+02</rscale>
<asrwt>0</asrwt>
<pdfrwt beam="1">  1       21 0.65121794E-01 0.22773223E+02</pdfrwt>
<pdfrwt beam="2">  1       21 0.25888038E-03 0.22773223E+02</pdfrwt>
<totfact> 0.49787260E+07</totfact>
</mgrwt>
</event>
<event>
 4    1  0.7521660E+004  0.2259645E+02  0.7546771E-02  0.1698136E+00
         21   -1    0    0  501  502  0.00000000000E+00  0.00000000000E+00  0.62092247584E+01  0.62092247584E+01  0.00000000000E+00 0.  1.
         21   -1    0    0  502  503 -0.00000000000E+00 -0.00000000000E+00 -0.83481209302E+02  0.83481209302E+02  0.00000000000E+00 0.  1.
          3    1    1    2  501    0  0.20350347957E+02  0.98215499920E+01 -0.33151096678E+02  0.40119754700E+02  0.00000000000E+00 0. -1.
         -3    1    1    2    0  503 -0.20350347957E+02 -0.98215499920E+01 -0.44120887866E+02  0.49570679361E+02  0.00000000000E+00 0.  1.
<mgrwt>
<rscale>  2 0.22596449E+02</rscale>
<asrwt>0</asrwt>
<pdfrwt beam="1">  1       21 0.95526541E-03 0.22596449E+02</pdfrwt>
<pdfrwt beam="2">  1       21 0.12843262E-01 0.22596449E+02</pdfrwt>
<totfact> 0.14011682E+08</totfact>
</mgrwt>
</event>
<event>
 4    1  0.7521660E+004  0.2766350E+02  0.7546771E-02  0.1625451E+00
         21   -1    0    0  501  502  0.00000000000E+00  0.00000000000E+00  0.78252234147E+03  0.78252234147E+03  0.00000000000E+00 0.  1.
         21   -1    0    0  502  503 -0.00000000000E+00 -0.00000000000E+00 -0.97835348655E+00  0.97835348655E+00  0.00000000000E+00 0.  1.
          3    1    1    2  501    0 -0.23216724566E+02 -0.15041705500E+02  0.38283500646E+03  0.38383318170E+03  0.00000000000E+00 0. -1.
         -3    1    1    2    0  503  0.23216724566E+02  0.15041705500E+02  0.39870898152E+03  0.39966751325E+03  0.00000000000E+00 0.  1.
<mgrwt>
<rscale>  2 0.27663499E+02</rscale>
<asrwt>0</asrwt>
<pdfrwt beam="1">  1       21 0.12038755E+00 0.27663499E+02</pdfrwt>
<pdfrwt beam="2">  1       21 0.15051655E-03 0.27663499E+02</pdfrwt>
<totfact> 0.30322258E+07</totfact>
</mgrwt>
</event>
<event>
 4    1  0.7521660E+004  0.2085721E+02  0.7546771E-02  0.1728800E+00
         21   -1    0    0  503  502  0.00000000000E+00  0.00000000000E+00  0.15068459378E+02  0.15068459378E+02  0.00000000000E+00 0. -1.
         21   -1    0    0  501  503 -0.00000000000E+00 -0.00000000000E+00 -0.30777524733E+02  0.30777524733E+02  0.00000000000E+00 0. -1.
          2    1    1    2  501    0 -0.83651229884E+01  0.19106224932E+02 -0.13561620311E+02  0.24878518027E+02  0.00000000000E+00 0.  1.
         -2    1    1    2    0  502  0.83651229884E+01 -0.19106224932E+02 -0.21474450444E+01  0.20967466084E+02  0.00000000000E+00 0. -1.
<mgrwt>
<rscale>  2 0.20857208E+02</rscale>
<asrwt>0</asrwt>
<pdfrwt beam="1">  1       21 0.23182245E-02 0.20857208E+02</pdfrwt>
<pdfrwt beam="2">  1       21 0.47350038E-02 0.20857208E+02</pdfrwt>
<totfact> 0.18070780E+08</totfact>
</mgrwt>
</event>
<event>
 4    1  0.7521660E+004  0.2066625E+02  0.7546771E-02  0.1732395E+00
         21   -1    0    0  501  502  0.00000000000E+00  0.00000000000E+00  0.30463621292E+03  0.30463621292E+03  0.00000000000E+00 0.  1.
         21   -1    0    0  502  503 -0.00000000000E+00 -0.00000000000E+00 -0.14104073160E+01  0.14104073160E+01  0.00000000000E+00 0.  1.
          1    1    1    2  501    0  0.26520399906E+00  0.20664545572E+02  0.13978416258E+03  0.14130359473E+03  0.00000000000E+00 0.  1.
         -1    1    1    2    0  503 -0.26520399906E+00 -0.20664545572E+02  0.16344164302E+03  0.16474302550E+03  0.00000000000E+00 0. -1.
<mgrwt>
<rscale>  2 0.20666247E+02</rscale>
<asrwt>0</asrwt>
<pdfrwt beam="1">  1       21 0.46867057E-01 0.20666247E+02</pdfrwt>
<pdfrwt beam="2">  1       21 0.21698598E-03 0.20666247E+02</pdfrwt>
<totfact> 0.11983301E+08</totfact>
</mgrwt>
</event>
<event>
 4    1  0.7521660E+004  0.2643172E+02  0.7546771E-02  0.1641250E+00
         21   -1    0    0  503  502  0.00000000000E+00  0.00000000000E+00  0.11702843398E+03  0.11702843398E+03  0.00000000000E+00 0. -1.
         21   -1    0    0  501  503 -0.00000000000E+00 -0.00000000000E+00 -0.59698795442E+01  0.59698795442E+01  0.00000000000E+00 0. -1.
          1    1    1    2  501    0  0.25885459868E+02  0.53459248081E+01  0.55300011269E+02  0.61292146243E+02  0.00000000000E+00 0.  1.
         -1    1    1    2    0  502 -0.25885459868E+02 -0.53459248081E+01  0.55758543171E+02  0.61706167286E+02  0.00000000000E+00 0. -1.
<mgrwt>
<rscale>  2 0.26431722E+02</rscale>
<asrwt>0</asrwt>
<pdfrwt beam="1">  1       21 0.18004373E-01 0.26431722E+02</pdfrwt>
<pdfrwt beam="2">  1       21 0.91844310E-03 0.26431722E+02</pdfrwt>
<totfact> 0.87083322E+07</totfact>
</mgrwt>
</event>
<event>
 4    1  0.7521660E+004  0.2361208E+02  0.7546771E-02  0.1681776E+00
         21   -1    0    0  503  502  0.00000000000E+00  0.00000000000E+00  0.10959070683E+01  0.10959070683E+01  0.00000000000E+00 0.  1.
         21   -1    0    0  501  503 -0.00000000000E+00 -0.00000000000E+00 -0.54311331923E+03  0.54311331923E+03  0.00000000000E+00 0.  1.
          5    1    1    2  501    0 -0.79129151920E+01 -0.22246704736E+02 -0.33946462467E+03  0.34028482408E+03  0.00000000000E+00 0.  1.
         -5    1    1    2    0  502  0.79129151920E+01  0.22246704736E+02 -0.20255278749E+03  0.20392440222E+03  0.00000000000E+00 0. -1.
<mgrwt>
<rscale>  2 0.23612075E+02</rscale>
<asrwt>0</asrwt>
<pdfrwt beam="1">  1       21 0.16860057E-03 0.23612075E+02</pdfrwt>
<pdfrwt beam="2">  1       21 0.83556152E-01 0.23612075E+02</pdfrwt>
<totfact> 0.55705404E+07</totfact>
</mgrwt>
</event>
<event>
 4    1  0.7521660E+004  0.2021150E+02  0.7546771E-02  0.1741154E+00
         21   -1    0    0  503  502  0.00000000000E+00  0.00000000000E+00  0.25374596973E+01  0.25374596973E+01  0.00000000000E+00 0. -1.
         21   -1    0    0  501  503 -0.00000000000E+00 -0.00000000000E+00 -0.16732833059E+03  0.16732833059E+03  0.00000000000E+00 0. -1.
          1    1    1    2  501    0  0.17041756893E+02  0.10866620362E+02 -0.98926025706E+02  0.10096961661E+03  0.00000000000E+00 0.  1.
         -1    1    1    2    0  502 -0.17041756893E+02 -0.10866620362E+02 -0.65864845186E+02  0.68896173678E+02  0.00000000000E+00 0. -1.
<mgrwt>
<rscale>  2 0.20211505E+02</rscale>
<asrwt>0</asrwt>
<pdfrwt beam="1">  1       21 0.39037824E-03 0.20211505E+02</pdfrwt>
<pdfrwt beam="2">  1       21 0.25742831E-01 0.20211505E+02</pdfrwt>
<totfact> 0.15328836E+08</totfact>
</mgrwt>
</event>
<event>
 4    1  0.7521660E+004  0.2287224E+02  0.7546771E-02  0.1693589E+00
         21   -1    0    0  501  502  0.00000000000E+00  0.00000000000E+00  0.66977536155E+01  0.66977536155E+01  0.00000000000E+00 0. -1.
         21   -1    0    0  502  503 -0.00000000000E+00 -0.00000000000E+00 -0.12089450804E+03  0.12089450804E+03  0.00000000000E+00 0. -1.
          1    1    1    2  501    0 -0.18155453162E+02  0.13911113772E+02 -0.95051802062E+02  0.97764945871E+02  0.00000000000E+00 0.  1.
         -1    1    1    2    0  503  0.18155453162E+02 -0.13911113772E+02 -0.19144952360E+02  0.29827315782E+02  0.00000000000E+00 0. -1.
<mgrwt>
<rscale>  2 0.22872244E+02</rscale>
<asrwt>0</asrwt>
<pdfrwt beam="1">  1       21 0.10304236E-02 0.22872244E+02</pdfrwt>
<pdfrwt beam="2">  1       21 0.18599155E-01 0.22872244E+02</pdfrwt>
<totfact> 0.66711873E+07</totfact>
</mgrwt>
</event>
<event>
 4    1  0.7521660E+004  0.2108638E+02  0.7546771E-02  0.1724549E+00
         21   -1    0    0  503  502  0.00000000000E+00  0.00000000000E+00  0.34842764181E+03  0.34842764181E+03  0.00000000000E+00 0. -1.
         21   -1    0    0  501  503 -0.00000000000E+00 -0.00000000000E+00 -0.14331762877E+01  0.14331762877E+01  0.00000000000E+00 0. -1.
          5    1    1    2  501    0  0.65959219850E+01  0.20028206204E+02  0.23140597967E+03  0.23236471905E+03  0.00000000000E+00 0. -1.
         -5    1    1    2    0  502 -0.65959219850E+01 -0.20028206204E+02  0.11558848585E+03  0.11749609905E+03  0.00000000000E+00 0.  1.
<mgrwt>
<rscale>  2 0.21086375E+02</rscale>
<asrwt>0</asrwt>
<pdfrwt beam="1">  1       21 0.53604185E-01 0.21086375E+02</pdfrwt>
<pdfrwt beam="2">  1       21 0.22048894E-03 0.21086375E+02</pdfrwt>
<totfact> 0.90775993E+07</totfact>
</mgrwt>
</event>
<event>
 4    1  0.7521660E+004  0.4414384E+02  0.7546771E-02  0.1479758E+00
         21   -1    0    0  503  502  0.00000000000E+00  0.00000000000E+00  0.17947933096E+02  0.17947933096E+02  0.00000000000E+00 0.  1.
         21   -1    0    0  501  503 -0.00000000000E+00 -0.00000000000E+00 -0.11960912431E+03  0.11960912431E+03  0.00000000000E+00 0.  1.
          4    1    1    2  501    0  0.43820764176E+02 -0.53309666859E+01 -0.29939573927E+02  0.53339072599E+02  0.00000000000E+00 0. -1.
         -4    1    1    2    0  502 -0.43820764176E+02  0.53309666859E+01 -0.71721617286E+02  0.84217984806E+02  0.00000000000E+00 0.  1.
<mgrwt>
<rscale>  2 0.44143840E+02</rscale>
<asrwt>0</asrwt>
<pdfrwt beam="1">  1       21 0.27612206E-02 0.44143840E+02</pdfrwt>
<pdfrwt beam="2">  1       21 0.18401403E-01 0.44143840E+02</pdfrwt>
<totfact> 0.16918438E+07</totfact>
</mgrwt>
</event>
<event>
 4    1  0.7521660E+004  0.2077539E+02  0.7546771E-02  0.1730334E+00
         21   -1    0    0  501  502  0.00000000000E+00  0.00000000000E+00  0.10293114686E+03  0.10293114686E+03  0.00000000000E+00 0. -1.
         21   -1    0    0  502  503 -0.00000000000E+00 -0.00000000000E+00 -0.42082871169E+01  0.42082871169E+01  0.00000000000E+00 0. -1.
          5    1    1    2  501    0  0.14401235758E+02 -0.14974012299E+02  0.52563008633E+02  0.56519788678E+02  0.00000000000E+00 0.  1.
         -5    1    1    2    0  503 -0.14401235758E+02  0.14974012299E+02  0.46159851114E+02  0.50619645303E+02  0.00000000000E+00 0. -1.
<mgrwt>
<rscale>  2 0.20775385E+02</rscale>
<asrwt>0</asrwt>
<pdfrwt beam="1">  1       21 0.15835559E-01 0.20775385E+02</pdfrwt>
<pdfrwt beam="2">  1       21 0.64742886E-03 0.20775385E+02</pdfrwt>
<totfact> 0.17107019E+08</totfact>
</mgrwt>
</event>
<event>
 4    1  0.7521660E+004  0.3250623E+02  0.7546771E-02  0.1571931E+00
         21   -1    0    0  501  502  0.00000000000E+00  0.00000000000E+00  0.54399135829E+01  0.54399135829E+01  0.00000000000E+00 0.  1.
         21   -1    0    0  502  503 -0.00000000000E+00 -0.00000000000E+00 -0.24356747796E+03  0.24356747796E+03  0.00000000000E+00 0.  1.
          5    1    1    2  501    0  0.13349535359E+02  0.29638572378E+02 -0.17509266842E+03  0.17808452375E+03  0.00000000000E+00 0. -1.
         -5    1    1    2    0  503 -0.13349535359E+02 -0.29638572378E+02 -0.63034895963E+02  0.70922867793E+02  0.00000000000E+00 0.  1.
<mgrwt>
<rscale>  2 0.32506231E+02</rscale>
<asrwt>0</asrwt>
<pdfrwt beam="1">  1       21 0.83691002E-03 0.32506231E+02</pdfrwt>
<pdfrwt beam="2">  1       21 0.37471909E-01 0.32506231E+02</pdfrwt>
<totfact> 0.27771456E+07</totfact>
</mgrwt>
</event>
<event>
 4    1  0.7521660E+004  0.3176779E+02  0.7546771E-02  0.1579332E+00
         21   -1    0    0  501  502  0.00000000000E+00  0.00000000000E+00  0.53103300941E+02  0.53103300941E+02  0.00000000000E+00 0. -1.
         21   -1    0    0  502  503 -0.00000000000E+00 -0.00000000000E+00 -0.19008658006E+02  0.19008658006E+02  0.00000000000E+00 0. -1.
          4    1    1    2  501    0  0.31419618065E+02  0.46904186037E+01  0.17591650975E+02  0.36313339285E+02  0.00000000000E+00 0.  1.
         -4    1    1    2    0  503 -0.31419618065E+02 -0.46904186037E+01  0.16502991960E+02  0.35798619661E+02  0.00000000000E+00 0. -1.
<mgrwt>
<rscale>  2 0.31767789E+02</rscale>
<asrwt>0</asrwt>
<pdfrwt beam="1">  1       21 0.81697386E-02 0.31767789E+02</pdfrwt>
<pdfrwt beam="2">  1       21 0.29244089E-02 0.31767789E+02</pdfrwt>
<totfact> 0.58396074E+07</totfact>
</mgrwt>
</event>
<event>
 4    1  0.7521660E+004  0.2078397E+02  0.7546771E-02  0.1730173E+00
         21   -1    0    0  501  502  0.00000000000E+00  0.00000000000E+00  0.18020834915E+02  0.18020834915E+02  0.00000000000E+00 0. -1.
         21   -1    0    0  502  503 -0.00000000000E+00 -0.00000000000E+00 -0.24059966249E+02  0.24059966249E+02  0.00000000000E+00 0. -1.
          1    1    1    2  501    0  0.20404121780E+02  0.39553814718E+01 -0.17384510002E+01  0.20856544298E+02  0.00000000000E+00 0. -1.
         -1    1    1    2    0  503 -0.20404121780E+02 -0.39553814718E+01 -0.43006803339E+01  0.21224256866E+02  0.00000000000E+00 0.  1.
<mgrwt>
<rscale>  2 0.20783966E+02</rscale>
<asrwt>0</asrwt>
<pdfrwt beam="1">  1       21 0.27724361E-02 0.20783966E+02</pdfrwt>
<pdfrwt beam="2">  1       21 0.37015333E-02 0.20783966E+02</pdfrwt>
<totfact> 0.20179313E+08</totfact>
</mgrwt>
</event>
<event>
 4    1  0.7521660E+004  0.2179178E+02  0.7546771E-02  0.1711878E+00
         21   -1    0    0  503  502  0.00000000000E+00  0.00000000000E+00  0.62146759678E+02  0.62146759678E+02  0.00000000000E+00 0. -1.
         21   -1    0    0  501  503 -0.00000000000E+00 -0.00000000000E+00 -0.80383406530E+01  0.80383406530E+01  0.00000000000E+00 0. -1.
          3    1    1    2  501    0 -0.21022903666E+02  0.57375264575E+01  0.19254969922E+02  0.29079813532E+02  0.00000000000E+00 0.  1.
         -3    1    1    2    0  502  0.21022903666E+02 -0.57375264575E+01  0.34853449103E+02  0.41105286799E+02  0.00000000000E+00 0. -1.
<mgrwt>
<rscale>  2 0.21791780E+02</rscale>
<asrwt>0</asrwt>
<pdfrwt beam="1">  1       21 0.95610396E-02 0.21791780E+02</pdfrwt>
<pdfrwt beam="2">  1       21 0.12366678E-02 0.21791780E+02</pdfrwt>
<totfact> 0.15357322E+08</totfact>
</mgrwt>
</event>
<event>
 4    1  0.7521660E+004  0.5140001E+02  0.7546771E-02  0.1437933E+00
         21   -1    0    0  501  502  0.00000000000E+00  0.00000000000E+00  0.34627675635E+02  0.34627675635E+02  0.00000000000E+00 0. -1.
         21   -1    0    0  502  503 -0.00000000000E+00 -0.00000000000E+00 -0.19383804056E+03  0.19383804056E+03  0.00000000000E+00 0. -1.
          5    1    1    2  501    0 -0.16926076888E+02 -0.48533172937E+02  0.93492787433E+01  0.52243372471E+02  0.00000000000E+00 0. -1.
         -5    1    1    2    0  503  0.16926076888E+02  0.48533172937E+02 -0.16855964367E+03  0.17622234372E+03  0.00000000000E+00 0.  1.
<mgrwt>
<rscale>  2 0.51400009E+02</rscale>
<asrwt>0</asrwt>
<pdfrwt beam="1">  1       21 0.53273348E-02 0.51400009E+02</pdfrwt>
<pdfrwt beam="2">  1       21 0.29821237E-01 0.51400009E+02</pdfrwt>
<totfact> 0.24692464E+06</totfact>
</mgrwt>
</event>
<event>
 4    1  0.7521660E+004  0.3282647E+02  0.7546771E-02  0.1568795E+00
         21   -1    0    0  503  502  0.00000000000E+00  0.00000000000E+00  0.11842493183E+03  0.11842493183E+03  0.00000000000E+00 0.  1.
         21   -1    0    0  501  503 -0.00000000000E+00 -0.00000000000E+00 -0.11915055921E+02  0.11915055921E+02  0.00000000000E+00 0.  1.
          1    1    1    2  501    0  0.28747213888E+02 -0.15848491602E+02  0.84936143012E+02  0.91058911602E+02  0.00000000000E+00 0.  1.
         -1    1    1    2    0  502 -0.28747213888E+02  0.15848491602E+02  0.21573732902E+02  0.39281076153E+02  0.00000000000E+00 0. -1.
<mgrwt>
<rscale>  2 0.32826468E+02</rscale>
<asrwt>0</asrwt>
<pdfrwt beam="1">  1       21 0.18219219E-01 0.32826468E+02</pdfrwt>
<pdfrwt beam="2">  1       21 0.18330856E-02 0.32826468E+02</pdfrwt>
<totfact> 0.31151056E+07</totfact>
</mgrwt>
</event>
<event>
 4    1  0.7521660E+004  0.2045009E+02  0.7546771E-02  0.1736523E+00
         21   -1    0    0  501  502  0.00000000000E+00  0.00000000000E+00  0.16446013005E+04  0.16446013005E+04  0.00000000000E+00 0. -1.
         21   -1    0    0  502  503 -0.00000000000E+00 -0.00000000000E+00 -0.30080773546E+00  0.30080773546E+00  0.00000000000E+00 0. -1.
          1    1    1    2  501    0 -0.19704311457E+02 -0.54723264330E+01  0.11455749524E+04  0.11457574690E+04  0.00000000000E+00 0.  1.
         -1    1    1    2    0  503  0.19704311457E+02  0.54723264330E+01  0.49872554032E+03  0.49914463918E+03  0.00000000000E+00 0. -1.
<mgrwt>
<rscale>  2 0.20450092E+02</rscale>
<asrwt>0</asrwt>
<pdfrwt beam="1">  1       21 0.25300839E+00 0.20450092E+02</pdfrwt>
<pdfrwt beam="2">  1       21 0.46279430E-04 0.20450092E+02</pdfrwt>
<totfact> 0.24140293E+07</totfact>
</mgrwt>
</event>
<event>
 4    1  0.7521660E+004  0.2345579E+02  0.7546771E-02  0.1684227E+00
         21   -1    0    0  503  502  0.00000000000E+00  0.00000000000E+00  0.11170788245E+02  0.11170788245E+02  0.00000000000E+00 0.  1.
         21   -1    0    0  501  503 -0.00000000000E+00 -0.00000000000E+00 -0.52079750525E+02  0.52079750525E+02  0.00000000000E+00 0.  1.
          5    1    1    2  501    0 -0.23154849332E+02 -0.37452826456E+01 -0.13084176447E+02  0.26858329489E+02  0.00000000000E+00 0.  1.
         -5    1    1    2    0  502  0.23154849332E+02  0.37452826456E+01 -0.27824785833E+02  0.36392209281E+02  0.00000000000E+00 0. -1.
<mgrwt>
<rscale>  2 0.23455792E+02</rscale>
<asrwt>0</asrwt>
<pdfrwt beam="1">  1       21 0.17185828E-02 0.23455792E+02</pdfrwt>
<pdfrwt beam="2">  1       21 0.80122693E-02 0.23455792E+02</pdfrwt>
<totfact> 0.12728390E+08</totfact>
</mgrwt>
</event>
<event>
 4    1  0.7521660E+004  0.2025274E+02  0.7546771E-02  0.1740348E+00
         21   -1    0    0  503  502  0.00000000000E+00  0.00000000000E+00  0.30281257563E+03  0.30281257563E+03  0.00000000000E+00 0. -1.
         21   -1    0    0  501  503 -0.00000000000E+00 -0.00000000000E+00 -0.14031914118E+01  0.14031914118E+01  0.00000000000E+00 0. -1.
          4    1    1    2  501    0 -0.19363837524E+02  0.59342293061E+01  0.12238305439E+03  0.12404751220E+03  0.00000000000E+00 0. -1.
         -4    1    1    2    0  502  0.19363837524E+02 -0.59342293061E+01  0.17902632983E+03  0.18016825484E+03  0.00000000000E+00 0.  1.
<mgrwt>
<rscale>  2 0.20252735E+02</rscale>
<asrwt>0</asrwt>
<pdfrwt beam="1">  1       21 0.46586498E-01 0.20252735E+02</pdfrwt>
<pdfrwt beam="2">  1       21 0.21587584E-03 0.20252735E+02</pdfrwt>
<totfact> 0.12143171E+08</totfact>
</mgrwt>
</event>
<event>
 4    1  0.7521660E+004  0.2758520E+02  0.7546771E-02  0.1626425E+00
         21   -1    0    0  503  502  0.00000000000E+00  0.00000000000E+00  0.68384414206E+02  0.68384414206E+02  0.00000000000E+00 0. -1.
         21   -1    0    0  501  503 -0.00000000000E+00 -0.00000000000E+00 -0.11698784511E+02  0.11698784511E+02  0.00000000000E+00 0. -1.
          1    1    1    2  501    0 -0.27258763452E+02  0.42311966533E+01  0.37191759880E+02  0.46305185595E+02  0.00000000000E+00 0. -1.
         -1    1    1    2    0  502  0.27258763452E+02 -0.42311966533E+01  0.19493869815E+02  0.33778013121E+02  0.00000000000E+00 0.  1.
<mgrwt>
<rscale>  2 0.27585199E+02</rscale>
<asrwt>0</asrwt>
<pdfrwt beam="1">  1       21 0.10520679E-01 0.27585199E+02</pdfrwt>
<pdfrwt beam="2">  1       21 0.17998130E-02 0.27585199E+02</pdfrwt>
<totfact> 0.78961993E+07</totfact>
</mgrwt>
</event>
<event>
 4    1  0.7521660E+004  0.2221940E+02  0.7546771E-02  0.1704485E+00
         21   -1    0    0  501  502  0.00000000000E+00  0.00000000000E+00  0.20012176880E+02  0.20012176880E+02  0.00000000000E+00 0.  1.
         21   -1    0    0  502  503 -0.00000000000E+00 -0.00000000000E+00 -0.28854943672E+02  0.28854943672E+02  0.00000000000E+00 0.  1.
          5    1    1    2  501    0  0.19470451083E+02 -0.10705288987E+02 -0.13726421233E+02  0.26117356634E+02  0.00000000000E+00 0. -1.
         -5    1    1    2    0  503 -0.19470451083E+02  0.10705288987E+02  0.48836544413E+01  0.22749763919E+02  0.00000000000E+00 0.  1.
<mgrwt>
<rscale>  2 0.22219399E+02</rscale>
<asrwt>0</asrwt>
<pdfrwt beam="1">  1       21 0.30787965E-02 0.22219399E+02</pdfrwt>
<pdfrwt beam="2">  1       21 0.44392221E-02 0.22219399E+02</pdfrwt>
<totfact> 0.13158956E+08</totfact>
</mgrwt>
</event>
<event>
 4    1  0.7521660E+004  0.2796540E+02  0.7546771E-02  0.1621732E+00
         21   -1    0    0  501  502  0.00000000000E+00  0.00000000000E+00  0.10064277001E+02  0.10064277001E+02  0.00000000000E+00 0.  1.
         21   -1    0    0  502  503 -0.00000000000E+00 -0.00000000000E+00 -0.78050974347E+02  0.78050974347E+02  0.00000000000E+00 0.  1.
          3    1    1    2  501    0 -0.12891902490E+02 -0.24816574352E+02 -0.36918672896E+02  0.46314705233E+02  0.00000000000E+00 0.  1.
         -3    1    1    2    0  503  0.12891902490E+02  0.24816574352E+02 -0.31068024450E+02  0.41800546116E+02  0.00000000000E+00 0. -1.
<mgrwt>
<rscale>  2 0.27965398E+02</rscale>
<asrwt>0</asrwt>
<pdfrwt beam="1">  1       21 0.15483503E-02 0.27965398E+02</pdfrwt>
<pdfrwt beam="2">  1       21 0.12007842E-01 0.27965398E+02</pdfrwt>
<totfact> 0.79947218E+07</totfact>
</mgrwt>
</event>
<event>
 4    1  0.7521660E+004  0.2182397E+02  0.7546771E-02  0.1711314E+00
         21   -1    0    0  501  502  0.00000000000E+00  0.00000000000E+00  0.12631544900E+02  0.12631544900E+02  0.00000000000E+00 0. -1.
         21   -1    0    0  502  503 -0.00000000000E+00 -0.00000000000E+00 -0.55727040059E+02  0.55727040059E+02  0.00000000000E+00 0. -1.
          5    1    1    2  501    0  0.15839055374E+02  0.15013662829E+02 -0.21111910987E+01  0.21925849460E+02  0.00000000000E+00 0. -1.
         -5    1    1    2    0  503 -0.15839055374E+02 -0.15013662829E+02 -0.40984304060E+02  0.46432735500E+02  0.00000000000E+00 0.  1.
<mgrwt>
<rscale>  2 0.21823972E+02</rscale>
<asrwt>0</asrwt>
<pdfrwt beam="1">  1       21 0.19433146E-02 0.21823972E+02</pdfrwt>
<pdfrwt beam="2">  1       21 0.85733906E-02 0.21823972E+02</pdfrwt>
<totfact> 0.92481928E+07</totfact>
</mgrwt>
</event>
<event>
 4    1  0.7521660E+004  0.2645013E+02  0.7546771E-02  0.1641006E+00
         21   -1    0    0  503  502  0.00000000000E+00  0.00000000000E+00  0.19307792385E+03  0.19307792385E+03  0.00000000000E+00 0. -1.
         21   -1    0    0  501  503 -0.00000000000E+00 -0.00000000000E+00 -0.37333037058E+01  0.37333037058E+01  0.00000000000E+00 0. -1.
          4    1    1    2  501    0  0.14839738305E+02 -0.21895017560E+02  0.77792560733E+02  0.82166246917E+02  0.00000000000E+00 0. -1.
         -4    1    1    2    0  502 -0.14839738305E+02  0.21895017560E+02  0.11155205941E+03  0.11464498064E+03  0.00000000000E+00 0.  1.
<mgrwt>
<rscale>  2 0.26450135E+02</rscale>
<asrwt>0</asrwt>
<pdfrwt beam="1">  1       21 0.29704288E-01 0.26450135E+02</pdfrwt>
<pdfrwt beam="2">  1       21 0.57435457E-03 0.26450135E+02</pdfrwt>
<totfact> 0.72080738E+07</totfact>
</mgrwt>
</event>
<event>
 4    1  0.7521660E+004  0.2197841E+02  0.7546771E-02  0.1708626E+00
         21   -1    0    0  503  502  0.00000000000E+00  0.00000000000E+00  0.96896210296E+00  0.96896210296E+00  0.00000000000E+00 0.  1.
         21   -1    0    0  501  503 -0.00000000000E+00 -0.00000000000E+00 -0.62391237049E+03  0.62391237049E+03  0.00000000000E+00 0.  1.
          4    1    1    2  501    0  0.10379727593E+02  0.19372970134E+02 -0.17140508429E+03  0.17280843045E+03  0.00000000000E+00 0.  1.
         -4    1    1    2    0  502 -0.10379727593E+02 -0.19372970134E+02 -0.45153832410E+03  0.45207290214E+03  0.00000000000E+00 0. -1.
<mgrwt>
<rscale>  2 0.21978415E+02</rscale>
<asrwt>0</asrwt>
<pdfrwt beam="1">  1       21 0.14907065E-03 0.21978415E+02</pdfrwt>
<pdfrwt beam="2">  1       21 0.95986806E-01 0.21978415E+02</pdfrwt>
<totfact> 0.48626121E+07</totfact>
</mgrwt>
</event>
<event>
 4    1  0.7521660E+004  0.2431292E+02  0.7546771E-02  0.1671071E+00
         21   -1    0    0  501  502  0.00000000000E+00  0.00000000000E+00  0.18517529913E+01  0.18517529913E+01  0.00000000000E+00 0.  1.
         21   -1    0    0  502  503 -0.00000000000E+00 -0.00000000000E+00 -0.34177351421E+03  0.34177351421E+03  0.00000000000E+00 0.  1.
          3    1    1    2  501    0  0.11057722680E+02 -0.21652823824E+02 -0.21409613333E+03  0.21547220776E+03  0.00000000000E+00 0. -1.
         -3    1    1    2    0  503 -0.11057722680E+02  0.21652823824E+02 -0.12582562789E+03  0.12815305944E+03  0.00000000000E+00 0.  1.
<mgrwt>
<rscale>  2 0.24312919E+02</rscale>
<asrwt>0</asrwt>
<pdfrwt beam="1">  1       21 0.28488493E-03 0.24312919E+02</pdfrwt>
<pdfrwt beam="2">  1       21 0.52580567E-01 0.24312919E+02</pdfrwt>
<totfact> 0.67376864E+07</totfact>
</mgrwt>
</event>
<event>
 4    1  0.7521660E+004  0.6682390E+02  0.7546771E-02  0.1371239E+00
         21   -1    0    0  501  502  0.00000000000E+00  0.00000000000E+00  0.21796097039E+02  0.21796097039E+02  0.00000000000E+00 0. -1.
         21   -1    0    0  502  503 -0.00000000000E+00 -0.00000000000E+00 -0.26037012297E+03  0.26037012297E+03  0.00000000000E+00 0. -1.
          5    1    1    2  501    0  0.65123965348E+02 -0.14976728812E+02 -0.54152012657E+02  0.86010893167E+02  0.00000000000E+00 0.  1.
         -5    1    1    2    0  503 -0.65123965348E+02  0.14976728812E+02 -0.18442201327E+03  0.19615532684E+03  0.00000000000E+00 0. -1.
<mgrwt>
<rscale>  2 0.66823897E+02</rscale>
<asrwt>0</asrwt>
<pdfrwt beam="1">  1       21 0.33532458E-02 0.66823897E+02</pdfrwt>
<pdfrwt beam="2">  1       21 0.40056940E-01 0.66823897E+02</pdfrwt>
<totfact> 0.30358032E+06</totfact>
</mgrwt>
</event>
<event>
 4    1  0.7521660E+004  0.2470809E+02  0.7546771E-02  0.1665230E+00
         21   -1    0    0  503  502  0.00000000000E+00  0.00000000000E+00  0.13146119669E+03  0.13146119669E+03  0.00000000000E+00 0. -1.
         21   -1    0    0  501  503 -0.00000000000E+00 -0.00000000000E+00 -0.58292225093E+01  0.58292225093E+01  0.00000000000E+00 0. -1.
          1    1    1    2  501    0  0.14687182558E+02  0.19868983496E+02  0.31861250910E+02  0.40319091585E+02  0.00000000000E+00 0.  1.
         -1    1    1    2    0  502 -0.14687182558E+02 -0.19868983496E+02  0.93770723275E+02  0.96971327619E+02  0.00000000000E+00 0. -1.
<mgrwt>
<rscale>  2 0.24708093E+02</rscale>
<asrwt>0</asrwt>
<pdfrwt beam="1">  1       21 0.20224797E-01 0.24708093E+02</pdfrwt>
<pdfrwt beam="2">  1       21 0.89680357E-03 0.24708093E+02</pdfrwt>
<totfact> 0.72460721E+07</totfact>
</mgrwt>
</event>
<event>
 4    1  0.7521660E+004  0.2731653E+02  0.7546771E-02  0.1629798E+00
         21   -1    0    0  503  502  0.00000000000E+00  0.00000000000E+00  0.10263651467E+02  0.10263651467E+02  0.00000000000E+00 0.  1.
         21   -1    0    0  501  503 -0.00000000000E+00 -0.00000000000E+00 -0.82047141521E+02  0.82047141521E+02  0.00000000000E+00 0.  1.
          4    1    1    2  501    0 -0.74584260695E+00  0.27306349062E+02 -0.20315154644E+02  0.34042598146E+02  0.00000000000E+00 0.  1.
         -4    1    1    2    0  502  0.74584260695E+00 -0.27306349062E+02 -0.51468335410E+02  0.58268194843E+02  0.00000000000E+00 0. -1.
<mgrwt>
<rscale>  2 0.27316533E+02</rscale>
<asrwt>0</asrwt>
<pdfrwt beam="1">  1       21 0.15790232E-02 0.27316533E+02</pdfrwt>
<pdfrwt beam="2">  1       21 0.12622638E-01 0.27316533E+02</pdfrwt>
<totfact> 0.70890794E+07</totfact>
</mgrwt>
</event>
<event>
 4    1  0.7521660E+004  0.2152116E+02  0.7546771E-02  0.1716667E+00
         21   -1    0    0  503  502  0.00000000000E+00  0.00000000000E+00  0.78642644363E+02  0.78642644363E+02  0.00000000000E+00 0. -1.
         21   -1    0    0  501  503 -0.00000000000E+00 -0.00000000000E+00 -0.70206722811E+01  0.70206722811E+01  0.00000000000E+00 0. -1.
          1    1    1    2  501    0  0.46602611948E+01 -0.21010525909E+02  0.53004064122E+02  0.57206564718E+02  0.00000000000E+00 0. -1.
         -1    1    1    2    0  502 -0.46602611948E+01  0.21010525909E+02  0.18617907960E+02  0.28456751926E+02  0.00000000000E+00 0.  1.
<mgrwt>
<rscale>  2 0.21521158E+02</rscale>
<asrwt>0</asrwt>
<pdfrwt beam="1">  1       21 0.12098868E-01 0.21521158E+02</pdfrwt>
<pdfrwt beam="2">  1       21 0.10801035E-02 0.21521158E+02</pdfrwt>
<totfact> 0.12695518E+08</totfact>
</mgrwt>
</event>
<event>
 4    1  0.7521660E+004  0.2213112E+02  0.7546771E-02  0.1705994E+00
         21   -1    0    0  501  502  0.00000000000E+00  0.00000000000E+00  0.16930576596E+03  0.16930576596E+03  0.00000000000E+00 0.  1.
         21   -1    0    0  502  503 -0.00000000000E+00 -0.00000000000E+00 -0.29826364811E+01  0.29826364811E+01  0.00000000000E+00 0.  1.
          2    1    1    2  501    0 -0.21960988787E+02  0.27388628217E+01  0.98102762790E+02  0.10056807876E+03  0.00000000000E+00 0.  1.
         -2    1    1    2    0  503  0.21960988787E+02 -0.27388628217E+01  0.68220366690E+02  0.71720323684E+02  0.00000000000E+00 0. -1.
<mgrwt>
<rscale>  2 0.22131118E+02</rscale>
<asrwt>0</asrwt>
<pdfrwt beam="1">  1       21 0.26047033E-01 0.22131118E+02</pdfrwt>
<pdfrwt beam="2">  1       21 0.45886728E-03 0.22131118E+02</pdfrwt>
<totfact> 0.12162227E+08</totfact>
</mgrwt>
</event>
<event>
 4    1  0.7521660E+004  0.2199946E+02  0.7546771E-02  0.1708261E+00
         21   -1    0    0  501  502  0.00000000000E+00  0.00000000000E+00  0.34108578475E+02  0.34108578475E+02  0.00000000000E+00 0.  1.
         21   -1    0    0  502  503 -0.00000000000E+00 -0.00000000000E+00 -0.14234949168E+02  0.14234949168E+02  0.00000000000E+00 0.  1.
          3    1    1    2  501    0 -0.21499996148E+02  0.46611611866E+01  0.11305897472E+02  0.24734582584E+02  0.00000000000E+00 0. -1.
         -3    1    1    2    0  503  0.21499996148E+02 -0.46611611866E+01  0.85677318357E+01  0.23608945059E+02  0.00000000000E+00 0.  1.
<mgrwt>
<rscale>  2 0.21999460E+02</rscale>
<asrwt>0</asrwt>
<pdfrwt beam="1">  1       21 0.52474736E-02 0.21999460E+02</pdfrwt>
<pdfrwt beam="2">  1       21 0.21899922E-02 0.21999460E+02</pdfrwt>
<totfact> 0.17037272E+08</totfact>
</mgrwt>
</event>
<event>
 4    1  0.7521660E+004  0.3537605E+02  0.7546771E-02  0.1545286E+00
         21   -1    0    0  501  502  0.00000000000E+00  0.00000000000E+00  0.13021932033E+03  0.13021932033E+03  0.00000000000E+00 0.  1.
         21   -1    0    0  502  503 -0.00000000000E+00 -0.00000000000E+00 -0.10493297576E+02  0.10493297576E+02  0.00000000000E+00 0.  1.
          3    1    1    2  501    0  0.17058935857E+02 -0.30991245269E+02  0.80270666739E+02  0.87720262851E+02  0.00000000000E+00 0.  1.
         -3    1    1    2    0  503 -0.17058935857E+02  0.30991245269E+02  0.39455356011E+02  0.52992355051E+02  0.00000000000E+00 0. -1.
<mgrwt>
<rscale>  2 0.35376045E+02</rscale>
<asrwt>0</asrwt>
<pdfrwt beam="1">  1       21 0.20033740E-01 0.35376045E+02</pdfrwt>
<pdfrwt beam="2">  1       21 0.16143536E-02 0.35376045E+02</pdfrwt>
<totfact> 0.32529362E+07</totfact>
</mgrwt>
</event>
<event>
 4    1  0.7521660E+004  0.2089030E+02  0.7546771E-02  0.1728182E+00
         21   -1    0    0  501  502  0.00000000000E+00  0.00000000000E+00  0.43316226073E+02  0.43316226073E+02  0.00000000000E+00 0. -1.
         21   -1    0    0  502  503 -0.00000000000E+00 -0.00000000000E+00 -0.10287302564E+02  0.10287302564E+02  0.00000000000E+00 0. -1.
          1    1    1    2  501    0 -0.20406187945E+02  0.44712676673E+01  0.12662894694E+02  0.24428541565E+02  0.00000000000E+00 0. -1.
         -1    1    1    2    0  503  0.20406187945E+02 -0.44712676673E+01  0.20366028814E+02  0.29174987072E+02  0.00000000000E+00 0.  1.
<mgrwt>
<rscale>  2 0.20890303E+02</rscale>
<asrwt>0</asrwt>
<pdfrwt beam="1">  1       21 0.66640347E-02 0.20890303E+02</pdfrwt>
<pdfrwt beam="2">  1       21 0.15826620E-02 0.20890303E+02</pdfrwt>
<totfact> 0.18774240E+08</totfact>
</mgrwt>
</event>
<event>
 4    1  0.7521660E+004  0.2686322E+02  0.7546771E-02  0.1635597E+00
         21   -1    0    0  503  502  0.00000000000E+00  0.00000000000E+00  0.19226014311E+03  0.19226014311E+03  0.00000000000E+00 0. -1.
         21   -1    0    0  501  503 -0.00000000000E+00 -0.00000000000E+00 -0.37550362042E+01  0.37550362042E+01  0.00000000000E+00 0. -1.
          2    1    1    2  501    0  0.16142419485E+02 -0.21472183057E+02  0.96288185912E+02  0.99965229446E+02  0.00000000000E+00 0.  1.
         -2    1    1    2    0  502 -0.16142419485E+02  0.21472183057E+02  0.92216920994E+02  0.96049949868E+02  0.00000000000E+00 0. -1.
<mgrwt>
<rscale>  2 0.26863216E+02</rscale>
<asrwt>0</asrwt>
<pdfrwt beam="1">  1       21 0.29578476E-01 0.26863216E+02</pdfrwt>
<pdfrwt beam="2">  1       21 0.57769803E-03 0.26863216E+02</pdfrwt>
<totfact> 0.72281531E+07</totfact>
</mgrwt>
</event>
<event>
 4    1  0.7521660E+004  0.2332426E+02  0.7546771E-02  0.1686307E+00
         21   -1    0    0  503  502  0.00000000000E+00  0.00000000000E+00  0.38021886859E+01  0.38021886859E+01  0.00000000000E+00 0. -1.
         21   -1    0    0  501  503 -0.00000000000E+00 -0.00000000000E+00 -0.18207145965E+03  0.18207145965E+03  0.00000000000E+00 0. -1.
          2    1    1    2  501    0  0.18409883521E+02  0.14321213199E+02 -0.13214232078E+03  0.13418499879E+03  0.00000000000E+00 0.  1.
         -2    1    1    2    0  502 -0.18409883521E+02 -0.14321213199E+02 -0.46126950185E+02  0.51688649548E+02  0.00000000000E+00 0. -1.
<mgrwt>
<rscale>  2 0.23324257E+02</rscale>
<asrwt>0</asrwt>
<pdfrwt beam="1">  1       21 0.58495221E-03 0.23324257E+02</pdfrwt>
<pdfrwt beam="2">  1       21 0.28010989E-01 0.23324257E+02</pdfrwt>
<totfact> 0.75664381E+07</totfact>
</mgrwt>
</event>
<event>
 4    1  0.7521660E+004  0.2134508E+02  0.7546771E-02  0.1719831E+00
         21   -1    0    0  503  502  0.00000000000E+00  0.00000000000E+00  0.13662017866E+01  0.13662017866E+01  0.00000000000E+00 0. -1.
         21   -1    0    0  501  503 -0.00000000000E+00 -0.00000000000E+00 -0.33880076023E+03  0.33880076023E+03  0.00000000000E+00 0. -1.
          2    1    1    2  501    0 -0.14111363148E+02 -0.16015049674E+02 -0.14741943927E+03  0.14895671673E+03  0.00000000000E+00 0.  1.
         -2    1    1    2    0  502  0.14111363148E+02  0.16015049674E+02 -0.19001511918E+03  0.19121024529E+03  0.00000000000E+00 0. -1.
<mgrwt>
<rscale>  2 0.21345079E+02</rscale>
<asrwt>0</asrwt>
<pdfrwt beam="1">  1       21 0.21018478E-03 0.21345079E+02</pdfrwt>
<pdfrwt beam="2">  1       21 0.52123222E-01 0.21345079E+02</pdfrwt>
<totfact> 0.10306512E+08</totfact>
</mgrwt>
</event>
<event>
 4    1  0.7521660E+004  0.2807797E+02  0.7546771E-02  0.1620361E+00
         21   -1    0    0  501  502  0.00000000000E+00  0.00000000000E+00  0.34697056898E+02  0.34697056898E+02  0.00000000000E+00 0.  1.
         21   -1    0    0  502  503 -0.00000000000E+00 -0.00000000000E+00 -0.24193614472E+02  0.24193614472E+02  0.00000000000E+00 0.  1.
          4    1    1    2  501    0 -0.11110522127E+02  0.25786208618E+02 -0.20114090776E+01  0.28149920485E+02  0.00000000000E+00 0. -1.
         -4    1    1    2    0  503  0.11110522127E+02 -0.25786208618E+02  0.12514851504E+02  0.30740750885E+02  0.00000000000E+00 0.  1.
<mgrwt>
<rscale>  2 0.28077967E+02</rscale>
<asrwt>0</asrwt>
<pdfrwt beam="1">  1       21 0.53380088E-02 0.28077967E+02</pdfrwt>
<pdfrwt beam="2">  1       21 0.37220945E-02 0.28077967E+02</pdfrwt>
<totfact> 0.77626683E+07</totfact>
</mgrwt>
</event>
<event>
 4    1  0.7521660E+004  0.2881989E+02  0.7546771E-02  0.1611512E+00
         21   -1    0    0  501  502  0.00000000000E+00  0.00000000000E+00  0.41057672945E+01  0.41057672945E+01  0.00000000000E+00 0.  1.
         21   -1    0    0  502  503 -0.00000000000E+00 -0.00000000000E+00 -0.20275241502E+03  0.20275241502E+03  0.00000000000E+00 0.  1.
          1    1    1    2  501    0  0.93712474577E+01  0.27253725996E+02 -0.10422330644E+03  0.10813456184E+03  0.00000000000E+00 0.  1.
         -1    1    1    2    0  503 -0.93712474577E+01 -0.27253725996E+02 -0.94423341290E+02  0.98723620476E+02  0.00000000000E+00 0. -1.
<mgrwt>
<rscale>  2 0.28819887E+02</rscale>
<asrwt>0</asrwt>
<pdfrwt beam="1">  1       21 0.63165663E-03 0.28819887E+02</pdfrwt>
<pdfrwt beam="2">  1       21 0.31192673E-01 0.28819887E+02</pdfrwt>
<totfact> 0.58321393E+07</totfact>
</mgrwt>
</event>
<event>
 4    1  0.7521660E+004  0.2242512E+02  0.7546771E-02  0.1701002E+00
         21   -1    0    0  501  502  0.00000000000E+00  0.00000000000E+00  0.12942412128E+01  0.12942412128E+01  0.00000000000E+00 0. -1.
         21   -1    0    0  502  503 -0.00000000000E+00 -0.00000000000E+00 -0.42206332677E+03  0.42206332677E+03  0.00000000000E+00 0. -1.
          4    1    1    2  501    0  0.16267754645E+02  0.15435227995E+02 -0.27002676657E+03  0.27095634477E+03  0.00000000000E+00 0. -1.
         -4    1    1    2    0  503 -0.16267754645E+02 -0.15435227995E+02 -0.15074231898E+03  0.15240122321E+03  0.00000000000E+00 0.  1.
<mgrwt>
<rscale>  2 0.22425122E+02</rscale>
<asrwt>0</asrwt>
<pdfrwt beam="1">  1       21 0.19911412E-03 0.22425122E+02</pdfrwt>
<pdfrwt beam="2">  1       21 0.64932792E-01 0.22425122E+02</pdfrwt>
<totfact> 0.72953349E+07</totfact>
</mgrwt>
</event>
<event>
 4    1  0.7521660E+004  0.2135519E+02  0.7546771E-02  0.1719648E+00
         21   -1    0    0  503  502  0.00000000000E+00  0.00000000000E+00  0.14933897145E+02  0.14933897145E+02  0.00000000000E+00 0. -1.
         21   -1    0    0  501  503 -0.00000000000E+00 -0.00000000000E+00 -0.30567143008E+02  0.30567143008E+02  0.00000000000E+00 0. -1.
          3    1    1    2  501    0 -0.26499636058E+01  0.21190136672E+02 -0.85248464763E+01  0.22993851498E+02  0.00000000000E+00 0. -1.
         -3    1    1    2    0  502  0.26499636058E+01 -0.21190136672E+02 -0.71083993863E+01  0.22507188654E+02  0.00000000000E+00 0.  1.
<mgrwt>
<rscale>  2 0.21355191E+02</rscale>
<asrwt>0</asrwt>
<pdfrwt beam="1">  1       21 0.22975226E-02 0.21355191E+02</pdfrwt>
<pdfrwt beam="2">  1       21 0.47026374E-02 0.21355191E+02</pdfrwt>
<totfact> 0.18660823E+08</totfact>
</mgrwt>
</event>
<event>
 4    1  0.7521660E+004  0.2301730E+02  0.7546771E-02  0.1691230E+00
         21   -1    0    0  501  502  0.00000000000E+00  0.00000000000E+00  0.95213292749E+02  0.95213292749E+02  0.00000000000E+00 0.  1.
         21   -1    0    0  502  503 -0.00000000000E+00 -0.00000000000E+00 -0.57552378141E+01  0.57552378141E+01  0.00000000000E+00 0.  1.
          4    1    1    2  501    0  0.67149929294E+01 -0.22016013286E+02  0.35533796178E+02  0.42337296110E+02  0.00000000000E+00 0. -1.
         -4    1    1    2    0  503 -0.67149929294E+01  0.22016013286E+02  0.53924258757E+02  0.58631234453E+02  0.00000000000E+00 0.  1.
<mgrwt>
<rscale>  2 0.23017297E+02</rscale>
<asrwt>0</asrwt>
<pdfrwt beam="1">  1       21 0.14648198E-01 0.23017297E+02</pdfrwt>
<pdfrwt beam="2">  1       21 0.88542127E-03 0.23017297E+02</pdfrwt>
<totfact> 0.12638181E+08</totfact>
</mgrwt>
</event>
<event>
 4    1  0.7521660E+004  0.2601048E+02  0.7546771E-02  0.1646898E+00
         21   -1    0    0  501  502  0.00000000000E+00  0.00000000000E+00  0.76642758004E+02  0.76642758004E+02  0.00000000000E+00 0.  1.
         21   -1    0    0  502  503 -0.00000000000E+00 -0.00000000000E+00 -0.88338803923E+01  0.88338803923E+01  0.00000000000E+00 0.  1.
          4    1    1    2  501    0  0.13241654101E+02  0.22387572674E+02  0.35075283624E+02  0.43667153959E+02  0.00000000000E+00 0. -1.
         -4    1    1    2    0  503 -0.13241654101E+02 -0.22387572674E+02  0.32733593988E+02  0.41809484438E+02  0.00000000000E+00 0.  1.
<mgrwt>
<rscale>  2 0.26010475E+02</rscale>
<asrwt>0</asrwt>
<pdfrwt beam="1">  1       21 0.11791193E-01 0.26010475E+02</pdfrwt>
<pdfrwt beam="2">  1       21 0.13590586E-02 0.26010475E+02</pdfrwt>
<totfact> 0.98768211E+07</totfact>
</mgrwt>
</event>
<event>
 4    1  0.7521660E+004  0.2324764E+02  0.7546771E-02  0.1687527E+00
         21   -1    0    0  501  502  0.00000000000E+00  0.00000000000E+00  0.27224502311E+01  0.27224502311E+01  0.00000000000E+00 0. -1.
         21   -1    0    0  502  503 -0.00000000000E+00 -0.00000000000E+00 -0.20097043416E+03  0.20097043416E+03  0.00000000000E+00 0. -1.
          4    1    1    2  501    0 -0.66948165871E+01  0.22262794904E+02 -0.87870987505E+02  0.90894241023E+02  0.00000000000E+00 0. -1.
         -4    1    1    2    0  503  0.66948165871E+01 -0.22262794904E+02 -0.11037699643E+03  0.11279864337E+03  0.00000000000E+00 0.  1.
<mgrwt>
<rscale>  2 0.23247637E+02</rscale>
<asrwt>0</asrwt>
<pdfrwt beam="1">  1       21 0.41883838E-03 0.23247637E+02</pdfrwt>
<pdfrwt beam="2">  1       21 0.30918537E-01 0.23247637E+02</pdfrwt>
<totfact> 0.10342541E+08</totfact>
</mgrwt>
</event>
<event>
 4    1  0.7521660E+004  0.2243945E+02  0.7546771E-02  0.1700761E+00
         21   -1    0    0  501  502  0.00000000000E+00  0.00000000000E+00  0.79338490878E+03  0.79338490878E+03  0.00000000000E+00 0. -1.
         21   -1    0    0  502  503 -0.00000000000E+00 -0.00000000000E+00 -0.65061013631E+00  0.65061013631E+00  0.00000000000E+00 0. -1.
          4    1    1    2  501    0 -0.22376816983E+02  0.16754368311E+01  0.33420261407E+03  0.33495509591E+03  0.00000000000E+00 0.  1.
         -4    1    1    2    0  503  0.22376816983E+02 -0.16754368311E+01  0.45853168458E+03  0.45908042301E+03  0.00000000000E+00 0. -1.
<mgrwt>
<rscale>  2 0.22439452E+02</rscale>
<asrwt>0</asrwt>
<pdfrwt beam="1">  1       21 0.12205844E+00 0.22439452E+02</pdfrwt>
<pdfrwt beam="2">  1       21 0.10009450E-03 0.22439452E+02</pdfrwt>
<totfact> 0.50633949E+07</totfact>
</mgrwt>
</event>
<event>
 4    1  0.7521660E+004  0.2255581E+02  0.7546771E-02  0.1698813E+00
         21   -1    0    0  501  502  0.00000000000E+00  0.00000000000E+00  0.48069873449E+01  0.48069873449E+01  0.00000000000E+00 0. -1.
         21   -1    0    0  502  503 -0.00000000000E+00 -0.00000000000E+00 -0.11900753041E+03  0.11900753041E+03  0.00000000000E+00 0. -1.
          3    1    1    2  501    0  0.83008678124E+01  0.20972847384E+02 -0.36506785543E+02  0.42912820049E+02  0.00000000000E+00 0.  1.
         -3    1    1    2    0  503 -0.83008678124E+01 -0.20972847384E+02 -0.77693757521E+02  0.80901697705E+02  0.00000000000E+00 0. -1.
<mgrwt>
<rscale>  2 0.22555814E+02</rscale>
<asrwt>0</asrwt>
<pdfrwt beam="1">  1       21 0.73953659E-03 0.22555814E+02</pdfrwt>
<pdfrwt beam="2">  1       21 0.18308849E-01 0.22555814E+02</pdfrwt>
<totfact> 0.11215948E+08</totfact>
</mgrwt>
</event>
<event>
 4    1  0.7521660E+004  0.2702349E+02  0.7546771E-02  0.1633531E+00
         21   -1    0    0  501  502  0.00000000000E+00  0.00000000000E+00  0.20304643705E+01  0.20304643705E+01  0.00000000000E+00 0. -1.
         21   -1    0    0  502  503 -0.00000000000E+00 -0.00000000000E+00 -0.41003766147E+03  0.41003766147E+03  0.00000000000E+00 0. -1.
          3    1    1    2  501    0 -0.13805486311E+02  0.23230963880E+02 -0.27622442575E+03  0.27754315433E+03  0.00000000000E+00 0. -1.
         -3    1    1    2    0  503  0.13805486311E+02 -0.23230963880E+02 -0.13178277135E+03  0.13452497151E+03  0.00000000000E+00 0.  1.
<mgrwt>
<rscale>  2 0.27023492E+02</rscale>
<asrwt>0</asrwt>
<pdfrwt beam="1">  1       21 0.31237879E-03 0.27023492E+02</pdfrwt>
<pdfrwt beam="2">  1       21 0.63082787E-01 0.27023492E+02</pdfrwt>
<totfact> 0.41898682E+07</totfact>
</mgrwt>
</event>
<event>
 4    1  0.7521660E+004  0.2320041E+02  0.7546771E-02  0.1688282E+00
         21   -1    0    0  503  502  0.00000000000E+00  0.00000000000E+00  0.15129680542E+02  0.15129680542E+02  0.00000000000E+00 0.  1.
         21   -1    0    0  501  503 -0.00000000000E+00 -0.00000000000E+00 -0.35739568831E+02  0.35739568831E+02  0.00000000000E+00 0.  1.
          2    1    1    2  501    0  0.81277647926E+01  0.21730131620E+02 -0.12023656649E+02  0.26130968217E+02  0.00000000000E+00 0.  1.
         -2    1    1    2    0  502 -0.81277647926E+01 -0.21730131620E+02 -0.85862316397E+01  0.24738281156E+02  0.00000000000E+00 0. -1.
<mgrwt>
<rscale>  2 0.23200413E+02</rscale>
<asrwt>0</asrwt>
<pdfrwt beam="1">  1       21 0.23276432E-02 0.23200413E+02</pdfrwt>
<pdfrwt beam="2">  1       21 0.54983952E-02 0.23200413E+02</pdfrwt>
<totfact> 0.14633224E+08</totfact>
</mgrwt>
</event>
<event>
 4    1  0.7521660E+004  0.2324492E+02  0.7546771E-02  0.1687571E+00
         21   -1    0    0  503  502  0.00000000000E+00  0.00000000000E+00  0.11018340801E+04  0.11018340801E+04  0.00000000000E+00 0.  1.
         21   -1    0    0  501  503 -0.00000000000E+00 -0.00000000000E+00 -0.62089372842E+00  0.62089372842E+00  0.00000000000E+00 0.  1.
          4    1    1    2  501    0 -0.56186400471E+01  0.22555644633E+02  0.29788811279E+03  0.29879366453E+03  0.00000000000E+00 0. -1.
         -4    1    1    2    0  502  0.56186400471E+01 -0.22555644633E+02  0.80332507354E+03  0.80366130926E+03  0.00000000000E+00 0.  1.
<mgrwt>
<rscale>  2 0.23244918E+02</rscale>
<asrwt>0</asrwt>
<pdfrwt beam="1">  1       21 0.16951137E+00 0.23244918E+02</pdfrwt>
<pdfrwt beam="2">  1       21 0.95522994E-04 0.23244918E+02</pdfrwt>
<totfact> 0.25166891E+07</totfact>
</mgrwt>
</event>
<event>
 4    1  0.7521660E+004  0.2911326E+02  0.7546771E-02  0.1608102E+00
         21   -1    0    0  501  502  0.00000000000E+00  0.00000000000E+00  0.24927228285E+03  0.24927228285E+03  0.00000000000E+00 0.  1.
         21   -1    0    0  502  503 -0.00000000000E+00 -0.00000000000E+00 -0.34040985982E+01  0.34040985982E+01  0.00000000000E+00 0.  1.
          3    1    1    2  501    0  0.16822663398E+02  0.23760894607E+02  0.12719527823E+03  0.13048456200E+03  0.00000000000E+00 0. -1.
         -3    1    1    2    0  503 -0.16822663398E+02 -0.23760894607E+02  0.11867290602E+03  0.12219181945E+03  0.00000000000E+00 0.  1.
<mgrwt>
<rscale>  2 0.29113264E+02</rscale>
<asrwt>0</asrwt>
<pdfrwt beam="1">  1       21 0.38349568E-01 0.29113264E+02</pdfrwt>
<pdfrwt beam="2">  1       21 0.52370767E-03 0.29113264E+02</pdfrwt>
<totfact> 0.52555843E+07</totfact>
</mgrwt>
</event>
<event>
 4    1  0.7521660E+004  0.2537746E+02  0.7546771E-02  0.1655639E+00
         21   -1    0    0  501  502  0.00000000000E+00  0.00000000000E+00  0.15922052983E+02  0.15922052983E+02  0.00000000000E+00 0. -1.
         21   -1    0    0  502  503 -0.00000000000E+00 -0.00000000000E+00 -0.40472885942E+02  0.40472885942E+02  0.00000000000E+00 0. -1.
          4    1    1    2  501    0 -0.25082873059E+02  0.38555374812E+01 -0.11576643980E+02  0.27893267575E+02  0.00000000000E+00 0.  1.
         -4    1    1    2    0  503  0.25082873059E+02 -0.38555374812E+01 -0.12974188978E+02  0.28501671351E+02  0.00000000000E+00 0. -1.
<mgrwt>
<rscale>  2 0.25377464E+02</rscale>
<asrwt>0</asrwt>
<pdfrwt beam="1">  1       21 0.24495466E-02 0.25377464E+02</pdfrwt>
<pdfrwt beam="2">  1       21 0.62265979E-02 0.25377464E+02</pdfrwt>
<totfact> 0.11360395E+08</totfact>
</mgrwt>
</event>
<event>
 4    1  0.7521660E+004  0.2294791E+02  0.7546771E-02  0.1692356E+00
         21   -1    0    0  501  502  0.00000000000E+00  0.00000000000E+00  0.57836716229E+02  0.57836716229E+02  0.00000000000E+00 0.  1.
         21   -1    0    0  502  503 -0.00000000000E+00 -0.00000000000E+00 -0.93565794332E+01  0.93565794332E+01  0.00000000000E+00 0.  1.
          5    1    1    2  501    0 -0.22374537105E+02  0.50977239408E+01  0.18731684098E+02  0.29622334297E+02  0.00000000000E+00 0. -1.
         -5    1    1    2    0  503  0.22374537105E+02 -0.50977239408E+01  0.29748452698E+02  0.37570961366E+02  0.00000000000E+00 0.  1.
<mgrwt>
<rscale>  2 0.22947913E+02</rscale>
<asrwt>0</asrwt>
<pdfrwt beam="1">  1       21 0.88979561E-02 0.22947913E+02</pdfrwt>
<pdfrwt beam="2">  1       21 0.14394738E-02 0.22947913E+02</pdfrwt>
<totfact> 0.13951127E+08</totfact>
</mgrwt>
</event>
<event>
 4    1  0.7521660E+004  0.2367243E+02  0.7546771E-02  0.1680836E+00
         21   -1    0    0  503  502  0.00000000000E+00  0.00000000000E+00  0.42373834389E+01  0.42373834389E+01  0.00000000000E+00 0. -1.
         21   -1    0    0  501  503 -0.00000000000E+00 -0.00000000000E+00 -0.14785826920E+03  0.14785826920E+03  0.00000000000E+00 0. -1.
          2    1    1    2  501    0 -0.22662522870E+02  0.68406256345E+01 -0.47100386696E+02  0.52714613997E+02  0.00000000000E+00 0.  1.
         -2    1    1    2    0  502  0.22662522870E+02 -0.68406256345E+01 -0.96520499067E+02  0.99381038645E+02  0.00000000000E+00 0. -1.
<mgrwt>
<rscale>  2 0.23672433E+02</rscale>
<asrwt>0</asrwt>
<pdfrwt beam="1">  1       21 0.65190526E-03 0.23672433E+02</pdfrwt>
<pdfrwt beam="2">  1       21 0.22747422E-01 0.23672433E+02</pdfrwt>
<totfact> 0.93814502E+07</totfact>
</mgrwt>
</event>
<event>
 4    1  0.7521660E+004  0.2324114E+02  0.7546771E-02  0.1687631E+00
         21   -1    0    0  503  502  0.00000000000E+00  0.00000000000E+00  0.61019802794E+02  0.61019802794E+02  0.00000000000E+00 0. -1.
         21   -1    0    0  501  503 -0.00000000000E+00 -0.00000000000E+00 -0.98349243520E+01  0.98349243520E+01  0.00000000000E+00 0. -1.
          3    1    1    2  501    0  0.18264872370E-01 -0.23241137269E+02  0.36791992363E+02  0.43517829647E+02  0.00000000000E+00 0. -1.
         -3    1    1    2    0  502 -0.18264872370E-01  0.23241137269E+02  0.14392886079E+02  0.27336897499E+02  0.00000000000E+00 0.  1.
<mgrwt>
<rscale>  2 0.23241144E+02</rscale>
<asrwt>0</asrwt>
<pdfrwt beam="1">  1       21 0.93876617E-02 0.23241144E+02</pdfrwt>
<pdfrwt beam="2">  1       21 0.15130653E-02 0.23241144E+02</pdfrwt>
<totfact> 0.11886398E+08</totfact>
</mgrwt>
</event>
<event>
 4    1  0.7521660E+004  0.3612540E+02  0.7546771E-02  0.1538828E+00
         21   -1    0    0  501  502  0.00000000000E+00  0.00000000000E+00  0.60497624031E+02  0.60497624031E+02  0.00000000000E+00 0. -1.
         21   -1    0    0  502  503 -0.00000000000E+00 -0.00000000000E+00 -0.21604136011E+02  0.21604136011E+02  0.00000000000E+00 0. -1.
          2    1    1    2  501    0 -0.34102436114E+02  0.11919236434E+02  0.17859263303E+02  0.40298853976E+02  0.00000000000E+00 0.  1.
         -2    1    1    2    0  503  0.34102436114E+02 -0.11919236434E+02  0.21034224717E+02  0.41802906066E+02  0.00000000000E+00 0. -1.
<mgrwt>
<rscale>  2 0.36125398E+02</rscale>
<asrwt>0</asrwt>
<pdfrwt beam="1">  1       21 0.93073267E-02 0.36125398E+02</pdfrwt>
<pdfrwt beam="2">  1       21 0.33237133E-02 0.36125398E+02</pdfrwt>
<totfact> 0.39431396E+07</totfact>
</mgrwt>
</event>
<event>
 4    1  0.7521660E+004  0.2040076E+02  0.7546771E-02  0.1737474E+00
         21   -1    0    0  503  502  0.00000000000E+00  0.00000000000E+00  0.22807879391E+01  0.22807879391E+01  0.00000000000E+00 0. -1.
         21   -1    0    0  501  503 -0.00000000000E+00 -0.00000000000E+00 -0.40390151070E+03  0.40390151070E+03  0.00000000000E+00 0. -1.
          1    1    1    2  501    0  0.16245618931E+02 -0.12339801649E+02 -0.50438588161E+02  0.54408106150E+02  0.00000000000E+00 0. -1.
         -1    1    1    2    0  502 -0.16245618931E+02  0.12339801649E+02 -0.35118213460E+03  0.35177419249E+03  0.00000000000E+00 0.  1.
<mgrwt>
<rscale>  2 0.20400756E+02</rscale>
<asrwt>0</asrwt>
<pdfrwt beam="1">  1       21 0.35089051E-03 0.20400756E+02</pdfrwt>
<pdfrwt beam="2">  1       21 0.62138684E-01 0.20400756E+02</pdfrwt>
<totfact> 0.34280350E+07</totfact>
</mgrwt>
</event>
<event>
 4    1  0.7521660E+004  0.2388248E+02  0.7546771E-02  0.1677592E+00
         21   -1    0    0  503  502  0.00000000000E+00  0.00000000000E+00  0.16585723405E+02  0.16585723405E+02  0.00000000000E+00 0. -1.
         21   -1    0    0  501  503 -0.00000000000E+00 -0.00000000000E+00 -0.36000944283E+02  0.36000944283E+02  0.00000000000E+00 0. -1.
          5    1    1    2  501    0  0.71464202977E+01  0.22788189070E+02 -0.15270640331E+02  0.28347228088E+02  0.00000000000E+00 0.  1.
         -5    1    1    2    0  502 -0.71464202977E+01 -0.22788189070E+02 -0.41445805475E+01  0.24239439599E+02  0.00000000000E+00 0. -1.
<mgrwt>
<rscale>  2 0.23882481E+02</rscale>
<asrwt>0</asrwt>
<pdfrwt beam="1">  1       21 0.25516497E-02 0.23882481E+02</pdfrwt>
<pdfrwt beam="2">  1       21 0.55386068E-02 0.23882481E+02</pdfrwt>
<totfact> 0.12656835E+08</totfact>
</mgrwt>
</event>
<event>
 4    1  0.7521660E+004  0.2994727E+02  0.7546771E-02  0.1598672E+00
         21   -1    0    0  501  502  0.00000000000E+00  0.00000000000E+00  0.46840098545E+02  0.46840098545E+02  0.00000000000E+00 0.  1.
         21   -1    0    0  502  503 -0.00000000000E+00 -0.00000000000E+00 -0.19334319737E+02  0.19334319737E+02  0.00000000000E+00 0.  1.
          4    1    1    2  501    0 -0.29839312140E+02 -0.25405242393E+01  0.17011249408E+02  0.34441565278E+02  0.00000000000E+00 0. -1.
         -4    1    1    2    0  503  0.29839312140E+02  0.25405242393E+01  0.10494529401E+02  0.31732853004E+02  0.00000000000E+00 0.  1.
<mgrwt>
<rscale>  2 0.29947267E+02</rscale>
<asrwt>0</asrwt>
<pdfrwt beam="1">  1       21 0.72061690E-02 0.29947267E+02</pdfrwt>
<pdfrwt beam="2">  1       21 0.29745107E-02 0.29947267E+02</pdfrwt>
<totfact> 0.68991586E+07</totfact>
</mgrwt>
</event>
<event>
 4    1  0.7521660E+004  0.4346488E+02  0.7546771E-02  0.1484159E+00
         21   -1    0    0  503  502  0.00000000000E+00  0.00000000000E+00  0.17302938940E+02  0.17302938940E+02  0.00000000000E+00 0.  1.
         21   -1    0    0  501  503 -0.00000000000E+00 -0.00000000000E+00 -0.11084975644E+03  0.11084975644E+03  0.00000000000E+00 0.  1.
          2    1    1    2  501    0 -0.42207131773E+02 -0.10380450745E+02 -0.54629365176E+02  0.69810910821E+02  0.00000000000E+00 0. -1.
         -2    1    1    2    0  502  0.42207131773E+02  0.10380450745E+02 -0.38917452322E+02  0.58341784558E+02  0.00000000000E+00 0.  1.
<mgrwt>
<rscale>  2 0.43464879E+02</rscale>
<asrwt>0</asrwt>
<pdfrwt beam="1">  1       21 0.26619906E-02 0.43464879E+02</pdfrwt>
<pdfrwt beam="2">  1       21 0.17053809E-01 0.43464879E+02</pdfrwt>
<totfact> 0.20466518E+07</totfact>
</mgrwt>
</event>
<event>
 4    1  0.7521660E+004  0.2210485E+02  0.7546771E-02  0.1706445E+00
         21   -1    0    0  501  502  0.00000000000E+00  0.00000000000E+00  0.11121599876E+03  0.11121599876E+03  0.00000000000E+00 0. -1.
         21   -1    0    0  502  503 -0.00000000000E+00 -0.00000000000E+00 -0.47162098652E+01  0.47162098652E+01  0.00000000000E+00 0. -1.
          2    1    1    2  501    0 -0.17537769504E+02 -0.13455518176E+02  0.38086277540E+02  0.44036222197E+02  0.00000000000E+00 0. -1.
         -2    1    1    2    0  503  0.17537769504E+02  0.13455518176E+02  0.68413511355E+02  0.71895986428E+02  0.00000000000E+00 0.  1.
<mgrwt>
<rscale>  2 0.22104849E+02</rscale>
<asrwt>0</asrwt>
<pdfrwt beam="1">  1       21 0.17110152E-01 0.22104849E+02</pdfrwt>
<pdfrwt beam="2">  1       21 0.72557083E-03 0.22104849E+02</pdfrwt>
<totfact> 0.12892053E+08</totfact>
</mgrwt>
</event>
<event>
 4    1  0.7521660E+004  0.2570851E+02  0.7546771E-02  0.1651029E+00
         21   -1    0    0  501  502  0.00000000000E+00  0.00000000000E+00  0.43428622630E+01  0.43428622630E+01  0.00000000000E+00 0. -1.
         21   -1    0    0  502  503 -0.00000000000E+00 -0.00000000000E+00 -0.15474952158E+03  0.15474952158E+03  0.00000000000E+00 0. -1.
          5    1    1    2  501    0  0.16748482478E+02  0.19504251024E+02 -0.64967271074E+02  0.69868975834E+02  0.00000000000E+00 0. -1.
         -5    1    1    2    0  503 -0.16748482478E+02 -0.19504251024E+02 -0.85439388243E+02  0.89223408008E+02  0.00000000000E+00 0.  1.
<mgrwt>
<rscale>  2 0.25708510E+02</rscale>
<asrwt>0</asrwt>
<pdfrwt beam="1">  1       21 0.66813271E-03 0.25708510E+02</pdfrwt>
<pdfrwt beam="2">  1       21 0.23807617E-01 0.25708510E+02</pdfrwt>
<totfact> 0.85201509E+07</totfact>
</mgrwt>
</event>
<event>
 4    1  0.7521660E+004  0.2490796E+02  0.7546771E-02  0.1662327E+00
         21   -1    0    0  503  502  0.00000000000E+00  0.00000000000E+00  0.28325291677E+02  0.28325291677E+02  0.00000000000E+00 0.  1.
         21   -1    0    0  501  503 -0.00000000000E+00 -0.00000000000E+00 -0.26074775918E+02  0.26074775918E+02  0.00000000000E+00 0.  1.
          1    1    1    2  501    0 -0.16855625872E+02 -0.18338331212E+02  0.12005134067E+02  0.27650131268E+02  0.00000000000E+00 0. -1.
         -1    1    1    2    0  502  0.16855625872E+02  0.18338331212E+02 -0.97546183068E+01  0.26749936327E+02  0.00000000000E+00 0.  1.
<mgrwt>
<rscale>  2 0.24907961E+02</rscale>
<asrwt>0</asrwt>
<pdfrwt beam="1">  1       21 0.43577372E-02 0.24907961E+02</pdfrwt>
<pdfrwt beam="2">  1       21 0.40115040E-02 0.24907961E+02</pdfrwt>
<totfact> 0.92468123E+07</totfact>
</mgrwt>
</event>
<event>
 4    1  0.7521660E+004  0.3709280E+02  0.7546771E-02  0.1530764E+00
         21   -1    0    0  503  502  0.00000000000E+00  0.00000000000E+00  0.20443537686E+02  0.20443537686E+02  0.00000000000E+00 0.  1.
         21   -1    0    0  501  503 -0.00000000000E+00 -0.00000000000E+00 -0.67317961336E+02  0.67317961336E+02  0.00000000000E+00 0.  1.
          2    1    1    2  501    0  0.59299484210E+01  0.36615728525E+02 -0.22746061746E+02  0.43511598323E+02  0.00000000000E+00 0.  1.
         -2    1    1    2    0  502 -0.59299484210E+01 -0.36615728525E+02 -0.24128361904E+02  0.44249900699E+02  0.00000000000E+00 0. -1.
<mgrwt>
<rscale>  2 0.37092801E+02</rscale>
<asrwt>0</asrwt>
<pdfrwt beam="1">  1       21 0.31451596E-02 0.37092801E+02</pdfrwt>
<pdfrwt beam="2">  1       21 0.10356609E-01 0.37092801E+02</pdfrwt>
<totfact> 0.36141734E+07</totfact>
</mgrwt>
</event>
<event>
 4    1  0.7521660E+004  0.3617546E+02  0.7546771E-02  0.1538403E+00
         21   -1    0    0  503  502  0.00000000000E+00  0.00000000000E+00  0.51731631816E+03  0.51731631816E+03  0.00000000000E+00 0. -1.
         21   -1    0    0  501  503 -0.00000000000E+00 -0.00000000000E+00 -0.25740085836E+01  0.25740085836E+01  0.00000000000E+00 0. -1.
          2    1    1    2  501    0  0.34714856178E+02  0.10175600691E+02  0.29146966558E+03  0.29370602657E+03  0.00000000000E+00 0. -1.
         -2    1    1    2    0  502 -0.34714856178E+02 -0.10175600691E+02  0.22327264400E+03  0.22618430018E+03  0.00000000000E+00 0.  1.
<mgrwt>
<rscale>  2 0.36175463E+02</rscale>
<asrwt>0</asrwt>
<pdfrwt beam="1">  1       21 0.79587043E-01 0.36175463E+02</pdfrwt>
<pdfrwt beam="2">  1       21 0.39600173E-03 0.36175463E+02</pdfrwt>
<totfact> 0.19140654E+07</totfact>
</mgrwt>
</event>
<event>
 4    1  0.7521660E+004  0.3663077E+02  0.7546771E-02  0.1534578E+00
         21   -1    0    0  503  502  0.00000000000E+00  0.00000000000E+00  0.82089353001E+01  0.82089353001E+01  0.00000000000E+00 0. -1.
         21   -1    0    0  501  503 -0.00000000000E+00 -0.00000000000E+00 -0.17555365874E+03  0.17555365874E+03  0.00000000000E+00 0. -1.
          2    1    1    2  501    0  0.36614054428E+02 -0.11065381325E+01 -0.59554270963E+02  0.69917984798E+02  0.00000000000E+00 0. -1.
         -2    1    1    2    0  502 -0.36614054428E+02  0.11065381325E+01 -0.10779045248E+03  0.11384460924E+03  0.00000000000E+00 0.  1.
<mgrwt>
<rscale>  2 0.36630771E+02</rscale>
<asrwt>0</asrwt>
<pdfrwt beam="1">  1       21 0.12629132E-02 0.36630771E+02</pdfrwt>
<pdfrwt beam="2">  1       21 0.27008254E-01 0.36630771E+02</pdfrwt>
<totfact> 0.27884069E+07</totfact>
</mgrwt>
</event>
<event>
 4    1  0.7521660E+004  0.2551156E+02  0.7546771E-02  0.1653761E+00
         21   -1    0    0  503  502  0.00000000000E+00  0.00000000000E+00  0.49922098961E+02  0.49922098961E+02  0.00000000000E+00 0. -1.
         21   -1    0    0  501  503 -0.00000000000E+00 -0.00000000000E+00 -0.13374426806E+02  0.13374426806E+02  0.00000000000E+00 0. -1.
          4    1    1    2  501    0  0.16107922635E+02  0.19783187529E+02  0.23299969955E+02  0.34550373086E+02  0.00000000000E+00 0. -1.
         -4    1    1    2    0  502 -0.16107922635E+02 -0.19783187529E+02  0.13247702200E+02  0.28746152682E+02  0.00000000000E+00 0.  1.
<mgrwt>
<rscale>  2 0.25511560E+02</rscale>
<asrwt>0</asrwt>
<pdfrwt beam="1">  1       21 0.76803229E-02 0.25511560E+02</pdfrwt>
<pdfrwt beam="2">  1       21 0.20576041E-02 0.25511560E+02</pdfrwt>
<totfact> 0.10592748E+08</totfact>
</mgrwt>
</event>
<event>
 4    1  0.7521660E+004  0.2167983E+02  0.7546771E-02  0.1713849E+00
         21   -1    0    0  501  502  0.00000000000E+00  0.00000000000E+00  0.22670938414E+02  0.22670938414E+02  0.00000000000E+00 0.  1.
         21   -1    0    0  502  503 -0.00000000000E+00 -0.00000000000E+00 -0.22338198870E+02  0.22338198870E+02  0.00000000000E+00 0.  1.
          1    1    1    2  501    0 -0.13720229057E+02  0.16786012639E+02 -0.58681157348E+01  0.22459957434E+02  0.00000000000E+00 0. -1.
         -1    1    1    2    0  503  0.13720229057E+02 -0.16786012639E+02  0.62008552792E+01  0.22549179849E+02  0.00000000000E+00 0.  1.
<mgrwt>
<rscale>  2 0.21679827E+02</rscale>
<asrwt>0</asrwt>
<pdfrwt beam="1">  1       21 0.34878367E-02 0.21679827E+02</pdfrwt>
<pdfrwt beam="2">  1       21 0.34366460E-02 0.21679827E+02</pdfrwt>
<totfact> 0.16074284E+08</totfact>
</mgrwt>
</event>
<event>
 4    1  0.7521660E+004  0.2571501E+02  0.7546771E-02  0.1650939E+00
         21   -1    0    0  503  502  0.00000000000E+00  0.00000000000E+00  0.54630282994E+01  0.54630282994E+01  0.00000000000E+00 0. -1.
         21   -1    0    0  501  503 -0.00000000000E+00 -0.00000000000E+00 -0.12335200209E+03  0.12335200209E+03  0.00000000000E+00 0. -1.
          2    1    1    2  501    0  0.25170572788E+02  0.52634547390E+01 -0.50132588500E+02  0.56343039676E+02  0.00000000000E+00 0. -1.
         -2    1    1    2    0  502 -0.25170572788E+02 -0.52634547390E+01 -0.67756385293E+02  0.72471990715E+02  0.00000000000E+00 0.  1.
<mgrwt>
<rscale>  2 0.25715009E+02</rscale>
<asrwt>0</asrwt>
<pdfrwt beam="1">  1       21 0.84046591E-03 0.25715009E+02</pdfrwt>
<pdfrwt beam="2">  1       21 0.18977231E-01 0.25715009E+02</pdfrwt>
<totfact> 0.90168444E+07</totfact>
</mgrwt>
</event>
<event>
 4    1  0.7521660E+004  0.2330210E+02  0.7546771E-02  0.1686659E+00
         21   -1    0    0  503  502  0.00000000000E+00  0.00000000000E+00  0.56741784756E+01  0.56741784756E+01  0.00000000000E+00 0. -1.
         21   -1    0    0  501  503 -0.00000000000E+00 -0.00000000000E+00 -0.10269459033E+03  0.10269459033E+03  0.00000000000E+00 0. -1.
          4    1    1    2  501    0  0.18777432862E+02 -0.13798397373E+02 -0.34363617138E+02  0.41519223713E+02  0.00000000000E+00 0. -1.
         -4    1    1    2    0  502 -0.18777432862E+02  0.13798397373E+02 -0.62656794718E+02  0.66849545094E+02  0.00000000000E+00 0.  1.
<mgrwt>
<rscale>  2 0.23302098E+02</rscale>
<asrwt>0</asrwt>
<pdfrwt beam="1">  1       21 0.87295061E-03 0.23302098E+02</pdfrwt>
<pdfrwt beam="2">  1       21 0.15799166E-01 0.23302098E+02</pdfrwt>
<totfact> 0.11387408E+08</totfact>
</mgrwt>
</event>
<event>
 4    1  0.7521660E+004  0.3077333E+02  0.7546771E-02  0.1589695E+00
         21   -1    0    0  501  502  0.00000000000E+00  0.00000000000E+00  0.27259538730E+02  0.27259538730E+02  0.00000000000E+00 0.  1.
         21   -1    0    0  502  503 -0.00000000000E+00 -0.00000000000E+00 -0.36963436170E+02  0.36963436170E+02  0.00000000000E+00 0.  1.
          5    1    1    2  501    0 -0.15820826180E+01 -0.30732631447E+02  0.30236236234E+01  0.30921512267E+02  0.00000000000E+00 0.  1.
         -5    1    1    2    0  503  0.15820826180E+01  0.30732631447E+02 -0.12727521063E+02  0.33301462633E+02  0.00000000000E+00 0. -1.
<mgrwt>
<rscale>  2 0.30773326E+02</rscale>
<asrwt>0</asrwt>
<pdfrwt beam="1">  1       21 0.41937752E-02 0.30773326E+02</pdfrwt>
<pdfrwt beam="2">  1       21 0.56866825E-02 0.30773326E+02</pdfrwt>
<totfact> 0.59253172E+07</totfact>
</mgrwt>
</event>
<event>
 4    1  0.7521660E+004  0.2586707E+02  0.7546771E-02  0.1648851E+00
         21   -1    0    0  501  502  0.00000000000E+00  0.00000000000E+00  0.34412773973E+02  0.34412773973E+02  0.00000000000E+00 0.  1.
         21   -1    0    0  502  503 -0.00000000000E+00 -0.00000000000E+00 -0.29009089569E+02  0.29009089569E+02  0.00000000000E+00 0.  1.
          5    1    1    2  501    0 -0.14432683574E+02 -0.21466325498E+02 -0.15507629811E+02  0.30159444092E+02  0.00000000000E+00 0. -1.
         -5    1    1    2    0  503  0.14432683574E+02  0.21466325498E+02  0.20911314215E+02  0.33262419451E+02  0.00000000000E+00 0.  1.
<mgrwt>
<rscale>  2 0.25867073E+02</rscale>
<asrwt>0</asrwt>
<pdfrwt beam="1">  1       21 0.52942729E-02 0.25867073E+02</pdfrwt>
<pdfrwt beam="2">  1       21 0.44629369E-02 0.25867073E+02</pdfrwt>
<totfact> 0.57788803E+07</totfact>
</mgrwt>
</event>
<event>
 4    1  0.7521660E+004  0.2891957E+02  0.7546771E-02  0.1610348E+00
         21   -1    0    0  501  502  0.00000000000E+00  0.00000000000E+00  0.12622884886E+03  0.12622884886E+03  0.00000000000E+00 0.  1.
         21   -1    0    0  502  503 -0.00000000000E+00 -0.00000000000E+00 -0.67343740226E+01  0.67343740226E+01  0.00000000000E+00 0.  1.
          3    1    1    2  501    0 -0.19378404072E+02 -0.21466697296E+02  0.68196504847E+02  0.74074995177E+02  0.00000000000E+00 0. -1.
         -3    1    1    2    0  503  0.19378404072E+02  0.21466697296E+02  0.51297969993E+02  0.58888227708E+02  0.00000000000E+00 0.  1.
<mgrwt>
<rscale>  2 0.28919572E+02</rscale>
<asrwt>0</asrwt>
<pdfrwt beam="1">  1       21 0.19419821E-01 0.28919572E+02</pdfrwt>
<pdfrwt beam="2">  1       21 0.10360576E-02 0.28919572E+02</pdfrwt>
<totfact> 0.64999023E+07</totfact>
</mgrwt>
</event>
<event>
 4    1  0.7521660E+004  0.2201394E+02  0.7546771E-02  0.1708011E+00
         21   -1    0    0  501  502  0.00000000000E+00  0.00000000000E+00  0.38988001022E+02  0.38988001022E+02  0.00000000000E+00 0. -1.
         21   -1    0    0  502  503 -0.00000000000E+00 -0.00000000000E+00 -0.12432793342E+02  0.12432793342E+02  0.00000000000E+00 0. -1.
          2    1    1    2  501    0  0.20297596562E+02 -0.85217954898E+01  0.12879300367E+02  0.25504701576E+02  0.00000000000E+00 0.  1.
         -2    1    1    2    0  503 -0.20297596562E+02  0.85217954898E+01  0.13675907313E+02  0.25916092788E+02  0.00000000000E+00 0. -1.
<mgrwt>
<rscale>  2 0.22013937E+02</rscale>
<asrwt>0</asrwt>
<pdfrwt beam="1">  1       21 0.59981539E-02 0.22013937E+02</pdfrwt>
<pdfrwt beam="2">  1       21 0.19127375E-02 0.22013937E+02</pdfrwt>
<totfact> 0.16936560E+08</totfact>
</mgrwt>
</event>
<event>
 4    1  0.7521660E+004  0.2016673E+02  0.7546771E-02  0.1742033E+00
         21   -1    0    0  503  502  0.00000000000E+00  0.00000000000E+00  0.57316312911E+01  0.57316312911E+01  0.00000000000E+00 0. -1.
         21   -1    0    0  501  503 -0.00000000000E+00 -0.00000000000E+00 -0.71375859249E+02  0.71375859249E+02  0.00000000000E+00 0. -1.
          4    1    1    2  501    0 -0.19043214166E+02  0.66372495489E+01 -0.35776930755E+02  0.41069281240E+02  0.00000000000E+00 0.  1.
         -4    1    1    2    0  502  0.19043214166E+02 -0.66372495489E+01 -0.29867297203E+02  0.36038209300E+02  0.00000000000E+00 0. -1.
<mgrwt>
<rscale>  2 0.20166732E+02</rscale>
<asrwt>0</asrwt>
<pdfrwt beam="1">  1       21 0.88178947E-03 0.20166732E+02</pdfrwt>
<pdfrwt beam="2">  1       21 0.10980901E-01 0.20166732E+02</pdfrwt>
<totfact> 0.19803153E+08</totfact>
</mgrwt>
</event>
<event>
 4    1  0.7521660E+004  0.2367260E+02  0.7546771E-02  0.1680834E+00
         21   -1    0    0  501  502  0.00000000000E+00  0.00000000000E+00  0.91446758773E+01  0.91446758773E+01  0.00000000000E+00 0. -1.
         21   -1    0    0  502  503 -0.00000000000E+00 -0.00000000000E+00 -0.74034558777E+02  0.74034558777E+02  0.00000000000E+00 0. -1.
          5    1    1    2  501    0  0.22099843908E+02  0.84846378116E+01 -0.49706833826E+02  0.55055985220E+02  0.00000000000E+00 0.  1.
         -5    1    1    2    0  503 -0.22099843908E+02 -0.84846378116E+01 -0.15183049074E+02  0.28123249435E+02  0.00000000000E+00 0. -1.
<mgrwt>
<rscale>  2 0.23672604E+02</rscale>
<asrwt>0</asrwt>
<pdfrwt beam="1">  1       21 0.14068732E-02 0.23672604E+02</pdfrwt>
<pdfrwt beam="2">  1       21 0.11389932E-01 0.23672604E+02</pdfrwt>
<totfact> 0.96840017E+07</totfact>
</mgrwt>
</event>
<event>
 4    1  0.7521660E+004  0.2288141E+02  0.7546771E-02  0.1693440E+00
         21   -1    0    0  503  502  0.00000000000E+00  0.00000000000E+00  0.31761811002E+02  0.31761811002E+02  0.00000000000E+00 0. -1.
         21   -1    0    0  501  503 -0.00000000000E+00 -0.00000000000E+00 -0.16699637548E+02  0.16699637548E+02  0.00000000000E+00 0. -1.
          1    1    1    2  501    0 -0.22788696788E+02 -0.20576711945E+01  0.47770511815E+01  0.23374749839E+02  0.00000000000E+00 0. -1.
         -1    1    1    2    0  502  0.22788696788E+02  0.20576711945E+01  0.10285122273E+02  0.25086698711E+02  0.00000000000E+00 0.  1.
<mgrwt>
<rscale>  2 0.22881405E+02</rscale>
<asrwt>0</asrwt>
<pdfrwt beam="1">  1       21 0.48864324E-02 0.22881405E+02</pdfrwt>
<pdfrwt beam="2">  1       21 0.25691750E-02 0.22881405E+02</pdfrwt>
<totfact> 0.15099988E+08</totfact>
</mgrwt>
</event>
<event>
 4    1  0.7521660E+004  0.3455439E+02  0.7546771E-02  0.1552594E+00
         21   -1    0    0  501  502  0.00000000000E+00  0.00000000000E+00  0.85449482226E+00  0.85449482226E+00  0.00000000000E+00 0. -1.
         21   -1    0    0  502  503 -0.00000000000E+00 -0.00000000000E+00 -0.17520340899E+04  0.17520340899E+04  0.00000000000E+00 0. -1.
          5    1    1    2  501    0 -0.34042713240E+02  0.59245009918E+01 -0.12699470880E+04  0.12704171018E+04  0.00000000000E+00 0. -1.
         -5    1    1    2    0  503  0.34042713240E+02 -0.59245009918E+01 -0.48123250702E+03  0.48247148294E+03  0.00000000000E+00 0.  1.
<mgrwt>
<rscale>  2 0.34554392E+02</rscale>
<asrwt>0</asrwt>
<pdfrwt beam="1">  1       21 0.13146137E-03 0.34554392E+02</pdfrwt>
<pdfrwt beam="2">  1       21 0.26954242E+00 0.34554392E+02</pdfrwt>
<totfact> 0.46543820E+06</totfact>
</mgrwt>
</event>
<event>
 4    1  0.7521660E+004  0.2957166E+02  0.7546771E-02  0.1602872E+00
         21   -1    0    0  501  502  0.00000000000E+00  0.00000000000E+00  0.34048301770E+03  0.34048301770E+03  0.00000000000E+00 0. -1.
         21   -1    0    0  502  503 -0.00000000000E+00 -0.00000000000E+00 -0.27845093940E+01  0.27845093940E+01  0.00000000000E+00 0. -1.
          1    1    1    2  501    0 -0.72571727159E+00  0.29562753840E+02  0.21666875608E+03  0.21867746327E+03  0.00000000000E+00 0.  1.
         -1    1    1    2    0  503  0.72571727159E+00 -0.29562753840E+02  0.12102975222E+03  0.12459006382E+03  0.00000000000E+00 0. -1.
<mgrwt>
<rscale>  2 0.29571660E+02</rscale>
<asrwt>0</asrwt>
<pdfrwt beam="1">  1       21 0.52381970E-01 0.29571660E+02</pdfrwt>
<pdfrwt beam="2">  1       21 0.42838633E-03 0.29571660E+02</pdfrwt>
<totfact> 0.38873374E+07</totfact>
</mgrwt>
</event>
<event>
 4    1  0.7521660E+004  0.2636307E+02  0.7546771E-02  0.1642162E+00
         21   -1    0    0  503  502  0.00000000000E+00  0.00000000000E+00  0.40536412024E+02  0.40536412024E+02  0.00000000000E+00 0.  1.
         21   -1    0    0  501  503 -0.00000000000E+00 -0.00000000000E+00 -0.20326776777E+02  0.20326776777E+02  0.00000000000E+00 0.  1.
          4    1    1    2  501    0 -0.11323485088E+02 -0.23807358986E+02 -0.19344553452E+01  0.26433951160E+02  0.00000000000E+00 0. -1.
         -4    1    1    2    0  502  0.11323485088E+02  0.23807358986E+02  0.22144090592E+02  0.34429237642E+02  0.00000000000E+00 0.  1.
<mgrwt>
<rscale>  2 0.26363074E+02</rscale>
<asrwt>0</asrwt>
<pdfrwt beam="1">  1       21 0.62363711E-02 0.26363074E+02</pdfrwt>
<pdfrwt beam="2">  1       21 0.31271964E-02 0.26363074E+02</pdfrwt>
<totfact> 0.78204450E+07</totfact>
</mgrwt>
</event>
<event>
 4    1  0.7521660E+004  0.2028864E+02  0.7546771E-02  0.1739648E+00
         21   -1    0    0  503  502  0.00000000000E+00  0.00000000000E+00  0.15714813169E+04  0.15714813169E+04  0.00000000000E+00 0.  1.
         21   -1    0    0  501  503 -0.00000000000E+00 -0.00000000000E+00 -0.26613441423E+00  0.26613441423E+00  0.00000000000E+00 0.  1.
          4    1    1    2  501    0  0.18178157644E+02  0.90101774818E+01  0.88430504359E+03  0.88453775433E+03  0.00000000000E+00 0. -1.
         -4    1    1    2    0  502 -0.18178157644E+02 -0.90101774818E+01  0.68691013889E+03  0.68720969698E+03  0.00000000000E+00 0.  1.
<mgrwt>
<rscale>  2 0.20288635E+02</rscale>
<asrwt>0</asrwt>
<pdfrwt beam="1">  1       21 0.24175893E+00 0.20288635E+02</pdfrwt>
<pdfrwt beam="2">  1       21 0.40945014E-04 0.20288635E+02</pdfrwt>
<totfact> 0.32519284E+07</totfact>
</mgrwt>
</event>
<event>
 4    1  0.7521660E+004  0.3221445E+02  0.7546771E-02  0.1574826E+00
         21   -1    0    0  501  502  0.00000000000E+00  0.00000000000E+00  0.37447750768E+01  0.37447750768E+01  0.00000000000E+00 0. -1.
         21   -1    0    0  502  503 -0.00000000000E+00 -0.00000000000E+00 -0.28412779077E+03  0.28412779077E+03  0.00000000000E+00 0. -1.
          3    1    1    2  501    0 -0.25209092631E+00  0.32213460209E+02 -0.11759450387E+03  0.12192718282E+03  0.00000000000E+00 0. -1.
         -3    1    1    2    0  503  0.25209092631E+00 -0.32213460209E+02 -0.16278851182E+03  0.16594538303E+03  0.00000000000E+00 0.  1.
<mgrwt>
<rscale>  2 0.32214447E+02</rscale>
<asrwt>0</asrwt>
<pdfrwt beam="1">  1       21 0.57611929E-03 0.32214447E+02</pdfrwt>
<pdfrwt beam="2">  1       21 0.43711965E-01 0.32214447E+02</pdfrwt>
<totfact> 0.36202236E+07</totfact>
</mgrwt>
</event>
<event>
 4    1  0.7521660E+004  0.4626435E+02  0.7546771E-02  0.1466599E+00
         21   -1    0    0  503  502  0.00000000000E+00  0.00000000000E+00  0.40949020152E+03  0.40949020152E+03  0.00000000000E+00 0. -1.
         21   -1    0    0  501  503 -0.00000000000E+00 -0.00000000000E+00 -0.52589880416E+01  0.52589880416E+01  0.00000000000E+00 0. -1.
          3    1    1    2  501    0 -0.46257328886E+02  0.80576616001E+00  0.18593272389E+03  0.19160210737E+03  0.00000000000E+00 0.  1.
         -3    1    1    2    0  502  0.46257328886E+02 -0.80576616001E+00  0.21829848959E+03  0.22314708219E+03  0.00000000000E+00 0. -1.
<mgrwt>
<rscale>  2 0.46264346E+02</rscale>
<asrwt>0</asrwt>
<pdfrwt beam="1">  1       21 0.62998467E-01 0.46264346E+02</pdfrwt>
<pdfrwt beam="2">  1       21 0.80907541E-03 0.46264346E+02</pdfrwt>
<totfact> 0.11009906E+07</totfact>
</mgrwt>
</event>
<event>
 4    1  0.7521660E+004  0.3687219E+02  0.7546771E-02  0.1532577E+00
         21   -1    0    0  503  502  0.00000000000E+00  0.00000000000E+00  0.86083897453E+01  0.86083897453E+01  0.00000000000E+00 0.  1.
         21   -1    0    0  501  503 -0.00000000000E+00 -0.00000000000E+00 -0.41216477606E+03  0.41216477606E+03  0.00000000000E+00 0.  1.
          4    1    1    2  501    0 -0.33644704867E+02 -0.15086157525E+02 -0.36701111262E+03  0.36885866548E+03  0.00000000000E+00 0. -1.
         -4    1    1    2    0  502  0.33644704867E+02  0.15086157525E+02 -0.36545273696E+02  0.51914500325E+02  0.00000000000E+00 0.  1.
<mgrwt>
<rscale>  2 0.36872189E+02</rscale>
<asrwt>0</asrwt>
<pdfrwt beam="1">  1       21 0.13243676E-02 0.36872189E+02</pdfrwt>
<pdfrwt beam="2">  1       21 0.63409968E-01 0.36872189E+02</pdfrwt>
<totfact> 0.49791071E+06</totfact>
</mgrwt>
</event>
<event>
 4    1  0.7521660E+004  0.2508029E+02  0.7546771E-02  0.1659851E+00
         21   -1    0    0  503  502  0.00000000000E+00  0.00000000000E+00  0.30596645496E+02  0.30596645496E+02  0.00000000000E+00 0. -1.
         21   -1    0    0  501  503 -0.00000000000E+00 -0.00000000000E+00 -0.20558624587E+02  0.20558624587E+02  0.00000000000E+00 0. -1.
          5    1    1    2  501    0  0.20051732285E+02  0.15064821179E+02  0.49533634864E+01  0.25564753365E+02  0.00000000000E+00 0. -1.
         -5    1    1    2    0  502 -0.20051732285E+02 -0.15064821179E+02  0.50846574222E+01  0.25590516718E+02  0.00000000000E+00 0.  1.
<mgrwt>
<rscale>  2 0.25080287E+02</rscale>
<asrwt>0</asrwt>
<pdfrwt beam="1">  1       21 0.47071762E-02 0.25080287E+02</pdfrwt>
<pdfrwt beam="2">  1       21 0.31628653E-02 0.25080287E+02</pdfrwt>
<totfact> 0.11910320E+08</totfact>
</mgrwt>
</event>
<event>
 4    1  0.7521660E+004  0.2388308E+02  0.7546771E-02  0.1677583E+00
         21   -1    0    0  503  502  0.00000000000E+00  0.00000000000E+00  0.23608273481E+00  0.23608273481E+00  0.00000000000E+00 0.  1.
         21   -1    0    0  501  503 -0.00000000000E+00 -0.00000000000E+00 -0.24210178464E+04  0.24210178464E+04  0.00000000000E+00 0.  1.
          4    1    1    2  501    0 -0.13761902051E+02  0.19519519603E+02 -0.12649046335E+04  0.12651300856E+04  0.00000000000E+00 0.  1.
         -4    1    1    2    0  502  0.13761902051E+02 -0.19519519603E+02 -0.11558771302E+04  0.11561238435E+04  0.00000000000E+00 0. -1.
<mgrwt>
<rscale>  2 0.23883082E+02</rscale>
<asrwt>0</asrwt>
<pdfrwt beam="1">  1       21 0.36322122E-04 0.23883082E+02</pdfrwt>
<pdfrwt beam="2">  1       21 0.37244684E+00 0.23883082E+02</pdfrwt>
<totfact> 0.88821921E+06</totfact>
</mgrwt>
</event>
<event>
 4    1  0.7521660E+004  0.7123682E+02  0.7546771E-02  0.1355937E+00
         21   -1    0    0  501  502  0.00000000000E+00  0.00000000000E+00  0.41708366226E+03  0.41708366226E+03  0.00000000000E+00 0.  1.
         21   -1    0    0  502  503 -0.00000000000E+00 -0.00000000000E+00 -0.12756020300E+02  0.12756020300E+02  0.00000000000E+00 0.  1.
          3    1    1    2  501    0 -0.62495595617E+02 -0.34190420636E+02  0.15598319587E+03  0.17148014966E+03  0.00000000000E+00 0.  1.
         -3    1    1    2    0  503  0.62495595617E+02  0.34190420636E+02  0.24834444609E+03  0.25835953289E+03  0.00000000000E+00 0. -1.
<mgrwt>
<rscale>  2 0.71236819E+02</rscale>
<asrwt>0</asrwt>
<pdfrwt beam="1">  1       21 0.64166707E-01 0.71236819E+02</pdfrwt>
<pdfrwt beam="2">  1       21 0.19624650E-02 0.71236819E+02</pdfrwt>
<totfact> 0.27628702E+06</totfact>
</mgrwt>
</event>
<event>
 4    1  0.7521660E+004  0.2383089E+02  0.7546771E-02  0.1678385E+00
         21   -1    0    0  501  502  0.00000000000E+00  0.00000000000E+00  0.49654186803E+02  0.49654186803E+02  0.00000000000E+00 0.  1.
         21   -1    0    0  502  503 -0.00000000000E+00 -0.00000000000E+00 -0.11471898902E+02  0.11471898902E+02  0.00000000000E+00 0.  1.
          3    1    1    2  501    0  0.19072882442E+02 -0.14287634866E+02  0.20768855824E+02  0.31611022239E+02  0.00000000000E+00 0.  1.
         -3    1    1    2    0  503 -0.19072882442E+02  0.14287634866E+02  0.17413432076E+02  0.29515063466E+02  0.00000000000E+00 0. -1.
<mgrwt>
<rscale>  2 0.23830891E+02</rscale>
<asrwt>0</asrwt>
<pdfrwt beam="1">  1       21 0.76391055E-02 0.23830891E+02</pdfrwt>
<pdfrwt beam="2">  1       21 0.17649076E-02 0.23830891E+02</pdfrwt>
<totfact> 0.13272001E+08</totfact>
</mgrwt>
</event>
<event>
 4    1  0.7521660E+004  0.2061273E+02  0.7546771E-02  0.1733411E+00
         21   -1    0    0  501  502  0.00000000000E+00  0.00000000000E+00  0.67239198875E+01  0.67239198875E+01  0.00000000000E+00 0. -1.
         21   -1    0    0  502  503 -0.00000000000E+00 -0.00000000000E+00 -0.64985277886E+02  0.64985277886E+02  0.00000000000E+00 0. -1.
          4    1    1    2  501    0  0.20588340378E+02 -0.10025023512E+01 -0.35090021020E+02  0.40696367721E+02  0.00000000000E+00 0. -1.
         -4    1    1    2    0  503 -0.20588340378E+02  0.10025023512E+01 -0.23171336978E+02  0.31012830052E+02  0.00000000000E+00 0.  1.
<mgrwt>
<rscale>  2 0.20612733E+02</rscale>
<asrwt>0</asrwt>
<pdfrwt beam="1">  1       21 0.10344492E-02 0.20612733E+02</pdfrwt>
<pdfrwt beam="2">  1       21 0.99977355E-02 0.20612733E+02</pdfrwt>
<totfact> 0.18341889E+08</totfact>
</mgrwt>
</event>
<event>
 4    1  0.7521660E+004  0.2348556E+02  0.7546771E-02  0.1683758E+00
         21   -1    0    0  503  502  0.00000000000E+00  0.00000000000E+00  0.14848207667E+03  0.14848207667E+03  0.00000000000E+00 0.  1.
         21   -1    0    0  501  503 -0.00000000000E+00 -0.00000000000E+00 -0.45986929626E+01  0.45986929626E+01  0.00000000000E+00 0.  1.
          1    1    1    2  501    0 -0.12311732678E+02  0.19999814203E+02  0.38384189211E+02  0.44999081225E+02  0.00000000000E+00 0. -1.
         -1    1    1    2    0  502  0.12311732678E+02 -0.19999814203E+02  0.10549919450E+03  0.10808168841E+03  0.00000000000E+00 0.  1.
<mgrwt>
<rscale>  2 0.23485556E+02</rscale>
<asrwt>0</asrwt>
<pdfrwt beam="1">  1       21 0.22843393E-01 0.23485556E+02</pdfrwt>
<pdfrwt beam="2">  1       21 0.70749134E-03 0.23485556E+02</pdfrwt>
<totfact> 0.82271188E+07</totfact>
</mgrwt>
</event>
<event>
 4    1  0.7521660E+004  0.2068810E+02  0.7546771E-02  0.1731981E+00
         21   -1    0    0  501  502  0.00000000000E+00  0.00000000000E+00  0.19173946693E+02  0.19173946693E+02  0.00000000000E+00 0.  1.
         21   -1    0    0  502  503 -0.00000000000E+00 -0.00000000000E+00 -0.22325460266E+02  0.22325460266E+02  0.00000000000E+00 0.  1.
          2    1    1    2  501    0  0.20624244619E+02  0.16241434927E+01 -0.18408646386E+01  0.20769836080E+02  0.00000000000E+00 0.  1.
         -2    1    1    2    0  503 -0.20624244619E+02 -0.16241434927E+01 -0.13106489353E+01  0.20729570879E+02  0.00000000000E+00 0. -1.
<mgrwt>
<rscale>  2 0.20688096E+02</rscale>
<asrwt>0</asrwt>
<pdfrwt beam="1">  1       21 0.29498379E-02 0.20688096E+02</pdfrwt>
<pdfrwt beam="2">  1       21 0.34346862E-02 0.20688096E+02</pdfrwt>
<totfact> 0.20573417E+08</totfact>
</mgrwt>
</event>
<event>
 4    1  0.7521660E+004  0.4909881E+02  0.7546771E-02  0.1450264E+00
         21   -1    0    0  501  502  0.00000000000E+00  0.00000000000E+00  0.52359536768E+02  0.52359536768E+02  0.00000000000E+00 0. -1.
         21   -1    0    0  502  503 -0.00000000000E+00 -0.00000000000E+00 -0.65126246632E+02  0.65126246632E+02  0.00000000000E+00 0. -1.
          1    1    1    2  501    0 -0.47971372332E+02  0.10461368961E+02  0.25416459312E+02  0.55287333160E+02  0.00000000000E+00 0.  1.
         -1    1    1    2    0  503  0.47971372332E+02 -0.10461368961E+02 -0.38183169176E+02  0.62198450240E+02  0.00000000000E+00 0. -1.
<mgrwt>
<rscale>  2 0.49098807E+02</rscale>
<asrwt>0</asrwt>
<pdfrwt beam="1">  1       21 0.80553134E-02 0.49098807E+02</pdfrwt>
<pdfrwt beam="2">  1       21 0.10019423E-01 0.49098807E+02</pdfrwt>
<totfact> 0.86118136E+06</totfact>
</mgrwt>
</event>
<event>
 4    1  0.7521660E+004  0.2540403E+02  0.7546771E-02  0.1655266E+00
         21   -1    0    0  503  502  0.00000000000E+00  0.00000000000E+00  0.32919719981E+02  0.32919719981E+02  0.00000000000E+00 0. -1.
         21   -1    0    0  501  503 -0.00000000000E+00 -0.00000000000E+00 -0.21920915941E+02  0.21920915941E+02  0.00000000000E+00 0. -1.
          4    1    1    2  501    0  0.24721613962E+02 -0.58486352618E+01  0.14413546205E+02  0.29208133209E+02  0.00000000000E+00 0.  1.
         -4    1    1    2    0  502 -0.24721613962E+02  0.58486352618E+01 -0.34147421651E+01  0.25632502714E+02  0.00000000000E+00 0. -1.
<mgrwt>
<rscale>  2 0.25404030E+02</rscale>
<asrwt>0</asrwt>
<pdfrwt beam="1">  1       21 0.50645723E-02 0.25404030E+02</pdfrwt>
<pdfrwt beam="2">  1       21 0.33724486E-02 0.25404030E+02</pdfrwt>
<totfact> 0.96160584E+07</totfact>
</mgrwt>
</event>
<event>
 4    1  0.7521660E+004  0.3368614E+02  0.7546771E-02  0.1560587E+00
         21   -1    0    0  501  502  0.00000000000E+00  0.00000000000E+00  0.21100959738E+02  0.21100959738E+02  0.00000000000E+00 0. -1.
         21   -1    0    0  502  503 -0.00000000000E+00 -0.00000000000E+00 -0.66726895732E+02  0.66726895732E+02  0.00000000000E+00 0. -1.
          5    1    1    2  501    0 -0.19374360545E+02  0.27557032037E+02 -0.34675833453E+01  0.33864140259E+02  0.00000000000E+00 0. -1.
         -5    1    1    2    0  503  0.19374360545E+02 -0.27557032037E+02 -0.42158352649E+02  0.53963715210E+02  0.00000000000E+00 0.  1.
<mgrwt>
<rscale>  2 0.33686138E+02</rscale>
<asrwt>0</asrwt>
<pdfrwt beam="1">  1       21 0.32463016E-02 0.33686138E+02</pdfrwt>
<pdfrwt beam="2">  1       21 0.10265676E-01 0.33686138E+02</pdfrwt>
<totfact> 0.34249977E+07</totfact>
</mgrwt>
</event>
<event>
 4    1  0.7521660E+004  0.2252382E+02  0.7546771E-02  0.1699347E+00
         21   -1    0    0  501  502  0.00000000000E+00  0.00000000000E+00  0.15461914697E+01  0.15461914697E+01  0.00000000000E+00 0. -1.
         21   -1    0    0  502  503 -0.00000000000E+00 -0.00000000000E+00 -0.37341117487E+03  0.37341117487E+03  0.00000000000E+00 0. -1.
          1    1    1    2  501    0 -0.10917329089E+02 -0.19701121262E+02 -0.12063316195E+03  0.12271789607E+03  0.00000000000E+00 0.  1.
         -1    1    1    2    0  503  0.10917329089E+02  0.19701121262E+02 -0.25123182145E+03  0.25223947027E+03  0.00000000000E+00 0. -1.
<mgrwt>
<rscale>  2 0.22523815E+02</rscale>
<asrwt>0</asrwt>
<pdfrwt beam="1">  1       21 0.23787578E-03 0.22523815E+02</pdfrwt>
<pdfrwt beam="2">  1       21 0.57447833E-01 0.22523815E+02</pdfrwt>
<totfact> 0.72176216E+07</totfact>
</mgrwt>
</event>
<event>
 4    1  0.7521660E+004  0.2490911E+02  0.7546771E-02  0.1662311E+00
         21   -1    0    0  503  502  0.00000000000E+00  0.00000000000E+00  0.92987822383E+02  0.92987822383E+02  0.00000000000E+00 0. -1.
         21   -1    0    0  501  503 -0.00000000000E+00 -0.00000000000E+00 -0.74878933361E+01  0.74878933361E+01  0.00000000000E+00 0. -1.
          5    1    1    2  501    0  0.36955902260E+01 -0.24633438294E+02  0.26172125294E+02  0.36130925973E+02  0.00000000000E+00 0. -1.
         -5    1    1    2    0  502 -0.36955902260E+01  0.24633438294E+02  0.59327803753E+02  0.64344789746E+02  0.00000000000E+00 0.  1.
<mgrwt>
<rscale>  2 0.24909108E+02</rscale>
<asrwt>0</asrwt>
<pdfrwt beam="1">  1       21 0.14305818E-01 0.24909108E+02</pdfrwt>
<pdfrwt beam="2">  1       21 0.11519837E-02 0.24909108E+02</pdfrwt>
<totfact> 0.90508855E+07</totfact>
</mgrwt>
</event>
<event>
 4    1  0.7521660E+004  0.2405361E+02  0.7546771E-02  0.1674979E+00
         21   -1    0    0  501  502  0.00000000000E+00  0.00000000000E+00  0.47350497431E+01  0.47350497431E+01  0.00000000000E+00 0. -1.
         21   -1    0    0  502  503 -0.00000000000E+00 -0.00000000000E+00 -0.13479654396E+03  0.13479654396E+03  0.00000000000E+00 0. -1.
          2    1    1    2  501    0  0.23915520263E+02 -0.25737005487E+01 -0.43695383313E+02  0.49878477992E+02  0.00000000000E+00 0. -1.
         -2    1    1    2    0  503 -0.23915520263E+02  0.25737005487E+01 -0.86366110904E+02  0.89653115711E+02  0.00000000000E+00 0.  1.
<mgrwt>
<rscale>  2 0.24053608E+02</rscale>
<asrwt>0</asrwt>
<pdfrwt beam="1">  1       21 0.72846929E-03 0.24053608E+02</pdfrwt>
<pdfrwt beam="2">  1       21 0.20737927E-01 0.24053608E+02</pdfrwt>
<totfact> 0.93991273E+07</totfact>
</mgrwt>
</event>
<event>
 4    1  0.7521660E+004  0.2710726E+02  0.7546771E-02  0.1632458E+00
         21   -1    0    0  503  502  0.00000000000E+00  0.00000000000E+00  0.91725671538E+01  0.91725671538E+01  0.00000000000E+00 0. -1.
         21   -1    0    0  501  503 -0.00000000000E+00 -0.00000000000E+00 -0.80139036452E+02  0.80139036452E+02  0.00000000000E+00 0. -1.
          4    1    1    2  501    0  0.22631298661E+02  0.14920714532E+02 -0.34615914824E+02  0.43966634626E+02  0.00000000000E+00 0.  1.
         -4    1    1    2    0  502 -0.22631298661E+02 -0.14920714532E+02 -0.36350554474E+02  0.45344968979E+02  0.00000000000E+00 0. -1.
<mgrwt>
<rscale>  2 0.27107257E+02</rscale>
<asrwt>0</asrwt>
<pdfrwt beam="1">  1       21 0.14111642E-02 0.27107257E+02</pdfrwt>
<pdfrwt beam="2">  1       21 0.12329083E-01 0.27107257E+02</pdfrwt>
<totfact> 0.87431259E+07</totfact>
</mgrwt>
</event>
<event>
 4    1  0.7521660E+004  0.2042979E+02  0.7546771E-02  0.1736914E+00
         21   -1    0    0  503  502  0.00000000000E+00  0.00000000000E+00  0.52201452248E+02  0.52201452248E+02  0.00000000000E+00 0. -1.
         21   -1    0    0  501  503 -0.00000000000E+00 -0.00000000000E+00 -0.85267331269E+01  0.85267331269E+01  0.00000000000E+00 0. -1.
          3    1    1    2  501    0 -0.98780879920E+01 -0.17882941873E+02  0.29416418750E+02  0.35814828276E+02  0.00000000000E+00 0. -1.
         -3    1    1    2    0  502  0.98780879920E+01  0.17882941873E+02  0.14258300371E+02  0.24913357098E+02  0.00000000000E+00 0.  1.
<mgrwt>
<rscale>  2 0.20429788E+02</rscale>
<asrwt>0</asrwt>
<pdfrwt beam="1">  1       21 0.80309924E-02 0.20429788E+02</pdfrwt>
<pdfrwt beam="2">  1       21 0.13118051E-02 0.20429788E+02</pdfrwt>
<totfact> 0.18314393E+08</totfact>
</mgrwt>
</event>
<event>
 4    1  0.7521660E+004  0.2042999E+02  0.7546771E-02  0.1736910E+00
         21   -1    0    0  503  502  0.00000000000E+00  0.00000000000E+00  0.13859375267E+02  0.13859375267E+02  0.00000000000E+00 0. -1.
         21   -1    0    0  501  503 -0.00000000000E+00 -0.00000000000E+00 -0.35637082579E+02  0.35637082579E+02  0.00000000000E+00 0. -1.
          2    1    1    2  501    0  0.15114881466E+02  0.13744999506E+02 -0.20630163453E+02  0.29034260748E+02  0.00000000000E+00 0. -1.
         -2    1    1    2    0  502 -0.15114881466E+02 -0.13744999506E+02 -0.11475438595E+01  0.20462197097E+02  0.00000000000E+00 0.  1.
<mgrwt>
<rscale>  2 0.20429994E+02</rscale>
<asrwt>0</asrwt>
<pdfrwt beam="1">  1       21 0.21322116E-02 0.20429994E+02</pdfrwt>
<pdfrwt beam="2">  1       21 0.54826281E-02 0.20429994E+02</pdfrwt>
<totfact> 0.16175076E+08</totfact>
</mgrwt>
</event>
<event>
 4    1  0.7521660E+004  0.3908872E+02  0.7546771E-02  0.1515027E+00
         21   -1    0    0  501  502  0.00000000000E+00  0.00000000000E+00  0.62324672938E+02  0.62324672938E+02  0.00000000000E+00 0. -1.
         21   -1    0    0  502  503 -0.00000000000E+00 -0.00000000000E+00 -0.24521179797E+02  0.24521179797E+02  0.00000000000E+00 0. -1.
          5    1    1    2  501    0  0.17785141101E+02 -0.34808282423E+02  0.18247680779E+02  0.43138215344E+02  0.00000000000E+00 0.  1.
         -5    1    1    2    0  503 -0.17785141101E+02  0.34808282423E+02  0.19555812362E+02  0.43707637392E+02  0.00000000000E+00 0. -1.
<mgrwt>
<rscale>  2 0.39088717E+02</rscale>
<asrwt>0</asrwt>
<pdfrwt beam="1">  1       21 0.95884112E-02 0.39088717E+02</pdfrwt>
<pdfrwt beam="2">  1       21 0.37724892E-02 0.39088717E+02</pdfrwt>
<totfact> 0.31088831E+07</totfact>
</mgrwt>
</event>
<event>
 4    1  0.7521660E+004  0.2989762E+02  0.7546771E-02  0.1599223E+00
         21   -1    0    0  503  502  0.00000000000E+00  0.00000000000E+00  0.19108681381E+04  0.19108681381E+04  0.00000000000E+00 0. -1.
         21   -1    0    0  501  503 -0.00000000000E+00 -0.00000000000E+00 -0.66285200580E+00  0.66285200580E+00  0.00000000000E+00 0. -1.
          1    1    1    2  501    0  0.12566497059E-02  0.29897618633E+02  0.43661364858E+03  0.43763608823E+03  0.00000000000E+00 0.  1.
         -1    1    1    2    0  502 -0.12566497059E-02 -0.29897618633E+02  0.14735916375E+04  0.14738949019E+04  0.00000000000E+00 0. -1.
<mgrwt>
<rscale>  2 0.29897619E+02</rscale>
<asrwt>0</asrwt>
<pdfrwt beam="1">  1       21 0.29397530E+00 0.29897619E+02</pdfrwt>
<pdfrwt beam="2">  1       21 0.10197876E-03 0.29897619E+02</pdfrwt>
<totfact> 0.50600310E+06</totfact>
</mgrwt>
</event>
<event>
 4    1  0.7521660E+004  0.2295951E+02  0.7546771E-02  0.1692167E+00
         21   -1    0    0  503  502  0.00000000000E+00  0.00000000000E+00  0.33521149639E+02  0.33521149639E+02  0.00000000000E+00 0.  1.
         21   -1    0    0  501  503 -0.00000000000E+00 -0.00000000000E+00 -0.15895189512E+02  0.15895189512E+02  0.00000000000E+00 0.  1.
          3    1    1    2  501    0  0.74227425680E+01 -0.21726524045E+02  0.11365413572E+02  0.25618578805E+02  0.00000000000E+00 0. -1.
         -3    1    1    2    0  502 -0.74227425680E+01  0.21726524045E+02  0.62605465560E+01  0.23797760346E+02  0.00000000000E+00 0.  1.
<mgrwt>
<rscale>  2 0.22959507E+02</rscale>
<asrwt>0</asrwt>
<pdfrwt beam="1">  1       21 0.51570999E-02 0.22959507E+02</pdfrwt>
<pdfrwt beam="2">  1       21 0.24454138E-02 0.22959507E+02</pdfrwt>
<totfact> 0.14973023E+08</totfact>
</mgrwt>
</event>
<event>
 4    1  0.7521660E+004  0.2003142E+02  0.7546771E-02  0.1744704E+00
         21   -1    0    0  503  502  0.00000000000E+00  0.00000000000E+00  0.82341155723E+03  0.82341155723E+03  0.00000000000E+00 0.  1.
         21   -1    0    0  501  503 -0.00000000000E+00 -0.00000000000E+00 -0.52432446690E+00  0.52432446690E+00  0.00000000000E+00 0.  1.
          4    1    1    2  501    0 -0.17626910943E+02  0.95157667295E+01  0.30198722417E+03  0.30265085720E+03  0.00000000000E+00 0. -1.
         -4    1    1    2    0  502  0.17626910943E+02 -0.95157667295E+01  0.52090000859E+03  0.52128502449E+03  0.00000000000E+00 0.  1.
<mgrwt>
<rscale>  2 0.20031420E+02</rscale>
<asrwt>0</asrwt>
<pdfrwt beam="1">  1       21 0.12667767E+00 0.20031420E+02</pdfrwt>
<pdfrwt beam="2">  1       21 0.80665962E-04 0.20031420E+02</pdfrwt>
<totfact> 0.61589779E+07</totfact>
</mgrwt>
</event>
<event>
 4    1  0.7521660E+004  0.2454715E+02  0.7546771E-02  0.1667593E+00
         21   -1    0    0  503  502  0.00000000000E+00  0.00000000000E+00  0.54693955749E+02  0.54693955749E+02  0.00000000000E+00 0. -1.
         21   -1    0    0  501  503 -0.00000000000E+00 -0.00000000000E+00 -0.12340676406E+02  0.12340676406E+02  0.00000000000E+00 0. -1.
          2    1    1    2  501    0  0.15808761071E+02 -0.18778867555E+02  0.32153855872E+02  0.40452852071E+02  0.00000000000E+00 0. -1.
         -2    1    1    2    0  502 -0.15808761071E+02  0.18778867555E+02  0.10199423471E+02  0.26581780083E+02  0.00000000000E+00 0.  1.
<mgrwt>
<rscale>  2 0.24547154E+02</rscale>
<asrwt>0</asrwt>
<pdfrwt beam="1">  1       21 0.84144546E-02 0.24547154E+02</pdfrwt>
<pdfrwt beam="2">  1       21 0.18985656E-02 0.24547154E+02</pdfrwt>
<totfact> 0.10218328E+08</totfact>
</mgrwt>
</event>
<event>
 4    1  0.7521660E+004  0.2676858E+02  0.7546771E-02  0.1636826E+00
         21   -1    0    0  503  502  0.00000000000E+00  0.00000000000E+00  0.69943943714E+01  0.69943943714E+01  0.00000000000E+00 0. -1.
         21   -1    0    0  501  503 -0.00000000000E+00 -0.00000000000E+00 -0.10595270040E+03  0.10595270040E+03  0.00000000000E+00 0. -1.
          4    1    1    2  501    0  0.23150333354E+02  0.13439449827E+02 -0.39207070221E+02  0.47473688517E+02  0.00000000000E+00 0.  1.
         -4    1    1    2    0  502 -0.23150333354E+02 -0.13439449827E+02 -0.59751235808E+02  0.65473406255E+02  0.00000000000E+00 0. -1.
<mgrwt>
<rscale>  2 0.26768578E+02</rscale>
<asrwt>0</asrwt>
<pdfrwt beam="1">  1       21 0.10760607E-02 0.26768578E+02</pdfrwt>
<pdfrwt beam="2">  1       21 0.16300415E-01 0.26768578E+02</pdfrwt>
<totfact> 0.81705238E+07</totfact>
</mgrwt>
</event>
<event>
 4    1  0.7521660E+004  0.2689980E+02  0.7546771E-02  0.1635124E+00
         21   -1    0    0  503  502  0.00000000000E+00  0.00000000000E+00  0.80596270786E+02  0.80596270786E+02  0.00000000000E+00 0. -1.
         21   -1    0    0  501  503 -0.00000000000E+00 -0.00000000000E+00 -0.11079205020E+02  0.11079205020E+02  0.00000000000E+00 0. -1.
          3    1    1    2  501    0 -0.17771299413E+02  0.20193564083E+02  0.14796918451E+02  0.30700943127E+02  0.00000000000E+00 0. -1.
         -3    1    1    2    0  502  0.17771299413E+02 -0.20193564083E+02  0.54720147315E+02  0.60974532679E+02  0.00000000000E+00 0.  1.
<mgrwt>
<rscale>  2 0.26899798E+02</rscale>
<asrwt>0</asrwt>
<pdfrwt beam="1">  1       21 0.12399426E-01 0.26899798E+02</pdfrwt>
<pdfrwt beam="2">  1       21 0.17044931E-02 0.26899798E+02</pdfrwt>
<totfact> 0.64735858E+07</totfact>
</mgrwt>
</event>
<event>
 4    1  0.7521660E+004  0.4538869E+02  0.7546771E-02  0.1471930E+00
         21   -1    0    0  503  502  0.00000000000E+00  0.00000000000E+00  0.61365140294E+01  0.61365140294E+01  0.00000000000E+00 0. -1.
         21   -1    0    0  501  503 -0.00000000000E+00 -0.00000000000E+00 -0.35671597435E+03  0.35671597435E+03  0.00000000000E+00 0. -1.
          1    1    1    2  501    0  0.45329294970E+02 -0.23212408167E+01 -0.13127114447E+03  0.13889653168E+03  0.00000000000E+00 0.  1.
         -1    1    1    2    0  502 -0.45329294970E+02  0.23212408167E+01 -0.21930831584E+03  0.22395595670E+03  0.00000000000E+00 0. -1.
<mgrwt>
<rscale>  2 0.45388690E+02</rscale>
<asrwt>0</asrwt>
<pdfrwt beam="1">  1       21 0.94407923E-03 0.45388690E+02</pdfrwt>
<pdfrwt beam="2">  1       21 0.54879372E-01 0.45388690E+02</pdfrwt>
<totfact> 0.11509573E+07</totfact>
</mgrwt>
</event>
<event>
 4    1  0.7521660E+004  0.2066811E+02  0.7546771E-02  0.1732359E+00
         21   -1    0    0  501  502  0.00000000000E+00  0.00000000000E+00  0.29187317164E+01  0.29187317164E+01  0.00000000000E+00 0. -1.
         21   -1    0    0  502  503 -0.00000000000E+00 -0.00000000000E+00 -0.18128858885E+03  0.18128858885E+03  0.00000000000E+00 0. -1.
          5    1    1    2  501    0 -0.34705845126E+01 -0.20374641456E+02 -0.12961581630E+03  0.13125330779E+03  0.00000000000E+00 0. -1.
         -5    1    1    2    0  503  0.34705845126E+01  0.20374641456E+02 -0.48754040839E+02  0.52954012779E+02  0.00000000000E+00 0.  1.
<mgrwt>
<rscale>  2 0.20668115E+02</rscale>
<asrwt>0</asrwt>
<pdfrwt beam="1">  1       21 0.44903577E-03 0.20668115E+02</pdfrwt>
<pdfrwt beam="2">  1       21 0.27890545E-01 0.20668115E+02</pdfrwt>
<totfact> 0.10895243E+08</totfact>
</mgrwt>
</event>
<event>
 4    1  0.7521660E+004  0.2385790E+02  0.7546771E-02  0.1677970E+00
         21   -1    0    0  503  502  0.00000000000E+00  0.00000000000E+00  0.13413929382E+02  0.13413929382E+02  0.00000000000E+00 0.  1.
         21   -1    0    0  501  503 -0.00000000000E+00 -0.00000000000E+00 -0.66523226423E+02  0.66523226423E+02  0.00000000000E+00 0.  1.
          2    1    1    2  501    0 -0.10281720318E+02 -0.21528712365E+02 -0.25027990265E+01  0.23988814722E+02  0.00000000000E+00 0.  1.
         -2    1    1    2    0  502  0.10281720318E+02  0.21528712365E+02 -0.50606498014E+02  0.55948341084E+02  0.00000000000E+00 0. -1.
<mgrwt>
<rscale>  2 0.23857897E+02</rscale>
<asrwt>0</asrwt>
<pdfrwt beam="1">  1       21 0.20636814E-02 0.23857897E+02</pdfrwt>
<pdfrwt beam="2">  1       21 0.10234343E-01 0.23857897E+02</pdfrwt>
<totfact> 0.64574858E+07</totfact>
</mgrwt>
</event>
<event>
 4    1  0.7521660E+004  0.2397711E+02  0.7546771E-02  0.1676144E+00
         21   -1    0    0  501  502  0.00000000000E+00  0.00000000000E+00  0.96666330179E+00  0.96666330179E+00  0.00000000000E+00 0. -1.
         21   -1    0    0  502  503 -0.00000000000E+00 -0.00000000000E+00 -0.62447302157E+03  0.62447302157E+03  0.00000000000E+00 0. -1.
          5    1    1    2  501    0  0.16967262448E+02  0.16941478660E+02 -0.24350264896E+03  0.24468028475E+03  0.00000000000E+00 0.  1.
         -5    1    1    2    0  503 -0.16967262448E+02 -0.16941478660E+02 -0.38000370931E+03  0.38075940012E+03  0.00000000000E+00 0. -1.
<mgrwt>
<rscale>  2 0.23977108E+02</rscale>
<asrwt>0</asrwt>
<pdfrwt beam="1">  1       21 0.14871767E-03 0.23977108E+02</pdfrwt>
<pdfrwt beam="2">  1       21 0.96072621E-01 0.23977108E+02</pdfrwt>
<totfact> 0.49635751E+07</totfact>
</mgrwt>
</event>
<event>
 4    1  0.7521660E+004  0.2187414E+02  0.7546771E-02  0.1710438E+00
         21   -1    0    0  501  502  0.00000000000E+00  0.00000000000E+00  0.43319940419E+02  0.43319940419E+02  0.00000000000E+00 0. -1.
         21   -1    0    0  502  503 -0.00000000000E+00 -0.00000000000E+00 -0.11348188680E+02  0.11348188680E+02  0.00000000000E+00 0. -1.
          4    1    1    2  501    0  0.10330090883E+02  0.19281269688E+02  0.11519636206E+02  0.24722058101E+02  0.00000000000E+00 0. -1.
         -4    1    1    2    0  503 -0.10330090883E+02 -0.19281269688E+02  0.20452115534E+02  0.29946070998E+02  0.00000000000E+00 0.  1.
<mgrwt>
<rscale>  2 0.21874143E+02</rscale>
<asrwt>0</asrwt>
<pdfrwt beam="1">  1       21 0.66646061E-02 0.21874143E+02</pdfrwt>
<pdfrwt beam="2">  1       21 0.17458752E-02 0.21874143E+02</pdfrwt>
<totfact> 0.16403570E+08</totfact>
</mgrwt>
</event>
<event>
 4    1  0.7521660E+004  0.2693769E+02  0.7546771E-02  0.1634635E+00
         21   -1    0    0  501  502  0.00000000000E+00  0.00000000000E+00  0.35435547026E+02  0.35435547026E+02  0.00000000000E+00 0. -1.
         21   -1    0    0  502  503 -0.00000000000E+00 -0.00000000000E+00 -0.20489739562E+02  0.20489739562E+02  0.00000000000E+00 0. -1.
          3    1    1    2  501    0 -0.61164358571E+00 -0.26930748446E+02  0.81500747739E+01  0.28143614526E+02  0.00000000000E+00 0. -1.
         -3    1    1    2    0  503  0.61164358571E+00  0.26930748446E+02  0.67957326908E+01  0.27781672062E+02  0.00000000000E+00 0.  1.
<mgrwt>
<rscale>  2 0.26937693E+02</rscale>
<asrwt>0</asrwt>
<pdfrwt beam="1">  1       21 0.54516226E-02 0.26937693E+02</pdfrwt>
<pdfrwt beam="2">  1       21 0.31522676E-02 0.26937693E+02</pdfrwt>
<totfact> 0.96477151E+07</totfact>
</mgrwt>
</event>
<event>
 4    1  0.7521660E+004  0.2255176E+02  0.7546771E-02  0.1698881E+00
         21   -1    0    0  501  502  0.00000000000E+00  0.00000000000E+00  0.16935639594E+02  0.16935639594E+02  0.00000000000E+00 0. -1.
         21   -1    0    0  502  503 -0.00000000000E+00 -0.00000000000E+00 -0.49750844113E+02  0.49750844113E+02  0.00000000000E+00 0. -1.
          3    1    1    2  501    0  0.19772772268E+02  0.10845244490E+02 -0.37400256786E+02  0.43673344948E+02  0.00000000000E+00 0. -1.
         -3    1    1    2    0  503 -0.19772772268E+02 -0.10845244490E+02  0.45850522670E+01  0.23013138759E+02  0.00000000000E+00 0.  1.
<mgrwt>
<rscale>  2 0.22551759E+02</rscale>
<asrwt>0</asrwt>
<pdfrwt beam="1">  1       21 0.26054830E-02 0.22551759E+02</pdfrwt>
<pdfrwt beam="2">  1       21 0.76539760E-02 0.22551759E+02</pdfrwt>
<totfact> 0.71521824E+07</totfact>
</mgrwt>
</event>
<event>
 4    1  0.7521660E+004  0.2041577E+02  0.7546771E-02  0.1737184E+00
         21   -1    0    0  503  502  0.00000000000E+00  0.00000000000E+00  0.16690876267E+02  0.16690876267E+02  0.00000000000E+00 0. -1.
         21   -1    0    0  501  503 -0.00000000000E+00 -0.00000000000E+00 -0.31810151963E+02  0.31810151963E+02  0.00000000000E+00 0. -1.
          1    1    1    2  501    0  0.17691579766E+02 -0.10188798797E+02  0.36840622481E+01  0.20745503854E+02  0.00000000000E+00 0. -1.
         -1    1    1    2    0  502 -0.17691579766E+02  0.10188798797E+02 -0.18803337945E+02  0.27755524376E+02  0.00000000000E+00 0.  1.
<mgrwt>
<rscale>  2 0.20415769E+02</rscale>
<asrwt>0</asrwt>
<pdfrwt beam="1">  1       21 0.25678271E-02 0.20415769E+02</pdfrwt>
<pdfrwt beam="2">  1       21 0.48938695E-02 0.20415769E+02</pdfrwt>
<totfact> 0.14556311E+08</totfact>
</mgrwt>
</event>
<event>
 4    1  0.7521660E+004  0.2317905E+02  0.7546771E-02  0.1688624E+00
         21   -1    0    0  503  502  0.00000000000E+00  0.00000000000E+00  0.15505706626E+02  0.15505706626E+02  0.00000000000E+00 0.  1.
         21   -1    0    0  501  503 -0.00000000000E+00 -0.00000000000E+00 -0.38480841945E+02  0.38480841945E+02  0.00000000000E+00 0.  1.
          3    1    1    2  501    0 -0.99105449749E+01 -0.20953507925E+02 -0.20004756209E+02  0.30617946813E+02  0.00000000000E+00 0.  1.
         -3    1    1    2    0  502  0.99105449749E+01  0.20953507925E+02 -0.29703791097E+01  0.23368601758E+02  0.00000000000E+00 0. -1.
<mgrwt>
<rscale>  2 0.23179051E+02</rscale>
<asrwt>0</asrwt>
<pdfrwt beam="1">  1       21 0.23854933E-02 0.23179051E+02</pdfrwt>
<pdfrwt beam="2">  1       21 0.59201295E-02 0.23179051E+02</pdfrwt>
<totfact> 0.12511936E+08</totfact>
</mgrwt>
</event>
<event>
 4    1  0.7521660E+004  0.2396238E+02  0.7546771E-02  0.1676369E+00
         21   -1    0    0  501  502  0.00000000000E+00  0.00000000000E+00  0.14271559727E+02  0.14271559727E+02  0.00000000000E+00 0. -1.
         21   -1    0    0  502  503 -0.00000000000E+00 -0.00000000000E+00 -0.40235474236E+02  0.40235474236E+02  0.00000000000E+00 0. -1.
          3    1    1    2  501    0 -0.14220747451E+02  0.19286418198E+02 -0.12793736284E+02  0.27163859687E+02  0.00000000000E+00 0. -1.
         -3    1    1    2    0  503  0.14220747451E+02 -0.19286418198E+02 -0.13170178225E+02  0.27343174276E+02  0.00000000000E+00 0.  1.
<mgrwt>
<rscale>  2 0.23962379E+02</rscale>
<asrwt>0</asrwt>
<pdfrwt beam="1">  1       21 0.21956246E-02 0.23962379E+02</pdfrwt>
<pdfrwt beam="2">  1       21 0.61900729E-02 0.23962379E+02</pdfrwt>
<totfact> 0.13367071E+08</totfact>
</mgrwt>
</event>
<event>
 4    1  0.7521660E+004  0.2398226E+02  0.7546771E-02  0.1676066E+00
         21   -1    0    0  503  502  0.00000000000E+00  0.00000000000E+00  0.12718319709E+02  0.12718319709E+02  0.00000000000E+00 0.  1.
         21   -1    0    0  501  503 -0.00000000000E+00 -0.00000000000E+00 -0.47334408554E+02  0.47334408554E+02  0.00000000000E+00 0.  1.
          4    1    1    2  501    0  0.17542675746E+02  0.16352470153E+02 -0.10965026103E+02  0.26370069205E+02  0.00000000000E+00 0. -1.
         -4    1    1    2    0  502 -0.17542675746E+02 -0.16352470153E+02 -0.23651062741E+02  0.33682659058E+02  0.00000000000E+00 0.  1.
<mgrwt>
<rscale>  2 0.23982259E+02</rscale>
<asrwt>0</asrwt>
<pdfrwt beam="1">  1       21 0.19566645E-02 0.23982259E+02</pdfrwt>
<pdfrwt beam="2">  1       21 0.72822168E-02 0.23982259E+02</pdfrwt>
<totfact> 0.12271913E+08</totfact>
</mgrwt>
</event>
<event>
 4    1  0.7521660E+004  0.3068473E+02  0.7546771E-02  0.1590641E+00
         21   -1    0    0  503  502  0.00000000000E+00  0.00000000000E+00  0.11309741971E+03  0.11309741971E+03  0.00000000000E+00 0. -1.
         21   -1    0    0  501  503 -0.00000000000E+00 -0.00000000000E+00 -0.83314725687E+01  0.83314725687E+01  0.00000000000E+00 0. -1.
          1    1    1    2  501    0  0.20973797237E+02 -0.22397600992E+02  0.50710097186E+02  0.59271128362E+02  0.00000000000E+00 0.  1.
         -1    1    1    2    0  502 -0.20973797237E+02  0.22397600992E+02  0.54055849956E+02  0.62157763917E+02  0.00000000000E+00 0. -1.
<mgrwt>
<rscale>  2 0.30684731E+02</rscale>
<asrwt>0</asrwt>
<pdfrwt beam="1">  1       21 0.17399602E-01 0.30684731E+02</pdfrwt>
<pdfrwt beam="2">  1       21 0.12817651E-02 0.30684731E+02</pdfrwt>
<totfact> 0.57741589E+07</totfact>
</mgrwt>
</event>
<event>
 4    1  0.7521660E+004  0.9794790E+02  0.7546771E-02  0.1284671E+00
         21   -1    0    0  501  502  0.00000000000E+00  0.00000000000E+00  0.30262123528E+03  0.30262123528E+03  0.00000000000E+00 0. -1.
         21   -1    0    0  502  503 -0.00000000000E+00 -0.00000000000E+00 -0.35347834820E+02  0.35347834820E+02  0.00000000000E+00 0. -1.
          1    1    1    2  501    0 -0.97279638494E+02 -0.11422035664E+02  0.79368448822E+02  0.12606800400E+03  0.00000000000E+00 0.  1.
         -1    1    1    2    0  503  0.97279638494E+02  0.11422035664E+02  0.18790495164E+03  0.21190106610E+03  0.00000000000E+00 0. -1.
<mgrwt>
<rscale>  2 0.97947899E+02</rscale>
<asrwt>0</asrwt>
<pdfrwt beam="1">  1       21 0.46557112E-01 0.97947899E+02</pdfrwt>
<pdfrwt beam="2">  1       21 0.54381286E-02 0.97947899E+02</pdfrwt>
<totfact> 0.10290308E+06</totfact>
</mgrwt>
</event>
<event>
 4    1  0.7521660E+004  0.2726247E+02  0.7546771E-02  0.1630482E+00
         21   -1    0    0  503  502  0.00000000000E+00  0.00000000000E+00  0.16645127210E+02  0.16645127210E+02  0.00000000000E+00 0. -1.
         21   -1    0    0  501  503 -0.00000000000E+00 -0.00000000000E+00 -0.45353252734E+02  0.45353252734E+02  0.00000000000E+00 0. -1.
          4    1    1    2  501    0 -0.25424319655E+02 -0.98410581208E+01 -0.10500125720E+02  0.29214638368E+02  0.00000000000E+00 0. -1.
         -4    1    1    2    0  502  0.25424319655E+02  0.98410581208E+01 -0.18207999804E+02  0.32783741576E+02  0.00000000000E+00 0.  1.
<mgrwt>
<rscale>  2 0.27262473E+02</rscale>
<asrwt>0</asrwt>
<pdfrwt beam="1">  1       21 0.25607889E-02 0.27262473E+02</pdfrwt>
<pdfrwt beam="2">  1       21 0.69774234E-02 0.27262473E+02</pdfrwt>
<totfact> 0.89817281E+07</totfact>
</mgrwt>
</event>
<event>
 4    1  0.7521660E+004  0.2790732E+02  0.7546771E-02  0.1622443E+00
         21   -1    0    0  501  502  0.00000000000E+00  0.00000000000E+00  0.51511281590E+03  0.51511281590E+03  0.00000000000E+00 0. -1.
         21   -1    0    0  502  503 -0.00000000000E+00 -0.00000000000E+00 -0.18992391166E+01  0.18992391166E+01  0.00000000000E+00 0. -1.
          2    1    1    2  501    0  0.15740935475E+02 -0.23044341766E+02  0.13987070446E+03  0.14262760148E+03  0.00000000000E+00 0. -1.
         -2    1    1    2    0  503 -0.15740935475E+02  0.23044341766E+02  0.37334287233E+03  0.37438445354E+03  0.00000000000E+00 0.  1.
<mgrwt>
<rscale>  2 0.27907324E+02</rscale>
<asrwt>0</asrwt>
<pdfrwt beam="1">  1       21 0.79248014E-01 0.27907324E+02</pdfrwt>
<pdfrwt beam="2">  1       21 0.29219104E-03 0.27907324E+02</pdfrwt>
<totfact> 0.28997869E+07</totfact>
</mgrwt>
</event>
<event>
 4    1  0.7521660E+004  0.2078954E+02  0.7546771E-02  0.1730068E+00
         21   -1    0    0  503  502  0.00000000000E+00  0.00000000000E+00  0.82088839976E+02  0.82088839976E+02  0.00000000000E+00 0. -1.
         21   -1    0    0  501  503 -0.00000000000E+00 -0.00000000000E+00 -0.53032466489E+01  0.53032466489E+01  0.00000000000E+00 0. -1.
          2    1    1    2  501    0  0.12733754607E+02  0.16433392726E+02  0.34686227655E+02  0.40439328529E+02  0.00000000000E+00 0.  1.
         -2    1    1    2    0  502 -0.12733754607E+02 -0.16433392726E+02  0.42099365672E+02  0.46952758097E+02  0.00000000000E+00 0. -1.
<mgrwt>
<rscale>  2 0.20789538E+02</rscale>
<asrwt>0</asrwt>
<pdfrwt beam="1">  1       21 0.12629051E-01 0.20789538E+02</pdfrwt>
<pdfrwt beam="2">  1       21 0.81588416E-03 0.20789538E+02</pdfrwt>
<totfact> 0.17786197E+08</totfact>
</mgrwt>
</event>
<event>
 4    1  0.7521660E+004  0.2098665E+02  0.7546771E-02  0.1726390E+00
         21   -1    0    0  503  502  0.00000000000E+00  0.00000000000E+00  0.76185913772E+01  0.76185913772E+01  0.00000000000E+00 0. -1.
         21   -1    0    0  501  503 -0.00000000000E+00 -0.00000000000E+00 -0.64408554626E+02  0.64408554626E+02  0.00000000000E+00 0. -1.
          5    1    1    2  501    0 -0.17642636634E+02  0.11365598496E+02 -0.16868910184E+02  0.26925816374E+02  0.00000000000E+00 0.  1.
         -5    1    1    2    0  502  0.17642636634E+02 -0.11365598496E+02 -0.39921053064E+02  0.45101329629E+02  0.00000000000E+00 0. -1.
<mgrwt>
<rscale>  2 0.20986649E+02</rscale>
<asrwt>0</asrwt>
<pdfrwt beam="1">  1       21 0.11720910E-02 0.20986649E+02</pdfrwt>
<pdfrwt beam="2">  1       21 0.99090081E-02 0.20986649E+02</pdfrwt>
<totfact> 0.15517973E+08</totfact>
</mgrwt>
</event>
<event>
 4    1  0.7521660E+004  0.3206328E+02  0.7546771E-02  0.1576341E+00
         21   -1    0    0  501  502  0.00000000000E+00  0.00000000000E+00  0.29689493530E+02  0.29689493530E+02  0.00000000000E+00 0. -1.
         21   -1    0    0  502  503 -0.00000000000E+00 -0.00000000000E+00 -0.35643413449E+02  0.35643413449E+02  0.00000000000E+00 0. -1.
          3    1    1    2  501    0 -0.21970802912E+02  0.23352471623E+02 -0.84936195824E+01  0.33169197836E+02  0.00000000000E+00 0.  1.
         -3    1    1    2    0  503  0.21970802912E+02 -0.23352471623E+02  0.25396996633E+01  0.32163709143E+02  0.00000000000E+00 0. -1.
<mgrwt>
<rscale>  2 0.32063283E+02</rscale>
<asrwt>0</asrwt>
<pdfrwt beam="1">  1       21 0.45676144E-02 0.32063283E+02</pdfrwt>
<pdfrwt beam="2">  1       21 0.54836020E-02 0.32063283E+02</pdfrwt>
<totfact> 0.55314809E+07</totfact>
</mgrwt>
</event>
<event>
 4    1  0.7521660E+004  0.2657595E+02  0.7546771E-02  0.1639346E+00
         21   -1    0    0  501  502  0.00000000000E+00  0.00000000000E+00  0.29658479502E+02  0.29658479502E+02  0.00000000000E+00 0.  1.
         21   -1    0    0  502  503 -0.00000000000E+00 -0.00000000000E+00 -0.24393204032E+02  0.24393204032E+02  0.00000000000E+00 0.  1.
          1    1    1    2  501    0 -0.11828845563E+02 -0.23798306515E+02  0.67978492825E+01  0.27431582805E+02  0.00000000000E+00 0. -1.
         -1    1    1    2    0  503  0.11828845563E+02  0.23798306515E+02 -0.15325738132E+01  0.26620100729E+02  0.00000000000E+00 0.  1.
<mgrwt>
<rscale>  2 0.26575947E+02</rscale>
<asrwt>0</asrwt>
<pdfrwt beam="1">  1       21 0.45628430E-02 0.26575947E+02</pdfrwt>
<pdfrwt beam="2">  1       21 0.37528006E-02 0.26575947E+02</pdfrwt>
<totfact> 0.97135345E+07</totfact>
</mgrwt>
</event>
<event>
 4    1  0.7521660E+004  0.2144065E+02  0.7546771E-02  0.1718109E+00
         21   -1    0    0  503  502  0.00000000000E+00  0.00000000000E+00  0.50200002120E+01  0.50200002120E+01  0.00000000000E+00 0.  1.
         21   -1    0    0  501  503 -0.00000000000E+00 -0.00000000000E+00 -0.10696834657E+03  0.10696834657E+03  0.00000000000E+00 0.  1.
          1    1    1    2  501    0  0.14980819256E+02 -0.15338721029E+02 -0.72216220051E+02  0.75331824263E+02  0.00000000000E+00 0. -1.
         -1    1    1    2    0  502 -0.14980819256E+02  0.15338721029E+02 -0.29732126305E+02  0.36656522517E+02  0.00000000000E+00 0.  1.
<mgrwt>
<rscale>  2 0.21440646E+02</rscale>
<asrwt>0</asrwt>
<pdfrwt beam="1">  1       21 0.77230772E-03 0.21440646E+02</pdfrwt>
<pdfrwt beam="2">  1       21 0.16456669E-01 0.21440646E+02</pdfrwt>
<totfact> 0.12448853E+08</totfact>
</mgrwt>
</event>
<event>
 4    1  0.7521660E+004  0.2270052E+02  0.7546771E-02  0.1696411E+00
         21   -1    0    0  501  502  0.00000000000E+00  0.00000000000E+00  0.25765801659E+03  0.25765801659E+03  0.00000000000E+00 0. -1.
         21   -1    0    0  502  503 -0.00000000000E+00 -0.00000000000E+00 -0.26714337465E+01  0.26714337465E+01  0.00000000000E+00 0. -1.
          3    1    1    2  501    0 -0.17842297299E+02  0.14034457319E+02  0.62236490098E+02  0.66247220809E+02  0.00000000000E+00 0. -1.
         -3    1    1    2    0  503  0.17842297299E+02 -0.14034457319E+02  0.19275009275E+03  0.19408222953E+03  0.00000000000E+00 0.  1.
<mgrwt>
<rscale>  2 0.22700519E+02</rscale>
<asrwt>0</asrwt>
<pdfrwt beam="1">  1       21 0.39639675E-01 0.22700519E+02</pdfrwt>
<pdfrwt beam="2">  1       21 0.41099001E-03 0.22700519E+02</pdfrwt>
<totfact> 0.66694112E+07</totfact>
</mgrwt>
</event>
<event>
 4    1  0.7521660E+004  0.2590228E+02  0.7546771E-02  0.1648370E+00
         21   -1    0    0  503  502  0.00000000000E+00  0.00000000000E+00  0.99999356460E+01  0.99999356460E+01  0.00000000000E+00 0.  1.
         21   -1    0    0  501  503 -0.00000000000E+00 -0.00000000000E+00 -0.67625097522E+02  0.67625097522E+02  0.00000000000E+00 0.  1.
          1    1    1    2  501    0 -0.16791350861E+02 -0.19722544316E+02 -0.25370588117E+02  0.36257343524E+02  0.00000000000E+00 0. -1.
         -1    1    1    2    0  502  0.16791350861E+02  0.19722544316E+02 -0.32254573759E+02  0.41367689643E+02  0.00000000000E+00 0.  1.
<mgrwt>
<rscale>  2 0.25902282E+02</rscale>
<asrwt>0</asrwt>
<pdfrwt beam="1">  1       21 0.15384517E-02 0.25902282E+02</pdfrwt>
<pdfrwt beam="2">  1       21 0.10403861E-01 0.25902282E+02</pdfrwt>
<totfact> 0.10069680E+08</totfact>
</mgrwt>
</event>
<event>
 4    1  0.7521660E+004  0.2428351E+02  0.7546771E-02  0.1671512E+00
         21   -1    0    0  503  502  0.00000000000E+00  0.00000000000E+00  0.56322250053E+02  0.56322250053E+02  0.00000000000E+00 0. -1.
         21   -1    0    0  501  503 -0.00000000000E+00 -0.00000000000E+00 -0.11982755426E+02  0.11982755426E+02  0.00000000000E+00 0. -1.
          2    1    1    2  501    0  0.62678161503E+01  0.23460676533E+02  0.34304796267E+02  0.42029845463E+02  0.00000000000E+00 0.  1.
         -2    1    1    2    0  502 -0.62678161503E+01 -0.23460676533E+02  0.10034698360E+02  0.26275160016E+02  0.00000000000E+00 0. -1.
<mgrwt>
<rscale>  2 0.24283510E+02</rscale>
<asrwt>0</asrwt>
<pdfrwt beam="1">  1       21 0.86649614E-02 0.24283510E+02</pdfrwt>
<pdfrwt beam="2">  1       21 0.18435009E-02 0.24283510E+02</pdfrwt>
<totfact> 0.10157381E+08</totfact>
</mgrwt>
</event>
<event>
 4    1  0.7521660E+004  0.2018241E+02  0.7546771E-02  0.1741725E+00
         21   -1    0    0  503  502  0.00000000000E+00  0.00000000000E+00  0.16774078647E+02  0.16774078647E+02  0.00000000000E+00 0. -1.
         21   -1    0    0  501  503 -0.00000000000E+00 -0.00000000000E+00 -0.47628617781E+02  0.47628617781E+02  0.00000000000E+00 0. -1.
          4    1    1    2  501    0  0.34827930316E+01  0.19879637966E+02  0.71172006374E+01  0.21400570036E+02  0.00000000000E+00 0.  1.
         -4    1    1    2    0  502 -0.34827930316E+01 -0.19879637966E+02 -0.37971739771E+02  0.43002126391E+02  0.00000000000E+00 0. -1.
<mgrwt>
<rscale>  2 0.20182414E+02</rscale>
<asrwt>0</asrwt>
<pdfrwt beam="1">  1       21 0.25806275E-02 0.20182414E+02</pdfrwt>
<pdfrwt beam="2">  1       21 0.73274796E-02 0.20182414E+02</pdfrwt>
<totfact> 0.75518847E+07</totfact>
</mgrwt>
</event>
<event>
 4    1  0.7521660E+004  0.2160890E+02  0.7546771E-02  0.1715105E+00
         21   -1    0    0  503  502  0.00000000000E+00  0.00000000000E+00  0.40476224682E+01  0.40476224682E+01  0.00000000000E+00 0.  1.
         21   -1    0    0  501  503 -0.00000000000E+00 -0.00000000000E+00 -0.11574476937E+03  0.11574476937E+03  0.00000000000E+00 0.  1.
          4    1    1    2  501    0  0.14245832513E+02 -0.16248098432E+02 -0.59290084199E+02  0.63105138705E+02  0.00000000000E+00 0. -1.
         -4    1    1    2    0  502 -0.14245832513E+02  0.16248098432E+02 -0.52407062702E+02  0.56687253132E+02  0.00000000000E+00 0.  1.
<mgrwt>
<rscale>  2 0.21608897E+02</rscale>
<asrwt>0</asrwt>
<pdfrwt beam="1">  1       21 0.62271120E-03 0.21608897E+02</pdfrwt>
<pdfrwt beam="2">  1       21 0.17806886E-01 0.21608897E+02</pdfrwt>
<totfact> 0.15000290E+08</totfact>
</mgrwt>
</event>
<event>
 4    1  0.7521660E+004  0.2869914E+02  0.7546771E-02  0.1612930E+00
         21   -1    0    0  501  502  0.00000000000E+00  0.00000000000E+00  0.16532010867E+02  0.16532010867E+02  0.00000000000E+00 0.  1.
         21   -1    0    0  502  503 -0.00000000000E+00 -0.00000000000E+00 -0.88803787715E+02  0.88803787715E+02  0.00000000000E+00 0.  1.
          4    1    1    2  501    0  0.27993358704E+02  0.63255492297E+01 -0.71031185749E+02  0.76609856111E+02  0.00000000000E+00 0. -1.
         -4    1    1    2    0  503 -0.27993358704E+02 -0.63255492297E+01 -0.12405911002E+01  0.28725942471E+02  0.00000000000E+00 0.  1.
<mgrwt>
<rscale>  2 0.28699141E+02</rscale>
<asrwt>0</asrwt>
<pdfrwt beam="1">  1       21 0.25433862E-02 0.28699141E+02</pdfrwt>
<pdfrwt beam="2">  1       21 0.13662121E-01 0.28699141E+02</pdfrwt>
<totfact> 0.29999889E+07</totfact>
</mgrwt>
</event>
<event>
 4    1  0.7521660E+004  0.5593659E+02  0.7546771E-02  0.1415721E+00
         21   -1    0    0  503  502  0.00000000000E+00  0.00000000000E+00  0.20097592997E+04  0.20097592997E+04  0.00000000000E+00 0.  1.
         21   -1    0    0  501  503 -0.00000000000E+00 -0.00000000000E+00 -0.20684530942E+01  0.20684530942E+01  0.00000000000E+00 0.  1.
          1    1    1    2  501    0 -0.40037666831E+02 -0.39062612472E+02  0.15041134029E+04  0.15051531588E+04  0.00000000000E+00 0.  1.
         -1    1    1    2    0  502  0.40037666831E+02  0.39062612472E+02  0.50357744368E+03  0.50667459404E+03  0.00000000000E+00 0. -1.
<mgrwt>
<rscale>  2 0.55936593E+02</rscale>
<asrwt>0</asrwt>
<pdfrwt beam="1">  1       21 0.30919218E+00 0.55936593E+02</pdfrwt>
<pdfrwt beam="2">  1       21 0.31822516E-03 0.55936593E+02</pdfrwt>
<totfact> 0.77218745E+05</totfact>
</mgrwt>
</event>
<event>
 4    1  0.7521660E+004  0.2127164E+02  0.7546771E-02  0.1721162E+00
         21   -1    0    0  503  502  0.00000000000E+00  0.00000000000E+00  0.26647888103E+01  0.26647888103E+01  0.00000000000E+00 0.  1.
         21   -1    0    0  501  503 -0.00000000000E+00 -0.00000000000E+00 -0.18654259356E+03  0.18654259356E+03  0.00000000000E+00 0.  1.
          3    1    1    2  501    0  0.17799329078E+02  0.11647600935E+02 -0.12028039626E+03  0.12214686426E+03  0.00000000000E+00 0.  1.
         -3    1    1    2    0  502 -0.17799329078E+02 -0.11647600935E+02 -0.63597408491E+02  0.67060518116E+02  0.00000000000E+00 0. -1.
<mgrwt>
<rscale>  2 0.21271641E+02</rscale>
<asrwt>0</asrwt>
<pdfrwt beam="1">  1       21 0.40996748E-03 0.21271641E+02</pdfrwt>
<pdfrwt beam="2">  1       21 0.28698863E-01 0.21271641E+02</pdfrwt>
<totfact> 0.11921707E+08</totfact>
</mgrwt>
</event>
<event>
 4    1  0.7521660E+004  0.3524228E+02  0.7546771E-02  0.1546459E+00
         21   -1    0    0  501  502  0.00000000000E+00  0.00000000000E+00  0.11810427770E+02  0.11810427770E+02  0.00000000000E+00 0. -1.
         21   -1    0    0  502  503 -0.00000000000E+00 -0.00000000000E+00 -0.10638094603E+03  0.10638094603E+03  0.00000000000E+00 0. -1.
          5    1    1    2  501    0 -0.16511764669E+02  0.31134872137E+02 -0.40961741767E+02  0.54035941040E+02  0.00000000000E+00 0.  1.
         -5    1    1    2    0  503  0.16511764669E+02 -0.31134872137E+02 -0.53608776489E+02  0.64155432756E+02  0.00000000000E+00 0. -1.
<mgrwt>
<rscale>  2 0.35242285E+02</rscale>
<asrwt>0</asrwt>
<pdfrwt beam="1">  1       21 0.18169889E-02 0.35242285E+02</pdfrwt>
<pdfrwt beam="2">  1       21 0.16366300E-01 0.35242285E+02</pdfrwt>
<totfact> 0.38627251E+07</totfact>
</mgrwt>
</event>
<event>
 4    1  0.7521660E+004  0.2189787E+02  0.7546771E-02  0.1710024E+00
         21   -1    0    0  501  502  0.00000000000E+00  0.00000000000E+00  0.64392010858E+02  0.64392010858E+02  0.00000000000E+00 0. -1.
         21   -1    0    0  502  503 -0.00000000000E+00 -0.00000000000E+00 -0.78913792401E+01  0.78913792401E+01  0.00000000000E+00 0. -1.
          2    1    1    2  501    0 -0.21538746251E+02 -0.39495754699E+01  0.36828376734E+02  0.42846774316E+02  0.00000000000E+00 0.  1.
         -2    1    1    2    0  503  0.21538746251E+02  0.39495754699E+01  0.19672254884E+02  0.29436615781E+02  0.00000000000E+00 0. -1.
<mgrwt>
<rscale>  2 0.21897871E+02</rscale>
<asrwt>0</asrwt>
<pdfrwt beam="1">  1       21 0.99064629E-02 0.21897871E+02</pdfrwt>
<pdfrwt beam="2">  1       21 0.12140584E-02 0.21897871E+02</pdfrwt>
<totfact> 0.14915608E+08</totfact>
</mgrwt>
</event>
<event>
 4    1  0.7521660E+004  0.2667450E+02  0.7546771E-02  0.1638053E+00
         21   -1    0    0  503  502  0.00000000000E+00  0.00000000000E+00  0.57292868401E+01  0.57292868401E+01  0.00000000000E+00 0.  1.
         21   -1    0    0  501  503 -0.00000000000E+00 -0.00000000000E+00 -0.12652007852E+03  0.12652007852E+03  0.00000000000E+00 0.  1.
          2    1    1    2  501    0 -0.26508816690E+02  0.29684069441E+01 -0.69366132130E+02  0.74318161231E+02  0.00000000000E+00 0.  1.
         -2    1    1    2    0  502  0.26508816690E+02 -0.29684069441E+01 -0.51424659553E+02  0.57931204133E+02  0.00000000000E+00 0. -1.
<mgrwt>
<rscale>  2 0.26674497E+02</rscale>
<asrwt>0</asrwt>
<pdfrwt beam="1">  1       21 0.88142873E-03 0.26674497E+02</pdfrwt>
<pdfrwt beam="2">  1       21 0.19464628E-01 0.26674497E+02</pdfrwt>
<totfact> 0.81041808E+07</totfact>
</mgrwt>
</event>
<event>
 4    1  0.7521660E+004  0.2657522E+02  0.7546771E-02  0.1639356E+00
         21   -1    0    0  503  502  0.00000000000E+00  0.00000000000E+00  0.81679401050E+02  0.81679401050E+02  0.00000000000E+00 0. -1.
         21   -1    0    0  501  503 -0.00000000000E+00 -0.00000000000E+00 -0.11008123861E+02  0.11008123861E+02  0.00000000000E+00 0. -1.
          1    1    1    2  501    0 -0.26382376984E+02 -0.31956656105E+01  0.13870252623E+02  0.29977091284E+02  0.00000000000E+00 0. -1.
         -1    1    1    2    0  502  0.26382376984E+02  0.31956656105E+01  0.56801024566E+02  0.62710433628E+02  0.00000000000E+00 0.  1.
<mgrwt>
<rscale>  2 0.26575216E+02</rscale>
<asrwt>0</asrwt>
<pdfrwt beam="1">  1       21 0.12566061E-01 0.26575216E+02</pdfrwt>
<pdfrwt beam="2">  1       21 0.16935576E-02 0.26575216E+02</pdfrwt>
<totfact> 0.63732517E+07</totfact>
</mgrwt>
</event>
<event>
 4    1  0.7521660E+004  0.2020407E+02  0.7546771E-02  0.1741300E+00
         21   -1    0    0  503  502  0.00000000000E+00  0.00000000000E+00  0.38870336217E+02  0.38870336217E+02  0.00000000000E+00 0. -1.
         21   -1    0    0  501  503 -0.00000000000E+00 -0.00000000000E+00 -0.13201268244E+02  0.13201268244E+02  0.00000000000E+00 0. -1.
          5    1    1    2  501    0  0.61822809591E+01 -0.19234966578E+02  0.10609024013E+01  0.20231906757E+02  0.00000000000E+00 0.  1.
         -5    1    1    2    0  502 -0.61822809591E+01  0.19234966578E+02  0.24608165571E+02  0.31839697704E+02  0.00000000000E+00 0. -1.
<mgrwt>
<rscale>  2 0.20204072E+02</rscale>
<asrwt>0</asrwt>
<pdfrwt beam="1">  1       21 0.59800517E-02 0.20204072E+02</pdfrwt>
<pdfrwt beam="2">  1       21 0.20309644E-02 0.20204072E+02</pdfrwt>
<totfact> 0.15118277E+08</totfact>
</mgrwt>
</event>
<event>
 4    1  0.7521660E+004  0.2832646E+02  0.7546771E-02  0.1617360E+00
         21   -1    0    0  501  502  0.00000000000E+00  0.00000000000E+00  0.11039775176E+03  0.11039775176E+03  0.00000000000E+00 0.  1.
         21   -1    0    0  502  503 -0.00000000000E+00 -0.00000000000E+00 -0.94254730836E+01  0.94254730836E+01  0.00000000000E+00 0.  1.
          3    1    1    2  501    0  0.15686095806E+02  0.23586748271E+02  0.21823496920E+02  0.35758262171E+02  0.00000000000E+00 0. -1.
         -3    1    1    2    0  503 -0.15686095806E+02 -0.23586748271E+02  0.79148781758E+02  0.84064962674E+02  0.00000000000E+00 0.  1.
<mgrwt>
<rscale>  2 0.28326459E+02</rscale>
<asrwt>0</asrwt>
<pdfrwt beam="1">  1       21 0.16984269E-01 0.28326459E+02</pdfrwt>
<pdfrwt beam="2">  1       21 0.14500729E-02 0.28326459E+02</pdfrwt>
<totfact> 0.48994319E+07</totfact>
</mgrwt>
</event>
<event>
 4    1  0.7521660E+004  0.3203544E+02  0.7546771E-02  0.1576621E+00
         21   -1    0    0  503  502  0.00000000000E+00  0.00000000000E+00  0.44090630341E+03  0.44090630341E+03  0.00000000000E+00 0.  1.
         21   -1    0    0  501  503 -0.00000000000E+00 -0.00000000000E+00 -0.27033959417E+01  0.27033959417E+01  0.00000000000E+00 0.  1.
          4    1    1    2  501    0  0.44038927961E+01  0.31731300573E+02  0.30179488729E+03  0.30349040133E+03  0.00000000000E+00 0. -1.
         -4    1    1    2    0  502 -0.44038927961E+01 -0.31731300573E+02  0.13640802018E+03  0.14011929802E+03  0.00000000000E+00 0.  1.
<mgrwt>
<rscale>  2 0.32035445E+02</rscale>
<asrwt>0</asrwt>
<pdfrwt beam="1">  1       21 0.67831682E-01 0.32035445E+02</pdfrwt>
<pdfrwt beam="2">  1       21 0.41590742E-03 0.32035445E+02</pdfrwt>
<totfact> 0.24430316E+07</totfact>
</mgrwt>
</event>
<event>
 4    1  0.7521660E+004  0.3131963E+02  0.7546771E-02  0.1583944E+00
         21   -1    0    0  503  502  0.00000000000E+00  0.00000000000E+00  0.13777999453E+01  0.13777999453E+01  0.00000000000E+00 0. -1.
         21   -1    0    0  501  503 -0.00000000000E+00 -0.00000000000E+00 -0.71544810663E+03  0.71544810663E+03  0.00000000000E+00 0. -1.
          3    1    1    2  501    0  0.27003600592E+01 -0.31203001061E+02 -0.38211105855E+03  0.38339246248E+03  0.00000000000E+00 0.  1.
         -3    1    1    2    0  502 -0.27003600592E+01  0.31203001061E+02 -0.33195924814E+03  0.33343344410E+03  0.00000000000E+00 0. -1.
<mgrwt>
<rscale>  2 0.31319630E+02</rscale>
<asrwt>0</asrwt>
<pdfrwt beam="1">  1       21 0.21196892E-03 0.31319630E+02</pdfrwt>
<pdfrwt beam="2">  1       21 0.11006910E+00 0.31319630E+02</pdfrwt>
<totfact> 0.23072663E+07</totfact>
</mgrwt>
</event>
<event>
 4    1  0.7521660E+004  0.3126179E+02  0.7546771E-02  0.1584546E+00
         21   -1    0    0  501  502  0.00000000000E+00  0.00000000000E+00  0.15317666510E+02  0.15317666510E+02  0.00000000000E+00 0. -1.
         21   -1    0    0  502  503 -0.00000000000E+00 -0.00000000000E+00 -0.65125286573E+02  0.65125286573E+02  0.00000000000E+00 0. -1.
          3    1    1    2  501    0 -0.30748191116E+02 -0.56434121811E+01 -0.19170663983E+02  0.36671701836E+02  0.00000000000E+00 0. -1.
         -3    1    1    2    0  503  0.30748191116E+02  0.56434121811E+01 -0.30636956079E+02  0.43771251248E+02  0.00000000000E+00 0.  1.
<mgrwt>
<rscale>  2 0.31261788E+02</rscale>
<asrwt>0</asrwt>
<pdfrwt beam="1">  1       21 0.23565641E-02 0.31261788E+02</pdfrwt>
<pdfrwt beam="2">  1       21 0.10019275E-01 0.31261788E+02</pdfrwt>
<totfact> 0.58113102E+07</totfact>
</mgrwt>
</event>
<event>
 4    1  0.7521660E+004  0.2883823E+02  0.7546771E-02  0.1611297E+00
         21   -1    0    0  501  502  0.00000000000E+00  0.00000000000E+00  0.10725419164E+02  0.10725419164E+02  0.00000000000E+00 0. -1.
         21   -1    0    0  502  503 -0.00000000000E+00 -0.00000000000E+00 -0.77541031015E+02  0.77541031015E+02  0.00000000000E+00 0. -1.
          5    1    1    2  501    0  0.17685194454E+02 -0.22778876668E+02 -0.33605778126E+02  0.44283085355E+02  0.00000000000E+00 0.  1.
         -5    1    1    2    0  503 -0.17685194454E+02  0.22778876668E+02 -0.33209833726E+02  0.43983364824E+02  0.00000000000E+00 0. -1.
<mgrwt>
<rscale>  2 0.28838227E+02</rscale>
<asrwt>0</asrwt>
<pdfrwt beam="1">  1       21 0.16500645E-02 0.28838227E+02</pdfrwt>
<pdfrwt beam="2">  1       21 0.11929389E-01 0.28838227E+02</pdfrwt>
<totfact> 0.73874649E+07</totfact>
</mgrwt>
</event>
<event>
 4    1  0.7521660E+004  0.2082492E+02  0.7546771E-02  0.1729404E+00
         21   -1    0    0  501  502  0.00000000000E+00  0.00000000000E+00  0.23836455517E+01  0.23836455517E+01  0.00000000000E+00 0. -1.
         21   -1    0    0  502  503 -0.00000000000E+00 -0.00000000000E+00 -0.18217636842E+03  0.18217636842E+03  0.00000000000E+00 0. -1.
          3    1    1    2  501    0 -0.20759315559E+02 -0.16516886829E+01 -0.86562930975E+02  0.89032680949E+02  0.00000000000E+00 0. -1.
         -3    1    1    2    0  503  0.20759315559E+02  0.16516886829E+01 -0.93229791892E+02  0.95527333021E+02  0.00000000000E+00 0.  1.
<mgrwt>
<rscale>  2 0.20824919E+02</rscale>
<asrwt>0</asrwt>
<pdfrwt beam="1">  1       21 0.36671457E-03 0.20824919E+02</pdfrwt>
<pdfrwt beam="2">  1       21 0.28027144E-01 0.20824919E+02</pdfrwt>
<totfact> 0.14553691E+08</totfact>
</mgrwt>
</event>
<event>
 4    1  0.7521660E+004  0.2670683E+02  0.7546771E-02  0.1637631E+00
         21   -1    0    0  503  502  0.00000000000E+00  0.00000000000E+00  0.65987824670E+02  0.65987824670E+02  0.00000000000E+00 0. -1.
         21   -1    0    0  501  503 -0.00000000000E+00 -0.00000000000E+00 -0.11837597648E+02  0.11837597648E+02  0.00000000000E+00 0. -1.
          4    1    1    2  501    0  0.24991188493E+02 -0.94178108000E+01  0.15603956904E+02  0.30931183838E+02  0.00000000000E+00 0. -1.
         -4    1    1    2    0  502 -0.24991188493E+02  0.94178108000E+01  0.38546270118E+02  0.46894238479E+02  0.00000000000E+00 0.  1.
<mgrwt>
<rscale>  2 0.26706828E+02</rscale>
<asrwt>0</asrwt>
<pdfrwt beam="1">  1       21 0.10151973E-01 0.26706828E+02</pdfrwt>
<pdfrwt beam="2">  1       21 0.18211689E-02 0.26706828E+02</pdfrwt>
<totfact> 0.81632882E+07</totfact>
</mgrwt>
</event>
<event>
 4    1  0.7521660E+004  0.2728265E+02  0.7546771E-02  0.1630226E+00
         21   -1    0    0  503  502  0.00000000000E+00  0.00000000000E+00  0.90688242957E+00  0.90688242957E+00  0.00000000000E+00 0. -1.
         21   -1    0    0  501  503 -0.00000000000E+00 -0.00000000000E+00 -0.82985890082E+03  0.82985890082E+03  0.00000000000E+00 0. -1.
          2    1    1    2  501    0  0.25832171383E+02 -0.87773441438E+01 -0.37100727946E+03  0.37200906476E+03  0.00000000000E+00 0.  1.
         -2    1    1    2    0  502 -0.25832171383E+02  0.87773441438E+01 -0.45794473893E+03  0.45875671849E+03  0.00000000000E+00 0. -1.
<mgrwt>
<rscale>  2 0.27282647E+02</rscale>
<asrwt>0</asrwt>
<pdfrwt beam="1">  1       21 0.13952053E-03 0.27282647E+02</pdfrwt>
<pdfrwt beam="2">  1       21 0.12767046E+00 0.27282647E+02</pdfrwt>
<totfact> 0.29476683E+07</totfact>
</mgrwt>
</event>
<event>
 4    1  0.7521660E+004  0.2252510E+02  0.7546771E-02  0.1699326E+00
         21   -1    0    0  503  502  0.00000000000E+00  0.00000000000E+00  0.11296034088E+03  0.11296034088E+03  0.00000000000E+00 0. -1.
         21   -1    0    0  501  503 -0.00000000000E+00 -0.00000000000E+00 -0.45210600758E+01  0.45210600758E+01  0.00000000000E+00 0. -1.
          3    1    1    2  501    0 -0.96447455175E+01 -0.20355812089E+02  0.49483291432E+02  0.54368891223E+02  0.00000000000E+00 0. -1.
         -3    1    1    2    0  502  0.96447455175E+01  0.20355812089E+02  0.58955989376E+02  0.63112509737E+02  0.00000000000E+00 0.  1.
<mgrwt>
<rscale>  2 0.22525102E+02</rscale>
<asrwt>0</asrwt>
<pdfrwt beam="1">  1       21 0.17378512E-01 0.22525102E+02</pdfrwt>
<pdfrwt beam="2">  1       21 0.69554779E-03 0.22525102E+02</pdfrwt>
<totfact> 0.13438684E+08</totfact>
</mgrwt>
</event>
<event>
 4    1  0.7521660E+004  0.2107607E+02  0.7546771E-02  0.1724739E+00
         21   -1    0    0  503  502  0.00000000000E+00  0.00000000000E+00  0.27822345629E+03  0.27822345629E+03  0.00000000000E+00 0.  1.
         21   -1    0    0  501  503 -0.00000000000E+00 -0.00000000000E+00 -0.15965683091E+01  0.15965683091E+01  0.00000000000E+00 0.  1.
          1    1    1    2  501    0  0.15245723888E+01  0.21020857584E+02  0.13801815928E+03  0.13961809720E+03  0.00000000000E+00 0.  1.
         -1    1    1    2    0  502 -0.15245723888E+01 -0.21020857584E+02  0.13860872871E+03  0.14020192740E+03  0.00000000000E+00 0. -1.
<mgrwt>
<rscale>  2 0.21076071E+02</rscale>
<asrwt>0</asrwt>
<pdfrwt beam="1">  1       21 0.42803570E-01 0.21076071E+02</pdfrwt>
<pdfrwt beam="2">  1       21 0.24562611E-03 0.21076071E+02</pdfrwt>
<totfact> 0.11974381E+08</totfact>
</mgrwt>
</event>
<event>
 4    1  0.7521660E+004  0.2606858E+02  0.7546771E-02  0.1646111E+00
         21   -1    0    0  501  502  0.00000000000E+00  0.00000000000E+00  0.27402277479E+03  0.27402277479E+03  0.00000000000E+00 0.  1.
         21   -1    0    0  502  503 -0.00000000000E+00 -0.00000000000E+00 -0.25281062098E+01  0.25281062098E+01  0.00000000000E+00 0.  1.
          4    1    1    2  501    0 -0.22327922324E+02 -0.13454907478E+02  0.11666884452E+03  0.11954576501E+03  0.00000000000E+00 0.  1.
         -4    1    1    2    0  503  0.22327922324E+02  0.13454907478E+02  0.15482582407E+03  0.15700511600E+03  0.00000000000E+00 0. -1.
<mgrwt>
<rscale>  2 0.26068576E+02</rscale>
<asrwt>0</asrwt>
<pdfrwt beam="1">  1       21 0.42157326E-01 0.26068576E+02</pdfrwt>
<pdfrwt beam="2">  1       21 0.38893963E-03 0.26068576E+02</pdfrwt>
<totfact> 0.66536975E+07</totfact>
</mgrwt>
</event>
<event>
 4    1  0.7521660E+004  0.4015747E+02  0.7546771E-02  0.1507056E+00
         21   -1    0    0  503  502  0.00000000000E+00  0.00000000000E+00  0.24996104333E+03  0.24996104333E+03  0.00000000000E+00 0.  1.
         21   -1    0    0  501  503 -0.00000000000E+00 -0.00000000000E+00 -0.91435664402E+01  0.91435664402E+01  0.00000000000E+00 0.  1.
          1    1    1    2  501    0 -0.16576928020E+02 -0.36576333293E+02  0.50112751623E+02  0.64217681171E+02  0.00000000000E+00 0. -1.
         -1    1    1    2    0  502  0.16576928020E+02  0.36576333293E+02  0.19070472526E+03  0.19488692860E+03  0.00000000000E+00 0.  1.
<mgrwt>
<rscale>  2 0.40157474E+02</rscale>
<asrwt>0</asrwt>
<pdfrwt beam="1">  1       21 0.38455540E-01 0.40157474E+02</pdfrwt>
<pdfrwt beam="2">  1       21 0.14067027E-02 0.40157474E+02</pdfrwt>
<totfact> 0.12356766E+07</totfact>
</mgrwt>
</event>
<event>
 4    1  0.7521660E+004  0.3302720E+02  0.7546771E-02  0.1566851E+00
         21   -1    0    0  501  502  0.00000000000E+00  0.00000000000E+00  0.23331441937E+02  0.23331441937E+02  0.00000000000E+00 0. -1.
         21   -1    0    0  502  503 -0.00000000000E+00 -0.00000000000E+00 -0.65082355073E+02  0.65082355073E+02  0.00000000000E+00 0. -1.
          2    1    1    2  501    0  0.17806479758E+02 -0.27815914733E+02 -0.44336195791E+02  0.55285568560E+02  0.00000000000E+00 0.  1.
         -2    1    1    2    0  503 -0.17806479758E+02  0.27815914733E+02  0.25852826554E+01  0.33128228450E+02  0.00000000000E+00 0. -1.
<mgrwt>
<rscale>  2 0.33027198E+02</rscale>
<asrwt>0</asrwt>
<pdfrwt beam="1">  1       21 0.35894526E-02 0.33027198E+02</pdfrwt>
<pdfrwt beam="2">  1       21 0.10012670E-01 0.33027198E+02</pdfrwt>
<totfact> 0.30334587E+07</totfact>
</mgrwt>
</event>
<event>
 4    1  0.7521660E+004  0.2681049E+02  0.7546771E-02  0.1636281E+00
         21   -1    0    0  501  502  0.00000000000E+00  0.00000000000E+00  0.17818111645E+01  0.17818111645E+01  0.00000000000E+00 0. -1.
         21   -1    0    0  502  503 -0.00000000000E+00 -0.00000000000E+00 -0.57505073082E+03  0.57505073082E+03  0.00000000000E+00 0. -1.
          1    1    1    2  501    0  0.98111695092E+01 -0.24950813515E+02 -0.12906369327E+03  0.13181896321E+03  0.00000000000E+00 0. -1.
         -1    1    1    2    0  503 -0.98111695092E+01  0.24950813515E+02 -0.44420522639E+03  0.44501357877E+03  0.00000000000E+00 0.  1.
<mgrwt>
<rscale>  2 0.26810486E+02</rscale>
<asrwt>0</asrwt>
<pdfrwt beam="1">  1       21 0.27412452E-03 0.26810486E+02</pdfrwt>
<pdfrwt beam="2">  1       21 0.88469432E-01 0.26810486E+02</pdfrwt>
<totfact> 0.24997626E+07</totfact>
</mgrwt>
</event>
<event>
 4    1  0.7521660E+004  0.2577111E+02  0.7546771E-02  0.1650167E+00
         21   -1    0    0  501  502  0.00000000000E+00  0.00000000000E+00  0.33856435561E+01  0.33856435561E+01  0.00000000000E+00 0.  1.
         21   -1    0    0  502  503 -0.00000000000E+00 -0.00000000000E+00 -0.25216561299E+03  0.25216561299E+03  0.00000000000E+00 0.  1.
          2    1    1    2  501    0  0.16881647171E+02  0.19472030305E+02 -0.18460371322E+03  0.18639388646E+03  0.00000000000E+00 0. -1.
         -2    1    1    2    0  503 -0.16881647171E+02 -0.19472030305E+02 -0.64176256208E+02  0.69157370080E+02  0.00000000000E+00 0.  1.
<mgrwt>
<rscale>  2 0.25771107E+02</rscale>
<asrwt>0</asrwt>
<pdfrwt beam="1">  1       21 0.52086822E-03 0.25771107E+02</pdfrwt>
<pdfrwt beam="2">  1       21 0.38794711E-01 0.25771107E+02</pdfrwt>
<totfact> 0.50473963E+07</totfact>
</mgrwt>
</event>
<event>
 4    1  0.7521660E+004  0.7519259E+02  0.7546771E-02  0.1343276E+00
         21   -1    0    0  501  502  0.00000000000E+00  0.00000000000E+00  0.81669124026E+02  0.81669124026E+02  0.00000000000E+00 0.  1.
         21   -1    0    0  502  503 -0.00000000000E+00 -0.00000000000E+00 -0.70723735044E+02  0.70723735044E+02  0.00000000000E+00 0.  1.
          2    1    1    2  501    0  0.75056516590E+02  0.45216085854E+01  0.16547557000E+02  0.76991864956E+02  0.00000000000E+00 0. -1.
         -2    1    1    2    0  503 -0.75056516590E+02 -0.45216085854E+01 -0.56021680183E+01  0.75400994114E+02  0.00000000000E+00 0.  1.
<mgrwt>
<rscale>  2 0.75192590E+02</rscale>
<asrwt>0</asrwt>
<pdfrwt beam="1">  1       21 0.12564481E-01 0.75192590E+02</pdfrwt>
<pdfrwt beam="2">  1       21 0.10880575E-01 0.75192590E+02</pdfrwt>
<totfact> 0.36251632E+06</totfact>
</mgrwt>
</event>
<event>
 4    1  0.7521660E+004  0.2072243E+02  0.7546771E-02  0.1731332E+00
         21   -1    0    0  501  502  0.00000000000E+00  0.00000000000E+00  0.24437491607E+02  0.24437491607E+02  0.00000000000E+00 0.  1.
         21   -1    0    0  502  503 -0.00000000000E+00 -0.00000000000E+00 -0.32000093879E+02  0.32000093879E+02  0.00000000000E+00 0.  1.
          2    1    1    2  501    0 -0.12311412692E+02  0.16668776842E+02  0.15166777943E+02  0.25679761623E+02  0.00000000000E+00 0. -1.
         -2    1    1    2    0  503  0.12311412692E+02 -0.16668776842E+02 -0.22729380214E+02  0.30757823863E+02  0.00000000000E+00 0.  1.
<mgrwt>
<rscale>  2 0.20722428E+02</rscale>
<asrwt>0</asrwt>
<pdfrwt beam="1">  1       21 0.37596141E-02 0.20722428E+02</pdfrwt>
<pdfrwt beam="2">  1       21 0.49230914E-02 0.20722428E+02</pdfrwt>
<totfact> 0.80129837E+07</totfact>
</mgrwt>
</event>
<event>
 4    1  0.7521660E+004  0.3469465E+02  0.7546771E-02  0.1551329E+00
         21   -1    0    0  501  502  0.00000000000E+00  0.00000000000E+00  0.62477605344E+02  0.62477605344E+02  0.00000000000E+00 0.  1.
         21   -1    0    0  502  503 -0.00000000000E+00 -0.00000000000E+00 -0.29356733635E+02  0.29356733635E+02  0.00000000000E+00 0.  1.
          2    1    1    2  501    0  0.30491137068E+02 -0.16553234218E+02 -0.10359489092E+02  0.36208258961E+02  0.00000000000E+00 0. -1.
         -2    1    1    2    0  503 -0.30491137068E+02  0.16553234218E+02  0.43480360801E+02  0.55626080018E+02  0.00000000000E+00 0.  1.
<mgrwt>
<rscale>  2 0.34694654E+02</rscale>
<asrwt>0</asrwt>
<pdfrwt beam="1">  1       21 0.96119393E-02 0.34694654E+02</pdfrwt>
<pdfrwt beam="2">  1       21 0.45164206E-02 0.34694654E+02</pdfrwt>
<totfact> 0.22709904E+07</totfact>
</mgrwt>
</event>
<event>
 4    1  0.7521660E+004  0.2442214E+02  0.7546771E-02  0.1669443E+00
         21   -1    0    0  501  502  0.00000000000E+00  0.00000000000E+00  0.12933690472E+02  0.12933690472E+02  0.00000000000E+00 0.  1.
         21   -1    0    0  502  503 -0.00000000000E+00 -0.00000000000E+00 -0.46203037720E+02  0.46203037720E+02  0.00000000000E+00 0.  1.
          3    1    1    2  501    0  0.14606371670E+02 -0.19572802974E+02 -0.15345997243E+02  0.28843376034E+02  0.00000000000E+00 0. -1.
         -3    1    1    2    0  503 -0.14606371670E+02  0.19572802974E+02 -0.17923350004E+02  0.30293352159E+02  0.00000000000E+00 0.  1.
<mgrwt>
<rscale>  2 0.24422136E+02</rscale>
<asrwt>0</asrwt>
<pdfrwt beam="1">  1       21 0.19897985E-02 0.24422136E+02</pdfrwt>
<pdfrwt beam="2">  1       21 0.71081597E-02 0.24422136E+02</pdfrwt>
<totfact> 0.12505232E+08</totfact>
</mgrwt>
</event>
<event>
 4    1  0.7521660E+004  0.2909195E+02  0.7546771E-02  0.1608348E+00
         21   -1    0    0  503  502  0.00000000000E+00  0.00000000000E+00  0.14262709850E+02  0.14262709850E+02  0.00000000000E+00 0. -1.
         21   -1    0    0  501  503 -0.00000000000E+00 -0.00000000000E+00 -0.64878596290E+02  0.64878596290E+02  0.00000000000E+00 0. -1.
          3    1    1    2  501    0 -0.28945345699E+02  0.29169447502E+01 -0.13745669779E+02  0.32175845630E+02  0.00000000000E+00 0.  1.
         -3    1    1    2    0  502  0.28945345699E+02 -0.29169447502E+01 -0.36870216661E+02  0.46965460510E+02  0.00000000000E+00 0. -1.
<mgrwt>
<rscale>  2 0.29091951E+02</rscale>
<asrwt>0</asrwt>
<pdfrwt beam="1">  1       21 0.21942631E-02 0.29091951E+02</pdfrwt>
<pdfrwt beam="2">  1       21 0.99813225E-02 0.29091951E+02</pdfrwt>
<totfact> 0.64305690E+07</totfact>
</mgrwt>
</event>
<event>
 4    1  0.7521660E+004  0.2199244E+02  0.7546771E-02  0.1708383E+00
         21   -1    0    0  501  502  0.00000000000E+00  0.00000000000E+00  0.49866644947E+01  0.49866644947E+01  0.00000000000E+00 0. -1.
         21   -1    0    0  502  503 -0.00000000000E+00 -0.00000000000E+00 -0.97167274471E+02  0.97167274471E+02  0.00000000000E+00 0. -1.
          3    1    1    2  501    0 -0.12908474443E+02  0.17805585318E+02 -0.48258365044E+02  0.53033360988E+02  0.00000000000E+00 0. -1.
         -3    1    1    2    0  503  0.12908474443E+02 -0.17805585318E+02 -0.43922244932E+02  0.49120577977E+02  0.00000000000E+00 0.  1.
<mgrwt>
<rscale>  2 0.21992444E+02</rscale>
<asrwt>0</asrwt>
<pdfrwt beam="1">  1       21 0.76717907E-03 0.21992444E+02</pdfrwt>
<pdfrwt beam="2">  1       21 0.14948813E-01 0.21992444E+02</pdfrwt>
<totfact> 0.14921841E+08</totfact>
</mgrwt>
</event>
<event>
 4    1  0.7521660E+004  0.3281365E+02  0.7546771E-02  0.1568920E+00
         21   -1    0    0  501  502  0.00000000000E+00  0.00000000000E+00  0.77848973277E+01  0.77848973277E+01  0.00000000000E+00 0.  1.
         21   -1    0    0  502  503 -0.00000000000E+00 -0.00000000000E+00 -0.13838582228E+03  0.13838582228E+03  0.00000000000E+00 0.  1.
          5    1    1    2  501    0 -0.23377960581E+02 -0.23026211012E+02 -0.67002066379E+02  0.74605712472E+02  0.00000000000E+00 0.  1.
         -5    1    1    2    0  503  0.23377960581E+02  0.23026211012E+02 -0.63598858576E+02  0.71565007138E+02  0.00000000000E+00 0. -1.
<mgrwt>
<rscale>  2 0.32813647E+02</rscale>
<asrwt>0</asrwt>
<pdfrwt beam="1">  1       21 0.11976766E-02 0.32813647E+02</pdfrwt>
<pdfrwt beam="2">  1       21 0.21290125E-01 0.32813647E+02</pdfrwt>
<totfact> 0.45518620E+07</totfact>
</mgrwt>
</event>
<event>
 4    1  0.7521660E+004  0.2132168E+02  0.7546771E-02  0.1720254E+00
         21   -1    0    0  503  502  0.00000000000E+00  0.00000000000E+00  0.17495369330E+02  0.17495369330E+02  0.00000000000E+00 0. -1.
         21   -1    0    0  501  503 -0.00000000000E+00 -0.00000000000E+00 -0.26268188464E+02  0.26268188464E+02  0.00000000000E+00 0. -1.
          4    1    1    2  501    0 -0.10834480609E+02  0.18363769132E+02 -0.66591241707E+01  0.22337366038E+02  0.00000000000E+00 0. -1.
         -4    1    1    2    0  502  0.10834480609E+02 -0.18363769132E+02 -0.21136949628E+01  0.21426191756E+02  0.00000000000E+00 0.  1.
<mgrwt>
<rscale>  2 0.21321679E+02</rscale>
<asrwt>0</asrwt>
<pdfrwt beam="1">  1       21 0.26915953E-02 0.21321679E+02</pdfrwt>
<pdfrwt beam="2">  1       21 0.40412598E-02 0.21321679E+02</pdfrwt>
<totfact> 0.18558198E+08</totfact>
</mgrwt>
</event>
<event>
 4    1  0.7521660E+004  0.2710196E+02  0.7546771E-02  0.1632525E+00
         21   -1    0    0  503  502  0.00000000000E+00  0.00000000000E+00  0.52759717342E+02  0.52759717342E+02  0.00000000000E+00 0.  1.
         21   -1    0    0  501  503 -0.00000000000E+00 -0.00000000000E+00 -0.14067686608E+02  0.14067686608E+02  0.00000000000E+00 0.  1.
          3    1    1    2  501    0 -0.76236112441E+01 -0.26007624801E+02  0.15944610640E+02  0.31444341377E+02  0.00000000000E+00 0. -1.
         -3    1    1    2    0  502  0.76236112441E+01  0.26007624801E+02  0.22747420094E+02  0.35383062574E+02  0.00000000000E+00 0.  1.
<mgrwt>
<rscale>  2 0.27101956E+02</rscale>
<asrwt>0</asrwt>
<pdfrwt beam="1">  1       21 0.81168795E-02 0.27101956E+02</pdfrwt>
<pdfrwt beam="2">  1       21 0.21642595E-02 0.27101956E+02</pdfrwt>
<totfact> 0.90910327E+07</totfact>
</mgrwt>
</event>
<event>
 4    1  0.7521660E+004  0.4559494E+02  0.7546771E-02  0.1470661E+00
         21   -1    0    0  503  502  0.00000000000E+00  0.00000000000E+00  0.36147508396E+02  0.36147508396E+02  0.00000000000E+00 0.  1.
         21   -1    0    0  501  503 -0.00000000000E+00 -0.00000000000E+00 -0.70138184143E+02  0.70138184143E+02  0.00000000000E+00 0.  1.
          5    1    1    2  501    0 -0.64488395917E+01  0.45136580661E+02  0.55528542553E+01  0.45931825962E+02  0.00000000000E+00 0. -1.
         -5    1    1    2    0  502  0.64488395917E+01 -0.45136580661E+02 -0.39543530002E+02  0.60353866577E+02  0.00000000000E+00 0.  1.
<mgrwt>
<rscale>  2 0.45594939E+02</rscale>
<asrwt>0</asrwt>
<pdfrwt beam="1">  1       21 0.55611551E-02 0.45594939E+02</pdfrwt>
<pdfrwt beam="2">  1       21 0.10790490E-01 0.45594939E+02</pdfrwt>
<totfact> 0.13901480E+07</totfact>
</mgrwt>
</event>
<event>
 4    1  0.7521660E+004  0.3257869E+02  0.7546771E-02  0.1571217E+00
         21   -1    0    0  501  502  0.00000000000E+00  0.00000000000E+00  0.84294303508E+01  0.84294303508E+01  0.00000000000E+00 0. -1.
         21   -1    0    0  502  503 -0.00000000000E+00 -0.00000000000E+00 -0.12611608839E+03  0.12611608839E+03  0.00000000000E+00 0. -1.
          4    1    1    2  501    0 -0.21378541696E+02  0.24583104965E+02 -0.56140776777E+02  0.64908843095E+02  0.00000000000E+00 0.  1.
         -4    1    1    2    0  503  0.21378541696E+02 -0.24583104965E+02 -0.61545881262E+02  0.69636675646E+02  0.00000000000E+00 0. -1.
<mgrwt>
<rscale>  2 0.32578691E+02</rscale>
<asrwt>0</asrwt>
<pdfrwt beam="1">  1       21 0.12968355E-02 0.32578691E+02</pdfrwt>
<pdfrwt beam="2">  1       21 0.19402475E-01 0.32578691E+02</pdfrwt>
<totfact> 0.47444999E+07</totfact>
</mgrwt>
</event>
<event>
 4    1  0.7521660E+004  0.4173314E+02  0.7546771E-02  0.1495831E+00
         21   -1    0    0  501  502  0.00000000000E+00  0.00000000000E+00  0.26305555569E+03  0.26305555569E+03  0.00000000000E+00 0. -1.
         21   -1    0    0  502  503 -0.00000000000E+00 -0.00000000000E+00 -0.69211014696E+01  0.69211014696E+01  0.00000000000E+00 0. -1.
          1    1    1    2  501    0  0.73324135529E+01  0.41083944758E+02  0.15618246442E+03  0.16166204563E+03  0.00000000000E+00 0.  1.
         -1    1    1    2    0  503 -0.73324135529E+01 -0.41083944758E+02  0.99951989796E+02  0.10831461152E+03  0.00000000000E+00 0. -1.
<mgrwt>
<rscale>  2 0.41733138E+02</rscale>
<asrwt>0</asrwt>
<pdfrwt beam="1">  1       21 0.40470078E-01 0.41733138E+02</pdfrwt>
<pdfrwt beam="2">  1       21 0.10647850E-02 0.41733138E+02</pdfrwt>
<totfact> 0.17289035E+07</totfact>
</mgrwt>
</event>
<event>
 4    1  0.7521660E+004  0.2306096E+02  0.7546771E-02  0.1690524E+00
         21   -1    0    0  501  502  0.00000000000E+00  0.00000000000E+00  0.12808496999E+03  0.12808496999E+03  0.00000000000E+00 0.  1.
         21   -1    0    0  502  503 -0.00000000000E+00 -0.00000000000E+00 -0.43813306993E+01  0.43813306993E+01  0.00000000000E+00 0.  1.
          1    1    1    2  501    0  0.11299457929E+02  0.20102983004E+02  0.77005278504E+02  0.80384206114E+02  0.00000000000E+00 0. -1.
         -1    1    1    2    0  503 -0.11299457929E+02 -0.20102983004E+02  0.46698360785E+02  0.52082094573E+02  0.00000000000E+00 0.  1.
<mgrwt>
<rscale>  2 0.23060956E+02</rscale>
<asrwt>0</asrwt>
<pdfrwt beam="1">  1       21 0.19705377E-01 0.23060956E+02</pdfrwt>
<pdfrwt beam="2">  1       21 0.67405098E-03 0.23060956E+02</pdfrwt>
<totfact> 0.11403081E+08</totfact>
</mgrwt>
</event>
<event>
 4    1  0.7521660E+004  0.2308673E+02  0.7546771E-02  0.1690108E+00
         21   -1    0    0  503  502  0.00000000000E+00  0.00000000000E+00  0.19478815954E+02  0.19478815954E+02  0.00000000000E+00 0.  1.
         21   -1    0    0  501  503 -0.00000000000E+00 -0.00000000000E+00 -0.30209005222E+02  0.30209005222E+02  0.00000000000E+00 0.  1.
          4    1    1    2  501    0  0.22843079376E+02 -0.33452814822E+01  0.22605415879E+01  0.23197138441E+02  0.00000000000E+00 0. -1.
         -4    1    1    2    0  502 -0.22843079376E+02  0.33452814822E+01 -0.12990730856E+02  0.26490682735E+02  0.00000000000E+00 0.  1.
<mgrwt>
<rscale>  2 0.23086732E+02</rscale>
<asrwt>0</asrwt>
<pdfrwt beam="1">  1       21 0.29967409E-02 0.23086732E+02</pdfrwt>
<pdfrwt beam="2">  1       21 0.46475393E-02 0.23086732E+02</pdfrwt>
<totfact> 0.12910190E+08</totfact>
</mgrwt>
</event>
<event>
 4    1  0.7521660E+004  0.2041665E+02  0.7546771E-02  0.1737167E+00
         21   -1    0    0  503  502  0.00000000000E+00  0.00000000000E+00  0.13009113087E+02  0.13009113087E+02  0.00000000000E+00 0. -1.
         21   -1    0    0  501  503 -0.00000000000E+00 -0.00000000000E+00 -0.33133616818E+02  0.33133616818E+02  0.00000000000E+00 0. -1.
          2    1    1    2  501    0  0.10906420669E+02  0.17259480444E+02 -0.58748142125E+01  0.21245072818E+02  0.00000000000E+00 0. -1.
         -2    1    1    2    0  502 -0.10906420669E+02 -0.17259480444E+02 -0.14249689519E+02  0.24897657087E+02  0.00000000000E+00 0.  1.
<mgrwt>
<rscale>  2 0.20416652E+02</rscale>
<asrwt>0</asrwt>
<pdfrwt beam="1">  1       21 0.20014020E-02 0.20416652E+02</pdfrwt>
<pdfrwt beam="2">  1       21 0.50974795E-02 0.20416652E+02</pdfrwt>
<totfact> 0.20000939E+08</totfact>
</mgrwt>
</event>
<event>
 4    1  0.7521660E+004  0.3075227E+02  0.7546771E-02  0.1589919E+00
         21   -1    0    0  501  502  0.00000000000E+00  0.00000000000E+00  0.93900714269E+02  0.93900714269E+02  0.00000000000E+00 0.  1.
         21   -1    0    0  502  503 -0.00000000000E+00 -0.00000000000E+00 -0.11593897735E+02  0.11593897735E+02  0.00000000000E+00 0.  1.
          1    1    1    2  501    0  0.43641958405E+01  0.30441020022E+02  0.22038215376E+02  0.37833646960E+02  0.00000000000E+00 0.  1.
         -1    1    1    2    0  503 -0.43641958405E+01 -0.30441020022E+02  0.60268601157E+02  0.67660965044E+02  0.00000000000E+00 0. -1.
<mgrwt>
<rscale>  2 0.30752267E+02</rscale>
<asrwt>0</asrwt>
<pdfrwt beam="1">  1       21 0.14446263E-01 0.30752267E+02</pdfrwt>
<pdfrwt beam="2">  1       21 0.17836766E-02 0.30752267E+02</pdfrwt>
<totfact> 0.47981098E+07</totfact>
</mgrwt>
</event>
<event>
 4    1  0.7521660E+004  0.2215830E+02  0.7546771E-02  0.1705529E+00
         21   -1    0    0  501  502  0.00000000000E+00  0.00000000000E+00  0.57773193186E+01  0.57773193186E+01  0.00000000000E+00 0.  1.
         21   -1    0    0  502  503 -0.00000000000E+00 -0.00000000000E+00 -0.98161698500E+02  0.98161698500E+02  0.00000000000E+00 0.  1.
          4    1    1    2  501    0 -0.15659756743E+02  0.15676811540E+02 -0.65232185612E+02  0.68892876563E+02  0.00000000000E+00 0.  1.
         -4    1    1    2    0  503  0.15659756743E+02 -0.15676811540E+02 -0.27152193569E+02  0.35046141256E+02  0.00000000000E+00 0. -1.
<mgrwt>
<rscale>  2 0.22158303E+02</rscale>
<asrwt>0</asrwt>
<pdfrwt beam="1">  1       21 0.88881825E-03 0.22158303E+02</pdfrwt>
<pdfrwt beam="2">  1       21 0.15101802E-01 0.22158303E+02</pdfrwt>
<totfact> 0.11800691E+08</totfact>
</mgrwt>
</event>
<event>
 4    1  0.7521660E+004  0.2290156E+02  0.7546771E-02  0.1693111E+00
         21   -1    0    0  501  502  0.00000000000E+00  0.00000000000E+00  0.16323141707E+03  0.16323141707E+03  0.00000000000E+00 0. -1.
         21   -1    0    0  502  503 -0.00000000000E+00 -0.00000000000E+00 -0.33943725579E+01  0.33943725579E+01  0.00000000000E+00 0. -1.
          4    1    1    2  501    0 -0.10257072275E+02 -0.20476174652E+02  0.60666297022E+02  0.64845052660E+02  0.00000000000E+00 0.  1.
         -4    1    1    2    0  503  0.10257072275E+02  0.20476174652E+02  0.99170747490E+02  0.10178073697E+03  0.00000000000E+00 0. -1.
<mgrwt>
<rscale>  2 0.22901556E+02</rscale>
<asrwt>0</asrwt>
<pdfrwt beam="1">  1       21 0.25112520E-01 0.22901556E+02</pdfrwt>
<pdfrwt beam="2">  1       21 0.52221129E-03 0.22901556E+02</pdfrwt>
<totfact> 0.10833206E+08</totfact>
</mgrwt>
</event>
<event>
 4    1  0.7521660E+004  0.2631517E+02  0.7546771E-02  0.1642800E+00
         21   -1    0    0  503  502  0.00000000000E+00  0.00000000000E+00  0.12157835728E+04  0.12157835728E+04  0.00000000000E+00 0.  1.
         21   -1    0    0  501  503 -0.00000000000E+00 -0.00000000000E+00 -0.61140697975E+00  0.61140697975E+00  0.00000000000E+00 0.  1.
          4    1    1    2  501    0  0.23295254032E+02  0.12240076574E+02  0.76665954792E+03  0.76711104199E+03  0.00000000000E+00 0. -1.
         -4    1    1    2    0  502 -0.23295254032E+02 -0.12240076574E+02  0.44851261790E+03  0.44928393778E+03  0.00000000000E+00 0.  1.
<mgrwt>
<rscale>  2 0.26315173E+02</rscale>
<asrwt>0</asrwt>
<pdfrwt beam="1">  1       21 0.18704169E+00 0.26315173E+02</pdfrwt>
<pdfrwt beam="2">  1       21 0.94063585E-04 0.26315173E+02</pdfrwt>
<totfact> 0.20501446E+07</totfact>
</mgrwt>
</event>
<event>
 4    1  0.7521660E+004  0.2026637E+02  0.7546771E-02  0.1740082E+00
         21   -1    0    0  501  502  0.00000000000E+00  0.00000000000E+00  0.16772423640E+02  0.16772423640E+02  0.00000000000E+00 0.  1.
         21   -1    0    0  502  503 -0.00000000000E+00 -0.00000000000E+00 -0.25806463280E+02  0.25806463280E+02  0.00000000000E+00 0.  1.
          1    1    1    2  501    0 -0.13192122762E+02  0.15384852230E+02  0.29478334788E+00  0.20268514458E+02  0.00000000000E+00 0.  1.
         -1    1    1    2    0  503  0.13192122762E+02 -0.15384852230E+02 -0.93288229879E+01  0.22310372463E+02  0.00000000000E+00 0. -1.
<mgrwt>
<rscale>  2 0.20266371E+02</rscale>
<asrwt>0</asrwt>
<pdfrwt beam="1">  1       21 0.25803729E-02 0.20266371E+02</pdfrwt>
<pdfrwt beam="2">  1       21 0.39702251E-02 0.20266371E+02</pdfrwt>
<totfact> 0.20037267E+08</totfact>
</mgrwt>
</event>
<event>
 4    1  0.7521660E+004  0.2396736E+02  0.7546771E-02  0.1676293E+00
         21   -1    0    0  501  502  0.00000000000E+00  0.00000000000E+00  0.21809130280E+01  0.21809130280E+01  0.00000000000E+00 0.  1.
         21   -1    0    0  502  503 -0.00000000000E+00 -0.00000000000E+00 -0.27360502656E+03  0.27360502656E+03  0.00000000000E+00 0.  1.
          4    1    1    2  501    0  0.22436609675E+02  0.84281009999E+01 -0.16235389484E+03  0.16411344098E+03  0.00000000000E+00 0.  1.
         -4    1    1    2    0  503 -0.22436609675E+02 -0.84281009999E+01 -0.10907021870E+03  0.11167249861E+03  0.00000000000E+00 0. -1.
<mgrwt>
<rscale>  2 0.23967360E+02</rscale>
<asrwt>0</asrwt>
<pdfrwt beam="1">  1       21 0.33552528E-03 0.23967360E+02</pdfrwt>
<pdfrwt beam="2">  1       21 0.42093056E-01 0.23967360E+02</pdfrwt>
<totfact> 0.81243910E+07</totfact>
</mgrwt>
</event>
<event>
 4    1  0.7521660E+004  0.2640437E+02  0.7546771E-02  0.1641613E+00
         21   -1    0    0  501  502  0.00000000000E+00  0.00000000000E+00  0.18743089638E+03  0.18743089638E+03  0.00000000000E+00 0.  1.
         21   -1    0    0  502  503 -0.00000000000E+00 -0.00000000000E+00 -0.37226933041E+01  0.37226933041E+01  0.00000000000E+00 0.  1.
          5    1    1    2  501    0 -0.15181559145E+02 -0.21603492228E+02  0.89153373133E+02  0.92981259163E+02  0.00000000000E+00 0.  1.
         -5    1    1    2    0  503  0.15181559145E+02  0.21603492228E+02  0.94554829944E+02  0.98172330523E+02  0.00000000000E+00 0. -1.
<mgrwt>
<rscale>  2 0.26404367E+02</rscale>
<asrwt>0</asrwt>
<pdfrwt beam="1">  1       21 0.28835515E-01 0.26404367E+02</pdfrwt>
<pdfrwt beam="2">  1       21 0.57272219E-03 0.26404367E+02</pdfrwt>
<totfact> 0.76383789E+07</totfact>
</mgrwt>
</event>
<event>
 4    1  0.7521660E+004  0.2070645E+02  0.7546771E-02  0.1731634E+00
         21   -1    0    0  503  502  0.00000000000E+00  0.00000000000E+00  0.66946981343E+02  0.66946981343E+02  0.00000000000E+00 0.  1.
         21   -1    0    0  501  503 -0.00000000000E+00 -0.00000000000E+00 -0.64144735222E+01  0.64144735222E+01  0.00000000000E+00 0.  1.
          5    1    1    2  501    0 -0.67574495317E+00 -0.20695421743E+02  0.28814654639E+02  0.35482973865E+02  0.00000000000E+00 0.  1.
         -5    1    1    2    0  502  0.67574495317E+00  0.20695421743E+02  0.31717853182E+02  0.37878481000E+02  0.00000000000E+00 0. -1.
<mgrwt>
<rscale>  2 0.20706451E+02</rscale>
<asrwt>0</asrwt>
<pdfrwt beam="1">  1       21 0.10299535E-01 0.20706451E+02</pdfrwt>
<pdfrwt beam="2">  1       21 0.98684212E-03 0.20706451E+02</pdfrwt>
<totfact> 0.18767117E+08</totfact>
</mgrwt>
</event>
<event>
 4    1  0.7521660E+004  0.2046567E+02  0.7546771E-02  0.1736223E+00
         21   -1    0    0  503  502  0.00000000000E+00  0.00000000000E+00  0.30505617591E+01  0.30505617591E+01  0.00000000000E+00 0. -1.
         21   -1    0    0  501  503 -0.00000000000E+00 -0.00000000000E+00 -0.13996102337E+03  0.13996102337E+03  0.00000000000E+00 0. -1.
          3    1    1    2  501    0 -0.17292915435E+02  0.10945258719E+02 -0.58596469864E+02  0.62067623551E+02  0.00000000000E+00 0.  1.
         -3    1    1    2    0  502  0.17292915435E+02 -0.10945258719E+02 -0.78313991742E+02  0.80943961574E+02  0.00000000000E+00 0. -1.
<mgrwt>
<rscale>  2 0.20465669E+02</rscale>
<asrwt>0</asrwt>
<pdfrwt beam="1">  1       21 0.46931730E-03 0.20465669E+02</pdfrwt>
<pdfrwt beam="2">  1       21 0.21532460E-01 0.20465669E+02</pdfrwt>
<totfact> 0.16100848E+08</totfact>
</mgrwt>
</event>
<event>
 4    1  0.7521660E+004  0.2078248E+02  0.7546771E-02  0.1730201E+00
         21   -1    0    0  503  502  0.00000000000E+00  0.00000000000E+00  0.58807867387E+02  0.58807867387E+02  0.00000000000E+00 0.  1.
         21   -1    0    0  501  503 -0.00000000000E+00 -0.00000000000E+00 -0.73836446638E+01  0.73836446638E+01  0.00000000000E+00 0.  1.
          4    1    1    2  501    0  0.17174804632E+02 -0.11702026253E+02  0.23300759109E+02  0.31222375112E+02  0.00000000000E+00 0.  1.
         -4    1    1    2    0  502 -0.17174804632E+02  0.11702026253E+02  0.28123463614E+02  0.34969136939E+02  0.00000000000E+00 0. -1.
<mgrwt>
<rscale>  2 0.20782477E+02</rscale>
<asrwt>0</asrwt>
<pdfrwt beam="1">  1       21 0.90473639E-02 0.20782477E+02</pdfrwt>
<pdfrwt beam="2">  1       21 0.11359454E-02 0.20782477E+02</pdfrwt>
<totfact> 0.18828817E+08</totfact>
</mgrwt>
</event>
<event>
 4    1  0.7521660E+004  0.2015872E+02  0.7546771E-02  0.1742190E+00
         21   -1    0    0  503  502  0.00000000000E+00  0.00000000000E+00  0.21227287895E+01  0.21227287895E+01  0.00000000000E+00 0. -1.
         21   -1    0    0  501  503 -0.00000000000E+00 -0.00000000000E+00 -0.19153151103E+03  0.19153151103E+03  0.00000000000E+00 0. -1.
          4    1    1    2  501    0 -0.19073332917E+02  0.65254704717E+01 -0.92580268002E+02  0.94749563676E+02  0.00000000000E+00 0. -1.
         -4    1    1    2    0  502  0.19073332917E+02 -0.65254704717E+01 -0.96828514235E+02  0.98904676140E+02  0.00000000000E+00 0.  1.
<mgrwt>
<rscale>  2 0.20158715E+02</rscale>
<asrwt>0</asrwt>
<pdfrwt beam="1">  1       21 0.32657368E-03 0.20158715E+02</pdfrwt>
<pdfrwt beam="2">  1       21 0.29466385E-01 0.20158715E+02</pdfrwt>
<totfact> 0.15593325E+08</totfact>
</mgrwt>
</event>
<event>
 4    1  0.7521660E+004  0.2027369E+02  0.7546771E-02  0.1739939E+00
         21   -1    0    0  503  502  0.00000000000E+00  0.00000000000E+00  0.41269750059E+03  0.41269750059E+03  0.00000000000E+00 0.  1.
         21   -1    0    0  501  503 -0.00000000000E+00 -0.00000000000E+00 -0.12760371377E+01  0.12760371377E+01  0.00000000000E+00 0.  1.
          3    1    1    2  501    0 -0.21381473875E+01  0.20160629175E+02  0.30268666309E+03  0.30336486061E+03  0.00000000000E+00 0. -1.
         -3    1    1    2    0  502  0.21381473875E+01 -0.20160629175E+02  0.10873480037E+03  0.11060867712E+03  0.00000000000E+00 0.  1.
<mgrwt>
<rscale>  2 0.20273693E+02</rscale>
<asrwt>0</asrwt>
<pdfrwt beam="1">  1       21 0.63491817E-01 0.20273693E+02</pdfrwt>
<pdfrwt beam="2">  1       21 0.19631373E-03 0.20273693E+02</pdfrwt>
<totfact> 0.75946418E+07</totfact>
</mgrwt>
</event>
<event>
 4    1  0.7521660E+004  0.2369411E+02  0.7546771E-02  0.1680500E+00
         21   -1    0    0  501  502  0.00000000000E+00  0.00000000000E+00  0.45849558704E+03  0.45849558704E+03  0.00000000000E+00 0. -1.
         21   -1    0    0  502  503 -0.00000000000E+00 -0.00000000000E+00 -0.12760898267E+01  0.12760898267E+01  0.00000000000E+00 0. -1.
          5    1    1    2  501    0  0.72074679349E+01 -0.22571294690E+02  0.18237070986E+03  0.18390347129E+03  0.00000000000E+00 0. -1.
         -5    1    1    2    0  503 -0.72074679349E+01  0.22571294690E+02  0.27484878734E+03  0.27586820557E+03  0.00000000000E+00 0.  1.
<mgrwt>
<rscale>  2 0.23694112E+02</rscale>
<asrwt>0</asrwt>
<pdfrwt beam="1">  1       21 0.70537651E-01 0.23694112E+02</pdfrwt>
<pdfrwt beam="2">  1       21 0.19632188E-03 0.23694112E+02</pdfrwt>
<totfact> 0.63724039E+07</totfact>
</mgrwt>
</event>
<event>
 4    1  0.7521660E+004  0.3256125E+02  0.7546771E-02  0.1571389E+00
         21   -1    0    0  501  502  0.00000000000E+00  0.00000000000E+00  0.56640223894E+02  0.56640223894E+02  0.00000000000E+00 0. -1.
         21   -1    0    0  502  503 -0.00000000000E+00 -0.00000000000E+00 -0.19647998109E+02  0.19647998109E+02  0.00000000000E+00 0. -1.
          5    1    1    2  501    0  0.26167395319E+02  0.19377883187E+02  0.26791394213E+02  0.42166500192E+02  0.00000000000E+00 0.  1.
         -5    1    1    2    0  503 -0.26167395319E+02 -0.19377883187E+02  0.10200831573E+02  0.34121721811E+02  0.00000000000E+00 0. -1.
<mgrwt>
<rscale>  2 0.32561249E+02</rscale>
<asrwt>0</asrwt>
<pdfrwt beam="1">  1       21 0.87138805E-02 0.32561249E+02</pdfrwt>
<pdfrwt beam="2">  1       21 0.30227690E-02 0.32561249E+02</pdfrwt>
<totfact> 0.50075153E+07</totfact>
</mgrwt>
</event>
<event>
 4    1  0.7521660E+004  0.2004568E+02  0.7546771E-02  0.1744421E+00
         21   -1    0    0  503  502  0.00000000000E+00  0.00000000000E+00  0.72496351882E+01  0.72496351882E+01  0.00000000000E+00 0. -1.
         21   -1    0    0  501  503 -0.00000000000E+00 -0.00000000000E+00 -0.64837113579E+02  0.64837113579E+02  0.00000000000E+00 0. -1.
          5    1    1    2  501    0  0.54678761882E+01 -0.19285523947E+02 -0.15062818410E+02  0.25074241810E+02  0.00000000000E+00 0. -1.
         -5    1    1    2    0  502 -0.54678761882E+01  0.19285523947E+02 -0.42524659981E+02  0.47012506957E+02  0.00000000000E+00 0.  1.
<mgrwt>
<rscale>  2 0.20045675E+02</rscale>
<asrwt>0</asrwt>
<pdfrwt beam="1">  1       21 0.11153285E-02 0.20045675E+02</pdfrwt>
<pdfrwt beam="2">  1       21 0.99749408E-02 0.20045675E+02</pdfrwt>
<totfact> 0.16301286E+08</totfact>
</mgrwt>
</event>
<event>
 4    1  0.7521660E+004  0.2913553E+02  0.7546771E-02  0.1607846E+00
         21   -1    0    0  501  502  0.00000000000E+00  0.00000000000E+00  0.19889195636E+02  0.19889195636E+02  0.00000000000E+00 0. -1.
         21   -1    0    0  502  503 -0.00000000000E+00 -0.00000000000E+00 -0.58340328755E+02  0.58340328755E+02  0.00000000000E+00 0. -1.
          4    1    1    2  501    0  0.15919438684E+02 -0.24401851601E+02 -0.39490776366E+02  0.49075455246E+02  0.00000000000E+00 0. -1.
         -4    1    1    2    0  503 -0.15919438684E+02  0.24401851601E+02  0.10396432470E+01  0.29154069144E+02  0.00000000000E+00 0.  1.
<mgrwt>
<rscale>  2 0.29135526E+02</rscale>
<asrwt>0</asrwt>
<pdfrwt beam="1">  1       21 0.30598763E-02 0.29135526E+02</pdfrwt>
<pdfrwt beam="2">  1       21 0.89754350E-02 0.29135526E+02</pdfrwt>
<totfact> 0.45665596E+07</totfact>
</mgrwt>
</event>
<event>
 4    1  0.7521660E+004  0.3771601E+02  0.7546771E-02  0.1525725E+00
         21   -1    0    0  503  502  0.00000000000E+00  0.00000000000E+00  0.83963457703E+02  0.83963457703E+02  0.00000000000E+00 0. -1.
         21   -1    0    0  501  503 -0.00000000000E+00 -0.00000000000E+00 -0.17024380246E+02  0.17024380246E+02  0.00000000000E+00 0. -1.
          4    1    1    2  501    0  0.29370348061E+02  0.23661779952E+02  0.29954074082E+02  0.48163717981E+02  0.00000000000E+00 0.  1.
         -4    1    1    2    0  502 -0.29370348061E+02 -0.23661779952E+02  0.36985003375E+02  0.52824119968E+02  0.00000000000E+00 0. -1.
<mgrwt>
<rscale>  2 0.37716007E+02</rscale>
<asrwt>0</asrwt>
<pdfrwt beam="1">  1       21 0.12917455E-01 0.37716007E+02</pdfrwt>
<pdfrwt beam="2">  1       21 0.26191355E-02 0.37716007E+02</pdfrwt>
<totfact> 0.33243198E+07</totfact>
</mgrwt>
</event>
<event>
 4    1  0.7521660E+004  0.2353200E+02  0.7546771E-02  0.1683029E+00
         21   -1    0    0  503  502  0.00000000000E+00  0.00000000000E+00  0.33235324996E+03  0.33235324996E+03  0.00000000000E+00 0. -1.
         21   -1    0    0  501  503 -0.00000000000E+00 -0.00000000000E+00 -0.24897851771E+01  0.24897851771E+01  0.00000000000E+00 0. -1.
          5    1    1    2  501    0  0.13780755251E+02  0.19074740997E+02  0.26122460360E+03  0.26228238310E+03  0.00000000000E+00 0. -1.
         -5    1    1    2    0  502 -0.13780755251E+02 -0.19074740997E+02  0.68638861186E+02  0.72560652038E+02  0.00000000000E+00 0.  1.
<mgrwt>
<rscale>  2 0.23531999E+02</rscale>
<asrwt>0</asrwt>
<pdfrwt beam="1">  1       21 0.51131234E-01 0.23531999E+02</pdfrwt>
<pdfrwt beam="2">  1       21 0.38304414E-03 0.23531999E+02</pdfrwt>
<totfact> 0.45805825E+07</totfact>
</mgrwt>
</event>
<event>
 4    1  0.7521660E+004  0.3698662E+02  0.7546771E-02  0.1531635E+00
         21   -1    0    0  503  502  0.00000000000E+00  0.00000000000E+00  0.27413340467E+02  0.27413340467E+02  0.00000000000E+00 0.  1.
         21   -1    0    0  501  503 -0.00000000000E+00 -0.00000000000E+00 -0.50782175024E+02  0.50782175024E+02  0.00000000000E+00 0.  1.
          5    1    1    2  501    0 -0.32527700402E+02 -0.17605635883E+02 -0.16828617270E+02  0.40635108804E+02  0.00000000000E+00 0.  1.
         -5    1    1    2    0  502  0.32527700402E+02  0.17605635883E+02 -0.65402172869E+01  0.37560406686E+02  0.00000000000E+00 0. -1.
<mgrwt>
<rscale>  2 0.36986615E+02</rscale>
<asrwt>0</asrwt>
<pdfrwt beam="1">  1       21 0.42174370E-02 0.36986615E+02</pdfrwt>
<pdfrwt beam="2">  1       21 0.78126423E-02 0.36986615E+02</pdfrwt>
<totfact> 0.36242484E+07</totfact>
</mgrwt>
</event>
<event>
 4    1  0.7521660E+004  0.2813848E+02  0.7546771E-02  0.1619626E+00
         21   -1    0    0  501  502  0.00000000000E+00  0.00000000000E+00  0.16075335885E+02  0.16075335885E+02  0.00000000000E+00 0. -1.
         21   -1    0    0  502  503 -0.00000000000E+00 -0.00000000000E+00 -0.64123587268E+02  0.64123587268E+02  0.00000000000E+00 0. -1.
          4    1    1    2  501    0  0.21254638134E+02 -0.18439483559E+02 -0.47142510478E+01  0.28530656478E+02  0.00000000000E+00 0. -1.
         -4    1    1    2    0  503 -0.21254638134E+02  0.18439483559E+02 -0.43334000335E+02  0.51668266675E+02  0.00000000000E+00 0.  1.
<mgrwt>
<rscale>  2 0.28138482E+02</rscale>
<asrwt>0</asrwt>
<pdfrwt beam="1">  1       21 0.24731286E-02 0.28138482E+02</pdfrwt>
<pdfrwt beam="2">  1       21 0.98651672E-02 0.28138482E+02</pdfrwt>
<totfact> 0.54012041E+07</totfact>
</mgrwt>
</event>
<event>
 4    1  0.7521660E+004  0.2086568E+02  0.7546771E-02  0.1728641E+00
         21   -1    0    0  503  502  0.00000000000E+00  0.00000000000E+00  0.23011432977E+02  0.23011432977E+02  0.00000000000E+00 0. -1.
         21   -1    0    0  501  503 -0.00000000000E+00 -0.00000000000E+00 -0.19057649940E+02  0.19057649940E+02  0.00000000000E+00 0. -1.
          4    1    1    2  501    0 -0.19614892615E+02 -0.71156708196E+01  0.18935856237E+00  0.20866543561E+02  0.00000000000E+00 0.  1.
         -4    1    1    2    0  502  0.19614892615E+02  0.71156708196E+01  0.37644244739E+01  0.21202539356E+02  0.00000000000E+00 0. -1.
<mgrwt>
<rscale>  2 0.20865684E+02</rscale>
<asrwt>0</asrwt>
<pdfrwt beam="1">  1       21 0.35402205E-02 0.20865684E+02</pdfrwt>
<pdfrwt beam="2">  1       21 0.29319461E-02 0.20865684E+02</pdfrwt>
<totfact> 0.19865123E+08</totfact>
</mgrwt>
</event>
<event>
 4    1  0.7521660E+004  0.3672516E+02  0.7546771E-02  0.1533793E+00
         21   -1    0    0  503  502  0.00000000000E+00  0.00000000000E+00  0.10432612863E+02  0.10432612863E+02  0.00000000000E+00 0.  1.
         21   -1    0    0  501  503 -0.00000000000E+00 -0.00000000000E+00 -0.14378868465E+03  0.14378868465E+03  0.00000000000E+00 0.  1.
          3    1    1    2  501    0 -0.31126467269E+02 -0.19490529226E+02 -0.42184449022E+02  0.55930898736E+02  0.00000000000E+00 0. -1.
         -3    1    1    2    0  502  0.31126467269E+02  0.19490529226E+02 -0.91171622764E+02  0.98290398776E+02  0.00000000000E+00 0.  1.
<mgrwt>
<rscale>  2 0.36725164E+02</rscale>
<asrwt>0</asrwt>
<pdfrwt beam="1">  1       21 0.16050176E-02 0.36725164E+02</pdfrwt>
<pdfrwt beam="2">  1       21 0.22121333E-01 0.36725164E+02</pdfrwt>
<totfact> 0.27680180E+07</totfact>
</mgrwt>
</event>
<event>
 4    1  0.7521660E+004  0.2863987E+02  0.7546771E-02  0.1613629E+00
         21   -1    0    0  503  502  0.00000000000E+00  0.00000000000E+00  0.23860506652E+01  0.23860506652E+01  0.00000000000E+00 0. -1.
         21   -1    0    0  501  503 -0.00000000000E+00 -0.00000000000E+00 -0.40902288685E+03  0.40902288685E+03  0.00000000000E+00 0. -1.
          5    1    1    2  501    0  0.13746354392E+02 -0.25125281018E+02 -0.12115384288E+03  0.12449295422E+03  0.00000000000E+00 0.  1.
         -5    1    1    2    0  502 -0.13746354392E+02  0.25125281018E+02 -0.28548299330E+03  0.28691598329E+03  0.00000000000E+00 0. -1.
<mgrwt>
<rscale>  2 0.28639867E+02</rscale>
<asrwt>0</asrwt>
<pdfrwt beam="1">  1       21 0.36708512E-03 0.28639867E+02</pdfrwt>
<pdfrwt beam="2">  1       21 0.62926529E-01 0.28639867E+02</pdfrwt>
<totfact> 0.33600338E+07</totfact>
</mgrwt>
</event>
<event>
 4    1  0.7521660E+004  0.2407588E+02  0.7546771E-02  0.1674641E+00
         21   -1    0    0  501  502  0.00000000000E+00  0.00000000000E+00  0.10968982531E+03  0.10968982531E+03  0.00000000000E+00 0. -1.
         21   -1    0    0  502  503 -0.00000000000E+00 -0.00000000000E+00 -0.53009435394E+01  0.53009435394E+01  0.00000000000E+00 0. -1.
          5    1    1    2  501    0  0.36765561989E+01  0.23793506303E+02  0.55403664379E+02  0.60408724819E+02  0.00000000000E+00 0. -1.
         -5    1    1    2    0  503 -0.36765561989E+01 -0.23793506303E+02  0.48985217395E+02  0.54582044034E+02  0.00000000000E+00 0.  1.
<mgrwt>
<rscale>  2 0.24075880E+02</rscale>
<asrwt>0</asrwt>
<pdfrwt beam="1">  1       21 0.16875356E-01 0.24075880E+02</pdfrwt>
<pdfrwt beam="2">  1       21 0.81552985E-03 0.24075880E+02</pdfrwt>
<totfact> 0.11363805E+08</totfact>
</mgrwt>
</event>
<event>
 4    1  0.7521660E+004  0.2129777E+02  0.7546771E-02  0.1720687E+00
         21   -1    0    0  503  502  0.00000000000E+00  0.00000000000E+00  0.84527656210E+02  0.84527656210E+02  0.00000000000E+00 0. -1.
         21   -1    0    0  501  503 -0.00000000000E+00 -0.00000000000E+00 -0.63630643513E+01  0.63630643513E+01  0.00000000000E+00 0. -1.
          5    1    1    2  501    0 -0.13204591990E+02  0.16710287353E+02  0.57069663575E+02  0.60914213888E+02  0.00000000000E+00 0.  1.
         -5    1    1    2    0  502  0.13204591990E+02 -0.16710287353E+02  0.21094928284E+02  0.29976506673E+02  0.00000000000E+00 0. -1.
<mgrwt>
<rscale>  2 0.21297769E+02</rscale>
<asrwt>0</asrwt>
<pdfrwt beam="1">  1       21 0.13004254E-01 0.21297769E+02</pdfrwt>
<pdfrwt beam="2">  1       21 0.97893304E-03 0.21297769E+02</pdfrwt>
<totfact> 0.12997686E+08</totfact>
</mgrwt>
</event>
<event>
 4    1  0.7521660E+004  0.3897001E+02  0.7546771E-02  0.1515931E+00
         21   -1    0    0  501  502  0.00000000000E+00  0.00000000000E+00  0.54781745054E+03  0.54781745054E+03  0.00000000000E+00 0.  1.
         21   -1    0    0  502  503 -0.00000000000E+00 -0.00000000000E+00 -0.41813012673E+01  0.41813012673E+01  0.00000000000E+00 0.  1.
          4    1    1    2  501    0  0.27323855349E+02 -0.27786123641E+02  0.43204033466E+03  0.43379432051E+03  0.00000000000E+00 0.  1.
         -4    1    1    2    0  503 -0.27323855349E+02  0.27786123641E+02  0.11159581462E+03  0.11820443130E+03  0.00000000000E+00 0. -1.
<mgrwt>
<rscale>  2 0.38970011E+02</rscale>
<asrwt>0</asrwt>
<pdfrwt beam="1">  1       21 0.84279551E-01 0.38970011E+02</pdfrwt>
<pdfrwt beam="2">  1       21 0.64327755E-03 0.38970011E+02</pdfrwt>
<totfact> 0.82584600E+06</totfact>
</mgrwt>
</event>
<event>
 4    1  0.7521660E+004  0.3634959E+02  0.7546771E-02  0.1536932E+00
         21   -1    0    0  503  502  0.00000000000E+00  0.00000000000E+00  0.11079038757E+02  0.11079038757E+02  0.00000000000E+00 0.  1.
         21   -1    0    0  501  503 -0.00000000000E+00 -0.00000000000E+00 -0.13794060581E+03  0.13794060581E+03  0.00000000000E+00 0.  1.
          4    1    1    2  501    0 -0.12136986069E+02 -0.34263481688E+02 -0.36011495236E+02  0.51167571736E+02  0.00000000000E+00 0. -1.
         -4    1    1    2    0  502  0.12136986069E+02  0.34263481688E+02 -0.90850071815E+02  0.97852072830E+02  0.00000000000E+00 0.  1.
<mgrwt>
<rscale>  2 0.36349589E+02</rscale>
<asrwt>0</asrwt>
<pdfrwt beam="1">  1       21 0.17044676E-02 0.36349589E+02</pdfrwt>
<pdfrwt beam="2">  1       21 0.21221631E-01 0.36349589E+02</pdfrwt>
<totfact> 0.27118227E+07</totfact>
</mgrwt>
</event>
<event>
 4    1  0.7521660E+004  0.2252593E+02  0.7546771E-02  0.1699312E+00
         21   -1    0    0  501  502  0.00000000000E+00  0.00000000000E+00  0.27791371850E+02  0.27791371850E+02  0.00000000000E+00 0. -1.
         21   -1    0    0  502  503 -0.00000000000E+00 -0.00000000000E+00 -0.18364316958E+02  0.18364316958E+02  0.00000000000E+00 0. -1.
          2    1    1    2  501    0  0.10583324155E+01  0.22501054589E+02  0.29583796172E+01  0.22719364759E+02  0.00000000000E+00 0. -1.
         -2    1    1    2    0  503 -0.10583324155E+01 -0.22501054589E+02  0.64686752752E+01  0.23436324049E+02  0.00000000000E+00 0.  1.
<mgrwt>
<rscale>  2 0.22525930E+02</rscale>
<asrwt>0</asrwt>
<pdfrwt beam="1">  1       21 0.42755957E-02 0.22525930E+02</pdfrwt>
<pdfrwt beam="2">  1       21 0.28252795E-02 0.22525930E+02</pdfrwt>
<totfact> 0.16026021E+08</totfact>
</mgrwt>
</event>
<event>
 4    1  0.7521660E+004  0.2142677E+02  0.7546771E-02  0.1718359E+00
         21   -1    0    0  503  502  0.00000000000E+00  0.00000000000E+00  0.39998919651E+01  0.39998919651E+01  0.00000000000E+00 0. -1.
         21   -1    0    0  501  503 -0.00000000000E+00 -0.00000000000E+00 -0.14565210550E+03  0.14565210550E+03  0.00000000000E+00 0. -1.
          1    1    1    2  501    0  0.17926966416E+02 -0.11735849756E+02 -0.10527533994E+03  0.10743371674E+03  0.00000000000E+00 0. -1.
         -1    1    1    2    0  502 -0.17926966416E+02  0.11735849756E+02 -0.36376873601E+02  0.42218280725E+02  0.00000000000E+00 0.  1.
<mgrwt>
<rscale>  2 0.21426766E+02</rscale>
<asrwt>0</asrwt>
<pdfrwt beam="1">  1       21 0.61536797E-03 0.21426766E+02</pdfrwt>
<pdfrwt beam="2">  1       21 0.22408017E-01 0.21426766E+02</pdfrwt>
<totfact> 0.10209494E+08</totfact>
</mgrwt>
</event>
<event>
 4    1  0.7521660E+004  0.2453418E+02  0.7546771E-02  0.1667784E+00
         21   -1    0    0  503  502  0.00000000000E+00  0.00000000000E+00  0.56422930321E+02  0.56422930321E+02  0.00000000000E+00 0. -1.
         21   -1    0    0  501  503 -0.00000000000E+00 -0.00000000000E+00 -0.10875322350E+02  0.10875322350E+02  0.00000000000E+00 0. -1.
          4    1    1    2  501    0  0.55505179268E+00  0.24527895616E+02  0.18129017379E+02  0.30505524368E+02  0.00000000000E+00 0.  1.
         -4    1    1    2    0  502 -0.55505179268E+00 -0.24527895616E+02  0.27418590592E+02  0.36792728302E+02  0.00000000000E+00 0. -1.
<mgrwt>
<rscale>  2 0.24534175E+02</rscale>
<asrwt>0</asrwt>
<pdfrwt beam="1">  1       21 0.86804507E-02 0.24534175E+02</pdfrwt>
<pdfrwt beam="2">  1       21 0.16731265E-02 0.24534175E+02</pdfrwt>
<totfact> 0.11782160E+08</totfact>
</mgrwt>
</event>
<event>
 4    1  0.7521660E+004  0.2905946E+02  0.7546771E-02  0.1608724E+00
         21   -1    0    0  501  502  0.00000000000E+00  0.00000000000E+00  0.13464968001E+04  0.13464968001E+04  0.00000000000E+00 0. -1.
         21   -1    0    0  502  503 -0.00000000000E+00 -0.00000000000E+00 -0.83861283552E+00  0.83861283552E+00  0.00000000000E+00 0. -1.
          2    1    1    2  501    0  0.23793498755E+02 -0.16682966891E+02  0.10111155978E+04  0.10115330959E+04  0.00000000000E+00 0.  1.
         -2    1    1    2    0  503 -0.23793498755E+02  0.16682966891E+02  0.33454258948E+03  0.33580231706E+03  0.00000000000E+00 0. -1.
<mgrwt>
<rscale>  2 0.29059456E+02</rscale>
<asrwt>0</asrwt>
<pdfrwt beam="1">  1       21 0.20715162E+00 0.29059456E+02</pdfrwt>
<pdfrwt beam="2">  1       21 0.12901844E-03 0.29059456E+02</pdfrwt>
<totfact> 0.10100124E+07</totfact>
</mgrwt>
</event>
<event>
 4    1  0.7521660E+004  0.2381363E+02  0.7546771E-02  0.1678651E+00
         21   -1    0    0  501  502  0.00000000000E+00  0.00000000000E+00  0.71500874868E+02  0.71500874868E+02  0.00000000000E+00 0.  1.
         21   -1    0    0  502  503 -0.00000000000E+00 -0.00000000000E+00 -0.99302128886E+01  0.99302128886E+01  0.00000000000E+00 0.  1.
          4    1    1    2  501    0  0.11991899902E+02  0.20573854484E+02  0.12517515706E+02  0.26903110434E+02  0.00000000000E+00 0.  1.
         -4    1    1    2    0  503 -0.11991899902E+02 -0.20573854484E+02  0.49053146272E+02  0.54527977322E+02  0.00000000000E+00 0. -1.
<mgrwt>
<rscale>  2 0.23813634E+02</rscale>
<asrwt>0</asrwt>
<pdfrwt beam="1">  1       21 0.11000134E-01 0.23813634E+02</pdfrwt>
<pdfrwt beam="2">  1       21 0.15277251E-02 0.23813634E+02</pdfrwt>
<totfact> 0.90694803E+07</totfact>
</mgrwt>
</event>
<event>
 4    1  0.7521660E+004  0.3177436E+02  0.7546771E-02  0.1579265E+00
         21   -1    0    0  501  502  0.00000000000E+00  0.00000000000E+00  0.32182000925E+02  0.32182000925E+02  0.00000000000E+00 0.  1.
         21   -1    0    0  502  503 -0.00000000000E+00 -0.00000000000E+00 -0.31388754822E+02  0.31388754822E+02  0.00000000000E+00 0.  1.
          1    1    1    2  501    0  0.11877962324E+02  0.29470727664E+02 -0.34042734032E+00  0.31776180840E+02  0.00000000000E+00 0.  1.
         -1    1    1    2    0  503 -0.11877962324E+02 -0.29470727664E+02  0.11336734427E+01  0.31794574907E+02  0.00000000000E+00 0. -1.
<mgrwt>
<rscale>  2 0.31774357E+02</rscale>
<asrwt>0</asrwt>
<pdfrwt beam="1">  1       21 0.49510770E-02 0.31774357E+02</pdfrwt>
<pdfrwt beam="2">  1       21 0.48290392E-02 0.31774357E+02</pdfrwt>
<totfact> 0.59536817E+07</totfact>
</mgrwt>
</event>
<event>
 4    1  0.7521660E+004  0.2152107E+02  0.7546771E-02  0.1716669E+00
         21   -1    0    0  503  502  0.00000000000E+00  0.00000000000E+00  0.38597670213E+03  0.38597670213E+03  0.00000000000E+00 0.  1.
         21   -1    0    0  501  503 -0.00000000000E+00 -0.00000000000E+00 -0.15160838228E+01  0.15160838228E+01  0.00000000000E+00 0.  1.
          5    1    1    2  501    0 -0.11147063443E+02 -0.18409226854E+02  0.28070122779E+03  0.28152501832E+03  0.00000000000E+00 0. -1.
         -5    1    1    2    0  502  0.11147063443E+02  0.18409226854E+02  0.10375939052E+03  0.10596776763E+03  0.00000000000E+00 0.  1.
<mgrwt>
<rscale>  2 0.21521075E+02</rscale>
<asrwt>0</asrwt>
<pdfrwt beam="1">  1       21 0.59380953E-01 0.21521075E+02</pdfrwt>
<pdfrwt beam="2">  1       21 0.23324397E-03 0.21521075E+02</pdfrwt>
<totfact> 0.68751177E+07</totfact>
</mgrwt>
</event>
<event>
 4    1  0.7521660E+004  0.2692967E+02  0.7546771E-02  0.1634738E+00
         21   -1    0    0  503  502  0.00000000000E+00  0.00000000000E+00  0.14438947756E+03  0.14438947756E+03  0.00000000000E+00 0.  1.
         21   -1    0    0  501  503 -0.00000000000E+00 -0.00000000000E+00 -0.51851924549E+01  0.51851924549E+01  0.00000000000E+00 0.  1.
          1    1    1    2  501    0  0.23083465008E+02  0.13869417372E+02  0.56357869185E+02  0.62461320144E+02  0.00000000000E+00 0. -1.
         -1    1    1    2    0  502 -0.23083465008E+02 -0.13869417372E+02  0.82846415922E+02  0.87113349874E+02  0.00000000000E+00 0.  1.
<mgrwt>
<rscale>  2 0.26929669E+02</rscale>
<asrwt>0</asrwt>
<pdfrwt beam="1">  1       21 0.22213763E-01 0.26929669E+02</pdfrwt>
<pdfrwt beam="2">  1       21 0.79772203E-03 0.26929669E+02</pdfrwt>
<totfact> 0.74764603E+07</totfact>
</mgrwt>
</event>
<event>
 4    1  0.7521660E+004  0.2216105E+02  0.7546771E-02  0.1705481E+00
         21   -1    0    0  503  502  0.00000000000E+00  0.00000000000E+00  0.51774845194E+01  0.51774845194E+01  0.00000000000E+00 0.  1.
         21   -1    0    0  501  503 -0.00000000000E+00 -0.00000000000E+00 -0.95498754472E+02  0.95498754472E+02  0.00000000000E+00 0.  1.
          4    1    1    2  501    0  0.17417125692E+02  0.13702410219E+02 -0.49292314974E+02  0.54044839057E+02  0.00000000000E+00 0. -1.
         -4    1    1    2    0  502 -0.17417125692E+02 -0.13702410219E+02 -0.41028954979E+02  0.46631399934E+02  0.00000000000E+00 0.  1.
<mgrwt>
<rscale>  2 0.22161054E+02</rscale>
<asrwt>0</asrwt>
<pdfrwt beam="1">  1       21 0.79653613E-03 0.22161054E+02</pdfrwt>
<pdfrwt beam="2">  1       21 0.14692115E-01 0.22161054E+02</pdfrwt>
<totfact> 0.14564175E+08</totfact>
</mgrwt>
</event>
<event>
 4    1  0.7521660E+004  0.2258074E+02  0.7546771E-02  0.1698398E+00
         21   -1    0    0  501  502  0.00000000000E+00  0.00000000000E+00  0.32122246322E+02  0.32122246322E+02  0.00000000000E+00 0.  1.
         21   -1    0    0  502  503 -0.00000000000E+00 -0.00000000000E+00 -0.15968586771E+02  0.15968586771E+02  0.00000000000E+00 0.  1.
          3    1    1    2  501    0 -0.10517186803E+02  0.19981961854E+02  0.62205908420E+01  0.23421907869E+02  0.00000000000E+00 0. -1.
         -3    1    1    2    0  503  0.10517186803E+02 -0.19981961854E+02  0.99330687090E+01  0.24668925225E+02  0.00000000000E+00 0.  1.
<mgrwt>
<rscale>  2 0.22580744E+02</rscale>
<asrwt>0</asrwt>
<pdfrwt beam="1">  1       21 0.49418840E-02 0.22580744E+02</pdfrwt>
<pdfrwt beam="2">  1       21 0.24567057E-02 0.22580744E+02</pdfrwt>
<totfact> 0.15830072E+08</totfact>
</mgrwt>
</event>
<event>
 4    1  0.7521660E+004  0.2741753E+02  0.7546771E-02  0.1628524E+00
         21   -1    0    0  503  502  0.00000000000E+00  0.00000000000E+00  0.26089797846E+03  0.26089797846E+03  0.00000000000E+00 0. -1.
         21   -1    0    0  501  503 -0.00000000000E+00 -0.00000000000E+00 -0.30803641207E+01  0.30803641207E+01  0.00000000000E+00 0. -1.
          4    1    1    2  501    0 -0.19656256351E+02 -0.19114197271E+02  0.16246341297E+03  0.16476067949E+03  0.00000000000E+00 0. -1.
         -4    1    1    2    0  502  0.19656256351E+02  0.19114197271E+02  0.95354201367E+02  0.99217663092E+02  0.00000000000E+00 0.  1.
<mgrwt>
<rscale>  2 0.27417530E+02</rscale>
<asrwt>0</asrwt>
<pdfrwt beam="1">  1       21 0.40138133E-01 0.27417530E+02</pdfrwt>
<pdfrwt beam="2">  1       21 0.47390238E-03 0.27417530E+02</pdfrwt>
<totfact> 0.55188902E+07</totfact>
</mgrwt>
</event>
<event>
 4    1  0.7521660E+004  0.5386939E+02  0.7546771E-02  0.1425522E+00
         21   -1    0    0  503  502  0.00000000000E+00  0.00000000000E+00  0.10779402822E+03  0.10779402822E+03  0.00000000000E+00 0. -1.
         21   -1    0    0  501  503 -0.00000000000E+00 -0.00000000000E+00 -0.30854344931E+02  0.30854344931E+02  0.00000000000E+00 0. -1.
          3    1    1    2  501    0  0.52500308439E+02 -0.12067696128E+02  0.13717661870E+02  0.55588541294E+02  0.00000000000E+00 0. -1.
         -3    1    1    2    0  502 -0.52500308439E+02  0.12067696128E+02  0.63222021421E+02  0.83059831860E+02  0.00000000000E+00 0.  1.
<mgrwt>
<rscale>  2 0.53869395E+02</rscale>
<asrwt>0</asrwt>
<pdfrwt beam="1">  1       21 0.16583697E-01 0.53869395E+02</pdfrwt>
<pdfrwt beam="2">  1       21 0.47468223E-02 0.53869395E+02</pdfrwt>
<totfact> 0.87159705E+06</totfact>
</mgrwt>
</event>
<event>
 4    1  0.7521660E+004  0.2673738E+02  0.7546771E-02  0.1637232E+00
         21   -1    0    0  503  502  0.00000000000E+00  0.00000000000E+00  0.26873482304E+01  0.26873482304E+01  0.00000000000E+00 0. -1.
         21   -1    0    0  501  503 -0.00000000000E+00 -0.00000000000E+00 -0.35673961389E+03  0.35673961389E+03  0.00000000000E+00 0. -1.
          2    1    1    2  501    0 -0.17696145217E+02 -0.20043304962E+02 -0.86399415466E+02  0.90441951672E+02  0.00000000000E+00 0.  1.
         -2    1    1    2    0  502  0.17696145217E+02  0.20043304962E+02 -0.26765285019E+03  0.26898501045E+03  0.00000000000E+00 0. -1.
<mgrwt>
<rscale>  2 0.26737383E+02</rscale>
<asrwt>0</asrwt>
<pdfrwt beam="1">  1       21 0.41343790E-03 0.26737383E+02</pdfrwt>
<pdfrwt beam="2">  1       21 0.54883056E-01 0.26737383E+02</pdfrwt>
<totfact> 0.36605994E+07</totfact>
</mgrwt>
</event>
<event>
 4    1  0.7521660E+004  0.3520499E+02  0.7546771E-02  0.1546788E+00
         21   -1    0    0  501  502  0.00000000000E+00  0.00000000000E+00  0.87415808759E+02  0.87415808759E+02  0.00000000000E+00 0.  1.
         21   -1    0    0  502  503 -0.00000000000E+00 -0.00000000000E+00 -0.18846548081E+02  0.18846548081E+02  0.00000000000E+00 0.  1.
          3    1    1    2  501    0  0.13212399917E+02  0.32631643120E+02  0.78411281152E+01  0.36067643871E+02  0.00000000000E+00 0. -1.
         -3    1    1    2    0  503 -0.13212399917E+02 -0.32631643120E+02  0.60728132563E+02  0.70194712969E+02  0.00000000000E+00 0.  1.
<mgrwt>
<rscale>  2 0.35204995E+02</rscale>
<asrwt>0</asrwt>
<pdfrwt beam="1">  1       21 0.13448586E-01 0.35204995E+02</pdfrwt>
<pdfrwt beam="2">  1       21 0.28994690E-02 0.35204995E+02</pdfrwt>
<totfact> 0.26102291E+07</totfact>
</mgrwt>
</event>
<event>
 4    1  0.7521660E+004  0.2087974E+02  0.7546771E-02  0.1728379E+00
         21   -1    0    0  503  502  0.00000000000E+00  0.00000000000E+00  0.49479635548E+00  0.49479635548E+00  0.00000000000E+00 0.  1.
         21   -1    0    0  501  503 -0.00000000000E+00 -0.00000000000E+00 -0.91882039996E+03  0.91882039996E+03  0.00000000000E+00 0.  1.
          4    1    1    2  501    0  0.15547791424E+02  0.13936626446E+02 -0.55230081747E+03  0.55269535583E+03  0.00000000000E+00 0. -1.
         -4    1    1    2    0  502 -0.15547791424E+02 -0.13936626446E+02 -0.36602478614E+03  0.36661984049E+03  0.00000000000E+00 0.  1.
<mgrwt>
<rscale>  2 0.20879736E+02</rscale>
<asrwt>0</asrwt>
<pdfrwt beam="1">  1       21 0.76122880E-04 0.20879736E+02</pdfrwt>
<pdfrwt beam="2">  1       21 0.14135631E+00 0.20879736E+02</pdfrwt>
<totfact> 0.52445164E+07</totfact>
</mgrwt>
</event>
<event>
 4    1  0.7521660E+004  0.2714229E+02  0.7546771E-02  0.1632010E+00
         21   -1    0    0  503  502  0.00000000000E+00  0.00000000000E+00  0.31418461782E+01  0.31418461782E+01  0.00000000000E+00 0.  1.
         21   -1    0    0  501  503 -0.00000000000E+00 -0.00000000000E+00 -0.28007735023E+03  0.28007735023E+03  0.00000000000E+00 0.  1.
          2    1    1    2  501    0  0.15844171397E+02  0.22037837914E+02 -0.81330746862E+02  0.85740273222E+02  0.00000000000E+00 0. -1.
         -2    1    1    2    0  502 -0.15844171397E+02 -0.22037837914E+02 -0.19560475719E+03  0.19747892318E+03  0.00000000000E+00 0.  1.
<mgrwt>
<rscale>  2 0.27142293E+02</rscale>
<asrwt>0</asrwt>
<pdfrwt beam="1">  1       21 0.48336100E-03 0.27142293E+02</pdfrwt>
<pdfrwt beam="2">  1       21 0.43088819E-01 0.27142293E+02</pdfrwt>
<totfact> 0.46708844E+07</totfact>
</mgrwt>
</event>
<event>
 4    1  0.7521660E+004  0.3378265E+02  0.7546771E-02  0.1559684E+00
         21   -1    0    0  501  502  0.00000000000E+00  0.00000000000E+00  0.70493700593E+01  0.70493700593E+01  0.00000000000E+00 0. -1.
         21   -1    0    0  502  503 -0.00000000000E+00 -0.00000000000E+00 -0.19364059921E+03  0.19364059921E+03  0.00000000000E+00 0. -1.
          1    1    1    2  501    0  0.24917011464E+02  0.22812490753E+02 -0.52667181142E+02  0.62570753265E+02  0.00000000000E+00 0.  1.
         -1    1    1    2    0  503 -0.24917011464E+02 -0.22812490753E+02 -0.13392404801E+03  0.13811921601E+03  0.00000000000E+00 0. -1.
<mgrwt>
<rscale>  2 0.33782646E+02</rscale>
<asrwt>0</asrwt>
<pdfrwt beam="1">  1       21 0.10845185E-02 0.33782646E+02</pdfrwt>
<pdfrwt beam="2">  1       21 0.29790861E-01 0.33782646E+02</pdfrwt>
<totfact> 0.28974902E+07</totfact>
</mgrwt>
</event>
<event>
 4    1  0.7521660E+004  0.2012580E+02  0.7546771E-02  0.1742838E+00
         21   -1    0    0  501  502  0.00000000000E+00  0.00000000000E+00  0.79901601189E+02  0.79901601189E+02  0.00000000000E+00 0.  1.
         21   -1    0    0  502  503 -0.00000000000E+00 -0.00000000000E+00 -0.68698022034E+01  0.68698022034E+01  0.00000000000E+00 0.  1.
          2    1    1    2  501    0 -0.83952162424E+00 -0.20108279599E+02  0.14304928897E+02  0.24691672599E+02  0.00000000000E+00 0. -1.
         -2    1    1    2    0  503  0.83952162424E+00  0.20108279599E+02  0.58726870088E+02  0.62079730793E+02  0.00000000000E+00 0.  1.
<mgrwt>
<rscale>  2 0.20125797E+02</rscale>
<asrwt>0</asrwt>
<pdfrwt beam="1">  1       21 0.12292553E-01 0.20125797E+02</pdfrwt>
<pdfrwt beam="2">  1       21 0.10568927E-02 0.20125797E+02</pdfrwt>
<totfact> 0.12519013E+08</totfact>
</mgrwt>
</event>
<event>
 4    1  0.7521660E+004  0.2651730E+02  0.7546771E-02  0.1640118E+00
         21   -1    0    0  503  502  0.00000000000E+00  0.00000000000E+00  0.48376339123E+02  0.48376339123E+02  0.00000000000E+00 0. -1.
         21   -1    0    0  501  503 -0.00000000000E+00 -0.00000000000E+00 -0.15013536616E+02  0.15013536616E+02  0.00000000000E+00 0. -1.
          1    1    1    2  501    0 -0.11152821798E+02 -0.24057881468E+02  0.22337883331E+02  0.34672007823E+02  0.00000000000E+00 0. -1.
         -1    1    1    2    0  502  0.11152821798E+02  0.24057881468E+02  0.11024919175E+02  0.28717867916E+02  0.00000000000E+00 0.  1.
<mgrwt>
<rscale>  2 0.26517298E+02</rscale>
<asrwt>0</asrwt>
<pdfrwt beam="1">  1       21 0.74425136E-02 0.26517298E+02</pdfrwt>
<pdfrwt beam="2">  1       21 0.23097749E-02 0.26517298E+02</pdfrwt>
<totfact> 0.94216402E+07</totfact>
</mgrwt>
</event>
<event>
 4    1  0.7521660E+004  0.2976512E+02  0.7546771E-02  0.1600699E+00
         21   -1    0    0  503  502  0.00000000000E+00  0.00000000000E+00  0.44457042258E+02  0.44457042258E+02  0.00000000000E+00 0.  1.
         21   -1    0    0  501  503 -0.00000000000E+00 -0.00000000000E+00 -0.24561202882E+02  0.24561202882E+02  0.00000000000E+00 0.  1.
          3    1    1    2  501    0 -0.80340416175E+01 -0.28660369642E+02  0.24935304362E+02  0.38829525060E+02  0.00000000000E+00 0.  1.
         -3    1    1    2    0  502  0.80340416175E+01  0.28660369642E+02 -0.50394649858E+01  0.30188720080E+02  0.00000000000E+00 0. -1.
<mgrwt>
<rscale>  2 0.29765124E+02</rscale>
<asrwt>0</asrwt>
<pdfrwt beam="1">  1       21 0.68395449E-02 0.29765124E+02</pdfrwt>
<pdfrwt beam="2">  1       21 0.37786466E-02 0.29765124E+02</pdfrwt>
<totfact> 0.51424989E+07</totfact>
</mgrwt>
</event>
<event>
 4    1  0.7521660E+004  0.2201092E+02  0.7546771E-02  0.1708063E+00
         21   -1    0    0  501  502  0.00000000000E+00  0.00000000000E+00  0.55233461359E+02  0.55233461359E+02  0.00000000000E+00 0. -1.
         21   -1    0    0  502  503 -0.00000000000E+00 -0.00000000000E+00 -0.90881922663E+01  0.90881922663E+01  0.00000000000E+00 0. -1.
          2    1    1    2  501    0 -0.16527100990E+02  0.14537381944E+02  0.17069137952E+02  0.27853832974E+02  0.00000000000E+00 0. -1.
         -2    1    1    2    0  503  0.16527100990E+02 -0.14537381944E+02  0.29076131140E+02  0.36467820651E+02  0.00000000000E+00 0.  1.
<mgrwt>
<rscale>  2 0.22010919E+02</rscale>
<asrwt>0</asrwt>
<pdfrwt beam="1">  1       21 0.84974554E-02 0.22010919E+02</pdfrwt>
<pdfrwt beam="2">  1       21 0.13981835E-02 0.22010919E+02</pdfrwt>
<totfact> 0.15526520E+08</totfact>
</mgrwt>
</event>
<event>
 4    1  0.7521660E+004  0.2535657E+02  0.7546771E-02  0.1655933E+00
         21   -1    0    0  503  502  0.00000000000E+00  0.00000000000E+00  0.10335937306E+04  0.10335937306E+04  0.00000000000E+00 0. -1.
         21   -1    0    0  501  503 -0.00000000000E+00 -0.00000000000E+00 -0.62210048618E+00  0.62210048618E+00  0.00000000000E+00 0. -1.
          1    1    1    2  501    0  0.20596759272E+02  0.14789487165E+02  0.52075074106E+03  0.52136771067E+03  0.00000000000E+00 0.  1.
         -1    1    1    2    0  502 -0.20596759272E+02 -0.14789487165E+02  0.51222088905E+03  0.51284812040E+03  0.00000000000E+00 0. -1.
<mgrwt>
<rscale>  2 0.25356566E+02</rscale>
<asrwt>0</asrwt>
<pdfrwt beam="1">  1       21 0.15901305E+00 0.25356566E+02</pdfrwt>
<pdfrwt beam="2">  1       21 0.95708594E-04 0.25356566E+02</pdfrwt>
<totfact> 0.29747421E+07</totfact>
</mgrwt>
</event>
<event>
 4    1  0.7521660E+004  0.2179568E+02  0.7546771E-02  0.1711810E+00
         21   -1    0    0  501  502  0.00000000000E+00  0.00000000000E+00  0.17125856934E+01  0.17125856934E+01  0.00000000000E+00 0.  1.
         21   -1    0    0  502  503 -0.00000000000E+00 -0.00000000000E+00 -0.27740757569E+03  0.27740757569E+03  0.00000000000E+00 0.  1.
          2    1    1    2  501    0 -0.13509697423E+02  0.17103792553E+02 -0.13669140190E+03  0.13841817438E+03  0.00000000000E+00 0. -1.
         -2    1    1    2    0  503  0.13509697423E+02 -0.17103792553E+02 -0.13900358810E+03  0.14070198701E+03  0.00000000000E+00 0.  1.
<mgrwt>
<rscale>  2 0.21795679E+02</rscale>
<asrwt>0</asrwt>
<pdfrwt beam="1">  1       21 0.26347456E-03 0.21795679E+02</pdfrwt>
<pdfrwt beam="2">  1       21 0.42678115E-01 0.21795679E+02</pdfrwt>
<totfact> 0.10978484E+08</totfact>
</mgrwt>
</event>
<event>
 4    1  0.7521660E+004  0.2207073E+02  0.7546771E-02  0.1707032E+00
         21   -1    0    0  503  502  0.00000000000E+00  0.00000000000E+00  0.19944992401E+03  0.19944992401E+03  0.00000000000E+00 0. -1.
         21   -1    0    0  501  503 -0.00000000000E+00 -0.00000000000E+00 -0.24513173010E+01  0.24513173010E+01  0.00000000000E+00 0. -1.
          2    1    1    2  501    0 -0.18834211511E+02 -0.11506072461E+02  0.92377692486E+02  0.94977656823E+02  0.00000000000E+00 0.  1.
         -2    1    1    2    0  502  0.18834211511E+02  0.11506072461E+02  0.10462091423E+03  0.10692358449E+03  0.00000000000E+00 0. -1.
<mgrwt>
<rscale>  2 0.22070732E+02</rscale>
<asrwt>0</asrwt>
<pdfrwt beam="1">  1       21 0.30684591E-01 0.22070732E+02</pdfrwt>
<pdfrwt beam="2">  1       21 0.37712590E-03 0.22070732E+02</pdfrwt>
<totfact> 0.12057303E+08</totfact>
</mgrwt>
</event>
<event>
 4    1  0.7521660E+004  0.2675636E+02  0.7546771E-02  0.1636985E+00
         21   -1    0    0  503  502  0.00000000000E+00  0.00000000000E+00  0.76572170735E+03  0.76572170735E+03  0.00000000000E+00 0. -1.
         21   -1    0    0  501  503 -0.00000000000E+00 -0.00000000000E+00 -0.10728323509E+01  0.10728323509E+01  0.00000000000E+00 0. -1.
          3    1    1    2  501    0  0.66665063777E+01 -0.25912549989E+02  0.24487092430E+03  0.24632838269E+03  0.00000000000E+00 0.  1.
         -3    1    1    2    0  502 -0.66665063777E+01  0.25912549989E+02  0.51977795071E+03  0.52046615701E+03  0.00000000000E+00 0. -1.
<mgrwt>
<rscale>  2 0.26756355E+02</rscale>
<asrwt>0</asrwt>
<pdfrwt beam="1">  1       21 0.11780290E+00 0.26756355E+02</pdfrwt>
<pdfrwt beam="2">  1       21 0.16505174E-03 0.26756355E+02</pdfrwt>
<totfact> 0.27729412E+07</totfact>
</mgrwt>
</event>
<event>
 4    1  0.7521660E+004  0.3663966E+02  0.7546771E-02  0.1534504E+00
         21   -1    0    0  501  502  0.00000000000E+00  0.00000000000E+00  0.29381203986E+02  0.29381203986E+02  0.00000000000E+00 0. -1.
         21   -1    0    0  502  503 -0.00000000000E+00 -0.00000000000E+00 -0.59705479211E+02  0.59705479211E+02  0.00000000000E+00 0. -1.
          1    1    1    2  501    0 -0.34300166496E+02 -0.12882677819E+02 -0.36742555387E+02  0.51889114328E+02  0.00000000000E+00 0.  1.
         -1    1    1    2    0  503  0.34300166496E+02  0.12882677819E+02  0.64182801615E+01  0.37197568868E+02  0.00000000000E+00 0. -1.
<mgrwt>
<rscale>  2 0.36639662E+02</rscale>
<asrwt>0</asrwt>
<pdfrwt beam="1">  1       21 0.45201852E-02 0.36639662E+02</pdfrwt>
<pdfrwt beam="2">  1       21 0.91854584E-02 0.36639662E+02</pdfrwt>
<totfact> 0.24708535E+07</totfact>
</mgrwt>
</event>
<event>
 4    1  0.7521660E+004  0.2129926E+02  0.7546771E-02  0.1720660E+00
         21   -1    0    0  503  502  0.00000000000E+00  0.00000000000E+00  0.76579267787E+01  0.76579267787E+01  0.00000000000E+00 0.  1.
         21   -1    0    0  501  503 -0.00000000000E+00 -0.00000000000E+00 -0.61834877045E+02  0.61834877045E+02  0.00000000000E+00 0.  1.
          3    1    1    2  501    0  0.71229840187E+01 -0.20072909261E+02 -0.19971119968E+02  0.29197674913E+02  0.00000000000E+00 0.  1.
         -3    1    1    2    0  502 -0.71229840187E+01  0.20072909261E+02 -0.34205830298E+02  0.40295128910E+02  0.00000000000E+00 0. -1.
<mgrwt>
<rscale>  2 0.21299263E+02</rscale>
<asrwt>0</asrwt>
<pdfrwt beam="1">  1       21 0.11781426E-02 0.21299263E+02</pdfrwt>
<pdfrwt beam="2">  1       21 0.95130578E-02 0.21299263E+02</pdfrwt>
<totfact> 0.16541881E+08</totfact>
</mgrwt>
</event>
<event>
 4    1  0.7521660E+004  0.2346378E+02  0.7546771E-02  0.1684101E+00
         21   -1    0    0  503  502  0.00000000000E+00  0.00000000000E+00  0.19127145973E+02  0.19127145973E+02  0.00000000000E+00 0.  1.
         21   -1    0    0  501  503 -0.00000000000E+00 -0.00000000000E+00 -0.33537431041E+02  0.33537431041E+02  0.00000000000E+00 0.  1.
          2    1    1    2  501    0 -0.18960415475E+02 -0.13822134780E+02  0.27087461136E+01  0.23619611986E+02  0.00000000000E+00 0. -1.
         -2    1    1    2    0  502  0.18960415475E+02  0.13822134780E+02 -0.17119031182E+02  0.29044965028E+02  0.00000000000E+00 0.  1.
<mgrwt>
<rscale>  2 0.23463776E+02</rscale>
<asrwt>0</asrwt>
<pdfrwt beam="1">  1       21 0.29426378E-02 0.23463776E+02</pdfrwt>
<pdfrwt beam="2">  1       21 0.51596048E-02 0.23463776E+02</pdfrwt>
<totfact> 0.11300698E+08</totfact>
</mgrwt>
</event>
<event>
 4    1  0.7521660E+004  0.2209471E+02  0.7546771E-02  0.1706619E+00
         21   -1    0    0  501  502  0.00000000000E+00  0.00000000000E+00  0.95894949836E+02  0.95894949836E+02  0.00000000000E+00 0.  1.
         21   -1    0    0  502  503 -0.00000000000E+00 -0.00000000000E+00 -0.91888454981E+01  0.91888454981E+01  0.00000000000E+00 0.  1.
          4    1    1    2  501    0  0.19481548529E+02 -0.10423321884E+02  0.78441712151E+02  0.81494040134E+02  0.00000000000E+00 0. -1.
         -4    1    1    2    0  503 -0.19481548529E+02  0.10423321884E+02  0.82643921867E+01  0.23589755200E+02  0.00000000000E+00 0.  1.
<mgrwt>
<rscale>  2 0.22094714E+02</rscale>
<asrwt>0</asrwt>
<pdfrwt beam="1">  1       21 0.14753068E-01 0.22094714E+02</pdfrwt>
<pdfrwt beam="2">  1       21 0.14136686E-02 0.22094714E+02</pdfrwt>
<totfact> 0.61027739E+07</totfact>
</mgrwt>
</event>
<event>
 4    1  0.7521660E+004  0.2099620E+02  0.7546771E-02  0.1726214E+00
         21   -1    0    0  503  502  0.00000000000E+00  0.00000000000E+00  0.16771921026E+01  0.16771921026E+01  0.00000000000E+00 0. -1.
         21   -1    0    0  501  503 -0.00000000000E+00 -0.00000000000E+00 -0.28955517387E+03  0.28955517387E+03  0.00000000000E+00 0. -1.
          5    1    1    2  501    0  0.19571878722E+02 -0.76014369902E+01 -0.99711884460E+02  0.10189847979E+03  0.00000000000E+00 0.  1.
         -5    1    1    2    0  502 -0.19571878722E+02  0.76014369902E+01 -0.18816609731E+03  0.18933388619E+03  0.00000000000E+00 0. -1.
<mgrwt>
<rscale>  2 0.20996197E+02</rscale>
<asrwt>0</asrwt>
<pdfrwt beam="1">  1       21 0.25802949E-03 0.20996197E+02</pdfrwt>
<pdfrwt beam="2">  1       21 0.44546961E-01 0.20996197E+02</pdfrwt>
<totfact> 0.10325536E+08</totfact>
</mgrwt>
</event>
<event>
 4    1  0.7521660E+004  0.2403455E+02  0.7546771E-02  0.1675269E+00
         21   -1    0    0  503  502  0.00000000000E+00  0.00000000000E+00  0.20695368646E+01  0.20695368646E+01  0.00000000000E+00 0.  1.
         21   -1    0    0  501  503 -0.00000000000E+00 -0.00000000000E+00 -0.28547880390E+03  0.28547880390E+03  0.00000000000E+00 0.  1.
          4    1    1    2  501    0 -0.45834037287E+01 -0.23593472784E+02 -0.16315376326E+03  0.16491455367E+03  0.00000000000E+00 0. -1.
         -4    1    1    2    0  502  0.45834037287E+01  0.23593472784E+02 -0.12025550378E+03  0.12263378709E+03  0.00000000000E+00 0.  1.
<mgrwt>
<rscale>  2 0.24034549E+02</rscale>
<asrwt>0</asrwt>
<pdfrwt beam="1">  1       21 0.31839034E-03 0.24034549E+02</pdfrwt>
<pdfrwt beam="2">  1       21 0.43919809E-01 0.24034549E+02</pdfrwt>
<totfact> 0.80948274E+07</totfact>
</mgrwt>
</event>
<event>
 4    1  0.7521660E+004  0.2553082E+02  0.7546771E-02  0.1653493E+00
         21   -1    0    0  503  502  0.00000000000E+00  0.00000000000E+00  0.32723343715E+03  0.32723343715E+03  0.00000000000E+00 0. -1.
         21   -1    0    0  501  503 -0.00000000000E+00 -0.00000000000E+00 -0.21234291770E+01  0.21234291770E+01  0.00000000000E+00 0. -1.
          3    1    1    2  501    0 -0.24566522122E+02  0.69504494935E+01  0.12157271388E+03  0.12422458500E+03  0.00000000000E+00 0.  1.
         -3    1    1    2    0  502  0.24566522122E+02 -0.69504494935E+01  0.20353729409E+03  0.20513228133E+03  0.00000000000E+00 0. -1.
<mgrwt>
<rscale>  2 0.25530820E+02</rscale>
<asrwt>0</asrwt>
<pdfrwt beam="1">  1       21 0.50343566E-01 0.25530820E+02</pdfrwt>
<pdfrwt beam="2">  1       21 0.32668167E-03 0.25530820E+02</pdfrwt>
<totfact> 0.60737478E+07</totfact>
</mgrwt>
</event>
<event>
 4    1  0.7521660E+004  0.2304528E+02  0.7546771E-02  0.1690777E+00
         21   -1    0    0  501  502  0.00000000000E+00  0.00000000000E+00  0.38549847752E+01  0.38549847752E+01  0.00000000000E+00 0.  1.
         21   -1    0    0  502  503 -0.00000000000E+00 -0.00000000000E+00 -0.14350953938E+03  0.14350953938E+03  0.00000000000E+00 0.  1.
          3    1    1    2  501    0 -0.21228017459E+02  0.89697339252E+01 -0.84568108868E+02  0.87651867576E+02  0.00000000000E+00 0.  1.
         -3    1    1    2    0  503  0.21228017459E+02 -0.89697339252E+01 -0.55086445735E+02  0.59712656578E+02  0.00000000000E+00 0. -1.
<mgrwt>
<rscale>  2 0.23045278E+02</rscale>
<asrwt>0</asrwt>
<pdfrwt beam="1">  1       21 0.59307455E-03 0.23045278E+02</pdfrwt>
<pdfrwt beam="2">  1       21 0.22078392E-01 0.23045278E+02</pdfrwt>
<totfact> 0.11295177E+08</totfact>
</mgrwt>
</event>
<event>
 4    1  0.7521660E+004  0.2540494E+02  0.7546771E-02  0.1655253E+00
         21   -1    0    0  503  502  0.00000000000E+00  0.00000000000E+00  0.26071246700E+01  0.26071246700E+01  0.00000000000E+00 0. -1.
         21   -1    0    0  501  503 -0.00000000000E+00 -0.00000000000E+00 -0.37301882090E+03  0.37301882090E+03  0.00000000000E+00 0. -1.
          5    1    1    2  501    0  0.84829691875E+01  0.23946818100E+02 -0.76283564753E+02  0.80402693455E+02  0.00000000000E+00 0.  1.
         -5    1    1    2    0  502 -0.84829691875E+01 -0.23946818100E+02 -0.29412813148E+03  0.29522325211E+03  0.00000000000E+00 0. -1.
<mgrwt>
<rscale>  2 0.25404938E+02</rscale>
<asrwt>0</asrwt>
<pdfrwt beam="1">  1       21 0.40109634E-03 0.25404938E+02</pdfrwt>
<pdfrwt beam="2">  1       21 0.57387477E-01 0.25404938E+02</pdfrwt>
<totfact> 0.34665250E+07</totfact>
</mgrwt>
</event>
<event>
 4    1  0.7521660E+004  0.2020140E+02  0.7546771E-02  0.1741352E+00
         21   -1    0    0  501  502  0.00000000000E+00  0.00000000000E+00  0.19948304974E+02  0.19948304974E+02  0.00000000000E+00 0.  1.
         21   -1    0    0  502  503 -0.00000000000E+00 -0.00000000000E+00 -0.43458191038E+02  0.43458191038E+02  0.00000000000E+00 0.  1.
          2    1    1    2  501    0 -0.17338223486E+02 -0.10367384621E+02  0.11309150260E+02  0.23151534229E+02  0.00000000000E+00 0. -1.
         -2    1    1    2    0  503  0.17338223486E+02  0.10367384621E+02 -0.34819036324E+02  0.40254961782E+02  0.00000000000E+00 0.  1.
<mgrwt>
<rscale>  2 0.20201402E+02</rscale>
<asrwt>0</asrwt>
<pdfrwt beam="1">  1       21 0.30689700E-02 0.20201402E+02</pdfrwt>
<pdfrwt beam="2">  1       21 0.66858755E-02 0.20201402E+02</pdfrwt>
<totfact> 0.66982007E+07</totfact>
</mgrwt>
</event>
<event>
 4    1  0.7521660E+004  0.2076339E+02  0.7546771E-02  0.1730560E+00
         21   -1    0    0  501  502  0.00000000000E+00  0.00000000000E+00  0.13349913289E+04  0.13349913289E+04  0.00000000000E+00 0.  1.
         21   -1    0    0  502  503 -0.00000000000E+00 -0.00000000000E+00 -0.32559747619E+00  0.32559747619E+00  0.00000000000E+00 0.  1.
          4    1    1    2  501    0  0.61318683453E+01 -0.19837304666E+02  0.60698375894E+03  0.60733878691E+03  0.00000000000E+00 0.  1.
         -4    1    1    2    0  503 -0.61318683453E+01  0.19837304666E+02  0.72768197251E+03  0.72797813949E+03  0.00000000000E+00 0. -1.
<mgrwt>
<rscale>  2 0.20763392E+02</rscale>
<asrwt>0</asrwt>
<pdfrwt beam="1">  1       21 0.20537890E+00 0.20763392E+02</pdfrwt>
<pdfrwt beam="2">  1       21 0.50092988E-04 0.20763392E+02</pdfrwt>
<totfact> 0.37971405E+07</totfact>
</mgrwt>
</event>
<event>
 4    1  0.7521660E+004  0.2681444E+02  0.7546771E-02  0.1636230E+00
         21   -1    0    0  501  502  0.00000000000E+00  0.00000000000E+00  0.34161331580E+02  0.34161331580E+02  0.00000000000E+00 0. -1.
         21   -1    0    0  502  503 -0.00000000000E+00 -0.00000000000E+00 -0.27747701466E+02  0.27747701466E+02  0.00000000000E+00 0. -1.
          4    1    1    2  501    0  0.20885664209E+02 -0.16816757048E+02 -0.12003947131E+02  0.29378717361E+02  0.00000000000E+00 0.  1.
         -4    1    1    2    0  503 -0.20885664209E+02  0.16816757048E+02  0.18417577245E+02  0.32530315686E+02  0.00000000000E+00 0. -1.
<mgrwt>
<rscale>  2 0.26814442E+02</rscale>
<asrwt>0</asrwt>
<pdfrwt beam="1">  1       21 0.52555895E-02 0.26814442E+02</pdfrwt>
<pdfrwt beam="2">  1       21 0.42688772E-02 0.26814442E+02</pdfrwt>
<totfact> 0.63311603E+07</totfact>
</mgrwt>
</event>
<event>
 4    1  0.7521660E+004  0.2004215E+02  0.7546771E-02  0.1744491E+00
         21   -1    0    0  503  502  0.00000000000E+00  0.00000000000E+00  0.35661316655E+02  0.35661316655E+02  0.00000000000E+00 0. -1.
         21   -1    0    0  501  503 -0.00000000000E+00 -0.00000000000E+00 -0.11503042373E+02  0.11503042373E+02  0.00000000000E+00 0. -1.
          4    1    1    2  501    0  0.15988748377E+02 -0.12085018225E+02  0.15478902309E+02  0.25323588941E+02  0.00000000000E+00 0.  1.
         -4    1    1    2    0  502 -0.15988748377E+02  0.12085018225E+02  0.86793719725E+01  0.21840770087E+02  0.00000000000E+00 0. -1.
<mgrwt>
<rscale>  2 0.20042149E+02</rscale>
<asrwt>0</asrwt>
<pdfrwt beam="1">  1       21 0.54863563E-02 0.20042149E+02</pdfrwt>
<pdfrwt beam="2">  1       21 0.17696988E-02 0.20042149E+02</pdfrwt>
<totfact> 0.21334330E+08</totfact>
</mgrwt>
</event>
<event>
 4    1  0.7521660E+004  0.3001891E+02  0.7546771E-02  0.1597880E+00
         21   -1    0    0  501  502  0.00000000000E+00  0.00000000000E+00  0.10556732512E+03  0.10556732512E+03  0.00000000000E+00 0. -1.
         21   -1    0    0  502  503 -0.00000000000E+00 -0.00000000000E+00 -0.85518128282E+01  0.85518128282E+01  0.00000000000E+00 0. -1.
          2    1    1    2  501    0 -0.14429937077E+02  0.26323219788E+02  0.46063207623E+02  0.54981397587E+02  0.00000000000E+00 0.  1.
         -2    1    1    2    0  503  0.14429937077E+02 -0.26323219788E+02  0.50952304669E+02  0.59137740362E+02  0.00000000000E+00 0. -1.
<mgrwt>
<rscale>  2 0.30018910E+02</rscale>
<asrwt>0</asrwt>
<pdfrwt beam="1">  1       21 0.16241126E-01 0.30018910E+02</pdfrwt>
<pdfrwt beam="2">  1       21 0.13156636E-02 0.30018910E+02</pdfrwt>
<totfact> 0.62244713E+07</totfact>
</mgrwt>
</event>
<event>
 4    1  0.7521660E+004  0.2822170E+02  0.7546771E-02  0.1618620E+00
         21   -1    0    0  501  502  0.00000000000E+00  0.00000000000E+00  0.69029076993E+02  0.69029076993E+02  0.00000000000E+00 0. -1.
         21   -1    0    0  502  503 -0.00000000000E+00 -0.00000000000E+00 -0.15661636400E+02  0.15661636400E+02  0.00000000000E+00 0. -1.
          2    1    1    2  501    0 -0.75149365561E+01 -0.27202756706E+02  0.48411845602E+02  0.56037229040E+02  0.00000000000E+00 0.  1.
         -2    1    1    2    0  503  0.75149365561E+01  0.27202756706E+02  0.49555949904E+01  0.28653484353E+02  0.00000000000E+00 0. -1.
<mgrwt>
<rscale>  2 0.28221698E+02</rscale>
<asrwt>0</asrwt>
<pdfrwt beam="1">  1       21 0.10619858E-01 0.28221698E+02</pdfrwt>
<pdfrwt beam="2">  1       21 0.24094826E-02 0.28221698E+02</pdfrwt>
<totfact> 0.49767195E+07</totfact>
</mgrwt>
</event>
<event>
 4    1  0.7521660E+004  0.2217495E+02  0.7546771E-02  0.1705244E+00
         21   -1    0    0  501  502  0.00000000000E+00  0.00000000000E+00  0.37265921710E+03  0.37265921710E+03  0.00000000000E+00 0.  1.
         21   -1    0    0  502  503 -0.00000000000E+00 -0.00000000000E+00 -0.13284226420E+01  0.13284226420E+01  0.00000000000E+00 0.  1.
          4    1    1    2  501    0  0.22168125404E+02  0.55019570473E+00  0.17035095552E+03  0.17178817347E+03  0.00000000000E+00 0. -1.
         -4    1    1    2    0  503 -0.22168125404E+02 -0.55019570473E+00  0.20097983894E+03  0.20219946627E+03  0.00000000000E+00 0.  1.
<mgrwt>
<rscale>  2 0.22174952E+02</rscale>
<asrwt>0</asrwt>
<pdfrwt beam="1">  1       21 0.57332104E-01 0.22174952E+02</pdfrwt>
<pdfrwt beam="2">  1       21 0.20437301E-03 0.22174952E+02</pdfrwt>
<totfact> 0.89893586E+07</totfact>
</mgrwt>
</event>
<event>
 4    1  0.7521660E+004  0.2420770E+02  0.7546771E-02  0.1672650E+00
         21   -1    0    0  501  502  0.00000000000E+00  0.00000000000E+00  0.42082426346E+02  0.42082426346E+02  0.00000000000E+00 0. -1.
         21   -1    0    0  502  503 -0.00000000000E+00 -0.00000000000E+00 -0.16201778700E+02  0.16201778700E+02  0.00000000000E+00 0. -1.
          1    1    1    2  501    0  0.23079638125E+02  0.73036447300E+01  0.20167276101E+01  0.24291564639E+02  0.00000000000E+00 0.  1.
         -1    1    1    2    0  503 -0.23079638125E+02 -0.73036447300E+01  0.23863920036E+02  0.33992640407E+02  0.00000000000E+00 0. -1.
<mgrwt>
<rscale>  2 0.24207704E+02</rscale>
<asrwt>0</asrwt>
<pdfrwt beam="1">  1       21 0.64742194E-02 0.24207704E+02</pdfrwt>
<pdfrwt beam="2">  1       21 0.24925814E-02 0.24207704E+02</pdfrwt>
<totfact> 0.10249995E+08</totfact>
</mgrwt>
</event>
<event>
 4    1  0.7521660E+004  0.2101258E+02  0.7546771E-02  0.1725910E+00
         21   -1    0    0  501  502  0.00000000000E+00  0.00000000000E+00  0.56803165536E+02  0.56803165536E+02  0.00000000000E+00 0.  1.
         21   -1    0    0  502  503 -0.00000000000E+00 -0.00000000000E+00 -0.80776683415E+01  0.80776683415E+01  0.00000000000E+00 0.  1.
          1    1    1    2  501    0  0.16381007055E+01  0.20948635092E+02  0.30663410639E+02  0.37172213253E+02  0.00000000000E+00 0.  1.
         -1    1    1    2    0  503 -0.16381007055E+01 -0.20948635092E+02  0.18062086556E+02  0.27708620624E+02  0.00000000000E+00 0. -1.
<mgrwt>
<rscale>  2 0.21012584E+02</rscale>
<asrwt>0</asrwt>
<pdfrwt beam="1">  1       21 0.87389483E-02 0.21012584E+02</pdfrwt>
<pdfrwt beam="2">  1       21 0.12427182E-02 0.21012584E+02</pdfrwt>
<totfact> 0.17469311E+08</totfact>
</mgrwt>
</event>
<event>
 4    1  0.7521660E+004  0.3638951E+02  0.7546771E-02  0.1536597E+00
         21   -1    0    0  501  502  0.00000000000E+00  0.00000000000E+00  0.28820346461E+02  0.28820346461E+02  0.00000000000E+00 0. -1.
         21   -1    0    0  502  503 -0.00000000000E+00 -0.00000000000E+00 -0.46515118581E+02  0.46515118581E+02  0.00000000000E+00 0. -1.
          3    1    1    2  501    0 -0.30072321948E+02  0.20490285307E+02 -0.46829846935E+01  0.36689599139E+02  0.00000000000E+00 0. -1.
         -3    1    1    2    0  503  0.30072321948E+02 -0.20490285307E+02 -0.13011787426E+02  0.38645865903E+02  0.00000000000E+00 0.  1.
<mgrwt>
<rscale>  2 0.36389509E+02</rscale>
<asrwt>0</asrwt>
<pdfrwt beam="1">  1       21 0.44338995E-02 0.36389509E+02</pdfrwt>
<pdfrwt beam="2">  1       21 0.71561720E-02 0.36389509E+02</pdfrwt>
<totfact> 0.38548117E+07</totfact>
</mgrwt>
</event>
<event>
 4    1  0.7521660E+004  0.2074878E+02  0.7546771E-02  0.1730835E+00
         21   -1    0    0  503  502  0.00000000000E+00  0.00000000000E+00  0.48392235584E+01  0.48392235584E+01  0.00000000000E+00 0. -1.
         21   -1    0    0  501  503 -0.00000000000E+00 -0.00000000000E+00 -0.90399781050E+02  0.90399781050E+02  0.00000000000E+00 0. -1.
          3    1    1    2  501    0 -0.20748757667E+02  0.29158877996E-01 -0.36776868323E+02  0.42226174805E+02  0.00000000000E+00 0. -1.
         -3    1    1    2    0  502  0.20748757667E+02 -0.29158877996E-01 -0.48783689168E+02  0.53012829804E+02  0.00000000000E+00 0.  1.
<mgrwt>
<rscale>  2 0.20748778E+02</rscale>
<asrwt>0</asrwt>
<pdfrwt beam="1">  1       21 0.74449590E-03 0.20748778E+02</pdfrwt>
<pdfrwt beam="2">  1       21 0.13907659E-01 0.20748778E+02</pdfrwt>
<totfact> 0.17321724E+08</totfact>
</mgrwt>
</event>
<event>
 4    1  0.7521660E+004  0.2923531E+02  0.7546771E-02  0.1606698E+00
         21   -1    0    0  501  502  0.00000000000E+00  0.00000000000E+00  0.33540385534E+02  0.33540385534E+02  0.00000000000E+00 0.  1.
         21   -1    0    0  502  503 -0.00000000000E+00 -0.00000000000E+00 -0.28843645100E+02  0.28843645100E+02  0.00000000000E+00 0.  1.
          3    1    1    2  501    0 -0.14387358861E+02  0.25450094743E+02 -0.82989835876E+01  0.30390402202E+02  0.00000000000E+00 0. -1.
         -3    1    1    2    0  503  0.14387358861E+02 -0.25450094743E+02  0.12995724021E+02  0.31993628432E+02  0.00000000000E+00 0.  1.
<mgrwt>
<rscale>  2 0.29235311E+02</rscale>
<asrwt>0</asrwt>
<pdfrwt beam="1">  1       21 0.51600593E-02 0.29235311E+02</pdfrwt>
<pdfrwt beam="2">  1       21 0.44374839E-02 0.29235311E+02</pdfrwt>
<totfact> 0.62608081E+07</totfact>
</mgrwt>
</event>
<event>
 4    1  0.7521660E+004  0.2811696E+02  0.7546771E-02  0.1619887E+00
         21   -1    0    0  501  502  0.00000000000E+00  0.00000000000E+00  0.21153977021E+03  0.21153977021E+03  0.00000000000E+00 0. -1.
         21   -1    0    0  502  503 -0.00000000000E+00 -0.00000000000E+00 -0.11719883829E+02  0.11719883829E+02  0.00000000000E+00 0. -1.
          5    1    1    2  501    0  0.45896634870E+01  0.27739835042E+02  0.77815610722E+01  0.29173895040E+02  0.00000000000E+00 0.  1.
         -5    1    1    2    0  503 -0.45896634870E+01 -0.27739835042E+02  0.19203832531E+03  0.19408575900E+03  0.00000000000E+00 0. -1.
<mgrwt>
<rscale>  2 0.28116960E+02</rscale>
<asrwt>0</asrwt>
<pdfrwt beam="1">  1       21 0.32544577E-01 0.28116960E+02</pdfrwt>
<pdfrwt beam="2">  1       21 0.18030592E-02 0.28116960E+02</pdfrwt>
<totfact> 0.10938224E+07</totfact>
</mgrwt>
</event>
<event>
 4    1  0.7521660E+004  0.2655374E+02  0.7546771E-02  0.1639638E+00
         21   -1    0    0  501  502  0.00000000000E+00  0.00000000000E+00  0.31363668032E+02  0.31363668032E+02  0.00000000000E+00 0. -1.
         21   -1    0    0  502  503 -0.00000000000E+00 -0.00000000000E+00 -0.22543017225E+02  0.22543017225E+02  0.00000000000E+00 0. -1.
          2    1    1    2  501    0 -0.26485655394E+02  0.19002638696E+01  0.58188285216E+01  0.27183813378E+02  0.00000000000E+00 0. -1.
         -2    1    1    2    0  503  0.26485655394E+02 -0.19002638696E+01  0.30018222854E+01  0.26722871879E+02  0.00000000000E+00 0.  1.
<mgrwt>
<rscale>  2 0.26553737E+02</rscale>
<asrwt>0</asrwt>
<pdfrwt beam="1">  1       21 0.48251797E-02 0.26553737E+02</pdfrwt>
<pdfrwt beam="2">  1       21 0.34681565E-02 0.26553737E+02</pdfrwt>
<totfact> 0.10059366E+08</totfact>
</mgrwt>
</event>
<event>
 4    1  0.7521660E+004  0.2296335E+02  0.7546771E-02  0.1692105E+00
         21   -1    0    0  503  502  0.00000000000E+00  0.00000000000E+00  0.69862930976E+02  0.69862930976E+02  0.00000000000E+00 0.  1.
         21   -1    0    0  501  503 -0.00000000000E+00 -0.00000000000E+00 -0.76595923448E+01  0.76595923448E+01  0.00000000000E+00 0.  1.
          2    1    1    2  501    0 -0.22963221586E+02  0.76270525612E-01  0.26420096872E+02  0.35004812263E+02  0.00000000000E+00 0. -1.
         -2    1    1    2    0  502  0.22963221586E+02 -0.76270525612E-01  0.35783241759E+02  0.42517711058E+02  0.00000000000E+00 0.  1.
<mgrwt>
<rscale>  2 0.22963348E+02</rscale>
<asrwt>0</asrwt>
<pdfrwt beam="1">  1       21 0.10748143E-01 0.22963348E+02</pdfrwt>
<pdfrwt beam="2">  1       21 0.11783989E-02 0.22963348E+02</pdfrwt>
<totfact> 0.13826312E+08</totfact>
</mgrwt>
</event>
<event>
 4    1  0.7521660E+004  0.2351814E+02  0.7546771E-02  0.1683246E+00
         21   -1    0    0  501  502  0.00000000000E+00  0.00000000000E+00  0.63020454887E+03  0.63020454887E+03  0.00000000000E+00 0. -1.
         21   -1    0    0  502  503 -0.00000000000E+00 -0.00000000000E+00 -0.95523272747E+00  0.95523272747E+00  0.00000000000E+00 0. -1.
          5    1    1    2  501    0 -0.10945830324E+02  0.20815655365E+02  0.22469128780E+03  0.22591874098E+03  0.00000000000E+00 0.  1.
         -5    1    1    2    0  503  0.10945830324E+02 -0.20815655365E+02  0.40455802834E+03  0.40524104062E+03  0.00000000000E+00 0. -1.
<mgrwt>
<rscale>  2 0.23518136E+02</rscale>
<asrwt>0</asrwt>
<pdfrwt beam="1">  1       21 0.96954213E-01 0.23518136E+02</pdfrwt>
<pdfrwt beam="2">  1       21 0.14695939E-03 0.23518136E+02</pdfrwt>
<totfact> 0.49292662E+07</totfact>
</mgrwt>
</event>
<event>
 4    1  0.7521660E+004  0.2129583E+02  0.7546771E-02  0.1720723E+00
         21   -1    0    0  501  502  0.00000000000E+00  0.00000000000E+00  0.94711840242E+01  0.94711840242E+01  0.00000000000E+00 0.  1.
         21   -1    0    0  502  503 -0.00000000000E+00 -0.00000000000E+00 -0.53190955723E+02  0.53190955723E+02  0.00000000000E+00 0.  1.
          4    1    1    2  501    0  0.18600160787E+02 -0.10370459064E+02 -0.11962876036E+02  0.24425863456E+02  0.00000000000E+00 0.  1.
         -4    1    1    2    0  503 -0.18600160787E+02  0.10370459064E+02 -0.31756895663E+02  0.38236276291E+02  0.00000000000E+00 0. -1.
<mgrwt>
<rscale>  2 0.21295831E+02</rscale>
<asrwt>0</asrwt>
<pdfrwt beam="1">  1       21 0.14571053E-02 0.21295831E+02</pdfrwt>
<pdfrwt beam="2">  1       21 0.81832238E-02 0.21295831E+02</pdfrwt>
<totfact> 0.15354341E+08</totfact>
</mgrwt>
</event>
<event>
 4    1  0.7521660E+004  0.2626220E+02  0.7546771E-02  0.1643507E+00
         21   -1    0    0  501  502  0.00000000000E+00  0.00000000000E+00  0.20585867646E+03  0.20585867646E+03  0.00000000000E+00 0. -1.
         21   -1    0    0  502  503 -0.00000000000E+00 -0.00000000000E+00 -0.65704676113E+01  0.65704676113E+01  0.00000000000E+00 0. -1.
          2    1    1    2  501    0  0.21612207690E+02 -0.14920302214E+02  0.25287351699E+02  0.36457551965E+02  0.00000000000E+00 0.  1.
         -2    1    1    2    0  503 -0.21612207690E+02  0.14920302214E+02  0.17400085715E+03  0.17597159211E+03  0.00000000000E+00 0. -1.
<mgrwt>
<rscale>  2 0.26262196E+02</rscale>
<asrwt>0</asrwt>
<pdfrwt beam="1">  1       21 0.31670561E-01 0.26262196E+02</pdfrwt>
<pdfrwt beam="2">  1       21 0.10108413E-02 0.26262196E+02</pdfrwt>
<totfact> 0.27437704E+07</totfact>
</mgrwt>
</event>
<event>
 4    1  0.7521660E+004  0.4449621E+02  0.7546771E-02  0.1477511E+00
         21   -1    0    0  503  502  0.00000000000E+00  0.00000000000E+00  0.32749265708E+03  0.32749265708E+03  0.00000000000E+00 0. -1.
         21   -1    0    0  501  503 -0.00000000000E+00 -0.00000000000E+00 -0.60875135487E+01  0.60875135487E+01  0.00000000000E+00 0. -1.
          3    1    1    2  501    0  0.22653466954E+02  0.38297954682E+02  0.17453055100E+03  0.18011337021E+03  0.00000000000E+00 0.  1.
         -3    1    1    2    0  502 -0.22653466954E+02 -0.38297954682E+02  0.14687459253E+03  0.15346680041E+03  0.00000000000E+00 0. -1.
<mgrwt>
<rscale>  2 0.44496212E+02</rscale>
<asrwt>0</asrwt>
<pdfrwt beam="1">  1       21 0.50383472E-01 0.44496212E+02</pdfrwt>
<pdfrwt beam="2">  1       21 0.93654080E-03 0.44496212E+02</pdfrwt>
<totfact> 0.13803545E+07</totfact>
</mgrwt>
</event>
<event>
 4    1  0.7521660E+004  0.2377164E+02  0.7546771E-02  0.1679299E+00
         21   -1    0    0  501  502  0.00000000000E+00  0.00000000000E+00  0.16294736421E+01  0.16294736421E+01  0.00000000000E+00 0. -1.
         21   -1    0    0  502  503 -0.00000000000E+00 -0.00000000000E+00 -0.40156831005E+03  0.40156831005E+03  0.00000000000E+00 0. -1.
          4    1    1    2  501    0  0.13915412070E+02 -0.19273098861E+02 -0.27442520581E+03  0.27545287186E+03  0.00000000000E+00 0.  1.
         -4    1    1    2    0  503 -0.13915412070E+02  0.19273098861E+02 -0.12551363060E+03  0.12774491183E+03  0.00000000000E+00 0. -1.
<mgrwt>
<rscale>  2 0.23771643E+02</rscale>
<asrwt>0</asrwt>
<pdfrwt beam="1">  1       21 0.25068791E-03 0.23771643E+02</pdfrwt>
<pdfrwt beam="2">  1       21 0.61779826E-01 0.23771643E+02</pdfrwt>
<totfact> 0.58600816E+07</totfact>
</mgrwt>
</event>
<event>
 4    1  0.7521660E+004  0.2043248E+02  0.7546771E-02  0.1736862E+00
         21   -1    0    0  503  502  0.00000000000E+00  0.00000000000E+00  0.10133219563E+03  0.10133219563E+03  0.00000000000E+00 0. -1.
         21   -1    0    0  501  503 -0.00000000000E+00 -0.00000000000E+00 -0.42833146534E+01  0.42833146534E+01  0.00000000000E+00 0. -1.
          3    1    1    2  501    0  0.11344830459E+02 -0.16993558351E+02  0.38212216469E+02  0.43331970773E+02  0.00000000000E+00 0.  1.
         -3    1    1    2    0  502 -0.11344830459E+02  0.16993558351E+02  0.58836664505E+02  0.62283539508E+02  0.00000000000E+00 0. -1.
<mgrwt>
<rscale>  2 0.20432479E+02</rscale>
<asrwt>0</asrwt>
<pdfrwt beam="1">  1       21 0.15589567E-01 0.20432479E+02</pdfrwt>
<pdfrwt beam="2">  1       21 0.65897156E-03 0.20432479E+02</pdfrwt>
<totfact> 0.17028233E+08</totfact>
</mgrwt>
</event>
<event>
 4    1  0.7521660E+004  0.3099279E+02  0.7546771E-02  0.1587367E+00
         21   -1    0    0  501  502  0.00000000000E+00  0.00000000000E+00  0.12534541300E+02  0.12534541300E+02  0.00000000000E+00 0. -1.
         21   -1    0    0  502  503 -0.00000000000E+00 -0.00000000000E+00 -0.78114801201E+02  0.78114801201E+02  0.00000000000E+00 0. -1.
          3    1    1    2  501    0 -0.24778771795E+02  0.18616274679E+02 -0.26546509711E+02  0.40807724666E+02  0.00000000000E+00 0. -1.
         -3    1    1    2    0  503  0.24778771795E+02 -0.18616274679E+02 -0.39033750190E+02  0.49841617835E+02  0.00000000000E+00 0.  1.
<mgrwt>
<rscale>  2 0.30992793E+02</rscale>
<asrwt>0</asrwt>
<pdfrwt beam="1">  1       21 0.19283910E-02 0.30992793E+02</pdfrwt>
<pdfrwt beam="2">  1       21 0.12017662E-01 0.30992793E+02</pdfrwt>
<totfact> 0.58314999E+07</totfact>
</mgrwt>
</event>
<event>
 4    1  0.7521660E+004  0.4202478E+02  0.7546771E-02  0.1493819E+00
         21   -1    0    0  501  502  0.00000000000E+00  0.00000000000E+00  0.12026312381E+02  0.12026312381E+02  0.00000000000E+00 0. -1.
         21   -1    0    0  502  503 -0.00000000000E+00 -0.00000000000E+00 -0.17075720118E+03  0.17075720118E+03  0.00000000000E+00 0. -1.
          1    1    1    2  501    0 -0.85951428702E+01  0.41136427689E+02 -0.11356088002E+03  0.12108738842E+03  0.00000000000E+00 0.  1.
         -1    1    1    2    0  503  0.85951428702E+01 -0.41136427689E+02 -0.45170008776E+02  0.61696125136E+02  0.00000000000E+00 0. -1.
<mgrwt>
<rscale>  2 0.42024780E+02</rscale>
<asrwt>0</asrwt>
<pdfrwt beam="1">  1       21 0.18502019E-02 0.42024780E+02</pdfrwt>
<pdfrwt beam="2">  1       21 0.26270338E-01 0.42024780E+02</pdfrwt>
<totfact> 0.16596852E+07</totfact>
</mgrwt>
</event>
<event>
 4    1  0.7521660E+004  0.2573121E+02  0.7546771E-02  0.1650716E+00
         21   -1    0    0  503  502  0.00000000000E+00  0.00000000000E+00  0.18871454982E+03  0.18871454982E+03  0.00000000000E+00 0.  1.
         21   -1    0    0  501  503 -0.00000000000E+00 -0.00000000000E+00 -0.39025287577E+01  0.39025287577E+01  0.00000000000E+00 0.  1.
          3    1    1    2  501    0  0.50622116669E+01 -0.25228341544E+02  0.12301044079E+03  0.12567284411E+03  0.00000000000E+00 0.  1.
         -3    1    1    2    0  502 -0.50622116669E+01  0.25228341544E+02  0.61801580276E+02  0.66944234469E+02  0.00000000000E+00 0. -1.
<mgrwt>
<rscale>  2 0.25731211E+02</rscale>
<asrwt>0</asrwt>
<pdfrwt beam="1">  1       21 0.29033001E-01 0.25731211E+02</pdfrwt>
<pdfrwt beam="2">  1       21 0.60038919E-03 0.25731211E+02</pdfrwt>
<totfact> 0.69898054E+07</totfact>
</mgrwt>
</event>
<event>
 4    1  0.7521660E+004  0.6273835E+02  0.7546771E-02  0.1386687E+00
         21   -1    0    0  503  502  0.00000000000E+00  0.00000000000E+00  0.22128789627E+04  0.22128789627E+04  0.00000000000E+00 0.  1.
         21   -1    0    0  501  503 -0.00000000000E+00 -0.00000000000E+00 -0.20905498914E+01  0.20905498914E+01  0.00000000000E+00 0.  1.
          5    1    1    2  501    0  0.59268608266E+02 -0.20575057970E+02  0.15331181577E+04  0.15344013120E+04  0.00000000000E+00 0. -1.
         -5    1    1    2    0  502 -0.59268608266E+02  0.20575057970E+02  0.67767025514E+03  0.68056820058E+03  0.00000000000E+00 0.  1.
<mgrwt>
<rscale>  2 0.62738353E+02</rscale>
<asrwt>0</asrwt>
<pdfrwt beam="1">  1       21 0.34044104E+00 0.62738353E+02</pdfrwt>
<pdfrwt beam="2">  1       21 0.32162483E-03 0.62738353E+02</pdfrwt>
<totfact> 0.51010770E+05</totfact>
</mgrwt>
</event>
<event>
 4    1  0.7521660E+004  0.2149815E+02  0.7546771E-02  0.1717079E+00
         21   -1    0    0  503  502  0.00000000000E+00  0.00000000000E+00  0.42862993912E+01  0.42862993912E+01  0.00000000000E+00 0.  1.
         21   -1    0    0  501  503 -0.00000000000E+00 -0.00000000000E+00 -0.12715383323E+03  0.12715383323E+03  0.00000000000E+00 0.  1.
          4    1    1    2  501    0 -0.18886325102E+02 -0.10270214891E+02 -0.87057071902E+02  0.89672205047E+02  0.00000000000E+00 0.  1.
         -4    1    1    2    0  502  0.18886325102E+02  0.10270214891E+02 -0.35810461936E+02  0.41767927573E+02  0.00000000000E+00 0. -1.
<mgrwt>
<rscale>  2 0.21498153E+02</rscale>
<asrwt>0</asrwt>
<pdfrwt beam="1">  1       21 0.65943061E-03 0.21498153E+02</pdfrwt>
<pdfrwt beam="2">  1       21 0.19562130E-01 0.21498153E+02</pdfrwt>
<totfact> 0.11695331E+08</totfact>
</mgrwt>
</event>
<event>
 4    1  0.7521660E+004  0.2281485E+02  0.7546771E-02  0.1694529E+00
         21   -1    0    0  501  502  0.00000000000E+00  0.00000000000E+00  0.17236028957E+02  0.17236028957E+02  0.00000000000E+00 0. -1.
         21   -1    0    0  502  503 -0.00000000000E+00 -0.00000000000E+00 -0.37399807118E+02  0.37399807118E+02  0.00000000000E+00 0. -1.
          2    1    1    2  501    0  0.15644950267E+02  0.16605814011E+02 -0.22068372846E+02  0.31741622641E+02  0.00000000000E+00 0. -1.
         -2    1    1    2    0  503 -0.15644950267E+02 -0.16605814011E+02  0.19045946848E+01  0.22894213433E+02  0.00000000000E+00 0.  1.
<mgrwt>
<rscale>  2 0.22814853E+02</rscale>
<asrwt>0</asrwt>
<pdfrwt beam="1">  1       21 0.26516968E-02 0.22814853E+02</pdfrwt>
<pdfrwt beam="2">  1       21 0.57538164E-02 0.22814853E+02</pdfrwt>
<totfact> 0.11068223E+08</totfact>
</mgrwt>
</event>
<event>
 4    1  0.7521660E+004  0.2147014E+02  0.7546771E-02  0.1717580E+00
         21   -1    0    0  501  502  0.00000000000E+00  0.00000000000E+00  0.35473979385E+01  0.35473979385E+01  0.00000000000E+00 0. -1.
         21   -1    0    0  502  503 -0.00000000000E+00 -0.00000000000E+00 -0.14156757771E+03  0.14156757771E+03  0.00000000000E+00 0. -1.
          2    1    1    2  501    0 -0.15584389203E+02 -0.14767989375E+02 -0.48220247929E+02  0.52784079108E+02  0.00000000000E+00 0.  1.
         -2    1    1    2    0  503  0.15584389203E+02  0.14767989375E+02 -0.89799931844E+02  0.92330896541E+02  0.00000000000E+00 0. -1.
<mgrwt>
<rscale>  2 0.21470135E+02</rscale>
<asrwt>0</asrwt>
<pdfrwt beam="1">  1       21 0.54575347E-03 0.21470135E+02</pdfrwt>
<pdfrwt beam="2">  1       21 0.21779630E-01 0.21470135E+02</pdfrwt>
<totfact> 0.12821464E+08</totfact>
</mgrwt>
</event>
<event>
 4    1  0.7521660E+004  0.2296262E+02  0.7546771E-02  0.1692117E+00
         21   -1    0    0  503  502  0.00000000000E+00  0.00000000000E+00  0.18595147924E+02  0.18595147924E+02  0.00000000000E+00 0.  1.
         21   -1    0    0  501  503 -0.00000000000E+00 -0.00000000000E+00 -0.34406828640E+02  0.34406828640E+02  0.00000000000E+00 0.  1.
          3    1    1    2  501    0  0.17194047716E+02 -0.15219938831E+02  0.32076741276E+01  0.23185577159E+02  0.00000000000E+00 0. -1.
         -3    1    1    2    0  502 -0.17194047716E+02  0.15219938831E+02 -0.19019354843E+02  0.29816399406E+02  0.00000000000E+00 0.  1.
<mgrwt>
<rscale>  2 0.22962618E+02</rscale>
<asrwt>0</asrwt>
<pdfrwt beam="1">  1       21 0.28607920E-02 0.22962618E+02</pdfrwt>
<pdfrwt beam="2">  1       21 0.52933582E-02 0.22962618E+02</pdfrwt>
<totfact> 0.11263689E+08</totfact>
</mgrwt>
</event>
<event>
 4    1  0.7521660E+004  0.2060531E+02  0.7546771E-02  0.1733552E+00
         21   -1    0    0  501  502  0.00000000000E+00  0.00000000000E+00  0.74477994429E+03  0.74477994429E+03  0.00000000000E+00 0.  1.
         21   -1    0    0  502  503 -0.00000000000E+00 -0.00000000000E+00 -0.63215873884E+00  0.63215873884E+00  0.00000000000E+00 0.  1.
          4    1    1    2  501    0 -0.18370481618E+02  0.93329695277E+01  0.25527212872E+03  0.25610239870E+03  0.00000000000E+00 0. -1.
         -4    1    1    2    0  503  0.18370481618E+02 -0.93329695277E+01  0.48887565683E+03  0.48930970433E+03  0.00000000000E+00 0.  1.
<mgrwt>
<rscale>  2 0.20605313E+02</rscale>
<asrwt>0</asrwt>
<pdfrwt beam="1">  1       21 0.11458083E+00 0.20605313E+02</pdfrwt>
<pdfrwt beam="2">  1       21 0.97255786E-04 0.20605313E+02</pdfrwt>
<totfact> 0.59655314E+07</totfact>
</mgrwt>
</event>
<event>
 4    1  0.7521660E+004  0.2655924E+02  0.7546771E-02  0.1639566E+00
         21   -1    0    0  501  502  0.00000000000E+00  0.00000000000E+00  0.40467672210E+02  0.40467672210E+02  0.00000000000E+00 0.  1.
         21   -1    0    0  502  503 -0.00000000000E+00 -0.00000000000E+00 -0.22026605058E+02  0.22026605058E+02  0.00000000000E+00 0.  1.
          5    1    1    2  501    0  0.23224774471E+02 -0.12884210406E+02  0.23493249285E+02  0.35458790010E+02  0.00000000000E+00 0.  1.
         -5    1    1    2    0  503 -0.23224774471E+02  0.12884210406E+02 -0.50521821333E+01  0.27035487259E+02  0.00000000000E+00 0. -1.
<mgrwt>
<rscale>  2 0.26559236E+02</rscale>
<asrwt>0</asrwt>
<pdfrwt beam="1">  1       21 0.62257957E-02 0.26559236E+02</pdfrwt>
<pdfrwt beam="2">  1       21 0.33887085E-02 0.26559236E+02</pdfrwt>
<totfact> 0.69254990E+07</totfact>
</mgrwt>
</event>
<event>
 4    1  0.7521660E+004  0.2172594E+02  0.7546771E-02  0.1713035E+00
         21   -1    0    0  501  502  0.00000000000E+00  0.00000000000E+00  0.45958108770E+00  0.45958108770E+00  0.00000000000E+00 0.  1.
         21   -1    0    0  502  503 -0.00000000000E+00 -0.00000000000E+00 -0.13744114379E+04  0.13744114379E+04  0.00000000000E+00 0.  1.
          4    1    1    2  501    0  0.83677614081E+00  0.21709817529E+02 -0.10325645744E+04  0.10327931142E+04  0.00000000000E+00 0. -1.
         -4    1    1    2    0  503 -0.83677614081E+00 -0.21709817529E+02 -0.34138728237E+03  0.34207790477E+03  0.00000000000E+00 0.  1.
<mgrwt>
<rscale>  2 0.21725938E+02</rscale>
<asrwt>0</asrwt>
<pdfrwt beam="1">  1       21 0.70704837E-04 0.21725938E+02</pdfrwt>
<pdfrwt beam="2">  1       21 0.21144775E+00 0.21725938E+02</pdfrwt>
<totfact> 0.21826832E+07</totfact>
</mgrwt>
</event>
<event>
 4    1  0.7521660E+004  0.2100000E+02  0.7546771E-02  0.1726143E+00
         21   -1    0    0  503  502  0.00000000000E+00  0.00000000000E+00  0.74154375244E+02  0.74154375244E+02  0.00000000000E+00 0. -1.
         21   -1    0    0  501  503 -0.00000000000E+00 -0.00000000000E+00 -0.59485876549E+01  0.59485876549E+01  0.00000000000E+00 0. -1.
          5    1    1    2  501    0 -0.18192656989E+02  0.10489381958E+02  0.34746474735E+02  0.40599475473E+02  0.00000000000E+00 0.  1.
         -5    1    1    2    0  502  0.18192656989E+02 -0.10489381958E+02  0.33459312853E+02  0.39503487425E+02  0.00000000000E+00 0. -1.
<mgrwt>
<rscale>  2 0.20999998E+02</rscale>
<asrwt>0</asrwt>
<pdfrwt beam="1">  1       21 0.11408365E-01 0.20999998E+02</pdfrwt>
<pdfrwt beam="2">  1       21 0.91516739E-03 0.20999998E+02</pdfrwt>
<totfact> 0.17812070E+08</totfact>
</mgrwt>
</event>
<event>
 4    1  0.7521660E+004  0.2098792E+02  0.7546771E-02  0.1726367E+00
         21   -1    0    0  503  502  0.00000000000E+00  0.00000000000E+00  0.63022595915E+02  0.63022595915E+02  0.00000000000E+00 0. -1.
         21   -1    0    0  501  503 -0.00000000000E+00 -0.00000000000E+00 -0.80730292422E+01  0.80730292422E+01  0.00000000000E+00 0. -1.
          3    1    1    2  501    0  0.19865573449E+02  0.67713815180E+01  0.14451302423E+02  0.25482008513E+02  0.00000000000E+00 0. -1.
         -3    1    1    2    0  502 -0.19865573449E+02 -0.67713815180E+01  0.40498264250E+02  0.45613616645E+02  0.00000000000E+00 0.  1.
<mgrwt>
<rscale>  2 0.20987916E+02</rscale>
<asrwt>0</asrwt>
<pdfrwt beam="1">  1       21 0.96957837E-02 0.20987916E+02</pdfrwt>
<pdfrwt beam="2">  1       21 0.12420045E-02 0.20987916E+02</pdfrwt>
<totfact> 0.14740841E+08</totfact>
</mgrwt>
</event>
<event>
 4    1  0.7521660E+004  0.2420007E+02  0.7546771E-02  0.1672765E+00
         21   -1    0    0  503  502  0.00000000000E+00  0.00000000000E+00  0.35642235296E+03  0.35642235296E+03  0.00000000000E+00 0.  1.
         21   -1    0    0  501  503 -0.00000000000E+00 -0.00000000000E+00 -0.16662578234E+01  0.16662578234E+01  0.00000000000E+00 0.  1.
          4    1    1    2  501    0 -0.22214701023E+02  0.95994946381E+01  0.15627772752E+03  0.15814035335E+03  0.00000000000E+00 0. -1.
         -4    1    1    2    0  502  0.22214701023E+02 -0.95994946381E+01  0.19847836762E+03  0.19994825744E+03  0.00000000000E+00 0.  1.
<mgrwt>
<rscale>  2 0.24200067E+02</rscale>
<asrwt>0</asrwt>
<pdfrwt beam="1">  1       21 0.54834148E-01 0.24200067E+02</pdfrwt>
<pdfrwt beam="2">  1       21 0.25634764E-03 0.24200067E+02</pdfrwt>
<totfact> 0.72258543E+07</totfact>
</mgrwt>
</event>
<event>
 4    1  0.7521660E+004  0.3169647E+02  0.7546771E-02  0.1580059E+00
         21   -1    0    0  503  502  0.00000000000E+00  0.00000000000E+00  0.90260648207E+02  0.90260648207E+02  0.00000000000E+00 0.  1.
         21   -1    0    0  501  503 -0.00000000000E+00 -0.00000000000E+00 -0.13931215428E+02  0.13931215428E+02  0.00000000000E+00 0.  1.
          5    1    1    2  501    0  0.26094364532E+01  0.31588876021E+02  0.61522225679E+02  0.69207300911E+02  0.00000000000E+00 0. -1.
         -5    1    1    2    0  502 -0.26094364532E+01 -0.31588876021E+02  0.14807207100E+02  0.34984562723E+02  0.00000000000E+00 0.  1.
<mgrwt>
<rscale>  2 0.31696471E+02</rscale>
<asrwt>0</asrwt>
<pdfrwt beam="1">  1       21 0.13886253E-01 0.31696471E+02</pdfrwt>
<pdfrwt beam="2">  1       21 0.21432640E-02 0.31696471E+02</pdfrwt>
<totfact> 0.38871552E+07</totfact>
</mgrwt>
</event>
<event>
 4    1  0.7521660E+004  0.4307931E+02  0.7546771E-02  0.1486701E+00
         21   -1    0    0  503  502  0.00000000000E+00  0.00000000000E+00  0.12984529469E+03  0.12984529469E+03  0.00000000000E+00 0.  1.
         21   -1    0    0  501  503 -0.00000000000E+00 -0.00000000000E+00 -0.14780290661E+02  0.14780290661E+02  0.00000000000E+00 0.  1.
          1    1    1    2  501    0  0.33537306050E+02 -0.27038426027E+02  0.44397078424E+02  0.61862168986E+02  0.00000000000E+00 0. -1.
         -1    1    1    2    0  502 -0.33537306050E+02  0.27038426027E+02  0.70667925609E+02  0.82763416368E+02  0.00000000000E+00 0.  1.
<mgrwt>
<rscale>  2 0.43079315E+02</rscale>
<asrwt>0</asrwt>
<pdfrwt beam="1">  1       21 0.19976198E-01 0.43079315E+02</pdfrwt>
<pdfrwt beam="2">  1       21 0.22738910E-02 0.43079315E+02</pdfrwt>
<totfact> 0.19798352E+07</totfact>
</mgrwt>
</event>
<event>
 4    1  0.7521660E+004  0.2407195E+02  0.7546771E-02  0.1674701E+00
         21   -1    0    0  501  502  0.00000000000E+00  0.00000000000E+00  0.97906440346E+01  0.97906440346E+01  0.00000000000E+00 0. -1.
         21   -1    0    0  502  503 -0.00000000000E+00 -0.00000000000E+00 -0.83028442449E+02  0.83028442449E+02  0.00000000000E+00 0. -1.
          3    1    1    2  501    0  0.21858566293E+02  0.10082744547E+02 -0.61489077244E+02  0.66033062009E+02  0.00000000000E+00 0. -1.
         -3    1    1    2    0  503 -0.21858566293E+02 -0.10082744547E+02 -0.11748721170E+02  0.26786024474E+02  0.00000000000E+00 0.  1.
<mgrwt>
<rscale>  2 0.24071948E+02</rscale>
<asrwt>0</asrwt>
<pdfrwt beam="1">  1       21 0.15062529E-02 0.24071948E+02</pdfrwt>
<pdfrwt beam="2">  1       21 0.12773607E-01 0.24071948E+02</pdfrwt>
<totfact> 0.72349814E+07</totfact>
</mgrwt>
</event>
<event>
 4    1  0.7521660E+004  0.2358387E+02  0.7546771E-02  0.1682217E+00
         21   -1    0    0  501  502  0.00000000000E+00  0.00000000000E+00  0.23130051908E+02  0.23130051908E+02  0.00000000000E+00 0.  1.
         21   -1    0    0  502  503 -0.00000000000E+00 -0.00000000000E+00 -0.25098829385E+02  0.25098829385E+02  0.00000000000E+00 0.  1.
          2    1    1    2  501    0 -0.23360394106E+02 -0.32389671894E+01 -0.59218911713E+01  0.24315997127E+02  0.00000000000E+00 0.  1.
         -2    1    1    2    0  503  0.23360394106E+02  0.32389671894E+01  0.39531136947E+01  0.23912884166E+02  0.00000000000E+00 0. -1.
<mgrwt>
<rscale>  2 0.23583870E+02</rscale>
<asrwt>0</asrwt>
<pdfrwt beam="1">  1       21 0.35584695E-02 0.23583870E+02</pdfrwt>
<pdfrwt beam="2">  1       21 0.38613584E-02 0.23583870E+02</pdfrwt>
<totfact> 0.13312649E+08</totfact>
</mgrwt>
</event>
<event>
 4    1  0.7521660E+004  0.2474239E+02  0.7546771E-02  0.1664730E+00
         21   -1    0    0  503  502  0.00000000000E+00  0.00000000000E+00  0.13297321257E+03  0.13297321257E+03  0.00000000000E+00 0.  1.
         21   -1    0    0  501  503 -0.00000000000E+00 -0.00000000000E+00 -0.49159573888E+01  0.49159573888E+01  0.00000000000E+00 0.  1.
          1    1    1    2  501    0 -0.15765000412E+02  0.19069626086E+02  0.81401156013E+02  0.85078399593E+02  0.00000000000E+00 0.  1.
         -1    1    1    2    0  502  0.15765000412E+02 -0.19069626086E+02  0.46656099168E+02  0.52810770366E+02  0.00000000000E+00 0. -1.
<mgrwt>
<rscale>  2 0.24742390E+02</rscale>
<asrwt>0</asrwt>
<pdfrwt beam="1">  1       21 0.20457415E-01 0.24742390E+02</pdfrwt>
<pdfrwt beam="2">  1       21 0.75630124E-03 0.24742390E+02</pdfrwt>
<totfact> 0.91701246E+07</totfact>
</mgrwt>
</event>
<event>
 4    1  0.7521660E+004  0.2417721E+02  0.7546771E-02  0.1673109E+00
         21   -1    0    0  503  502  0.00000000000E+00  0.00000000000E+00  0.61301749865E+02  0.61301749865E+02  0.00000000000E+00 0.  1.
         21   -1    0    0  501  503 -0.00000000000E+00 -0.00000000000E+00 -0.95995902830E+01  0.95995902830E+01  0.00000000000E+00 0.  1.
          3    1    1    2  501    0 -0.15814381897E+02  0.18287777001E+02  0.28749697758E+02  0.37564379185E+02  0.00000000000E+00 0. -1.
         -3    1    1    2    0  502  0.15814381897E+02 -0.18287777001E+02  0.22952461824E+02  0.33336960962E+02  0.00000000000E+00 0.  1.
<mgrwt>
<rscale>  2 0.24177210E+02</rscale>
<asrwt>0</asrwt>
<pdfrwt beam="1">  1       21 0.94310382E-02 0.24177210E+02</pdfrwt>
<pdfrwt beam="2">  1       21 0.14768601E-02 0.24177210E+02</pdfrwt>
<totfact> 0.12380482E+08</totfact>
</mgrwt>
</event>
<event>
 4    1  0.7521660E+004  0.2207279E+02  0.7546771E-02  0.1706996E+00
         21   -1    0    0  503  502  0.00000000000E+00  0.00000000000E+00  0.12328514288E+04  0.12328514288E+04  0.00000000000E+00 0. -1.
         21   -1    0    0  501  503 -0.00000000000E+00 -0.00000000000E+00 -0.41996609990E+00  0.41996609990E+00  0.00000000000E+00 0. -1.
          1    1    1    2  501    0 -0.12660924935E+02  0.18080620074E+02  0.46643453061E+03  0.46695650675E+03  0.00000000000E+00 0.  1.
         -1    1    1    2    0  502  0.12660924935E+02 -0.18080620074E+02  0.76599693209E+03  0.76631488816E+03  0.00000000000E+00 0. -1.
<mgrwt>
<rscale>  2 0.22072785E+02</rscale>
<asrwt>0</asrwt>
<pdfrwt beam="1">  1       21 0.18966655E+00 0.22072785E+02</pdfrwt>
<pdfrwt beam="2">  1       21 0.64611156E-04 0.22072785E+02</pdfrwt>
<totfact> 0.32850048E+07</totfact>
</mgrwt>
</event>
<event>
 4    1  0.7521660E+004  0.2044786E+02  0.7546771E-02  0.1736566E+00
         21   -1    0    0  501  502  0.00000000000E+00  0.00000000000E+00  0.13880810675E+03  0.13880810675E+03  0.00000000000E+00 0.  1.
         21   -1    0    0  502  503 -0.00000000000E+00 -0.00000000000E+00 -0.30682337759E+01  0.30682337759E+01  0.00000000000E+00 0.  1.
          2    1    1    2  501    0 -0.19984892746E+02 -0.43265379042E+01  0.58281628984E+02  0.61764578403E+02  0.00000000000E+00 0.  1.
         -2    1    1    2    0  503  0.19984892746E+02  0.43265379042E+01  0.77458243986E+02  0.80111762118E+02  0.00000000000E+00 0. -1.
<mgrwt>
<rscale>  2 0.20447857E+02</rscale>
<asrwt>0</asrwt>
<pdfrwt beam="1">  1       21 0.21355088E-01 0.20447857E+02</pdfrwt>
<pdfrwt beam="2">  1       21 0.47203607E-03 0.20447857E+02</pdfrwt>
<totfact> 0.16193172E+08</totfact>
</mgrwt>
</event>
<event>
 4    1  0.7521660E+004  0.2173013E+02  0.7546771E-02  0.1712961E+00
         21   -1    0    0  501  502  0.00000000000E+00  0.00000000000E+00  0.24981560840E+02  0.24981560840E+02  0.00000000000E+00 0. -1.
         21   -1    0    0  502  503 -0.00000000000E+00 -0.00000000000E+00 -0.19108209832E+02  0.19108209832E+02  0.00000000000E+00 0. -1.
          3    1    1    2  501    0  0.11880313431E+02  0.18194962988E+02  0.52274182566E+01  0.22350043110E+02  0.00000000000E+00 0.  1.
         -3    1    1    2    0  503 -0.11880313431E+02 -0.18194962988E+02  0.64593275226E+00  0.21739727562E+02  0.00000000000E+00 0. -1.
<mgrwt>
<rscale>  2 0.21730129E+02</rscale>
<asrwt>0</asrwt>
<pdfrwt beam="1">  1       21 0.38433171E-02 0.21730129E+02</pdfrwt>
<pdfrwt beam="2">  1       21 0.29397246E-02 0.21730129E+02</pdfrwt>
<totfact> 0.17622287E+08</totfact>
</mgrwt>
</event>
<event>
 4    1  0.7521660E+004  0.2224995E+02  0.7546771E-02  0.1703965E+00
         21   -1    0    0  501  502  0.00000000000E+00  0.00000000000E+00  0.65192640574E+02  0.65192640574E+02  0.00000000000E+00 0.  1.
         21   -1    0    0  502  503 -0.00000000000E+00 -0.00000000000E+00 -0.82892659188E+01  0.82892659188E+01  0.00000000000E+00 0.  1.
          1    1    1    2  501    0  0.19635104559E+02 -0.10465313418E+02  0.17809542839E+02  0.28499823370E+02  0.00000000000E+00 0. -1.
         -1    1    1    2    0  503 -0.19635104559E+02  0.10465313418E+02  0.39093831816E+02  0.44982083123E+02  0.00000000000E+00 0.  1.
<mgrwt>
<rscale>  2 0.22249946E+02</rscale>
<asrwt>0</asrwt>
<pdfrwt beam="1">  1       21 0.10029637E-01 0.22249946E+02</pdfrwt>
<pdfrwt beam="2">  1       21 0.12752717E-02 0.22249946E+02</pdfrwt>
<totfact> 0.13633958E+08</totfact>
</mgrwt>
</event>
<event>
 4    1  0.7521660E+004  0.2767567E+02  0.7546771E-02  0.1625300E+00
         21   -1    0    0  501  502  0.00000000000E+00  0.00000000000E+00  0.15177967389E+02  0.15177967389E+02  0.00000000000E+00 0.  1.
         21   -1    0    0  502  503 -0.00000000000E+00 -0.00000000000E+00 -0.51517058621E+02  0.51517058621E+02  0.00000000000E+00 0.  1.
          1    1    1    2  501    0  0.11872993418E+02  0.24999497189E+02 -0.13402069019E+02  0.30749931486E+02  0.00000000000E+00 0. -1.
         -1    1    1    2    0  503 -0.11872993418E+02 -0.24999497189E+02 -0.22937022213E+02  0.35945094524E+02  0.00000000000E+00 0.  1.
<mgrwt>
<rscale>  2 0.27675672E+02</rscale>
<asrwt>0</asrwt>
<pdfrwt beam="1">  1       21 0.23350719E-02 0.27675672E+02</pdfrwt>
<pdfrwt beam="2">  1       21 0.79257013E-02 0.27675672E+02</pdfrwt>
<totfact> 0.84487728E+07</totfact>
</mgrwt>
</event>
<event>
 4    1  0.7521660E+004  0.2372531E+02  0.7546771E-02  0.1680016E+00
         21   -1    0    0  503  502  0.00000000000E+00  0.00000000000E+00  0.24433874790E+02  0.24433874790E+02  0.00000000000E+00 0.  1.
         21   -1    0    0  501  503 -0.00000000000E+00 -0.00000000000E+00 -0.27665053622E+02  0.27665053622E+02  0.00000000000E+00 0.  1.
          2    1    1    2  501    0 -0.29352718720E+00 -0.23723497452E+02 -0.12269724006E+02  0.26710234307E+02  0.00000000000E+00 0.  1.
         -2    1    1    2    0  502  0.29352718720E+00  0.23723497452E+02  0.90385451740E+01  0.25388694106E+02  0.00000000000E+00 0. -1.
<mgrwt>
<rscale>  2 0.23725313E+02</rscale>
<asrwt>0</asrwt>
<pdfrwt beam="1">  1       21 0.37590577E-02 0.23725313E+02</pdfrwt>
<pdfrwt beam="2">  1       21 0.42561621E-02 0.23725313E+02</pdfrwt>
<totfact> 0.10492290E+08</totfact>
</mgrwt>
</event>
<event>
 4    1  0.7521660E+004  0.2072451E+02  0.7546771E-02  0.1731293E+00
         21   -1    0    0  501  502  0.00000000000E+00  0.00000000000E+00  0.14715300225E+03  0.14715300225E+03  0.00000000000E+00 0. -1.
         21   -1    0    0  502  503 -0.00000000000E+00 -0.00000000000E+00 -0.29210732349E+01  0.29210732349E+01  0.00000000000E+00 0. -1.
          4    1    1    2  501    0  0.18781002419E+02 -0.87623756728E+01  0.74224528153E+02  0.77063518339E+02  0.00000000000E+00 0. -1.
         -4    1    1    2    0  503 -0.18781002419E+02  0.87623756728E+01  0.70007400866E+02  0.73010557149E+02  0.00000000000E+00 0.  1.
<mgrwt>
<rscale>  2 0.20724509E+02</rscale>
<asrwt>0</asrwt>
<pdfrwt beam="1">  1       21 0.22638918E-01 0.20724509E+02</pdfrwt>
<pdfrwt beam="2">  1       21 0.44939600E-03 0.20724509E+02</pdfrwt>
<totfact> 0.15774809E+08</totfact>
</mgrwt>
</event>
<event>
 4    1  0.7521660E+004  0.2322050E+02  0.7546771E-02  0.1687961E+00
         21   -1    0    0  501  502  0.00000000000E+00  0.00000000000E+00  0.31392088174E+03  0.31392088174E+03  0.00000000000E+00 0. -1.
         21   -1    0    0  502  503 -0.00000000000E+00 -0.00000000000E+00 -0.17614065291E+01  0.17614065291E+01  0.00000000000E+00 0. -1.
          2    1    1    2  501    0  0.15135015131E+02 -0.17610311389E+02  0.18097061475E+03  0.18245425496E+03  0.00000000000E+00 0.  1.
         -2    1    1    2    0  503 -0.15135015131E+02  0.17610311389E+02  0.13118886046E+03  0.13322803330E+03  0.00000000000E+00 0. -1.
<mgrwt>
<rscale>  2 0.23220503E+02</rscale>
<asrwt>0</asrwt>
<pdfrwt beam="1">  1       21 0.48295476E-01 0.23220503E+02</pdfrwt>
<pdfrwt beam="2">  1       21 0.27098587E-03 0.23220503E+02</pdfrwt>
<totfact> 0.84559358E+07</totfact>
</mgrwt>
</event>
<event>
 4    1  0.7521660E+004  0.5722331E+02  0.7546771E-02  0.1409868E+00
         21   -1    0    0  501  502  0.00000000000E+00  0.00000000000E+00  0.16609763436E+03  0.16609763436E+03  0.00000000000E+00 0.  1.
         21   -1    0    0  502  503 -0.00000000000E+00 -0.00000000000E+00 -0.22145205842E+02  0.22145205842E+02  0.00000000000E+00 0.  1.
          3    1    1    2  501    0  0.19322472706E+02 -0.53862315433E+02  0.10315995213E+03  0.11796814273E+03  0.00000000000E+00 0. -1.
         -3    1    1    2    0  503 -0.19322472706E+02  0.53862315433E+02  0.40792476392E+02  0.70274697477E+02  0.00000000000E+00 0.  1.
<mgrwt>
<rscale>  2 0.57223308E+02</rscale>
<asrwt>0</asrwt>
<pdfrwt beam="1">  1       21 0.25553481E-01 0.57223308E+02</pdfrwt>
<pdfrwt beam="2">  1       21 0.34069548E-02 0.57223308E+02</pdfrwt>
<totfact> 0.68752899E+06</totfact>
</mgrwt>
</event>
<event>
 4    1  0.7521660E+004  0.2723944E+02  0.7546771E-02  0.1630774E+00
         21   -1    0    0  503  502  0.00000000000E+00  0.00000000000E+00  0.10390924261E+01  0.10390924261E+01  0.00000000000E+00 0. -1.
         21   -1    0    0  501  503 -0.00000000000E+00 -0.00000000000E+00 -0.85830628618E+03  0.85830628618E+03  0.00000000000E+00 0. -1.
          5    1    1    2  501    0  0.30836989051E+01  0.27064332901E+02 -0.25249678833E+03  0.25396183854E+03  0.00000000000E+00 0.  1.
         -5    1    1    2    0  502 -0.30836989051E+01 -0.27064332901E+02 -0.60477040542E+03  0.60538354007E+03  0.00000000000E+00 0. -1.
<mgrwt>
<rscale>  2 0.27239444E+02</rscale>
<asrwt>0</asrwt>
<pdfrwt beam="1">  1       21 0.15986028E-03 0.27239444E+02</pdfrwt>
<pdfrwt beam="2">  1       21 0.13204720E+00 0.27239444E+02</pdfrwt>
<totfact> 0.22394258E+07</totfact>
</mgrwt>
</event>
<event>
 4    1  0.7521660E+004  0.2547967E+02  0.7546771E-02  0.1654206E+00
         21   -1    0    0  503  502  0.00000000000E+00  0.00000000000E+00  0.83880514930E+02  0.83880514930E+02  0.00000000000E+00 0.  1.
         21   -1    0    0  501  503 -0.00000000000E+00 -0.00000000000E+00 -0.78093643022E+01  0.78093643022E+01  0.00000000000E+00 0.  1.
          5    1    1    2  501    0  0.22031655390E+02 -0.12799210851E+02  0.42364243395E+02  0.49436249413E+02  0.00000000000E+00 0.  1.
         -5    1    1    2    0  502 -0.22031655390E+02  0.12799210851E+02  0.33706907233E+02  0.42253629819E+02  0.00000000000E+00 0. -1.
<mgrwt>
<rscale>  2 0.25479671E+02</rscale>
<asrwt>0</asrwt>
<pdfrwt beam="1">  1       21 0.12904694E-01 0.25479671E+02</pdfrwt>
<pdfrwt beam="2">  1       21 0.12014407E-02 0.25479671E+02</pdfrwt>
<totfact> 0.10175057E+08</totfact>
</mgrwt>
</event>
<event>
 4    1  0.7521660E+004  0.2772810E+02  0.7546771E-02  0.1624650E+00
         21   -1    0    0  501  502  0.00000000000E+00  0.00000000000E+00  0.51129718031E+02  0.51129718031E+02  0.00000000000E+00 0. -1.
         21   -1    0    0  502  503 -0.00000000000E+00 -0.00000000000E+00 -0.16694970589E+02  0.16694970589E+02  0.00000000000E+00 0. -1.
          4    1    1    2  501    0  0.23139323666E+02 -0.15278068490E+02  0.27903677240E+02  0.39337804718E+02  0.00000000000E+00 0.  1.
         -4    1    1    2    0  503 -0.23139323666E+02  0.15278068490E+02  0.65310702018E+01  0.28486883902E+02  0.00000000000E+00 0. -1.
<mgrwt>
<rscale>  2 0.27728103E+02</rscale>
<asrwt>0</asrwt>
<pdfrwt beam="1">  1       21 0.78661104E-02 0.27728103E+02</pdfrwt>
<pdfrwt beam="2">  1       21 0.25684570E-02 0.27728103E+02</pdfrwt>
<totfact> 0.73792385E+07</totfact>
</mgrwt>
</event>
<event>
 4    1  0.7521660E+004  0.2080624E+02  0.7546771E-02  0.1729755E+00
         21   -1    0    0  503  502  0.00000000000E+00  0.00000000000E+00  0.44165396832E+03  0.44165396832E+03  0.00000000000E+00 0. -1.
         21   -1    0    0  501  503 -0.00000000000E+00 -0.00000000000E+00 -0.10439471242E+01  0.10439471242E+01  0.00000000000E+00 0. -1.
          5    1    1    2  501    0  0.13099356953E+02 -0.16164973046E+02  0.27501207797E+03  0.27579801039E+03  0.00000000000E+00 0.  1.
         -5    1    1    2    0  502 -0.13099356953E+02  0.16164973046E+02  0.16559794323E+03  0.16689990505E+03  0.00000000000E+00 0. -1.
<mgrwt>
<rscale>  2 0.20806237E+02</rscale>
<asrwt>0</asrwt>
<pdfrwt beam="1">  1       21 0.67946615E-01 0.20806237E+02</pdfrwt>
<pdfrwt beam="2">  1       21 0.16060760E-03 0.20806237E+02</pdfrwt>
<totfact> 0.88931588E+07</totfact>
</mgrwt>
</event>
<event>
 4    1  0.7521660E+004  0.2084125E+02  0.7546771E-02  0.1729098E+00
         21   -1    0    0  501  502  0.00000000000E+00  0.00000000000E+00  0.23202289077E+02  0.23202289077E+02  0.00000000000E+00 0. -1.
         21   -1    0    0  502  503 -0.00000000000E+00 -0.00000000000E+00 -0.19446903180E+02  0.19446903180E+02  0.00000000000E+00 0. -1.
          2    1    1    2  501    0  0.18215152509E+02  0.10127474451E+02  0.59992040806E+01  0.21687507217E+02  0.00000000000E+00 0.  1.
         -2    1    1    2    0  503 -0.18215152509E+02 -0.10127474451E+02 -0.22438181834E+01  0.20961685040E+02  0.00000000000E+00 0. -1.
<mgrwt>
<rscale>  2 0.20841246E+02</rscale>
<asrwt>0</asrwt>
<pdfrwt beam="1">  1       21 0.35695829E-02 0.20841246E+02</pdfrwt>
<pdfrwt beam="2">  1       21 0.29918313E-02 0.20841246E+02</pdfrwt>
<totfact> 0.18998052E+08</totfact>
</mgrwt>
</event>
<event>
 4    1  0.7521660E+004  0.3943971E+02  0.7546771E-02  0.1512376E+00
         21   -1    0    0  503  502  0.00000000000E+00  0.00000000000E+00  0.10653003027E+02  0.10653003027E+02  0.00000000000E+00 0. -1.
         21   -1    0    0  501  503 -0.00000000000E+00 -0.00000000000E+00 -0.16943674520E+03  0.16943674520E+03  0.00000000000E+00 0. -1.
          4    1    1    2  501    0 -0.34033843175E+02  0.19929587930E+02 -0.11287076933E+03  0.11956296051E+03  0.00000000000E+00 0.  1.
         -4    1    1    2    0  502  0.34033843175E+02 -0.19929587930E+02 -0.45912972842E+02  0.60526787718E+02  0.00000000000E+00 0. -1.
<mgrwt>
<rscale>  2 0.39439713E+02</rscale>
<asrwt>0</asrwt>
<pdfrwt beam="1">  1       21 0.16389235E-02 0.39439713E+02</pdfrwt>
<pdfrwt beam="2">  1       21 0.26067192E-01 0.39439713E+02</pdfrwt>
<totfact> 0.20137050E+07</totfact>
</mgrwt>
</event>
<event>
 4    1  0.7521660E+004  0.3200341E+02  0.7546771E-02  0.1576944E+00
         21   -1    0    0  503  502  0.00000000000E+00  0.00000000000E+00  0.44518269385E+01  0.44518269385E+01  0.00000000000E+00 0. -1.
         21   -1    0    0  501  503 -0.00000000000E+00 -0.00000000000E+00 -0.23007093062E+03  0.23007093062E+03  0.00000000000E+00 0. -1.
          4    1    1    2  501    0 -0.25879647295E+02  0.18827167178E+02 -0.11232348638E+03  0.11679376678E+03  0.00000000000E+00 0. -1.
         -4    1    1    2    0  502  0.25879647295E+02 -0.18827167178E+02 -0.11329561731E+03  0.11772899078E+03  0.00000000000E+00 0.  1.
<mgrwt>
<rscale>  2 0.32003412E+02</rscale>
<asrwt>0</asrwt>
<pdfrwt beam="1">  1       21 0.68489647E-03 0.32003412E+02</pdfrwt>
<pdfrwt beam="2">  1       21 0.35395527E-01 0.32003412E+02</pdfrwt>
<totfact> 0.41713709E+07</totfact>
</mgrwt>
</event>
<event>
 4    1  0.7521660E+004  0.3321133E+02  0.7546771E-02  0.1565083E+00
         21   -1    0    0  501  502  0.00000000000E+00  0.00000000000E+00  0.51154871298E+01  0.51154871298E+01  0.00000000000E+00 0.  1.
         21   -1    0    0  502  503 -0.00000000000E+00 -0.00000000000E+00 -0.22383817507E+03  0.22383817507E+03  0.00000000000E+00 0.  1.
          2    1    1    2  501    0 -0.18888630289E+02  0.27316885637E+02 -0.13129865303E+03  0.13543385427E+03  0.00000000000E+00 0. -1.
         -2    1    1    2    0  503  0.18888630289E+02 -0.27316885637E+02 -0.87424034904E+02  0.93519807923E+02  0.00000000000E+00 0.  1.
<mgrwt>
<rscale>  2 0.33211332E+02</rscale>
<asrwt>0</asrwt>
<pdfrwt beam="1">  1       21 0.78699810E-03 0.33211332E+02</pdfrwt>
<pdfrwt beam="2">  1       21 0.34436639E-01 0.33211332E+02</pdfrwt>
<totfact> 0.35878617E+07</totfact>
</mgrwt>
</event>
<event>
 4    1  0.7521660E+004  0.3610593E+02  0.7546771E-02  0.1538993E+00
         21   -1    0    0  503  502  0.00000000000E+00  0.00000000000E+00  0.24885467210E+02  0.24885467210E+02  0.00000000000E+00 0. -1.
         21   -1    0    0  501  503 -0.00000000000E+00 -0.00000000000E+00 -0.61961684019E+02  0.61961684019E+02  0.00000000000E+00 0. -1.
          5    1    1    2  501    0  0.20298326995E+02  0.29859941198E+02 -0.35609138923E+02  0.50711428120E+02  0.00000000000E+00 0.  1.
         -5    1    1    2    0  502 -0.20298326995E+02 -0.29859941198E+02 -0.14670778862E+01  0.36135723110E+02  0.00000000000E+00 0. -1.
<mgrwt>
<rscale>  2 0.36105930E+02</rscale>
<asrwt>0</asrwt>
<pdfrwt beam="1">  1       21 0.38285335E-02 0.36105930E+02</pdfrwt>
<pdfrwt beam="2">  1       21 0.95325666E-02 0.36105930E+02</pdfrwt>
<totfact> 0.30234266E+07</totfact>
</mgrwt>
</event>
<event>
 4    1  0.7521660E+004  0.2766620E+02  0.7546771E-02  0.1625418E+00
         21   -1    0    0  501  502  0.00000000000E+00  0.00000000000E+00  0.53694429086E+01  0.53694429086E+01  0.00000000000E+00 0. -1.
         21   -1    0    0  502  503 -0.00000000000E+00 -0.00000000000E+00 -0.14362674980E+03  0.14362674980E+03  0.00000000000E+00 0. -1.
          4    1    1    2  501    0 -0.13276520112E+02 -0.24272467979E+02 -0.62680846649E+02  0.68515014593E+02  0.00000000000E+00 0.  1.
         -4    1    1    2    0  503  0.13276520112E+02  0.24272467979E+02 -0.75576460245E+02  0.80481178118E+02  0.00000000000E+00 0. -1.
<mgrwt>
<rscale>  2 0.27666201E+02</rscale>
<asrwt>0</asrwt>
<pdfrwt beam="1">  1       21 0.82606813E-03 0.27666201E+02</pdfrwt>
<pdfrwt beam="2">  1       21 0.22096423E-01 0.27666201E+02</pdfrwt>
<totfact> 0.72078502E+07</totfact>
</mgrwt>
</event>
<event>
 4    1  0.7521660E+004  0.2199254E+02  0.7546771E-02  0.1708381E+00
         21   -1    0    0  503  502  0.00000000000E+00  0.00000000000E+00  0.42132755116E+02  0.42132755116E+02  0.00000000000E+00 0. -1.
         21   -1    0    0  501  503 -0.00000000000E+00 -0.00000000000E+00 -0.14252687882E+02  0.14252687882E+02  0.00000000000E+00 0. -1.
          1    1    1    2  501    0 -0.44109470634E+01 -0.21545654214E+02  0.15045672232E+01  0.22043942298E+02  0.00000000000E+00 0.  1.
         -1    1    1    2    0  502  0.44109470634E+01  0.21545654214E+02  0.26375500011E+02  0.34341500700E+02  0.00000000000E+00 0. -1.
<mgrwt>
<rscale>  2 0.21992537E+02</rscale>
<asrwt>0</asrwt>
<pdfrwt beam="1">  1       21 0.64819623E-02 0.21992537E+02</pdfrwt>
<pdfrwt beam="2">  1       21 0.21927212E-02 0.21992537E+02</pdfrwt>
<totfact> 0.12123134E+08</totfact>
</mgrwt>
</event>
<event>
 4    1  0.7521660E+004  0.2860155E+02  0.7546771E-02  0.1614082E+00
         21   -1    0    0  503  502  0.00000000000E+00  0.00000000000E+00  0.62956551498E+02  0.62956551498E+02  0.00000000000E+00 0. -1.
         21   -1    0    0  501  503 -0.00000000000E+00 -0.00000000000E+00 -0.20326383002E+02  0.20326383002E+02  0.00000000000E+00 0. -1.
          4    1    1    2  501    0  0.19497653614E+02  0.20925821545E+02  0.46325605395E+02  0.54443642595E+02  0.00000000000E+00 0. -1.
         -4    1    1    2    0  502 -0.19497653614E+02 -0.20925821545E+02 -0.36954368988E+01  0.28839291906E+02  0.00000000000E+00 0.  1.
<mgrwt>
<rscale>  2 0.28601547E+02</rscale>
<asrwt>0</asrwt>
<pdfrwt beam="1">  1       21 0.96856232E-02 0.28601547E+02</pdfrwt>
<pdfrwt beam="2">  1       21 0.31271359E-02 0.28601547E+02</pdfrwt>
<totfact> 0.38721835E+07</totfact>
</mgrwt>
</event>
<event>
 4    1  0.7521660E+004  0.2883932E+02  0.7546771E-02  0.1611284E+00
         21   -1    0    0  501  502  0.00000000000E+00  0.00000000000E+00  0.14607817065E+03  0.14607817065E+03  0.00000000000E+00 0.  1.
         21   -1    0    0  502  503 -0.00000000000E+00 -0.00000000000E+00 -0.58142134971E+01  0.58142134971E+01  0.00000000000E+00 0.  1.
          2    1    1    2  501    0  0.13960765459E+02 -0.25234966349E+02  0.59192165482E+02  0.65843898375E+02  0.00000000000E+00 0. -1.
         -2    1    1    2    0  503 -0.13960765459E+02  0.25234966349E+02  0.81071791670E+02  0.86048485770E+02  0.00000000000E+00 0.  1.
<mgrwt>
<rscale>  2 0.28839322E+02</rscale>
<asrwt>0</asrwt>
<pdfrwt beam="1">  1       21 0.22473562E-01 0.28839322E+02</pdfrwt>
<pdfrwt beam="2">  1       21 0.89449449E-03 0.28839322E+02</pdfrwt>
<totfact> 0.62649363E+07</totfact>
</mgrwt>
</event>
<event>
 4    1  0.7521660E+004  0.2135784E+02  0.7546771E-02  0.1719600E+00
         21   -1    0    0  501  502  0.00000000000E+00  0.00000000000E+00  0.60807569678E+02  0.60807569678E+02  0.00000000000E+00 0.  1.
         21   -1    0    0  502  503 -0.00000000000E+00 -0.00000000000E+00 -0.77211164338E+01  0.77211164338E+01  0.00000000000E+00 0.  1.
          4    1    1    2  501    0  0.21354359560E+02  0.38528430301E+00  0.20766441271E+02  0.29789296723E+02  0.00000000000E+00 0.  1.
         -4    1    1    2    0  503 -0.21354359560E+02 -0.38528430301E+00  0.32320011973E+02  0.38739389388E+02  0.00000000000E+00 0. -1.
<mgrwt>
<rscale>  2 0.21357835E+02</rscale>
<asrwt>0</asrwt>
<pdfrwt beam="1">  1       21 0.93550104E-02 0.21357835E+02</pdfrwt>
<pdfrwt beam="2">  1       21 0.11878641E-02 0.21357835E+02</pdfrwt>
<totfact> 0.16808762E+08</totfact>
</mgrwt>
</event>
<event>
 4    1  0.7521660E+004  0.2510102E+02  0.7546771E-02  0.1659555E+00
         21   -1    0    0  501  502  0.00000000000E+00  0.00000000000E+00  0.12375574141E+02  0.12375574141E+02  0.00000000000E+00 0. -1.
         21   -1    0    0  502  503 -0.00000000000E+00 -0.00000000000E+00 -0.59411896466E+02  0.59411896466E+02  0.00000000000E+00 0. -1.
          1    1    1    2  501    0  0.13567845273E+02  0.21118111895E+02 -0.37094958761E+02  0.44789474665E+02  0.00000000000E+00 0. -1.
         -1    1    1    2    0  503 -0.13567845273E+02 -0.21118111895E+02 -0.99413635648E+01  0.26997995942E+02  0.00000000000E+00 0.  1.
<mgrwt>
<rscale>  2 0.25101017E+02</rscale>
<asrwt>0</asrwt>
<pdfrwt beam="1">  1       21 0.19039345E-02 0.25101017E+02</pdfrwt>
<pdfrwt beam="2">  1       21 0.91402917E-02 0.25101017E+02</pdfrwt>
<totfact> 0.89310871E+07</totfact>
</mgrwt>
</event>
<event>
 4    1  0.7521660E+004  0.2216820E+02  0.7546771E-02  0.1705359E+00
         21   -1    0    0  501  502  0.00000000000E+00  0.00000000000E+00  0.16397415892E+03  0.16397415892E+03  0.00000000000E+00 0.  1.
         21   -1    0    0  502  503 -0.00000000000E+00 -0.00000000000E+00 -0.31168714660E+01  0.31168714660E+01  0.00000000000E+00 0.  1.
          3    1    1    2  501    0  0.91584487841E+01  0.20187916342E+02  0.96813291609E+02  0.99318893381E+02  0.00000000000E+00 0.  1.
         -3    1    1    2    0  503 -0.91584487841E+01 -0.20187916342E+02  0.64043995844E+02  0.67772137004E+02  0.00000000000E+00 0. -1.
<mgrwt>
<rscale>  2 0.22168201E+02</rscale>
<asrwt>0</asrwt>
<pdfrwt beam="1">  1       21 0.25226787E-01 0.22168201E+02</pdfrwt>
<pdfrwt beam="2">  1       21 0.47951881E-03 0.22168201E+02</pdfrwt>
<totfact> 0.12075287E+08</totfact>
</mgrwt>
</event>
<event>
 4    1  0.7521660E+004  0.2651419E+02  0.7546771E-02  0.1640159E+00
         21   -1    0    0  503  502  0.00000000000E+00  0.00000000000E+00  0.34925326045E+02  0.34925326045E+02  0.00000000000E+00 0. -1.
         21   -1    0    0  501  503 -0.00000000000E+00 -0.00000000000E+00 -0.20132882740E+02  0.20132882740E+02  0.00000000000E+00 0. -1.
          1    1    1    2  501    0 -0.20667485259E+02  0.16608960618E+02  0.77915101697E+01  0.27635306231E+02  0.00000000000E+00 0.  1.
         -1    1    1    2    0  502  0.20667485259E+02 -0.16608960618E+02  0.70009331345E+01  0.27422902554E+02  0.00000000000E+00 0. -1.
<mgrwt>
<rscale>  2 0.26514195E+02</rscale>
<asrwt>0</asrwt>
<pdfrwt beam="1">  1       21 0.53731271E-02 0.26514195E+02</pdfrwt>
<pdfrwt beam="2">  1       21 0.30973666E-02 0.26514195E+02</pdfrwt>
<totfact> 0.10109108E+08</totfact>
</mgrwt>
</event>
<event>
 4    1  0.7521660E+004  0.3214293E+02  0.7546771E-02  0.1575542E+00
         21   -1    0    0  503  502  0.00000000000E+00  0.00000000000E+00  0.79480254151E+02  0.79480254151E+02  0.00000000000E+00 0.  1.
         21   -1    0    0  501  503 -0.00000000000E+00 -0.00000000000E+00 -0.13224632108E+02  0.13224632108E+02  0.00000000000E+00 0.  1.
          2    1    1    2  501    0 -0.30679089260E+02  0.95896524108E+01  0.27073966033E+02  0.42025796696E+02  0.00000000000E+00 0. -1.
         -2    1    1    2    0  502  0.30679089260E+02 -0.95896524108E+01  0.39181656010E+02  0.50679089563E+02  0.00000000000E+00 0.  1.
<mgrwt>
<rscale>  2 0.32142930E+02</rscale>
<asrwt>0</asrwt>
<pdfrwt beam="1">  1       21 0.12227731E-01 0.32142930E+02</pdfrwt>
<pdfrwt beam="2">  1       21 0.20345588E-02 0.32142930E+02</pdfrwt>
<totfact> 0.52519271E+07</totfact>
</mgrwt>
</event>
<event>
 4    1  0.7521660E+004  0.2100220E+02  0.7546771E-02  0.1726102E+00
         21   -1    0    0  503  502  0.00000000000E+00  0.00000000000E+00  0.51152137426E+03  0.51152137426E+03  0.00000000000E+00 0. -1.
         21   -1    0    0  501  503 -0.00000000000E+00 -0.00000000000E+00 -0.86372405226E+00  0.86372405226E+00  0.00000000000E+00 0. -1.
          3    1    1    2  501    0 -0.16015328360E+02 -0.13586820567E+02  0.26567734317E+03  0.26650617837E+03  0.00000000000E+00 0. -1.
         -3    1    1    2    0  502  0.16015328360E+02  0.13586820567E+02  0.24498030705E+03  0.24587891995E+03  0.00000000000E+00 0.  1.
<mgrwt>
<rscale>  2 0.21002201E+02</rscale>
<asrwt>0</asrwt>
<pdfrwt beam="1">  1       21 0.78695354E-01 0.21002201E+02</pdfrwt>
<pdfrwt beam="2">  1       21 0.13288103E-03 0.21002201E+02</pdfrwt>
<totfact> 0.86414647E+07</totfact>
</mgrwt>
</event>
<event>
 4    1  0.7521660E+004  0.2510005E+02  0.7546771E-02  0.1659569E+00
         21   -1    0    0  501  502  0.00000000000E+00  0.00000000000E+00  0.25624512777E+03  0.25624512777E+03  0.00000000000E+00 0. -1.
         21   -1    0    0  502  503 -0.00000000000E+00 -0.00000000000E+00 -0.31860618058E+01  0.31860618058E+01  0.00000000000E+00 0. -1.
          4    1    1    2  501    0 -0.98820032843E+01  0.23072896863E+02  0.18851081246E+03  0.19017449612E+03  0.00000000000E+00 0.  1.
         -4    1    1    2    0  503  0.98820032843E+01 -0.23072896863E+02  0.64548253507E+02  0.69256693463E+02  0.00000000000E+00 0. -1.
<mgrwt>
<rscale>  2 0.25100051E+02</rscale>
<asrwt>0</asrwt>
<pdfrwt beam="1">  1       21 0.39422311E-01 0.25100051E+02</pdfrwt>
<pdfrwt beam="2">  1       21 0.49016356E-03 0.25100051E+02</pdfrwt>
<totfact> 0.53261751E+07</totfact>
</mgrwt>
</event>
<event>
 4    1  0.7521660E+004  0.2448246E+02  0.7546771E-02  0.1668549E+00
         21   -1    0    0  503  502  0.00000000000E+00  0.00000000000E+00  0.46728714807E+03  0.46728714807E+03  0.00000000000E+00 0. -1.
         21   -1    0    0  501  503 -0.00000000000E+00 -0.00000000000E+00 -0.13964140838E+01  0.13964140838E+01  0.00000000000E+00 0. -1.
          1    1    1    2  501    0  0.22114634528E+02  0.10503994202E+02  0.29981711503E+03  0.30081504852E+03  0.00000000000E+00 0.  1.
         -1    1    1    2    0  502 -0.22114634528E+02 -0.10503994202E+02  0.16607361895E+03  0.16786851363E+03  0.00000000000E+00 0. -1.
<mgrwt>
<rscale>  2 0.24482462E+02</rscale>
<asrwt>0</asrwt>
<pdfrwt beam="1">  1       21 0.71890206E-01 0.24482462E+02</pdfrwt>
<pdfrwt beam="2">  1       21 0.21483331E-03 0.24482462E+02</pdfrwt>
<totfact> 0.54191808E+07</totfact>
</mgrwt>
</event>
<event>
 4    1  0.7521660E+004  0.2525185E+02  0.7546771E-02  0.1657411E+00
         21   -1    0    0  503  502  0.00000000000E+00  0.00000000000E+00  0.74031510057E+03  0.74031510057E+03  0.00000000000E+00 0. -1.
         21   -1    0    0  501  503 -0.00000000000E+00 -0.00000000000E+00 -0.11466553710E+01  0.11466553710E+01  0.00000000000E+00 0. -1.
          2    1    1    2  501    0  0.25234149388E+02  0.94541972485E+00  0.18465226039E+03  0.18637090272E+03  0.00000000000E+00 0.  1.
         -2    1    1    2    0  502 -0.25234149388E+02 -0.94541972485E+00  0.55451618481E+03  0.55509085322E+03  0.00000000000E+00 0. -1.
<mgrwt>
<rscale>  2 0.25251854E+02</rscale>
<asrwt>0</asrwt>
<pdfrwt beam="1">  1       21 0.11389425E+00 0.25251854E+02</pdfrwt>
<pdfrwt beam="2">  1       21 0.17640911E-03 0.25251854E+02</pdfrwt>
<totfact> 0.26901910E+07</totfact>
</mgrwt>
</event>
<event>
 4    1  0.7521660E+004  0.2072463E+02  0.7546771E-02  0.1731290E+00
         21   -1    0    0  501  502  0.00000000000E+00  0.00000000000E+00  0.71801906112E+00  0.71801906112E+00  0.00000000000E+00 0.  1.
         21   -1    0    0  502  503 -0.00000000000E+00 -0.00000000000E+00 -0.66086624317E+03  0.66086624317E+03  0.00000000000E+00 0.  1.
          3    1    1    2  501    0 -0.45231774292E+01 -0.20225011111E+02 -0.22820145111E+03  0.22914059548E+03  0.00000000000E+00 0.  1.
         -3    1    1    2    0  503  0.45231774292E+01  0.20225011111E+02 -0.43194677300E+03  0.43244366675E+03  0.00000000000E+00 0. -1.
<mgrwt>
<rscale>  2 0.20724628E+02</rscale>
<asrwt>0</asrwt>
<pdfrwt beam="1">  1       21 0.11046457E-03 0.20724628E+02</pdfrwt>
<pdfrwt beam="2">  1       21 0.10167164E+00 0.20724628E+02</pdfrwt>
<totfact> 0.64918013E+07</totfact>
</mgrwt>
</event>
<event>
 4    1  0.7521660E+004  0.2316522E+02  0.7546771E-02  0.1688846E+00
         21   -1    0    0  503  502  0.00000000000E+00  0.00000000000E+00  0.20498734897E+02  0.20498734897E+02  0.00000000000E+00 0. -1.
         21   -1    0    0  501  503 -0.00000000000E+00 -0.00000000000E+00 -0.43826669973E+02  0.43826669973E+02  0.00000000000E+00 0. -1.
          1    1    1    2  501    0 -0.22496372427E+02 -0.55263643584E+01  0.87455307214E+01  0.24761094139E+02  0.00000000000E+00 0. -1.
         -1    1    1    2    0  502  0.22496372427E+02  0.55263643584E+01 -0.32073465797E+02  0.39564310731E+02  0.00000000000E+00 0.  1.
<mgrwt>
<rscale>  2 0.23165221E+02</rscale>
<asrwt>0</asrwt>
<pdfrwt beam="1">  1       21 0.31536516E-02 0.23165221E+02</pdfrwt>
<pdfrwt beam="2">  1       21 0.67425645E-02 0.23165221E+02</pdfrwt>
<totfact> 0.65769869E+07</totfact>
</mgrwt>
</event>
<event>
 4    1  0.7521660E+004  0.2497689E+02  0.7546771E-02  0.1661334E+00
         21   -1    0    0  503  502  0.00000000000E+00  0.00000000000E+00  0.68386129043E+02  0.68386129043E+02  0.00000000000E+00 0. -1.
         21   -1    0    0  501  503 -0.00000000000E+00 -0.00000000000E+00 -0.10738838014E+02  0.10738838014E+02  0.00000000000E+00 0. -1.
          1    1    1    2  501    0 -0.10341016921E+02  0.22735622518E+02  0.44172831014E+02  0.50745287092E+02  0.00000000000E+00 0.  1.
         -1    1    1    2    0  502  0.10341016921E+02 -0.22735622518E+02  0.13474460015E+02  0.28379679965E+02  0.00000000000E+00 0. -1.
<mgrwt>
<rscale>  2 0.24976893E+02</rscale>
<asrwt>0</asrwt>
<pdfrwt beam="1">  1       21 0.10520943E-01 0.24976893E+02</pdfrwt>
<pdfrwt beam="2">  1       21 0.16521290E-02 0.24976893E+02</pdfrwt>
<totfact> 0.87799727E+07</totfact>
</mgrwt>
</event>
<event>
 4    1  0.7521660E+004  0.2891064E+02  0.7546771E-02  0.1610452E+00
         21   -1    0    0  503  502  0.00000000000E+00  0.00000000000E+00  0.41206093417E+01  0.41206093417E+01  0.00000000000E+00 0.  1.
         21   -1    0    0  501  503 -0.00000000000E+00 -0.00000000000E+00 -0.28655197106E+03  0.28655197106E+03  0.00000000000E+00 0.  1.
          4    1    1    2  501    0  0.19501405660E+02  0.21342925505E+02 -0.62662171448E+02  0.69009948720E+02  0.00000000000E+00 0.  1.
         -4    1    1    2    0  502 -0.19501405660E+02 -0.21342925505E+02 -0.21976919027E+03  0.22166263168E+03  0.00000000000E+00 0. -1.
<mgrwt>
<rscale>  2 0.28910643E+02</rscale>
<asrwt>0</asrwt>
<pdfrwt beam="1">  1       21 0.63393979E-03 0.28910643E+02</pdfrwt>
<pdfrwt beam="2">  1       21 0.44084926E-01 0.28910643E+02</pdfrwt>
<totfact> 0.30245167E+07</totfact>
</mgrwt>
</event>
<event>
 4    1  0.7521660E+004  0.2409748E+02  0.7546771E-02  0.1674314E+00
         21   -1    0    0  501  502  0.00000000000E+00  0.00000000000E+00  0.77230256541E+01  0.77230256541E+01  0.00000000000E+00 0.  1.
         21   -1    0    0  502  503 -0.00000000000E+00 -0.00000000000E+00 -0.75208155857E+02  0.75208155857E+02  0.00000000000E+00 0.  1.
          1    1    1    2  501    0 -0.10571187896E+01 -0.24074284875E+02 -0.34399582983E+02  0.42000238116E+02  0.00000000000E+00 0. -1.
         -1    1    1    2    0  503  0.10571187896E+01  0.24074284875E+02 -0.33085547220E+02  0.40930943395E+02  0.00000000000E+00 0.  1.
<mgrwt>
<rscale>  2 0.24097483E+02</rscale>
<asrwt>0</asrwt>
<pdfrwt beam="1">  1       21 0.11881578E-02 0.24097483E+02</pdfrwt>
<pdfrwt beam="2">  1       21 0.11570486E-01 0.24097483E+02</pdfrwt>
<totfact> 0.12246610E+08</totfact>
</mgrwt>
</event>
<event>
 4    1  0.7521660E+004  0.2323129E+02  0.7546771E-02  0.1687788E+00
         21   -1    0    0  501  502  0.00000000000E+00  0.00000000000E+00  0.79549414675E+03  0.79549414675E+03  0.00000000000E+00 0. -1.
         21   -1    0    0  502  503 -0.00000000000E+00 -0.00000000000E+00 -0.80933721198E+00  0.80933721198E+00  0.00000000000E+00 0. -1.
          3    1    1    2  501    0 -0.69619309188E+01  0.22163578095E+02  0.55746551312E+03  0.55794936239E+03  0.00000000000E+00 0. -1.
         -3    1    1    2    0  503  0.69619309188E+01 -0.22163578095E+02  0.23721929642E+03  0.23835412157E+03  0.00000000000E+00 0.  1.
<mgrwt>
<rscale>  2 0.23231287E+02</rscale>
<asrwt>0</asrwt>
<pdfrwt beam="1">  1       21 0.12238309E+00 0.23231287E+02</pdfrwt>
<pdfrwt beam="2">  1       21 0.12451405E-03 0.23231287E+02</pdfrwt>
<totfact> 0.37127693E+07</totfact>
</mgrwt>
</event>
