<event>
 4    1  0.7165636E+004  0.2027804E+02  0.7546771E-02  0.1739855E+00
         21   -1    0    0  503  502  0.00000000000E+00  0.00000000000E+00  0.36194379969E+02  0.36194379969E+02  0.00000000000E+00 0.  1.
         21   -1    0    0  501  503 -0.00000000000E+00 -0.00000000000E+00 -0.11428379289E+02  0.11428379289E+02  0.00000000000E+00 0.  1.
          1    1    1    2  501    0 -0.20276039840E+02  0.28468005755E+00  0.14213400663E+02  0.24763271043E+02  0.00000000000E+00 0.  1.
         -1    1    1    2    0  502  0.20276039840E+02 -0.28468005755E+00  0.10552600017E+02  0.22859488215E+02  0.00000000000E+00 0. -1.
<mgrwt>
<rscale>  2 0.20278038E+02</rscale>
<asrwt>0</asrwt>
<pdfrwt beam="1">  1       21 0.55683661E-02 0.20278038E+02</pdfrwt>
<pdfrwt beam="2">  1       21 0.17582122E-02 0.20278038E+02</pdfrwt>
<totfact> 0.21128321E+08</totfact>
</mgrwt>
</event>
<event>
 4    1  0.7165636E+004  0.2393833E+02  0.7546771E-02  0.1676736E+00
         21   -1    0    0  503  502  0.00000000000E+00  0.00000000000E+00  0.39727008120E+02  0.39727008120E+02  0.00000000000E+00 0. -1.
         21   -1    0    0  501  503 -0.00000000000E+00 -0.00000000000E+00 -0.21866649672E+02  0.21866649672E+02  0.00000000000E+00 0. -1.
          3    1    1    2  501    0  0.16313456651E+02  0.17518984028E+02 -0.90363016113E+01  0.25587075176E+02  0.00000000000E+00 0. -1.
         -3    1    1    2    0  502 -0.16313456651E+02 -0.17518984028E+02  0.26896660060E+02  0.36006582616E+02  0.00000000000E+00 0.  1.
<mgrwt>
<rscale>  2 0.23938331E+02</rscale>
<asrwt>0</asrwt>
<pdfrwt beam="1">  1       21 0.61118474E-02 0.23938331E+02</pdfrwt>
<pdfrwt beam="2">  1       21 0.33641000E-02 0.23938331E+02</pdfrwt>
<totfact> 0.70284181E+07</totfact>
</mgrwt>
</event>
<event>
 4    1  0.7165636E+004  0.2396956E+02  0.7546771E-02  0.1676259E+00
         21   -1    0    0  503  502  0.00000000000E+00  0.00000000000E+00  0.84712886055E+03  0.84712886055E+03  0.00000000000E+00 0. -1.
         21   -1    0    0  501  503 -0.00000000000E+00 -0.00000000000E+00 -0.90863904596E+00  0.90863904596E+00  0.00000000000E+00 0. -1.
          1    1    1    2  501    0  0.21605565388E+02  0.10379765160E+02  0.63663488844E+03  0.63708596057E+03  0.00000000000E+00 0.  1.
         -1    1    1    2    0  502 -0.21605565388E+02 -0.10379765160E+02  0.20958533307E+03  0.21095153903E+03  0.00000000000E+00 0. -1.
<mgrwt>
<rscale>  2 0.23969564E+02</rscale>
<asrwt>0</asrwt>
<pdfrwt beam="1">  1       21 0.13032689E+00 0.23969564E+02</pdfrwt>
<pdfrwt beam="2">  1       21 0.13979130E-03 0.23969564E+02</pdfrwt>
<totfact> 0.27395866E+07</totfact>
</mgrwt>
</event>
<event>
 4    1  0.7165636E+004  0.2682407E+02  0.7546771E-02  0.1636105E+00
         21   -1    0    0  503  502  0.00000000000E+00  0.00000000000E+00  0.18028365433E+03  0.18028365433E+03  0.00000000000E+00 0. -1.
         21   -1    0    0  501  503 -0.00000000000E+00 -0.00000000000E+00 -0.46190956744E+01  0.46190956744E+01  0.00000000000E+00 0. -1.
          5    1    1    2  501    0  0.24407177186E+02 -0.11127452147E+02  0.12192113802E+03  0.12483707136E+03  0.00000000000E+00 0.  1.
         -5    1    1    2    0  502 -0.24407177186E+02  0.11127452147E+02  0.53743420634E+02  0.60065678643E+02  0.00000000000E+00 0. -1.
<mgrwt>
<rscale>  2 0.26824065E+02</rscale>
<asrwt>0</asrwt>
<pdfrwt beam="1">  1       21 0.27735941E-01 0.26824065E+02</pdfrwt>
<pdfrwt beam="2">  1       21 0.71063024E-03 0.26824065E+02</pdfrwt>
<totfact> 0.59645774E+07</totfact>
</mgrwt>
</event>
<event>
 4    1  0.7165636E+004  0.2202382E+02  0.7546771E-02  0.1707840E+00
         21   -1    0    0  503  502  0.00000000000E+00  0.00000000000E+00  0.70166961829E+02  0.70166961829E+02  0.00000000000E+00 0. -1.
         21   -1    0    0  501  503 -0.00000000000E+00 -0.00000000000E+00 -0.81797848416E+01  0.81797848416E+01  0.00000000000E+00 0. -1.
          1    1    1    2  501    0  0.15461647860E+02 -0.15683950805E+02  0.15576266896E+02  0.26975339809E+02  0.00000000000E+00 0. -1.
         -1    1    1    2    0  502 -0.15461647860E+02  0.15683950805E+02  0.46410910091E+02  0.51371406861E+02  0.00000000000E+00 0.  1.
<mgrwt>
<rscale>  2 0.22023825E+02</rscale>
<asrwt>0</asrwt>
<pdfrwt beam="1">  1       21 0.10794917E-01 0.22023825E+02</pdfrwt>
<pdfrwt beam="2">  1       21 0.12584285E-02 0.22023825E+02</pdfrwt>
<totfact> 0.12278679E+08</totfact>
</mgrwt>
</event>
<event>
 4    1  0.7165636E+004  0.2243436E+02  0.7546771E-02  0.1700846E+00
         21   -1    0    0  501  502  0.00000000000E+00  0.00000000000E+00  0.48761027912E+01  0.48761027912E+01  0.00000000000E+00 0.  1.
         21   -1    0    0  502  503 -0.00000000000E+00 -0.00000000000E+00 -0.12078165770E+03  0.12078165770E+03  0.00000000000E+00 0.  1.
          4    1    1    2  501    0 -0.11796337037E+02  0.19082635856E+02 -0.81911788789E+02  0.84928450482E+02  0.00000000000E+00 0.  1.
         -4    1    1    2    0  503  0.11796337037E+02 -0.19082635856E+02 -0.33993766115E+02  0.40729310004E+02  0.00000000000E+00 0. -1.
<mgrwt>
<rscale>  2 0.22434361E+02</rscale>
<asrwt>0</asrwt>
<pdfrwt beam="1">  1       21 0.75016971E-03 0.22434361E+02</pdfrwt>
<pdfrwt beam="2">  1       21 0.18581792E-01 0.22434361E+02</pdfrwt>
<totfact> 0.10686238E+08</totfact>
</mgrwt>
</event>
<event>
 4    1  0.7165636E+004  0.2013646E+02  0.7546771E-02  0.1742628E+00
         21   -1    0    0  501  502  0.00000000000E+00  0.00000000000E+00  0.21553282251E+04  0.21553282251E+04  0.00000000000E+00 0. -1.
         21   -1    0    0  502  503 -0.00000000000E+00 -0.00000000000E+00 -0.18856449070E+00  0.18856449070E+00  0.00000000000E+00 0. -1.
          5    1    1    2  501    0  0.14957348322E+02 -0.13481652274E+02  0.10257059887E+04  0.10259036273E+04  0.00000000000E+00 0. -1.
         -5    1    1    2    0  503 -0.14957348322E+02  0.13481652274E+02  0.11294336719E+04  0.11296131623E+04  0.00000000000E+00 0.  1.
<mgrwt>
<rscale>  2 0.20136465E+02</rscale>
<asrwt>0</asrwt>
<pdfrwt beam="1">  1       21 0.33156923E+00 0.20136465E+02</pdfrwt>
<pdfrwt beam="2">  1       21 0.29011648E-04 0.20136465E+02</pdfrwt>
<totfact> 0.19483359E+07</totfact>
</mgrwt>
</event>
<event>
 4    1  0.7165636E+004  0.4413143E+02  0.7546771E-02  0.1479838E+00
         21   -1    0    0  503  502  0.00000000000E+00  0.00000000000E+00  0.24348015629E+02  0.24348015629E+02  0.00000000000E+00 0.  1.
         21   -1    0    0  501  503 -0.00000000000E+00 -0.00000000000E+00 -0.84250652652E+02  0.84250652652E+02  0.00000000000E+00 0.  1.
          3    1    1    2  501    0 -0.18348192732E+02 -0.40136355034E+02 -0.42163028651E+02  0.61035269779E+02  0.00000000000E+00 0. -1.
         -3    1    1    2    0  502  0.18348192732E+02  0.40136355034E+02 -0.17739608371E+02  0.47563398503E+02  0.00000000000E+00 0.  1.
<mgrwt>
<rscale>  2 0.44131431E+02</rscale>
<asrwt>0</asrwt>
<pdfrwt beam="1">  1       21 0.37458486E-02 0.44131431E+02</pdfrwt>
<pdfrwt beam="2">  1       21 0.12961639E-01 0.44131431E+02</pdfrwt>
<totfact> 0.19191667E+07</totfact>
</mgrwt>
</event>
<event>
 4    1  0.7165636E+004  0.2993535E+02  0.7546771E-02  0.1598804E+00
         21   -1    0    0  501  502  0.00000000000E+00  0.00000000000E+00  0.15510474631E+02  0.15510474631E+02  0.00000000000E+00 0. -1.
         21   -1    0    0  502  503 -0.00000000000E+00 -0.00000000000E+00 -0.62081338882E+02  0.62081338882E+02  0.00000000000E+00 0. -1.
          1    1    1    2  501    0 -0.45231478479E+01 -0.29591656787E+02 -0.13068145248E+02  0.32663457228E+02  0.00000000000E+00 0. -1.
         -1    1    1    2    0  503  0.45231478479E+01  0.29591656787E+02 -0.33502719003E+02  0.44928356285E+02  0.00000000000E+00 0.  1.
<mgrwt>
<rscale>  2 0.29935347E+02</rscale>
<asrwt>0</asrwt>
<pdfrwt beam="1">  1       21 0.23862268E-02 0.29935347E+02</pdfrwt>
<pdfrwt beam="2">  1       21 0.95509753E-02 0.29935347E+02</pdfrwt>
<totfact> 0.61148252E+07</totfact>
</mgrwt>
</event>
<event>
 4    1  0.7165636E+004  0.2433757E+02  0.7546771E-02  0.1670703E+00
         21   -1    0    0  503  502  0.00000000000E+00  0.00000000000E+00  0.61446480921E+01  0.61446480921E+01  0.00000000000E+00 0. -1.
         21   -1    0    0  501  503 -0.00000000000E+00 -0.00000000000E+00 -0.12220882219E+03  0.12220882219E+03  0.00000000000E+00 0. -1.
          4    1    1    2  501    0  0.89617453305E+01 -0.22627517132E+02 -0.87526987981E+02  0.90847625374E+02  0.00000000000E+00 0.  1.
         -4    1    1    2    0  502 -0.89617453305E+01  0.22627517132E+02 -0.28537186120E+02  0.37505844912E+02  0.00000000000E+00 0. -1.
<mgrwt>
<rscale>  2 0.24337572E+02</rscale>
<asrwt>0</asrwt>
<pdfrwt beam="1">  1       21 0.94533061E-03 0.24337572E+02</pdfrwt>
<pdfrwt beam="2">  1       21 0.18801355E-01 0.24337572E+02</pdfrwt>
<totfact> 0.75756676E+07</totfact>
</mgrwt>
</event>
<event>
 4    1  0.7165636E+004  0.2149286E+02  0.7546771E-02  0.1717173E+00
         21   -1    0    0  503  502  0.00000000000E+00  0.00000000000E+00  0.40672823374E+02  0.40672823374E+02  0.00000000000E+00 0. -1.
         21   -1    0    0  501  503 -0.00000000000E+00 -0.00000000000E+00 -0.11617785300E+02  0.11617785300E+02  0.00000000000E+00 0. -1.
          1    1    1    2  501    0 -0.57272702488E+01 -0.20715724019E+02  0.18440710634E+02  0.28319651389E+02  0.00000000000E+00 0. -1.
         -1    1    1    2    0  502  0.57272702488E+01  0.20715724019E+02  0.10614327440E+02  0.23970957284E+02  0.00000000000E+00 0.  1.
<mgrwt>
<rscale>  2 0.21492856E+02</rscale>
<asrwt>0</asrwt>
<pdfrwt beam="1">  1       21 0.62573574E-02 0.21492856E+02</pdfrwt>
<pdfrwt beam="2">  1       21 0.17873516E-02 0.21492856E+02</pdfrwt>
<totfact> 0.17420788E+08</totfact>
</mgrwt>
</event>
<event>
 4    1  0.7165636E+004  0.2011279E+02  0.7546771E-02  0.1743094E+00
         21   -1    0    0  503  502  0.00000000000E+00  0.00000000000E+00  0.46831475043E+03  0.46831475043E+03  0.00000000000E+00 0.  1.
         21   -1    0    0  501  503 -0.00000000000E+00 -0.00000000000E+00 -0.90071205863E+00  0.90071205863E+00  0.00000000000E+00 0.  1.
          2    1    1    2  501    0  0.16057809184E+02 -0.12110782355E+02  0.18620536033E+03  0.18728844198E+03  0.00000000000E+00 0.  1.
         -2    1    1    2    0  502 -0.16057809184E+02  0.12110782355E+02  0.28120867804E+03  0.28192702050E+03  0.00000000000E+00 0. -1.
<mgrwt>
<rscale>  2 0.20112789E+02</rscale>
<asrwt>0</asrwt>
<pdfrwt beam="1">  1       21 0.72048229E-01 0.20112789E+02</pdfrwt>
<pdfrwt beam="2">  1       21 0.13857146E-03 0.20112789E+02</pdfrwt>
<totfact> 0.96574804E+07</totfact>
</mgrwt>
</event>
<event>
 4    1  0.7165636E+004  0.3836826E+02  0.7546771E-02  0.1520574E+00
         21   -1    0    0  503  502  0.00000000000E+00  0.00000000000E+00  0.83167661313E+01  0.83167661313E+01  0.00000000000E+00 0. -1.
         21   -1    0    0  501  503 -0.00000000000E+00 -0.00000000000E+00 -0.17737707868E+03  0.17737707868E+03  0.00000000000E+00 0. -1.
          5    1    1    2  501    0 -0.29110395018E+02  0.24994166993E+02 -0.88772744537E+02  0.96709480685E+02  0.00000000000E+00 0.  1.
         -5    1    1    2    0  502  0.29110395018E+02 -0.24994166993E+02 -0.80287568015E+02  0.88984364130E+02  0.00000000000E+00 0. -1.
<mgrwt>
<rscale>  2 0.38368261E+02</rscale>
<asrwt>0</asrwt>
<pdfrwt beam="1">  1       21 0.12795025E-02 0.38368261E+02</pdfrwt>
<pdfrwt beam="2">  1       21 0.27288780E-01 0.38368261E+02</pdfrwt>
<totfact> 0.27025449E+07</totfact>
</mgrwt>
</event>
<event>
 4    1  0.7165636E+004  0.2072593E+02  0.7546771E-02  0.1731266E+00
         21   -1    0    0  503  502  0.00000000000E+00  0.00000000000E+00  0.33607415064E+03  0.33607415064E+03  0.00000000000E+00 0. -1.
         21   -1    0    0  501  503 -0.00000000000E+00 -0.00000000000E+00 -0.12917674280E+01  0.12917674280E+01  0.00000000000E+00 0. -1.
          5    1    1    2  501    0 -0.20528083614E+02  0.28569157777E+01  0.15009288469E+03  0.15151712187E+03  0.00000000000E+00 0. -1.
         -5    1    1    2    0  502  0.20528083614E+02 -0.28569157777E+01  0.18468949852E+03  0.18584879620E+03  0.00000000000E+00 0.  1.
<mgrwt>
<rscale>  2 0.20725930E+02</rscale>
<asrwt>0</asrwt>
<pdfrwt beam="1">  1       21 0.51703646E-01 0.20725930E+02</pdfrwt>
<pdfrwt beam="2">  1       21 0.19873372E-03 0.20725930E+02</pdfrwt>
<totfact> 0.11259799E+08</totfact>
</mgrwt>
</event>
<event>
 4    1  0.7165636E+004  0.2988509E+02  0.7546771E-02  0.1599362E+00
         21   -1    0    0  501  502  0.00000000000E+00  0.00000000000E+00  0.88053713423E+03  0.88053713423E+03  0.00000000000E+00 0. -1.
         21   -1    0    0  502  503 -0.00000000000E+00 -0.00000000000E+00 -0.10640116864E+01  0.10640116864E+01  0.00000000000E+00 0. -1.
          1    1    1    2  501    0 -0.14155697268E+02  0.26319860418E+02  0.53502666290E+03  0.53586066177E+03  0.00000000000E+00 0. -1.
         -1    1    1    2    0  503  0.14155697268E+02 -0.26319860418E+02  0.34444645964E+03  0.34574048415E+03  0.00000000000E+00 0.  1.
<mgrwt>
<rscale>  2 0.29885094E+02</rscale>
<asrwt>0</asrwt>
<pdfrwt beam="1">  1       21 0.13546667E+00 0.29885094E+02</pdfrwt>
<pdfrwt beam="2">  1       21 0.16369481E-03 0.29885094E+02</pdfrwt>
<totfact> 0.20676890E+07</totfact>
</mgrwt>
</event>
<event>
 4    1  0.7165636E+004  0.2011458E+02  0.7546771E-02  0.1743059E+00
         21   -1    0    0  501  502  0.00000000000E+00  0.00000000000E+00  0.28899316772E+03  0.28899316772E+03  0.00000000000E+00 0. -1.
         21   -1    0    0  502  503 -0.00000000000E+00 -0.00000000000E+00 -0.14056237424E+01  0.14056237424E+01  0.00000000000E+00 0. -1.
          2    1    1    2  501    0 -0.32654623712E+01 -0.19847752597E+02  0.15296077506E+03  0.15427765630E+03  0.00000000000E+00 0. -1.
         -2    1    1    2    0  503  0.32654623712E+01  0.19847752597E+02  0.13462676892E+03  0.13612113516E+03  0.00000000000E+00 0.  1.
<mgrwt>
<rscale>  2 0.20114585E+02</rscale>
<asrwt>0</asrwt>
<pdfrwt beam="1">  1       21 0.44460440E-01 0.20114585E+02</pdfrwt>
<pdfrwt beam="2">  1       21 0.21625004E-03 0.20114585E+02</pdfrwt>
<totfact> 0.13214977E+08</totfact>
</mgrwt>
</event>
<event>
 4    1  0.7165636E+004  0.2086406E+02  0.7546771E-02  0.1728672E+00
         21   -1    0    0  501  502  0.00000000000E+00  0.00000000000E+00  0.41510913717E+00  0.41510913717E+00  0.00000000000E+00 0. -1.
         21   -1    0    0  502  503 -0.00000000000E+00 -0.00000000000E+00 -0.10498915418E+04  0.10498915418E+04  0.00000000000E+00 0. -1.
          3    1    1    2  501    0  0.20240944755E+02  0.50609448503E+01 -0.50676366139E+03  0.50719297857E+03  0.00000000000E+00 0.  1.
         -3    1    1    2    0  503 -0.20240944755E+02 -0.50609448503E+01 -0.54271277124E+03  0.54311367233E+03  0.00000000000E+00 0. -1.
<mgrwt>
<rscale>  2 0.20864060E+02</rscale>
<asrwt>0</asrwt>
<pdfrwt beam="1">  1       21 0.63863345E-04 0.20864060E+02</pdfrwt>
<pdfrwt beam="2">  1       21 0.16152076E+00 0.20864060E+02</pdfrwt>
<totfact> 0.49031682E+07</totfact>
</mgrwt>
</event>
<event>
 4    1  0.7165636E+004  0.2131192E+02  0.7546771E-02  0.1720431E+00
         21   -1    0    0  501  502  0.00000000000E+00  0.00000000000E+00  0.29289899018E+01  0.29289899018E+01  0.00000000000E+00 0.  1.
         21   -1    0    0  502  503 -0.00000000000E+00 -0.00000000000E+00 -0.15530712764E+03  0.15530712764E+03  0.00000000000E+00 0.  1.
          1    1    1    2  501    0  0.14014853541E+02 -0.16055579863E+02 -0.79282137993E+02  0.82096620936E+02  0.00000000000E+00 0. -1.
         -1    1    1    2    0  503 -0.14014853541E+02  0.16055579863E+02 -0.73095999746E+02  0.76139496606E+02  0.00000000000E+00 0.  1.
<mgrwt>
<rscale>  2 0.21311916E+02</rscale>
<asrwt>0</asrwt>
<pdfrwt beam="1">  1       21 0.45061376E-03 0.21311916E+02</pdfrwt>
<pdfrwt beam="2">  1       21 0.23893408E-01 0.21311916E+02</pdfrwt>
<totfact> 0.14405573E+08</totfact>
</mgrwt>
</event>
<event>
 4    1  0.7165636E+004  0.2732130E+02  0.7546771E-02  0.1629737E+00
         21   -1    0    0  503  502  0.00000000000E+00  0.00000000000E+00  0.13937075670E+02  0.13937075670E+02  0.00000000000E+00 0. -1.
         21   -1    0    0  501  503 -0.00000000000E+00 -0.00000000000E+00 -0.93003738246E+02  0.93003738246E+02  0.00000000000E+00 0. -1.
          1    1    1    2  501    0  0.26129381953E+02 -0.79817683892E+01 -0.74355743825E+02  0.79216348487E+02  0.00000000000E+00 0. -1.
         -1    1    1    2    0  502 -0.26129381953E+02  0.79817683892E+01 -0.47109187510E+01  0.27724465429E+02  0.00000000000E+00 0.  1.
<mgrwt>
<rscale>  2 0.27321296E+02</rscale>
<asrwt>0</asrwt>
<pdfrwt beam="1">  1       21 0.21441654E-02 0.27321296E+02</pdfrwt>
<pdfrwt beam="2">  1       21 0.14308268E-01 0.27321296E+02</pdfrwt>
<totfact> 0.35765893E+07</totfact>
</mgrwt>
</event>
<event>
 4    1  0.7165636E+004  0.2540239E+02  0.7546771E-02  0.1655289E+00
         21   -1    0    0  501  502  0.00000000000E+00  0.00000000000E+00  0.12632006379E+02  0.12632006379E+02  0.00000000000E+00 0. -1.
         21   -1    0    0  502  503 -0.00000000000E+00 -0.00000000000E+00 -0.51908607007E+02  0.51908607007E+02  0.00000000000E+00 0. -1.
          4    1    1    2  501    0  0.18411646486E+02  0.17501218727E+02 -0.23707955078E+02  0.34746920975E+02  0.00000000000E+00 0. -1.
         -4    1    1    2    0  503 -0.18411646486E+02 -0.17501218727E+02 -0.15568645550E+02  0.29793692412E+02  0.00000000000E+00 0.  1.
<mgrwt>
<rscale>  2 0.25402389E+02</rscale>
<asrwt>0</asrwt>
<pdfrwt beam="1">  1       21 0.19433856E-02 0.25402389E+02</pdfrwt>
<pdfrwt beam="2">  1       21 0.79859394E-02 0.25402389E+02</pdfrwt>
<totfact> 0.10838781E+08</totfact>
</mgrwt>
</event>
<event>
 4    1  0.7165636E+004  0.2058077E+02  0.7546771E-02  0.1734019E+00
         21   -1    0    0  501  502  0.00000000000E+00  0.00000000000E+00  0.45855051650E+02  0.45855051650E+02  0.00000000000E+00 0. -1.
         21   -1    0    0  502  503 -0.00000000000E+00 -0.00000000000E+00 -0.96956659256E+01  0.96956659256E+01  0.00000000000E+00 0. -1.
          5    1    1    2  501    0  0.10907293606E+02 -0.17452771356E+02  0.12039292661E+02  0.23843507494E+02  0.00000000000E+00 0. -1.
         -5    1    1    2    0  503 -0.10907293606E+02  0.17452771356E+02  0.24120093063E+02  0.31707210082E+02  0.00000000000E+00 0.  1.
<mgrwt>
<rscale>  2 0.20580775E+02</rscale>
<asrwt>0</asrwt>
<pdfrwt beam="1">  1       21 0.70546232E-02 0.20580775E+02</pdfrwt>
<pdfrwt beam="2">  1       21 0.14916409E-02 0.20580775E+02</pdfrwt>
<totfact> 0.18648280E+08</totfact>
</mgrwt>
</event>
<event>
 4    1  0.7165636E+004  0.2217975E+02  0.7546771E-02  0.1705162E+00
         21   -1    0    0  501  502  0.00000000000E+00  0.00000000000E+00  0.19972884576E+01  0.19972884576E+01  0.00000000000E+00 0. -1.
         21   -1    0    0  502  503 -0.00000000000E+00 -0.00000000000E+00 -0.27829139256E+03  0.27829139256E+03  0.00000000000E+00 0. -1.
          4    1    1    2  501    0  0.20625287292E+02 -0.81571259762E+01 -0.90634150885E+02  0.93308576705E+02  0.00000000000E+00 0.  1.
         -4    1    1    2    0  503 -0.20625287292E+02  0.81571259762E+01 -0.18565995322E+03  0.18698010431E+03  0.00000000000E+00 0. -1.
<mgrwt>
<rscale>  2 0.22179747E+02</rscale>
<asrwt>0</asrwt>
<pdfrwt beam="1">  1       21 0.30727507E-03 0.22179747E+02</pdfrwt>
<pdfrwt beam="2">  1       21 0.42814072E-01 0.22179747E+02</pdfrwt>
<totfact> 0.87677255E+07</totfact>
</mgrwt>
</event>
<event>
 4    1  0.7165636E+004  0.2072785E+02  0.7546771E-02  0.1731230E+00
         21   -1    0    0  503  502  0.00000000000E+00  0.00000000000E+00  0.88221419295E+03  0.88221419295E+03  0.00000000000E+00 0.  1.
         21   -1    0    0  501  503 -0.00000000000E+00 -0.00000000000E+00 -0.50557082374E+00  0.50557082374E+00  0.00000000000E+00 0.  1.
          3    1    1    2  501    0 -0.58877881659E+01  0.19874049001E+02  0.35627897812E+03  0.35688142866E+03  0.00000000000E+00 0. -1.
         -3    1    1    2    0  502  0.58877881659E+01 -0.19874049001E+02  0.52542964401E+03  0.52583833511E+03  0.00000000000E+00 0.  1.
<mgrwt>
<rscale>  2 0.20727853E+02</rscale>
<asrwt>0</asrwt>
<pdfrwt beam="1">  1       21 0.13572403E+00 0.20727853E+02</pdfrwt>
<pdfrwt beam="2">  1       21 0.77780833E-04 0.20727853E+02</pdfrwt>
<totfact> 0.55812624E+07</totfact>
</mgrwt>
</event>
<event>
 4    1  0.7165636E+004  0.2388331E+02  0.7546771E-02  0.1677579E+00
         21   -1    0    0  501  502  0.00000000000E+00  0.00000000000E+00  0.19941359785E+02  0.19941359785E+02  0.00000000000E+00 0.  1.
         21   -1    0    0  502  503 -0.00000000000E+00 -0.00000000000E+00 -0.28818213769E+02  0.28818213769E+02  0.00000000000E+00 0.  1.
          3    1    1    2  501    0  0.36425592445E+00  0.23880533224E+02 -0.65379301128E+01  0.24762008796E+02  0.00000000000E+00 0.  1.
         -3    1    1    2    0  503 -0.36425592445E+00 -0.23880533224E+02 -0.23389238713E+01  0.23997564758E+02  0.00000000000E+00 0. -1.
<mgrwt>
<rscale>  2 0.23883311E+02</rscale>
<asrwt>0</asrwt>
<pdfrwt beam="1">  1       21 0.30679015E-02 0.23883311E+02</pdfrwt>
<pdfrwt beam="2">  1       21 0.44335713E-02 0.23883311E+02</pdfrwt>
<totfact> 0.13548974E+08</totfact>
</mgrwt>
</event>
<event>
 4    1  0.7165636E+004  0.7701151E+02  0.7546771E-02  0.1337753E+00
         21   -1    0    0  501  502  0.00000000000E+00  0.00000000000E+00  0.85140598786E+01  0.85140598786E+01  0.00000000000E+00 0. -1.
         21   -1    0    0  502  503 -0.00000000000E+00 -0.00000000000E+00 -0.73760340318E+03  0.73760340318E+03  0.00000000000E+00 0. -1.
          3    1    1    2  501    0  0.40787800662E+02  0.65323259250E+02 -0.45251801515E+03  0.45902432062E+03  0.00000000000E+00 0.  1.
         -3    1    1    2    0  503 -0.40787800662E+02 -0.65323259250E+02 -0.27657132815E+03  0.28709314244E+03  0.00000000000E+00 0. -1.
<mgrwt>
<rscale>  2 0.77011511E+02</rscale>
<asrwt>0</asrwt>
<pdfrwt beam="1">  1       21 0.13098557E-02 0.77011511E+02</pdfrwt>
<pdfrwt beam="2">  1       21 0.11347742E+00 0.77011511E+02</pdfrwt>
<totfact> 0.14737886E+06</totfact>
</mgrwt>
</event>
<event>
 4    1  0.7165636E+004  0.2715405E+02  0.7546771E-02  0.1631860E+00
         21   -1    0    0  501  502  0.00000000000E+00  0.00000000000E+00  0.40707942123E+02  0.40707942123E+02  0.00000000000E+00 0. -1.
         21   -1    0    0  502  503 -0.00000000000E+00 -0.00000000000E+00 -0.46228838622E+02  0.46228838622E+02  0.00000000000E+00 0. -1.
          3    1    1    2  501    0 -0.11398676997E+01  0.27130112456E+02 -0.36659902959E+02  0.45621165978E+02  0.00000000000E+00 0.  1.
         -3    1    1    2    0  503  0.11398676997E+01 -0.27130112456E+02  0.31139006459E+02  0.41315614767E+02  0.00000000000E+00 0. -1.
<mgrwt>
<rscale>  2 0.27154048E+02</rscale>
<asrwt>0</asrwt>
<pdfrwt beam="1">  1       21 0.62627604E-02 0.27154048E+02</pdfrwt>
<pdfrwt beam="2">  1       21 0.71121290E-02 0.27154048E+02</pdfrwt>
<totfact> 0.21039036E+07</totfact>
</mgrwt>
</event>
<event>
 4    1  0.7165636E+004  0.2110114E+02  0.7546771E-02  0.1724277E+00
         21   -1    0    0  501  502  0.00000000000E+00  0.00000000000E+00  0.20879540320E+01  0.20879540320E+01  0.00000000000E+00 0. -1.
         21   -1    0    0  502  503 -0.00000000000E+00 -0.00000000000E+00 -0.22963862551E+03  0.22963862551E+03  0.00000000000E+00 0. -1.
          3    1    1    2  501    0 -0.13623604478E+02 -0.16113831921E+02 -0.14472686287E+03  0.14625704432E+03  0.00000000000E+00 0. -1.
         -3    1    1    2    0  503  0.13623604478E+02  0.16113831921E+02 -0.82823808614E+02  0.85469535224E+02  0.00000000000E+00 0.  1.
<mgrwt>
<rscale>  2 0.21101142E+02</rscale>
<asrwt>0</asrwt>
<pdfrwt beam="1">  1       21 0.32122374E-03 0.21101142E+02</pdfrwt>
<pdfrwt beam="2">  1       21 0.35329015E-01 0.21101142E+02</pdfrwt>
<totfact> 0.11620717E+08</totfact>
</mgrwt>
</event>
<event>
 4    1  0.7165636E+004  0.3474078E+02  0.7546771E-02  0.1550915E+00
         21   -1    0    0  503  502  0.00000000000E+00  0.00000000000E+00  0.19000423275E+02  0.19000423275E+02  0.00000000000E+00 0. -1.
         21   -1    0    0  501  503 -0.00000000000E+00 -0.00000000000E+00 -0.71041919932E+02  0.71041919932E+02  0.00000000000E+00 0. -1.
          5    1    1    2  501    0  0.24300917957E+02 -0.24827141629E+02 -0.40669529190E+02  0.53487682504E+02  0.00000000000E+00 0. -1.
         -5    1    1    2    0  502 -0.24300917957E+02  0.24827141629E+02 -0.11371967467E+02  0.36554660703E+02  0.00000000000E+00 0.  1.
<mgrwt>
<rscale>  2 0.34740777E+02</rscale>
<asrwt>0</asrwt>
<pdfrwt beam="1">  1       21 0.29231421E-02 0.34740777E+02</pdfrwt>
<pdfrwt beam="2">  1       21 0.10929526E-01 0.34740777E+02</pdfrwt>
<totfact> 0.36597051E+07</totfact>
</mgrwt>
</event>
<event>
 4    1  0.7165636E+004  0.3212790E+02  0.7546771E-02  0.1575692E+00
         21   -1    0    0  501  502  0.00000000000E+00  0.00000000000E+00  0.22159497331E+03  0.22159497331E+03  0.00000000000E+00 0. -1.
         21   -1    0    0  502  503 -0.00000000000E+00 -0.00000000000E+00 -0.47649688636E+01  0.47649688636E+01  0.00000000000E+00 0. -1.
          1    1    1    2  501    0  0.24195270242E+02  0.21137433392E+02  0.91461833548E+02  0.96940544605E+02  0.00000000000E+00 0.  1.
         -1    1    1    2    0  503 -0.24195270242E+02 -0.21137433392E+02  0.12536817090E+03  0.12941939757E+03  0.00000000000E+00 0. -1.
<mgrwt>
<rscale>  2 0.32127904E+02</rscale>
<asrwt>0</asrwt>
<pdfrwt beam="1">  1       21 0.34091526E-01 0.32127904E+02</pdfrwt>
<pdfrwt beam="2">  1       21 0.73307231E-03 0.32127904E+02</pdfrwt>
<totfact> 0.40436704E+07</totfact>
</mgrwt>
</event>
<event>
 4    1  0.7165636E+004  0.3035840E+02  0.7546771E-02  0.1594160E+00
         21   -1    0    0  503  502  0.00000000000E+00  0.00000000000E+00  0.14082821833E+02  0.14082821833E+02  0.00000000000E+00 0. -1.
         21   -1    0    0  501  503 -0.00000000000E+00 -0.00000000000E+00 -0.67130696518E+02  0.67130696518E+02  0.00000000000E+00 0. -1.
          1    1    1    2  501    0 -0.22792178620E+02  0.20053654752E+02 -0.32961036564E+02  0.44811409334E+02  0.00000000000E+00 0.  1.
         -1    1    1    2    0  502  0.22792178620E+02 -0.20053654752E+02 -0.20086838121E+02  0.36402109017E+02  0.00000000000E+00 0. -1.
<mgrwt>
<rscale>  2 0.30358400E+02</rscale>
<asrwt>0</asrwt>
<pdfrwt beam="1">  1       21 0.21665880E-02 0.30358400E+02</pdfrwt>
<pdfrwt beam="2">  1       21 0.10327799E-01 0.30358400E+02</pdfrwt>
<totfact> 0.62552256E+07</totfact>
</mgrwt>
</event>
<event>
 4    1  0.7165636E+004  0.2345301E+02  0.7546771E-02  0.1684271E+00
         21   -1    0    0  501  502  0.00000000000E+00  0.00000000000E+00  0.39249479003E+02  0.39249479003E+02  0.00000000000E+00 0.  1.
         21   -1    0    0  502  503 -0.00000000000E+00 -0.00000000000E+00 -0.15464852738E+02  0.15464852738E+02  0.00000000000E+00 0.  1.
          3    1    1    2  501    0 -0.11138786704E+01 -0.23426541683E+02  0.20271552663E+02  0.30999668196E+02  0.00000000000E+00 0.  1.
         -3    1    1    2    0  503  0.11138786704E+01  0.23426541683E+02  0.35130736029E+01  0.23714663545E+02  0.00000000000E+00 0. -1.
<mgrwt>
<rscale>  2 0.23453008E+02</rscale>
<asrwt>0</asrwt>
<pdfrwt beam="1">  1       21 0.60383813E-02 0.23453008E+02</pdfrwt>
<pdfrwt beam="2">  1       21 0.23792081E-02 0.23453008E+02</pdfrwt>
<totfact> 0.12212404E+08</totfact>
</mgrwt>
</event>
<event>
 4    1  0.7165636E+004  0.2401967E+02  0.7546771E-02  0.1675496E+00
         21   -1    0    0  501  502  0.00000000000E+00  0.00000000000E+00  0.84556439282E+00  0.84556439282E+00  0.00000000000E+00 0.  1.
         21   -1    0    0  502  503 -0.00000000000E+00 -0.00000000000E+00 -0.70358838631E+03  0.70358838631E+03  0.00000000000E+00 0.  1.
          5    1    1    2  501    0 -0.11760384967E+02  0.20943678618E+02 -0.41261100791E+03  0.41330955491E+03  0.00000000000E+00 0.  1.
         -5    1    1    2    0  503  0.11760384967E+02 -0.20943678618E+02 -0.29013181400E+03  0.29112439579E+03  0.00000000000E+00 0. -1.
<mgrwt>
<rscale>  2 0.24019665E+02</rscale>
<asrwt>0</asrwt>
<pdfrwt beam="1">  1       21 0.13008695E-03 0.24019665E+02</pdfrwt>
<pdfrwt beam="2">  1       21 0.10824426E+00 0.24019665E+02</pdfrwt>
<totfact> 0.46269027E+07</totfact>
</mgrwt>
</event>
<event>
 4    1  0.7165636E+004  0.2054787E+02  0.7546771E-02  0.1734647E+00
         21   -1    0    0  501  502  0.00000000000E+00  0.00000000000E+00  0.90752537555E+02  0.90752537555E+02  0.00000000000E+00 0.  1.
         21   -1    0    0  502  503 -0.00000000000E+00 -0.00000000000E+00 -0.53962792635E+01  0.53962792635E+01  0.00000000000E+00 0.  1.
          5    1    1    2  501    0  0.20175303993E+02 -0.38951352699E+01  0.60527579043E+02  0.63920284689E+02  0.00000000000E+00 0.  1.
         -5    1    1    2    0  503 -0.20175303993E+02  0.38951352699E+01  0.24828679248E+02  0.32228532129E+02  0.00000000000E+00 0. -1.
<mgrwt>
<rscale>  2 0.20547870E+02</rscale>
<asrwt>0</asrwt>
<pdfrwt beam="1">  1       21 0.13961928E-01 0.20547870E+02</pdfrwt>
<pdfrwt beam="2">  1       21 0.83019688E-03 0.20547870E+02</pdfrwt>
<totfact> 0.14592094E+08</totfact>
</mgrwt>
</event>
<event>
 4    1  0.7165636E+004  0.2879241E+02  0.7546771E-02  0.1611834E+00
         21   -1    0    0  503  502  0.00000000000E+00  0.00000000000E+00  0.18627728708E+01  0.18627728708E+01  0.00000000000E+00 0. -1.
         21   -1    0    0  501  503 -0.00000000000E+00 -0.00000000000E+00 -0.49278516521E+03  0.49278516521E+03  0.00000000000E+00 0. -1.
          5    1    1    2  501    0  0.10600237956E+02 -0.26770091306E+02 -0.32244790956E+03  0.32373084069E+03  0.00000000000E+00 0. -1.
         -5    1    1    2    0  502 -0.10600237956E+02  0.26770091306E+02 -0.16847448278E+03  0.17091709739E+03  0.00000000000E+00 0.  1.
<mgrwt>
<rscale>  2 0.28792409E+02</rscale>
<asrwt>0</asrwt>
<pdfrwt beam="1">  1       21 0.28658071E-03 0.28792409E+02</pdfrwt>
<pdfrwt beam="2">  1       21 0.75813030E-01 0.28792409E+02</pdfrwt>
<totfact> 0.32941227E+07</totfact>
</mgrwt>
</event>
<event>
 4    1  0.7165636E+004  0.3088519E+02  0.7546771E-02  0.1588505E+00
         21   -1    0    0  503  502  0.00000000000E+00  0.00000000000E+00  0.36026354376E+02  0.36026354376E+02  0.00000000000E+00 0.  1.
         21   -1    0    0  501  503 -0.00000000000E+00 -0.00000000000E+00 -0.45288936468E+02  0.45288936468E+02  0.00000000000E+00 0.  1.
          3    1    1    2  501    0 -0.21018613765E+01  0.30813584201E+02 -0.30834525448E+02  0.43642442097E+02  0.00000000000E+00 0.  1.
         -3    1    1    2    0  502  0.21018613765E+01 -0.30813584201E+02  0.21571943355E+02  0.37672848747E+02  0.00000000000E+00 0. -1.
<mgrwt>
<rscale>  2 0.30885187E+02</rscale>
<asrwt>0</asrwt>
<pdfrwt beam="1">  1       21 0.55425161E-02 0.30885187E+02</pdfrwt>
<pdfrwt beam="2">  1       21 0.69675286E-02 0.30885187E+02</pdfrwt>
<totfact> 0.27210402E+07</totfact>
</mgrwt>
</event>
<event>
 4    1  0.7165636E+004  0.2587125E+02  0.7546771E-02  0.1648794E+00
         21   -1    0    0  503  502  0.00000000000E+00  0.00000000000E+00  0.11488028779E+02  0.11488028779E+02  0.00000000000E+00 0.  1.
         21   -1    0    0  501  503 -0.00000000000E+00 -0.00000000000E+00 -0.71865606247E+02  0.71865606247E+02  0.00000000000E+00 0.  1.
          2    1    1    2  501    0 -0.25813793904E+02 -0.17231909859E+01 -0.48321091191E+02  0.54811031707E+02  0.00000000000E+00 0.  1.
         -2    1    1    2    0  502  0.25813793904E+02  0.17231909859E+01 -0.12056486278E+02  0.28542603319E+02  0.00000000000E+00 0. -1.
<mgrwt>
<rscale>  2 0.25871245E+02</rscale>
<asrwt>0</asrwt>
<pdfrwt beam="1">  1       21 0.17673891E-02 0.25871245E+02</pdfrwt>
<pdfrwt beam="2">  1       21 0.11056247E-01 0.25871245E+02</pdfrwt>
<totfact> 0.73541016E+07</totfact>
</mgrwt>
</event>
<event>
 4    1  0.7165636E+004  0.2419840E+02  0.7546771E-02  0.1672790E+00
         21   -1    0    0  501  502  0.00000000000E+00  0.00000000000E+00  0.92751332722E+02  0.92751332722E+02  0.00000000000E+00 0. -1.
         21   -1    0    0  502  503 -0.00000000000E+00 -0.00000000000E+00 -0.63275642063E+01  0.63275642063E+01  0.00000000000E+00 0. -1.
          1    1    1    2  501    0  0.17936983774E+02 -0.16242763771E+02  0.45567743684E+02  0.51594399175E+02  0.00000000000E+00 0.  1.
         -1    1    1    2    0  503 -0.17936983774E+02  0.16242763771E+02  0.40856024831E+02  0.47484497753E+02  0.00000000000E+00 0. -1.
<mgrwt>
<rscale>  2 0.24198404E+02</rscale>
<asrwt>0</asrwt>
<pdfrwt beam="1">  1       21 0.14269435E-01 0.24198404E+02</pdfrwt>
<pdfrwt beam="2">  1       21 0.97347148E-03 0.24198404E+02</pdfrwt>
<totfact> 0.11627180E+08</totfact>
</mgrwt>
</event>
<event>
 4    1  0.7165636E+004  0.2914925E+02  0.7546771E-02  0.1607687E+00
         21   -1    0    0  503  502  0.00000000000E+00  0.00000000000E+00  0.49042249123E+00  0.49042249123E+00  0.00000000000E+00 0. -1.
         21   -1    0    0  501  503 -0.00000000000E+00 -0.00000000000E+00 -0.18083875030E+04  0.18083875030E+04  0.00000000000E+00 0. -1.
          1    1    1    2  501    0  0.28529694775E+02  0.59779024804E+01 -0.71872712260E+03  0.71931797945E+03  0.00000000000E+00 0.  1.
         -1    1    1    2    0  502 -0.28529694775E+02 -0.59779024804E+01 -0.10891699579E+04  0.10895599460E+04  0.00000000000E+00 0. -1.
<mgrwt>
<rscale>  2 0.29149250E+02</rscale>
<asrwt>0</asrwt>
<pdfrwt beam="1">  1       21 0.75449875E-04 0.29149250E+02</pdfrwt>
<pdfrwt beam="2">  1       21 0.27821250E+00 0.29149250E+02</pdfrwt>
<totfact> 0.93243206E+06</totfact>
</mgrwt>
</event>
<event>
 4    1  0.7165636E+004  0.2546441E+02  0.7546771E-02  0.1654420E+00
         21   -1    0    0  501  502  0.00000000000E+00  0.00000000000E+00  0.78798229294E+01  0.78798229294E+01  0.00000000000E+00 0.  1.
         21   -1    0    0  502  503 -0.00000000000E+00 -0.00000000000E+00 -0.82307296051E+02  0.82307296051E+02  0.00000000000E+00 0.  1.
          5    1    1    2  501    0 -0.11783275631E+02  0.22574112722E+02 -0.36573427899E+02  0.44565140839E+02  0.00000000000E+00 0. -1.
         -5    1    1    2    0  503  0.11783275631E+02 -0.22574112722E+02 -0.37854045223E+02  0.45621978141E+02  0.00000000000E+00 0.  1.
<mgrwt>
<rscale>  2 0.25464409E+02</rscale>
<asrwt>0</asrwt>
<pdfrwt beam="1">  1       21 0.12122804E-02 0.25464409E+02</pdfrwt>
<pdfrwt beam="2">  1       21 0.12662662E-01 0.25464409E+02</pdfrwt>
<totfact> 0.10362048E+08</totfact>
</mgrwt>
</event>
<event>
 4    1  0.7165636E+004  0.2237347E+02  0.7546771E-02  0.1701872E+00
         21   -1    0    0  501  502  0.00000000000E+00  0.00000000000E+00  0.17249363141E+03  0.17249363141E+03  0.00000000000E+00 0.  1.
         21   -1    0    0  502  503 -0.00000000000E+00 -0.00000000000E+00 -0.30141109714E+01  0.30141109714E+01  0.00000000000E+00 0.  1.
          1    1    1    2  501    0  0.22232010576E+02  0.25119608480E+01  0.67813588559E+02  0.71409068295E+02  0.00000000000E+00 0. -1.
         -1    1    1    2    0  503 -0.22232010576E+02 -0.25119608480E+01  0.10166593188E+03  0.10409867409E+03  0.00000000000E+00 0.  1.
<mgrwt>
<rscale>  2 0.22373472E+02</rscale>
<asrwt>0</asrwt>
<pdfrwt beam="1">  1       21 0.26537474E-01 0.22373472E+02</pdfrwt>
<pdfrwt beam="2">  1       21 0.46370951E-03 0.22373472E+02</pdfrwt>
<totfact> 0.11618171E+08</totfact>
</mgrwt>
</event>
<event>
 4    1  0.7165636E+004  0.2614307E+02  0.7546771E-02  0.1645106E+00
         21   -1    0    0  503  502  0.00000000000E+00  0.00000000000E+00  0.54654692870E+01  0.54654692870E+01  0.00000000000E+00 0. -1.
         21   -1    0    0  501  503 -0.00000000000E+00 -0.00000000000E+00 -0.12553349463E+03  0.12553349463E+03  0.00000000000E+00 0. -1.
          1    1    1    2  501    0  0.26119233625E+02  0.11162253224E+01 -0.55971683133E+02  0.61776125136E+02  0.00000000000E+00 0. -1.
         -1    1    1    2    0  502 -0.26119233625E+02 -0.11162253224E+01 -0.64096342209E+02  0.69222838780E+02  0.00000000000E+00 0.  1.
<mgrwt>
<rscale>  2 0.26143074E+02</rscale>
<asrwt>0</asrwt>
<pdfrwt beam="1">  1       21 0.84084137E-03 0.26143074E+02</pdfrwt>
<pdfrwt beam="2">  1       21 0.19312847E-01 0.26143074E+02</pdfrwt>
<totfact> 0.87752838E+07</totfact>
</mgrwt>
</event>
<event>
 4    1  0.7165636E+004  0.2202725E+02  0.7546771E-02  0.1707781E+00
         21   -1    0    0  501  502  0.00000000000E+00  0.00000000000E+00  0.21503849079E+03  0.21503849079E+03  0.00000000000E+00 0.  1.
         21   -1    0    0  502  503 -0.00000000000E+00 -0.00000000000E+00 -0.32498296222E+01  0.32498296222E+01  0.00000000000E+00 0.  1.
          3    1    1    2  501    0  0.21125539334E+02 -0.62378959855E+01  0.16624082791E+03  0.16769380615E+03  0.00000000000E+00 0. -1.
         -3    1    1    2    0  503 -0.21125539334E+02  0.62378959855E+01  0.45547833261E+02  0.50594514260E+02  0.00000000000E+00 0.  1.
<mgrwt>
<rscale>  2 0.22027250E+02</rscale>
<asrwt>0</asrwt>
<pdfrwt beam="1">  1       21 0.33082834E-01 0.22027250E+02</pdfrwt>
<pdfrwt beam="2">  1       21 0.49997396E-03 0.22027250E+02</pdfrwt>
<totfact> 0.69427215E+07</totfact>
</mgrwt>
</event>
<event>
 4    1  0.7165636E+004  0.2482932E+02  0.7546771E-02  0.1663466E+00
         21   -1    0    0  503  502  0.00000000000E+00  0.00000000000E+00  0.52408546479E+01  0.52408546479E+01  0.00000000000E+00 0. -1.
         21   -1    0    0  501  503 -0.00000000000E+00 -0.00000000000E+00 -0.12207881822E+03  0.12207881822E+03  0.00000000000E+00 0. -1.
          2    1    1    2  501    0 -0.24511620081E+02  0.39592441560E+01 -0.46269917072E+02  0.52510954659E+02  0.00000000000E+00 0.  1.
         -2    1    1    2    0  502  0.24511620081E+02 -0.39592441560E+01 -0.70568046502E+02  0.74808718211E+02  0.00000000000E+00 0. -1.
<mgrwt>
<rscale>  2 0.24829320E+02</rscale>
<asrwt>0</asrwt>
<pdfrwt beam="1">  1       21 0.80628529E-03 0.24829320E+02</pdfrwt>
<pdfrwt beam="2">  1       21 0.18781358E-01 0.24829320E+02</pdfrwt>
<totfact> 0.96842114E+07</totfact>
</mgrwt>
</event>
<event>
 4    1  0.7165636E+004  0.2195496E+02  0.7546771E-02  0.1709032E+00
         21   -1    0    0  501  502  0.00000000000E+00  0.00000000000E+00  0.13761393263E+02  0.13761393263E+02  0.00000000000E+00 0.  1.
         21   -1    0    0  502  503 -0.00000000000E+00 -0.00000000000E+00 -0.43677998391E+02  0.43677998391E+02  0.00000000000E+00 0.  1.
          4    1    1    2  501    0  0.17282596820E+02 -0.13540011550E+02 -0.27739809349E+02  0.35376787423E+02  0.00000000000E+00 0. -1.
         -4    1    1    2    0  503 -0.17282596820E+02  0.13540011550E+02 -0.21767957782E+01  0.22062604231E+02  0.00000000000E+00 0.  1.
<mgrwt>
<rscale>  2 0.21954955E+02</rscale>
<asrwt>0</asrwt>
<pdfrwt beam="1">  1       21 0.21171375E-02 0.21954955E+02</pdfrwt>
<pdfrwt beam="2">  1       21 0.67196919E-02 0.21954955E+02</pdfrwt>
<totfact> 0.12066531E+08</totfact>
</mgrwt>
</event>
<event>
 4    1  0.7165636E+004  0.2131693E+02  0.7546771E-02  0.1720340E+00
         21   -1    0    0  503  502  0.00000000000E+00  0.00000000000E+00  0.44088026846E+02  0.44088026846E+02  0.00000000000E+00 0. -1.
         21   -1    0    0  501  503 -0.00000000000E+00 -0.00000000000E+00 -0.10356313874E+02  0.10356313874E+02  0.00000000000E+00 0. -1.
          5    1    1    2  501    0  0.19349266734E+02 -0.89452494567E+01  0.14985794737E+02  0.26057353183E+02  0.00000000000E+00 0.  1.
         -5    1    1    2    0  502 -0.19349266734E+02  0.89452494567E+01  0.18745918235E+02  0.28386987538E+02  0.00000000000E+00 0. -1.
<mgrwt>
<rscale>  2 0.21316932E+02</rscale>
<asrwt>0</asrwt>
<pdfrwt beam="1">  1       21 0.67827732E-02 0.21316932E+02</pdfrwt>
<pdfrwt beam="2">  1       21 0.15932791E-02 0.21316932E+02</pdfrwt>
<totfact> 0.18179367E+08</totfact>
</mgrwt>
</event>
<event>
 4    1  0.7165636E+004  0.2172442E+02  0.7546771E-02  0.1713062E+00
         21   -1    0    0  501  502  0.00000000000E+00  0.00000000000E+00  0.60660869116E+03  0.60660869116E+03  0.00000000000E+00 0.  1.
         21   -1    0    0  502  503 -0.00000000000E+00 -0.00000000000E+00 -0.84509657324E+00  0.84509657324E+00  0.00000000000E+00 0.  1.
          5    1    1    2  501    0  0.11796184640E+02 -0.18242819048E+02  0.21730953981E+03  0.21839273456E+03  0.00000000000E+00 0.  1.
         -5    1    1    2    0  503 -0.11796184640E+02  0.18242819048E+02  0.38845405478E+03  0.38906105317E+03  0.00000000000E+00 0. -1.
<mgrwt>
<rscale>  2 0.21724420E+02</rscale>
<asrwt>0</asrwt>
<pdfrwt beam="1">  1       21 0.93324066E-01 0.21724420E+02</pdfrwt>
<pdfrwt beam="2">  1       21 0.13001534E-03 0.21724420E+02</pdfrwt>
<totfact> 0.62664302E+07</totfact>
</mgrwt>
</event>
<event>
 4    1  0.7165636E+004  0.2822224E+02  0.7546771E-02  0.1618614E+00
         21   -1    0    0  501  502  0.00000000000E+00  0.00000000000E+00  0.92566474790E+02  0.92566474790E+02  0.00000000000E+00 0.  1.
         21   -1    0    0  502  503 -0.00000000000E+00 -0.00000000000E+00 -0.86376021063E+01  0.86376021063E+01  0.00000000000E+00 0.  1.
          2    1    1    2  501    0  0.27470284277E+02  0.64713561081E+01  0.45093550138E+02  0.53197022775E+02  0.00000000000E+00 0.  1.
         -2    1    1    2    0  503 -0.27470284277E+02 -0.64713561081E+01  0.38835322546E+02  0.48007054121E+02  0.00000000000E+00 0. -1.
<mgrwt>
<rscale>  2 0.28222242E+02</rscale>
<asrwt>0</asrwt>
<pdfrwt beam="1">  1       21 0.14240995E-01 0.28222242E+02</pdfrwt>
<pdfrwt beam="2">  1       21 0.13288619E-02 0.28222242E+02</pdfrwt>
<totfact> 0.75758128E+07</totfact>
</mgrwt>
</event>
<event>
 4    1  0.7165636E+004  0.2166593E+02  0.7546771E-02  0.1714094E+00
         21   -1    0    0  503  502  0.00000000000E+00  0.00000000000E+00  0.12943083439E+03  0.12943083439E+03  0.00000000000E+00 0.  1.
         21   -1    0    0  501  503 -0.00000000000E+00 -0.00000000000E+00 -0.36282444663E+01  0.36282444663E+01  0.00000000000E+00 0.  1.
          4    1    1    2  501    0  0.21016519283E+02  0.52648184486E+01  0.61547983271E+02  0.65250031730E+02  0.00000000000E+00 0.  1.
         -4    1    1    2    0  502 -0.21016519283E+02 -0.52648184486E+01  0.64254606650E+02  0.67809047124E+02  0.00000000000E+00 0. -1.
<mgrwt>
<rscale>  2 0.21665927E+02</rscale>
<asrwt>0</asrwt>
<pdfrwt beam="1">  1       21 0.19912433E-01 0.21665927E+02</pdfrwt>
<pdfrwt beam="2">  1       21 0.55819156E-03 0.21665927E+02</pdfrwt>
<totfact> 0.14542393E+08</totfact>
</mgrwt>
</event>
<event>
 4    1  0.7165636E+004  0.2031085E+02  0.7546771E-02  0.1739216E+00
         21   -1    0    0  501  502  0.00000000000E+00  0.00000000000E+00  0.55099267873E+02  0.55099267873E+02  0.00000000000E+00 0.  1.
         21   -1    0    0  502  503 -0.00000000000E+00 -0.00000000000E+00 -0.75046241932E+01  0.75046241932E+01  0.00000000000E+00 0.  1.
          2    1    1    2  501    0  0.37949899841E+01 -0.19953162840E+02  0.22282311166E+02  0.30150158327E+02  0.00000000000E+00 0. -1.
         -2    1    1    2    0  503 -0.37949899841E+01  0.19953162840E+02  0.25312332514E+02  0.32453733738E+02  0.00000000000E+00 0.  1.
<mgrwt>
<rscale>  2 0.20310851E+02</rscale>
<asrwt>0</asrwt>
<pdfrwt beam="1">  1       21 0.84768102E-02 0.20310851E+02</pdfrwt>
<pdfrwt beam="2">  1       21 0.11545576E-02 0.20310851E+02</pdfrwt>
<totfact> 0.20288021E+08</totfact>
</mgrwt>
</event>
<event>
 4    1  0.7165636E+004  0.2317435E+02  0.7546771E-02  0.1688699E+00
         21   -1    0    0  503  502  0.00000000000E+00  0.00000000000E+00  0.37722620038E+01  0.37722620038E+01  0.00000000000E+00 0. -1.
         21   -1    0    0  501  503 -0.00000000000E+00 -0.00000000000E+00 -0.18010037591E+03  0.18010037591E+03  0.00000000000E+00 0. -1.
          5    1    1    2  501    0 -0.98178458013E+01 -0.20991917131E+02 -0.46083166737E+02  0.51582060229E+02  0.00000000000E+00 0.  1.
         -5    1    1    2    0  502  0.98178458013E+01  0.20991917131E+02 -0.13024494717E+03  0.13229057769E+03  0.00000000000E+00 0. -1.
<mgrwt>
<rscale>  2 0.23174354E+02</rscale>
<asrwt>0</asrwt>
<pdfrwt beam="1">  1       21 0.58034805E-03 0.23174354E+02</pdfrwt>
<pdfrwt beam="2">  1       21 0.27707748E-01 0.23174354E+02</pdfrwt>
<totfact> 0.77942743E+07</totfact>
</mgrwt>
</event>
<event>
 4    1  0.7165636E+004  0.2307815E+02  0.7546771E-02  0.1690246E+00
         21   -1    0    0  503  502  0.00000000000E+00  0.00000000000E+00  0.68793000073E+03  0.68793000073E+03  0.00000000000E+00 0. -1.
         21   -1    0    0  501  503 -0.00000000000E+00 -0.00000000000E+00 -0.12273429185E+01  0.12273429185E+01  0.00000000000E+00 0. -1.
          5    1    1    2  501    0 -0.22754042189E+02 -0.38541877944E+01  0.55272351879E+03  0.55320510611E+03  0.00000000000E+00 0.  1.
         -5    1    1    2    0  502  0.22754042189E+02  0.38541877944E+01  0.13397913902E+03  0.13595223754E+03  0.00000000000E+00 0. -1.
<mgrwt>
<rscale>  2 0.23078154E+02</rscale>
<asrwt>0</asrwt>
<pdfrwt beam="1">  1       21 0.10583508E+00 0.23078154E+02</pdfrwt>
<pdfrwt beam="2">  1       21 0.18882254E-03 0.23078154E+02</pdfrwt>
<totfact> 0.28240214E+07</totfact>
</mgrwt>
</event>
<event>
 4    1  0.7165636E+004  0.1280432E+03  0.7546771E-02  0.1230389E+00
         21   -1    0    0  501  502  0.00000000000E+00  0.00000000000E+00  0.17622268847E+02  0.17622268847E+02  0.00000000000E+00 0. -1.
         21   -1    0    0  502  503 -0.00000000000E+00 -0.00000000000E+00 -0.11672644266E+04  0.11672644266E+04  0.00000000000E+00 0. -1.
          1    1    1    2  501    0 -0.85420001107E+02  0.95385915157E+02 -0.84172136031E+03  0.85140466161E+03  0.00000000000E+00 0. -1.
         -1    1    1    2    0  503  0.85420001107E+02 -0.95385915157E+02 -0.30792079746E+03  0.33348203386E+03  0.00000000000E+00 0.  1.
<mgrwt>
<rscale>  2 0.12804315E+03</rscale>
<asrwt>0</asrwt>
<pdfrwt beam="1">  1       21 0.27111179E-02 0.12804315E+03</pdfrwt>
<pdfrwt beam="2">  1       21 0.17957916E+00 0.12804315E+03</pdfrwt>
<totfact> 0.14164194E+05</totfact>
</mgrwt>
</event>
<event>
 4    1  0.7165636E+004  0.2162706E+02  0.7546771E-02  0.1714783E+00
         21   -1    0    0  501  502  0.00000000000E+00  0.00000000000E+00  0.13124777923E+03  0.13124777923E+03  0.00000000000E+00 0. -1.
         21   -1    0    0  502  503 -0.00000000000E+00 -0.00000000000E+00 -0.49322250022E+01  0.49322250022E+01  0.00000000000E+00 0. -1.
          2    1    1    2  501    0 -0.90309956188E+01  0.19651226146E+02  0.27291522532E+02  0.34821785896E+02  0.00000000000E+00 0. -1.
         -2    1    1    2    0  503  0.90309956188E+01 -0.19651226146E+02  0.99024031691E+02  0.10135821833E+03  0.00000000000E+00 0.  1.
<mgrwt>
<rscale>  2 0.21627056E+02</rscale>
<asrwt>0</asrwt>
<pdfrwt beam="1">  1       21 0.20191963E-01 0.21627056E+02</pdfrwt>
<pdfrwt beam="2">  1       21 0.75880394E-03 0.21627056E+02</pdfrwt>
<totfact> 0.90013705E+07</totfact>
</mgrwt>
</event>
<event>
 4    1  0.7165636E+004  0.2495208E+02  0.7546771E-02  0.1661691E+00
         21   -1    0    0  503  502  0.00000000000E+00  0.00000000000E+00  0.87175470183E+01  0.87175470183E+01  0.00000000000E+00 0.  1.
         21   -1    0    0  501  503 -0.00000000000E+00 -0.00000000000E+00 -0.81602791669E+02  0.81602791669E+02  0.00000000000E+00 0.  1.
          4    1    1    2  501    0 -0.11530989466E+02  0.22127871912E+02 -0.20489768795E+02  0.32286793875E+02  0.00000000000E+00 0.  1.
         -4    1    1    2    0  502  0.11530989466E+02 -0.22127871912E+02 -0.52395475856E+02  0.58033544813E+02  0.00000000000E+00 0. -1.
<mgrwt>
<rscale>  2 0.24952083E+02</rscale>
<asrwt>0</asrwt>
<pdfrwt beam="1">  1       21 0.13411611E-02 0.24952083E+02</pdfrwt>
<pdfrwt beam="2">  1       21 0.12554275E-01 0.24952083E+02</pdfrwt>
<totfact> 0.89716415E+07</totfact>
</mgrwt>
</event>
<event>
 4    1  0.7165636E+004  0.2083747E+02  0.7546771E-02  0.1729169E+00
         21   -1    0    0  503  502  0.00000000000E+00  0.00000000000E+00  0.11360074626E+04  0.11360074626E+04  0.00000000000E+00 0.  1.
         21   -1    0    0  501  503 -0.00000000000E+00 -0.00000000000E+00 -0.85587324443E+00  0.85587324443E+00  0.00000000000E+00 0.  1.
          2    1    1    2  501    0 -0.19141124647E+02  0.82351492537E+01  0.99044454129E+03  0.99066371171E+03  0.00000000000E+00 0. -1.
         -2    1    1    2    0  502  0.19141124647E+02 -0.82351492537E+01  0.14470704806E+03  0.14619962413E+03  0.00000000000E+00 0.  1.
<mgrwt>
<rscale>  2 0.20837474E+02</rscale>
<asrwt>0</asrwt>
<pdfrwt beam="1">  1       21 0.17476917E+00 0.20837474E+02</pdfrwt>
<pdfrwt beam="2">  1       21 0.13167372E-03 0.20837474E+02</pdfrwt>
<totfact> 0.14524351E+07</totfact>
</mgrwt>
</event>
<event>
 4    1  0.7165636E+004  0.2015031E+02  0.7546771E-02  0.1742355E+00
         21   -1    0    0  503  502  0.00000000000E+00  0.00000000000E+00  0.49076096147E+02  0.49076096147E+02  0.00000000000E+00 0. -1.
         21   -1    0    0  501  503 -0.00000000000E+00 -0.00000000000E+00 -0.86171060563E+01  0.86171060563E+01  0.00000000000E+00 0. -1.
          3    1    1    2  501    0 -0.13069413420E+02  0.15337056731E+02  0.25989136682E+02  0.32885712730E+02  0.00000000000E+00 0.  1.
         -3    1    1    2    0  502  0.13069413420E+02 -0.15337056731E+02  0.14469853409E+02  0.24807489473E+02  0.00000000000E+00 0. -1.
<mgrwt>
<rscale>  2 0.20150307E+02</rscale>
<asrwt>0</asrwt>
<pdfrwt beam="1">  1       21 0.75501685E-02 0.20150307E+02</pdfrwt>
<pdfrwt beam="2">  1       21 0.13257087E-02 0.20150307E+02</pdfrwt>
<totfact> 0.19833571E+08</totfact>
</mgrwt>
</event>
<event>
 4    1  0.7165636E+004  0.3023081E+02  0.7546771E-02  0.1595551E+00
         21   -1    0    0  503  502  0.00000000000E+00  0.00000000000E+00  0.11484234927E+03  0.11484234927E+03  0.00000000000E+00 0. -1.
         21   -1    0    0  501  503 -0.00000000000E+00 -0.00000000000E+00 -0.94833118454E+01  0.94833118454E+01  0.00000000000E+00 0. -1.
          2    1    1    2  501    0 -0.30177263055E+02 -0.17985200743E+01  0.27748107288E+02  0.41034855160E+02  0.00000000000E+00 0. -1.
         -2    1    1    2    0  502  0.30177263055E+02  0.17985200743E+01  0.77610930135E+02  0.83290805954E+02  0.00000000000E+00 0.  1.
<mgrwt>
<rscale>  2 0.30230810E+02</rscale>
<asrwt>0</asrwt>
<pdfrwt beam="1">  1       21 0.17668053E-01 0.30230810E+02</pdfrwt>
<pdfrwt beam="2">  1       21 0.14589711E-02 0.30230810E+02</pdfrwt>
<totfact> 0.45967304E+07</totfact>
</mgrwt>
</event>
<event>
 4    1  0.7165636E+004  0.2225882E+02  0.7546771E-02  0.1703814E+00
         21   -1    0    0  501  502  0.00000000000E+00  0.00000000000E+00  0.39147499875E+00  0.39147499875E+00  0.00000000000E+00 0.  1.
         21   -1    0    0  502  503 -0.00000000000E+00 -0.00000000000E+00 -0.12698601773E+04  0.12698601773E+04  0.00000000000E+00 0.  1.
          4    1    1    2  501    0 -0.18813336891E+02 -0.11895934714E+02 -0.67147566922E+03  0.67184449783E+03  0.00000000000E+00 0.  1.
         -4    1    1    2    0  503  0.18813336891E+02  0.11895934714E+02 -0.59799303305E+03  0.59840715444E+03  0.00000000000E+00 0. -1.
<mgrwt>
<rscale>  2 0.22258816E+02</rscale>
<asrwt>0</asrwt>
<pdfrwt beam="1">  1       21 0.60227596E-04 0.22258816E+02</pdfrwt>
<pdfrwt beam="2">  1       21 0.19536092E+00 0.22258816E+02</pdfrwt>
<totfact> 0.33699470E+07</totfact>
</mgrwt>
</event>
<event>
 4    1  0.7165636E+004  0.2097189E+02  0.7546771E-02  0.1726664E+00
         21   -1    0    0  501  502  0.00000000000E+00  0.00000000000E+00  0.18379934359E+01  0.18379934359E+01  0.00000000000E+00 0.  1.
         21   -1    0    0  502  503 -0.00000000000E+00 -0.00000000000E+00 -0.23986259841E+03  0.23986259841E+03  0.00000000000E+00 0.  1.
          3    1    1    2  501    0  0.20314394131E+02 -0.52101403990E+01 -0.11312657696E+03  0.11505408548E+03  0.00000000000E+00 0. -1.
         -3    1    1    2    0  503 -0.20314394131E+02  0.52101403990E+01 -0.12489802801E+03  0.12664650636E+03  0.00000000000E+00 0.  1.
<mgrwt>
<rscale>  2 0.20971890E+02</rscale>
<asrwt>0</asrwt>
<pdfrwt beam="1">  1       21 0.28276822E-03 0.20971890E+02</pdfrwt>
<pdfrwt beam="2">  1       21 0.36901938E-01 0.20971890E+02</pdfrwt>
<totfact> 0.12879561E+08</totfact>
</mgrwt>
</event>
<event>
 4    1  0.7165636E+004  0.2079667E+02  0.7546771E-02  0.1729934E+00
         21   -1    0    0  503  502  0.00000000000E+00  0.00000000000E+00  0.14266955945E+02  0.14266955945E+02  0.00000000000E+00 0.  1.
         21   -1    0    0  501  503 -0.00000000000E+00 -0.00000000000E+00 -0.39245518507E+02  0.39245518507E+02  0.00000000000E+00 0.  1.
          4    1    1    2  501    0  0.18761858242E+02  0.89718473886E+01 -0.25252808952E+02  0.32713998995E+02  0.00000000000E+00 0.  1.
         -4    1    1    2    0  502 -0.18761858242E+02 -0.89718473886E+01  0.27424639030E+00  0.20798475457E+02  0.00000000000E+00 0. -1.
<mgrwt>
<rscale>  2 0.20796667E+02</rscale>
<asrwt>0</asrwt>
<pdfrwt beam="1">  1       21 0.21949164E-02 0.20796667E+02</pdfrwt>
<pdfrwt beam="2">  1       21 0.60377719E-02 0.20796667E+02</pdfrwt>
<totfact> 0.13338736E+08</totfact>
</mgrwt>
</event>
<event>
 4    1  0.7165636E+004  0.8024788E+02  0.7546771E-02  0.1328349E+00
         21   -1    0    0  503  502  0.00000000000E+00  0.00000000000E+00  0.98444698458E+02  0.98444698458E+02  0.00000000000E+00 0. -1.
         21   -1    0    0  501  503 -0.00000000000E+00 -0.00000000000E+00 -0.65981865745E+02  0.65981865745E+02  0.00000000000E+00 0. -1.
          4    1    1    2  501    0 -0.22392807788E+02  0.77060263925E+02  0.86085735902E+01  0.80708299797E+02  0.00000000000E+00 0. -1.
         -4    1    1    2    0  502  0.22392807788E+02 -0.77060263925E+02  0.23854259123E+02  0.83718264406E+02  0.00000000000E+00 0.  1.
<mgrwt>
<rscale>  2 0.80247879E+02</rscale>
<asrwt>0</asrwt>
<pdfrwt beam="1">  1       21 0.15145338E-01 0.80247879E+02</pdfrwt>
<pdfrwt beam="2">  1       21 0.10151056E-01 0.80247879E+02</pdfrwt>
<totfact> 0.29501704E+06</totfact>
</mgrwt>
</event>
<event>
 4    1  0.7165636E+004  0.2012073E+02  0.7546771E-02  0.1742938E+00
         21   -1    0    0  503  502  0.00000000000E+00  0.00000000000E+00  0.13072711660E+02  0.13072711660E+02  0.00000000000E+00 0.  1.
         21   -1    0    0  501  503 -0.00000000000E+00 -0.00000000000E+00 -0.31489928918E+02  0.31489928918E+02  0.00000000000E+00 0.  1.
          2    1    1    2  501    0  0.19453243292E+02  0.51395628228E+01 -0.12075455819E+02  0.23466154645E+02  0.00000000000E+00 0. -1.
         -2    1    1    2    0  502 -0.19453243292E+02 -0.51395628228E+01 -0.63417614396E+01  0.21096485933E+02  0.00000000000E+00 0.  1.
<mgrwt>
<rscale>  2 0.20120730E+02</rscale>
<asrwt>0</asrwt>
<pdfrwt beam="1">  1       21 0.20111864E-02 0.20120730E+02</pdfrwt>
<pdfrwt beam="2">  1       21 0.48446044E-02 0.20120730E+02</pdfrwt>
<totfact> 0.21413833E+08</totfact>
</mgrwt>
</event>
<event>
 4    1  0.7165636E+004  0.3283579E+02  0.7546771E-02  0.1568704E+00
         21   -1    0    0  503  502  0.00000000000E+00  0.00000000000E+00  0.54586547922E+03  0.54586547922E+03  0.00000000000E+00 0. -1.
         21   -1    0    0  501  503 -0.00000000000E+00 -0.00000000000E+00 -0.19989760437E+01  0.19989760437E+01  0.00000000000E+00 0. -1.
          4    1    1    2  501    0  0.15877528091E+02  0.28741838637E+02  0.24205321007E+03  0.24427023088E+03  0.00000000000E+00 0. -1.
         -4    1    1    2    0  502 -0.15877528091E+02 -0.28741838637E+02  0.30181329311E+03  0.30359422439E+03  0.00000000000E+00 0.  1.
<mgrwt>
<rscale>  2 0.32835791E+02</rscale>
<asrwt>0</asrwt>
<pdfrwt beam="1">  1       21 0.83979186E-01 0.32835791E+02</pdfrwt>
<pdfrwt beam="2">  1       21 0.30753521E-03 0.32835791E+02</pdfrwt>
<totfact> 0.24442868E+07</totfact>
</mgrwt>
</event>
<event>
 4    1  0.7165636E+004  0.3677341E+02  0.7546771E-02  0.1533394E+00
         21   -1    0    0  503  502  0.00000000000E+00  0.00000000000E+00  0.40696627655E+03  0.40696627655E+03  0.00000000000E+00 0.  1.
         21   -1    0    0  501  503 -0.00000000000E+00 -0.00000000000E+00 -0.36049275050E+01  0.36049275050E+01  0.00000000000E+00 0.  1.
          2    1    1    2  501    0  0.33007693150E+02  0.16210358757E+02  0.14425545219E+03  0.14886879802E+03  0.00000000000E+00 0. -1.
         -2    1    1    2    0  502 -0.33007693150E+02 -0.16210358757E+02  0.25910589686E+03  0.26170240604E+03  0.00000000000E+00 0.  1.
<mgrwt>
<rscale>  2 0.36773408E+02</rscale>
<asrwt>0</asrwt>
<pdfrwt beam="1">  1       21 0.62610160E-01 0.36773408E+02</pdfrwt>
<pdfrwt beam="2">  1       21 0.55460455E-03 0.36773408E+02</pdfrwt>
<totfact> 0.19166104E+07</totfact>
</mgrwt>
</event>
<event>
 4    1  0.7165636E+004  0.2047994E+02  0.7546771E-02  0.1735949E+00
         21   -1    0    0  503  502  0.00000000000E+00  0.00000000000E+00  0.70522112028E+02  0.70522112028E+02  0.00000000000E+00 0. -1.
         21   -1    0    0  501  503 -0.00000000000E+00 -0.00000000000E+00 -0.60387400508E+01  0.60387400508E+01  0.00000000000E+00 0. -1.
          2    1    1    2  501    0 -0.19516352610E+02 -0.62080403848E+01  0.36947989368E+02  0.42244309711E+02  0.00000000000E+00 0. -1.
         -2    1    1    2    0  502  0.19516352610E+02  0.62080403848E+01  0.27535382609E+02  0.34316542367E+02  0.00000000000E+00 0.  1.
<mgrwt>
<rscale>  2 0.20479936E+02</rscale>
<asrwt>0</asrwt>
<pdfrwt beam="1">  1       21 0.10849555E-01 0.20479936E+02</pdfrwt>
<pdfrwt beam="2">  1       21 0.92903698E-03 0.20479936E+02</pdfrwt>
<totfact> 0.18781422E+08</totfact>
</mgrwt>
</event>
<event>
 4    1  0.7165636E+004  0.2140615E+02  0.7546771E-02  0.1718729E+00
         21   -1    0    0  503  502  0.00000000000E+00  0.00000000000E+00  0.15815737803E+03  0.15815737803E+03  0.00000000000E+00 0. -1.
         21   -1    0    0  501  503 -0.00000000000E+00 -0.00000000000E+00 -0.39233895632E+01  0.39233895632E+01  0.00000000000E+00 0. -1.
          4    1    1    2  501    0  0.16863662814E+02 -0.13184841308E+02  0.35672035265E+02  0.41601890146E+02  0.00000000000E+00 0. -1.
         -4    1    1    2    0  502 -0.16863662814E+02  0.13184841308E+02  0.11856195320E+03  0.12047887744E+03  0.00000000000E+00 0.  1.
<mgrwt>
<rscale>  2 0.21406148E+02</rscale>
<asrwt>0</asrwt>
<pdfrwt beam="1">  1       21 0.24331899E-01 0.21406148E+02</pdfrwt>
<pdfrwt beam="2">  1       21 0.60359852E-03 0.21406148E+02</pdfrwt>
<totfact> 0.90811759E+07</totfact>
</mgrwt>
</event>
<event>
 4    1  0.7165636E+004  0.8046519E+02  0.7546771E-02  0.1327736E+00
         21   -1    0    0  503  502  0.00000000000E+00  0.00000000000E+00  0.19433281812E+02  0.19433281812E+02  0.00000000000E+00 0.  1.
         21   -1    0    0  501  503 -0.00000000000E+00 -0.00000000000E+00 -0.33620902446E+03  0.33620902446E+03  0.00000000000E+00 0.  1.
          4    1    1    2  501    0 -0.36730973499E+02  0.71592477122E+02 -0.14149036713E+03  0.16277030191E+03  0.00000000000E+00 0. -1.
         -4    1    1    2    0  502  0.36730973499E+02 -0.71592477122E+02 -0.17528537552E+03  0.19287200436E+03  0.00000000000E+00 0.  1.
<mgrwt>
<rscale>  2 0.80465192E+02</rscale>
<asrwt>0</asrwt>
<pdfrwt beam="1">  1       21 0.29897358E-02 0.80465192E+02</pdfrwt>
<pdfrwt beam="2">  1       21 0.51724463E-01 0.80465192E+02</pdfrwt>
<totfact> 0.22123688E+06</totfact>
</mgrwt>
</event>
<event>
 4    1  0.7165636E+004  0.2092667E+02  0.7546771E-02  0.1727504E+00
         21   -1    0    0  501  502  0.00000000000E+00  0.00000000000E+00  0.16855681760E+01  0.16855681760E+01  0.00000000000E+00 0.  1.
         21   -1    0    0  502  503 -0.00000000000E+00 -0.00000000000E+00 -0.28050193288E+03  0.28050193288E+03  0.00000000000E+00 0.  1.
          5    1    1    2  501    0 -0.12640867231E+01 -0.20888453318E+02 -0.17773063269E+03  0.17895838398E+03  0.00000000000E+00 0. -1.
         -5    1    1    2    0  503  0.12640867231E+01  0.20888453318E+02 -0.10108573201E+03  0.10322911708E+03  0.00000000000E+00 0.  1.
<mgrwt>
<rscale>  2 0.20926667E+02</rscale>
<asrwt>0</asrwt>
<pdfrwt beam="1">  1       21 0.25931819E-03 0.20926667E+02</pdfrwt>
<pdfrwt beam="2">  1       21 0.43154141E-01 0.20926667E+02</pdfrwt>
<totfact> 0.10879300E+08</totfact>
</mgrwt>
</event>
<event>
 4    1  0.7165636E+004  0.2773412E+02  0.7546771E-02  0.1624576E+00
         21   -1    0    0  503  502  0.00000000000E+00  0.00000000000E+00  0.13535169598E+03  0.13535169598E+03  0.00000000000E+00 0. -1.
         21   -1    0    0  501  503 -0.00000000000E+00 -0.00000000000E+00 -0.87518208218E+01  0.87518208218E+01  0.00000000000E+00 0. -1.
          4    1    1    2  501    0 -0.17904368746E+02 -0.21180532516E+02  0.10596700602E+03  0.10953623941E+03  0.00000000000E+00 0. -1.
         -4    1    1    2    0  502  0.17904368746E+02  0.21180532516E+02  0.20632869139E+02  0.34567277399E+02  0.00000000000E+00 0.  1.
<mgrwt>
<rscale>  2 0.27734119E+02</rscale>
<asrwt>0</asrwt>
<pdfrwt beam="1">  1       21 0.20823336E-01 0.27734119E+02</pdfrwt>
<pdfrwt beam="2">  1       21 0.13464341E-02 0.27734119E+02</pdfrwt>
<totfact> 0.38233810E+07</totfact>
</mgrwt>
</event>
<event>
 4    1  0.7165636E+004  0.4817677E+02  0.7546771E-02  0.1455431E+00
         21   -1    0    0  501  502  0.00000000000E+00  0.00000000000E+00  0.40452958096E+02  0.40452958096E+02  0.00000000000E+00 0. -1.
         21   -1    0    0  502  503 -0.00000000000E+00 -0.00000000000E+00 -0.57375398255E+02  0.57375398255E+02  0.00000000000E+00 0. -1.
          5    1    1    2  501    0 -0.12825144785E+02  0.46438311573E+02 -0.85209495095E+01  0.48924510228E+02  0.00000000000E+00 0.  1.
         -5    1    1    2    0  503  0.12825144785E+02 -0.46438311573E+02 -0.84014906495E+01  0.48903846123E+02  0.00000000000E+00 0. -1.
<mgrwt>
<rscale>  2 0.48176770E+02</rscale>
<asrwt>0</asrwt>
<pdfrwt beam="1">  1       21 0.62235320E-02 0.48176770E+02</pdfrwt>
<pdfrwt beam="2">  1       21 0.88269843E-02 0.48176770E+02</pdfrwt>
<totfact> 0.16361765E+07</totfact>
</mgrwt>
</event>
<event>
 4    1  0.7165636E+004  0.2421195E+02  0.7546771E-02  0.1672586E+00
         21   -1    0    0  503  502  0.00000000000E+00  0.00000000000E+00  0.41444325101E+02  0.41444325101E+02  0.00000000000E+00 0. -1.
         21   -1    0    0  501  503 -0.00000000000E+00 -0.00000000000E+00 -0.47463463756E+02  0.47463463756E+02  0.00000000000E+00 0. -1.
          5    1    1    2  501    0 -0.11320705180E+02 -0.21402336361E+02 -0.40255120863E+02  0.46975452346E+02  0.00000000000E+00 0.  1.
         -5    1    1    2    0  502  0.11320705180E+02  0.21402336361E+02  0.34235982208E+02  0.41932336510E+02  0.00000000000E+00 0. -1.
<mgrwt>
<rscale>  2 0.24211947E+02</rscale>
<asrwt>0</asrwt>
<pdfrwt beam="1">  1       21 0.63760501E-02 0.24211947E+02</pdfrwt>
<pdfrwt beam="2">  1       21 0.73020713E-02 0.24211947E+02</pdfrwt>
<totfact> 0.19124681E+07</totfact>
</mgrwt>
</event>
<event>
 4    1  0.7165636E+004  0.2165025E+02  0.7546771E-02  0.1714372E+00
         21   -1    0    0  501  502  0.00000000000E+00  0.00000000000E+00  0.67362799930E+01  0.67362799930E+01  0.00000000000E+00 0. -1.
         21   -1    0    0  502  503 -0.00000000000E+00 -0.00000000000E+00 -0.77885336098E+02  0.77885336098E+02  0.00000000000E+00 0. -1.
          2    1    1    2  501    0 -0.21549572010E+02 -0.20855224670E+01 -0.21760751842E+02  0.30696315390E+02  0.00000000000E+00 0.  1.
         -2    1    1    2    0  503  0.21549572010E+02  0.20855224670E+01 -0.49388304263E+02  0.53925300701E+02  0.00000000000E+00 0. -1.
<mgrwt>
<rscale>  2 0.21650253E+02</rscale>
<asrwt>0</asrwt>
<pdfrwt beam="1">  1       21 0.10363508E-02 0.21650253E+02</pdfrwt>
<pdfrwt beam="2">  1       21 0.11982359E-01 0.21650253E+02</pdfrwt>
<totfact> 0.13752958E+08</totfact>
</mgrwt>
</event>
<event>
 4    1  0.7165636E+004  0.2660999E+02  0.7546771E-02  0.1638899E+00
         21   -1    0    0  503  502  0.00000000000E+00  0.00000000000E+00  0.32672868517E+02  0.32672868517E+02  0.00000000000E+00 0.  1.
         21   -1    0    0  501  503 -0.00000000000E+00 -0.00000000000E+00 -0.21730492306E+02  0.21730492306E+02  0.00000000000E+00 0.  1.
          1    1    1    2  501    0 -0.26231769030E+02 -0.44705275910E+01  0.40617340383E+01  0.26918191002E+02  0.00000000000E+00 0. -1.
         -1    1    1    2    0  502  0.26231769030E+02  0.44705275910E+01  0.68806421733E+01  0.27485169821E+02  0.00000000000E+00 0.  1.
<mgrwt>
<rscale>  2 0.26609985E+02</rscale>
<asrwt>0</asrwt>
<pdfrwt beam="1">  1       21 0.50265952E-02 0.26609985E+02</pdfrwt>
<pdfrwt beam="2">  1       21 0.33431526E-02 0.26609985E+02</pdfrwt>
<totfact> 0.99882544E+07</totfact>
</mgrwt>
</event>
<event>
 4    1  0.7165636E+004  0.2388338E+02  0.7546771E-02  0.1677578E+00
         21   -1    0    0  501  502  0.00000000000E+00  0.00000000000E+00  0.12143118823E+02  0.12143118823E+02  0.00000000000E+00 0.  1.
         21   -1    0    0  502  503 -0.00000000000E+00 -0.00000000000E+00 -0.49473689297E+02  0.49473689297E+02  0.00000000000E+00 0.  1.
          2    1    1    2  501    0 -0.26965044941E+01  0.23730669659E+02 -0.11740766163E+02  0.26613181114E+02  0.00000000000E+00 0.  1.
         -2    1    1    2    0  503  0.26965044941E+01 -0.23730669659E+02 -0.25589804310E+02  0.35003627006E+02  0.00000000000E+00 0. -1.
<mgrwt>
<rscale>  2 0.23883380E+02</rscale>
<asrwt>0</asrwt>
<pdfrwt beam="1">  1       21 0.18681722E-02 0.23883380E+02</pdfrwt>
<pdfrwt beam="2">  1       21 0.76113367E-02 0.23883380E+02</pdfrwt>
<totfact> 0.12245511E+08</totfact>
</mgrwt>
</event>
<event>
 4    1  0.7165636E+004  0.2078958E+02  0.7546771E-02  0.1730067E+00
         21   -1    0    0  501  502  0.00000000000E+00  0.00000000000E+00  0.15916717419E+02  0.15916717419E+02  0.00000000000E+00 0. -1.
         21   -1    0    0  502  503 -0.00000000000E+00 -0.00000000000E+00 -0.30136750001E+02  0.30136750001E+02  0.00000000000E+00 0. -1.
          4    1    1    2  501    0  0.10778546308E+02  0.17777222565E+02  0.13390194797E+00  0.20790012804E+02  0.00000000000E+00 0. -1.
         -4    1    1    2    0  503 -0.10778546308E+02 -0.17777222565E+02 -0.14353934530E+02  0.25263454616E+02  0.00000000000E+00 0.  1.
<mgrwt>
<rscale>  2 0.20789582E+02</rscale>
<asrwt>0</asrwt>
<pdfrwt beam="1">  1       21 0.24487258E-02 0.20789582E+02</pdfrwt>
<pdfrwt beam="2">  1       21 0.46364230E-02 0.20789582E+02</pdfrwt>
<totfact> 0.17155184E+08</totfact>
</mgrwt>
</event>
<event>
 4    1  0.7165636E+004  0.2970357E+02  0.7546771E-02  0.1601389E+00
         21   -1    0    0  501  502  0.00000000000E+00  0.00000000000E+00  0.13000739891E+02  0.13000739891E+02  0.00000000000E+00 0.  1.
         21   -1    0    0  502  503 -0.00000000000E+00 -0.00000000000E+00 -0.68119427885E+02  0.68119427885E+02  0.00000000000E+00 0.  1.
          1    1    1    2  501    0 -0.18048731628E+02  0.23591215684E+02 -0.30035559471E+02  0.42242597027E+02  0.00000000000E+00 0. -1.
         -1    1    1    2    0  503  0.18048731628E+02 -0.23591215684E+02 -0.25083128522E+02  0.38877570749E+02  0.00000000000E+00 0.  1.
<mgrwt>
<rscale>  2 0.29703572E+02</rscale>
<asrwt>0</asrwt>
<pdfrwt beam="1">  1       21 0.20001138E-02 0.29703572E+02</pdfrwt>
<pdfrwt beam="2">  1       21 0.10479912E-01 0.29703572E+02</pdfrwt>
<totfact> 0.68760911E+07</totfact>
</mgrwt>
</event>
<event>
 4    1  0.7165636E+004  0.2710672E+02  0.7546771E-02  0.1632465E+00
         21   -1    0    0  503  502  0.00000000000E+00  0.00000000000E+00  0.46792020300E+03  0.46792020300E+03  0.00000000000E+00 0. -1.
         21   -1    0    0  501  503 -0.00000000000E+00 -0.00000000000E+00 -0.15702997655E+01  0.15702997655E+01  0.00000000000E+00 0. -1.
          3    1    1    2  501    0  0.23852179814E+02  0.12878197316E+02  0.23297426055E+03  0.23454590281E+03  0.00000000000E+00 0. -1.
         -3    1    1    2    0  502 -0.23852179814E+02 -0.12878197316E+02  0.23337564269E+03  0.23494459995E+03  0.00000000000E+00 0.  1.
<mgrwt>
<rscale>  2 0.27106723E+02</rscale>
<asrwt>0</asrwt>
<pdfrwt beam="1">  1       21 0.71987612E-01 0.27106723E+02</pdfrwt>
<pdfrwt beam="2">  1       21 0.24158495E-03 0.27106723E+02</pdfrwt>
<totfact> 0.46555810E+07</totfact>
</mgrwt>
</event>
<event>
 4    1  0.7165636E+004  0.2984911E+02  0.7546771E-02  0.1599763E+00
         21   -1    0    0  501  502  0.00000000000E+00  0.00000000000E+00  0.45345073577E+01  0.45345073577E+01  0.00000000000E+00 0.  1.
         21   -1    0    0  502  503 -0.00000000000E+00 -0.00000000000E+00 -0.25694483163E+03  0.25694483163E+03  0.00000000000E+00 0.  1.
          5    1    1    2  501    0  0.67568678221E+01  0.29074287692E+02 -0.18962359831E+03  0.19195853329E+03  0.00000000000E+00 0. -1.
         -5    1    1    2    0  503 -0.67568678221E+01 -0.29074287692E+02 -0.62786725964E+02  0.69520805697E+02  0.00000000000E+00 0.  1.
<mgrwt>
<rscale>  2 0.29849112E+02</rscale>
<asrwt>0</asrwt>
<pdfrwt beam="1">  1       21 0.69761645E-03 0.29849112E+02</pdfrwt>
<pdfrwt beam="2">  1       21 0.39529978E-01 0.29849112E+02</pdfrwt>
<totfact> 0.32492441E+07</totfact>
</mgrwt>
</event>
<event>
 4    1  0.7165636E+004  0.2158250E+02  0.7546771E-02  0.1715574E+00
         21   -1    0    0  501  502  0.00000000000E+00  0.00000000000E+00  0.26487058495E+03  0.26487058495E+03  0.00000000000E+00 0. -1.
         21   -1    0    0  502  503 -0.00000000000E+00 -0.00000000000E+00 -0.17598098699E+01  0.17598098699E+01  0.00000000000E+00 0. -1.
          3    1    1    2  501    0 -0.21416750729E+02  0.26696273960E+01  0.13503612233E+03  0.13674998521E+03  0.00000000000E+00 0. -1.
         -3    1    1    2    0  503  0.21416750729E+02 -0.26696273960E+01  0.12807465276E+03  0.12988040961E+03  0.00000000000E+00 0.  1.
<mgrwt>
<rscale>  2 0.21582496E+02</rscale>
<asrwt>0</asrwt>
<pdfrwt beam="1">  1       21 0.40749289E-01 0.21582496E+02</pdfrwt>
<pdfrwt beam="2">  1       21 0.27074019E-03 0.21582496E+02</pdfrwt>
<totfact> 0.11487054E+08</totfact>
</mgrwt>
</event>
<event>
 4    1  0.7165636E+004  0.2258425E+02  0.7546771E-02  0.1698339E+00
         21   -1    0    0  501  502  0.00000000000E+00  0.00000000000E+00  0.47769299005E+02  0.47769299005E+02  0.00000000000E+00 0.  1.
         21   -1    0    0  502  503 -0.00000000000E+00 -0.00000000000E+00 -0.15700872871E+02  0.15700872871E+02  0.00000000000E+00 0.  1.
          4    1    1    2  501    0 -0.92965074204E+01  0.20582109027E+02 -0.19165582591E+01  0.22665424279E+02  0.00000000000E+00 0.  1.
         -4    1    1    2    0  503  0.92965074204E+01 -0.20582109027E+02  0.33984984393E+02  0.40804747596E+02  0.00000000000E+00 0. -1.
<mgrwt>
<rscale>  2 0.22584248E+02</rscale>
<asrwt>0</asrwt>
<pdfrwt beam="1">  1       21 0.73491228E-02 0.22584248E+02</pdfrwt>
<pdfrwt beam="2">  1       21 0.24155189E-02 0.22584248E+02</pdfrwt>
<totfact> 0.85921422E+07</totfact>
</mgrwt>
</event>
<event>
 4    1  0.7165636E+004  0.3807783E+02  0.7546771E-02  0.1522853E+00
         21   -1    0    0  503  502  0.00000000000E+00  0.00000000000E+00  0.31202503680E+02  0.31202503680E+02  0.00000000000E+00 0.  1.
         21   -1    0    0  501  503 -0.00000000000E+00 -0.00000000000E+00 -0.49016162058E+02  0.49016162058E+02  0.00000000000E+00 0.  1.
          3    1    1    2  501    0 -0.38076981384E+02  0.25355056634E+00 -0.18051782725E+02  0.42140095619E+02  0.00000000000E+00 0.  1.
         -3    1    1    2    0  502  0.38076981384E+02 -0.25355056634E+00  0.23812434761E+00  0.38078570120E+02  0.00000000000E+00 0. -1.
<mgrwt>
<rscale>  2 0.38077826E+02</rscale>
<asrwt>0</asrwt>
<pdfrwt beam="1">  1       21 0.48003852E-02 0.38077826E+02</pdfrwt>
<pdfrwt beam="2">  1       21 0.75409480E-02 0.38077826E+02</pdfrwt>
<totfact> 0.31355145E+07</totfact>
</mgrwt>
</event>
<event>
 4    1  0.7165636E+004  0.2029561E+02  0.7546771E-02  0.1739513E+00
         21   -1    0    0  501  502  0.00000000000E+00  0.00000000000E+00  0.30882717509E+03  0.30882717509E+03  0.00000000000E+00 0.  1.
         21   -1    0    0  502  503 -0.00000000000E+00 -0.00000000000E+00 -0.17815004656E+01  0.17815004656E+01  0.00000000000E+00 0.  1.
          1    1    1    2  501    0 -0.18286556932E+02  0.88041870888E+01  0.23137796726E+03  0.23226638932E+03  0.00000000000E+00 0.  1.
         -1    1    1    2    0  503  0.18286556932E+02 -0.88041870888E+01  0.75667707363E+02  0.78342286234E+02  0.00000000000E+00 0. -1.
<mgrwt>
<rscale>  2 0.20295612E+02</rscale>
<asrwt>0</asrwt>
<pdfrwt beam="1">  1       21 0.47511831E-01 0.20295612E+02</pdfrwt>
<pdfrwt beam="2">  1       21 0.27407724E-03 0.20295612E+02</pdfrwt>
<totfact> 0.82894000E+07</totfact>
</mgrwt>
</event>
<event>
 4    1  0.7165636E+004  0.3049468E+02  0.7546771E-02  0.1592684E+00
         21   -1    0    0  503  502  0.00000000000E+00  0.00000000000E+00  0.68426244633E+00  0.68426244633E+00  0.00000000000E+00 0. -1.
         21   -1    0    0  501  503 -0.00000000000E+00 -0.00000000000E+00 -0.19439193613E+04  0.19439193613E+04  0.00000000000E+00 0. -1.
          2    1    1    2  501    0  0.12711911814E+02 -0.27718816150E+02 -0.15049561573E+04  0.15052650799E+04  0.00000000000E+00 0.  1.
         -2    1    1    2    0  502 -0.12711911814E+02  0.27718816150E+02 -0.43827894163E+03  0.43933854389E+03  0.00000000000E+00 0. -1.
<mgrwt>
<rscale>  2 0.30494679E+02</rscale>
<asrwt>0</asrwt>
<pdfrwt beam="1">  1       21 0.10527256E-03 0.30494679E+02</pdfrwt>
<pdfrwt beam="2">  1       21 0.29906049E+00 0.30494679E+02</pdfrwt>
<totfact> 0.45606590E+06</totfact>
</mgrwt>
</event>
<event>
 4    1  0.7165636E+004  0.2252826E+02  0.7546771E-02  0.1699273E+00
         21   -1    0    0  503  502  0.00000000000E+00  0.00000000000E+00  0.63293347095E+01  0.63293347095E+01  0.00000000000E+00 0.  1.
         21   -1    0    0  501  503 -0.00000000000E+00 -0.00000000000E+00 -0.81007755989E+02  0.81007755989E+02  0.00000000000E+00 0.  1.
          2    1    1    2  501    0 -0.15130219577E+02 -0.16691287074E+02 -0.32940389302E+02  0.39907290763E+02  0.00000000000E+00 0.  1.
         -2    1    1    2    0  502  0.15130219577E+02  0.16691287074E+02 -0.41738031977E+02  0.47429799936E+02  0.00000000000E+00 0. -1.
<mgrwt>
<rscale>  2 0.22528262E+02</rscale>
<asrwt>0</asrwt>
<pdfrwt beam="1">  1       21 0.97374387E-03 0.22528262E+02</pdfrwt>
<pdfrwt beam="2">  1       21 0.12462731E-01 0.22528262E+02</pdfrwt>
<totfact> 0.14307356E+08</totfact>
</mgrwt>
</event>
<event>
 4    1  0.7165636E+004  0.3701740E+02  0.7546771E-02  0.1531382E+00
         21   -1    0    0  501  502  0.00000000000E+00  0.00000000000E+00  0.20799009945E+04  0.20799009945E+04  0.00000000000E+00 0. -1.
         21   -1    0    0  502  503 -0.00000000000E+00 -0.00000000000E+00 -0.69401109336E+00  0.69401109336E+00  0.00000000000E+00 0. -1.
          3    1    1    2  501    0  0.88939901017E+01 -0.35933060477E+02  0.80535952546E+03  0.80620980715E+03  0.00000000000E+00 0.  1.
         -3    1    1    2    0  503 -0.88939901017E+01  0.35933060477E+02  0.12738474580E+04  0.12743851985E+04  0.00000000000E+00 0. -1.
<mgrwt>
<rscale>  2 0.37017400E+02</rscale>
<asrwt>0</asrwt>
<pdfrwt beam="1">  1       21 0.31997978E+00 0.37017400E+02</pdfrwt>
<pdfrwt beam="2">  1       21 0.10677260E-03 0.37017400E+02</pdfrwt>
<totfact> 0.34837822E+06</totfact>
</mgrwt>
</event>
<event>
 4    1  0.7165636E+004  0.2126764E+02  0.7546771E-02  0.1721234E+00
         21   -1    0    0  503  502  0.00000000000E+00  0.00000000000E+00  0.71877267699E+03  0.71877267699E+03  0.00000000000E+00 0.  1.
         21   -1    0    0  501  503 -0.00000000000E+00 -0.00000000000E+00 -0.63970335887E+00  0.63970335887E+00  0.00000000000E+00 0.  1.
          5    1    1    2  501    0  0.79223633725E+01 -0.19736985823E+02  0.40497256964E+03  0.40553063338E+03  0.00000000000E+00 0.  1.
         -5    1    1    2    0  502 -0.79223633725E+01  0.19736985823E+02  0.31316040399E+03  0.31388174696E+03  0.00000000000E+00 0. -1.
<mgrwt>
<rscale>  2 0.21267639E+02</rscale>
<asrwt>0</asrwt>
<pdfrwt beam="1">  1       21 0.11057977E+00 0.21267639E+02</pdfrwt>
<pdfrwt beam="2">  1       21 0.98416477E-04 0.21267639E+02</pdfrwt>
<totfact> 0.63953701E+07</totfact>
</mgrwt>
</event>
<event>
 4    1  0.7165636E+004  0.2206037E+02  0.7546771E-02  0.1707210E+00
         21   -1    0    0  501  502  0.00000000000E+00  0.00000000000E+00  0.45234693836E+03  0.45234693836E+03  0.00000000000E+00 0.  1.
         21   -1    0    0  502  503 -0.00000000000E+00 -0.00000000000E+00 -0.12045120794E+01  0.12045120794E+01  0.00000000000E+00 0.  1.
          3    1    1    2  501    0  0.64332291382E+01 -0.21101506197E+02  0.29968632415E+03  0.30049717616E+03  0.00000000000E+00 0.  1.
         -3    1    1    2    0  503 -0.64332291382E+01  0.21101506197E+02  0.15145610214E+03  0.15305427428E+03  0.00000000000E+00 0. -1.
<mgrwt>
<rscale>  2 0.22060372E+02</rscale>
<asrwt>0</asrwt>
<pdfrwt beam="1">  1       21 0.69591701E-01 0.22060372E+02</pdfrwt>
<pdfrwt beam="2">  1       21 0.18530991E-03 0.22060372E+02</pdfrwt>
<totfact> 0.69995890E+07</totfact>
</mgrwt>
</event>
<event>
 4    1  0.7165636E+004  0.2070179E+02  0.7546771E-02  0.1731722E+00
         21   -1    0    0  503  502  0.00000000000E+00  0.00000000000E+00  0.46681840886E+01  0.46681840886E+01  0.00000000000E+00 0. -1.
         21   -1    0    0  501  503 -0.00000000000E+00 -0.00000000000E+00 -0.96030565166E+02  0.96030565166E+02  0.00000000000E+00 0. -1.
          5    1    1    2  501    0 -0.20261425916E+02  0.42471825990E+01 -0.56242491771E+02  0.59931476044E+02  0.00000000000E+00 0.  1.
         -5    1    1    2    0  502  0.20261425916E+02 -0.42471825990E+01 -0.35119889306E+02  0.40767273211E+02  0.00000000000E+00 0. -1.
<mgrwt>
<rscale>  2 0.20701786E+02</rscale>
<asrwt>0</asrwt>
<pdfrwt beam="1">  1       21 0.71818217E-03 0.20701786E+02</pdfrwt>
<pdfrwt beam="2">  1       21 0.14773933E-01 0.20701786E+02</pdfrwt>
<totfact> 0.16487369E+08</totfact>
</mgrwt>
</event>
<event>
 4    1  0.7165636E+004  0.4028049E+02  0.7546771E-02  0.1506157E+00
         21   -1    0    0  503  502  0.00000000000E+00  0.00000000000E+00  0.12302783399E+03  0.12302783399E+03  0.00000000000E+00 0. -1.
         21   -1    0    0  501  503 -0.00000000000E+00 -0.00000000000E+00 -0.13310705772E+02  0.13310705772E+02  0.00000000000E+00 0. -1.
          1    1    1    2  501    0  0.19659207174E+02  0.35157266238E+02  0.48319194411E+02  0.62906775030E+02  0.00000000000E+00 0.  1.
         -1    1    1    2    0  502 -0.19659207174E+02 -0.35157266238E+02  0.61397933810E+02  0.73431764736E+02  0.00000000000E+00 0. -1.
<mgrwt>
<rscale>  2 0.40280489E+02</rscale>
<asrwt>0</asrwt>
<pdfrwt beam="1">  1       21 0.18927358E-01 0.40280489E+02</pdfrwt>
<pdfrwt beam="2">  1       21 0.20478010E-02 0.40280489E+02</pdfrwt>
<totfact> 0.25414999E+07</totfact>
</mgrwt>
</event>
<event>
 4    1  0.7165636E+004  0.2032687E+02  0.7546771E-02  0.1738905E+00
         21   -1    0    0  503  502  0.00000000000E+00  0.00000000000E+00  0.33864026621E+03  0.33864026621E+03  0.00000000000E+00 0. -1.
         21   -1    0    0  501  503 -0.00000000000E+00 -0.00000000000E+00 -0.12220589461E+01  0.12220589461E+01  0.00000000000E+00 0. -1.
          5    1    1    2  501    0 -0.13149442135E+02 -0.15500761753E+02  0.17547951456E+03  0.17665288413E+03  0.00000000000E+00 0. -1.
         -5    1    1    2    0  502  0.13149442135E+02  0.15500761753E+02  0.16193869270E+03  0.16320944102E+03  0.00000000000E+00 0.  1.
<mgrwt>
<rscale>  2 0.20326865E+02</rscale>
<asrwt>0</asrwt>
<pdfrwt beam="1">  1       21 0.52098428E-01 0.20326865E+02</pdfrwt>
<pdfrwt beam="2">  1       21 0.18800934E-03 0.20326865E+02</pdfrwt>
<totfact> 0.11951072E+08</totfact>
</mgrwt>
</event>
<event>
 4    1  0.7165636E+004  0.2199869E+02  0.7546771E-02  0.1708275E+00
         21   -1    0    0  503  502  0.00000000000E+00  0.00000000000E+00  0.51593015880E+01  0.51593015880E+01  0.00000000000E+00 0. -1.
         21   -1    0    0  501  503 -0.00000000000E+00 -0.00000000000E+00 -0.99210685316E+02  0.99210685316E+02  0.00000000000E+00 0. -1.
          5    1    1    2  501    0 -0.91886302146E+01 -0.19987785416E+02 -0.34838811991E+02  0.41202976980E+02  0.00000000000E+00 0. -1.
         -5    1    1    2    0  502  0.91886302146E+01  0.19987785416E+02 -0.59212571736E+02  0.63167009923E+02  0.00000000000E+00 0.  1.
<mgrwt>
<rscale>  2 0.21998693E+02</rscale>
<asrwt>0</asrwt>
<pdfrwt beam="1">  1       21 0.79373875E-03 0.21998693E+02</pdfrwt>
<pdfrwt beam="2">  1       21 0.15263182E-01 0.21998693E+02</pdfrwt>
<totfact> 0.13692284E+08</totfact>
</mgrwt>
</event>
<event>
 4    1  0.7165636E+004  0.2053911E+02  0.7546771E-02  0.1734815E+00
         21   -1    0    0  501  502  0.00000000000E+00  0.00000000000E+00  0.16342850563E+01  0.16342850563E+01  0.00000000000E+00 0. -1.
         21   -1    0    0  502  503 -0.00000000000E+00 -0.00000000000E+00 -0.26165973225E+03  0.26165973225E+03  0.00000000000E+00 0. -1.
          4    1    1    2  501    0 -0.87623943241E+01  0.18576212454E+02 -0.11471883283E+03  0.11654297846E+03  0.00000000000E+00 0.  1.
         -4    1    1    2    0  503  0.87623943241E+01 -0.18576212454E+02 -0.14530661436E+03  0.14675103884E+03  0.00000000000E+00 0. -1.
<mgrwt>
<rscale>  2 0.20539114E+02</rscale>
<asrwt>0</asrwt>
<pdfrwt beam="1">  1       21 0.25142836E-03 0.20539114E+02</pdfrwt>
<pdfrwt beam="2">  1       21 0.40255361E-01 0.20539114E+02</pdfrwt>
<totfact> 0.12903666E+08</totfact>
</mgrwt>
</event>
<event>
 4    1  0.7165636E+004  0.3670360E+02  0.7546771E-02  0.1533972E+00
         21   -1    0    0  503  502  0.00000000000E+00  0.00000000000E+00  0.77765186415E+01  0.77765186415E+01  0.00000000000E+00 0.  1.
         21   -1    0    0  501  503 -0.00000000000E+00 -0.00000000000E+00 -0.18827312203E+03  0.18827312203E+03  0.00000000000E+00 0.  1.
          4    1    1    2  501    0 -0.24837816117E+02 -0.27022906382E+02 -0.62543284195E+02  0.72517701127E+02  0.00000000000E+00 0. -1.
         -4    1    1    2    0  502  0.24837816117E+02  0.27022906382E+02 -0.11795331919E+03  0.12353193954E+03  0.00000000000E+00 0.  1.
<mgrwt>
<rscale>  2 0.36703604E+02</rscale>
<asrwt>0</asrwt>
<pdfrwt beam="1">  1       21 0.11963875E-02 0.36703604E+02</pdfrwt>
<pdfrwt beam="2">  1       21 0.28965094E-01 0.36703604E+02</pdfrwt>
<totfact> 0.26649856E+07</totfact>
</mgrwt>
</event>
<event>
 4    1  0.7165636E+004  0.2398673E+02  0.7546771E-02  0.1675997E+00
         21   -1    0    0  503  502  0.00000000000E+00  0.00000000000E+00  0.23935463406E+03  0.23935463406E+03  0.00000000000E+00 0. -1.
         21   -1    0    0  501  503 -0.00000000000E+00 -0.00000000000E+00 -0.24068960656E+01  0.24068960656E+01  0.00000000000E+00 0. -1.
          1    1    1    2  501    0 -0.29266344440E+01 -0.23807524825E+02  0.12280123776E+03  0.12512197018E+03  0.00000000000E+00 0. -1.
         -1    1    1    2    0  502  0.29266344440E+01  0.23807524825E+02  0.11414650023E+03  0.11663955994E+03  0.00000000000E+00 0.  1.
<mgrwt>
<rscale>  2 0.23986734E+02</rscale>
<asrwt>0</asrwt>
<pdfrwt beam="1">  1       21 0.36823771E-01 0.23986734E+02</pdfrwt>
<pdfrwt beam="2">  1       21 0.37029189E-03 0.23986734E+02</pdfrwt>
<totfact> 0.90486388E+07</totfact>
</mgrwt>
</event>
<event>
 4    1  0.7165636E+004  0.2874867E+02  0.7546771E-02  0.1612347E+00
         21   -1    0    0  501  502  0.00000000000E+00  0.00000000000E+00  0.20688206152E+02  0.20688206152E+02  0.00000000000E+00 0. -1.
         21   -1    0    0  502  503 -0.00000000000E+00 -0.00000000000E+00 -0.40052251198E+02  0.40052251198E+02  0.00000000000E+00 0. -1.
          2    1    1    2  501    0 -0.16737621237E+02 -0.23373877380E+02 -0.81447156465E+01  0.29880135565E+02  0.00000000000E+00 0.  1.
         -2    1    1    2    0  503  0.16737621237E+02  0.23373877380E+02 -0.11219329399E+02  0.30860321784E+02  0.00000000000E+00 0. -1.
<mgrwt>
<rscale>  2 0.28748671E+02</rscale>
<asrwt>0</asrwt>
<pdfrwt beam="1">  1       21 0.31828009E-02 0.28748671E+02</pdfrwt>
<pdfrwt beam="2">  1       21 0.61618848E-02 0.28748671E+02</pdfrwt>
<totfact> 0.79279719E+07</totfact>
</mgrwt>
</event>
<event>
 4    1  0.7165636E+004  0.2120479E+02  0.7546771E-02  0.1722379E+00
         21   -1    0    0  503  502  0.00000000000E+00  0.00000000000E+00  0.37413666344E+02  0.37413666344E+02  0.00000000000E+00 0. -1.
         21   -1    0    0  501  503 -0.00000000000E+00 -0.00000000000E+00 -0.12212540952E+02  0.12212540952E+02  0.00000000000E+00 0. -1.
          3    1    1    2  501    0  0.14858041424E+02 -0.15128842525E+02  0.15731033223E+02  0.26402815709E+02  0.00000000000E+00 0. -1.
         -3    1    1    2    0  502 -0.14858041424E+02  0.15128842525E+02  0.94700921695E+01  0.23223391587E+02  0.00000000000E+00 0.  1.
<mgrwt>
<rscale>  2 0.21204794E+02</rscale>
<asrwt>0</asrwt>
<pdfrwt beam="1">  1       21 0.57559486E-02 0.21204794E+02</pdfrwt>
<pdfrwt beam="2">  1       21 0.18788525E-02 0.21204794E+02</pdfrwt>
<totfact> 0.18375289E+08</totfact>
</mgrwt>
</event>
<event>
 4    1  0.7165636E+004  0.2113949E+02  0.7546771E-02  0.1723573E+00
         21   -1    0    0  501  502  0.00000000000E+00  0.00000000000E+00  0.55404685486E+01  0.55404685486E+01  0.00000000000E+00 0.  1.
         21   -1    0    0  502  503 -0.00000000000E+00 -0.00000000000E+00 -0.81830653221E+02  0.81830653221E+02  0.00000000000E+00 0.  1.
          3    1    1    2  501    0 -0.12636378059E+02  0.16946977340E+02 -0.32913517418E+02  0.39117486119E+02  0.00000000000E+00 0. -1.
         -3    1    1    2    0  503  0.12636378059E+02 -0.16946977340E+02 -0.43376667254E+02  0.48253635650E+02  0.00000000000E+00 0.  1.
<mgrwt>
<rscale>  2 0.21139491E+02</rscale>
<asrwt>0</asrwt>
<pdfrwt beam="1">  1       21 0.85237981E-03 0.21139491E+02</pdfrwt>
<pdfrwt beam="2">  1       21 0.12589331E-01 0.21139491E+02</pdfrwt>
<totfact> 0.16838479E+08</totfact>
</mgrwt>
</event>
<event>
 4    1  0.7165636E+004  0.2381340E+02  0.7546771E-02  0.1678655E+00
         21   -1    0    0  501  502  0.00000000000E+00  0.00000000000E+00  0.45139791017E+03  0.45139791017E+03  0.00000000000E+00 0. -1.
         21   -1    0    0  502  503 -0.00000000000E+00 -0.00000000000E+00 -0.13579550875E+01  0.13579550875E+01  0.00000000000E+00 0. -1.
          3    1    1    2  501    0 -0.72278112282E+01  0.22690009468E+02  0.16307310374E+03  0.16480265455E+03  0.00000000000E+00 0. -1.
         -3    1    1    2    0  503  0.72278112282E+01 -0.22690009468E+02  0.28696685135E+03  0.28795321071E+03  0.00000000000E+00 0.  1.
<mgrwt>
<rscale>  2 0.23813395E+02</rscale>
<asrwt>0</asrwt>
<pdfrwt beam="1">  1       21 0.69445713E-01 0.23813395E+02</pdfrwt>
<pdfrwt beam="2">  1       21 0.20891653E-03 0.23813395E+02</pdfrwt>
<totfact> 0.60211675E+07</totfact>
</mgrwt>
</event>
<event>
 4    1  0.7165636E+004  0.2820487E+02  0.7546771E-02  0.1618823E+00
         21   -1    0    0  501  502  0.00000000000E+00  0.00000000000E+00  0.13901095335E+02  0.13901095335E+02  0.00000000000E+00 0. -1.
         21   -1    0    0  502  503 -0.00000000000E+00 -0.00000000000E+00 -0.65896046712E+02  0.65896046712E+02  0.00000000000E+00 0. -1.
          4    1    1    2  501    0 -0.19813102176E+02 -0.20073761567E+02 -0.11525799078E+02  0.30468983667E+02  0.00000000000E+00 0. -1.
         -4    1    1    2    0  503  0.19813102176E+02  0.20073761567E+02 -0.40469152299E+02  0.49328158380E+02  0.00000000000E+00 0.  1.
<mgrwt>
<rscale>  2 0.28204874E+02</rscale>
<asrwt>0</asrwt>
<pdfrwt beam="1">  1       21 0.21386301E-02 0.28204874E+02</pdfrwt>
<pdfrwt beam="2">  1       21 0.10137853E-01 0.28204874E+02</pdfrwt>
<totfact> 0.64717162E+07</totfact>
</mgrwt>
</event>
<event>
 4    1  0.7165636E+004  0.2344337E+02  0.7546771E-02  0.1684422E+00
         21   -1    0    0  501  502  0.00000000000E+00  0.00000000000E+00  0.50112099793E+01  0.50112099793E+01  0.00000000000E+00 0. -1.
         21   -1    0    0  502  503 -0.00000000000E+00 -0.00000000000E+00 -0.15212749610E+03  0.15212749610E+03  0.00000000000E+00 0. -1.
          1    1    1    2  501    0 -0.22770758214E+02 -0.55753103986E+01 -0.11506445449E+03  0.11742836200E+03  0.00000000000E+00 0.  1.
         -1    1    1    2    0  503  0.22770758214E+02  0.55753103986E+01 -0.32051831628E+02  0.39710344073E+02  0.00000000000E+00 0. -1.
<mgrwt>
<rscale>  2 0.23443368E+02</rscale>
<asrwt>0</asrwt>
<pdfrwt beam="1">  1       21 0.77095545E-03 0.23443368E+02</pdfrwt>
<pdfrwt beam="2">  1       21 0.23404228E-01 0.23443368E+02</pdfrwt>
<totfact> 0.69307205E+07</totfact>
</mgrwt>
</event>
<event>
 4    1  0.7165636E+004  0.2017647E+02  0.7546771E-02  0.1741841E+00
         21   -1    0    0  501  502  0.00000000000E+00  0.00000000000E+00  0.17950635935E+02  0.17950635935E+02  0.00000000000E+00 0.  1.
         21   -1    0    0  502  503 -0.00000000000E+00 -0.00000000000E+00 -0.22800555683E+02  0.22800555683E+02  0.00000000000E+00 0.  1.
          5    1    1    2  501    0 -0.13400463806E+02 -0.15083687657E+02 -0.39169179805E+01  0.20553158152E+02  0.00000000000E+00 0. -1.
         -5    1    1    2    0  503  0.13400463806E+02  0.15083687657E+02 -0.93300176756E+00  0.20198033465E+02  0.00000000000E+00 0.  1.
<mgrwt>
<rscale>  2 0.20176473E+02</rscale>
<asrwt>0</asrwt>
<pdfrwt beam="1">  1       21 0.27616363E-02 0.20176473E+02</pdfrwt>
<pdfrwt beam="2">  1       21 0.35077778E-02 0.20176473E+02</pdfrwt>
<totfact> 0.21866089E+08</totfact>
</mgrwt>
</event>
<event>
 4    1  0.7165636E+004  0.2999019E+02  0.7546771E-02  0.1598197E+00
         21   -1    0    0  503  502  0.00000000000E+00  0.00000000000E+00  0.43542046503E+01  0.43542046503E+01  0.00000000000E+00 0.  1.
         21   -1    0    0  501  503 -0.00000000000E+00 -0.00000000000E+00 -0.24316760264E+03  0.24316760264E+03  0.00000000000E+00 0.  1.
          2    1    1    2  501    0 -0.29877248840E+02  0.26003050191E+01 -0.71388416173E+02  0.77432018882E+02  0.00000000000E+00 0.  1.
         -2    1    1    2    0  502  0.29877248840E+02 -0.26003050191E+01 -0.16742498182E+03  0.17008978841E+03  0.00000000000E+00 0. -1.
<mgrwt>
<rscale>  2 0.29990191E+02</rscale>
<asrwt>0</asrwt>
<pdfrwt beam="1">  1       21 0.66987732E-03 0.29990191E+02</pdfrwt>
<pdfrwt beam="2">  1       21 0.37410418E-01 0.29990191E+02</pdfrwt>
<totfact> 0.38366493E+07</totfact>
</mgrwt>
</event>
<event>
 4    1  0.7165636E+004  0.4506322E+02  0.7546771E-02  0.1473947E+00
         21   -1    0    0  501  502  0.00000000000E+00  0.00000000000E+00  0.10172308079E+04  0.10172308079E+04  0.00000000000E+00 0.  1.
         21   -1    0    0  502  503 -0.00000000000E+00 -0.00000000000E+00 -0.20089503374E+01  0.20089503374E+01  0.00000000000E+00 0.  1.
          5    1    1    2  501    0 -0.29240463164E+02 -0.34288328321E+02  0.54805692365E+03  0.54990643359E+03  0.00000000000E+00 0. -1.
         -5    1    1    2    0  503  0.29240463164E+02  0.34288328321E+02  0.46716493388E+03  0.46933332461E+03  0.00000000000E+00 0.  1.
<mgrwt>
<rscale>  2 0.45063224E+02</rscale>
<asrwt>0</asrwt>
<pdfrwt beam="1">  1       21 0.15649664E+00 0.45063224E+02</pdfrwt>
<pdfrwt beam="2">  1       21 0.30907009E-03 0.45063224E+02</pdfrwt>
<totfact> 0.59901367E+06</totfact>
</mgrwt>
</event>
<event>
 4    1  0.7165636E+004  0.4408601E+02  0.7546771E-02  0.1480129E+00
         21   -1    0    0  503  502  0.00000000000E+00  0.00000000000E+00  0.74134578954E+01  0.74134578954E+01  0.00000000000E+00 0.  1.
         21   -1    0    0  501  503 -0.00000000000E+00 -0.00000000000E+00 -0.27367742039E+03  0.27367742039E+03  0.00000000000E+00 0.  1.
          2    1    1    2  501    0 -0.40174972488E+02 -0.18153453438E+02 -0.10431080910E+03  0.11324451943E+03  0.00000000000E+00 0.  1.
         -2    1    1    2    0  502  0.40174972488E+02  0.18153453438E+02 -0.16195315340E+03  0.16784635886E+03  0.00000000000E+00 0. -1.
<mgrwt>
<rscale>  2 0.44086010E+02</rscale>
<asrwt>0</asrwt>
<pdfrwt beam="1">  1       21 0.11405319E-02 0.44086010E+02</pdfrwt>
<pdfrwt beam="2">  1       21 0.42104222E-01 0.44086010E+02</pdfrwt>
<totfact> 0.14514453E+07</totfact>
</mgrwt>
</event>
<event>
 4    1  0.7165636E+004  0.2504742E+02  0.7546771E-02  0.1660322E+00
         21   -1    0    0  501  502  0.00000000000E+00  0.00000000000E+00  0.15255793003E+02  0.15255793003E+02  0.00000000000E+00 0.  1.
         21   -1    0    0  502  503 -0.00000000000E+00 -0.00000000000E+00 -0.47893147832E+02  0.47893147832E+02  0.00000000000E+00 0.  1.
          2    1    1    2  501    0  0.75158183163E+01 -0.23893218155E+02 -0.44479140545E+01  0.25439287297E+02  0.00000000000E+00 0. -1.
         -2    1    1    2    0  503 -0.75158183163E+01  0.23893218155E+02 -0.28189440775E+02  0.37709653538E+02  0.00000000000E+00 0.  1.
<mgrwt>
<rscale>  2 0.25047423E+02</rscale>
<asrwt>0</asrwt>
<pdfrwt beam="1">  1       21 0.23470451E-02 0.25047423E+02</pdfrwt>
<pdfrwt beam="2">  1       21 0.73681765E-02 0.25047423E+02</pdfrwt>
<totfact> 0.92047926E+07</totfact>
</mgrwt>
</event>
<event>
 4    1  0.7165636E+004  0.2075593E+02  0.7546771E-02  0.1730700E+00
         21   -1    0    0  503  502  0.00000000000E+00  0.00000000000E+00  0.47708369922E+01  0.47708369922E+01  0.00000000000E+00 0. -1.
         21   -1    0    0  501  503 -0.00000000000E+00 -0.00000000000E+00 -0.12377211553E+03  0.12377211553E+03  0.00000000000E+00 0. -1.
          5    1    1    2  501    0  0.50090260007E+01  0.20142448639E+02 -0.92923662600E+02  0.95213526610E+02  0.00000000000E+00 0.  1.
         -5    1    1    2    0  502 -0.50090260007E+01 -0.20142448639E+02 -0.26077615943E+02  0.33329425917E+02  0.00000000000E+00 0. -1.
<mgrwt>
<rscale>  2 0.20755929E+02</rscale>
<asrwt>0</asrwt>
<pdfrwt beam="1">  1       21 0.73397499E-03 0.20755929E+02</pdfrwt>
<pdfrwt beam="2">  1       21 0.19041862E-01 0.20755929E+02</pdfrwt>
<totfact> 0.10350429E+08</totfact>
</mgrwt>
</event>
<event>
 4    1  0.7165636E+004  0.4185199E+02  0.7546771E-02  0.1495009E+00
         21   -1    0    0  501  502  0.00000000000E+00  0.00000000000E+00  0.19694804492E+02  0.19694804492E+02  0.00000000000E+00 0. -1.
         21   -1    0    0  502  503 -0.00000000000E+00 -0.00000000000E+00 -0.91857240270E+02  0.91857240270E+02  0.00000000000E+00 0. -1.
          2    1    1    2  501    0  0.24186256208E+02  0.34155734819E+02 -0.46026769858E+02  0.62209748062E+02  0.00000000000E+00 0. -1.
         -2    1    1    2    0  503 -0.24186256208E+02 -0.34155734819E+02 -0.26135665920E+02  0.49342296699E+02  0.00000000000E+00 0.  1.
<mgrwt>
<rscale>  2 0.41851992E+02</rscale>
<asrwt>0</asrwt>
<pdfrwt beam="1">  1       21 0.30299700E-02 0.41851992E+02</pdfrwt>
<pdfrwt beam="2">  1       21 0.14131883E-01 0.41851992E+02</pdfrwt>
<totfact> 0.23009822E+07</totfact>
</mgrwt>
</event>
<event>
 4    1  0.7165636E+004  0.2053519E+02  0.7546771E-02  0.1734890E+00
         21   -1    0    0  501  502  0.00000000000E+00  0.00000000000E+00  0.10326953342E+03  0.10326953342E+03  0.00000000000E+00 0.  1.
         21   -1    0    0  502  503 -0.00000000000E+00 -0.00000000000E+00 -0.48607288485E+01  0.48607288485E+01  0.00000000000E+00 0.  1.
          2    1    1    2  501    0 -0.14564425662E+02  0.14476588601E+02  0.70824618373E+02  0.73741580401E+02  0.00000000000E+00 0. -1.
         -2    1    1    2    0  503  0.14564425662E+02 -0.14476588601E+02  0.27584186200E+02  0.34388681869E+02  0.00000000000E+00 0.  1.
<mgrwt>
<rscale>  2 0.20535192E+02</rscale>
<asrwt>0</asrwt>
<pdfrwt beam="1">  1       21 0.15887619E-01 0.20535192E+02</pdfrwt>
<pdfrwt beam="2">  1       21 0.74780452E-03 0.20535192E+02</pdfrwt>
<totfact> 0.13692226E+08</totfact>
</mgrwt>
</event>
<event>
 4    1  0.7165636E+004  0.2720978E+02  0.7546771E-02  0.1631151E+00
         21   -1    0    0  501  502  0.00000000000E+00  0.00000000000E+00  0.15288442140E+02  0.15288442140E+02  0.00000000000E+00 0. -1.
         21   -1    0    0  502  503 -0.00000000000E+00 -0.00000000000E+00 -0.56034065013E+02  0.56034065013E+02  0.00000000000E+00 0. -1.
          5    1    1    2  501    0  0.22891870194E+02  0.14708318143E+02 -0.33512378439E+02  0.43167717709E+02  0.00000000000E+00 0. -1.
         -5    1    1    2    0  503 -0.22891870194E+02 -0.14708318143E+02 -0.72332444344E+01  0.28154789444E+02  0.00000000000E+00 0.  1.
<mgrwt>
<rscale>  2 0.27209784E+02</rscale>
<asrwt>0</asrwt>
<pdfrwt beam="1">  1       21 0.23520680E-02 0.27209784E+02</pdfrwt>
<pdfrwt beam="2">  1       21 0.86206255E-02 0.27209784E+02</pdfrwt>
<totfact> 0.72436879E+07</totfact>
</mgrwt>
</event>
<event>
 4    1  0.7165636E+004  0.2623457E+02  0.7546771E-02  0.1643877E+00
         21   -1    0    0  503  502  0.00000000000E+00  0.00000000000E+00  0.27661996414E+03  0.27661996414E+03  0.00000000000E+00 0.  1.
         21   -1    0    0  501  503 -0.00000000000E+00 -0.00000000000E+00 -0.24881113553E+01  0.24881113553E+01  0.00000000000E+00 0.  1.
          5    1    1    2  501    0 -0.13793427724E+02 -0.22315782031E+02  0.13657555985E+03  0.13907241396E+03  0.00000000000E+00 0. -1.
         -5    1    1    2    0  502  0.13793427724E+02  0.22315782031E+02  0.13755629293E+03  0.14003566154E+03  0.00000000000E+00 0.  1.
<mgrwt>
<rscale>  2 0.26234572E+02</rscale>
<asrwt>0</asrwt>
<pdfrwt beam="1">  1       21 0.42556893E-01 0.26234572E+02</pdfrwt>
<pdfrwt beam="2">  1       21 0.38278658E-03 0.26234572E+02</pdfrwt>
<totfact> 0.66998474E+07</totfact>
</mgrwt>
</event>
<event>
 4    1  0.7165636E+004  0.2180235E+02  0.7546771E-02  0.1711693E+00
         21   -1    0    0  503  502  0.00000000000E+00  0.00000000000E+00  0.80643960997E+02  0.80643960997E+02  0.00000000000E+00 0.  1.
         21   -1    0    0  501  503 -0.00000000000E+00 -0.00000000000E+00 -0.59800818579E+01  0.59800818579E+01  0.00000000000E+00 0.  1.
          3    1    1    2  501    0 -0.71061239107E+01 -0.20611779720E+02  0.42518338626E+02  0.47782335436E+02  0.00000000000E+00 0. -1.
         -3    1    1    2    0  502  0.71061239107E+01  0.20611779720E+02  0.32145540513E+02  0.38841707418E+02  0.00000000000E+00 0.  1.
<mgrwt>
<rscale>  2 0.21802350E+02</rscale>
<asrwt>0</asrwt>
<pdfrwt beam="1">  1       21 0.12406762E-01 0.21802350E+02</pdfrwt>
<pdfrwt beam="2">  1       21 0.92001265E-03 0.21802350E+02</pdfrwt>
<totfact> 0.15541525E+08</totfact>
</mgrwt>
</event>
<event>
 4    1  0.7165636E+004  0.2656886E+02  0.7546771E-02  0.1639439E+00
         21   -1    0    0  503  502  0.00000000000E+00  0.00000000000E+00  0.71331200258E+02  0.71331200258E+02  0.00000000000E+00 0.  1.
         21   -1    0    0  501  503 -0.00000000000E+00 -0.00000000000E+00 -0.99137077088E+01  0.99137077088E+01  0.00000000000E+00 0.  1.
          1    1    1    2  501    0 -0.24665828578E+02  0.98742827219E+01  0.28999401055E+02  0.39330265957E+02  0.00000000000E+00 0.  1.
         -1    1    1    2    0  502  0.24665828578E+02 -0.98742827219E+01  0.32418091494E+02  0.41914642010E+02  0.00000000000E+00 0. -1.
<mgrwt>
<rscale>  2 0.26568864E+02</rscale>
<asrwt>0</asrwt>
<pdfrwt beam="1">  1       21 0.10974031E-01 0.26568864E+02</pdfrwt>
<pdfrwt beam="2">  1       21 0.15251858E-02 0.26568864E+02</pdfrwt>
<totfact> 0.93955211E+07</totfact>
</mgrwt>
</event>
<event>
 4    1  0.7165636E+004  0.2861879E+02  0.7546771E-02  0.1613878E+00
         21   -1    0    0  501  502  0.00000000000E+00  0.00000000000E+00  0.35793272705E+02  0.35793272705E+02  0.00000000000E+00 0.  1.
         21   -1    0    0  502  503 -0.00000000000E+00 -0.00000000000E+00 -0.23651999028E+02  0.23651999028E+02  0.00000000000E+00 0.  1.
          5    1    1    2  501    0  0.28590653995E+02  0.12687421520E+01  0.70906900194E+00  0.28627573794E+02  0.00000000000E+00 0. -1.
         -5    1    1    2    0  503 -0.28590653995E+02 -0.12687421520E+01  0.11432204675E+02  0.30817697938E+02  0.00000000000E+00 0.  1.
<mgrwt>
<rscale>  2 0.28618791E+02</rscale>
<asrwt>0</asrwt>
<pdfrwt beam="1">  1       21 0.55066573E-02 0.28618791E+02</pdfrwt>
<pdfrwt beam="2">  1       21 0.36387691E-02 0.28618791E+02</pdfrwt>
<totfact> 0.76893095E+07</totfact>
</mgrwt>
</event>
<event>
 4    1  0.7165636E+004  0.2003727E+02  0.7546771E-02  0.1744588E+00
         21   -1    0    0  501  502  0.00000000000E+00  0.00000000000E+00  0.43108519550E+01  0.43108519550E+01  0.00000000000E+00 0. -1.
         21   -1    0    0  502  503 -0.00000000000E+00 -0.00000000000E+00 -0.97324578947E+02  0.97324578947E+02  0.00000000000E+00 0. -1.
          1    1    1    2  501    0  0.18285028334E+02 -0.81944956776E+01 -0.35963500593E+02  0.41168742942E+02  0.00000000000E+00 0. -1.
         -1    1    1    2    0  503 -0.18285028334E+02  0.81944956776E+01 -0.57050226399E+02  0.60466687960E+02  0.00000000000E+00 0.  1.
<mgrwt>
<rscale>  2 0.20037266E+02</rscale>
<asrwt>0</asrwt>
<pdfrwt beam="1">  1       21 0.66320806E-03 0.20037266E+02</pdfrwt>
<pdfrwt beam="2">  1       21 0.14973011E-01 0.20037266E+02</pdfrwt>
<totfact> 0.17950351E+08</totfact>
</mgrwt>
</event>
<event>
 4    1  0.7165636E+004  0.2572022E+02  0.7546771E-02  0.1650867E+00
         21   -1    0    0  503  502  0.00000000000E+00  0.00000000000E+00  0.16529256558E+02  0.16529256558E+02  0.00000000000E+00 0.  1.
         21   -1    0    0  501  503 -0.00000000000E+00 -0.00000000000E+00 -0.50534363271E+02  0.50534363271E+02  0.00000000000E+00 0.  1.
          3    1    1    2  501    0  0.25233927470E+02 -0.49778340378E+01 -0.32296471052E+02  0.41286704515E+02  0.00000000000E+00 0.  1.
         -3    1    1    2    0  502 -0.25233927470E+02  0.49778340378E+01 -0.17086356616E+01  0.25776915314E+02  0.00000000000E+00 0. -1.
<mgrwt>
<rscale>  2 0.25720224E+02</rscale>
<asrwt>0</asrwt>
<pdfrwt beam="1">  1       21 0.25429626E-02 0.25720224E+02</pdfrwt>
<pdfrwt beam="2">  1       21 0.77745174E-02 0.25720224E+02</pdfrwt>
<totfact> 0.74972968E+07</totfact>
</mgrwt>
</event>
<event>
 4    1  0.7165636E+004  0.2399452E+02  0.7546771E-02  0.1675878E+00
         21   -1    0    0  503  502  0.00000000000E+00  0.00000000000E+00  0.93843291034E+02  0.93843291034E+02  0.00000000000E+00 0. -1.
         21   -1    0    0  501  503 -0.00000000000E+00 -0.00000000000E+00 -0.62219791236E+01  0.62219791236E+01  0.00000000000E+00 0. -1.
          2    1    1    2  501    0 -0.22403168230E+02 -0.85927442582E+01  0.37898206565E+02  0.44855448515E+02  0.00000000000E+00 0.  1.
         -2    1    1    2    0  502  0.22403168230E+02  0.85927442582E+01  0.49723105345E+02  0.55209821642E+02  0.00000000000E+00 0. -1.
<mgrwt>
<rscale>  2 0.23994524E+02</rscale>
<asrwt>0</asrwt>
<pdfrwt beam="1">  1       21 0.14437428E-01 0.23994524E+02</pdfrwt>
<pdfrwt beam="2">  1       21 0.95722763E-03 0.23994524E+02</pdfrwt>
<totfact> 0.11662026E+08</totfact>
</mgrwt>
</event>
<event>
 4    1  0.7165636E+004  0.2263659E+02  0.7546771E-02  0.1697470E+00
         21   -1    0    0  501  502  0.00000000000E+00  0.00000000000E+00  0.73775392337E+01  0.73775392337E+01  0.00000000000E+00 0. -1.
         21   -1    0    0  502  503 -0.00000000000E+00 -0.00000000000E+00 -0.69766005393E+02  0.69766005393E+02  0.00000000000E+00 0. -1.
          5    1    1    2  501    0 -0.18225520733E+02  0.13425549418E+02 -0.33765064458E+02  0.40650886350E+02  0.00000000000E+00 0.  1.
         -5    1    1    2    0  503  0.18225520733E+02 -0.13425549418E+02 -0.28623401701E+02  0.36492658276E+02  0.00000000000E+00 0. -1.
<mgrwt>
<rscale>  2 0.22636585E+02</rscale>
<asrwt>0</asrwt>
<pdfrwt beam="1">  1       21 0.11350061E-02 0.22636585E+02</pdfrwt>
<pdfrwt beam="2">  1       21 0.10733231E-01 0.22636585E+02</pdfrwt>
<totfact> 0.14602365E+08</totfact>
</mgrwt>
</event>
<event>
 4    1  0.7165636E+004  0.2631022E+02  0.7546771E-02  0.1642866E+00
         21   -1    0    0  501  502  0.00000000000E+00  0.00000000000E+00  0.51572061887E+02  0.51572061887E+02  0.00000000000E+00 0.  1.
         21   -1    0    0  502  503 -0.00000000000E+00 -0.00000000000E+00 -0.13464572612E+02  0.13464572612E+02  0.00000000000E+00 0.  1.
          2    1    1    2  501    0 -0.20869966135E+02 -0.16020989048E+02  0.17236665885E+02  0.31453620259E+02  0.00000000000E+00 0.  1.
         -2    1    1    2    0  503  0.20869966135E+02  0.16020989048E+02  0.20870823390E+02  0.33583014241E+02  0.00000000000E+00 0. -1.
<mgrwt>
<rscale>  2 0.26310218E+02</rscale>
<asrwt>0</asrwt>
<pdfrwt beam="1">  1       21 0.79341633E-02 0.26310218E+02</pdfrwt>
<pdfrwt beam="2">  1       21 0.20714727E-02 0.26310218E+02</pdfrwt>
<totfact> 0.10021241E+08</totfact>
</mgrwt>
</event>
<event>
 4    1  0.7165636E+004  0.2584610E+02  0.7546771E-02  0.1649138E+00
         21   -1    0    0  501  502  0.00000000000E+00  0.00000000000E+00  0.54968350785E+02  0.54968350785E+02  0.00000000000E+00 0.  1.
         21   -1    0    0  502  503 -0.00000000000E+00 -0.00000000000E+00 -0.12320004195E+02  0.12320004195E+02  0.00000000000E+00 0.  1.
          1    1    1    2  501    0 -0.10190707026E+02  0.23752269826E+02  0.17405007658E+02  0.31160152810E+02  0.00000000000E+00 0.  1.
         -1    1    1    2    0  503  0.10190707026E+02 -0.23752269826E+02  0.25243338932E+02  0.36128202170E+02  0.00000000000E+00 0. -1.
<mgrwt>
<rscale>  2 0.25846099E+02</rscale>
<asrwt>0</asrwt>
<pdfrwt beam="1">  1       21 0.84566692E-02 0.25846099E+02</pdfrwt>
<pdfrwt beam="2">  1       21 0.18953853E-02 0.25846099E+02</pdfrwt>
<totfact> 0.10300451E+08</totfact>
</mgrwt>
</event>
<event>
 4    1  0.7165636E+004  0.2102963E+02  0.7546771E-02  0.1725595E+00
         21   -1    0    0  501  502  0.00000000000E+00  0.00000000000E+00  0.47287900188E+02  0.47287900188E+02  0.00000000000E+00 0.  1.
         21   -1    0    0  502  503 -0.00000000000E+00 -0.00000000000E+00 -0.98022668107E+01  0.98022668107E+01  0.00000000000E+00 0.  1.
          5    1    1    2  501    0  0.19451131559E+02  0.79936697950E+01  0.12626176654E+02  0.24528873040E+02  0.00000000000E+00 0.  1.
         -5    1    1    2    0  503 -0.19451131559E+02 -0.79936697950E+01  0.24859456724E+02  0.32561293959E+02  0.00000000000E+00 0. -1.
<mgrwt>
<rscale>  2 0.21029629E+02</rscale>
<asrwt>0</asrwt>
<pdfrwt beam="1">  1       21 0.72750614E-02 0.21029629E+02</pdfrwt>
<pdfrwt beam="2">  1       21 0.15080411E-02 0.21029629E+02</pdfrwt>
<totfact> 0.17572254E+08</totfact>
</mgrwt>
</event>
<event>
 4    1  0.7165636E+004  0.2451762E+02  0.7546771E-02  0.1668029E+00
         21   -1    0    0  503  502  0.00000000000E+00  0.00000000000E+00  0.53264952884E+01  0.53264952884E+01  0.00000000000E+00 0. -1.
         21   -1    0    0  501  503 -0.00000000000E+00 -0.00000000000E+00 -0.11623395349E+03  0.11623395349E+03  0.00000000000E+00 0. -1.
          2    1    1    2  501    0  0.23465372207E+02  0.71056402460E+01 -0.65819010692E+02  0.70237141062E+02  0.00000000000E+00 0.  1.
         -2    1    1    2    0  502 -0.23465372207E+02 -0.71056402460E+01 -0.45088447514E+02  0.51323307720E+02  0.00000000000E+00 0. -1.
<mgrwt>
<rscale>  2 0.24517623E+02</rscale>
<asrwt>0</asrwt>
<pdfrwt beam="1">  1       21 0.81946090E-03 0.24517623E+02</pdfrwt>
<pdfrwt beam="2">  1       21 0.17882145E-01 0.24517623E+02</pdfrwt>
<totfact> 0.10258910E+08</totfact>
</mgrwt>
</event>
<event>
 4    1  0.7165636E+004  0.3611807E+02  0.7546771E-02  0.1538890E+00
         21   -1    0    0  503  502  0.00000000000E+00  0.00000000000E+00  0.10171717583E+03  0.10171717583E+03  0.00000000000E+00 0. -1.
         21   -1    0    0  501  503 -0.00000000000E+00 -0.00000000000E+00 -0.15432523706E+02  0.15432523706E+02  0.00000000000E+00 0. -1.
          4    1    1    2  501    0  0.19660306554E+02  0.30298304857E+02  0.67219929971E+02  0.76308806283E+02  0.00000000000E+00 0.  1.
         -4    1    1    2    0  502 -0.19660306554E+02 -0.30298304857E+02  0.19064722157E+02  0.40840893256E+02  0.00000000000E+00 0. -1.
<mgrwt>
<rscale>  2 0.36118069E+02</rscale>
<asrwt>0</asrwt>
<pdfrwt beam="1">  1       21 0.15648796E-01 0.36118069E+02</pdfrwt>
<pdfrwt beam="2">  1       21 0.23742345E-02 0.36118069E+02</pdfrwt>
<totfact> 0.27638597E+07</totfact>
</mgrwt>
</event>
<event>
 4    1  0.7165636E+004  0.2221801E+02  0.7546771E-02  0.1704509E+00
         21   -1    0    0  501  502  0.00000000000E+00  0.00000000000E+00  0.90805101659E+01  0.90805101659E+01  0.00000000000E+00 0. -1.
         21   -1    0    0  502  503 -0.00000000000E+00 -0.00000000000E+00 -0.54410908208E+02  0.54410908208E+02  0.00000000000E+00 0. -1.
          1    1    1    2  501    0  0.22187977740E+02 -0.11548748423E+01 -0.21719229425E+02  0.31070323766E+02  0.00000000000E+00 0.  1.
         -1    1    1    2    0  503 -0.22187977740E+02  0.11548748423E+01 -0.23611168618E+02  0.32421094608E+02  0.00000000000E+00 0. -1.
<mgrwt>
<rscale>  2 0.22218013E+02</rscale>
<asrwt>0</asrwt>
<pdfrwt beam="1">  1       21 0.13970016E-02 0.22218013E+02</pdfrwt>
<pdfrwt beam="2">  1       21 0.83709086E-02 0.22218013E+02</pdfrwt>
<totfact> 0.15977911E+08</totfact>
</mgrwt>
</event>
<event>
 4    1  0.7165636E+004  0.2047982E+02  0.7546771E-02  0.1735951E+00
         21   -1    0    0  503  502  0.00000000000E+00  0.00000000000E+00  0.28567452011E+01  0.28567452011E+01  0.00000000000E+00 0. -1.
         21   -1    0    0  501  503 -0.00000000000E+00 -0.00000000000E+00 -0.33388983851E+03  0.33388983851E+03  0.00000000000E+00 0. -1.
          2    1    1    2  501    0  0.39047077070E+01  0.20104140131E+02 -0.29154690432E+03  0.29226532571E+03  0.00000000000E+00 0.  1.
         -2    1    1    2    0  502 -0.39047077070E+01 -0.20104140131E+02 -0.39486188989E+02  0.44481258003E+02  0.00000000000E+00 0. -1.
<mgrwt>
<rscale>  2 0.20479824E+02</rscale>
<asrwt>0</asrwt>
<pdfrwt beam="1">  1       21 0.43949941E-03 0.20479824E+02</pdfrwt>
<pdfrwt beam="2">  1       21 0.51367650E-01 0.20479824E+02</pdfrwt>
<totfact> 0.35933206E+07</totfact>
</mgrwt>
</event>
<event>
 4    1  0.7165636E+004  0.2280867E+02  0.7546771E-02  0.1694630E+00
         21   -1    0    0  501  502  0.00000000000E+00  0.00000000000E+00  0.32310541676E+01  0.32310541676E+01  0.00000000000E+00 0.  1.
         21   -1    0    0  502  503 -0.00000000000E+00 -0.00000000000E+00 -0.20217658621E+03  0.20217658621E+03  0.00000000000E+00 0.  1.
          2    1    1    2  501    0 -0.59940558830E+00  0.22800794258E+02 -0.14581616929E+03  0.14758926361E+03  0.00000000000E+00 0. -1.
         -2    1    1    2    0  503  0.59940558830E+00 -0.22800794258E+02 -0.53129362757E+02  0.57818376775E+02  0.00000000000E+00 0.  1.
<mgrwt>
<rscale>  2 0.22808672E+02</rscale>
<asrwt>0</asrwt>
<pdfrwt beam="1">  1       21 0.49708516E-03 0.22808672E+02</pdfrwt>
<pdfrwt beam="2">  1       21 0.31104096E-01 0.22808672E+02</pdfrwt>
<totfact> 0.79107529E+07</totfact>
</mgrwt>
</event>
<event>
 4    1  0.7165636E+004  0.3435246E+02  0.7546771E-02  0.1554427E+00
         21   -1    0    0  503  502  0.00000000000E+00  0.00000000000E+00  0.10915071479E+03  0.10915071479E+03  0.00000000000E+00 0.  1.
         21   -1    0    0  501  503 -0.00000000000E+00 -0.00000000000E+00 -0.13181647251E+02  0.13181647251E+02  0.00000000000E+00 0.  1.
          2    1    1    2  501    0 -0.41800927439E+01 -0.34097185861E+02  0.22048281889E+02  0.40819333572E+02  0.00000000000E+00 0. -1.
         -2    1    1    2    0  502  0.41800927439E+01  0.34097185861E+02  0.73920785646E+02  0.81513028465E+02  0.00000000000E+00 0.  1.
<mgrwt>
<rscale>  2 0.34352456E+02</rscale>
<asrwt>0</asrwt>
<pdfrwt beam="1">  1       21 0.16792417E-01 0.34352456E+02</pdfrwt>
<pdfrwt beam="2">  1       21 0.20279458E-02 0.34352456E+02</pdfrwt>
<totfact> 0.30982175E+07</totfact>
</mgrwt>
</event>
<event>
 4    1  0.7165636E+004  0.2112672E+02  0.7546771E-02  0.1723808E+00
         21   -1    0    0  503  502  0.00000000000E+00  0.00000000000E+00  0.36714900321E+03  0.36714900321E+03  0.00000000000E+00 0. -1.
         21   -1    0    0  501  503 -0.00000000000E+00 -0.00000000000E+00 -0.13203915357E+01  0.13203915357E+01  0.00000000000E+00 0. -1.
          1    1    1    2  501    0 -0.19950369708E+02  0.69513321670E+01  0.23479464498E+03  0.23574321535E+03  0.00000000000E+00 0.  1.
         -1    1    1    2    0  502  0.19950369708E+02 -0.69513321670E+01  0.13103396669E+03  0.13272617939E+03  0.00000000000E+00 0. -1.
<mgrwt>
<rscale>  2 0.21126719E+02</rscale>
<asrwt>0</asrwt>
<pdfrwt beam="1">  1       21 0.56484381E-01 0.21126719E+02</pdfrwt>
<pdfrwt beam="2">  1       21 0.20313745E-03 0.21126719E+02</pdfrwt>
<totfact> 0.92226671E+07</totfact>
</mgrwt>
</event>
<event>
 4    1  0.7165636E+004  0.2321644E+02  0.7546771E-02  0.1688025E+00
         21   -1    0    0  501  502  0.00000000000E+00  0.00000000000E+00  0.26503587585E+02  0.26503587585E+02  0.00000000000E+00 0. -1.
         21   -1    0    0  502  503 -0.00000000000E+00 -0.00000000000E+00 -0.22531408424E+02  0.22531408424E+02  0.00000000000E+00 0. -1.
          5    1    1    2  501    0 -0.20135996157E+01  0.23128958620E+02 -0.56653168446E+01  0.23897680331E+02  0.00000000000E+00 0. -1.
         -5    1    1    2    0  503  0.20135996157E+01 -0.23128958620E+02  0.96374960056E+01  0.25137315678E+02  0.00000000000E+00 0.  1.
<mgrwt>
<rscale>  2 0.23216445E+02</rscale>
<asrwt>0</asrwt>
<pdfrwt beam="1">  1       21 0.40774750E-02 0.23216445E+02</pdfrwt>
<pdfrwt beam="2">  1       21 0.34663705E-02 0.23216445E+02</pdfrwt>
<totfact> 0.12670983E+08</totfact>
</mgrwt>
</event>
<event>
 4    1  0.7165636E+004  0.3122352E+02  0.7546771E-02  0.1584945E+00
         21   -1    0    0  503  502  0.00000000000E+00  0.00000000000E+00  0.44154639863E+02  0.44154639863E+02  0.00000000000E+00 0.  1.
         21   -1    0    0  501  503 -0.00000000000E+00 -0.00000000000E+00 -0.22503805485E+02  0.22503805485E+02  0.00000000000E+00 0.  1.
          2    1    1    2  501    0  0.66863083771E+01 -0.30499206672E+02  0.62483911170E+01  0.31842592842E+02  0.00000000000E+00 0.  1.
         -2    1    1    2    0  502 -0.66863083771E+01  0.30499206672E+02  0.15402443261E+02  0.34815852507E+02  0.00000000000E+00 0. -1.
<mgrwt>
<rscale>  2 0.31223522E+02</rscale>
<asrwt>0</asrwt>
<pdfrwt beam="1">  1       21 0.67930215E-02 0.31223522E+02</pdfrwt>
<pdfrwt beam="2">  1       21 0.34621239E-02 0.31223522E+02</pdfrwt>
<totfact> 0.60370146E+07</totfact>
</mgrwt>
</event>
<event>
 4    1  0.7165636E+004  0.2341229E+02  0.7546771E-02  0.1684913E+00
         21   -1    0    0  503  502  0.00000000000E+00  0.00000000000E+00  0.17668925315E+02  0.17668925315E+02  0.00000000000E+00 0. -1.
         21   -1    0    0  501  503 -0.00000000000E+00 -0.00000000000E+00 -0.36071873809E+02  0.36071873809E+02  0.00000000000E+00 0. -1.
          5    1    1    2  501    0 -0.15175139226E+01 -0.23363057891E+02  0.85176201156E+00  0.23427778833E+02  0.00000000000E+00 0. -1.
         -5    1    1    2    0  502  0.15175139226E+01  0.23363057891E+02 -0.19254710506E+02  0.30313020291E+02  0.00000000000E+00 0.  1.
<mgrwt>
<rscale>  2 0.23412290E+02</rscale>
<asrwt>0</asrwt>
<pdfrwt beam="1">  1       21 0.27182962E-02 0.23412290E+02</pdfrwt>
<pdfrwt beam="2">  1       21 0.55495190E-02 0.23412290E+02</pdfrwt>
<totfact> 0.11371088E+08</totfact>
</mgrwt>
</event>
<event>
 4    1  0.7165636E+004  0.2614964E+02  0.7546771E-02  0.1645018E+00
         21   -1    0    0  503  502  0.00000000000E+00  0.00000000000E+00  0.18341941409E+01  0.18341941409E+01  0.00000000000E+00 0. -1.
         21   -1    0    0  501  503 -0.00000000000E+00 -0.00000000000E+00 -0.41984331546E+03  0.41984331546E+03  0.00000000000E+00 0. -1.
          4    1    1    2  501    0 -0.20498862125E+02 -0.16235773718E+02 -0.27957376302E+03  0.28079403959E+03  0.00000000000E+00 0.  1.
         -4    1    1    2    0  502  0.20498862125E+02  0.16235773718E+02 -0.13843535830E+03  0.14088347002E+03  0.00000000000E+00 0. -1.
<mgrwt>
<rscale>  2 0.26149640E+02</rscale>
<asrwt>0</asrwt>
<pdfrwt beam="1">  1       21 0.28218363E-03 0.26149640E+02</pdfrwt>
<pdfrwt beam="2">  1       21 0.64591298E-01 0.26149640E+02</pdfrwt>
<totfact> 0.46027440E+07</totfact>
</mgrwt>
</event>
<event>
 4    1  0.7165636E+004  0.6210230E+02  0.7546771E-02  0.1389215E+00
         21   -1    0    0  503  502  0.00000000000E+00  0.00000000000E+00  0.17677122702E+02  0.17677122702E+02  0.00000000000E+00 0.  1.
         21   -1    0    0  501  503 -0.00000000000E+00 -0.00000000000E+00 -0.21866541049E+03  0.21866541049E+03  0.00000000000E+00 0.  1.
          3    1    1    2  501    0 -0.61909375847E+02 -0.48912447696E+01 -0.94894235882E+02  0.11340904328E+03  0.00000000000E+00 0.  1.
         -3    1    1    2    0  502  0.61909375847E+02  0.48912447696E+01 -0.10609405190E+03  0.12293348991E+03  0.00000000000E+00 0. -1.
<mgrwt>
<rscale>  2 0.62102295E+02</rscale>
<asrwt>0</asrwt>
<pdfrwt beam="1">  1       21 0.27195575E-02 0.62102295E+02</pdfrwt>
<pdfrwt beam="2">  1       21 0.33640831E-01 0.62102295E+02</pdfrwt>
<totfact> 0.59346662E+06</totfact>
</mgrwt>
</event>
<event>
 4    1  0.7165636E+004  0.2480781E+02  0.7546771E-02  0.1663778E+00
         21   -1    0    0  501  502  0.00000000000E+00  0.00000000000E+00  0.14436860476E+01  0.14436860476E+01  0.00000000000E+00 0.  1.
         21   -1    0    0  502  503 -0.00000000000E+00 -0.00000000000E+00 -0.42650300685E+03  0.42650300685E+03  0.00000000000E+00 0.  1.
          4    1    1    2  501    0  0.19575763515E+01  0.24730452814E+02 -0.21732333635E+03  0.21873467929E+03  0.00000000000E+00 0.  1.
         -4    1    1    2    0  503 -0.19575763515E+01 -0.24730452814E+02 -0.20773598445E+03  0.20921201360E+03  0.00000000000E+00 0. -1.
<mgrwt>
<rscale>  2 0.24807809E+02</rscale>
<asrwt>0</asrwt>
<pdfrwt beam="1">  1       21 0.22210594E-03 0.24807809E+02</pdfrwt>
<pdfrwt beam="2">  1       21 0.65615729E-01 0.24807809E+02</pdfrwt>
<totfact> 0.62451738E+07</totfact>
</mgrwt>
</event>
<event>
 4    1  0.7165636E+004  0.2075545E+02  0.7546771E-02  0.1730709E+00
         21   -1    0    0  503  502  0.00000000000E+00  0.00000000000E+00  0.39273332084E+02  0.39273332084E+02  0.00000000000E+00 0.  1.
         21   -1    0    0  501  503 -0.00000000000E+00 -0.00000000000E+00 -0.11947862510E+02  0.11947862510E+02  0.00000000000E+00 0.  1.
          3    1    1    2  501    0 -0.19907036041E+02  0.58735363771E+01  0.20993329500E+02  0.29521321058E+02  0.00000000000E+00 0.  1.
         -3    1    1    2    0  502  0.19907036041E+02 -0.58735363771E+01  0.63321400741E+01  0.21699873535E+02  0.00000000000E+00 0. -1.
<mgrwt>
<rscale>  2 0.20755445E+02</rscale>
<asrwt>0</asrwt>
<pdfrwt beam="1">  1       21 0.60420511E-02 0.20755445E+02</pdfrwt>
<pdfrwt beam="2">  1       21 0.18381327E-02 0.20755445E+02</pdfrwt>
<totfact> 0.17463335E+08</totfact>
</mgrwt>
</event>
<event>
 4    1  0.7165636E+004  0.2022839E+02  0.7546771E-02  0.1740824E+00
         21   -1    0    0  501  502  0.00000000000E+00  0.00000000000E+00  0.25796661328E+01  0.25796661328E+01  0.00000000000E+00 0. -1.
         21   -1    0    0  502  503 -0.00000000000E+00 -0.00000000000E+00 -0.23551430029E+03  0.23551430029E+03  0.00000000000E+00 0. -1.
          5    1    1    2  501    0 -0.15374745542E+02  0.13145528088E+02 -0.18449029796E+03  0.18559595295E+03  0.00000000000E+00 0.  1.
         -5    1    1    2    0  503  0.15374745542E+02 -0.13145528088E+02 -0.48444336191E+02  0.52498013469E+02  0.00000000000E+00 0. -1.
<mgrwt>
<rscale>  2 0.20228389E+02</rscale>
<asrwt>0</asrwt>
<pdfrwt beam="1">  1       21 0.39687172E-03 0.20228389E+02</pdfrwt>
<pdfrwt beam="2">  1       21 0.36232969E-01 0.20228389E+02</pdfrwt>
<totfact> 0.80546071E+07</totfact>
</mgrwt>
</event>
<event>
 4    1  0.7165636E+004  0.2578423E+02  0.7546771E-02  0.1649987E+00
         21   -1    0    0  501  502  0.00000000000E+00  0.00000000000E+00  0.11132263790E+02  0.11132263790E+02  0.00000000000E+00 0.  1.
         21   -1    0    0  502  503 -0.00000000000E+00 -0.00000000000E+00 -0.78609788295E+02  0.78609788295E+02  0.00000000000E+00 0.  1.
          4    1    1    2  501    0  0.59144770522E-01  0.25784162603E+02 -0.55734231617E+02  0.61409536012E+02  0.00000000000E+00 0.  1.
         -4    1    1    2    0  503 -0.59144770522E-01 -0.25784162603E+02 -0.11743292888E+02  0.28332516074E+02  0.00000000000E+00 0. -1.
<mgrwt>
<rscale>  2 0.25784230E+02</rscale>
<asrwt>0</asrwt>
<pdfrwt beam="1">  1       21 0.17126559E-02 0.25784230E+02</pdfrwt>
<pdfrwt beam="2">  1       21 0.12093814E-01 0.25784230E+02</pdfrwt>
<totfact> 0.66335872E+07</totfact>
</mgrwt>
</event>
<event>
 4    1  0.7165636E+004  0.2235199E+02  0.7546771E-02  0.1702235E+00
         21   -1    0    0  501  502  0.00000000000E+00  0.00000000000E+00  0.17318772720E+02  0.17318772720E+02  0.00000000000E+00 0.  1.
         21   -1    0    0  502  503 -0.00000000000E+00 -0.00000000000E+00 -0.29137930084E+02  0.29137930084E+02  0.00000000000E+00 0.  1.
          1    1    1    2  501    0  0.17336644241E+02 -0.14108585487E+02 -0.35924032251E+01  0.22638833427E+02  0.00000000000E+00 0. -1.
         -1    1    1    2    0  503 -0.17336644241E+02  0.14108585487E+02 -0.82267541390E+01  0.23817869377E+02  0.00000000000E+00 0.  1.
<mgrwt>
<rscale>  2 0.22351989E+02</rscale>
<asrwt>0</asrwt>
<pdfrwt beam="1">  1       21 0.26644266E-02 0.22351989E+02</pdfrwt>
<pdfrwt beam="2">  1       21 0.44827585E-02 0.22351989E+02</pdfrwt>
<totfact> 0.16246922E+08</totfact>
</mgrwt>
</event>
<event>
 4    1  0.7165636E+004  0.2653642E+02  0.7546771E-02  0.1639866E+00
         21   -1    0    0  501  502  0.00000000000E+00  0.00000000000E+00  0.40374857254E+02  0.40374857254E+02  0.00000000000E+00 0. -1.
         21   -1    0    0  502  503 -0.00000000000E+00 -0.00000000000E+00 -0.20867604119E+02  0.20867604119E+02  0.00000000000E+00 0. -1.
          4    1    1    2  501    0  0.26505101632E+02  0.12888630720E+01 -0.26546799506E+01  0.26668875232E+02  0.00000000000E+00 0. -1.
         -4    1    1    2    0  503 -0.26505101632E+02 -0.12888630720E+01  0.22161933086E+02  0.34573586141E+02  0.00000000000E+00 0.  1.
<mgrwt>
<rscale>  2 0.26536420E+02</rscale>
<asrwt>0</asrwt>
<pdfrwt beam="1">  1       21 0.62115165E-02 0.26536420E+02</pdfrwt>
<pdfrwt beam="2">  1       21 0.32104006E-02 0.26536420E+02</pdfrwt>
<totfact> 0.75660097E+07</totfact>
</mgrwt>
</event>
<event>
 4    1  0.7165636E+004  0.2885287E+02  0.7546771E-02  0.1611126E+00
         21   -1    0    0  503  502  0.00000000000E+00  0.00000000000E+00  0.24677347825E+03  0.24677347825E+03  0.00000000000E+00 0. -1.
         21   -1    0    0  501  503 -0.00000000000E+00 -0.00000000000E+00 -0.35583044795E+01  0.35583044795E+01  0.00000000000E+00 0. -1.
          2    1    1    2  501    0  0.27895630622E+02  0.73703399457E+01  0.15013295207E+03  0.15288031730E+03  0.00000000000E+00 0. -1.
         -2    1    1    2    0  502 -0.27895630622E+02 -0.73703399457E+01  0.93082221691E+02  0.97451465426E+02  0.00000000000E+00 0.  1.
<mgrwt>
<rscale>  2 0.28852870E+02</rscale>
<asrwt>0</asrwt>
<pdfrwt beam="1">  1       21 0.37965137E-01 0.28852870E+02</pdfrwt>
<pdfrwt beam="2">  1       21 0.54743165E-03 0.28852870E+02</pdfrwt>
<totfact> 0.50050626E+07</totfact>
</mgrwt>
</event>
<event>
 4    1  0.7165636E+004  0.2114689E+02  0.7546771E-02  0.1723438E+00
         21   -1    0    0  501  502  0.00000000000E+00  0.00000000000E+00  0.71312947386E+00  0.71312947386E+00  0.00000000000E+00 0.  1.
         21   -1    0    0  502  503 -0.00000000000E+00 -0.00000000000E+00 -0.75348951162E+03  0.75348951162E+03  0.00000000000E+00 0.  1.
          5    1    1    2  501    0  0.19043147579E+02 -0.91950753890E+01 -0.53084439184E+03  0.53126543199E+03  0.00000000000E+00 0.  1.
         -5    1    1    2    0  503 -0.19043147579E+02  0.91950753890E+01 -0.22193199030E+03  0.22293720910E+03  0.00000000000E+00 0. -1.
<mgrwt>
<rscale>  2 0.21146888E+02</rscale>
<asrwt>0</asrwt>
<pdfrwt beam="1">  1       21 0.10971236E-03 0.21146888E+02</pdfrwt>
<pdfrwt beam="2">  1       21 0.11592132E+00 0.21146888E+02</pdfrwt>
<totfact> 0.49276283E+07</totfact>
</mgrwt>
</event>
<event>
 4    1  0.7165636E+004  0.2488970E+02  0.7546771E-02  0.1662591E+00
         21   -1    0    0  501  502  0.00000000000E+00  0.00000000000E+00  0.35881628858E+02  0.35881628858E+02  0.00000000000E+00 0.  1.
         21   -1    0    0  502  503 -0.00000000000E+00 -0.00000000000E+00 -0.39163946294E+02  0.39163946294E+02  0.00000000000E+00 0.  1.
          1    1    1    2  501    0  0.17902501287E+02 -0.17291548720E+02  0.26417262823E+02  0.36295578030E+02  0.00000000000E+00 0.  1.
         -1    1    1    2    0  503 -0.17902501287E+02  0.17291548720E+02 -0.29699580259E+02  0.38749997123E+02  0.00000000000E+00 0. -1.
<mgrwt>
<rscale>  2 0.24889701E+02</rscale>
<asrwt>0</asrwt>
<pdfrwt beam="1">  1       21 0.55202506E-02 0.24889701E+02</pdfrwt>
<pdfrwt beam="2">  1       21 0.60252225E-02 0.24889701E+02</pdfrwt>
<totfact> 0.33122419E+07</totfact>
</mgrwt>
</event>
<event>
 4    1  0.7165636E+004  0.2552097E+02  0.7546771E-02  0.1653630E+00
         21   -1    0    0  501  502  0.00000000000E+00  0.00000000000E+00  0.57087625582E+02  0.57087625582E+02  0.00000000000E+00 0.  1.
         21   -1    0    0  502  503 -0.00000000000E+00 -0.00000000000E+00 -0.11414792938E+02  0.11414792938E+02  0.00000000000E+00 0.  1.
          5    1    1    2  501    0 -0.24277589208E+02  0.78688387715E+01  0.23599520571E+02  0.34759996152E+02  0.00000000000E+00 0.  1.
         -5    1    1    2    0  503  0.24277589208E+02 -0.78688387715E+01  0.22073312073E+02  0.33742422367E+02  0.00000000000E+00 0. -1.
<mgrwt>
<rscale>  2 0.25520971E+02</rscale>
<asrwt>0</asrwt>
<pdfrwt beam="1">  1       21 0.87827115E-02 0.25520971E+02</pdfrwt>
<pdfrwt beam="2">  1       21 0.17561220E-02 0.25520971E+02</pdfrwt>
<totfact> 0.10845652E+08</totfact>
</mgrwt>
</event>
<event>
 4    1  0.7165636E+004  0.6490716E+02  0.7546771E-02  0.1378321E+00
         21   -1    0    0  501  502  0.00000000000E+00  0.00000000000E+00  0.17712509145E+03  0.17712509145E+03  0.00000000000E+00 0.  1.
         21   -1    0    0  502  503 -0.00000000000E+00 -0.00000000000E+00 -0.25403935112E+02  0.25403935112E+02  0.00000000000E+00 0.  1.
          2    1    1    2  501    0 -0.57538519393E+02 -0.30037608386E+02  0.50297847594E+02  0.82114630877E+02  0.00000000000E+00 0.  1.
         -2    1    1    2    0  503  0.57538519393E+02  0.30037608386E+02  0.10142330875E+03  0.12041439569E+03  0.00000000000E+00 0. -1.
<mgrwt>
<rscale>  2 0.64907158E+02</rscale>
<asrwt>0</asrwt>
<pdfrwt beam="1">  1       21 0.27250013E-01 0.64907158E+02</pdfrwt>
<pdfrwt beam="2">  1       21 0.39082978E-02 0.64907158E+02</pdfrwt>
<totfact> 0.49372923E+06</totfact>
</mgrwt>
</event>
<event>
 4    1  0.7165636E+004  0.3610538E+02  0.7546771E-02  0.1538998E+00
         21   -1    0    0  503  502  0.00000000000E+00  0.00000000000E+00  0.19211925957E+01  0.19211925957E+01  0.00000000000E+00 0. -1.
         21   -1    0    0  501  503 -0.00000000000E+00 -0.00000000000E+00 -0.71850713350E+03  0.71850713350E+03  0.00000000000E+00 0. -1.
          3    1    1    2  501    0 -0.32491462863E+02 -0.15744937616E+02 -0.27333212746E+03  0.27570645644E+03  0.00000000000E+00 0.  1.
         -3    1    1    2    0  502  0.32491462863E+02  0.15744937616E+02 -0.44325381344E+03  0.44472186966E+03  0.00000000000E+00 0. -1.
<mgrwt>
<rscale>  2 0.36105377E+02</rscale>
<asrwt>0</asrwt>
<pdfrwt beam="1">  1       21 0.29556825E-03 0.36105377E+02</pdfrwt>
<pdfrwt beam="2">  1       21 0.11053950E+00 0.36105377E+02</pdfrwt>
<totfact> 0.14308131E+07</totfact>
</mgrwt>
</event>
<event>
 4    1  0.7165636E+004  0.2135587E+02  0.7546771E-02  0.1719636E+00
         21   -1    0    0  501  502  0.00000000000E+00  0.00000000000E+00  0.84374635903E+01  0.84374635903E+01  0.00000000000E+00 0.  1.
         21   -1    0    0  502  503 -0.00000000000E+00 -0.00000000000E+00 -0.55243229037E+02  0.55243229037E+02  0.00000000000E+00 0.  1.
          3    1    1    2  501    0 -0.15231060892E+01  0.21301486697E+02 -0.18729952088E+02  0.28405708808E+02  0.00000000000E+00 0. -1.
         -3    1    1    2    0  503  0.15231060892E+01 -0.21301486697E+02 -0.28075813358E+02  0.35274983819E+02  0.00000000000E+00 0.  1.
<mgrwt>
<rscale>  2 0.21355870E+02</rscale>
<asrwt>0</asrwt>
<pdfrwt beam="1">  1       21 0.12980714E-02 0.21355870E+02</pdfrwt>
<pdfrwt beam="2">  1       21 0.84989581E-02 0.21355870E+02</pdfrwt>
<totfact> 0.17206128E+08</totfact>
</mgrwt>
</event>
<event>
 4    1  0.7165636E+004  0.2173967E+02  0.7546771E-02  0.1712793E+00
         21   -1    0    0  503  502  0.00000000000E+00  0.00000000000E+00  0.37308097081E+02  0.37308097081E+02  0.00000000000E+00 0.  1.
         21   -1    0    0  501  503 -0.00000000000E+00 -0.00000000000E+00 -0.12715840551E+02  0.12715840551E+02  0.00000000000E+00 0.  1.
          3    1    1    2  501    0  0.18631873155E+02 -0.11201191469E+02  0.13832697016E+02  0.25767361028E+02  0.00000000000E+00 0. -1.
         -3    1    1    2    0  502 -0.18631873155E+02  0.11201191469E+02  0.10759559514E+02  0.24256576604E+02  0.00000000000E+00 0.  1.
<mgrwt>
<rscale>  2 0.21739673E+02</rscale>
<asrwt>0</asrwt>
<pdfrwt beam="1">  1       21 0.57397072E-02 0.21739673E+02</pdfrwt>
<pdfrwt beam="2">  1       21 0.19562832E-02 0.21739673E+02</pdfrwt>
<totfact> 0.17490334E+08</totfact>
</mgrwt>
</event>
<event>
 4    1  0.7165636E+004  0.2273976E+02  0.7546771E-02  0.1695764E+00
         21   -1    0    0  503  502  0.00000000000E+00  0.00000000000E+00  0.53673721038E+00  0.53673721038E+00  0.00000000000E+00 0. -1.
         21   -1    0    0  501  503 -0.00000000000E+00 -0.00000000000E+00 -0.13379892830E+04  0.13379892830E+04  0.00000000000E+00 0. -1.
          3    1    1    2  501    0  0.19709508078E+02 -0.11341595957E+02 -0.31461154525E+03  0.31543227627E+03  0.00000000000E+00 0.  1.
         -3    1    1    2    0  502 -0.19709508078E+02  0.11341595957E+02 -0.10228410005E+04  0.10230937439E+04  0.00000000000E+00 0. -1.
<mgrwt>
<rscale>  2 0.22739756E+02</rscale>
<asrwt>0</asrwt>
<pdfrwt beam="1">  1       21 0.82575938E-04 0.22739756E+02</pdfrwt>
<pdfrwt beam="2">  1       21 0.20584206E+00 0.22739756E+02</pdfrwt>
<totfact> 0.18911865E+07</totfact>
</mgrwt>
</event>
<event>
 4    1  0.7165636E+004  0.2031271E+02  0.7546771E-02  0.1739180E+00
         21   -1    0    0  503  502  0.00000000000E+00  0.00000000000E+00  0.15216490883E+01  0.15216490883E+01  0.00000000000E+00 0. -1.
         21   -1    0    0  501  503 -0.00000000000E+00 -0.00000000000E+00 -0.27308915918E+03  0.27308915918E+03  0.00000000000E+00 0. -1.
          5    1    1    2  501    0 -0.45583317777E+01  0.19794641967E+02 -0.12423528249E+03  0.12588491432E+03  0.00000000000E+00 0. -1.
         -5    1    1    2    0  502  0.45583317777E+01 -0.19794641967E+02 -0.14733222761E+03  0.14872589395E+03  0.00000000000E+00 0.  1.
<mgrwt>
<rscale>  2 0.20312711E+02</rscale>
<asrwt>0</asrwt>
<pdfrwt beam="1">  1       21 0.23409999E-03 0.20312711E+02</pdfrwt>
<pdfrwt beam="2">  1       21 0.42013693E-01 0.20312711E+02</pdfrwt>
<totfact> 0.13158338E+08</totfact>
</mgrwt>
</event>
<event>
 4    1  0.7165636E+004  0.2264684E+02  0.7546771E-02  0.1697299E+00
         21   -1    0    0  503  502  0.00000000000E+00  0.00000000000E+00  0.96518509769E+01  0.96518509769E+01  0.00000000000E+00 0.  1.
         21   -1    0    0  501  503 -0.00000000000E+00 -0.00000000000E+00 -0.53690396415E+02  0.53690396415E+02  0.00000000000E+00 0.  1.
          3    1    1    2  501    0 -0.15211836600E+02 -0.16777348466E+02 -0.18806591821E+02  0.29437515014E+02  0.00000000000E+00 0. -1.
         -3    1    1    2    0  502  0.15211836600E+02  0.16777348466E+02 -0.25231953617E+02  0.33904732377E+02  0.00000000000E+00 0.  1.
<mgrwt>
<rscale>  2 0.22646841E+02</rscale>
<asrwt>0</asrwt>
<pdfrwt beam="1">  1       21 0.14849002E-02 0.22646841E+02</pdfrwt>
<pdfrwt beam="2">  1       21 0.82600610E-02 0.22646841E+02</pdfrwt>
<totfact> 0.14972858E+08</totfact>
</mgrwt>
</event>
<event>
 4    1  0.7165636E+004  0.3506238E+02  0.7546771E-02  0.1548047E+00
         21   -1    0    0  501  502  0.00000000000E+00  0.00000000000E+00  0.27711192921E+03  0.27711192921E+03  0.00000000000E+00 0. -1.
         21   -1    0    0  502  503 -0.00000000000E+00 -0.00000000000E+00 -0.45269133472E+01  0.45269133472E+01  0.00000000000E+00 0. -1.
          4    1    1    2  501    0 -0.34189259395E+02 -0.77759301803E+01  0.11637687675E+03  0.12154401668E+03  0.00000000000E+00 0.  1.
         -4    1    1    2    0  503  0.34189259395E+02  0.77759301803E+01  0.15620813911E+03  0.16009482587E+03  0.00000000000E+00 0. -1.
<mgrwt>
<rscale>  2 0.35062381E+02</rscale>
<asrwt>0</asrwt>
<pdfrwt beam="1">  1       21 0.42632591E-01 0.35062381E+02</pdfrwt>
<pdfrwt beam="2">  1       21 0.69644843E-03 0.35062381E+02</pdfrwt>
<totfact> 0.29016810E+07</totfact>
</mgrwt>
</event>
<event>
 4    1  0.7165636E+004  0.2457553E+02  0.7546771E-02  0.1667175E+00
         21   -1    0    0  501  502  0.00000000000E+00  0.00000000000E+00  0.99863060049E+01  0.99863060049E+01  0.00000000000E+00 0.  1.
         21   -1    0    0  502  503 -0.00000000000E+00 -0.00000000000E+00 -0.62761337943E+02  0.62761337943E+02  0.00000000000E+00 0.  1.
          5    1    1    2  501    0 -0.23956174030E+02 -0.54825414779E+01 -0.33324696190E+02  0.41406423552E+02  0.00000000000E+00 0. -1.
         -5    1    1    2    0  503  0.23956174030E+02  0.54825414779E+01 -0.19450335748E+02  0.31341220396E+02  0.00000000000E+00 0.  1.
<mgrwt>
<rscale>  2 0.24575527E+02</rscale>
<asrwt>0</asrwt>
<pdfrwt beam="1">  1       21 0.15363548E-02 0.24575527E+02</pdfrwt>
<pdfrwt beam="2">  1       21 0.96555903E-02 0.24575527E+02</pdfrwt>
<totfact> 0.11264374E+08</totfact>
</mgrwt>
</event>
<event>
 4    1  0.7165636E+004  0.2353379E+02  0.7546771E-02  0.1683001E+00
         21   -1    0    0  501  502  0.00000000000E+00  0.00000000000E+00  0.20927336823E+03  0.20927336823E+03  0.00000000000E+00 0. -1.
         21   -1    0    0  502  503 -0.00000000000E+00 -0.00000000000E+00 -0.34141616511E+01  0.34141616511E+01  0.00000000000E+00 0. -1.
          1    1    1    2  501    0  0.21506611216E+02 -0.95553587878E+01  0.15335608258E+03  0.15515130444E+03  0.00000000000E+00 0. -1.
         -1    1    1    2    0  503 -0.21506611216E+02  0.95553587878E+01  0.52503124004E+02  0.57536225439E+02  0.00000000000E+00 0.  1.
<mgrwt>
<rscale>  2 0.23533789E+02</rscale>
<asrwt>0</asrwt>
<pdfrwt beam="1">  1       21 0.32195893E-01 0.23533789E+02</pdfrwt>
<pdfrwt beam="2">  1       21 0.52525580E-03 0.23533789E+02</pdfrwt>
<totfact> 0.69016536E+07</totfact>
</mgrwt>
</event>
<event>
 4    1  0.7165636E+004  0.2670045E+02  0.7546771E-02  0.1637714E+00
         21   -1    0    0  503  502  0.00000000000E+00  0.00000000000E+00  0.32378621523E+03  0.32378621523E+03  0.00000000000E+00 0.  1.
         21   -1    0    0  501  503 -0.00000000000E+00 -0.00000000000E+00 -0.22439741157E+01  0.22439741157E+01  0.00000000000E+00 0.  1.
          1    1    1    2  501    0  0.26242682830E+02  0.49229754546E+01  0.18311797680E+03  0.18505433666E+03  0.00000000000E+00 0.  1.
         -1    1    1    2    0  502 -0.26242682830E+02 -0.49229754546E+01  0.13842426431E+03  0.14097585268E+03  0.00000000000E+00 0. -1.
<mgrwt>
<rscale>  2 0.26700451E+02</rscale>
<asrwt>0</asrwt>
<pdfrwt beam="1">  1       21 0.49813227E-01 0.26700451E+02</pdfrwt>
<pdfrwt beam="2">  1       21 0.34522704E-03 0.26700451E+02</pdfrwt>
<totfact> 0.57754997E+07</totfact>
</mgrwt>
</event>
<event>
 4    1  0.7165636E+004  0.2180375E+02  0.7546771E-02  0.1711668E+00
         21   -1    0    0  503  502  0.00000000000E+00  0.00000000000E+00  0.27959300165E+02  0.27959300165E+02  0.00000000000E+00 0.  1.
         21   -1    0    0  501  503 -0.00000000000E+00 -0.00000000000E+00 -0.17739754033E+02  0.17739754033E+02  0.00000000000E+00 0.  1.
          1    1    1    2  501    0 -0.21762747013E+02 -0.13364822521E+01  0.97650430945E+01  0.23890571551E+02  0.00000000000E+00 0. -1.
         -1    1    1    2    0  502  0.21762747013E+02  0.13364822521E+01  0.45450303830E+00  0.21808482648E+02  0.00000000000E+00 0.  1.
<mgrwt>
<rscale>  2 0.21803746E+02</rscale>
<asrwt>0</asrwt>
<pdfrwt beam="1">  1       21 0.43014308E-02 0.21803746E+02</pdfrwt>
<pdfrwt beam="2">  1       21 0.27291929E-02 0.21803746E+02</pdfrwt>
<totfact> 0.16580756E+08</totfact>
</mgrwt>
</event>
<event>
 4    1  0.7165636E+004  0.2500311E+02  0.7546771E-02  0.1660957E+00
         21   -1    0    0  503  502  0.00000000000E+00  0.00000000000E+00  0.77675317426E+02  0.77675317426E+02  0.00000000000E+00 0.  1.
         21   -1    0    0  501  503 -0.00000000000E+00 -0.00000000000E+00 -0.92398906163E+01  0.92398906163E+01  0.00000000000E+00 0.  1.
          5    1    1    2  501    0  0.12862949069E+02 -0.21440614661E+02  0.49823770179E+02  0.55745524400E+02  0.00000000000E+00 0.  1.
         -5    1    1    2    0  502 -0.12862949069E+02  0.21440614661E+02  0.18611656630E+02  0.31169683642E+02  0.00000000000E+00 0. -1.
<mgrwt>
<rscale>  2 0.25003108E+02</rscale>
<asrwt>0</asrwt>
<pdfrwt beam="1">  1       21 0.11950048E-01 0.25003108E+02</pdfrwt>
<pdfrwt beam="2">  1       21 0.14215217E-02 0.25003108E+02</pdfrwt>
<totfact> 0.89271678E+07</totfact>
</mgrwt>
</event>
<event>
 4    1  0.7165636E+004  0.4547872E+02  0.7546771E-02  0.1471375E+00
         21   -1    0    0  503  502  0.00000000000E+00  0.00000000000E+00  0.20028807984E+01  0.20028807984E+01  0.00000000000E+00 0.  1.
         21   -1    0    0  501  503 -0.00000000000E+00 -0.00000000000E+00 -0.10621448939E+04  0.10621448939E+04  0.00000000000E+00 0.  1.
          1    1    1    2  501    0 -0.16209006565E+02 -0.42492138638E+02 -0.44143493334E+03  0.44377146609E+03  0.00000000000E+00 0.  1.
         -1    1    1    2    0  502  0.16209006565E+02  0.42492138638E+02 -0.61870707980E+03  0.62037630865E+03  0.00000000000E+00 0. -1.
<mgrwt>
<rscale>  2 0.45478717E+02</rscale>
<asrwt>0</asrwt>
<pdfrwt beam="1">  1       21 0.30813587E-03 0.45478717E+02</pdfrwt>
<pdfrwt beam="2">  1       21 0.16340672E+00 0.45478717E+02</pdfrwt>
<totfact> 0.54011990E+06</totfact>
</mgrwt>
</event>
<event>
 4    1  0.7165636E+004  0.2513178E+02  0.7546771E-02  0.1659116E+00
         21   -1    0    0  503  502  0.00000000000E+00  0.00000000000E+00  0.11972476935E+03  0.11972476935E+03  0.00000000000E+00 0. -1.
         21   -1    0    0  501  503 -0.00000000000E+00 -0.00000000000E+00 -0.54471188260E+01  0.54471188260E+01  0.00000000000E+00 0. -1.
          4    1    1    2  501    0 -0.22407121142E+02 -0.11380995811E+02  0.46029295309E+02  0.52443323409E+02  0.00000000000E+00 0. -1.
         -4    1    1    2    0  502  0.22407121142E+02  0.11380995811E+02  0.68248355220E+02  0.72728564772E+02  0.00000000000E+00 0.  1.
<mgrwt>
<rscale>  2 0.25131776E+02</rscale>
<asrwt>0</asrwt>
<pdfrwt beam="1">  1       21 0.18419193E-01 0.25131776E+02</pdfrwt>
<pdfrwt beam="2">  1       21 0.83801838E-03 0.25131776E+02</pdfrwt>
<totfact> 0.94842247E+07</totfact>
</mgrwt>
</event>
<event>
 4    1  0.7165636E+004  0.2336727E+02  0.7546771E-02  0.1685625E+00
         21   -1    0    0  501  502  0.00000000000E+00  0.00000000000E+00  0.14626356947E+01  0.14626356947E+01  0.00000000000E+00 0. -1.
         21   -1    0    0  502  503 -0.00000000000E+00 -0.00000000000E+00 -0.38393597498E+03  0.38393597498E+03  0.00000000000E+00 0. -1.
          3    1    1    2  501    0  0.22308145927E+02  0.69552946591E+01 -0.15919214092E+03  0.16089800257E+03  0.00000000000E+00 0.  1.
         -3    1    1    2    0  503 -0.22308145927E+02 -0.69552946591E+01 -0.22328119836E+03  0.22450060811E+03  0.00000000000E+00 0. -1.
<mgrwt>
<rscale>  2 0.23367274E+02</rscale>
<asrwt>0</asrwt>
<pdfrwt beam="1">  1       21 0.22502094E-03 0.23367274E+02</pdfrwt>
<pdfrwt beam="2">  1       21 0.59067057E-01 0.23367274E+02</pdfrwt>
<totfact> 0.74687037E+07</totfact>
</mgrwt>
</event>
<event>
 4    1  0.7165636E+004  0.2295027E+02  0.7546771E-02  0.1692317E+00
         21   -1    0    0  503  502  0.00000000000E+00  0.00000000000E+00  0.25890535297E+01  0.25890535297E+01  0.00000000000E+00 0.  1.
         21   -1    0    0  501  503 -0.00000000000E+00 -0.00000000000E+00 -0.21109326236E+03  0.21109326236E+03  0.00000000000E+00 0.  1.
          1    1    1    2  501    0 -0.20204282242E+02 -0.10885859751E+02 -0.83907578811E+02  0.86989635850E+02  0.00000000000E+00 0.  1.
         -1    1    1    2    0  502  0.20204282242E+02  0.10885859751E+02 -0.12459663002E+03  0.12669268004E+03  0.00000000000E+00 0. -1.
<mgrwt>
<rscale>  2 0.22950272E+02</rscale>
<asrwt>0</asrwt>
<pdfrwt beam="1">  1       21 0.39831604E-03 0.22950272E+02</pdfrwt>
<pdfrwt beam="2">  1       21 0.32475877E-01 0.22950272E+02</pdfrwt>
<totfact> 0.10140943E+08</totfact>
</mgrwt>
</event>
<event>
 4    1  0.7165636E+004  0.2081406E+02  0.7546771E-02  0.1729608E+00
         21   -1    0    0  503  502  0.00000000000E+00  0.00000000000E+00  0.69152780862E+01  0.69152780862E+01  0.00000000000E+00 0.  1.
         21   -1    0    0  501  503 -0.00000000000E+00 -0.00000000000E+00 -0.72216157504E+02  0.72216157504E+02  0.00000000000E+00 0.  1.
          4    1    1    2  501    0 -0.18761857601E+02 -0.90120966690E+01 -0.47052557909E+02  0.51450640354E+02  0.00000000000E+00 0. -1.
         -4    1    1    2    0  502  0.18761857601E+02  0.90120966690E+01 -0.18248321508E+02  0.27680795236E+02  0.00000000000E+00 0.  1.
<mgrwt>
<rscale>  2 0.20814062E+02</rscale>
<asrwt>0</asrwt>
<pdfrwt beam="1">  1       21 0.10638889E-02 0.20814062E+02</pdfrwt>
<pdfrwt beam="2">  1       21 0.11110178E-01 0.20814062E+02</pdfrwt>
<totfact> 0.14817531E+08</totfact>
</mgrwt>
</event>
<event>
 4    1  0.7165636E+004  0.2152797E+02  0.7546771E-02  0.1716546E+00
         21   -1    0    0  501  502  0.00000000000E+00  0.00000000000E+00  0.19020258369E+01  0.19020258369E+01  0.00000000000E+00 0.  1.
         21   -1    0    0  502  503 -0.00000000000E+00 -0.00000000000E+00 -0.27194985754E+03  0.27194985754E+03  0.00000000000E+00 0.  1.
          3    1    1    2  501    0  0.20715678214E+02 -0.58578430894E+01 -0.90863582176E+02  0.93379035203E+02  0.00000000000E+00 0.  1.
         -3    1    1    2    0  503 -0.20715678214E+02  0.58578430894E+01 -0.17918424952E+03  0.18047284817E+03  0.00000000000E+00 0. -1.
<mgrwt>
<rscale>  2 0.21527974E+02</rscale>
<asrwt>0</asrwt>
<pdfrwt beam="1">  1       21 0.29261914E-03 0.21527974E+02</pdfrwt>
<pdfrwt beam="2">  1       21 0.41838471E-01 0.21527974E+02</pdfrwt>
<totfact> 0.97565301E+07</totfact>
</mgrwt>
</event>
<event>
 4    1  0.7165636E+004  0.2366739E+02  0.7546771E-02  0.1680915E+00
         21   -1    0    0  501  502  0.00000000000E+00  0.00000000000E+00  0.10282469181E+03  0.10282469181E+03  0.00000000000E+00 0. -1.
         21   -1    0    0  502  503 -0.00000000000E+00 -0.00000000000E+00 -0.61109663354E+01  0.61109663354E+01  0.00000000000E+00 0. -1.
          4    1    1    2  501    0  0.14963946915E+02 -0.18336462208E+02  0.30410809271E+02  0.38535216025E+02  0.00000000000E+00 0.  1.
         -4    1    1    2    0  503 -0.14963946915E+02  0.18336462208E+02  0.66302916203E+02  0.70400442119E+02  0.00000000000E+00 0. -1.
<mgrwt>
<rscale>  2 0.23667394E+02</rscale>
<asrwt>0</asrwt>
<pdfrwt beam="1">  1       21 0.15819182E-01 0.23667394E+02</pdfrwt>
<pdfrwt beam="2">  1       21 0.94014874E-03 0.23667394E+02</pdfrwt>
<totfact> 0.10211983E+08</totfact>
</mgrwt>
</event>
<event>
 4    1  0.7165636E+004  0.2099696E+02  0.7546771E-02  0.1726200E+00
         21   -1    0    0  503  502  0.00000000000E+00  0.00000000000E+00  0.34377527290E+01  0.34377527290E+01  0.00000000000E+00 0. -1.
         21   -1    0    0  501  503 -0.00000000000E+00 -0.00000000000E+00 -0.12902346721E+03  0.12902346721E+03  0.00000000000E+00 0. -1.
          3    1    1    2  501    0  0.14323348437E+02 -0.15352978524E+02 -0.67939621142E+02  0.71110226978E+02  0.00000000000E+00 0.  1.
         -3    1    1    2    0  502 -0.14323348437E+02  0.15352978524E+02 -0.57646093335E+02  0.61350992957E+02  0.00000000000E+00 0. -1.
<mgrwt>
<rscale>  2 0.20996958E+02</rscale>
<asrwt>0</asrwt>
<pdfrwt beam="1">  1       21 0.52888502E-03 0.20996958E+02</pdfrwt>
<pdfrwt beam="2">  1       21 0.19849765E-01 0.20996958E+02</pdfrwt>
<totfact> 0.15685657E+08</totfact>
</mgrwt>
</event>
<event>
 4    1  0.7165636E+004  0.3854221E+02  0.7546771E-02  0.1519222E+00
         21   -1    0    0  503  502  0.00000000000E+00  0.00000000000E+00  0.51342933382E+02  0.51342933382E+02  0.00000000000E+00 0. -1.
         21   -1    0    0  501  503 -0.00000000000E+00 -0.00000000000E+00 -0.38895496551E+02  0.38895496551E+02  0.00000000000E+00 0. -1.
          5    1    1    2  501    0 -0.30696331421E+02  0.23307452547E+02  0.29058519547E+02  0.48269034227E+02  0.00000000000E+00 0. -1.
         -5    1    1    2    0  502  0.30696331421E+02 -0.23307452547E+02 -0.16611082715E+02  0.41969395706E+02  0.00000000000E+00 0.  1.
<mgrwt>
<rscale>  2 0.38542212E+02</rscale>
<asrwt>0</asrwt>
<pdfrwt beam="1">  1       21 0.78989128E-02 0.38542212E+02</pdfrwt>
<pdfrwt beam="2">  1       21 0.59839226E-02 0.38542212E+02</pdfrwt>
<totfact> 0.20323518E+07</totfact>
</mgrwt>
</event>
<event>
 4    1  0.7165636E+004  0.4379945E+02  0.7546771E-02  0.1481979E+00
         21   -1    0    0  501  502  0.00000000000E+00  0.00000000000E+00  0.60602763154E+03  0.60602763154E+03  0.00000000000E+00 0.  1.
         21   -1    0    0  502  503 -0.00000000000E+00 -0.00000000000E+00 -0.34103154043E+01  0.34103154043E+01  0.00000000000E+00 0.  1.
          2    1    1    2  501    0 -0.13590793161E+02  0.41637506986E+02  0.21966823787E+03  0.22399224624E+03  0.00000000000E+00 0.  1.
         -2    1    1    2    0  503  0.13590793161E+02 -0.41637506986E+02  0.38294907827E+03  0.38544570071E+03  0.00000000000E+00 0. -1.
<mgrwt>
<rscale>  2 0.43799448E+02</rscale>
<asrwt>0</asrwt>
<pdfrwt beam="1">  1       21 0.93234935E-01 0.43799448E+02</pdfrwt>
<pdfrwt beam="2">  1       21 0.52466439E-03 0.43799448E+02</pdfrwt>
<totfact> 0.91169538E+06</totfact>
</mgrwt>
</event>
<event>
 4    1  0.7165636E+004  0.2071824E+02  0.7546771E-02  0.1731411E+00
         21   -1    0    0  503  502  0.00000000000E+00  0.00000000000E+00  0.32446026253E+01  0.32446026253E+01  0.00000000000E+00 0. -1.
         21   -1    0    0  501  503 -0.00000000000E+00 -0.00000000000E+00 -0.17631213695E+03  0.17631213695E+03  0.00000000000E+00 0. -1.
          4    1    1    2  501    0 -0.41710294462E+01 -0.20294037587E+02 -0.41675718793E+02  0.46541497453E+02  0.00000000000E+00 0. -1.
         -4    1    1    2    0  502  0.41710294462E+01  0.20294037587E+02 -0.13139181553E+03  0.13301524212E+03  0.00000000000E+00 0.  1.
<mgrwt>
<rscale>  2 0.20718240E+02</rscale>
<asrwt>0</asrwt>
<pdfrwt beam="1">  1       21 0.49916973E-03 0.20718240E+02</pdfrwt>
<pdfrwt beam="2">  1       21 0.27124939E-01 0.20718240E+02</pdfrwt>
<totfact> 0.98118120E+07</totfact>
</mgrwt>
</event>
<event>
 4    1  0.7165636E+004  0.2124874E+02  0.7546771E-02  0.1721578E+00
         21   -1    0    0  503  502  0.00000000000E+00  0.00000000000E+00  0.19055091293E+01  0.19055091293E+01  0.00000000000E+00 0.  1.
         21   -1    0    0  501  503 -0.00000000000E+00 -0.00000000000E+00 -0.31416281230E+03  0.31416281230E+03  0.00000000000E+00 0.  1.
          5    1    1    2  501    0  0.18402502310E+02  0.10623418089E+02 -0.77782049024E+02  0.80632228380E+02  0.00000000000E+00 0. -1.
         -5    1    1    2    0  502 -0.18402502310E+02 -0.10623418089E+02 -0.23447525415E+03  0.23543609305E+03  0.00000000000E+00 0.  1.
<mgrwt>
<rscale>  2 0.21248744E+02</rscale>
<asrwt>0</asrwt>
<pdfrwt beam="1">  1       21 0.29315535E-03 0.21248744E+02</pdfrwt>
<pdfrwt beam="2">  1       21 0.48332724E-01 0.21248744E+02</pdfrwt>
<totfact> 0.73628963E+07</totfact>
</mgrwt>
</event>
<event>
 4    1  0.7165636E+004  0.2573171E+02  0.7546771E-02  0.1650709E+00
         21   -1    0    0  503  502  0.00000000000E+00  0.00000000000E+00  0.25588917361E+03  0.25588917361E+03  0.00000000000E+00 0.  1.
         21   -1    0    0  501  503 -0.00000000000E+00 -0.00000000000E+00 -0.31915678551E+01  0.31915678551E+01  0.00000000000E+00 0.  1.
          5    1    1    2  501    0  0.16871705601E+01  0.25676335662E+02  0.18270418409E+03  0.18450728885E+03  0.00000000000E+00 0.  1.
         -5    1    1    2    0  502 -0.16871705601E+01 -0.25676335662E+02  0.69993421672E+02  0.74573452615E+02  0.00000000000E+00 0. -1.
<mgrwt>
<rscale>  2 0.25731707E+02</rscale>
<asrwt>0</asrwt>
<pdfrwt beam="1">  1       21 0.39367549E-01 0.25731707E+02</pdfrwt>
<pdfrwt beam="2">  1       21 0.49101064E-03 0.25731707E+02</pdfrwt>
<totfact> 0.53563904E+07</totfact>
</mgrwt>
</event>
<event>
 4    1  0.7165636E+004  0.2270892E+02  0.7546771E-02  0.1696272E+00
         21   -1    0    0  503  502  0.00000000000E+00  0.00000000000E+00  0.22454618655E+03  0.22454618655E+03  0.00000000000E+00 0.  1.
         21   -1    0    0  501  503 -0.00000000000E+00 -0.00000000000E+00 -0.24181015083E+01  0.24181015083E+01  0.00000000000E+00 0.  1.
          1    1    1    2  501    0  0.39331893367E+01  0.22365715778E+02  0.13650079203E+03  0.13837688190E+03  0.00000000000E+00 0. -1.
         -1    1    1    2    0  502 -0.39331893367E+01 -0.22365715778E+02  0.85627293009E+02  0.88587406151E+02  0.00000000000E+00 0.  1.
<mgrwt>
<rscale>  2 0.22708924E+02</rscale>
<asrwt>0</asrwt>
<pdfrwt beam="1">  1       21 0.34545551E-01 0.22708924E+02</pdfrwt>
<pdfrwt beam="2">  1       21 0.37201579E-03 0.22708924E+02</pdfrwt>
<totfact> 0.99746405E+07</totfact>
</mgrwt>
</event>
<event>
 4    1  0.7165636E+004  0.3691829E+02  0.7546771E-02  0.1532197E+00
         21   -1    0    0  503  502  0.00000000000E+00  0.00000000000E+00  0.61917887108E+01  0.61917887108E+01  0.00000000000E+00 0.  1.
         21   -1    0    0  501  503 -0.00000000000E+00 -0.00000000000E+00 -0.22012395273E+03  0.22012395273E+03  0.00000000000E+00 0.  1.
          3    1    1    2  501    0 -0.23016154301E+02  0.28865492439E+02 -0.10686949880E+03  0.11306657237E+03  0.00000000000E+00 0. -1.
         -3    1    1    2    0  502  0.23016154301E+02 -0.28865492439E+02 -0.10706266522E+03  0.11324916908E+03  0.00000000000E+00 0.  1.
<mgrwt>
<rscale>  2 0.36918288E+02</rscale>
<asrwt>0</asrwt>
<pdfrwt beam="1">  1       21 0.95258278E-03 0.36918288E+02</pdfrwt>
<pdfrwt beam="2">  1       21 0.33865227E-01 0.36918288E+02</pdfrwt>
<totfact> 0.28242731E+07</totfact>
</mgrwt>
</event>
<event>
 4    1  0.7165636E+004  0.2255441E+02  0.7546771E-02  0.1698836E+00
         21   -1    0    0  501  502  0.00000000000E+00  0.00000000000E+00  0.13163195598E+02  0.13163195598E+02  0.00000000000E+00 0. -1.
         21   -1    0    0  502  503 -0.00000000000E+00 -0.00000000000E+00 -0.41791484363E+02  0.41791484363E+02  0.00000000000E+00 0. -1.
          5    1    1    2  501    0 -0.12163012847E+02 -0.18993753492E+02 -0.21852764873E+02  0.31404536071E+02  0.00000000000E+00 0. -1.
         -5    1    1    2    0  503  0.12163012847E+02  0.18993753492E+02 -0.67755238915E+01  0.23550143890E+02  0.00000000000E+00 0.  1.
<mgrwt>
<rscale>  2 0.22554413E+02</rscale>
<asrwt>0</asrwt>
<pdfrwt beam="1">  1       21 0.20251070E-02 0.22554413E+02</pdfrwt>
<pdfrwt beam="2">  1       21 0.64294591E-02 0.22554413E+02</pdfrwt>
<totfact> 0.13983337E+08</totfact>
</mgrwt>
</event>
<event>
 4    1  0.7165636E+004  0.2027055E+02  0.7546771E-02  0.1740001E+00
         21   -1    0    0  501  502  0.00000000000E+00  0.00000000000E+00  0.10484538922E+03  0.10484538922E+03  0.00000000000E+00 0.  1.
         21   -1    0    0  502  503 -0.00000000000E+00 -0.00000000000E+00 -0.39486380828E+01  0.39486380828E+01  0.00000000000E+00 0.  1.
          2    1    1    2  501    0 -0.69863870701E+01 -0.19028549428E+02  0.45740320383E+02  0.50030712631E+02  0.00000000000E+00 0.  1.
         -2    1    1    2    0  503  0.69863870701E+01  0.19028549428E+02  0.55156430755E+02  0.58763314672E+02  0.00000000000E+00 0. -1.
<mgrwt>
<rscale>  2 0.20270552E+02</rscale>
<asrwt>0</asrwt>
<pdfrwt beam="1">  1       21 0.16130058E-01 0.20270552E+02</pdfrwt>
<pdfrwt beam="2">  1       21 0.60748286E-03 0.20270552E+02</pdfrwt>
<totfact> 0.18076599E+08</totfact>
</mgrwt>
</event>
<event>
 4    1  0.7165636E+004  0.2222224E+02  0.7546771E-02  0.1704437E+00
         21   -1    0    0  501  502  0.00000000000E+00  0.00000000000E+00  0.24371613108E+03  0.24371613108E+03  0.00000000000E+00 0.  1.
         21   -1    0    0  502  503 -0.00000000000E+00 -0.00000000000E+00 -0.26803041704E+01  0.26803041704E+01  0.00000000000E+00 0.  1.
          4    1    1    2  501    0  0.22064387743E+02  0.26440332015E+01  0.59659370724E+02  0.63663715201E+02  0.00000000000E+00 0. -1.
         -4    1    1    2    0  503 -0.22064387743E+02 -0.26440332015E+01  0.18137645619E+03  0.18273272005E+03  0.00000000000E+00 0.  1.
<mgrwt>
<rscale>  2 0.22222244E+02</rscale>
<asrwt>0</asrwt>
<pdfrwt beam="1">  1       21 0.37494772E-01 0.22222244E+02</pdfrwt>
<pdfrwt beam="2">  1       21 0.41235468E-03 0.22222244E+02</pdfrwt>
<totfact> 0.73260350E+07</totfact>
</mgrwt>
</event>
<event>
 4    1  0.7165636E+004  0.2224228E+02  0.7546771E-02  0.1704095E+00
         21   -1    0    0  501  502  0.00000000000E+00  0.00000000000E+00  0.51027940153E+01  0.51027940153E+01  0.00000000000E+00 0. -1.
         21   -1    0    0  502  503 -0.00000000000E+00 -0.00000000000E+00 -0.98677618029E+02  0.98677618029E+02  0.00000000000E+00 0. -1.
          5    1    1    2  501    0  0.16244467227E+02 -0.15193291126E+02 -0.53652209387E+02  0.58079930982E+02  0.00000000000E+00 0. -1.
         -5    1    1    2    0  503 -0.16244467227E+02  0.15193291126E+02 -0.39922614626E+02  0.45700481062E+02  0.00000000000E+00 0.  1.
<mgrwt>
<rscale>  2 0.22242275E+02</rscale>
<asrwt>0</asrwt>
<pdfrwt beam="1">  1       21 0.78504519E-03 0.22242275E+02</pdfrwt>
<pdfrwt beam="2">  1       21 0.15181173E-01 0.22242275E+02</pdfrwt>
<totfact> 0.14092679E+08</totfact>
</mgrwt>
</event>
<event>
 4    1  0.7165636E+004  0.2528085E+02  0.7546771E-02  0.1657000E+00
         21   -1    0    0  501  502  0.00000000000E+00  0.00000000000E+00  0.19264436438E+03  0.19264436438E+03  0.00000000000E+00 0.  1.
         21   -1    0    0  502  503 -0.00000000000E+00 -0.00000000000E+00 -0.50090656007E+01  0.50090656007E+01  0.00000000000E+00 0.  1.
          4    1    1    2  501    0 -0.87565748078E+01 -0.23715898999E+02  0.15124576550E+03  0.15334406754E+03  0.00000000000E+00 0.  1.
         -4    1    1    2    0  503  0.87565748078E+01  0.23715898999E+02  0.36389533278E+02  0.44309362441E+02  0.00000000000E+00 0. -1.
<mgrwt>
<rscale>  2 0.25280852E+02</rscale>
<asrwt>0</asrwt>
<pdfrwt beam="1">  1       21 0.29637589E-01 0.25280852E+02</pdfrwt>
<pdfrwt beam="2">  1       21 0.77062563E-03 0.25280852E+02</pdfrwt>
<totfact> 0.46203064E+07</totfact>
</mgrwt>
</event>
<event>
 4    1  0.7165636E+004  0.2032804E+02  0.7546771E-02  0.1738882E+00
         21   -1    0    0  503  502  0.00000000000E+00  0.00000000000E+00  0.14602367952E+02  0.14602367952E+02  0.00000000000E+00 0. -1.
         21   -1    0    0  501  503 -0.00000000000E+00 -0.00000000000E+00 -0.30973257949E+02  0.30973257949E+02  0.00000000000E+00 0. -1.
          5    1    1    2  501    0 -0.15564778564E+00  0.20327448434E+02 -0.14881633446E+02  0.25193102232E+02  0.00000000000E+00 0.  1.
         -5    1    1    2    0  502  0.15564778564E+00 -0.20327448434E+02 -0.14892565514E+01  0.20382523669E+02  0.00000000000E+00 0. -1.
<mgrwt>
<rscale>  2 0.20328044E+02</rscale>
<asrwt>0</asrwt>
<pdfrwt beam="1">  1       21 0.22465182E-02 0.20328044E+02</pdfrwt>
<pdfrwt beam="2">  1       21 0.47651166E-02 0.20328044E+02</pdfrwt>
<totfact> 0.18621253E+08</totfact>
</mgrwt>
</event>
<event>
 4    1  0.7165636E+004  0.2472965E+02  0.7546771E-02  0.1664916E+00
         21   -1    0    0  503  502  0.00000000000E+00  0.00000000000E+00  0.14304288898E+02  0.14304288898E+02  0.00000000000E+00 0. -1.
         21   -1    0    0  501  503 -0.00000000000E+00 -0.00000000000E+00 -0.43807188091E+02  0.43807188091E+02  0.00000000000E+00 0. -1.
          4    1    1    2  501    0  0.23587880323E+02 -0.74274940917E+01 -0.10244803823E+02  0.26767737521E+02  0.00000000000E+00 0.  1.
         -4    1    1    2    0  502 -0.23587880323E+02  0.74274940917E+01 -0.19258095370E+02  0.31343739469E+02  0.00000000000E+00 0. -1.
<mgrwt>
<rscale>  2 0.24729654E+02</rscale>
<asrwt>0</asrwt>
<pdfrwt beam="1">  1       21 0.22006599E-02 0.24729654E+02</pdfrwt>
<pdfrwt beam="2">  1       21 0.67395673E-02 0.24729654E+02</pdfrwt>
<totfact> 0.11714228E+08</totfact>
</mgrwt>
</event>
<event>
 4    1  0.7165636E+004  0.2003738E+02  0.7546771E-02  0.1744586E+00
         21   -1    0    0  503  502  0.00000000000E+00  0.00000000000E+00  0.46163067897E+02  0.46163067897E+02  0.00000000000E+00 0.  1.
         21   -1    0    0  501  503 -0.00000000000E+00 -0.00000000000E+00 -0.87896318791E+01  0.87896318791E+01  0.00000000000E+00 0.  1.
          4    1    1    2  501    0  0.17152471280E+02  0.10358053035E+02  0.21502007010E+02  0.29391033312E+02  0.00000000000E+00 0. -1.
         -4    1    1    2    0  502 -0.17152471280E+02 -0.10358053035E+02  0.15871429008E+02  0.25561666464E+02  0.00000000000E+00 0.  1.
<mgrwt>
<rscale>  2 0.20037378E+02</rscale>
<asrwt>0</asrwt>
<pdfrwt beam="1">  1       21 0.71020103E-02 0.20037378E+02</pdfrwt>
<pdfrwt beam="2">  1       21 0.13522511E-02 0.20037378E+02</pdfrwt>
<totfact> 0.21207689E+08</totfact>
</mgrwt>
</event>
<event>
 4    1  0.7165636E+004  0.2053039E+02  0.7546771E-02  0.1734982E+00
         21   -1    0    0  503  502  0.00000000000E+00  0.00000000000E+00  0.15193357960E+03  0.15193357960E+03  0.00000000000E+00 0. -1.
         21   -1    0    0  501  503 -0.00000000000E+00 -0.00000000000E+00 -0.27759363867E+01  0.27759363867E+01  0.00000000000E+00 0. -1.
          5    1    1    2  501    0 -0.86302715516E+01 -0.18628344775E+02  0.72654008255E+02  0.75499018084E+02  0.00000000000E+00 0. -1.
         -5    1    1    2    0  502  0.86302715516E+01  0.18628344775E+02  0.76503634954E+02  0.79210497899E+02  0.00000000000E+00 0.  1.
<mgrwt>
<rscale>  2 0.20530388E+02</rscale>
<asrwt>0</asrwt>
<pdfrwt beam="1">  1       21 0.23374390E-01 0.20530388E+02</pdfrwt>
<pdfrwt beam="2">  1       21 0.42706725E-03 0.20530388E+02</pdfrwt>
<totfact> 0.16022294E+08</totfact>
</mgrwt>
</event>
<event>
 4    1  0.7165636E+004  0.2172904E+02  0.7546771E-02  0.1712981E+00
         21   -1    0    0  503  502  0.00000000000E+00  0.00000000000E+00  0.10461794924E+03  0.10461794924E+03  0.00000000000E+00 0.  1.
         21   -1    0    0  501  503 -0.00000000000E+00 -0.00000000000E+00 -0.83183432838E+01  0.83183432838E+01  0.00000000000E+00 0.  1.
          1    1    1    2  501    0 -0.86114324493E+01 -0.19949793553E+02  0.99574466369E+01  0.23901919905E+02  0.00000000000E+00 0. -1.
         -1    1    1    2    0  502  0.86114324493E+01  0.19949793553E+02  0.86342159323E+02  0.89034372622E+02  0.00000000000E+00 0.  1.
<mgrwt>
<rscale>  2 0.21729037E+02</rscale>
<asrwt>0</asrwt>
<pdfrwt beam="1">  1       21 0.16095068E-01 0.21729037E+02</pdfrwt>
<pdfrwt beam="2">  1       21 0.12797452E-02 0.21729037E+02</pdfrwt>
<totfact> 0.60896342E+07</totfact>
</mgrwt>
</event>
<event>
 4    1  0.7165636E+004  0.2358217E+02  0.7546771E-02  0.1682243E+00
         21   -1    0    0  503  502  0.00000000000E+00  0.00000000000E+00  0.11797243754E+01  0.11797243754E+01  0.00000000000E+00 0. -1.
         21   -1    0    0  501  503 -0.00000000000E+00 -0.00000000000E+00 -0.47156522048E+03  0.47156522048E+03  0.00000000000E+00 0. -1.
          1    1    1    2  501    0  0.12577937355E+02 -0.19947791563E+02 -0.23965306482E+03  0.24081052796E+03  0.00000000000E+00 0. -1.
         -1    1    1    2    0  502 -0.12577937355E+02  0.19947791563E+02 -0.23073243128E+03  0.23193441690E+03  0.00000000000E+00 0.  1.
<mgrwt>
<rscale>  2 0.23582173E+02</rscale>
<asrwt>0</asrwt>
<pdfrwt beam="1">  1       21 0.18149620E-03 0.23582173E+02</pdfrwt>
<pdfrwt beam="2">  1       21 0.72548439E-01 0.23582173E+02</pdfrwt>
<totfact> 0.67280760E+07</totfact>
</mgrwt>
</event>
<event>
 4    1  0.7165636E+004  0.2990687E+02  0.7546771E-02  0.1599120E+00
         21   -1    0    0  501  502  0.00000000000E+00  0.00000000000E+00  0.93557127038E+01  0.93557127038E+01  0.00000000000E+00 0. -1.
         21   -1    0    0  502  503 -0.00000000000E+00 -0.00000000000E+00 -0.10498922148E+03  0.10498922148E+03  0.00000000000E+00 0. -1.
          1    1    1    2  501    0 -0.11848423434E+01 -0.29883386530E+02 -0.64912714753E+02  0.71470841457E+02  0.00000000000E+00 0. -1.
         -1    1    1    2    0  503  0.11848423434E+01  0.29883386530E+02 -0.30720794028E+02  0.42874092732E+02  0.00000000000E+00 0.  1.
<mgrwt>
<rscale>  2 0.29906866E+02</rscale>
<asrwt>0</asrwt>
<pdfrwt beam="1">  1       21 0.14393404E-02 0.29906866E+02</pdfrwt>
<pdfrwt beam="2">  1       21 0.16152188E-01 0.29906866E+02</pdfrwt>
<totfact> 0.54724554E+07</totfact>
</mgrwt>
</event>
<event>
 4    1  0.7165636E+004  0.2027909E+02  0.7546771E-02  0.1739834E+00
         21   -1    0    0  503  502  0.00000000000E+00  0.00000000000E+00  0.13127875457E+03  0.13127875457E+03  0.00000000000E+00 0.  1.
         21   -1    0    0  501  503 -0.00000000000E+00 -0.00000000000E+00 -0.32766178237E+01  0.32766178237E+01  0.00000000000E+00 0.  1.
          4    1    1    2  501    0 -0.19731422935E+02  0.46810659227E+01  0.49895395531E+02  0.53859000403E+02  0.00000000000E+00 0. -1.
         -4    1    1    2    0  502  0.19731422935E+02 -0.46810659227E+01  0.78106741215E+02  0.80696371991E+02  0.00000000000E+00 0.  1.
<mgrwt>
<rscale>  2 0.20279088E+02</rscale>
<asrwt>0</asrwt>
<pdfrwt beam="1">  1       21 0.20196727E-01 0.20279088E+02</pdfrwt>
<pdfrwt beam="2">  1       21 0.50409515E-03 0.20279088E+02</pdfrwt>
<totfact> 0.16163773E+08</totfact>
</mgrwt>
</event>
<event>
 4    1  0.7165636E+004  0.2560373E+02  0.7546771E-02  0.1652479E+00
         21   -1    0    0  501  502  0.00000000000E+00  0.00000000000E+00  0.63858398037E+02  0.63858398037E+02  0.00000000000E+00 0. -1.
         21   -1    0    0  502  503 -0.00000000000E+00 -0.00000000000E+00 -0.10321389071E+02  0.10321389071E+02  0.00000000000E+00 0. -1.
          1    1    1    2  501    0  0.86560568057E+01 -0.24096138898E+02  0.24044128322E+02  0.35123657782E+02  0.00000000000E+00 0.  1.
         -1    1    1    2    0  503 -0.86560568057E+01  0.24096138898E+02  0.29492880644E+02  0.39056129325E+02  0.00000000000E+00 0. -1.
<mgrwt>
<rscale>  2 0.25603735E+02</rscale>
<asrwt>0</asrwt>
<pdfrwt beam="1">  1       21 0.98243687E-02 0.25603735E+02</pdfrwt>
<pdfrwt beam="2">  1       21 0.15879061E-02 0.25603735E+02</pdfrwt>
<totfact> 0.10521736E+08</totfact>
</mgrwt>
</event>
<event>
 4    1  0.7165636E+004  0.3394983E+02  0.7546771E-02  0.1558129E+00
         21   -1    0    0  501  502  0.00000000000E+00  0.00000000000E+00  0.47435413588E+02  0.47435413588E+02  0.00000000000E+00 0.  1.
         21   -1    0    0  502  503 -0.00000000000E+00 -0.00000000000E+00 -0.25733956496E+02  0.25733956496E+02  0.00000000000E+00 0.  1.
          4    1    1    2  501    0  0.26238209150E+02  0.21544084990E+02  0.22090317439E+01  0.34021626044E+02  0.00000000000E+00 0.  1.
         -4    1    1    2    0  503 -0.26238209150E+02 -0.21544084990E+02  0.19492425349E+02  0.39147744040E+02  0.00000000000E+00 0. -1.
<mgrwt>
<rscale>  2 0.33949834E+02</rscale>
<asrwt>0</asrwt>
<pdfrwt beam="1">  1       21 0.72977559E-02 0.33949834E+02</pdfrwt>
<pdfrwt beam="2">  1       21 0.39590702E-02 0.33949834E+02</pdfrwt>
<totfact> 0.44142112E+07</totfact>
</mgrwt>
</event>
<event>
 4    1  0.7165636E+004  0.4214184E+02  0.7546771E-02  0.1493016E+00
         21   -1    0    0  503  502  0.00000000000E+00  0.00000000000E+00  0.18307342681E+03  0.18307342681E+03  0.00000000000E+00 0. -1.
         21   -1    0    0  501  503 -0.00000000000E+00 -0.00000000000E+00 -0.10087518771E+02  0.10087518771E+02  0.00000000000E+00 0. -1.
          4    1    1    2  501    0  0.34696871739E+02  0.23917809625E+02  0.10540632342E+03  0.11351840178E+03  0.00000000000E+00 0.  1.
         -4    1    1    2    0  502 -0.34696871739E+02 -0.23917809625E+02  0.67579584619E+02  0.79642543800E+02  0.00000000000E+00 0. -1.
<mgrwt>
<rscale>  2 0.42141838E+02</rscale>
<asrwt>0</asrwt>
<pdfrwt beam="1">  1       21 0.28165140E-01 0.42141838E+02</pdfrwt>
<pdfrwt beam="2">  1       21 0.15519261E-02 0.42141838E+02</pdfrwt>
<totfact> 0.19202731E+07</totfact>
</mgrwt>
</event>
<event>
 4    1  0.7165636E+004  0.2164226E+02  0.7546771E-02  0.1714513E+00
         21   -1    0    0  503  502  0.00000000000E+00  0.00000000000E+00  0.41483748660E+01  0.41483748660E+01  0.00000000000E+00 0.  1.
         21   -1    0    0  501  503 -0.00000000000E+00 -0.00000000000E+00 -0.11297447298E+03  0.11297447298E+03  0.00000000000E+00 0.  1.
          4    1    1    2  501    0 -0.19585618399E+02 -0.92082047838E+01 -0.55826395193E+02  0.59874651429E+02  0.00000000000E+00 0. -1.
         -4    1    1    2    0  502  0.19585618399E+02  0.92082047838E+01 -0.52999702923E+02  0.57248196420E+02  0.00000000000E+00 0.  1.
<mgrwt>
<rscale>  2 0.21642262E+02</rscale>
<asrwt>0</asrwt>
<pdfrwt beam="1">  1       21 0.63821157E-03 0.21642262E+02</pdfrwt>
<pdfrwt beam="2">  1       21 0.17380687E-01 0.21642262E+02</pdfrwt>
<totfact> 0.15086568E+08</totfact>
</mgrwt>
</event>
<event>
 4    1  0.7165636E+004  0.2048424E+02  0.7546771E-02  0.1735866E+00
         21   -1    0    0  503  502  0.00000000000E+00  0.00000000000E+00  0.23733215137E+03  0.23733215137E+03  0.00000000000E+00 0.  1.
         21   -1    0    0  501  503 -0.00000000000E+00 -0.00000000000E+00 -0.17680625520E+01  0.17680625520E+01  0.00000000000E+00 0.  1.
          2    1    1    2  501    0  0.17624101240E+02  0.10440078612E+02  0.11847019191E+03  0.12022807724E+03  0.00000000000E+00 0.  1.
         -2    1    1    2    0  502 -0.17624101240E+02 -0.10440078612E+02  0.11709389691E+03  0.11887213668E+03  0.00000000000E+00 0. -1.
<mgrwt>
<rscale>  2 0.20484242E+02</rscale>
<asrwt>0</asrwt>
<pdfrwt beam="1">  1       21 0.36512613E-01 0.20484242E+02</pdfrwt>
<pdfrwt beam="2">  1       21 0.27200981E-03 0.20484242E+02</pdfrwt>
<totfact> 0.13802168E+08</totfact>
</mgrwt>
</event>
<event>
 4    1  0.7165636E+004  0.2398105E+02  0.7546771E-02  0.1676084E+00
         21   -1    0    0  501  502  0.00000000000E+00  0.00000000000E+00  0.99486755288E+01  0.99486755288E+01  0.00000000000E+00 0.  1.
         21   -1    0    0  502  503 -0.00000000000E+00 -0.00000000000E+00 -0.61355675947E+02  0.61355675947E+02  0.00000000000E+00 0.  1.
          2    1    1    2  501    0 -0.13319550767E+01 -0.23944036661E+02 -0.17127867174E+02  0.29469557680E+02  0.00000000000E+00 0. -1.
         -2    1    1    2    0  503  0.13319550767E+01  0.23944036661E+02 -0.34279133244E+02  0.41834793796E+02  0.00000000000E+00 0.  1.
<mgrwt>
<rscale>  2 0.23981055E+02</rscale>
<asrwt>0</asrwt>
<pdfrwt beam="1">  1       21 0.15305654E-02 0.23981055E+02</pdfrwt>
<pdfrwt beam="2">  1       21 0.94393350E-02 0.23981055E+02</pdfrwt>
<totfact> 0.11680496E+08</totfact>
</mgrwt>
</event>
<event>
 4    1  0.7165636E+004  0.2014378E+02  0.7546771E-02  0.1742484E+00
         21   -1    0    0  501  502  0.00000000000E+00  0.00000000000E+00  0.74840075597E+00  0.74840075597E+00  0.00000000000E+00 0.  1.
         21   -1    0    0  502  503 -0.00000000000E+00 -0.00000000000E+00 -0.68346791392E+03  0.68346791392E+03  0.00000000000E+00 0.  1.
          1    1    1    2  501    0 -0.20132123978E+02 -0.68521837904E+00 -0.49690209320E+03  0.49731022729E+03  0.00000000000E+00 0.  1.
         -1    1    1    2    0  503  0.20132123978E+02  0.68521837904E+00 -0.18581741997E+03  0.18690608739E+03  0.00000000000E+00 0. -1.
<mgrwt>
<rscale>  2 0.20143782E+02</rscale>
<asrwt>0</asrwt>
<pdfrwt beam="1">  1       21 0.11513886E-03 0.20143782E+02</pdfrwt>
<pdfrwt beam="2">  1       21 0.10514865E+00 0.20143782E+02</pdfrwt>
<totfact> 0.56468109E+07</totfact>
</mgrwt>
</event>
<event>
 4    1  0.7165636E+004  0.2275364E+02  0.7546771E-02  0.1695535E+00
         21   -1    0    0  503  502  0.00000000000E+00  0.00000000000E+00  0.32037577714E+02  0.32037577714E+02  0.00000000000E+00 0. -1.
         21   -1    0    0  501  503 -0.00000000000E+00 -0.00000000000E+00 -0.20498512079E+02  0.20498512079E+02  0.00000000000E+00 0. -1.
          2    1    1    2  501    0 -0.18234024999E+02  0.13610601304E+02 -0.63151599022E+01  0.23613754045E+02  0.00000000000E+00 0. -1.
         -2    1    1    2    0  502  0.18234024999E+02 -0.13610601304E+02  0.17854225538E+02  0.28922335747E+02  0.00000000000E+00 0.  1.
<mgrwt>
<rscale>  2 0.22753640E+02</rscale>
<asrwt>0</asrwt>
<pdfrwt beam="1">  1       21 0.49288581E-02 0.22753640E+02</pdfrwt>
<pdfrwt beam="2">  1       21 0.31536172E-02 0.22753640E+02</pdfrwt>
<totfact> 0.10813974E+08</totfact>
</mgrwt>
</event>
<event>
 4    1  0.7165636E+004  0.2823799E+02  0.7546771E-02  0.1618424E+00
         21   -1    0    0  501  502  0.00000000000E+00  0.00000000000E+00  0.24512212170E+02  0.24512212170E+02  0.00000000000E+00 0. -1.
         21   -1    0    0  502  503 -0.00000000000E+00 -0.00000000000E+00 -0.34531732139E+02  0.34531732139E+02  0.00000000000E+00 0. -1.
          1    1    1    2  501    0  0.10802813817E+01  0.28217317725E+02 -0.12117497021E+02  0.30728126554E+02  0.00000000000E+00 0. -1.
         -1    1    1    2    0  503 -0.10802813817E+01 -0.28217317725E+02  0.20979770520E+01  0.28315817756E+02  0.00000000000E+00 0.  1.
<mgrwt>
<rscale>  2 0.28237989E+02</rscale>
<asrwt>0</asrwt>
<pdfrwt beam="1">  1       21 0.37711096E-02 0.28237989E+02</pdfrwt>
<pdfrwt beam="2">  1       21 0.53125742E-02 0.28237989E+02</pdfrwt>
<totfact> 0.76731284E+07</totfact>
</mgrwt>
</event>
<event>
 4    1  0.7165636E+004  0.3976889E+02  0.7546771E-02  0.1509919E+00
         21   -1    0    0  503  502  0.00000000000E+00  0.00000000000E+00  0.49214574971E+02  0.49214574971E+02  0.00000000000E+00 0.  1.
         21   -1    0    0  501  503 -0.00000000000E+00 -0.00000000000E+00 -0.32218328496E+02  0.32218328496E+02  0.00000000000E+00 0.  1.
          4    1    1    2  501    0 -0.27949157864E+02 -0.28291508509E+02  0.64412411287E+01  0.40287150139E+02  0.00000000000E+00 0. -1.
         -4    1    1    2    0  502  0.27949157864E+02  0.28291508509E+02  0.10555005346E+02  0.41145753327E+02  0.00000000000E+00 0.  1.
<mgrwt>
<rscale>  2 0.39768893E+02</rscale>
<asrwt>0</asrwt>
<pdfrwt beam="1">  1       21 0.75714730E-02 0.39768893E+02</pdfrwt>
<pdfrwt beam="2">  1       21 0.49566660E-02 0.39768893E+02</pdfrwt>
<totfact> 0.29798104E+07</totfact>
</mgrwt>
</event>
<event>
 4    1  0.7165636E+004  0.3800104E+02  0.7546771E-02  0.1523459E+00
         21   -1    0    0  503  502  0.00000000000E+00  0.00000000000E+00  0.23320653101E+01  0.23320653101E+01  0.00000000000E+00 0.  1.
         21   -1    0    0  501  503 -0.00000000000E+00 -0.00000000000E+00 -0.65992608222E+03  0.65992608222E+03  0.00000000000E+00 0.  1.
          5    1    1    2  501    0  0.16079842655E+02  0.34431346729E+02 -0.24656530346E+03  0.24947650761E+03  0.00000000000E+00 0.  1.
         -5    1    1    2    0  502 -0.16079842655E+02 -0.34431346729E+02 -0.41102871345E+03  0.41278163992E+03  0.00000000000E+00 0. -1.
<mgrwt>
<rscale>  2 0.38001039E+02</rscale>
<asrwt>0</asrwt>
<pdfrwt beam="1">  1       21 0.35877942E-03 0.38001039E+02</pdfrwt>
<pdfrwt beam="2">  1       21 0.10152705E+00 0.38001039E+02</pdfrwt>
<totfact> 0.13098605E+07</totfact>
</mgrwt>
</event>
<event>
 4    1  0.7165636E+004  0.3292508E+02  0.7546771E-02  0.1567838E+00
         21   -1    0    0  503  502  0.00000000000E+00  0.00000000000E+00  0.64242822700E+03  0.64242822700E+03  0.00000000000E+00 0.  1.
         21   -1    0    0  501  503 -0.00000000000E+00 -0.00000000000E+00 -0.39343086514E+01  0.39343086514E+01  0.00000000000E+00 0.  1.
          1    1    1    2  501    0 -0.26076239362E+02 -0.20102012127E+02  0.75016121819E+02  0.81923621035E+02  0.00000000000E+00 0.  1.
         -1    1    1    2    0  502  0.26076239362E+02  0.20102012127E+02  0.56347779653E+03  0.56443891462E+03  0.00000000000E+00 0. -1.
<mgrwt>
<rscale>  2 0.32925084E+02</rscale>
<asrwt>0</asrwt>
<pdfrwt beam="1">  1       21 0.98835029E-01 0.32925084E+02</pdfrwt>
<pdfrwt beam="2">  1       21 0.60527876E-03 0.32925084E+02</pdfrwt>
<totfact> 0.62642936E+06</totfact>
</mgrwt>
</event>
<event>
 4    1  0.7165636E+004  0.2206431E+02  0.7546771E-02  0.1707142E+00
         21   -1    0    0  501  502  0.00000000000E+00  0.00000000000E+00  0.34523475881E+02  0.34523475881E+02  0.00000000000E+00 0. -1.
         21   -1    0    0  502  503 -0.00000000000E+00 -0.00000000000E+00 -0.14168170873E+02  0.14168170873E+02  0.00000000000E+00 0. -1.
          1    1    1    2  501    0 -0.18050654175E+02  0.12688883029E+02  0.85079682978E+01  0.23647820053E+02  0.00000000000E+00 0.  1.
         -1    1    1    2    0  503  0.18050654175E+02 -0.12688883029E+02  0.11847336710E+02  0.25043826701E+02  0.00000000000E+00 0. -1.
<mgrwt>
<rscale>  2 0.22064312E+02</rscale>
<asrwt>0</asrwt>
<pdfrwt beam="1">  1       21 0.53113039E-02 0.22064312E+02</pdfrwt>
<pdfrwt beam="2">  1       21 0.21797186E-02 0.22064312E+02</pdfrwt>
<totfact> 0.16848831E+08</totfact>
</mgrwt>
</event>
<event>
 4    1  0.7165636E+004  0.2547589E+02  0.7546771E-02  0.1654259E+00
         21   -1    0    0  503  502  0.00000000000E+00  0.00000000000E+00  0.29244053635E+02  0.29244053635E+02  0.00000000000E+00 0. -1.
         21   -1    0    0  501  503 -0.00000000000E+00 -0.00000000000E+00 -0.23722964309E+02  0.23722964309E+02  0.00000000000E+00 0. -1.
          3    1    1    2  501    0 -0.23169837109E+02  0.10591477776E+02  0.94855934316E+01  0.27184503599E+02  0.00000000000E+00 0. -1.
         -3    1    1    2    0  502  0.23169837109E+02 -0.10591477776E+02 -0.39645041056E+01  0.25782514345E+02  0.00000000000E+00 0.  1.
<mgrwt>
<rscale>  2 0.25475886E+02</rscale>
<asrwt>0</asrwt>
<pdfrwt beam="1">  1       21 0.44990852E-02 0.25475886E+02</pdfrwt>
<pdfrwt beam="2">  1       21 0.36496868E-02 0.25475886E+02</pdfrwt>
<totfact> 0.10264797E+08</totfact>
</mgrwt>
</event>
<event>
 4    1  0.7165636E+004  0.2682659E+02  0.7546771E-02  0.1636072E+00
         21   -1    0    0  501  502  0.00000000000E+00  0.00000000000E+00  0.19502636482E+01  0.19502636482E+01  0.00000000000E+00 0.  1.
         21   -1    0    0  502  503 -0.00000000000E+00 -0.00000000000E+00 -0.36908434922E+03  0.36908434922E+03  0.00000000000E+00 0.  1.
          3    1    1    2  501    0  0.95169832770E+01  0.25081729127E+02 -0.18620628325E+03  0.18812880169E+03  0.00000000000E+00 0.  1.
         -3    1    1    2    0  503 -0.95169832770E+01 -0.25081729127E+02 -0.18092780233E+03  0.18290581118E+03  0.00000000000E+00 0. -1.
<mgrwt>
<rscale>  2 0.26826593E+02</rscale>
<asrwt>0</asrwt>
<pdfrwt beam="1">  1       21 0.30004055E-03 0.26826593E+02</pdfrwt>
<pdfrwt beam="2">  1       21 0.56782209E-01 0.26826593E+02</pdfrwt>
<totfact> 0.54843265E+07</totfact>
</mgrwt>
</event>
<event>
 4    1  0.7165636E+004  0.2889229E+02  0.7546771E-02  0.1610666E+00
         21   -1    0    0  501  502  0.00000000000E+00  0.00000000000E+00  0.18623050578E+02  0.18623050578E+02  0.00000000000E+00 0.  1.
         21   -1    0    0  502  503 -0.00000000000E+00 -0.00000000000E+00 -0.44859709629E+02  0.44859709629E+02  0.00000000000E+00 0.  1.
          2    1    1    2  501    0 -0.77624984243E+01 -0.27829985827E+02 -0.12226066397E+02  0.31372618515E+02  0.00000000000E+00 0.  1.
         -2    1    1    2    0  503  0.77624984243E+01  0.27829985827E+02 -0.14010592654E+02  0.32110141692E+02  0.00000000000E+00 0. -1.
<mgrwt>
<rscale>  2 0.28892291E+02</rscale>
<asrwt>0</asrwt>
<pdfrwt beam="1">  1       21 0.28650847E-02 0.28892291E+02</pdfrwt>
<pdfrwt beam="2">  1       21 0.69014938E-02 0.28892291E+02</pdfrwt>
<totfact> 0.77859440E+07</totfact>
</mgrwt>
</event>
<event>
 4    1  0.7165636E+004  0.2117457E+02  0.7546771E-02  0.1722931E+00
         21   -1    0    0  501  502  0.00000000000E+00  0.00000000000E+00  0.32134120124E+02  0.32134120124E+02  0.00000000000E+00 0.  1.
         21   -1    0    0  502  503 -0.00000000000E+00 -0.00000000000E+00 -0.13973224937E+02  0.13973224937E+02  0.00000000000E+00 0.  1.
          5    1    1    2  501    0 -0.80023645705E+01 -0.19604196322E+02  0.99609046761E+01  0.23400469527E+02  0.00000000000E+00 0.  1.
         -5    1    1    2    0  503  0.80023645705E+01  0.19604196322E+02  0.81999905100E+01  0.22706875534E+02  0.00000000000E+00 0. -1.
<mgrwt>
<rscale>  2 0.21174569E+02</rscale>
<asrwt>0</asrwt>
<pdfrwt beam="1">  1       21 0.49437108E-02 0.21174569E+02</pdfrwt>
<pdfrwt beam="2">  1       21 0.21497269E-02 0.21174569E+02</pdfrwt>
<totfact> 0.19041448E+08</totfact>
</mgrwt>
</event>
<event>
 4    1  0.7165636E+004  0.2459791E+02  0.7546771E-02  0.1666845E+00
         21   -1    0    0  503  502  0.00000000000E+00  0.00000000000E+00  0.28195003968E+02  0.28195003968E+02  0.00000000000E+00 0.  1.
         21   -1    0    0  501  503 -0.00000000000E+00 -0.00000000000E+00 -0.57515439054E+02  0.57515439054E+02  0.00000000000E+00 0.  1.
          5    1    1    2  501    0  0.23026507013E+02 -0.86508383325E+01  0.19270932175E+02  0.31247813619E+02  0.00000000000E+00 0.  1.
         -5    1    1    2    0  502 -0.23026507013E+02  0.86508383325E+01 -0.48591367261E+02  0.54462629402E+02  0.00000000000E+00 0. -1.
<mgrwt>
<rscale>  2 0.24597907E+02</rscale>
<asrwt>0</asrwt>
<pdfrwt beam="1">  1       21 0.43376929E-02 0.24597907E+02</pdfrwt>
<pdfrwt beam="2">  1       21 0.88485291E-02 0.24597907E+02</pdfrwt>
<totfact> 0.25955709E+07</totfact>
</mgrwt>
</event>
<event>
 4    1  0.7165636E+004  0.2009835E+02  0.7546771E-02  0.1743379E+00
         21   -1    0    0  501  502  0.00000000000E+00  0.00000000000E+00  0.73954094773E+02  0.73954094773E+02  0.00000000000E+00 0.  1.
         21   -1    0    0  502  503 -0.00000000000E+00 -0.00000000000E+00 -0.95519310832E+01  0.95519310832E+01  0.00000000000E+00 0.  1.
          5    1    1    2  501    0 -0.98856644276E+01  0.17499067509E+02  0.48801449895E+01  0.20682348512E+02  0.00000000000E+00 0.  1.
         -5    1    1    2    0  503  0.98856644276E+01 -0.17499067509E+02  0.59522018700E+02  0.62823677344E+02  0.00000000000E+00 0. -1.
<mgrwt>
<rscale>  2 0.20098351E+02</rscale>
<asrwt>0</asrwt>
<pdfrwt beam="1">  1       21 0.11377553E-01 0.20098351E+02</pdfrwt>
<pdfrwt beam="2">  1       21 0.14695279E-02 0.20098351E+02</pdfrwt>
<totfact> 0.86686076E+07</totfact>
</mgrwt>
</event>
<event>
 4    1  0.7165636E+004  0.2109685E+02  0.7546771E-02  0.1724356E+00
         21   -1    0    0  501  502  0.00000000000E+00  0.00000000000E+00  0.38102797806E+03  0.38102797806E+03  0.00000000000E+00 0.  1.
         21   -1    0    0  502  503 -0.00000000000E+00 -0.00000000000E+00 -0.11739258116E+01  0.11739258116E+01  0.00000000000E+00 0.  1.
          2    1    1    2  501    0  0.54406841211E+01 -0.20383228972E+02  0.20339456880E+03  0.20448576401E+03  0.00000000000E+00 0. -1.
         -2    1    1    2    0  503 -0.54406841211E+01  0.20383228972E+02  0.17645948344E+03  0.17771613985E+03  0.00000000000E+00 0.  1.
<mgrwt>
<rscale>  2 0.21096850E+02</rscale>
<asrwt>0</asrwt>
<pdfrwt beam="1">  1       21 0.58619590E-01 0.21096850E+02</pdfrwt>
<pdfrwt beam="2">  1       21 0.18060427E-03 0.21096850E+02</pdfrwt>
<totfact> 0.10145148E+08</totfact>
</mgrwt>
</event>
<event>
 4    1  0.7165636E+004  0.2022360E+02  0.7546771E-02  0.1740918E+00
         21   -1    0    0  501  502  0.00000000000E+00  0.00000000000E+00  0.26279017557E+03  0.26279017557E+03  0.00000000000E+00 0. -1.
         21   -1    0    0  502  503 -0.00000000000E+00 -0.00000000000E+00 -0.16309207685E+01  0.16309207685E+01  0.00000000000E+00 0. -1.
          5    1    1    2  501    0  0.14340353589E+02 -0.14260029522E+02  0.10230959532E+03  0.10428924910E+03  0.00000000000E+00 0.  1.
         -5    1    1    2    0  503 -0.14340353589E+02  0.14260029522E+02  0.15884965948E+03  0.16013184724E+03  0.00000000000E+00 0. -1.
<mgrwt>
<rscale>  2 0.20223605E+02</rscale>
<asrwt>0</asrwt>
<pdfrwt beam="1">  1       21 0.40429224E-01 0.20223605E+02</pdfrwt>
<pdfrwt beam="2">  1       21 0.25091110E-03 0.20223605E+02</pdfrwt>
<totfact> 0.12781520E+08</totfact>
</mgrwt>
</event>
<event>
 4    1  0.7165636E+004  0.2533735E+02  0.7546771E-02  0.1656203E+00
         21   -1    0    0  501  502  0.00000000000E+00  0.00000000000E+00  0.36466977941E+00  0.36466977941E+00  0.00000000000E+00 0.  1.
         21   -1    0    0  502  503 -0.00000000000E+00 -0.00000000000E+00 -0.20152830748E+04  0.20152830748E+04  0.00000000000E+00 0.  1.
          4    1    1    2  501    0 -0.20450155529E+02  0.14959019690E+02 -0.13658432528E+04  0.13660782454E+04  0.00000000000E+00 0.  1.
         -4    1    1    2    0  503  0.20450155529E+02 -0.14959019690E+02 -0.64907515219E+03  0.64956949923E+03  0.00000000000E+00 0. -1.
<mgrwt>
<rscale>  2 0.25337347E+02</rscale>
<asrwt>0</asrwt>
<pdfrwt beam="1">  1       21 0.56102807E-04 0.25337347E+02</pdfrwt>
<pdfrwt beam="2">  1       21 0.31004485E+00 0.25337347E+02</pdfrwt>
<totfact> 0.98740261E+06</totfact>
</mgrwt>
</event>
<event>
 4    1  0.7165636E+004  0.3164403E+02  0.7546771E-02  0.1580596E+00
         21   -1    0    0  501  502  0.00000000000E+00  0.00000000000E+00  0.46849069020E+02  0.46849069020E+02  0.00000000000E+00 0. -1.
         21   -1    0    0  502  503 -0.00000000000E+00 -0.00000000000E+00 -0.24903974365E+02  0.24903974365E+02  0.00000000000E+00 0. -1.
          4    1    1    2  501    0 -0.29554827752E+02  0.11307386801E+02 -0.25348345782E+01  0.31745396927E+02  0.00000000000E+00 0. -1.
         -4    1    1    2    0  503  0.29554827752E+02 -0.11307386801E+02  0.24479929233E+02  0.40007646457E+02  0.00000000000E+00 0.  1.
<mgrwt>
<rscale>  2 0.31644033E+02</rscale>
<asrwt>0</asrwt>
<pdfrwt beam="1">  1       21 0.72075491E-02 0.31644033E+02</pdfrwt>
<pdfrwt beam="2">  1       21 0.38313807E-02 0.31644033E+02</pdfrwt>
<totfact> 0.46776907E+07</totfact>
</mgrwt>
</event>
<event>
 4    1  0.7165636E+004  0.4253123E+02  0.7546771E-02  0.1490370E+00
         21   -1    0    0  501  502  0.00000000000E+00  0.00000000000E+00  0.20356783887E+01  0.20356783887E+01  0.00000000000E+00 0.  1.
         21   -1    0    0  502  503 -0.00000000000E+00 -0.00000000000E+00 -0.89218536485E+03  0.89218536485E+03  0.00000000000E+00 0.  1.
          4    1    1    2  501    0  0.14002843651E+02 -0.40159999705E+02 -0.41673400775E+03  0.41889872096E+03  0.00000000000E+00 0.  1.
         -4    1    1    2    0  503 -0.14002843651E+02  0.40159999705E+02 -0.47341567871E+03  0.47532232228E+03  0.00000000000E+00 0. -1.
<mgrwt>
<rscale>  2 0.42531226E+02</rscale>
<asrwt>0</asrwt>
<pdfrwt beam="1">  1       21 0.31318088E-03 0.42531226E+02</pdfrwt>
<pdfrwt beam="2">  1       21 0.13725947E+00 0.42531226E+02</pdfrwt>
<totfact> 0.80601086E+06</totfact>
</mgrwt>
</event>
<event>
 4    1  0.7165636E+004  0.2813317E+02  0.7546771E-02  0.1619691E+00
         21   -1    0    0  503  502  0.00000000000E+00  0.00000000000E+00  0.10485457764E+02  0.10485457764E+02  0.00000000000E+00 0. -1.
         21   -1    0    0  501  503 -0.00000000000E+00 -0.00000000000E+00 -0.11081771578E+03  0.11081771578E+03  0.00000000000E+00 0. -1.
          3    1    1    2  501    0  0.23095289794E+02  0.16064964951E+02 -0.84414299313E+02  0.88978926933E+02  0.00000000000E+00 0. -1.
         -3    1    1    2    0  502 -0.23095289794E+02 -0.16064964951E+02 -0.15917958698E+02  0.32324246606E+02  0.00000000000E+00 0.  1.
<mgrwt>
<rscale>  2 0.28133175E+02</rscale>
<asrwt>0</asrwt>
<pdfrwt beam="1">  1       21 0.16131474E-02 0.28133175E+02</pdfrwt>
<pdfrwt beam="2">  1       21 0.17048879E-01 0.28133175E+02</pdfrwt>
<totfact> 0.41276781E+07</totfact>
</mgrwt>
</event>
<event>
 4    1  0.7165636E+004  0.3122195E+02  0.7546771E-02  0.1584961E+00
         21   -1    0    0  501  502  0.00000000000E+00  0.00000000000E+00  0.19975724251E+02  0.19975724251E+02  0.00000000000E+00 0.  1.
         21   -1    0    0  502  503 -0.00000000000E+00 -0.00000000000E+00 -0.48890573491E+02  0.48890573491E+02  0.00000000000E+00 0.  1.
          5    1    1    2  501    0 -0.31214605624E+02  0.67730190293E+00 -0.15941527999E+02  0.35056278426E+02  0.00000000000E+00 0. -1.
         -5    1    1    2    0  503  0.31214605624E+02 -0.67730190293E+00 -0.12973321242E+02  0.33810019316E+02  0.00000000000E+00 0.  1.
<mgrwt>
<rscale>  2 0.31221953E+02</rscale>
<asrwt>0</asrwt>
<pdfrwt beam="1">  1       21 0.30731884E-02 0.31221953E+02</pdfrwt>
<pdfrwt beam="2">  1       21 0.75216266E-02 0.31221953E+02</pdfrwt>
<totfact> 0.61658913E+07</totfact>
</mgrwt>
</event>
<event>
 4    1  0.7165636E+004  0.2697719E+02  0.7546771E-02  0.1634126E+00
         21   -1    0    0  501  502  0.00000000000E+00  0.00000000000E+00  0.12401992833E+01  0.12401992833E+01  0.00000000000E+00 0. -1.
         21   -1    0    0  502  503 -0.00000000000E+00 -0.00000000000E+00 -0.79704907800E+03  0.79704907800E+03  0.00000000000E+00 0. -1.
          2    1    1    2  501    0 -0.25560427260E+02  0.86274689791E+01 -0.19291174082E+03  0.19478888164E+03  0.00000000000E+00 0. -1.
         -2    1    1    2    0  503  0.25560427260E+02 -0.86274689791E+01 -0.60289713789E+03  0.60350039564E+03  0.00000000000E+00 0.  1.
<mgrwt>
<rscale>  2 0.26977188E+02</rscale>
<asrwt>0</asrwt>
<pdfrwt beam="1">  1       21 0.19079984E-03 0.26977188E+02</pdfrwt>
<pdfrwt beam="2">  1       21 0.12262296E+00 0.26977188E+02</pdfrwt>
<totfact> 0.20539516E+07</totfact>
</mgrwt>
</event>
<event>
 4    1  0.7165636E+004  0.3011872E+02  0.7546771E-02  0.1596780E+00
         21   -1    0    0  503  502  0.00000000000E+00  0.00000000000E+00  0.67857092609E+01  0.67857092609E+01  0.00000000000E+00 0.  1.
         21   -1    0    0  501  503 -0.00000000000E+00 -0.00000000000E+00 -0.15315645017E+03  0.15315645017E+03  0.00000000000E+00 0.  1.
          3    1    1    2  501    0  0.13445838155E+02 -0.26950824434E+02 -0.44669872214E+02  0.53875179675E+02  0.00000000000E+00 0. -1.
         -3    1    1    2    0  502 -0.13445838155E+02  0.26950824434E+02 -0.10170086870E+03  0.10606697976E+03  0.00000000000E+00 0.  1.
<mgrwt>
<rscale>  2 0.30118723E+02</rscale>
<asrwt>0</asrwt>
<pdfrwt beam="1">  1       21 0.10439552E-02 0.30118723E+02</pdfrwt>
<pdfrwt beam="2">  1       21 0.23562532E-01 0.30118723E+02</pdfrwt>
<totfact> 0.46001830E+07</totfact>
</mgrwt>
</event>
<event>
 4    1  0.7165636E+004  0.3317104E+02  0.7546771E-02  0.1565469E+00
         21   -1    0    0  503  502  0.00000000000E+00  0.00000000000E+00  0.30494875152E+02  0.30494875152E+02  0.00000000000E+00 0. -1.
         21   -1    0    0  501  503 -0.00000000000E+00 -0.00000000000E+00 -0.37122769841E+02  0.37122769841E+02  0.00000000000E+00 0. -1.
          4    1    1    2  501    0  0.22887104327E+02 -0.24010375857E+02  0.23468317353E+01  0.33253951832E+02  0.00000000000E+00 0.  1.
         -4    1    1    2    0  502 -0.22887104327E+02  0.24010375857E+02 -0.89747264243E+01  0.34363693161E+02  0.00000000000E+00 0. -1.
<mgrwt>
<rscale>  2 0.33171037E+02</rscale>
<asrwt>0</asrwt>
<pdfrwt beam="1">  1       21 0.46915193E-02 0.33171037E+02</pdfrwt>
<pdfrwt beam="2">  1       21 0.57111953E-02 0.33171037E+02</pdfrwt>
<totfact> 0.49968381E+07</totfact>
</mgrwt>
</event>
<event>
 4    1  0.7165636E+004  0.2109106E+02  0.7546771E-02  0.1724463E+00
         21   -1    0    0  501  502  0.00000000000E+00  0.00000000000E+00  0.17907393340E+02  0.17907393340E+02  0.00000000000E+00 0. -1.
         21   -1    0    0  502  503 -0.00000000000E+00 -0.00000000000E+00 -0.25138685932E+02  0.25138685932E+02  0.00000000000E+00 0. -1.
          3    1    1    2  501    0  0.46482875860E+01 -0.20572464541E+02 -0.59588074476E+01  0.21916666284E+02  0.00000000000E+00 0.  1.
         -3    1    1    2    0  503 -0.46482875860E+01  0.20572464541E+02 -0.12724851445E+01  0.21129412988E+02  0.00000000000E+00 0. -1.
<mgrwt>
<rscale>  2 0.21091061E+02</rscale>
<asrwt>0</asrwt>
<pdfrwt beam="1">  1       21 0.27549836E-02 0.21091061E+02</pdfrwt>
<pdfrwt beam="2">  1       21 0.38674902E-02 0.21091061E+02</pdfrwt>
<totfact> 0.19114463E+08</totfact>
</mgrwt>
</event>
<event>
 4    1  0.7165636E+004  0.2808909E+02  0.7546771E-02  0.1620225E+00
         21   -1    0    0  503  502  0.00000000000E+00  0.00000000000E+00  0.17938852876E+01  0.17938852876E+01  0.00000000000E+00 0. -1.
         21   -1    0    0  501  503 -0.00000000000E+00 -0.00000000000E+00 -0.47927739169E+03  0.47927739169E+03  0.00000000000E+00 0. -1.
          5    1    1    2  501    0  0.15860090693E+02  0.23183069939E+02 -0.30775265180E+03  0.30903186228E+03  0.00000000000E+00 0. -1.
         -5    1    1    2    0  502 -0.15860090693E+02 -0.23183069939E+02 -0.16973085460E+03  0.17203941470E+03  0.00000000000E+00 0.  1.
<mgrwt>
<rscale>  2 0.28089094E+02</rscale>
<asrwt>0</asrwt>
<pdfrwt beam="1">  1       21 0.27598195E-03 0.28089094E+02</pdfrwt>
<pdfrwt beam="2">  1       21 0.73735090E-01 0.28089094E+02</pdfrwt>
<totfact> 0.36722172E+07</totfact>
</mgrwt>
</event>
<event>
 4    1  0.7165636E+004  0.6020990E+02  0.7546771E-02  0.1396953E+00
         21   -1    0    0  501  502  0.00000000000E+00  0.00000000000E+00  0.19687518019E+02  0.19687518019E+02  0.00000000000E+00 0. -1.
         21   -1    0    0  502  503 -0.00000000000E+00 -0.00000000000E+00 -0.18416651265E+03  0.18416651265E+03  0.00000000000E+00 0. -1.
          1    1    1    2  501    0 -0.39566008843E+02  0.45384605741E+02 -0.83494910050E+02  0.10293994122E+03  0.00000000000E+00 0.  1.
         -1    1    1    2    0  503  0.39566008843E+02 -0.45384605741E+02 -0.80984084584E+02  0.10091408945E+03  0.00000000000E+00 0. -1.
<mgrwt>
<rscale>  2 0.60209895E+02</rscale>
<asrwt>0</asrwt>
<pdfrwt beam="1">  1       21 0.30288491E-02 0.60209895E+02</pdfrwt>
<pdfrwt beam="2">  1       21 0.28333308E-01 0.60209895E+02</pdfrwt>
<totfact> 0.68903631E+06</totfact>
</mgrwt>
</event>
<event>
 4    1  0.7165636E+004  0.2290654E+02  0.7546771E-02  0.1693030E+00
         21   -1    0    0  501  502  0.00000000000E+00  0.00000000000E+00  0.18115446591E+01  0.18115446591E+01  0.00000000000E+00 0. -1.
         21   -1    0    0  502  503 -0.00000000000E+00 -0.00000000000E+00 -0.32211518814E+03  0.32211518814E+03  0.00000000000E+00 0. -1.
          2    1    1    2  501    0 -0.89156458143E+01  0.21100255445E+02 -0.21157233000E+03  0.21280874123E+03  0.00000000000E+00 0.  1.
         -2    1    1    2    0  503  0.89156458143E+01 -0.21100255445E+02 -0.10873131348E+03  0.11111799157E+03  0.00000000000E+00 0. -1.
<mgrwt>
<rscale>  2 0.22906539E+02</rscale>
<asrwt>0</asrwt>
<pdfrwt beam="1">  1       21 0.27869919E-03 0.22906539E+02</pdfrwt>
<pdfrwt beam="2">  1       21 0.49556181E-01 0.22906539E+02</pdfrwt>
<totfact> 0.76958825E+07</totfact>
</mgrwt>
</event>
<event>
 4    1  0.7165636E+004  0.2876296E+02  0.7546771E-02  0.1612179E+00
         21   -1    0    0  501  502  0.00000000000E+00  0.00000000000E+00  0.66477776597E+01  0.66477776597E+01  0.00000000000E+00 0. -1.
         21   -1    0    0  502  503 -0.00000000000E+00 -0.00000000000E+00 -0.14762062337E+03  0.14762062337E+03  0.00000000000E+00 0. -1.
          2    1    1    2  501    0 -0.14119907494E+02  0.25058648339E+02 -0.10104646889E+03  0.10506044222E+03  0.00000000000E+00 0. -1.
         -2    1    1    2    0  503  0.14119907494E+02 -0.25058648339E+02 -0.39926376820E+02  0.49207958810E+02  0.00000000000E+00 0.  1.
<mgrwt>
<rscale>  2 0.28762956E+02</rscale>
<asrwt>0</asrwt>
<pdfrwt beam="1">  1       21 0.10227351E-02 0.28762956E+02</pdfrwt>
<pdfrwt beam="2">  1       21 0.22710862E-01 0.28762956E+02</pdfrwt>
<totfact> 0.50185104E+07</totfact>
</mgrwt>
</event>
<event>
 4    1  0.7165636E+004  0.2142234E+02  0.7546771E-02  0.1718438E+00
         21   -1    0    0  503  502  0.00000000000E+00  0.00000000000E+00  0.26662837262E+02  0.26662837262E+02  0.00000000000E+00 0. -1.
         21   -1    0    0  501  503 -0.00000000000E+00 -0.00000000000E+00 -0.17316029474E+02  0.17316029474E+02  0.00000000000E+00 0. -1.
          3    1    1    2  501    0  0.96687381331E+01  0.19116280909E+02  0.29677698487E+01  0.21626935769E+02  0.00000000000E+00 0. -1.
         -3    1    1    2    0  502 -0.96687381331E+01 -0.19116280909E+02  0.63790379388E+01  0.22351930966E+02  0.00000000000E+00 0.  1.
<mgrwt>
<rscale>  2 0.21422341E+02</rscale>
<asrwt>0</asrwt>
<pdfrwt beam="1">  1       21 0.41019750E-02 0.21422341E+02</pdfrwt>
<pdfrwt beam="2">  1       21 0.26640045E-02 0.21422341E+02</pdfrwt>
<totfact> 0.18446762E+08</totfact>
</mgrwt>
</event>
<event>
 4    1  0.7165636E+004  0.2177739E+02  0.7546771E-02  0.1712131E+00
         21   -1    0    0  503  502  0.00000000000E+00  0.00000000000E+00  0.25639250972E+02  0.25639250972E+02  0.00000000000E+00 0. -1.
         21   -1    0    0  501  503 -0.00000000000E+00 -0.00000000000E+00 -0.27150033025E+02  0.27150033025E+02  0.00000000000E+00 0. -1.
          5    1    1    2  501    0  0.18795099288E+01  0.21696130809E+02 -0.15656186923E+02  0.26821089438E+02  0.00000000000E+00 0.  1.
         -5    1    1    2    0  502 -0.18795099288E+01 -0.21696130809E+02  0.14145404871E+02  0.25968194559E+02  0.00000000000E+00 0. -1.
<mgrwt>
<rscale>  2 0.21777388E+02</rscale>
<asrwt>0</asrwt>
<pdfrwt beam="1">  1       21 0.39445001E-02 0.21777388E+02</pdfrwt>
<pdfrwt beam="2">  1       21 0.41769282E-02 0.21777388E+02</pdfrwt>
<totfact> 0.97741482E+07</totfact>
</mgrwt>
</event>
<event>
 4    1  0.7165636E+004  0.2237331E+02  0.7546771E-02  0.1701875E+00
         21   -1    0    0  501  502  0.00000000000E+00  0.00000000000E+00  0.72392752664E+02  0.72392752664E+02  0.00000000000E+00 0.  1.
         21   -1    0    0  502  503 -0.00000000000E+00 -0.00000000000E+00 -0.93792843684E+01  0.93792843684E+01  0.00000000000E+00 0.  1.
          3    1    1    2  501    0 -0.12660564687E+02 -0.18446545692E+02  0.10547614539E+02  0.24734937207E+02  0.00000000000E+00 0. -1.
         -3    1    1    2    0  503  0.12660564687E+02  0.18446545692E+02  0.52465853756E+02  0.57037099825E+02  0.00000000000E+00 0.  1.
<mgrwt>
<rscale>  2 0.22373309E+02</rscale>
<asrwt>0</asrwt>
<pdfrwt beam="1">  1       21 0.11137346E-01 0.22373309E+02</pdfrwt>
<pdfrwt beam="2">  1       21 0.14429669E-02 0.22373309E+02</pdfrwt>
<totfact> 0.95207980E+07</totfact>
</mgrwt>
</event>
<event>
 4    1  0.7165636E+004  0.3735279E+02  0.7546771E-02  0.1528648E+00
         21   -1    0    0  501  502  0.00000000000E+00  0.00000000000E+00  0.67636820394E+02  0.67636820394E+02  0.00000000000E+00 0. -1.
         21   -1    0    0  502  503 -0.00000000000E+00 -0.00000000000E+00 -0.42579064137E+02  0.42579064137E+02  0.00000000000E+00 0. -1.
          3    1    1    2  501    0  0.84299003031E+01  0.36389112684E+02  0.52096617252E+02  0.64103730548E+02  0.00000000000E+00 0.  1.
         -3    1    1    2    0  503 -0.84299003031E+01 -0.36389112684E+02 -0.27038860995E+02  0.46112153983E+02  0.00000000000E+00 0. -1.
<mgrwt>
<rscale>  2 0.37352788E+02</rscale>
<asrwt>0</asrwt>
<pdfrwt beam="1">  1       21 0.10405665E-01 0.37352788E+02</pdfrwt>
<pdfrwt beam="2">  1       21 0.65506252E-02 0.37352788E+02</pdfrwt>
<totfact> 0.10986431E+07</totfact>
</mgrwt>
</event>
<event>
 4    1  0.7165636E+004  0.2489080E+02  0.7546771E-02  0.1662575E+00
         21   -1    0    0  501  502  0.00000000000E+00  0.00000000000E+00  0.31795128229E+02  0.31795128229E+02  0.00000000000E+00 0. -1.
         21   -1    0    0  502  503 -0.00000000000E+00 -0.00000000000E+00 -0.20301609696E+02  0.20301609696E+02  0.00000000000E+00 0. -1.
          1    1    1    2  501    0 -0.24184606933E+02 -0.58870041081E+01  0.52493662802E+00  0.24896336845E+02  0.00000000000E+00 0. -1.
         -1    1    1    2    0  503  0.24184606933E+02  0.58870041081E+01  0.10968581905E+02  0.27200401079E+02  0.00000000000E+00 0.  1.
<mgrwt>
<rscale>  2 0.24890802E+02</rscale>
<asrwt>0</asrwt>
<pdfrwt beam="1">  1       21 0.48915582E-02 0.24890802E+02</pdfrwt>
<pdfrwt beam="2">  1       21 0.31233246E-02 0.24890802E+02</pdfrwt>
<totfact> 0.11401951E+08</totfact>
</mgrwt>
</event>
<event>
 4    1  0.7165636E+004  0.4212231E+02  0.7546771E-02  0.1493150E+00
         21   -1    0    0  501  502  0.00000000000E+00  0.00000000000E+00  0.42641444630E+01  0.42641444630E+01  0.00000000000E+00 0.  1.
         21   -1    0    0  502  503 -0.00000000000E+00 -0.00000000000E+00 -0.44515938003E+03  0.44515938003E+03  0.00000000000E+00 0.  1.
          5    1    1    2  501    0 -0.27924037986E+02  0.31536276364E+02 -0.27786581657E+03  0.28104038970E+03  0.00000000000E+00 0.  1.
         -5    1    1    2    0  503  0.27924037986E+02 -0.31536276364E+02 -0.16302941899E+03  0.16838313479E+03  0.00000000000E+00 0. -1.
<mgrwt>
<rscale>  2 0.42122306E+02</rscale>
<asrwt>0</asrwt>
<pdfrwt beam="1">  1       21 0.65602234E-03 0.42122306E+02</pdfrwt>
<pdfrwt beam="2">  1       21 0.68486046E-01 0.42122306E+02</pdfrwt>
<totfact> 0.12585558E+07</totfact>
</mgrwt>
</event>
<event>
 4    1  0.7165636E+004  0.2677493E+02  0.7546771E-02  0.1636743E+00
         21   -1    0    0  501  502  0.00000000000E+00  0.00000000000E+00  0.75057494160E+01  0.75057494160E+01  0.00000000000E+00 0.  1.
         21   -1    0    0  502  503 -0.00000000000E+00 -0.00000000000E+00 -0.98702513111E+02  0.98702513111E+02  0.00000000000E+00 0.  1.
          4    1    1    2  501    0 -0.14775131264E+02  0.22329181765E+02 -0.55144447569E+02  0.61300953988E+02  0.00000000000E+00 0.  1.
         -4    1    1    2    0  503  0.14775131264E+02 -0.22329181765E+02 -0.36052316126E+02  0.44907308539E+02  0.00000000000E+00 0. -1.
<mgrwt>
<rscale>  2 0.26774930E+02</rscale>
<asrwt>0</asrwt>
<pdfrwt beam="1">  1       21 0.11547307E-02 0.26774930E+02</pdfrwt>
<pdfrwt beam="2">  1       21 0.15185001E-01 0.26774930E+02</pdfrwt>
<totfact> 0.82948114E+07</totfact>
</mgrwt>
</event>
<event>
 4    1  0.7165636E+004  0.2522804E+02  0.7546771E-02  0.1657748E+00
         21   -1    0    0  501  502  0.00000000000E+00  0.00000000000E+00  0.18081904859E+02  0.18081904859E+02  0.00000000000E+00 0. -1.
         21   -1    0    0  502  503 -0.00000000000E+00 -0.00000000000E+00 -0.40602543402E+02  0.40602543402E+02  0.00000000000E+00 0. -1.
          5    1    1    2  501    0 -0.15281658252E+02  0.20072988090E+02 -0.21965161368E+02  0.33450295121E+02  0.00000000000E+00 0.  1.
         -5    1    1    2    0  503  0.15281658252E+02 -0.20072988090E+02 -0.55547717459E+00  0.25234153139E+02  0.00000000000E+00 0. -1.
<mgrwt>
<rscale>  2 0.25228039E+02</rscale>
<asrwt>0</asrwt>
<pdfrwt beam="1">  1       21 0.27818315E-02 0.25228039E+02</pdfrwt>
<pdfrwt beam="2">  1       21 0.62465451E-02 0.25228039E+02</pdfrwt>
<totfact> 0.92595514E+07</totfact>
</mgrwt>
</event>
<event>
 4    1  0.7165636E+004  0.5732925E+02  0.7546771E-02  0.1409394E+00
         21   -1    0    0  503  502  0.00000000000E+00  0.00000000000E+00  0.48917349020E+02  0.48917349020E+02  0.00000000000E+00 0.  1.
         21   -1    0    0  501  503 -0.00000000000E+00 -0.00000000000E+00 -0.77593502173E+02  0.77593502173E+02  0.00000000000E+00 0.  1.
          3    1    1    2  501    0  0.49592755796E+02 -0.28761107319E+02 -0.37502607261E+02  0.68506118508E+02  0.00000000000E+00 0.  1.
         -3    1    1    2    0  502 -0.49592755796E+02  0.28761107319E+02  0.88264541086E+01  0.58004732684E+02  0.00000000000E+00 0. -1.
<mgrwt>
<rscale>  2 0.57329248E+02</rscale>
<asrwt>0</asrwt>
<pdfrwt beam="1">  1       21 0.75257460E-02 0.57329248E+02</pdfrwt>
<pdfrwt beam="2">  1       21 0.11937462E-01 0.57329248E+02</pdfrwt>
<totfact> 0.72680380E+06</totfact>
</mgrwt>
</event>
<event>
 4    1  0.7165636E+004  0.2828725E+02  0.7546771E-02  0.1617831E+00
         21   -1    0    0  501  502  0.00000000000E+00  0.00000000000E+00  0.71351443655E+02  0.71351443655E+02  0.00000000000E+00 0. -1.
         21   -1    0    0  502  503 -0.00000000000E+00 -0.00000000000E+00 -0.11475786453E+02  0.11475786453E+02  0.00000000000E+00 0. -1.
          3    1    1    2  501    0 -0.26694460105E+02 -0.93581110702E+01  0.36187215342E+02  0.45931285605E+02  0.00000000000E+00 0. -1.
         -3    1    1    2    0  503  0.26694460105E+02  0.93581110702E+01  0.23688441859E+02  0.36895944503E+02  0.00000000000E+00 0.  1.
<mgrwt>
<rscale>  2 0.28287249E+02</rscale>
<asrwt>0</asrwt>
<pdfrwt beam="1">  1       21 0.10977145E-01 0.28287249E+02</pdfrwt>
<pdfrwt beam="2">  1       21 0.17655057E-02 0.28287249E+02</pdfrwt>
<totfact> 0.76224510E+07</totfact>
</mgrwt>
</event>
<event>
 4    1  0.7165636E+004  0.2232581E+02  0.7546771E-02  0.1702677E+00
         21   -1    0    0  503  502  0.00000000000E+00  0.00000000000E+00  0.21380412809E+02  0.21380412809E+02  0.00000000000E+00 0.  1.
         21   -1    0    0  501  503 -0.00000000000E+00 -0.00000000000E+00 -0.24128952211E+02  0.24128952211E+02  0.00000000000E+00 0.  1.
          4    1    1    2  501    0 -0.19636074511E+02 -0.10623864967E+02 -0.55586328085E+01  0.23007397239E+02  0.00000000000E+00 0.  1.
         -4    1    1    2    0  502  0.19636074511E+02  0.10623864967E+02  0.28100934067E+01  0.22501967780E+02  0.00000000000E+00 0. -1.
<mgrwt>
<rscale>  2 0.22325813E+02</rscale>
<asrwt>0</asrwt>
<pdfrwt beam="1">  1       21 0.32892943E-02 0.22325813E+02</pdfrwt>
<pdfrwt beam="2">  1       21 0.37121465E-02 0.22325813E+02</pdfrwt>
<totfact> 0.15754823E+08</totfact>
</mgrwt>
</event>
<event>
 4    1  0.7165636E+004  0.2176853E+02  0.7546771E-02  0.1712286E+00
         21   -1    0    0  501  502  0.00000000000E+00  0.00000000000E+00  0.28020580501E+02  0.28020580501E+02  0.00000000000E+00 0.  1.
         21   -1    0    0  502  503 -0.00000000000E+00 -0.00000000000E+00 -0.24437188617E+02  0.24437188617E+02  0.00000000000E+00 0.  1.
          1    1    1    2  501    0  0.21240831992E+02 -0.47640153338E+01  0.16347246012E+02  0.27223174649E+02  0.00000000000E+00 0. -1.
         -1    1    1    2    0  503 -0.21240831992E+02  0.47640153338E+01 -0.12763854129E+02  0.25234594469E+02  0.00000000000E+00 0.  1.
<mgrwt>
<rscale>  2 0.21768527E+02</rscale>
<asrwt>0</asrwt>
<pdfrwt beam="1">  1       21 0.43108585E-02 0.21768527E+02</pdfrwt>
<pdfrwt beam="2">  1       21 0.37595675E-02 0.21768527E+02</pdfrwt>
<totfact> 0.10026614E+08</totfact>
</mgrwt>
</event>
<event>
 4    1  0.7165636E+004  0.2194745E+02  0.7546771E-02  0.1709162E+00
         21   -1    0    0  501  502  0.00000000000E+00  0.00000000000E+00  0.10799499030E+03  0.10799499030E+03  0.00000000000E+00 0. -1.
         21   -1    0    0  502  503 -0.00000000000E+00 -0.00000000000E+00 -0.48405031927E+01  0.48405031927E+01  0.00000000000E+00 0. -1.
          5    1    1    2  501    0 -0.83142555697E-01  0.21947291864E+02  0.67388844148E+02  0.70872751099E+02  0.00000000000E+00 0. -1.
         -5    1    1    2    0  503  0.83142555697E-01 -0.21947291864E+02  0.35765642961E+02  0.41962742394E+02  0.00000000000E+00 0.  1.
<mgrwt>
<rscale>  2 0.21947449E+02</rscale>
<asrwt>0</asrwt>
<pdfrwt beam="1">  1       21 0.16614612E-01 0.21947449E+02</pdfrwt>
<pdfrwt beam="2">  1       21 0.74469288E-03 0.21947449E+02</pdfrwt>
<totfact> 0.13017059E+08</totfact>
</mgrwt>
</event>
<event>
 4    1  0.7165636E+004  0.2346897E+02  0.7546771E-02  0.1684019E+00
         21   -1    0    0  503  502  0.00000000000E+00  0.00000000000E+00  0.40755738305E+02  0.40755738305E+02  0.00000000000E+00 0. -1.
         21   -1    0    0  501  503 -0.00000000000E+00 -0.00000000000E+00 -0.14576963023E+02  0.14576963023E+02  0.00000000000E+00 0. -1.
          2    1    1    2  501    0  0.23093642456E+02  0.41804337092E+01  0.20558700770E+02  0.31200200724E+02  0.00000000000E+00 0.  1.
         -2    1    1    2    0  502 -0.23093642456E+02 -0.41804337092E+01  0.56200745120E+01  0.24132500604E+02  0.00000000000E+00 0. -1.
<mgrwt>
<rscale>  2 0.23468966E+02</rscale>
<asrwt>0</asrwt>
<pdfrwt beam="1">  1       21 0.62701136E-02 0.23468966E+02</pdfrwt>
<pdfrwt beam="2">  1       21 0.22426097E-02 0.23468966E+02</pdfrwt>
<totfact> 0.12594801E+08</totfact>
</mgrwt>
</event>
<event>
 4    1  0.7165636E+004  0.2333601E+02  0.7546771E-02  0.1686121E+00
         21   -1    0    0  501  502  0.00000000000E+00  0.00000000000E+00  0.47256621812E+02  0.47256621812E+02  0.00000000000E+00 0.  1.
         21   -1    0    0  502  503 -0.00000000000E+00 -0.00000000000E+00 -0.11791486359E+02  0.11791486359E+02  0.00000000000E+00 0.  1.
          2    1    1    2  501    0  0.23226455509E+02 -0.22585994531E+01  0.22182094621E+02  0.32196503363E+02  0.00000000000E+00 0.  1.
         -2    1    1    2    0  503 -0.23226455509E+02  0.22585994531E+01  0.13283040832E+02  0.26851604808E+02  0.00000000000E+00 0. -1.
<mgrwt>
<rscale>  2 0.23336013E+02</rscale>
<asrwt>0</asrwt>
<pdfrwt beam="1">  1       21 0.72702494E-02 0.23336013E+02</pdfrwt>
<pdfrwt beam="2">  1       21 0.18140748E-02 0.23336013E+02</pdfrwt>
<totfact> 0.13706871E+08</totfact>
</mgrwt>
</event>
<event>
 4    1  0.7165636E+004  0.3123879E+02  0.7546771E-02  0.1584786E+00
         21   -1    0    0  503  502  0.00000000000E+00  0.00000000000E+00  0.10178257132E+03  0.10178257132E+03  0.00000000000E+00 0.  1.
         21   -1    0    0  501  503 -0.00000000000E+00 -0.00000000000E+00 -0.10005861703E+02  0.10005861703E+02  0.00000000000E+00 0.  1.
          3    1    1    2  501    0  0.30202653214E+02  0.79788177109E+01  0.57314677283E+02  0.65275064345E+02  0.00000000000E+00 0. -1.
         -3    1    1    2    0  502 -0.30202653214E+02 -0.79788177109E+01  0.34462032335E+02  0.46513368679E+02  0.00000000000E+00 0.  1.
<mgrwt>
<rscale>  2 0.31238787E+02</rscale>
<asrwt>0</asrwt>
<pdfrwt beam="1">  1       21 0.15658856E-01 0.31238787E+02</pdfrwt>
<pdfrwt beam="2">  1       21 0.15393634E-02 0.31238787E+02</pdfrwt>
<totfact> 0.52571437E+07</totfact>
</mgrwt>
</event>
<event>
 4    1  0.7165636E+004  0.3158276E+02  0.7546771E-02  0.1581225E+00
         21   -1    0    0  503  502  0.00000000000E+00  0.00000000000E+00  0.74515373474E+01  0.74515373474E+01  0.00000000000E+00 0. -1.
         21   -1    0    0  501  503 -0.00000000000E+00 -0.00000000000E+00 -0.13402748610E+03  0.13402748610E+03  0.00000000000E+00 0. -1.
          3    1    1    2  501    0  0.55281902524E+01 -0.31095171845E+02 -0.60795152071E+02  0.68509277583E+02  0.00000000000E+00 0.  1.
         -3    1    1    2    0  502 -0.55281902524E+01  0.31095171845E+02 -0.65780796682E+02  0.72969745866E+02  0.00000000000E+00 0. -1.
<mgrwt>
<rscale>  2 0.31582758E+02</rscale>
<asrwt>0</asrwt>
<pdfrwt beam="1">  1       21 0.11463904E-02 0.31582758E+02</pdfrwt>
<pdfrwt beam="2">  1       21 0.20619612E-01 0.31582758E+02</pdfrwt>
<totfact> 0.51106843E+07</totfact>
</mgrwt>
</event>
<event>
 4    1  0.7165636E+004  0.2071177E+02  0.7546771E-02  0.1731533E+00
         21   -1    0    0  503  502  0.00000000000E+00  0.00000000000E+00  0.18613825982E+03  0.18613825982E+03  0.00000000000E+00 0.  1.
         21   -1    0    0  501  503 -0.00000000000E+00 -0.00000000000E+00 -0.26890492828E+01  0.26890492828E+01  0.00000000000E+00 0.  1.
          5    1    1    2  501    0 -0.17976006981E+02  0.10287875576E+02  0.12742277257E+03  0.12909508194E+03  0.00000000000E+00 0.  1.
         -5    1    1    2    0  502  0.17976006981E+02 -0.10287875576E+02  0.56026437963E+02  0.59732227161E+02  0.00000000000E+00 0. -1.
<mgrwt>
<rscale>  2 0.20711765E+02</rscale>
<asrwt>0</asrwt>
<pdfrwt beam="1">  1       21 0.28636645E-01 0.20711765E+02</pdfrwt>
<pdfrwt beam="2">  1       21 0.41370004E-03 0.20711765E+02</pdfrwt>
<totfact> 0.11721762E+08</totfact>
</mgrwt>
</event>
<event>
 4    1  0.7165636E+004  0.2025619E+02  0.7546771E-02  0.1740281E+00
         21   -1    0    0  503  502  0.00000000000E+00  0.00000000000E+00  0.40276165650E+01  0.40276165650E+01  0.00000000000E+00 0. -1.
         21   -1    0    0  501  503 -0.00000000000E+00 -0.00000000000E+00 -0.12600294137E+03  0.12600294137E+03  0.00000000000E+00 0. -1.
          1    1    1    2  501    0 -0.14848119218E+02  0.13778488794E+02 -0.89437861639E+02  0.91703023354E+02  0.00000000000E+00 0. -1.
         -1    1    1    2    0  502  0.14848119218E+02 -0.13778488794E+02 -0.32537463168E+02  0.38327534583E+02  0.00000000000E+00 0.  1.
<mgrwt>
<rscale>  2 0.20256194E+02</rscale>
<asrwt>0</asrwt>
<pdfrwt beam="1">  1       21 0.61963342E-03 0.20256194E+02</pdfrwt>
<pdfrwt beam="2">  1       21 0.19385065E-01 0.20256194E+02</pdfrwt>
<totfact> 0.12803190E+08</totfact>
</mgrwt>
</event>
<event>
 4    1  0.7165636E+004  0.5455639E+02  0.7546771E-02  0.1422208E+00
         21   -1    0    0  501  502  0.00000000000E+00  0.00000000000E+00  0.12893864446E+03  0.12893864446E+03  0.00000000000E+00 0. -1.
         21   -1    0    0  502  503 -0.00000000000E+00 -0.00000000000E+00 -0.23139905051E+02  0.23139905051E+02  0.00000000000E+00 0. -1.
          4    1    1    2  501    0  0.48609924508E+02  0.24768429983E+02  0.49156731224E+02  0.73435577951E+02  0.00000000000E+00 0. -1.
         -4    1    1    2    0  503 -0.48609924508E+02 -0.24768429983E+02  0.56642008182E+02  0.78642971557E+02  0.00000000000E+00 0.  1.
<mgrwt>
<rscale>  2 0.54556392E+02</rscale>
<asrwt>0</asrwt>
<pdfrwt beam="1">  1       21 0.19836714E-01 0.54556392E+02</pdfrwt>
<pdfrwt beam="2">  1       21 0.35599855E-02 0.54556392E+02</pdfrwt>
<totfact> 0.10116431E+07</totfact>
</mgrwt>
</event>
<event>
 4    1  0.7165636E+004  0.2071856E+02  0.7546771E-02  0.1731405E+00
         21   -1    0    0  501  502  0.00000000000E+00  0.00000000000E+00  0.70757529566E+03  0.70757529566E+03  0.00000000000E+00 0.  1.
         21   -1    0    0  502  503 -0.00000000000E+00 -0.00000000000E+00 -0.62944169442E+00  0.62944169442E+00  0.00000000000E+00 0.  1.
          1    1    1    2  501    0  0.81925412439E+01  0.19030005474E+02  0.28610894230E+03  0.28685812818E+03  0.00000000000E+00 0. -1.
         -1    1    1    2    0  503 -0.81925412439E+01 -0.19030005474E+02  0.42083691167E+03  0.42134660917E+03  0.00000000000E+00 0.  1.
<mgrwt>
<rscale>  2 0.20718563E+02</rscale>
<asrwt>0</asrwt>
<pdfrwt beam="1">  1       21 0.10885710E+00 0.20718563E+02</pdfrwt>
<pdfrwt beam="2">  1       21 0.96837750E-04 0.20718563E+02</pdfrwt>
<totfact> 0.67337033E+07</totfact>
</mgrwt>
</event>
<event>
 4    1  0.7165636E+004  0.2033122E+02  0.7546771E-02  0.1738820E+00
         21   -1    0    0  503  502  0.00000000000E+00  0.00000000000E+00  0.13605950322E+01  0.13605950322E+01  0.00000000000E+00 0.  1.
         21   -1    0    0  501  503 -0.00000000000E+00 -0.00000000000E+00 -0.81586322431E+03  0.81586322431E+03  0.00000000000E+00 0.  1.
          2    1    1    2  501    0  0.19873430723E+02  0.42901313213E+01 -0.73096503761E+03  0.73124773141E+03  0.00000000000E+00 0.  1.
         -2    1    1    2    0  502 -0.19873430723E+02 -0.42901313213E+01 -0.83537591668E+02  0.85976087938E+02  0.00000000000E+00 0. -1.
<mgrwt>
<rscale>  2 0.20331219E+02</rscale>
<asrwt>0</asrwt>
<pdfrwt beam="1">  1       21 0.20932205E-03 0.20331219E+02</pdfrwt>
<pdfrwt beam="2">  1       21 0.12551758E+00 0.20331219E+02</pdfrwt>
<totfact> 0.16213360E+07</totfact>
</mgrwt>
</event>
<event>
 4    1  0.7165636E+004  0.2330296E+02  0.7546771E-02  0.1686646E+00
         21   -1    0    0  501  502  0.00000000000E+00  0.00000000000E+00  0.40722689833E+01  0.40722689833E+01  0.00000000000E+00 0. -1.
         21   -1    0    0  502  503 -0.00000000000E+00 -0.00000000000E+00 -0.13742859283E+03  0.13742859283E+03  0.00000000000E+00 0. -1.
          5    1    1    2  501    0 -0.49446521815E+01  0.22772313895E+02 -0.54486413020E+02  0.59260417389E+02  0.00000000000E+00 0.  1.
         -5    1    1    2    0  503  0.49446521815E+01 -0.22772313895E+02 -0.78869910825E+02  0.82240444423E+02  0.00000000000E+00 0. -1.
<mgrwt>
<rscale>  2 0.23302958E+02</rscale>
<asrwt>0</asrwt>
<pdfrwt beam="1">  1       21 0.62650291E-03 0.23302958E+02</pdfrwt>
<pdfrwt beam="2">  1       21 0.21142861E-01 0.23302958E+02</pdfrwt>
<totfact> 0.11271773E+08</totfact>
</mgrwt>
</event>
<event>
 4    1  0.7165636E+004  0.2059843E+02  0.7546771E-02  0.1733683E+00
         21   -1    0    0  503  502  0.00000000000E+00  0.00000000000E+00  0.50428073401E+02  0.50428073401E+02  0.00000000000E+00 0.  1.
         21   -1    0    0  501  503 -0.00000000000E+00 -0.00000000000E+00 -0.84703433046E+01  0.84703433046E+01  0.00000000000E+00 0.  1.
          4    1    1    2  501    0  0.90083727479E+01 -0.18524164358E+02  0.18574335204E+02  0.27736282610E+02  0.00000000000E+00 0.  1.
         -4    1    1    2    0  502 -0.90083727479E+01  0.18524164358E+02  0.23383394892E+02  0.31162134096E+02  0.00000000000E+00 0. -1.
<mgrwt>
<rscale>  2 0.20598433E+02</rscale>
<asrwt>0</asrwt>
<pdfrwt beam="1">  1       21 0.77581650E-02 0.20598433E+02</pdfrwt>
<pdfrwt beam="2">  1       21 0.13031298E-02 0.20598433E+02</pdfrwt>
<totfact> 0.19616706E+08</totfact>
</mgrwt>
</event>
<event>
 4    1  0.7165636E+004  0.2231373E+02  0.7546771E-02  0.1702882E+00
         21   -1    0    0  501  502  0.00000000000E+00  0.00000000000E+00  0.22620066762E+04  0.22620066762E+04  0.00000000000E+00 0. -1.
         21   -1    0    0  502  503 -0.00000000000E+00 -0.00000000000E+00 -0.24247522729E+00  0.24247522729E+00  0.00000000000E+00 0. -1.
          5    1    1    2  501    0 -0.84043358657E+01  0.20670505524E+02  0.78739510047E+03  0.78771120781E+03  0.00000000000E+00 0.  1.
         -5    1    1    2    0  503  0.84043358657E+01 -0.20670505524E+02  0.14743691005E+04  0.14745379436E+04  0.00000000000E+00 0. -1.
<mgrwt>
<rscale>  2 0.22313733E+02</rscale>
<asrwt>0</asrwt>
<pdfrwt beam="1">  1       21 0.34798413E+00 0.22313733E+02</pdfrwt>
<pdfrwt beam="2">  1       21 0.37305693E-04 0.22313733E+02</pdfrwt>
<totfact> 0.11416723E+07</totfact>
</mgrwt>
</event>
<event>
 4    1  0.7165636E+004  0.2461062E+02  0.7546771E-02  0.1666658E+00
         21   -1    0    0  501  502  0.00000000000E+00  0.00000000000E+00  0.47120957886E+03  0.47120957886E+03  0.00000000000E+00 0.  1.
         21   -1    0    0  502  503 -0.00000000000E+00 -0.00000000000E+00 -0.18526803644E+01  0.18526803644E+01  0.00000000000E+00 0.  1.
          1    1    1    2  501    0 -0.13479827904E+02  0.20590701276E+02  0.36556502288E+03  0.36639250633E+03  0.00000000000E+00 0.  1.
         -1    1    1    2    0  503  0.13479827904E+02 -0.20590701276E+02  0.10379187561E+03  0.10666975290E+03  0.00000000000E+00 0. -1.
<mgrwt>
<rscale>  2 0.24610622E+02</rscale>
<asrwt>0</asrwt>
<pdfrwt beam="1">  1       21 0.72493686E-01 0.24610622E+02</pdfrwt>
<pdfrwt beam="2">  1       21 0.28502812E-03 0.24610622E+02</pdfrwt>
<totfact> 0.35350701E+07</totfact>
</mgrwt>
</event>
<event>
 4    1  0.7165636E+004  0.2968747E+02  0.7546771E-02  0.1601569E+00
         21   -1    0    0  503  502  0.00000000000E+00  0.00000000000E+00  0.32149485872E+02  0.32149485872E+02  0.00000000000E+00 0. -1.
         21   -1    0    0  501  503 -0.00000000000E+00 -0.00000000000E+00 -0.30858255577E+02  0.30858255577E+02  0.00000000000E+00 0. -1.
          2    1    1    2  501    0 -0.13440920518E+02 -0.26470501490E+02 -0.98794873081E+01  0.31288177687E+02  0.00000000000E+00 0. -1.
         -2    1    1    2    0  502  0.13440920518E+02  0.26470501490E+02  0.11170717604E+02  0.31719563762E+02  0.00000000000E+00 0.  1.
<mgrwt>
<rscale>  2 0.29687469E+02</rscale>
<asrwt>0</asrwt>
<pdfrwt beam="1">  1       21 0.49460748E-02 0.29687469E+02</pdfrwt>
<pdfrwt beam="2">  1       21 0.47474239E-02 0.29687469E+02</pdfrwt>
<totfact> 0.60370671E+07</totfact>
</mgrwt>
</event>
<event>
 4    1  0.7165636E+004  0.3896773E+02  0.7546771E-02  0.1515948E+00
         21   -1    0    0  501  502  0.00000000000E+00  0.00000000000E+00  0.55240615919E+02  0.55240615919E+02  0.00000000000E+00 0. -1.
         21   -1    0    0  502  503 -0.00000000000E+00 -0.00000000000E+00 -0.27535677248E+02  0.27535677248E+02  0.00000000000E+00 0. -1.
          5    1    1    2  501    0 -0.34072487031E+02 -0.18908984351E+02  0.15564829365E+02  0.41961267555E+02  0.00000000000E+00 0.  1.
         -5    1    1    2    0  503  0.34072487031E+02  0.18908984351E+02  0.12140109306E+02  0.40815025611E+02  0.00000000000E+00 0. -1.
<mgrwt>
<rscale>  2 0.38967731E+02</rscale>
<asrwt>0</asrwt>
<pdfrwt beam="1">  1       21 0.84985563E-02 0.38967731E+02</pdfrwt>
<pdfrwt beam="2">  1       21 0.42362581E-02 0.38967731E+02</pdfrwt>
<totfact> 0.31576960E+07</totfact>
</mgrwt>
</event>
<event>
 4    1  0.7165636E+004  0.2025434E+02  0.7546771E-02  0.1740317E+00
         21   -1    0    0  503  502  0.00000000000E+00  0.00000000000E+00  0.17823501401E+02  0.17823501401E+02  0.00000000000E+00 0. -1.
         21   -1    0    0  501  503 -0.00000000000E+00 -0.00000000000E+00 -0.23157165877E+02  0.23157165877E+02  0.00000000000E+00 0. -1.
          2    1    1    2  501    0 -0.15084472528E+02 -0.13516545660E+02 -0.10710259191E+01  0.20282638254E+02  0.00000000000E+00 0. -1.
         -2    1    1    2    0  502  0.15084472528E+02  0.13516545660E+02 -0.42626385566E+01  0.20698029024E+02  0.00000000000E+00 0.  1.
<mgrwt>
<rscale>  2 0.20254341E+02</rscale>
<asrwt>0</asrwt>
<pdfrwt beam="1">  1       21 0.27420771E-02 0.20254341E+02</pdfrwt>
<pdfrwt beam="2">  1       21 0.35626409E-02 0.20254341E+02</pdfrwt>
<totfact> 0.21607300E+08</totfact>
</mgrwt>
</event>
<event>
 4    1  0.7165636E+004  0.3006717E+02  0.7546771E-02  0.1597347E+00
         21   -1    0    0  503  502  0.00000000000E+00  0.00000000000E+00  0.21912337111E+01  0.21912337111E+01  0.00000000000E+00 0.  1.
         21   -1    0    0  501  503 -0.00000000000E+00 -0.00000000000E+00 -0.45099147098E+03  0.45099147098E+03  0.00000000000E+00 0.  1.
          5    1    1    2  501    0  0.24124994877E+02 -0.17944889246E+02 -0.29053849798E+03  0.29209014574E+03  0.00000000000E+00 0. -1.
         -5    1    1    2    0  502 -0.24124994877E+02  0.17944889246E+02 -0.15826173929E+03  0.16109255896E+03  0.00000000000E+00 0.  1.
<mgrwt>
<rscale>  2 0.30067165E+02</rscale>
<asrwt>0</asrwt>
<pdfrwt beam="1">  1       21 0.33711283E-03 0.30067165E+02</pdfrwt>
<pdfrwt beam="2">  1       21 0.69383314E-01 0.30067165E+02</pdfrwt>
<totfact> 0.31459332E+07</totfact>
</mgrwt>
</event>
<event>
 4    1  0.7165636E+004  0.2101568E+02  0.7546771E-02  0.1725853E+00
         21   -1    0    0  501  502  0.00000000000E+00  0.00000000000E+00  0.41831054286E+02  0.41831054286E+02  0.00000000000E+00 0. -1.
         21   -1    0    0  502  503 -0.00000000000E+00 -0.00000000000E+00 -0.11067824843E+02  0.11067824843E+02  0.00000000000E+00 0. -1.
          3    1    1    2  501    0 -0.20606714570E+02  0.41257659897E+01  0.21057466859E+02  0.29750219174E+02  0.00000000000E+00 0.  1.
         -3    1    1    2    0  503  0.20606714570E+02 -0.41257659897E+01  0.97057625832E+01  0.23148659955E+02  0.00000000000E+00 0. -1.
<mgrwt>
<rscale>  2 0.21015676E+02</rscale>
<asrwt>0</asrwt>
<pdfrwt beam="1">  1       21 0.64355468E-02 0.21015676E+02</pdfrwt>
<pdfrwt beam="2">  1       21 0.17027423E-02 0.21015676E+02</pdfrwt>
<totfact> 0.17803051E+08</totfact>
</mgrwt>
</event>
<event>
 4    1  0.7165636E+004  0.2625223E+02  0.7546771E-02  0.1643641E+00
         21   -1    0    0  501  502  0.00000000000E+00  0.00000000000E+00  0.12805122091E+03  0.12805122091E+03  0.00000000000E+00 0. -1.
         21   -1    0    0  502  503 -0.00000000000E+00 -0.00000000000E+00 -0.59816047331E+01  0.59816047331E+01  0.00000000000E+00 0. -1.
          2    1    1    2  501    0 -0.14466875372E+02  0.21906375372E+02  0.39817906804E+02  0.47693243412E+02  0.00000000000E+00 0.  1.
         -2    1    1    2    0  503  0.14466875372E+02 -0.21906375372E+02  0.82251709372E+02  0.86339582230E+02  0.00000000000E+00 0. -1.
<mgrwt>
<rscale>  2 0.26252234E+02</rscale>
<asrwt>0</asrwt>
<pdfrwt beam="1">  1       21 0.19700186E-01 0.26252234E+02</pdfrwt>
<pdfrwt beam="2">  1       21 0.92024698E-03 0.26252234E+02</pdfrwt>
<totfact> 0.74079291E+07</totfact>
</mgrwt>
</event>
<event>
 4    1  0.7165636E+004  0.2077463E+02  0.7546771E-02  0.1730348E+00
         21   -1    0    0  503  502  0.00000000000E+00  0.00000000000E+00  0.96823452149E+01  0.96823452149E+01  0.00000000000E+00 0.  1.
         21   -1    0    0  501  503 -0.00000000000E+00 -0.00000000000E+00 -0.44896149237E+02  0.44896149237E+02  0.00000000000E+00 0.  1.
          4    1    1    2  501    0 -0.17094641820E+02 -0.11805013407E+02 -0.19916936428E+02  0.28779671248E+02  0.00000000000E+00 0.  1.
         -4    1    1    2    0  502  0.17094641820E+02  0.11805013407E+02 -0.15296867594E+02  0.25798823203E+02  0.00000000000E+00 0. -1.
<mgrwt>
<rscale>  2 0.20774627E+02</rscale>
<asrwt>0</asrwt>
<pdfrwt beam="1">  1       21 0.14895916E-02 0.20774627E+02</pdfrwt>
<pdfrwt beam="2">  1       21 0.69070998E-02 0.20774627E+02</pdfrwt>
<totfact> 0.19392562E+08</totfact>
</mgrwt>
</event>
<event>
 4    1  0.7165636E+004  0.2879895E+02  0.7546771E-02  0.1611757E+00
         21   -1    0    0  503  502  0.00000000000E+00  0.00000000000E+00  0.33082339012E+03  0.33082339012E+03  0.00000000000E+00 0. -1.
         21   -1    0    0  501  503 -0.00000000000E+00 -0.00000000000E+00 -0.37738523470E+01  0.37738523470E+01  0.00000000000E+00 0. -1.
          2    1    1    2  501    0 -0.19946789171E+02 -0.20772697198E+02  0.26045522653E+03  0.26204256214E+03  0.00000000000E+00 0. -1.
         -2    1    1    2    0  502  0.19946789171E+02  0.20772697198E+02  0.66594311242E+02  0.72554680324E+02  0.00000000000E+00 0.  1.
<mgrwt>
<rscale>  2 0.28798947E+02</rscale>
<asrwt>0</asrwt>
<pdfrwt beam="1">  1       21 0.50895883E-01 0.28798947E+02</pdfrwt>
<pdfrwt beam="2">  1       21 0.58059293E-03 0.28798947E+02</pdfrwt>
<totfact> 0.26051889E+07</totfact>
</mgrwt>
</event>
<event>
 4    1  0.7165636E+004  0.2513667E+02  0.7546771E-02  0.1659047E+00
         21   -1    0    0  503  502  0.00000000000E+00  0.00000000000E+00  0.17803753301E+02  0.17803753301E+02  0.00000000000E+00 0.  1.
         21   -1    0    0  501  503 -0.00000000000E+00 -0.00000000000E+00 -0.35497935949E+02  0.35497935949E+02  0.00000000000E+00 0.  1.
          4    1    1    2  501    0 -0.11397876795E+02 -0.22404027653E+02 -0.84441858993E+01  0.26517094977E+02  0.00000000000E+00 0.  1.
         -4    1    1    2    0  502  0.11397876795E+02  0.22404027653E+02 -0.92499967477E+01  0.26784594273E+02  0.00000000000E+00 0. -1.
<mgrwt>
<rscale>  2 0.25136667E+02</rscale>
<asrwt>0</asrwt>
<pdfrwt beam="1">  1       21 0.27390390E-02 0.25136667E+02</pdfrwt>
<pdfrwt beam="2">  1       21 0.54612209E-02 0.25136667E+02</pdfrwt>
<totfact> 0.11764916E+08</totfact>
</mgrwt>
</event>
<event>
 4    1  0.7165636E+004  0.2223635E+02  0.7546771E-02  0.1704196E+00
         21   -1    0    0  501  502  0.00000000000E+00  0.00000000000E+00  0.13130036104E+03  0.13130036104E+03  0.00000000000E+00 0.  1.
         21   -1    0    0  502  503 -0.00000000000E+00 -0.00000000000E+00 -0.42562076738E+01  0.42562076738E+01  0.00000000000E+00 0.  1.
          3    1    1    2  501    0 -0.96360780466E+01  0.20039993459E+02  0.40515986027E+02  0.46216885028E+02  0.00000000000E+00 0. -1.
         -3    1    1    2    0  503  0.96360780466E+01 -0.20039993459E+02  0.86528167343E+02  0.89339683690E+02  0.00000000000E+00 0.  1.
<mgrwt>
<rscale>  2 0.22236352E+02</rscale>
<asrwt>0</asrwt>
<pdfrwt beam="1">  1       21 0.20200052E-01 0.22236352E+02</pdfrwt>
<pdfrwt beam="2">  1       21 0.65480128E-03 0.22236352E+02</pdfrwt>
<totfact> 0.11284303E+08</totfact>
</mgrwt>
</event>
<event>
 4    1  0.7165636E+004  0.2386684E+02  0.7546771E-02  0.1677832E+00
         21   -1    0    0  501  502  0.00000000000E+00  0.00000000000E+00  0.18949287183E+03  0.18949287183E+03  0.00000000000E+00 0. -1.
         21   -1    0    0  502  503 -0.00000000000E+00 -0.00000000000E+00 -0.30784272704E+01  0.30784272704E+01  0.00000000000E+00 0. -1.
          5    1    1    2  501    0  0.15805803763E+02 -0.17883024035E+02  0.78443922805E+02  0.81994359600E+02  0.00000000000E+00 0. -1.
         -5    1    1    2    0  503 -0.15805803763E+02  0.17883024035E+02  0.10797052176E+03  0.11057693950E+03  0.00000000000E+00 0.  1.
<mgrwt>
<rscale>  2 0.23866839E+02</rscale>
<asrwt>0</asrwt>
<pdfrwt beam="1">  1       21 0.29152740E-01 0.23866839E+02</pdfrwt>
<pdfrwt beam="2">  1       21 0.47360434E-03 0.23866839E+02</pdfrwt>
<totfact> 0.96747009E+07</totfact>
</mgrwt>
</event>
<event>
 4    1  0.7165636E+004  0.3045628E+02  0.7546771E-02  0.1593099E+00
         21   -1    0    0  503  502  0.00000000000E+00  0.00000000000E+00  0.13297005530E+03  0.13297005530E+03  0.00000000000E+00 0.  1.
         21   -1    0    0  501  503 -0.00000000000E+00 -0.00000000000E+00 -0.87085155651E+01  0.87085155651E+01  0.00000000000E+00 0.  1.
          4    1    1    2  501    0  0.29195821270E+02  0.86711713008E+01  0.93728347769E+02  0.98552465047E+02  0.00000000000E+00 0. -1.
         -4    1    1    2    0  502 -0.29195821270E+02 -0.86711713008E+01  0.30533191966E+02  0.43126105818E+02  0.00000000000E+00 0.  1.
<mgrwt>
<rscale>  2 0.30456283E+02</rscale>
<asrwt>0</asrwt>
<pdfrwt beam="1">  1       21 0.20456930E-01 0.30456283E+02</pdfrwt>
<pdfrwt beam="2">  1       21 0.13397717E-02 0.30456283E+02</pdfrwt>
<totfact> 0.40548640E+07</totfact>
</mgrwt>
</event>
<event>
 4    1  0.7165636E+004  0.2261207E+02  0.7546771E-02  0.1697877E+00
         21   -1    0    0  503  502  0.00000000000E+00  0.00000000000E+00  0.40736311999E+03  0.40736311999E+03  0.00000000000E+00 0. -1.
         21   -1    0    0  501  503 -0.00000000000E+00 -0.00000000000E+00 -0.13688481964E+01  0.13688481964E+01  0.00000000000E+00 0. -1.
          3    1    1    2  501    0 -0.16549551894E+02 -0.15408371785E+02  0.26189371685E+03  0.26286807436E+03  0.00000000000E+00 0.  1.
         -3    1    1    2    0  502  0.16549551894E+02  0.15408371785E+02  0.14410055495E+03  0.14586389383E+03  0.00000000000E+00 0. -1.
<mgrwt>
<rscale>  2 0.22612067E+02</rscale>
<asrwt>0</asrwt>
<pdfrwt beam="1">  1       21 0.62671153E-01 0.22612067E+02</pdfrwt>
<pdfrwt beam="2">  1       21 0.21059235E-03 0.22612067E+02</pdfrwt>
<totfact> 0.72418494E+07</totfact>
</mgrwt>
</event>
<event>
 4    1  0.7165636E+004  0.2651894E+02  0.7546771E-02  0.1640097E+00
         21   -1    0    0  501  502  0.00000000000E+00  0.00000000000E+00  0.12477204987E+01  0.12477204987E+01  0.00000000000E+00 0.  1.
         21   -1    0    0  502  503 -0.00000000000E+00 -0.00000000000E+00 -0.61274932102E+03  0.61274932102E+03  0.00000000000E+00 0.  1.
          4    1    1    2  501    0  0.24155714141E+02  0.10943296976E+02 -0.39266995200E+03  0.39356441084E+03  0.00000000000E+00 0. -1.
         -4    1    1    2    0  503 -0.24155714141E+02 -0.10943296976E+02 -0.21883164852E+03  0.22043263068E+03  0.00000000000E+00 0.  1.
<mgrwt>
<rscale>  2 0.26518942E+02</rscale>
<asrwt>0</asrwt>
<pdfrwt beam="1">  1       21 0.19195734E-03 0.26518942E+02</pdfrwt>
<pdfrwt beam="2">  1       21 0.94268959E-01 0.26518942E+02</pdfrwt>
<totfact> 0.36524526E+07</totfact>
</mgrwt>
</event>
<event>
 4    1  0.7165636E+004  0.2535629E+02  0.7546771E-02  0.1655936E+00
         21   -1    0    0  501  502  0.00000000000E+00  0.00000000000E+00  0.10110771304E+04  0.10110771304E+04  0.00000000000E+00 0.  1.
         21   -1    0    0  502  503 -0.00000000000E+00 -0.00000000000E+00 -0.85948915952E+00  0.85948915952E+00  0.00000000000E+00 0.  1.
          1    1    1    2  501    0  0.25253784310E+02 -0.22777195873E+01  0.76317477518E+03  0.76359588730E+03  0.00000000000E+00 0. -1.
         -1    1    1    2    0  503 -0.25253784310E+02  0.22777195873E+01  0.24704286607E+03  0.24834073227E+03  0.00000000000E+00 0.  1.
<mgrwt>
<rscale>  2 0.25356294E+02</rscale>
<asrwt>0</asrwt>
<pdfrwt beam="1">  1       21 0.15554938E+00 0.25356294E+02</pdfrwt>
<pdfrwt beam="2">  1       21 0.13222991E-03 0.25356294E+02</pdfrwt>
<totfact> 0.19752970E+07</totfact>
</mgrwt>
</event>
<event>
 4    1  0.7165636E+004  0.2231407E+02  0.7546771E-02  0.1702876E+00
         21   -1    0    0  503  502  0.00000000000E+00  0.00000000000E+00  0.20477487950E+01  0.20477487950E+01  0.00000000000E+00 0. -1.
         21   -1    0    0  501  503 -0.00000000000E+00 -0.00000000000E+00 -0.27628224550E+03  0.27628224550E+03  0.00000000000E+00 0. -1.
          2    1    1    2  501    0 -0.19323331378E+02  0.11159149258E+02 -0.88927512493E+02  0.91684351042E+02  0.00000000000E+00 0.  1.
         -2    1    1    2    0  502  0.19323331378E+02 -0.11159149258E+02 -0.18530698421E+03  0.18664564325E+03  0.00000000000E+00 0. -1.
<mgrwt>
<rscale>  2 0.22314071E+02</rscale>
<asrwt>0</asrwt>
<pdfrwt beam="1">  1       21 0.31503825E-03 0.22314071E+02</pdfrwt>
<pdfrwt beam="2">  1       21 0.42504964E-01 0.22314071E+02</pdfrwt>
<totfact> 0.85853680E+07</totfact>
</mgrwt>
</event>
<event>
 4    1  0.7165636E+004  0.3061898E+02  0.7546771E-02  0.1591346E+00
         21   -1    0    0  501  502  0.00000000000E+00  0.00000000000E+00  0.34216818802E+02  0.34216818802E+02  0.00000000000E+00 0.  1.
         21   -1    0    0  502  503 -0.00000000000E+00 -0.00000000000E+00 -0.33709440627E+02  0.33709440627E+02  0.00000000000E+00 0.  1.
          3    1    1    2  501    0  0.85167879927E+01  0.29410645442E+02 -0.14440531747E+02  0.33853370588E+02  0.00000000000E+00 0.  1.
         -3    1    1    2    0  503 -0.85167879927E+01 -0.29410645442E+02  0.14947909922E+02  0.34072888842E+02  0.00000000000E+00 0. -1.
<mgrwt>
<rscale>  2 0.30618977E+02</rscale>
<asrwt>0</asrwt>
<pdfrwt beam="1">  1       21 0.52641260E-02 0.30618977E+02</pdfrwt>
<pdfrwt beam="2">  1       21 0.51860678E-02 0.30618977E+02</pdfrwt>
<totfact> 0.47695147E+07</totfact>
</mgrwt>
</event>
<event>
 4    1  0.7165636E+004  0.2278892E+02  0.7546771E-02  0.1694955E+00
         21   -1    0    0  501  502  0.00000000000E+00  0.00000000000E+00  0.87798503161E+01  0.87798503161E+01  0.00000000000E+00 0. -1.
         21   -1    0    0  502  503 -0.00000000000E+00 -0.00000000000E+00 -0.65650901479E+02  0.65650901479E+02  0.00000000000E+00 0. -1.
          4    1    1    2  501    0  0.21430579693E+01 -0.22687926411E+02 -0.16725336401E+02  0.28267854182E+02  0.00000000000E+00 0. -1.
         -4    1    1    2    0  503 -0.21430579693E+01  0.22687926411E+02 -0.40145714762E+02  0.46162897613E+02  0.00000000000E+00 0.  1.
<mgrwt>
<rscale>  2 0.22788916E+02</rscale>
<asrwt>0</asrwt>
<pdfrwt beam="1">  1       21 0.13507462E-02 0.22788916E+02</pdfrwt>
<pdfrwt beam="2">  1       21 0.10100139E-01 0.22788916E+02</pdfrwt>
<totfact> 0.12442146E+08</totfact>
</mgrwt>
</event>
<event>
 4    1  0.7165636E+004  0.2354261E+02  0.7546771E-02  0.1682863E+00
         21   -1    0    0  501  502  0.00000000000E+00  0.00000000000E+00  0.44734469317E+01  0.44734469317E+01  0.00000000000E+00 0.  1.
         21   -1    0    0  502  503 -0.00000000000E+00 -0.00000000000E+00 -0.12429636572E+03  0.12429636572E+03  0.00000000000E+00 0.  1.
          3    1    1    2  501    0 -0.22560791020E+02 -0.67279304077E+01 -0.56269759072E+02  0.60996230417E+02  0.00000000000E+00 0. -1.
         -3    1    1    2    0  503  0.22560791020E+02  0.67279304077E+01 -0.63553159713E+02  0.67773582231E+02  0.00000000000E+00 0.  1.
<mgrwt>
<rscale>  2 0.23542607E+02</rscale>
<asrwt>0</asrwt>
<pdfrwt beam="1">  1       21 0.68822272E-03 0.23542607E+02</pdfrwt>
<pdfrwt beam="2">  1       21 0.19122515E-01 0.23542607E+02</pdfrwt>
<totfact> 0.11716859E+08</totfact>
</mgrwt>
</event>
<event>
 4    1  0.7165636E+004  0.2429933E+02  0.7546771E-02  0.1671275E+00
         21   -1    0    0  501  502  0.00000000000E+00  0.00000000000E+00  0.26852394310E+01  0.26852394310E+01  0.00000000000E+00 0. -1.
         21   -1    0    0  502  503 -0.00000000000E+00 -0.00000000000E+00 -0.22071399734E+03  0.22071399734E+03  0.00000000000E+00 0. -1.
          2    1    1    2  501    0 -0.84858398525E+01  0.22769456665E+02 -0.11583881305E+03  0.11835999427E+03  0.00000000000E+00 0. -1.
         -2    1    1    2    0  503  0.84858398525E+01 -0.22769456665E+02 -0.10218994486E+03  0.10503924250E+03  0.00000000000E+00 0.  1.
<mgrwt>
<rscale>  2 0.24299334E+02</rscale>
<asrwt>0</asrwt>
<pdfrwt beam="1">  1       21 0.41311376E-03 0.24299334E+02</pdfrwt>
<pdfrwt beam="2">  1       21 0.33956000E-01 0.24299334E+02</pdfrwt>
<totfact> 0.89885412E+07</totfact>
</mgrwt>
</event>
<event>
 4    1  0.7165636E+004  0.2020396E+02  0.7546771E-02  0.1741302E+00
         21   -1    0    0  501  502  0.00000000000E+00  0.00000000000E+00  0.13652696761E+02  0.13652696761E+02  0.00000000000E+00 0.  1.
         21   -1    0    0  502  503 -0.00000000000E+00 -0.00000000000E+00 -0.35333143699E+02  0.35333143699E+02  0.00000000000E+00 0.  1.
          3    1    1    2  501    0 -0.20128119292E+02  0.17489874525E+01 -0.12347148847E+01  0.20241656657E+02  0.00000000000E+00 0. -1.
         -3    1    1    2    0  503  0.20128119292E+02 -0.17489874525E+01 -0.20445732053E+02  0.28744183804E+02  0.00000000000E+00 0.  1.
<mgrwt>
<rscale>  2 0.20203964E+02</rscale>
<asrwt>0</asrwt>
<pdfrwt beam="1">  1       21 0.21004149E-02 0.20203964E+02</pdfrwt>
<pdfrwt beam="2">  1       21 0.54358682E-02 0.20203964E+02</pdfrwt>
<totfact> 0.16719035E+08</totfact>
</mgrwt>
</event>
<event>
 4    1  0.7165636E+004  0.2526472E+02  0.7546771E-02  0.1657228E+00
         21   -1    0    0  503  502  0.00000000000E+00  0.00000000000E+00  0.73178252513E+03  0.73178252513E+03  0.00000000000E+00 0. -1.
         21   -1    0    0  501  503 -0.00000000000E+00 -0.00000000000E+00 -0.90978616865E+00  0.90978616865E+00  0.00000000000E+00 0. -1.
          2    1    1    2  501    0 -0.24099650711E+01 -0.25149519486E+02  0.29103581975E+03  0.29213037268E+03  0.00000000000E+00 0. -1.
         -2    1    1    2    0  502  0.24099650711E+01  0.25149519486E+02  0.43983691920E+03  0.44056193861E+03  0.00000000000E+00 0.  1.
<mgrwt>
<rscale>  2 0.25264724E+02</rscale>
<asrwt>0</asrwt>
<pdfrwt beam="1">  1       21 0.11258146E+00 0.25264724E+02</pdfrwt>
<pdfrwt beam="2">  1       21 0.13996769E-03 0.25264724E+02</pdfrwt>
<totfact> 0.38540862E+07</totfact>
</mgrwt>
</event>
<event>
 4    1  0.7165636E+004  0.2293310E+02  0.7546771E-02  0.1692597E+00
         21   -1    0    0  501  502  0.00000000000E+00  0.00000000000E+00  0.36990114859E+02  0.36990114859E+02  0.00000000000E+00 0.  1.
         21   -1    0    0  502  503 -0.00000000000E+00 -0.00000000000E+00 -0.16300509732E+02  0.16300509732E+02  0.00000000000E+00 0.  1.
          3    1    1    2  501    0 -0.12352731857E+02  0.19321937912E+02  0.82103861298E+00  0.22947796701E+02  0.00000000000E+00 0.  1.
         -3    1    1    2    0  503  0.12352731857E+02 -0.19321937912E+02  0.19868566514E+02  0.30342827890E+02  0.00000000000E+00 0. -1.
<mgrwt>
<rscale>  2 0.22933104E+02</rscale>
<asrwt>0</asrwt>
<pdfrwt beam="1">  1       21 0.56907869E-02 0.22933104E+02</pdfrwt>
<pdfrwt beam="2">  1       21 0.25077707E-02 0.22933104E+02</pdfrwt>
<totfact> 0.12300357E+08</totfact>
</mgrwt>
</event>
<event>
 4    1  0.7165636E+004  0.2712702E+02  0.7546771E-02  0.1632205E+00
         21   -1    0    0  501  502  0.00000000000E+00  0.00000000000E+00  0.26080770383E+03  0.26080770383E+03  0.00000000000E+00 0. -1.
         21   -1    0    0  502  503 -0.00000000000E+00 -0.00000000000E+00 -0.29250636916E+01  0.29250636916E+01  0.00000000000E+00 0. -1.
          5    1    1    2  501    0 -0.11077910787E+02 -0.24761971796E+02  0.15375085305E+03  0.15612559101E+03  0.00000000000E+00 0. -1.
         -5    1    1    2    0  503  0.11077910787E+02  0.24761971796E+02  0.10413178709E+03  0.10760717652E+03  0.00000000000E+00 0.  1.
<mgrwt>
<rscale>  2 0.27127023E+02</rscale>
<asrwt>0</asrwt>
<pdfrwt beam="1">  1       21 0.40124244E-01 0.27127023E+02</pdfrwt>
<pdfrwt beam="2">  1       21 0.45001000E-03 0.27127023E+02</pdfrwt>
<totfact> 0.59479779E+07</totfact>
</mgrwt>
</event>
<event>
 4    1  0.7165636E+004  0.3014653E+02  0.7546771E-02  0.1596475E+00
         21   -1    0    0  501  502  0.00000000000E+00  0.00000000000E+00  0.57200887485E+01  0.57200887485E+01  0.00000000000E+00 0.  1.
         21   -1    0    0  502  503 -0.00000000000E+00 -0.00000000000E+00 -0.16467501345E+03  0.16467501345E+03  0.00000000000E+00 0.  1.
          2    1    1    2  501    0  0.25392933777E+02  0.16248453780E+02 -0.95458447968E+02  0.10010558738E+03  0.00000000000E+00 0.  1.
         -2    1    1    2    0  503 -0.25392933777E+02 -0.16248453780E+02 -0.63496476734E+02  0.70289514820E+02  0.00000000000E+00 0. -1.
<mgrwt>
<rscale>  2 0.30146531E+02</rscale>
<asrwt>0</asrwt>
<pdfrwt beam="1">  1       21 0.88001369E-03 0.30146531E+02</pdfrwt>
<pdfrwt beam="2">  1       21 0.25334616E-01 0.30146531E+02</pdfrwt>
<totfact> 0.52303660E+07</totfact>
</mgrwt>
</event>
<event>
 4    1  0.7165636E+004  0.2186359E+02  0.7546771E-02  0.1710622E+00
         21   -1    0    0  501  502  0.00000000000E+00  0.00000000000E+00  0.53426336319E+01  0.53426336319E+01  0.00000000000E+00 0. -1.
         21   -1    0    0  502  503 -0.00000000000E+00 -0.00000000000E+00 -0.89538641048E+02  0.89538641048E+02  0.00000000000E+00 0. -1.
          5    1    1    2  501    0  0.75894276964E+01 -0.20504072802E+02 -0.43391706132E+02  0.48588646568E+02  0.00000000000E+00 0. -1.
         -5    1    1    2    0  503 -0.75894276964E+01  0.20504072802E+02 -0.40804301285E+02  0.46292628113E+02  0.00000000000E+00 0.  1.
<mgrwt>
<rscale>  2 0.21863586E+02</rscale>
<asrwt>0</asrwt>
<pdfrwt beam="1">  1       21 0.82194364E-03 0.21863586E+02</pdfrwt>
<pdfrwt beam="2">  1       21 0.13775176E-01 0.21863586E+02</pdfrwt>
<totfact> 0.15437331E+08</totfact>
</mgrwt>
</event>
<event>
 4    1  0.7165636E+004  0.3997017E+02  0.7546771E-02  0.1508431E+00
         21   -1    0    0  503  502  0.00000000000E+00  0.00000000000E+00  0.74291816455E+02  0.74291816455E+02  0.00000000000E+00 0. -1.
         21   -1    0    0  501  503 -0.00000000000E+00 -0.00000000000E+00 -0.29176556275E+02  0.29176556275E+02  0.00000000000E+00 0. -1.
          1    1    1    2  501    0  0.39928624482E+02 -0.18218748185E+01 -0.39709646104E+01  0.40166937160E+02  0.00000000000E+00 0. -1.
         -1    1    1    2    0  502 -0.39928624482E+02  0.18218748185E+01  0.49086224791E+02  0.63301435570E+02  0.00000000000E+00 0.  1.
<mgrwt>
<rscale>  2 0.39970167E+02</rscale>
<asrwt>0</asrwt>
<pdfrwt beam="1">  1       21 0.11429510E-01 0.39970167E+02</pdfrwt>
<pdfrwt beam="2">  1       21 0.44887010E-02 0.39970167E+02</pdfrwt>
<totfact> 0.17520757E+07</totfact>
</mgrwt>
</event>
<event>
 4    1  0.7165636E+004  0.2097927E+02  0.7546771E-02  0.1726527E+00
         21   -1    0    0  503  502  0.00000000000E+00  0.00000000000E+00  0.73008128953E+03  0.73008128953E+03  0.00000000000E+00 0.  1.
         21   -1    0    0  501  503 -0.00000000000E+00 -0.00000000000E+00 -0.96311163326E+00  0.96311163326E+00  0.00000000000E+00 0.  1.
          5    1    1    2  501    0  0.20278543952E+02  0.53768544605E+01  0.14100422717E+03  0.14255638179E+03  0.00000000000E+00 0. -1.
         -5    1    1    2    0  502 -0.20278543952E+02 -0.53768544605E+01  0.58811395073E+03  0.58848801938E+03  0.00000000000E+00 0.  1.
<mgrwt>
<rscale>  2 0.20979273E+02</rscale>
<asrwt>0</asrwt>
<pdfrwt beam="1">  1       21 0.11231976E+00 0.20979273E+02</pdfrwt>
<pdfrwt beam="2">  1       21 0.14817160E-03 0.20979273E+02</pdfrwt>
<totfact> 0.34379517E+07</totfact>
</mgrwt>
</event>
<event>
 4    1  0.7165636E+004  0.2129871E+02  0.7546771E-02  0.1720670E+00
         21   -1    0    0  501  502  0.00000000000E+00  0.00000000000E+00  0.48049827705E+02  0.48049827705E+02  0.00000000000E+00 0. -1.
         21   -1    0    0  502  503 -0.00000000000E+00 -0.00000000000E+00 -0.12436183091E+02  0.12436183091E+02  0.00000000000E+00 0. -1.
          1    1    1    2  501    0 -0.20715675266E+02  0.49493118027E+01  0.29646177230E+01  0.21504042580E+02  0.00000000000E+00 0. -1.
         -1    1    1    2    0  503  0.20715675266E+02 -0.49493118027E+01  0.32649026891E+02  0.38981968216E+02  0.00000000000E+00 0.  1.
<mgrwt>
<rscale>  2 0.21298706E+02</rscale>
<asrwt>0</asrwt>
<pdfrwt beam="1">  1       21 0.73922811E-02 0.21298706E+02</pdfrwt>
<pdfrwt beam="2">  1       21 0.19132590E-02 0.21298706E+02</pdfrwt>
<totfact> 0.11968438E+08</totfact>
</mgrwt>
</event>
<event>
 4    1  0.7165636E+004  0.2249416E+02  0.7546771E-02  0.1699843E+00
         21   -1    0    0  503  502  0.00000000000E+00  0.00000000000E+00  0.56234175078E+02  0.56234175078E+02  0.00000000000E+00 0. -1.
         21   -1    0    0  501  503 -0.00000000000E+00 -0.00000000000E+00 -0.91458911187E+01  0.91458911187E+01  0.00000000000E+00 0. -1.
          3    1    1    2  501    0  0.17633407035E+02  0.13966031310E+02  0.27703085669E+02  0.35685403596E+02  0.00000000000E+00 0. -1.
         -3    1    1    2    0  502 -0.17633407035E+02 -0.13966031310E+02  0.19385198290E+02  0.29694662601E+02  0.00000000000E+00 0.  1.
<mgrwt>
<rscale>  2 0.22494156E+02</rscale>
<asrwt>0</asrwt>
<pdfrwt beam="1">  1       21 0.86514113E-02 0.22494156E+02</pdfrwt>
<pdfrwt beam="2">  1       21 0.14070602E-02 0.22494156E+02</pdfrwt>
<totfact> 0.15032034E+08</totfact>
</mgrwt>
</event>
<event>
 4    1  0.7165636E+004  0.3481509E+02  0.7546771E-02  0.1550249E+00
         21   -1    0    0  501  502  0.00000000000E+00  0.00000000000E+00  0.98821185420E+01  0.98821185420E+01  0.00000000000E+00 0. -1.
         21   -1    0    0  502  503 -0.00000000000E+00 -0.00000000000E+00 -0.12336862073E+03  0.12336862073E+03  0.00000000000E+00 0. -1.
          5    1    1    2  501    0  0.23229543200E+02 -0.25932200563E+02 -0.61810681940E+02  0.70941180602E+02  0.00000000000E+00 0.  1.
         -5    1    1    2    0  503 -0.23229543200E+02  0.25932200563E+02 -0.51675820247E+02  0.62309558669E+02  0.00000000000E+00 0. -1.
<mgrwt>
<rscale>  2 0.34815093E+02</rscale>
<asrwt>0</asrwt>
<pdfrwt beam="1">  1       21 0.15203259E-02 0.34815093E+02</pdfrwt>
<pdfrwt beam="2">  1       21 0.18979788E-01 0.34815093E+02</pdfrwt>
<totfact> 0.39151297E+07</totfact>
</mgrwt>
</event>
<event>
 4    1  0.7165636E+004  0.2578362E+02  0.7546771E-02  0.1649995E+00
         21   -1    0    0  501  502  0.00000000000E+00  0.00000000000E+00  0.13864758016E+03  0.13864758016E+03  0.00000000000E+00 0. -1.
         21   -1    0    0  502  503 -0.00000000000E+00 -0.00000000000E+00 -0.47987752602E+01  0.47987752602E+01  0.00000000000E+00 0. -1.
          4    1    1    2  501    0  0.16957758029E+02 -0.19422396333E+02  0.64874400603E+02  0.69810335126E+02  0.00000000000E+00 0. -1.
         -4    1    1    2    0  503 -0.16957758029E+02  0.19422396333E+02  0.68974404292E+02  0.73636020290E+02  0.00000000000E+00 0.  1.
<mgrwt>
<rscale>  2 0.25783620E+02</rscale>
<asrwt>0</asrwt>
<pdfrwt beam="1">  1       21 0.21330394E-01 0.25783620E+02</pdfrwt>
<pdfrwt beam="2">  1       21 0.73827322E-03 0.25783620E+02</pdfrwt>
<totfact> 0.89253051E+07</totfact>
</mgrwt>
</event>
<event>
 4    1  0.7165636E+004  0.2140514E+02  0.7546771E-02  0.1718748E+00
         21   -1    0    0  501  502  0.00000000000E+00  0.00000000000E+00  0.55797748564E+03  0.55797748564E+03  0.00000000000E+00 0.  1.
         21   -1    0    0  502  503 -0.00000000000E+00 -0.00000000000E+00 -0.95668949114E+00  0.95668949114E+00  0.00000000000E+00 0.  1.
          4    1    1    2  501    0  0.16209964490E+02 -0.13979168973E+02  0.38370343389E+03  0.38430001989E+03  0.00000000000E+00 0.  1.
         -4    1    1    2    0  503 -0.16209964490E+02  0.13979168973E+02  0.17331736226E+03  0.17463415524E+03  0.00000000000E+00 0. -1.
<mgrwt>
<rscale>  2 0.21405142E+02</rscale>
<asrwt>0</asrwt>
<pdfrwt beam="1">  1       21 0.85842430E-01 0.21405142E+02</pdfrwt>
<pdfrwt beam="2">  1       21 0.14718344E-03 0.21405142E+02</pdfrwt>
<totfact> 0.62505232E+07</totfact>
</mgrwt>
</event>
<event>
 4    1  0.7165636E+004  0.2310971E+02  0.7546771E-02  0.1689738E+00
         21   -1    0    0  501  502  0.00000000000E+00  0.00000000000E+00  0.90191930898E+02  0.90191930898E+02  0.00000000000E+00 0.  1.
         21   -1    0    0  502  503 -0.00000000000E+00 -0.00000000000E+00 -0.66444944534E+01  0.66444944534E+01  0.00000000000E+00 0.  1.
          5    1    1    2  501    0 -0.59714021619E+01  0.22324896643E+02  0.57746777432E+02  0.62199268145E+02  0.00000000000E+00 0. -1.
         -5    1    1    2    0  503  0.59714021619E+01 -0.22324896643E+02  0.25800659013E+02  0.34637157207E+02  0.00000000000E+00 0.  1.
<mgrwt>
<rscale>  2 0.23109709E+02</rscale>
<asrwt>0</asrwt>
<pdfrwt beam="1">  1       21 0.13875681E-01 0.23109709E+02</pdfrwt>
<pdfrwt beam="2">  1       21 0.10222300E-02 0.23109709E+02</pdfrwt>
<totfact> 0.11181450E+08</totfact>
</mgrwt>
</event>
<event>
 4    1  0.7165636E+004  0.2031639E+02  0.7546771E-02  0.1739108E+00
         21   -1    0    0  503  502  0.00000000000E+00  0.00000000000E+00  0.32220865388E+02  0.32220865388E+02  0.00000000000E+00 0. -1.
         21   -1    0    0  501  503 -0.00000000000E+00 -0.00000000000E+00 -0.14163580547E+02  0.14163580547E+02  0.00000000000E+00 0. -1.
          5    1    1    2  501    0  0.19788811709E+02  0.45998533930E+01  0.18595222140E+01  0.20401312286E+02  0.00000000000E+00 0. -1.
         -5    1    1    2    0  502 -0.19788811709E+02 -0.45998533930E+01  0.16197762627E+02  0.25983133649E+02  0.00000000000E+00 0.  1.
<mgrwt>
<rscale>  2 0.20316390E+02</rscale>
<asrwt>0</asrwt>
<pdfrwt beam="1">  1       21 0.49570562E-02 0.20316390E+02</pdfrwt>
<pdfrwt beam="2">  1       21 0.21790124E-02 0.20316390E+02</pdfrwt>
<totfact> 0.18327595E+08</totfact>
</mgrwt>
</event>
<event>
 4    1  0.7165636E+004  0.2159325E+02  0.7546771E-02  0.1715383E+00
         21   -1    0    0  501  502  0.00000000000E+00  0.00000000000E+00  0.40253142702E+02  0.40253142702E+02  0.00000000000E+00 0. -1.
         21   -1    0    0  502  503 -0.00000000000E+00 -0.00000000000E+00 -0.11603103756E+02  0.11603103756E+02  0.00000000000E+00 0. -1.
          2    1    1    2  501    0  0.81151885230E+01 -0.20010298885E+02  0.15393417359E+02  0.26518401992E+02  0.00000000000E+00 0.  1.
         -2    1    1    2    0  503 -0.81151885230E+01  0.20010298885E+02  0.13256621587E+02  0.25337844465E+02  0.00000000000E+00 0. -1.
<mgrwt>
<rscale>  2 0.21593248E+02</rscale>
<asrwt>0</asrwt>
<pdfrwt beam="1">  1       21 0.61927911E-02 0.21593248E+02</pdfrwt>
<pdfrwt beam="2">  1       21 0.17850929E-02 0.21593248E+02</pdfrwt>
<totfact> 0.17773380E+08</totfact>
</mgrwt>
</event>
<event>
 4    1  0.7165636E+004  0.2087460E+02  0.7546771E-02  0.1728475E+00
         21   -1    0    0  501  502  0.00000000000E+00  0.00000000000E+00  0.53213368260E+00  0.53213368260E+00  0.00000000000E+00 0. -1.
         21   -1    0    0  502  503 -0.00000000000E+00 -0.00000000000E+00 -0.10624983071E+04  0.10624983071E+04  0.00000000000E+00 0. -1.
          3    1    1    2  501    0  0.20719219112E+02  0.25422201771E+01 -0.27646747595E+03  0.27725442139E+03  0.00000000000E+00 0. -1.
         -3    1    1    2    0  503 -0.20719219112E+02 -0.25422201771E+01 -0.78549869749E+03  0.78577601941E+03  0.00000000000E+00 0.  1.
<mgrwt>
<rscale>  2 0.20874600E+02</rscale>
<asrwt>0</asrwt>
<pdfrwt beam="1">  1       21 0.81867739E-04 0.20874600E+02</pdfrwt>
<pdfrwt beam="2">  1       21 0.16345924E+00 0.20874600E+02</pdfrwt>
<totfact> 0.33560123E+07</totfact>
</mgrwt>
</event>
<event>
 4    1  0.7165636E+004  0.2194592E+02  0.7546771E-02  0.1709189E+00
         21   -1    0    0  503  502  0.00000000000E+00  0.00000000000E+00  0.74678996342E+03  0.74678996342E+03  0.00000000000E+00 0. -1.
         21   -1    0    0  501  503 -0.00000000000E+00 -0.00000000000E+00 -0.67103151943E+00  0.67103151943E+00  0.00000000000E+00 0. -1.
          3    1    1    2  501    0  0.19283037618E+02  0.10477968796E+02  0.29934322061E+03  0.30014660934E+03  0.00000000000E+00 0. -1.
         -3    1    1    2    0  502 -0.19283037618E+02 -0.10477968796E+02  0.44677571129E+03  0.44731438560E+03  0.00000000000E+00 0.  1.
<mgrwt>
<rscale>  2 0.21945919E+02</rscale>
<asrwt>0</asrwt>
<pdfrwt beam="1">  1       21 0.11489010E+00 0.21945919E+02</pdfrwt>
<pdfrwt beam="2">  1       21 0.10323622E-03 0.21945919E+02</pdfrwt>
<totfact> 0.55269398E+07</totfact>
</mgrwt>
</event>
<event>
 4    1  0.7165636E+004  0.2444694E+02  0.7546771E-02  0.1669075E+00
         21   -1    0    0  503  502  0.00000000000E+00  0.00000000000E+00  0.49923595131E+02  0.49923595131E+02  0.00000000000E+00 0.  1.
         21   -1    0    0  501  503 -0.00000000000E+00 -0.00000000000E+00 -0.13361291748E+02  0.13361291748E+02  0.00000000000E+00 0.  1.
          4    1    1    2  501    0 -0.12529987054E+02 -0.20991717225E+02  0.28486886650E+02  0.37538719726E+02  0.00000000000E+00 0. -1.
         -4    1    1    2    0  502  0.12529987054E+02  0.20991717225E+02  0.80754167330E+01  0.25746167153E+02  0.00000000000E+00 0.  1.
<mgrwt>
<rscale>  2 0.24446938E+02</rscale>
<asrwt>0</asrwt>
<pdfrwt beam="1">  1       21 0.76805530E-02 0.24446938E+02</pdfrwt>
<pdfrwt beam="2">  1       21 0.20555834E-02 0.24446938E+02</pdfrwt>
<totfact> 0.10488401E+08</totfact>
</mgrwt>
</event>
<event>
 4    1  0.7165636E+004  0.2760567E+02  0.7546771E-02  0.1626170E+00
         21   -1    0    0  503  502  0.00000000000E+00  0.00000000000E+00  0.71295822343E+01  0.71295822343E+01  0.00000000000E+00 0. -1.
         21   -1    0    0  501  503 -0.00000000000E+00 -0.00000000000E+00 -0.20788363603E+03  0.20788363603E+03  0.00000000000E+00 0. -1.
          1    1    1    2  501    0 -0.94136072755E+01  0.25951046785E+02 -0.25443790044E+02  0.37542766054E+02  0.00000000000E+00 0. -1.
         -1    1    1    2    0  502  0.94136072755E+01 -0.25951046785E+02 -0.17531026375E+03  0.17747045221E+03  0.00000000000E+00 0.  1.
<mgrwt>
<rscale>  2 0.27605667E+02</rscale>
<asrwt>0</asrwt>
<pdfrwt beam="1">  1       21 0.10968591E-02 0.27605667E+02</pdfrwt>
<pdfrwt beam="2">  1       21 0.31982090E-01 0.27605667E+02</pdfrwt>
<totfact> 0.24054853E+07</totfact>
</mgrwt>
</event>
<event>
 4    1  0.7165636E+004  0.2119705E+02  0.7546771E-02  0.1722520E+00
         21   -1    0    0  501  502  0.00000000000E+00  0.00000000000E+00  0.26795461343E+01  0.26795461343E+01  0.00000000000E+00 0.  1.
         21   -1    0    0  502  503 -0.00000000000E+00 -0.00000000000E+00 -0.20793909419E+03  0.20793909419E+03  0.00000000000E+00 0.  1.
          1    1    1    2  501    0 -0.15563254128E+02  0.14390973716E+02 -0.14896520493E+03  0.15046576781E+03  0.00000000000E+00 0.  1.
         -1    1    1    2    0  503  0.15563254128E+02 -0.14390973716E+02 -0.56294343132E+02  0.60152872519E+02  0.00000000000E+00 0. -1.
<mgrwt>
<rscale>  2 0.21197052E+02</rscale>
<asrwt>0</asrwt>
<pdfrwt beam="1">  1       21 0.41223776E-03 0.21197052E+02</pdfrwt>
<pdfrwt beam="2">  1       21 0.31990638E-01 0.21197052E+02</pdfrwt>
<totfact> 0.97011682E+07</totfact>
</mgrwt>
</event>
<event>
 4    1  0.7165636E+004  0.3450237E+02  0.7546771E-02  0.1553065E+00
         21   -1    0    0  501  502  0.00000000000E+00  0.00000000000E+00  0.32445670300E+02  0.32445670300E+02  0.00000000000E+00 0.  1.
         21   -1    0    0  502  503 -0.00000000000E+00 -0.00000000000E+00 -0.36739402172E+02  0.36739402172E+02  0.00000000000E+00 0.  1.
          5    1    1    2  501    0 -0.30828024317E+02  0.15493443402E+02 -0.34223754392E+01  0.34671696315E+02  0.00000000000E+00 0.  1.
         -5    1    1    2    0  503  0.30828024317E+02 -0.15493443402E+02 -0.87135643240E+00  0.34513376157E+02  0.00000000000E+00 0. -1.
<mgrwt>
<rscale>  2 0.34502375E+02</rscale>
<asrwt>0</asrwt>
<pdfrwt beam="1">  1       21 0.49916416E-02 0.34502375E+02</pdfrwt>
<pdfrwt beam="2">  1       21 0.56522157E-02 0.34502375E+02</pdfrwt>
<totfact> 0.46366789E+07</totfact>
</mgrwt>
</event>
<event>
 4    1  0.7165636E+004  0.2424961E+02  0.7546771E-02  0.1672020E+00
         21   -1    0    0  503  502  0.00000000000E+00  0.00000000000E+00  0.10979785619E+02  0.10979785619E+02  0.00000000000E+00 0.  1.
         21   -1    0    0  501  503 -0.00000000000E+00 -0.00000000000E+00 -0.53668185931E+02  0.53668185931E+02  0.00000000000E+00 0.  1.
          4    1    1    2  501    0 -0.12785168476E+01  0.24215883594E+02 -0.22815921498E+02  0.33295793989E+02  0.00000000000E+00 0.  1.
         -4    1    1    2    0  502  0.12785168476E+01 -0.24215883594E+02 -0.19872478814E+02  0.31352177561E+02  0.00000000000E+00 0. -1.
<mgrwt>
<rscale>  2 0.24249611E+02</rscale>
<asrwt>0</asrwt>
<pdfrwt beam="1">  1       21 0.16891978E-02 0.24249611E+02</pdfrwt>
<pdfrwt beam="2">  1       21 0.82566439E-02 0.24249611E+02</pdfrwt>
<totfact> 0.12563638E+08</totfact>
</mgrwt>
</event>
<event>
 4    1  0.7165636E+004  0.2319307E+02  0.7546771E-02  0.1688400E+00
         21   -1    0    0  503  502  0.00000000000E+00  0.00000000000E+00  0.11922697231E+01  0.11922697231E+01  0.00000000000E+00 0.  1.
         21   -1    0    0  501  503 -0.00000000000E+00 -0.00000000000E+00 -0.45150203901E+03  0.45150203901E+03  0.00000000000E+00 0.  1.
          1    1    1    2  501    0 -0.16893990144E+02 -0.15890608774E+02 -0.21903237694E+03  0.22025689660E+03  0.00000000000E+00 0.  1.
         -1    1    1    2    0  502  0.16893990144E+02  0.15890608774E+02 -0.23127739235E+03  0.23243741214E+03  0.00000000000E+00 0. -1.
<mgrwt>
<rscale>  2 0.23193067E+02</rscale>
<asrwt>0</asrwt>
<pdfrwt beam="1">  1       21 0.18342607E-03 0.23193067E+02</pdfrwt>
<pdfrwt beam="2">  1       21 0.69461866E-01 0.23193067E+02</pdfrwt>
<totfact> 0.72174886E+07</totfact>
</mgrwt>
</event>
<event>
 4    1  0.7165636E+004  0.2396225E+02  0.7546771E-02  0.1676371E+00
         21   -1    0    0  503  502  0.00000000000E+00  0.00000000000E+00  0.53113105034E+01  0.53113105034E+01  0.00000000000E+00 0.  1.
         21   -1    0    0  501  503 -0.00000000000E+00 -0.00000000000E+00 -0.11702218956E+03  0.11702218956E+03  0.00000000000E+00 0.  1.
          1    1    1    2  501    0 -0.23959489346E+02  0.36378264854E+00 -0.38972490240E+02  0.45749802875E+02  0.00000000000E+00 0. -1.
         -1    1    1    2    0  502  0.23959489346E+02 -0.36378264854E+00 -0.72738388817E+02  0.76583697189E+02  0.00000000000E+00 0.  1.
<mgrwt>
<rscale>  2 0.23962251E+02</rscale>
<asrwt>0</asrwt>
<pdfrwt beam="1">  1       21 0.81712477E-03 0.23962251E+02</pdfrwt>
<pdfrwt beam="2">  1       21 0.18003412E-01 0.23962251E+02</pdfrwt>
<totfact> 0.10119549E+08</totfact>
</mgrwt>
</event>
<event>
 4    1  0.7165636E+004  0.3539421E+02  0.7546771E-02  0.1545128E+00
         21   -1    0    0  503  502  0.00000000000E+00  0.00000000000E+00  0.24835840304E+03  0.24835840304E+03  0.00000000000E+00 0.  1.
         21   -1    0    0  501  503 -0.00000000000E+00 -0.00000000000E+00 -0.56616609977E+01  0.56616609977E+01  0.00000000000E+00 0.  1.
          1    1    1    2  501    0  0.30524630404E+02  0.17916385069E+02  0.16329514142E+03  0.16708696277E+03  0.00000000000E+00 0.  1.
         -1    1    1    2    0  502 -0.30524630404E+02 -0.17916385069E+02  0.79401600624E+02  0.86933101273E+02  0.00000000000E+00 0. -1.
<mgrwt>
<rscale>  2 0.35394207E+02</rscale>
<asrwt>0</asrwt>
<pdfrwt beam="1">  1       21 0.38208977E-01 0.35394207E+02</pdfrwt>
<pdfrwt beam="2">  1       21 0.87102496E-03 0.35394207E+02</pdfrwt>
<totfact> 0.25571846E+07</totfact>
</mgrwt>
</event>
<event>
 4    1  0.7165636E+004  0.2111153E+02  0.7546771E-02  0.1724087E+00
         21   -1    0    0  503  502  0.00000000000E+00  0.00000000000E+00  0.17895788869E+02  0.17895788869E+02  0.00000000000E+00 0. -1.
         21   -1    0    0  501  503 -0.00000000000E+00 -0.00000000000E+00 -0.26471916763E+02  0.26471916763E+02  0.00000000000E+00 0. -1.
          3    1    1    2  501    0 -0.18825128168E+02  0.95556905870E+01 -0.96850507775E+01  0.23227072172E+02  0.00000000000E+00 0.  1.
         -3    1    1    2    0  502  0.18825128168E+02 -0.95556905870E+01  0.11089228829E+01  0.21140633460E+02  0.00000000000E+00 0. -1.
<mgrwt>
<rscale>  2 0.21111529E+02</rscale>
<asrwt>0</asrwt>
<pdfrwt beam="1">  1       21 0.27531983E-02 0.21111529E+02</pdfrwt>
<pdfrwt beam="2">  1       21 0.40726026E-02 0.21111529E+02</pdfrwt>
<totfact> 0.17648219E+08</totfact>
</mgrwt>
</event>
<event>
 4    1  0.7165636E+004  0.2832224E+02  0.7546771E-02  0.1617411E+00
         21   -1    0    0  501  502  0.00000000000E+00  0.00000000000E+00  0.86347152800E+02  0.86347152800E+02  0.00000000000E+00 0. -1.
         21   -1    0    0  502  503 -0.00000000000E+00 -0.00000000000E+00 -0.93378475575E+01  0.93378475575E+01  0.00000000000E+00 0. -1.
          2    1    1    2  501    0  0.26769314349E+02  0.92494847576E+01  0.41935915176E+02  0.50604052611E+02  0.00000000000E+00 0. -1.
         -2    1    1    2    0  503 -0.26769314349E+02 -0.92494847576E+01  0.35073390066E+02  0.45080947747E+02  0.00000000000E+00 0.  1.
<mgrwt>
<rscale>  2 0.28322238E+02</rscale>
<asrwt>0</asrwt>
<pdfrwt beam="1">  1       21 0.13284177E-01 0.28322238E+02</pdfrwt>
<pdfrwt beam="2">  1       21 0.14365920E-02 0.28322238E+02</pdfrwt>
<totfact> 0.75792942E+07</totfact>
</mgrwt>
</event>
<event>
 4    1  0.7165636E+004  0.2013541E+02  0.7546771E-02  0.1742649E+00
         21   -1    0    0  503  502  0.00000000000E+00  0.00000000000E+00  0.44386983336E+01  0.44386983336E+01  0.00000000000E+00 0.  1.
         21   -1    0    0  501  503 -0.00000000000E+00 -0.00000000000E+00 -0.13032749586E+03  0.13032749586E+03  0.00000000000E+00 0.  1.
          5    1    1    2  501    0 -0.16381255455E+02  0.11708508686E+02 -0.99798904775E+02  0.10180990178E+03  0.00000000000E+00 0.  1.
         -5    1    1    2    0  502  0.16381255455E+02 -0.11708508686E+02 -0.26089892749E+02  0.32956292413E+02  0.00000000000E+00 0. -1.
<mgrwt>
<rscale>  2 0.20135409E+02</rscale>
<asrwt>0</asrwt>
<pdfrwt beam="1">  1       21 0.68287661E-03 0.20135409E+02</pdfrwt>
<pdfrwt beam="2">  1       21 0.20050386E-01 0.20135409E+02</pdfrwt>
<totfact> 0.10441344E+08</totfact>
</mgrwt>
</event>
<event>
 4    1  0.7165636E+004  0.3040995E+02  0.7546771E-02  0.1593601E+00
         21   -1    0    0  503  502  0.00000000000E+00  0.00000000000E+00  0.76376240038E+02  0.76376240038E+02  0.00000000000E+00 0.  1.
         21   -1    0    0  501  503 -0.00000000000E+00 -0.00000000000E+00 -0.12826649733E+02  0.12826649733E+02  0.00000000000E+00 0.  1.
          4    1    1    2  501    0  0.29292188476E+02 -0.81690168049E+01  0.42331892062E+02  0.52122492523E+02  0.00000000000E+00 0.  1.
         -4    1    1    2    0  502 -0.29292188476E+02  0.81690168049E+01  0.21217698243E+02  0.37080397247E+02  0.00000000000E+00 0. -1.
<mgrwt>
<rscale>  2 0.30409951E+02</rscale>
<asrwt>0</asrwt>
<pdfrwt beam="1">  1       21 0.11750191E-01 0.30409951E+02</pdfrwt>
<pdfrwt beam="2">  1       21 0.19733308E-02 0.30409951E+02</pdfrwt>
<totfact> 0.58214525E+07</totfact>
</mgrwt>
</event>
<event>
 4    1  0.7165636E+004  0.2027738E+02  0.7546771E-02  0.1739868E+00
         21   -1    0    0  503  502  0.00000000000E+00  0.00000000000E+00  0.80961828150E+00  0.80961828150E+00  0.00000000000E+00 0.  1.
         21   -1    0    0  501  503 -0.00000000000E+00 -0.00000000000E+00 -0.54422735870E+03  0.54422735870E+03  0.00000000000E+00 0.  1.
          2    1    1    2  501    0 -0.18393036174E+02 -0.85363005876E+01 -0.20126136830E+03  0.20228027728E+03  0.00000000000E+00 0. -1.
         -2    1    1    2    0  502  0.18393036174E+02  0.85363005876E+01 -0.34215637212E+03  0.34275669970E+03  0.00000000000E+00 0.  1.
<mgrwt>
<rscale>  2 0.20277382E+02</rscale>
<asrwt>0</asrwt>
<pdfrwt beam="1">  1       21 0.12455689E-03 0.20277382E+02</pdfrwt>
<pdfrwt beam="2">  1       21 0.83727132E-01 0.20277382E+02</pdfrwt>
<totfact> 0.82492264E+07</totfact>
</mgrwt>
</event>
<event>
 4    1  0.7165636E+004  0.2264291E+02  0.7546771E-02  0.1697365E+00
         21   -1    0    0  501  502  0.00000000000E+00  0.00000000000E+00  0.76589114137E+02  0.76589114137E+02  0.00000000000E+00 0.  1.
         21   -1    0    0  502  503 -0.00000000000E+00 -0.00000000000E+00 -0.86404883860E+01  0.86404883860E+01  0.00000000000E+00 0.  1.
          4    1    1    2  501    0 -0.13939015828E+02 -0.17843907791E+02  0.13748904136E+02  0.26490254291E+02  0.00000000000E+00 0.  1.
         -4    1    1    2    0  503  0.13939015828E+02  0.17843907791E+02  0.54199721615E+02  0.58739348231E+02  0.00000000000E+00 0. -1.
<mgrwt>
<rscale>  2 0.22642906E+02</rscale>
<asrwt>0</asrwt>
<pdfrwt beam="1">  1       21 0.11782940E-01 0.22642906E+02</pdfrwt>
<pdfrwt beam="2">  1       21 0.13293060E-02 0.22642906E+02</pdfrwt>
<totfact> 0.98475481E+07</totfact>
</mgrwt>
</event>
<event>
 4    1  0.7165636E+004  0.2750823E+02  0.7546771E-02  0.1627386E+00
         21   -1    0    0  503  502  0.00000000000E+00  0.00000000000E+00  0.16559302756E+02  0.16559302756E+02  0.00000000000E+00 0.  1.
         21   -1    0    0  501  503 -0.00000000000E+00 -0.00000000000E+00 -0.79946146619E+02  0.79946146619E+02  0.00000000000E+00 0.  1.
          1    1    1    2  501    0 -0.10165603496E+01  0.27489439418E+02 -0.63276243835E+02  0.68996997821E+02  0.00000000000E+00 0. -1.
         -1    1    1    2    0  502  0.10165603496E+01 -0.27489439418E+02 -0.11060002840E+00  0.27508451553E+02  0.00000000000E+00 0.  1.
<mgrwt>
<rscale>  2 0.27508229E+02</rscale>
<asrwt>0</asrwt>
<pdfrwt beam="1">  1       21 0.25475851E-02 0.27508229E+02</pdfrwt>
<pdfrwt beam="2">  1       21 0.12299407E-01 0.27508229E+02</pdfrwt>
<totfact> 0.35440088E+07</totfact>
</mgrwt>
</event>
<event>
 4    1  0.7165636E+004  0.2942915E+02  0.7546771E-02  0.1604486E+00
         21   -1    0    0  503  502  0.00000000000E+00  0.00000000000E+00  0.67783825838E+02  0.67783825838E+02  0.00000000000E+00 0.  1.
         21   -1    0    0  501  503 -0.00000000000E+00 -0.00000000000E+00 -0.13862494784E+02  0.13862494784E+02  0.00000000000E+00 0.  1.
          1    1    1    2  501    0 -0.12038201748E+02  0.26854358087E+02  0.15537219906E+02  0.33278822876E+02  0.00000000000E+00 0.  1.
         -1    1    1    2    0  502  0.12038201748E+02 -0.26854358087E+02  0.38384111148E+02  0.48367497746E+02  0.00000000000E+00 0. -1.
<mgrwt>
<rscale>  2 0.29429150E+02</rscale>
<asrwt>0</asrwt>
<pdfrwt beam="1">  1       21 0.10428281E-01 0.29429150E+02</pdfrwt>
<pdfrwt beam="2">  1       21 0.21326915E-02 0.29429150E+02</pdfrwt>
<totfact> 0.62634868E+07</totfact>
</mgrwt>
</event>
<event>
 4    1  0.7165636E+004  0.2190616E+02  0.7546771E-02  0.1709880E+00
         21   -1    0    0  503  502  0.00000000000E+00  0.00000000000E+00  0.97870450476E+01  0.97870450476E+01  0.00000000000E+00 0.  1.
         21   -1    0    0  501  503 -0.00000000000E+00 -0.00000000000E+00 -0.56130327262E+02  0.56130327262E+02  0.00000000000E+00 0.  1.
          3    1    1    2  501    0 -0.17651704476E+02 -0.12972945525E+02 -0.11451195297E+02  0.24718613639E+02  0.00000000000E+00 0.  1.
         -3    1    1    2    0  502  0.17651704476E+02  0.12972945525E+02 -0.34892086918E+02  0.41198758671E+02  0.00000000000E+00 0. -1.
<mgrwt>
<rscale>  2 0.21906163E+02</rscale>
<asrwt>0</asrwt>
<pdfrwt beam="1">  1       21 0.15056992E-02 0.21906163E+02</pdfrwt>
<pdfrwt beam="2">  1       21 0.86354351E-02 0.21906163E+02</pdfrwt>
<totfact> 0.13496920E+08</totfact>
</mgrwt>
</event>
<event>
 4    1  0.7165636E+004  0.3019025E+02  0.7546771E-02  0.1595995E+00
         21   -1    0    0  503  502  0.00000000000E+00  0.00000000000E+00  0.10093264320E+03  0.10093264320E+03  0.00000000000E+00 0.  1.
         21   -1    0    0  501  503 -0.00000000000E+00 -0.00000000000E+00 -0.11272236825E+02  0.11272236825E+02  0.00000000000E+00 0.  1.
          1    1    1    2  501    0  0.24244175708E+02  0.17990857763E+02  0.19810084211E+02  0.36109423358E+02  0.00000000000E+00 0. -1.
         -1    1    1    2    0  502 -0.24244175708E+02 -0.17990857763E+02  0.69850322164E+02  0.76095456666E+02  0.00000000000E+00 0.  1.
<mgrwt>
<rscale>  2 0.30190247E+02</rscale>
<asrwt>0</asrwt>
<pdfrwt beam="1">  1       21 0.15528098E-01 0.30190247E+02</pdfrwt>
<pdfrwt beam="2">  1       21 0.17341903E-02 0.30190247E+02</pdfrwt>
<totfact> 0.44080169E+07</totfact>
</mgrwt>
</event>
<event>
 4    1  0.7165636E+004  0.2054473E+02  0.7546771E-02  0.1734707E+00
         21   -1    0    0  501  502  0.00000000000E+00  0.00000000000E+00  0.45727355422E+01  0.45727355422E+01  0.00000000000E+00 0. -1.
         21   -1    0    0  502  503 -0.00000000000E+00 -0.00000000000E+00 -0.10122276934E+03  0.10122276934E+03  0.00000000000E+00 0. -1.
          2    1    1    2  501    0  0.72809249525E+01 -0.19211303579E+02 -0.32623998162E+02  0.38554005103E+02  0.00000000000E+00 0. -1.
         -2    1    1    2    0  503 -0.72809249525E+01  0.19211303579E+02 -0.64026035638E+02  0.67241499782E+02  0.00000000000E+00 0.  1.
<mgrwt>
<rscale>  2 0.20544733E+02</rscale>
<asrwt>0</asrwt>
<pdfrwt beam="1">  1       21 0.70349786E-03 0.20544733E+02</pdfrwt>
<pdfrwt beam="2">  1       21 0.15572732E-01 0.20544733E+02</pdfrwt>
<totfact> 0.15511580E+08</totfact>
</mgrwt>
</event>
<event>
 4    1  0.7165636E+004  0.3769944E+02  0.7546771E-02  0.1525857E+00
         21   -1    0    0  503  502  0.00000000000E+00  0.00000000000E+00  0.16337561786E+02  0.16337561786E+02  0.00000000000E+00 0.  1.
         21   -1    0    0  501  503 -0.00000000000E+00 -0.00000000000E+00 -0.88903344555E+02  0.88903344555E+02  0.00000000000E+00 0.  1.
          3    1    1    2  501    0 -0.35626715270E+02 -0.12328202291E+02 -0.43997143393E+02  0.57939589568E+02  0.00000000000E+00 0. -1.
         -3    1    1    2    0  502  0.35626715270E+02  0.12328202291E+02 -0.28568639376E+02  0.47301316773E+02  0.00000000000E+00 0.  1.
<mgrwt>
<rscale>  2 0.37699435E+02</rscale>
<asrwt>0</asrwt>
<pdfrwt beam="1">  1       21 0.25134710E-02 0.37699435E+02</pdfrwt>
<pdfrwt beam="2">  1       21 0.13677438E-01 0.37699435E+02</pdfrwt>
<totfact> 0.32146357E+07</totfact>
</mgrwt>
</event>
<event>
 4    1  0.7165636E+004  0.3029626E+02  0.7546771E-02  0.1594837E+00
         21   -1    0    0  503  502  0.00000000000E+00  0.00000000000E+00  0.26354619680E+02  0.26354619680E+02  0.00000000000E+00 0.  1.
         21   -1    0    0  501  503 -0.00000000000E+00 -0.00000000000E+00 -0.34877580891E+02  0.34877580891E+02  0.00000000000E+00 0.  1.
          2    1    1    2  501    0  0.29220611441E+02 -0.80012166747E+01 -0.54224684105E+01  0.30777699149E+02  0.00000000000E+00 0. -1.
         -2    1    1    2    0  502 -0.29220611441E+02  0.80012166747E+01 -0.31004928009E+01  0.30454501422E+02  0.00000000000E+00 0.  1.
<mgrwt>
<rscale>  2 0.30296264E+02</rscale>
<asrwt>0</asrwt>
<pdfrwt beam="1">  1       21 0.40545569E-02 0.30296264E+02</pdfrwt>
<pdfrwt beam="2">  1       21 0.53657817E-02 0.30296264E+02</pdfrwt>
<totfact> 0.68447699E+07</totfact>
</mgrwt>
</event>
<event>
 4    1  0.7165636E+004  0.2552955E+02  0.7546771E-02  0.1653510E+00
         21   -1    0    0  503  502  0.00000000000E+00  0.00000000000E+00  0.32173962153E+02  0.32173962153E+02  0.00000000000E+00 0. -1.
         21   -1    0    0  501  503 -0.00000000000E+00 -0.00000000000E+00 -0.25496426072E+02  0.25496426072E+02  0.00000000000E+00 0. -1.
          4    1    1    2  501    0  0.50944850558E+01 -0.25016074864E+02 -0.97323405651E+01  0.27321717231E+02  0.00000000000E+00 0.  1.
         -4    1    1    2    0  502 -0.50944850558E+01  0.25016074864E+02  0.16409876646E+02  0.30348670995E+02  0.00000000000E+00 0. -1.
<mgrwt>
<rscale>  2 0.25529547E+02</rscale>
<asrwt>0</asrwt>
<pdfrwt beam="1">  1       21 0.49498404E-02 0.25529547E+02</pdfrwt>
<pdfrwt beam="2">  1       21 0.39225271E-02 0.25529547E+02</pdfrwt>
<totfact> 0.78717299E+07</totfact>
</mgrwt>
</event>
<event>
 4    1  0.7165636E+004  0.3116598E+02  0.7546771E-02  0.1585547E+00
         21   -1    0    0  503  502  0.00000000000E+00  0.00000000000E+00  0.12635112974E+04  0.12635112974E+04  0.00000000000E+00 0.  1.
         21   -1    0    0  501  503 -0.00000000000E+00 -0.00000000000E+00 -0.14469132561E+01  0.14469132561E+01  0.00000000000E+00 0.  1.
          1    1    1    2  501    0  0.31157024869E+02 -0.74704274849E+00  0.19802651255E+03  0.20046400660E+03  0.00000000000E+00 0.  1.
         -1    1    1    2    0  502 -0.31157024869E+02  0.74704274849E+00  0.10640378716E+04  0.10644942041E+04  0.00000000000E+00 0. -1.
<mgrwt>
<rscale>  2 0.31165979E+02</rscale>
<asrwt>0</asrwt>
<pdfrwt beam="1">  1       21 0.19438547E+00 0.31165979E+02</pdfrwt>
<pdfrwt beam="2">  1       21 0.22260305E-03 0.31165979E+02</pdfrwt>
<totfact> 0.54445266E+06</totfact>
</mgrwt>
</event>
<event>
 4    1  0.7165636E+004  0.2059368E+02  0.7546771E-02  0.1733773E+00
         21   -1    0    0  501  502  0.00000000000E+00  0.00000000000E+00  0.54461895915E+02  0.54461895915E+02  0.00000000000E+00 0. -1.
         21   -1    0    0  502  503 -0.00000000000E+00 -0.00000000000E+00 -0.91086451714E+01  0.91086451714E+01  0.00000000000E+00 0. -1.
          4    1    1    2  501    0  0.19345638428E+02 -0.70601545086E+01  0.10569467541E+02  0.23147638151E+02  0.00000000000E+00 0.  1.
         -4    1    1    2    0  503 -0.19345638428E+02  0.70601545086E+01  0.34783783203E+02  0.40422902936E+02  0.00000000000E+00 0. -1.
<mgrwt>
<rscale>  2 0.20593676E+02</rscale>
<asrwt>0</asrwt>
<pdfrwt beam="1">  1       21 0.83787530E-02 0.20593676E+02</pdfrwt>
<pdfrwt beam="2">  1       21 0.14013301E-02 0.20593676E+02</pdfrwt>
<totfact> 0.15512451E+08</totfact>
</mgrwt>
</event>
<event>
 4    1  0.7165636E+004  0.3860111E+02  0.7546771E-02  0.1518766E+00
         21   -1    0    0  503  502  0.00000000000E+00  0.00000000000E+00  0.37368652386E+01  0.37368652386E+01  0.00000000000E+00 0. -1.
         21   -1    0    0  501  503 -0.00000000000E+00 -0.00000000000E+00 -0.42362068506E+03  0.42362068506E+03  0.00000000000E+00 0. -1.
          1    1    1    2  501    0  0.37702574128E+02  0.82802159328E+01 -0.15815925749E+03  0.16280171007E+03  0.00000000000E+00 0.  1.
         -1    1    1    2    0  502 -0.37702574128E+02 -0.82802159328E+01 -0.26172456234E+03  0.26455584023E+03  0.00000000000E+00 0. -1.
<mgrwt>
<rscale>  2 0.38601115E+02</rscale>
<asrwt>0</asrwt>
<pdfrwt beam="1">  1       21 0.57490190E-03 0.38601115E+02</pdfrwt>
<pdfrwt beam="2">  1       21 0.65172464E-01 0.38601115E+02</pdfrwt>
<totfact> 0.16833885E+07</totfact>
</mgrwt>
</event>
<event>
 4    1  0.7165636E+004  0.2151066E+02  0.7546771E-02  0.1716855E+00
         21   -1    0    0  503  502  0.00000000000E+00  0.00000000000E+00  0.36391184823E+01  0.36391184823E+01  0.00000000000E+00 0. -1.
         21   -1    0    0  501  503 -0.00000000000E+00 -0.00000000000E+00 -0.19161482159E+03  0.19161482159E+03  0.00000000000E+00 0. -1.
          5    1    1    2  501    0 -0.11171487773E+01 -0.21481633282E+02 -0.15061459451E+03  0.15214290871E+03  0.00000000000E+00 0. -1.
         -5    1    1    2    0  502  0.11171487773E+01  0.21481633282E+02 -0.37361108596E+02  0.43111031365E+02  0.00000000000E+00 0.  1.
<mgrwt>
<rscale>  2 0.21510662E+02</rscale>
<asrwt>0</asrwt>
<pdfrwt beam="1">  1       21 0.55986424E-03 0.21510662E+02</pdfrwt>
<pdfrwt beam="2">  1       21 0.29479211E-01 0.21510662E+02</pdfrwt>
<totfact> 0.72063032E+07</totfact>
</mgrwt>
</event>
<event>
 4    1  0.7165636E+004  0.2562097E+02  0.7546771E-02  0.1652240E+00
         21   -1    0    0  503  502  0.00000000000E+00  0.00000000000E+00  0.67215536996E+00  0.67215536996E+00  0.00000000000E+00 0.  1.
         21   -1    0    0  501  503 -0.00000000000E+00 -0.00000000000E+00 -0.10705478982E+04  0.10705478982E+04  0.00000000000E+00 0.  1.
          2    1    1    2  501    0  0.24510332793E+02  0.74617473275E+01 -0.37627891833E+03  0.37715018025E+03  0.00000000000E+00 0.  1.
         -2    1    1    2    0  502 -0.24510332793E+02 -0.74617473275E+01 -0.69359682450E+03  0.69406987331E+03  0.00000000000E+00 0. -1.
<mgrwt>
<rscale>  2 0.25620970E+02</rscale>
<asrwt>0</asrwt>
<pdfrwt beam="1">  1       21 0.10340769E-03 0.25620970E+02</pdfrwt>
<pdfrwt beam="2">  1       21 0.16470100E+00 0.25620970E+02</pdfrwt>
<totfact> 0.24492881E+07</totfact>
</mgrwt>
</event>
<event>
 4    1  0.7165636E+004  0.2175523E+02  0.7546771E-02  0.1712520E+00
         21   -1    0    0  501  502  0.00000000000E+00  0.00000000000E+00  0.47118076611E+02  0.47118076611E+02  0.00000000000E+00 0.  1.
         21   -1    0    0  502  503 -0.00000000000E+00 -0.00000000000E+00 -0.11597103645E+02  0.11597103645E+02  0.00000000000E+00 0.  1.
          5    1    1    2  501    0 -0.16160099831E+01 -0.21695130763E+02  0.28501328603E+02  0.35855486599E+02  0.00000000000E+00 0. -1.
         -5    1    1    2    0  503  0.16160099831E+01  0.21695130763E+02  0.70196443633E+01  0.22859693657E+02  0.00000000000E+00 0.  1.
<mgrwt>
<rscale>  2 0.21755234E+02</rscale>
<asrwt>0</asrwt>
<pdfrwt beam="1">  1       21 0.72489348E-02 0.21755234E+02</pdfrwt>
<pdfrwt beam="2">  1       21 0.17841698E-02 0.21755234E+02</pdfrwt>
<totfact> 0.13831922E+08</totfact>
</mgrwt>
</event>
<event>
 4    1  0.7165636E+004  0.2536646E+02  0.7546771E-02  0.1655793E+00
         21   -1    0    0  503  502  0.00000000000E+00  0.00000000000E+00  0.16693605807E+01  0.16693605807E+01  0.00000000000E+00 0.  1.
         21   -1    0    0  501  503 -0.00000000000E+00 -0.00000000000E+00 -0.38805721212E+03  0.38805721212E+03  0.00000000000E+00 0.  1.
          2    1    1    2  501    0  0.15173741967E+02 -0.20327683301E+02 -0.20916244472E+03  0.21069500572E+03  0.00000000000E+00 0.  1.
         -2    1    1    2    0  502 -0.15173741967E+02  0.20327683301E+02 -0.17722540682E+03  0.17903156698E+03  0.00000000000E+00 0. -1.
<mgrwt>
<rscale>  2 0.25366457E+02</rscale>
<asrwt>0</asrwt>
<pdfrwt beam="1">  1       21 0.25682432E-03 0.25366457E+02</pdfrwt>
<pdfrwt beam="2">  1       21 0.59701198E-01 0.25366457E+02</pdfrwt>
<totfact> 0.61503378E+07</totfact>
</mgrwt>
</event>
<event>
 4    1  0.7165636E+004  0.3222062E+02  0.7546771E-02  0.1574765E+00
         21   -1    0    0  501  502  0.00000000000E+00  0.00000000000E+00  0.74703590928E+02  0.74703590928E+02  0.00000000000E+00 0.  1.
         21   -1    0    0  502  503 -0.00000000000E+00 -0.00000000000E+00 -0.19704315854E+02  0.19704315854E+02  0.00000000000E+00 0.  1.
          4    1    1    2  501    0  0.14397085139E+02 -0.28825201575E+02  0.18737357153E+01  0.32275055258E+02  0.00000000000E+00 0.  1.
         -4    1    1    2    0  503 -0.14397085139E+02  0.28825201575E+02  0.53125539358E+02  0.62132851524E+02  0.00000000000E+00 0. -1.
<mgrwt>
<rscale>  2 0.32220619E+02</rscale>
<asrwt>0</asrwt>
<pdfrwt beam="1">  1       21 0.11492860E-01 0.32220619E+02</pdfrwt>
<pdfrwt beam="2">  1       21 0.30314332E-02 0.32220619E+02</pdfrwt>
<totfact> 0.31270969E+07</totfact>
</mgrwt>
</event>
<event>
 4    1  0.7165636E+004  0.2132187E+02  0.7546771E-02  0.1720251E+00
         21   -1    0    0  501  502  0.00000000000E+00  0.00000000000E+00  0.53182156674E+00  0.53182156674E+00  0.00000000000E+00 0.  1.
         21   -1    0    0  502  503 -0.00000000000E+00 -0.00000000000E+00 -0.85497230204E+03  0.85497230204E+03  0.00000000000E+00 0.  1.
          4    1    1    2  501    0  0.15377732906E+02  0.14769823297E+02 -0.43254126012E+03  0.43306646609E+03  0.00000000000E+00 0. -1.
         -4    1    1    2    0  503 -0.15377732906E+02 -0.14769823297E+02 -0.42189922036E+03  0.42243765751E+03  0.00000000000E+00 0.  1.
<mgrwt>
<rscale>  2 0.21321875E+02</rscale>
<asrwt>0</asrwt>
<pdfrwt beam="1">  1       21 0.81818824E-04 0.21321875E+02</pdfrwt>
<pdfrwt beam="2">  1       21 0.13153400E+00 0.21321875E+02</pdfrwt>
<totfact> 0.56192295E+07</totfact>
</mgrwt>
</event>
<event>
 4    1  0.7165636E+004  0.3332162E+02  0.7546771E-02  0.1564031E+00
         21   -1    0    0  501  502  0.00000000000E+00  0.00000000000E+00  0.20188036763E+02  0.20188036763E+02  0.00000000000E+00 0.  1.
         21   -1    0    0  502  503 -0.00000000000E+00 -0.00000000000E+00 -0.55733705516E+02  0.55733705516E+02  0.00000000000E+00 0.  1.
          1    1    1    2  501    0 -0.32714106564E+02  0.63338533393E+01 -0.13415634898E+02  0.35920881478E+02  0.00000000000E+00 0. -1.
         -1    1    1    2    0  503  0.32714106564E+02 -0.63338533393E+01 -0.22130033855E+02  0.40000860801E+02  0.00000000000E+00 0.  1.
<mgrwt>
<rscale>  2 0.33321622E+02</rscale>
<asrwt>0</asrwt>
<pdfrwt beam="1">  1       21 0.31058518E-02 0.33321622E+02</pdfrwt>
<pdfrwt beam="2">  1       21 0.85744162E-02 0.33321622E+02</pdfrwt>
<totfact> 0.49522404E+07</totfact>
</mgrwt>
</event>
<event>
 4    1  0.7165636E+004  0.2553396E+02  0.7546771E-02  0.1653449E+00
         21   -1    0    0  501  502  0.00000000000E+00  0.00000000000E+00  0.12759921550E+03  0.12759921550E+03  0.00000000000E+00 0. -1.
         21   -1    0    0  502  503 -0.00000000000E+00 -0.00000000000E+00 -0.57806388000E+01  0.57806388000E+01  0.00000000000E+00 0. -1.
          3    1    1    2  501    0 -0.47673475636E+00 -0.25529507223E+02  0.83630992934E+02  0.87442129401E+02  0.00000000000E+00 0. -1.
         -3    1    1    2    0  503  0.47673475636E+00  0.25529507223E+02  0.38187583768E+02  0.45937724901E+02  0.00000000000E+00 0.  1.
<mgrwt>
<rscale>  2 0.25533958E+02</rscale>
<asrwt>0</asrwt>
<pdfrwt beam="1">  1       21 0.19630647E-01 0.25533958E+02</pdfrwt>
<pdfrwt beam="2">  1       21 0.88932914E-03 0.25533958E+02</pdfrwt>
<totfact> 0.77938472E+07</totfact>
</mgrwt>
</event>
<event>
 4    1  0.7165636E+004  0.2216920E+02  0.7546771E-02  0.1705342E+00
         21   -1    0    0  503  502  0.00000000000E+00  0.00000000000E+00  0.26572268444E+03  0.26572268444E+03  0.00000000000E+00 0. -1.
         21   -1    0    0  501  503 -0.00000000000E+00 -0.00000000000E+00 -0.18501515939E+01  0.18501515939E+01  0.00000000000E+00 0. -1.
          2    1    1    2  501    0  0.19350251932E+01 -0.22084594530E+02  0.12957141458E+03  0.13145427005E+03  0.00000000000E+00 0.  1.
         -2    1    1    2    0  502 -0.19350251932E+01  0.22084594530E+02  0.13430111826E+03  0.13611856598E+03  0.00000000000E+00 0. -1.
<mgrwt>
<rscale>  2 0.22169205E+02</rscale>
<asrwt>0</asrwt>
<pdfrwt beam="1">  1       21 0.40880383E-01 0.22169205E+02</pdfrwt>
<pdfrwt beam="2">  1       21 0.28463892E-03 0.22169205E+02</pdfrwt>
<totfact> 0.10694756E+08</totfact>
</mgrwt>
</event>
<event>
 4    1  0.7165636E+004  0.2993130E+02  0.7546771E-02  0.1598849E+00
         21   -1    0    0  501  502  0.00000000000E+00  0.00000000000E+00  0.25019222691E+02  0.25019222691E+02  0.00000000000E+00 0.  1.
         21   -1    0    0  502  503 -0.00000000000E+00 -0.00000000000E+00 -0.36461809026E+02  0.36461809026E+02  0.00000000000E+00 0.  1.
          1    1    1    2  501    0 -0.99217104674E+01  0.28239021777E+02 -0.16041846587E+01  0.29974257254E+02  0.00000000000E+00 0. -1.
         -1    1    1    2    0  503  0.99217104674E+01 -0.28239021777E+02 -0.98384016760E+01  0.31506774463E+02  0.00000000000E+00 0.  1.
<mgrwt>
<rscale>  2 0.29931299E+02</rscale>
<asrwt>0</asrwt>
<pdfrwt beam="1">  1       21 0.38491112E-02 0.29931299E+02</pdfrwt>
<pdfrwt beam="2">  1       21 0.56095091E-02 0.29931299E+02</pdfrwt>
<totfact> 0.69010939E+07</totfact>
</mgrwt>
</event>
<event>
 4    1  0.7165636E+004  0.2818962E+02  0.7546771E-02  0.1619008E+00
         21   -1    0    0  503  502  0.00000000000E+00  0.00000000000E+00  0.45774995448E+02  0.45774995448E+02  0.00000000000E+00 0.  1.
         21   -1    0    0  501  503 -0.00000000000E+00 -0.00000000000E+00 -0.17363046871E+02  0.17363046871E+02  0.00000000000E+00 0.  1.
          4    1    1    2  501    0  0.10932394532E+02  0.25983409752E+02  0.13789151657E+02  0.31381452101E+02  0.00000000000E+00 0. -1.
         -4    1    1    2    0  502 -0.10932394532E+02 -0.25983409752E+02  0.14622796920E+02  0.31756590218E+02  0.00000000000E+00 0.  1.
<mgrwt>
<rscale>  2 0.28189623E+02</rscale>
<asrwt>0</asrwt>
<pdfrwt beam="1">  1       21 0.70423069E-02 0.28189623E+02</pdfrwt>
<pdfrwt beam="2">  1       21 0.26712380E-02 0.28189623E+02</pdfrwt>
<totfact> 0.83541667E+07</totfact>
</mgrwt>
</event>
<event>
 4    1  0.7165636E+004  0.2142436E+02  0.7546771E-02  0.1718402E+00
         21   -1    0    0  501  502  0.00000000000E+00  0.00000000000E+00  0.41679145502E+02  0.41679145502E+02  0.00000000000E+00 0. -1.
         21   -1    0    0  502  503 -0.00000000000E+00 -0.00000000000E+00 -0.16402057571E+02  0.16402057571E+02  0.00000000000E+00 0. -1.
          4    1    1    2  501    0  0.18556073037E+02  0.10708653643E+02  0.29285002897E+02  0.36285182983E+02  0.00000000000E+00 0. -1.
         -4    1    1    2    0  503 -0.18556073037E+02 -0.10708653643E+02 -0.40079149660E+01  0.21796020090E+02  0.00000000000E+00 0.  1.
<mgrwt>
<rscale>  2 0.21424358E+02</rscale>
<asrwt>0</asrwt>
<pdfrwt beam="1">  1       21 0.64121762E-02 0.21424358E+02</pdfrwt>
<pdfrwt beam="2">  1       21 0.25233935E-02 0.21424358E+02</pdfrwt>
<totfact> 0.98606026E+07</totfact>
</mgrwt>
</event>
<event>
 4    1  0.7165636E+004  0.4363640E+02  0.7546771E-02  0.1483038E+00
         21   -1    0    0  503  502  0.00000000000E+00  0.00000000000E+00  0.49557010179E+03  0.49557010179E+03  0.00000000000E+00 0.  1.
         21   -1    0    0  501  503 -0.00000000000E+00 -0.00000000000E+00 -0.45415080144E+01  0.45415080144E+01  0.00000000000E+00 0.  1.
          2    1    1    2  501    0  0.43618266402E+02  0.12578110874E+01  0.14739912249E+03  0.15372259614E+03  0.00000000000E+00 0. -1.
         -2    1    1    2    0  502 -0.43618266402E+02 -0.12578110874E+01  0.34362947129E+03  0.34638901367E+03  0.00000000000E+00 0.  1.
<mgrwt>
<rscale>  2 0.43636398E+02</rscale>
<asrwt>0</asrwt>
<pdfrwt beam="1">  1       21 0.76241511E-01 0.43636398E+02</pdfrwt>
<pdfrwt beam="2">  1       21 0.69869393E-03 0.43636398E+02</pdfrwt>
<totfact> 0.91552064E+06</totfact>
</mgrwt>
</event>
<event>
 4    1  0.7165636E+004  0.2226553E+02  0.7546771E-02  0.1703700E+00
         21   -1    0    0  501  502  0.00000000000E+00  0.00000000000E+00  0.10700775079E+02  0.10700775079E+02  0.00000000000E+00 0.  1.
         21   -1    0    0  502  503 -0.00000000000E+00 -0.00000000000E+00 -0.56975452423E+02  0.56975452423E+02  0.00000000000E+00 0.  1.
          4    1    1    2  501    0 -0.19966250232E+02  0.98540760872E+01 -0.37764801134E+02  0.43839869622E+02  0.00000000000E+00 0. -1.
         -4    1    1    2    0  503  0.19966250232E+02 -0.98540760872E+01 -0.85098762100E+01  0.23836357879E+02  0.00000000000E+00 0.  1.
<mgrwt>
<rscale>  2 0.22265533E+02</rscale>
<asrwt>0</asrwt>
<pdfrwt beam="1">  1       21 0.16462731E-02 0.22265533E+02</pdfrwt>
<pdfrwt beam="2">  1       21 0.87654542E-02 0.22265533E+02</pdfrwt>
<totfact> 0.11555320E+08</totfact>
</mgrwt>
</event>
<event>
 4    1  0.7165636E+004  0.2250193E+02  0.7546771E-02  0.1699713E+00
         21   -1    0    0  503  502  0.00000000000E+00  0.00000000000E+00  0.17543644045E+02  0.17543644045E+02  0.00000000000E+00 0. -1.
         21   -1    0    0  501  503 -0.00000000000E+00 -0.00000000000E+00 -0.29089421465E+02  0.29089421465E+02  0.00000000000E+00 0. -1.
          3    1    1    2  501    0  0.55492693319E+01  0.21806940075E+02 -0.78364955722E+01  0.23827456608E+02  0.00000000000E+00 0.  1.
         -3    1    1    2    0  502 -0.55492693319E+01 -0.21806940075E+02 -0.37092818481E+01  0.22805608902E+02  0.00000000000E+00 0. -1.
<mgrwt>
<rscale>  2 0.22501934E+02</rscale>
<asrwt>0</asrwt>
<pdfrwt beam="1">  1       21 0.26990222E-02 0.22501934E+02</pdfrwt>
<pdfrwt beam="2">  1       21 0.44752956E-02 0.22501934E+02</pdfrwt>
<totfact> 0.16000531E+08</totfact>
</mgrwt>
</event>
<event>
 4    1  0.7165636E+004  0.3165016E+02  0.7546771E-02  0.1580533E+00
         21   -1    0    0  501  502  0.00000000000E+00  0.00000000000E+00  0.31364924940E+02  0.31364924940E+02  0.00000000000E+00 0.  1.
         21   -1    0    0  502  503 -0.00000000000E+00 -0.00000000000E+00 -0.32509155118E+02  0.32509155118E+02  0.00000000000E+00 0.  1.
          1    1    1    2  501    0 -0.17433387732E+02  0.26416086182E+02  0.36611276307E+01  0.31861206388E+02  0.00000000000E+00 0.  1.
         -1    1    1    2    0  503  0.17433387732E+02 -0.26416086182E+02 -0.48053578090E+01  0.32012873670E+02  0.00000000000E+00 0. -1.
<mgrwt>
<rscale>  2 0.31650160E+02</rscale>
<asrwt>0</asrwt>
<pdfrwt beam="1">  1       21 0.48253731E-02 0.31650160E+02</pdfrwt>
<pdfrwt beam="2">  1       21 0.50014085E-02 0.31650160E+02</pdfrwt>
<totfact> 0.58595495E+07</totfact>
</mgrwt>
</event>
<event>
 4    1  0.7165636E+004  0.2094790E+02  0.7546771E-02  0.1727109E+00
         21   -1    0    0  501  502  0.00000000000E+00  0.00000000000E+00  0.37415021888E+03  0.37415021888E+03  0.00000000000E+00 0. -1.
         21   -1    0    0  502  503 -0.00000000000E+00 -0.00000000000E+00 -0.11766486434E+01  0.11766486434E+01  0.00000000000E+00 0. -1.
          4    1    1    2  501    0  0.20089806813E+02 -0.59341675717E+01  0.17579627451E+03  0.17703995259E+03  0.00000000000E+00 0. -1.
         -4    1    1    2    0  503 -0.20089806813E+02  0.59341675717E+01  0.19717729573E+03  0.19828691494E+03  0.00000000000E+00 0.  1.
<mgrwt>
<rscale>  2 0.20947904E+02</rscale>
<asrwt>0</asrwt>
<pdfrwt beam="1">  1       21 0.57561477E-01 0.20947904E+02</pdfrwt>
<pdfrwt beam="2">  1       21 0.18102317E-03 0.20947904E+02</pdfrwt>
<totfact> 0.10463233E+08</totfact>
</mgrwt>
</event>
<event>
 4    1  0.7165636E+004  0.2208459E+02  0.7546771E-02  0.1706793E+00
         21   -1    0    0  501  502  0.00000000000E+00  0.00000000000E+00  0.59660319360E+02  0.59660319360E+02  0.00000000000E+00 0.  1.
         21   -1    0    0  502  503 -0.00000000000E+00 -0.00000000000E+00 -0.10144895815E+02  0.10144895815E+02  0.00000000000E+00 0.  1.
          3    1    1    2  501    0 -0.65723605310E+01 -0.21083957789E+02  0.40137291160E+02  0.45811912650E+02  0.00000000000E+00 0.  1.
         -3    1    1    2    0  503  0.65723605310E+01  0.21083957789E+02  0.93781323852E+01  0.23993302525E+02  0.00000000000E+00 0. -1.
<mgrwt>
<rscale>  2 0.22084592E+02</rscale>
<asrwt>0</asrwt>
<pdfrwt beam="1">  1       21 0.91785105E-02 0.22084592E+02</pdfrwt>
<pdfrwt beam="2">  1       21 0.15607532E-02 0.22084592E+02</pdfrwt>
<totfact> 0.11592591E+08</totfact>
</mgrwt>
</event>
<event>
 4    1  0.7165636E+004  0.2216215E+02  0.7546771E-02  0.1705463E+00
         21   -1    0    0  501  502  0.00000000000E+00  0.00000000000E+00  0.20611476568E+01  0.20611476568E+01  0.00000000000E+00 0. -1.
         21   -1    0    0  502  503 -0.00000000000E+00 -0.00000000000E+00 -0.27027971882E+03  0.27027971882E+03  0.00000000000E+00 0. -1.
          4    1    1    2  501    0 -0.71285666108E+01  0.20984388448E+02 -0.87265941951E+02  0.90036135218E+02  0.00000000000E+00 0. -1.
         -4    1    1    2    0  503  0.71285666108E+01 -0.20984388448E+02 -0.18095262921E+03  0.18230473126E+03  0.00000000000E+00 0.  1.
<mgrwt>
<rscale>  2 0.22162153E+02</rscale>
<asrwt>0</asrwt>
<pdfrwt beam="1">  1       21 0.31709983E-03 0.22162153E+02</pdfrwt>
<pdfrwt beam="2">  1       21 0.41581470E-01 0.22162153E+02</pdfrwt>
<totfact> 0.88496646E+07</totfact>
</mgrwt>
</event>
<event>
 4    1  0.7165636E+004  0.2344165E+02  0.7546771E-02  0.1684450E+00
         21   -1    0    0  501  502  0.00000000000E+00  0.00000000000E+00  0.14372639998E+03  0.14372639998E+03  0.00000000000E+00 0. -1.
         21   -1    0    0  502  503 -0.00000000000E+00 -0.00000000000E+00 -0.41086111290E+01  0.41086111290E+01  0.00000000000E+00 0. -1.
          1    1    1    2  501    0 -0.10009622656E+02  0.21197133249E+02  0.89287115791E+02  0.92313054602E+02  0.00000000000E+00 0. -1.
         -1    1    1    2    0  503  0.10009622656E+02 -0.21197133249E+02  0.50330673062E+02  0.55521956508E+02  0.00000000000E+00 0.  1.
<mgrwt>
<rscale>  2 0.23441651E+02</rscale>
<asrwt>0</asrwt>
<pdfrwt beam="1">  1       21 0.22111750E-01 0.23441651E+02</pdfrwt>
<pdfrwt beam="2">  1       21 0.63209413E-03 0.23441651E+02</pdfrwt>
<totfact> 0.10297975E+08</totfact>
</mgrwt>
</event>
<event>
 4    1  0.7165636E+004  0.2351970E+02  0.7546771E-02  0.1683222E+00
         21   -1    0    0  503  502  0.00000000000E+00  0.00000000000E+00  0.17003961169E+01  0.17003961169E+01  0.00000000000E+00 0. -1.
         21   -1    0    0  501  503 -0.00000000000E+00 -0.00000000000E+00 -0.56195955871E+03  0.56195955871E+03  0.00000000000E+00 0. -1.
          1    1    1    2  501    0 -0.16094774426E+02  0.17150355010E+02 -0.46301387019E+03  0.46361085021E+03  0.00000000000E+00 0. -1.
         -1    1    1    2    0  502  0.16094774426E+02 -0.17150355010E+02 -0.97245292403E+02  0.10004910462E+03  0.00000000000E+00 0.  1.
<mgrwt>
<rscale>  2 0.23519703E+02</rscale>
<asrwt>0</asrwt>
<pdfrwt beam="1">  1       21 0.26159914E-03 0.23519703E+02</pdfrwt>
<pdfrwt beam="2">  1       21 0.86455405E-01 0.23519703E+02</pdfrwt>
<totfact> 0.27423430E+07</totfact>
</mgrwt>
</event>
<event>
 4    1  0.7165636E+004  0.3052146E+02  0.7546771E-02  0.1592395E+00
         21   -1    0    0  501  502  0.00000000000E+00  0.00000000000E+00  0.14670506167E+02  0.14670506167E+02  0.00000000000E+00 0. -1.
         21   -1    0    0  502  503 -0.00000000000E+00 -0.00000000000E+00 -0.64050574177E+02  0.64050574177E+02  0.00000000000E+00 0. -1.
          2    1    1    2  501    0 -0.30480409356E+02 -0.15823769496E+01 -0.21036717083E+02  0.37068891769E+02  0.00000000000E+00 0.  1.
         -2    1    1    2    0  503  0.30480409356E+02  0.15823769496E+01 -0.28343350927E+02  0.41652188575E+02  0.00000000000E+00 0. -1.
<mgrwt>
<rscale>  2 0.30521456E+02</rscale>
<asrwt>0</asrwt>
<pdfrwt beam="1">  1       21 0.22570010E-02 0.30521456E+02</pdfrwt>
<pdfrwt beam="2">  1       21 0.98539344E-02 0.30521456E+02</pdfrwt>
<totfact> 0.63574801E+07</totfact>
</mgrwt>
</event>
<event>
 4    1  0.7165636E+004  0.2460992E+02  0.7546771E-02  0.1666669E+00
         21   -1    0    0  503  502  0.00000000000E+00  0.00000000000E+00  0.10960645466E+02  0.10960645466E+02  0.00000000000E+00 0. -1.
         21   -1    0    0  501  503 -0.00000000000E+00 -0.00000000000E+00 -0.55336711148E+02  0.55336711148E+02  0.00000000000E+00 0. -1.
          1    1    1    2  501    0 -0.15353858011E+02 -0.19232967084E+02 -0.23449313853E+02  0.33992915421E+02  0.00000000000E+00 0. -1.
         -1    1    1    2    0  502  0.15353858011E+02  0.19232967084E+02 -0.20926751829E+02  0.32304441193E+02  0.00000000000E+00 0.  1.
<mgrwt>
<rscale>  2 0.24609916E+02</rscale>
<asrwt>0</asrwt>
<pdfrwt beam="1">  1       21 0.16862531E-02 0.24609916E+02</pdfrwt>
<pdfrwt beam="2">  1       21 0.85133403E-02 0.24609916E+02</pdfrwt>
<totfact> 0.12030066E+08</totfact>
</mgrwt>
</event>
<event>
 4    1  0.7165636E+004  0.2059052E+02  0.7546771E-02  0.1733834E+00
         21   -1    0    0  503  502  0.00000000000E+00  0.00000000000E+00  0.46339586844E+01  0.46339586844E+01  0.00000000000E+00 0.  1.
         21   -1    0    0  501  503 -0.00000000000E+00 -0.00000000000E+00 -0.10521564890E+03  0.10521564890E+03  0.00000000000E+00 0.  1.
          2    1    1    2  501    0  0.87029792764E+01 -0.18660854110E+02 -0.30454303546E+02  0.36761854263E+02  0.00000000000E+00 0.  1.
         -2    1    1    2    0  502 -0.87029792764E+01  0.18660854110E+02 -0.70127386666E+02  0.73087753318E+02  0.00000000000E+00 0. -1.
<mgrwt>
<rscale>  2 0.20590515E+02</rscale>
<asrwt>0</asrwt>
<pdfrwt beam="1">  1       21 0.71291680E-03 0.20590515E+02</pdfrwt>
<pdfrwt beam="2">  1       21 0.16187021E-01 0.20590515E+02</pdfrwt>
<totfact> 0.14249172E+08</totfact>
</mgrwt>
</event>
<event>
 4    1  0.7165636E+004  0.2067235E+02  0.7546771E-02  0.1732279E+00
         21   -1    0    0  501  502  0.00000000000E+00  0.00000000000E+00  0.77480064797E+01  0.77480064797E+01  0.00000000000E+00 0. -1.
         21   -1    0    0  502  503 -0.00000000000E+00 -0.00000000000E+00 -0.58339828139E+02  0.58339828139E+02  0.00000000000E+00 0. -1.
          2    1    1    2  501    0  0.18643922147E+02 -0.89302963562E+01 -0.17576034569E+02  0.27134166971E+02  0.00000000000E+00 0.  1.
         -2    1    1    2    0  503 -0.18643922147E+02  0.89302963562E+01 -0.33015787091E+02  0.38953667648E+02  0.00000000000E+00 0. -1.
<mgrwt>
<rscale>  2 0.20672349E+02</rscale>
<asrwt>0</asrwt>
<pdfrwt beam="1">  1       21 0.11920010E-02 0.20672349E+02</pdfrwt>
<pdfrwt beam="2">  1       21 0.89753583E-02 0.20672349E+02</pdfrwt>
<totfact> 0.17714932E+08</totfact>
</mgrwt>
</event>
<event>
 4    1  0.7165636E+004  0.2043682E+02  0.7546771E-02  0.1736778E+00
         21   -1    0    0  501  502  0.00000000000E+00  0.00000000000E+00  0.53778963125E+01  0.53778963125E+01  0.00000000000E+00 0. -1.
         21   -1    0    0  502  503 -0.00000000000E+00 -0.00000000000E+00 -0.77878736093E+02  0.77878736093E+02  0.00000000000E+00 0. -1.
          4    1    1    2  501    0 -0.20426933997E+02 -0.63574413152E+00 -0.34059656158E+02  0.39720573771E+02  0.00000000000E+00 0.  1.
         -4    1    1    2    0  503  0.20426933997E+02  0.63574413152E+00 -0.38441183623E+02  0.43536058634E+02  0.00000000000E+00 0. -1.
<mgrwt>
<rscale>  2 0.20436825E+02</rscale>
<asrwt>0</asrwt>
<pdfrwt beam="1">  1       21 0.82736864E-03 0.20436825E+02</pdfrwt>
<pdfrwt beam="2">  1       21 0.11981344E-01 0.20436825E+02</pdfrwt>
<totfact> 0.18919132E+08</totfact>
</mgrwt>
</event>
<event>
 4    1  0.7165636E+004  0.2556483E+02  0.7546771E-02  0.1653019E+00
         21   -1    0    0  503  502  0.00000000000E+00  0.00000000000E+00  0.30736170501E+02  0.30736170501E+02  0.00000000000E+00 0.  1.
         21   -1    0    0  501  503 -0.00000000000E+00 -0.00000000000E+00 -0.26504443833E+02  0.26504443833E+02  0.00000000000E+00 0.  1.
          1    1    1    2  501    0  0.25465683307E+02 -0.22493435938E+01  0.14842597830E+02  0.29561178651E+02  0.00000000000E+00 0. -1.
         -1    1    1    2    0  502 -0.25465683307E+02  0.22493435938E+01 -0.10610871163E+02  0.27679435683E+02  0.00000000000E+00 0.  1.
<mgrwt>
<rscale>  2 0.25564831E+02</rscale>
<asrwt>0</asrwt>
<pdfrwt beam="1">  1       21 0.47286416E-02 0.25564831E+02</pdfrwt>
<pdfrwt beam="2">  1       21 0.40776068E-02 0.25564831E+02</pdfrwt>
<totfact> 0.79665763E+07</totfact>
</mgrwt>
</event>
<event>
 4    1  0.7165636E+004  0.6132860E+02  0.7546771E-02  0.1392339E+00
         21   -1    0    0  503  502  0.00000000000E+00  0.00000000000E+00  0.22780710799E+03  0.22780710799E+03  0.00000000000E+00 0. -1.
         21   -1    0    0  501  503 -0.00000000000E+00 -0.00000000000E+00 -0.17979390205E+02  0.17979390205E+02  0.00000000000E+00 0. -1.
          1    1    1    2  501    0  0.53572137365E+02 -0.29853371511E+02  0.69786724769E+02  0.92905245526E+02  0.00000000000E+00 0. -1.
         -1    1    1    2    0  502 -0.53572137365E+02  0.29853371511E+02  0.14004099302E+03  0.15288125267E+03  0.00000000000E+00 0.  1.
<mgrwt>
<rscale>  2 0.61328604E+02</rscale>
<asrwt>0</asrwt>
<pdfrwt beam="1">  1       21 0.35047245E-01 0.61328604E+02</pdfrwt>
<pdfrwt beam="2">  1       21 0.27660602E-02 0.61328604E+02</pdfrwt>
<totfact> 0.53335172E+06</totfact>
</mgrwt>
</event>
<event>
 4    1  0.7165636E+004  0.2203008E+02  0.7546771E-02  0.1707732E+00
         21   -1    0    0  503  502  0.00000000000E+00  0.00000000000E+00  0.38474210964E+01  0.38474210964E+01  0.00000000000E+00 0.  1.
         21   -1    0    0  501  503 -0.00000000000E+00 -0.00000000000E+00 -0.13506215770E+03  0.13506215770E+03  0.00000000000E+00 0.  1.
          1    1    1    2  501    0  0.16899335882E+02 -0.14132827207E+02 -0.83455914801E+02  0.86314622593E+02  0.00000000000E+00 0. -1.
         -1    1    1    2    0  502 -0.16899335882E+02  0.14132827207E+02 -0.47758821807E+02  0.52594956208E+02  0.00000000000E+00 0.  1.
<mgrwt>
<rscale>  2 0.22030078E+02</rscale>
<asrwt>0</asrwt>
<pdfrwt beam="1">  1       21 0.59191089E-03 0.22030078E+02</pdfrwt>
<pdfrwt beam="2">  1       21 0.20778795E-01 0.22030078E+02</pdfrwt>
<totfact> 0.12440875E+08</totfact>
</mgrwt>
</event>
<event>
 4    1  0.7165636E+004  0.2018978E+02  0.7546771E-02  0.1741580E+00
         21   -1    0    0  503  502  0.00000000000E+00  0.00000000000E+00  0.43284764411E+02  0.43284764411E+02  0.00000000000E+00 0. -1.
         21   -1    0    0  501  503 -0.00000000000E+00 -0.00000000000E+00 -0.11534656035E+02  0.11534656035E+02  0.00000000000E+00 0. -1.
          4    1    1    2  501    0  0.10265489843E+02  0.17385251209E+02  0.27618490719E+02  0.34211230187E+02  0.00000000000E+00 0.  1.
         -4    1    1    2    0  502 -0.10265489843E+02 -0.17385251209E+02  0.41316176574E+01  0.20608190260E+02  0.00000000000E+00 0. -1.
<mgrwt>
<rscale>  2 0.20189781E+02</rscale>
<asrwt>0</asrwt>
<pdfrwt beam="1">  1       21 0.66591944E-02 0.20189781E+02</pdfrwt>
<pdfrwt beam="2">  1       21 0.17745625E-02 0.20189781E+02</pdfrwt>
<totfact> 0.15627454E+08</totfact>
</mgrwt>
</event>
<event>
 4    1  0.7165636E+004  0.2807837E+02  0.7546771E-02  0.1620356E+00
         21   -1    0    0  503  502  0.00000000000E+00  0.00000000000E+00  0.77569375495E+01  0.77569375495E+01  0.00000000000E+00 0.  1.
         21   -1    0    0  501  503 -0.00000000000E+00 -0.00000000000E+00 -0.10794798939E+03  0.10794798939E+03  0.00000000000E+00 0.  1.
          3    1    1    2  501    0 -0.13111183660E+02 -0.24829252635E+02 -0.64083335826E+02  0.69964768662E+02  0.00000000000E+00 0. -1.
         -3    1    1    2    0  502  0.13111183660E+02  0.24829252635E+02 -0.36107716011E+02  0.45740158273E+02  0.00000000000E+00 0.  1.
<mgrwt>
<rscale>  2 0.28078371E+02</rscale>
<asrwt>0</asrwt>
<pdfrwt beam="1">  1       21 0.11933751E-02 0.28078371E+02</pdfrwt>
<pdfrwt beam="2">  1       21 0.16607382E-01 0.28078371E+02</pdfrwt>
<totfact> 0.68415348E+07</totfact>
</mgrwt>
</event>
<event>
 4    1  0.7165636E+004  0.2119802E+02  0.7546771E-02  0.1722503E+00
         21   -1    0    0  503  502  0.00000000000E+00  0.00000000000E+00  0.26770567447E+02  0.26770567447E+02  0.00000000000E+00 0. -1.
         21   -1    0    0  501  503 -0.00000000000E+00 -0.00000000000E+00 -0.16805122008E+02  0.16805122008E+02  0.00000000000E+00 0. -1.
          5    1    1    2  501    0 -0.17302031491E+02  0.12247282852E+02  0.57280230885E+01  0.21958289539E+02  0.00000000000E+00 0.  1.
         -5    1    1    2    0  502  0.17302031491E+02 -0.12247282852E+02  0.42374223501E+01  0.21617399916E+02  0.00000000000E+00 0. -1.
<mgrwt>
<rscale>  2 0.21198024E+02</rscale>
<asrwt>0</asrwt>
<pdfrwt beam="1">  1       21 0.41185489E-02 0.21198024E+02</pdfrwt>
<pdfrwt beam="2">  1       21 0.25854034E-02 0.21198024E+02</pdfrwt>
<totfact> 0.19133868E+08</totfact>
</mgrwt>
</event>
<event>
 4    1  0.7165636E+004  0.2078242E+02  0.7546771E-02  0.1730202E+00
         21   -1    0    0  503  502  0.00000000000E+00  0.00000000000E+00  0.19411598303E+02  0.19411598303E+02  0.00000000000E+00 0.  1.
         21   -1    0    0  501  503 -0.00000000000E+00 -0.00000000000E+00 -0.26380490666E+02  0.26380490666E+02  0.00000000000E+00 0.  1.
          3    1    1    2  501    0  0.20473867692E+02  0.35678897202E+01  0.55753212725E+01  0.21517279164E+02  0.00000000000E+00 0.  1.
         -3    1    1    2    0  502 -0.20473867692E+02 -0.35678897202E+01 -0.12544213636E+02  0.24274809805E+02  0.00000000000E+00 0. -1.
<mgrwt>
<rscale>  2 0.20782423E+02</rscale>
<asrwt>0</asrwt>
<pdfrwt beam="1">  1       21 0.29863997E-02 0.20782423E+02</pdfrwt>
<pdfrwt beam="2">  1       21 0.40585370E-02 0.20782423E+02</pdfrwt>
<totfact> 0.15567830E+08</totfact>
</mgrwt>
</event>
<event>
 4    1  0.7165636E+004  0.2137342E+02  0.7546771E-02  0.1719319E+00
         21   -1    0    0  503  502  0.00000000000E+00  0.00000000000E+00  0.11717494025E+03  0.11717494025E+03  0.00000000000E+00 0.  1.
         21   -1    0    0  501  503 -0.00000000000E+00 -0.00000000000E+00 -0.12209119650E+02  0.12209119650E+02  0.00000000000E+00 0.  1.
          4    1    1    2  501    0 -0.57834396343E+01 -0.20576075541E+02 -0.89008987517E+00  0.21391945182E+02  0.00000000000E+00 0.  1.
         -4    1    1    2    0  502  0.57834396343E+01  0.20576075541E+02  0.10585591048E+03  0.10799211472E+03  0.00000000000E+00 0. -1.
<mgrwt>
<rscale>  2 0.21373419E+02</rscale>
<asrwt>0</asrwt>
<pdfrwt beam="1">  1       21 0.18026913E-01 0.21373419E+02</pdfrwt>
<pdfrwt beam="2">  1       21 0.18783262E-02 0.21373419E+02</pdfrwt>
<totfact> 0.27885188E+07</totfact>
</mgrwt>
</event>
<event>
 4    1  0.7165636E+004  0.4343864E+02  0.7546771E-02  0.1484331E+00
         21   -1    0    0  501  502  0.00000000000E+00  0.00000000000E+00  0.62297690229E+03  0.62297690229E+03  0.00000000000E+00 0. -1.
         21   -1    0    0  502  503 -0.00000000000E+00 -0.00000000000E+00 -0.35502635110E+01  0.35502635110E+01  0.00000000000E+00 0. -1.
          5    1    1    2  501    0 -0.42657837682E+02  0.81990630762E+01  0.18966319146E+03  0.19457400121E+03  0.00000000000E+00 0. -1.
         -5    1    1    2    0  503  0.42657837682E+02 -0.81990630762E+01  0.42976344732E+03  0.43195316459E+03  0.00000000000E+00 0.  1.
<mgrwt>
<rscale>  2 0.43438644E+02</rscale>
<asrwt>0</asrwt>
<pdfrwt beam="1">  1       21 0.95842513E-01 0.43438644E+02</pdfrwt>
<pdfrwt beam="2">  1       21 0.54619488E-03 0.43438644E+02</pdfrwt>
<totfact> 0.80639135E+06</totfact>
</mgrwt>
</event>
<event>
 4    1  0.7165636E+004  0.2494550E+02  0.7546771E-02  0.1661786E+00
         21   -1    0    0  501  502  0.00000000000E+00  0.00000000000E+00  0.74833975285E+01  0.74833975285E+01  0.00000000000E+00 0.  1.
         21   -1    0    0  502  503 -0.00000000000E+00 -0.00000000000E+00 -0.83496279921E+02  0.83496279921E+02  0.00000000000E+00 0.  1.
          3    1    1    2  501    0  0.63326022888E+01  0.24128324933E+02 -0.35095881476E+02  0.43058086493E+02  0.00000000000E+00 0.  1.
         -3    1    1    2    0  503 -0.63326022888E+01 -0.24128324933E+02 -0.40917000917E+02  0.47921590957E+02  0.00000000000E+00 0. -1.
<mgrwt>
<rscale>  2 0.24945499E+02</rscale>
<asrwt>0</asrwt>
<pdfrwt beam="1">  1       21 0.11512920E-02 0.24945499E+02</pdfrwt>
<pdfrwt beam="2">  1       21 0.12845581E-01 0.24945499E+02</pdfrwt>
<totfact> 0.10877311E+08</totfact>
</mgrwt>
</event>
<event>
 4    1  0.7165636E+004  0.2189607E+02  0.7546771E-02  0.1710056E+00
         21   -1    0    0  503  502  0.00000000000E+00  0.00000000000E+00  0.35352282475E+02  0.35352282475E+02  0.00000000000E+00 0.  1.
         21   -1    0    0  501  503 -0.00000000000E+00 -0.00000000000E+00 -0.18963849754E+02  0.18963849754E+02  0.00000000000E+00 0.  1.
          3    1    1    2  501    0  0.21850114948E+02 -0.14178608482E+01 -0.63007757879E+01  0.22784591902E+02  0.00000000000E+00 0.  1.
         -3    1    1    2    0  502 -0.21850114948E+02  0.14178608482E+01  0.22689208509E+02  0.31531540327E+02  0.00000000000E+00 0. -1.
<mgrwt>
<rscale>  2 0.21896069E+02</rscale>
<asrwt>0</asrwt>
<pdfrwt beam="1">  1       21 0.54388127E-02 0.21896069E+02</pdfrwt>
<pdfrwt beam="2">  1       21 0.29175153E-02 0.21896069E+02</pdfrwt>
<totfact> 0.10318155E+08</totfact>
</mgrwt>
</event>
<event>
 4    1  0.7165636E+004  0.3163686E+02  0.7546771E-02  0.1580669E+00
         21   -1    0    0  501  502  0.00000000000E+00  0.00000000000E+00  0.14615641199E+03  0.14615641199E+03  0.00000000000E+00 0. -1.
         21   -1    0    0  502  503 -0.00000000000E+00 -0.00000000000E+00 -0.10450906401E+02  0.10450906401E+02  0.00000000000E+00 0. -1.
          5    1    1    2  501    0 -0.28959023305E+02 -0.12738370614E+02  0.11382826928E+03  0.11814298965E+03  0.00000000000E+00 0. -1.
         -5    1    1    2    0  503  0.28959023305E+02  0.12738370614E+02  0.21877236305E+02  0.38464328735E+02  0.00000000000E+00 0.  1.
<mgrwt>
<rscale>  2 0.31636863E+02</rscale>
<asrwt>0</asrwt>
<pdfrwt beam="1">  1       21 0.22485600E-01 0.31636863E+02</pdfrwt>
<pdfrwt beam="2">  1       21 0.16078319E-02 0.31636863E+02</pdfrwt>
<totfact> 0.26095977E+07</totfact>
</mgrwt>
</event>
<event>
 4    1  0.7165636E+004  0.2082436E+02  0.7546771E-02  0.1729415E+00
         21   -1    0    0  503  502  0.00000000000E+00  0.00000000000E+00  0.33815373658E+02  0.33815373658E+02  0.00000000000E+00 0.  1.
         21   -1    0    0  501  503 -0.00000000000E+00 -0.00000000000E+00 -0.16662217559E+02  0.16662217559E+02  0.00000000000E+00 0.  1.
          3    1    1    2  501    0  0.56561934964E+00 -0.20816680589E+02 -0.35365797842E+01  0.21122535657E+02  0.00000000000E+00 0. -1.
         -3    1    1    2    0  502 -0.56561934964E+00  0.20816680589E+02  0.20689735884E+02  0.29355055560E+02  0.00000000000E+00 0.  1.
<mgrwt>
<rscale>  2 0.20824364E+02</rscale>
<asrwt>0</asrwt>
<pdfrwt beam="1">  1       21 0.52023651E-02 0.20824364E+02</pdfrwt>
<pdfrwt beam="2">  1       21 0.25634181E-02 0.20824364E+02</pdfrwt>
<totfact> 0.13327738E+08</totfact>
</mgrwt>
</event>
<event>
 4    1  0.7165636E+004  0.2005330E+02  0.7546771E-02  0.1744270E+00
         21   -1    0    0  503  502  0.00000000000E+00  0.00000000000E+00  0.52253883900E+02  0.52253883900E+02  0.00000000000E+00 0.  1.
         21   -1    0    0  501  503 -0.00000000000E+00 -0.00000000000E+00 -0.77627947630E+01  0.77627947630E+01  0.00000000000E+00 0.  1.
          5    1    1    2  501    0 -0.18416628452E+02  0.79348965949E+01  0.19457538020E+02  0.27941556387E+02  0.00000000000E+00 0.  1.
         -5    1    1    2    0  502  0.18416628452E+02 -0.79348965949E+01  0.25033551117E+02  0.32075122276E+02  0.00000000000E+00 0. -1.
<mgrwt>
<rscale>  2 0.20053299E+02</rscale>
<asrwt>0</asrwt>
<pdfrwt beam="1">  1       21 0.80390588E-02 0.20053299E+02</pdfrwt>
<pdfrwt beam="2">  1       21 0.11942761E-02 0.20053299E+02</pdfrwt>
<totfact> 0.20929394E+08</totfact>
</mgrwt>
</event>
<event>
 4    1  0.7165636E+004  0.2105271E+02  0.7546771E-02  0.1725169E+00
         21   -1    0    0  501  502  0.00000000000E+00  0.00000000000E+00  0.14401313326E+01  0.14401313326E+01  0.00000000000E+00 0.  1.
         21   -1    0    0  502  503 -0.00000000000E+00 -0.00000000000E+00 -0.32084310031E+03  0.32084310031E+03  0.00000000000E+00 0.  1.
          2    1    1    2  501    0  0.10582434883E+02 -0.18199692943E+02 -0.12716321691E+03  0.12889414450E+03  0.00000000000E+00 0. -1.
         -2    1    1    2    0  503 -0.10582434883E+02  0.18199692943E+02 -0.19223975207E+03  0.19338908715E+03  0.00000000000E+00 0.  1.
<mgrwt>
<rscale>  2 0.21052714E+02</rscale>
<asrwt>0</asrwt>
<pdfrwt beam="1">  1       21 0.22155856E-03 0.21052714E+02</pdfrwt>
<pdfrwt beam="2">  1       21 0.49360501E-01 0.21052714E+02</pdfrwt>
<totfact> 0.10577783E+08</totfact>
</mgrwt>
</event>
<event>
 4    1  0.7165636E+004  0.2039684E+02  0.7546771E-02  0.1737550E+00
         21   -1    0    0  501  502  0.00000000000E+00  0.00000000000E+00  0.18399206828E+03  0.18399206828E+03  0.00000000000E+00 0.  1.
         21   -1    0    0  502  503 -0.00000000000E+00 -0.00000000000E+00 -0.22631735446E+01  0.22631735446E+01  0.00000000000E+00 0.  1.
          2    1    1    2  501    0 -0.14293308178E+02  0.14551030812E+02  0.93658498156E+02  0.95853771095E+02  0.00000000000E+00 0.  1.
         -2    1    1    2    0  503  0.14293308178E+02 -0.14551030812E+02  0.88070396579E+02  0.90401470729E+02  0.00000000000E+00 0. -1.
<mgrwt>
<rscale>  2 0.20396842E+02</rscale>
<asrwt>0</asrwt>
<pdfrwt beam="1">  1       21 0.28306460E-01 0.20396842E+02</pdfrwt>
<pdfrwt beam="2">  1       21 0.34818069E-03 0.20396842E+02</pdfrwt>
<totfact> 0.15325350E+08</totfact>
</mgrwt>
</event>
<event>
 4    1  0.7165636E+004  0.2242791E+02  0.7546771E-02  0.1700955E+00
         21   -1    0    0  503  502  0.00000000000E+00  0.00000000000E+00  0.81329334342E+01  0.81329334342E+01  0.00000000000E+00 0.  1.
         21   -1    0    0  501  503 -0.00000000000E+00 -0.00000000000E+00 -0.65887071615E+02  0.65887071615E+02  0.00000000000E+00 0.  1.
          4    1    1    2  501    0  0.13299024756E+02 -0.18059542571E+02 -0.38039772416E+02  0.44159205414E+02  0.00000000000E+00 0.  1.
         -4    1    1    2    0  502 -0.13299024756E+02  0.18059542571E+02 -0.19714365765E+02  0.29860799635E+02  0.00000000000E+00 0. -1.
<mgrwt>
<rscale>  2 0.22427910E+02</rscale>
<asrwt>0</asrwt>
<pdfrwt beam="1">  1       21 0.12512206E-02 0.22427910E+02</pdfrwt>
<pdfrwt beam="2">  1       21 0.10136472E-01 0.22427910E+02</pdfrwt>
<totfact> 0.13820912E+08</totfact>
</mgrwt>
</event>
<event>
 4    1  0.7165636E+004  0.2255713E+02  0.7546771E-02  0.1698791E+00
         21   -1    0    0  501  502  0.00000000000E+00  0.00000000000E+00  0.21190982852E+01  0.21190982852E+01  0.00000000000E+00 0. -1.
         21   -1    0    0  502  503 -0.00000000000E+00 -0.00000000000E+00 -0.28176976138E+03  0.28176976138E+03  0.00000000000E+00 0. -1.
          4    1    1    2  501    0 -0.79591225345E+01 -0.21106312311E+02 -0.85248107398E+02  0.88181992867E+02  0.00000000000E+00 0. -1.
         -4    1    1    2    0  503  0.79591225345E+01  0.21106312311E+02 -0.19440255570E+03  0.19570686680E+03  0.00000000000E+00 0.  1.
<mgrwt>
<rscale>  2 0.22557129E+02</rscale>
<asrwt>0</asrwt>
<pdfrwt beam="1">  1       21 0.32601527E-03 0.22557129E+02</pdfrwt>
<pdfrwt beam="2">  1       21 0.43349174E-01 0.22557129E+02</pdfrwt>
<totfact> 0.78895560E+07</totfact>
</mgrwt>
</event>
<event>
 4    1  0.7165636E+004  0.2037767E+02  0.7546771E-02  0.1737920E+00
         21   -1    0    0  501  502  0.00000000000E+00  0.00000000000E+00  0.47757706343E+01  0.47757706343E+01  0.00000000000E+00 0. -1.
         21   -1    0    0  502  503 -0.00000000000E+00 -0.00000000000E+00 -0.11614328760E+03  0.11614328760E+03  0.00000000000E+00 0. -1.
          2    1    1    2  501    0  0.12710933048E+02 -0.15927391807E+02 -0.85995776896E+02  0.88377164882E+02  0.00000000000E+00 0.  1.
         -2    1    1    2    0  503 -0.12710933048E+02  0.15927391807E+02 -0.25371740068E+02  0.32541893350E+02  0.00000000000E+00 0. -1.
<mgrwt>
<rscale>  2 0.20377675E+02</rscale>
<asrwt>0</asrwt>
<pdfrwt beam="1">  1       21 0.73473394E-03 0.20377675E+02</pdfrwt>
<pdfrwt beam="2">  1       21 0.17868198E-01 0.20377675E+02</pdfrwt>
<totfact> 0.11471149E+08</totfact>
</mgrwt>
</event>
<event>
 4    1  0.7165636E+004  0.2965466E+02  0.7546771E-02  0.1601938E+00
         21   -1    0    0  503  502  0.00000000000E+00  0.00000000000E+00  0.23177243023E+02  0.23177243023E+02  0.00000000000E+00 0. -1.
         21   -1    0    0  501  503 -0.00000000000E+00 -0.00000000000E+00 -0.44337947223E+02  0.44337947223E+02  0.00000000000E+00 0. -1.
          2    1    1    2  501    0 -0.28355849607E+02 -0.86801376526E+01 -0.23401424851E+02  0.37775993457E+02  0.00000000000E+00 0. -1.
         -2    1    1    2    0  502  0.28355849607E+02  0.86801376526E+01  0.22407206513E+01  0.29739196789E+02  0.00000000000E+00 0.  1.
<mgrwt>
<rscale>  2 0.29654662E+02</rscale>
<asrwt>0</asrwt>
<pdfrwt beam="1">  1       21 0.35657298E-02 0.29654662E+02</pdfrwt>
<pdfrwt beam="2">  1       21 0.68212225E-02 0.29654662E+02</pdfrwt>
<totfact> 0.56578186E+07</totfact>
</mgrwt>
</event>
<event>
 4    1  0.7165636E+004  0.2293988E+02  0.7546771E-02  0.1692486E+00
         21   -1    0    0  503  502  0.00000000000E+00  0.00000000000E+00  0.11762700068E+03  0.11762700068E+03  0.00000000000E+00 0. -1.
         21   -1    0    0  501  503 -0.00000000000E+00 -0.00000000000E+00 -0.48514049292E+01  0.48514049292E+01  0.00000000000E+00 0. -1.
          3    1    1    2  501    0  0.52604064714E+01 -0.22328596738E+02  0.73473083929E+02  0.76970982653E+02  0.00000000000E+00 0.  1.
         -3    1    1    2    0  502 -0.52604064714E+01  0.22328596738E+02  0.39302511818E+02  0.45507422952E+02  0.00000000000E+00 0. -1.
<mgrwt>
<rscale>  2 0.22939880E+02</rscale>
<asrwt>0</asrwt>
<pdfrwt beam="1">  1       21 0.18096459E-01 0.22939880E+02</pdfrwt>
<pdfrwt beam="2">  1       21 0.74637008E-03 0.22939880E+02</pdfrwt>
<totfact> 0.11342840E+08</totfact>
</mgrwt>
</event>
<event>
 4    1  0.7165636E+004  0.2154999E+02  0.7546771E-02  0.1716153E+00
         21   -1    0    0  501  502  0.00000000000E+00  0.00000000000E+00  0.17690751595E+03  0.17690751595E+03  0.00000000000E+00 0.  1.
         21   -1    0    0  502  503 -0.00000000000E+00 -0.00000000000E+00 -0.30523835939E+01  0.30523835939E+01  0.00000000000E+00 0.  1.
          3    1    1    2  501    0  0.52808424589E+01  0.20892937498E+02  0.53262618869E+02  0.57457016135E+02  0.00000000000E+00 0. -1.
         -3    1    1    2    0  503 -0.52808424589E+01 -0.20892937498E+02  0.12059251349E+03  0.12250288341E+03  0.00000000000E+00 0.  1.
<mgrwt>
<rscale>  2 0.21549992E+02</rscale>
<asrwt>0</asrwt>
<pdfrwt beam="1">  1       21 0.27216533E-01 0.21549992E+02</pdfrwt>
<pdfrwt beam="2">  1       21 0.46959762E-03 0.21549992E+02</pdfrwt>
<totfact> 0.10786160E+08</totfact>
</mgrwt>
</event>
<event>
 4    1  0.7165636E+004  0.5423453E+02  0.7546771E-02  0.1423754E+00
         21   -1    0    0  503  502  0.00000000000E+00  0.00000000000E+00  0.45593488189E+02  0.45593488189E+02  0.00000000000E+00 0. -1.
         21   -1    0    0  501  503 -0.00000000000E+00 -0.00000000000E+00 -0.64738287672E+02  0.64738287672E+02  0.00000000000E+00 0. -1.
          1    1    1    2  501    0 -0.16648761828E+02 -0.51615921555E+02 -0.63199808264E+01  0.54601527324E+02  0.00000000000E+00 0.  1.
         -1    1    1    2    0  502  0.16648761828E+02  0.51615921555E+02 -0.12824818657E+02  0.55730248537E+02  0.00000000000E+00 0. -1.
<mgrwt>
<rscale>  2 0.54234534E+02</rscale>
<asrwt>0</asrwt>
<pdfrwt beam="1">  1       21 0.70143828E-02 0.54234534E+02</pdfrwt>
<pdfrwt beam="2">  1       21 0.99597365E-02 0.54234534E+02</pdfrwt>
<totfact> 0.11095848E+07</totfact>
</mgrwt>
</event>
<event>
 4    1  0.7165636E+004  0.2055942E+02  0.7546771E-02  0.1734427E+00
         21   -1    0    0  503  502  0.00000000000E+00  0.00000000000E+00  0.13842310727E+01  0.13842310727E+01  0.00000000000E+00 0.  1.
         21   -1    0    0  501  503 -0.00000000000E+00 -0.00000000000E+00 -0.30684249326E+03  0.30684249326E+03  0.00000000000E+00 0.  1.
          4    1    1    2  501    0  0.39789044971E+01  0.20170725409E+02 -0.14201965098E+03  0.14350007355E+03  0.00000000000E+00 0.  1.
         -4    1    1    2    0  502 -0.39789044971E+01 -0.20170725409E+02 -0.16343861120E+03  0.16472665078E+03  0.00000000000E+00 0. -1.
<mgrwt>
<rscale>  2 0.20559422E+02</rscale>
<asrwt>0</asrwt>
<pdfrwt beam="1">  1       21 0.21295841E-03 0.20559422E+02</pdfrwt>
<pdfrwt beam="2">  1       21 0.47206586E-01 0.20559422E+02</pdfrwt>
<totfact> 0.12124491E+08</totfact>
</mgrwt>
</event>
<event>
 4    1  0.7165636E+004  0.2171737E+02  0.7546771E-02  0.1713186E+00
         21   -1    0    0  501  502  0.00000000000E+00  0.00000000000E+00  0.76333590574E+01  0.76333590574E+01  0.00000000000E+00 0. -1.
         21   -1    0    0  502  503 -0.00000000000E+00 -0.00000000000E+00 -0.63108322543E+02  0.63108322543E+02  0.00000000000E+00 0. -1.
          4    1    1    2  501    0  0.89991439957E+01 -0.19765112552E+02 -0.32855070061E+02  0.39384005581E+02  0.00000000000E+00 0.  1.
         -4    1    1    2    0  503 -0.89991439957E+01  0.19765112552E+02 -0.22619893425E+02  0.31357676020E+02  0.00000000000E+00 0. -1.
<mgrwt>
<rscale>  2 0.21717372E+02</rscale>
<asrwt>0</asrwt>
<pdfrwt beam="1">  1       21 0.11743629E-02 0.21717372E+02</pdfrwt>
<pdfrwt beam="2">  1       21 0.97089728E-02 0.21717372E+02</pdfrwt>
<totfact> 0.16170181E+08</totfact>
</mgrwt>
</event>
<event>
 4    1  0.7165636E+004  0.2715716E+02  0.7546771E-02  0.1631821E+00
         21   -1    0    0  503  502  0.00000000000E+00  0.00000000000E+00  0.18577675930E+02  0.18577675930E+02  0.00000000000E+00 0. -1.
         21   -1    0    0  501  503 -0.00000000000E+00 -0.00000000000E+00 -0.52127964267E+02  0.52127964267E+02  0.00000000000E+00 0. -1.
          4    1    1    2  501    0  0.24269261672E+02 -0.12186653331E+02 -0.34037875551E+02  0.43544098952E+02  0.00000000000E+00 0. -1.
         -4    1    1    2    0  502 -0.24269261672E+02  0.12186653331E+02  0.48758721449E+00  0.27161541245E+02  0.00000000000E+00 0.  1.
<mgrwt>
<rscale>  2 0.27157164E+02</rscale>
<asrwt>0</asrwt>
<pdfrwt beam="1">  1       21 0.28581041E-02 0.27157164E+02</pdfrwt>
<pdfrwt beam="2">  1       21 0.80196866E-02 0.27157164E+02</pdfrwt>
<totfact> 0.60193497E+07</totfact>
</mgrwt>
</event>
<event>
 4    1  0.7165636E+004  0.2002196E+02  0.7546771E-02  0.1744892E+00
         21   -1    0    0  501  502  0.00000000000E+00  0.00000000000E+00  0.11176532256E+01  0.11176532256E+01  0.00000000000E+00 0. -1.
         21   -1    0    0  502  503 -0.00000000000E+00 -0.00000000000E+00 -0.47137065838E+03  0.47137065838E+03  0.00000000000E+00 0. -1.
          1    1    1    2  501    0  0.19554970926E+02  0.42990589406E+01 -0.11961490448E+03  0.12127903434E+03  0.00000000000E+00 0.  1.
         -1    1    1    2    0  503 -0.19554970926E+02 -0.42990589406E+01 -0.35063810067E+03  0.35120927727E+03  0.00000000000E+00 0. -1.
<mgrwt>
<rscale>  2 0.20021958E+02</rscale>
<asrwt>0</asrwt>
<pdfrwt beam="1">  1       21 0.17194643E-03 0.20021958E+02</pdfrwt>
<pdfrwt beam="2">  1       21 0.72518656E-01 0.20021958E+02</pdfrwt>
<totfact> 0.69920142E+07</totfact>
</mgrwt>
</event>
<event>
 4    1  0.7165636E+004  0.2558360E+02  0.7546771E-02  0.1652758E+00
         21   -1    0    0  503  502  0.00000000000E+00  0.00000000000E+00  0.46759829538E+01  0.46759829538E+01  0.00000000000E+00 0. -1.
         21   -1    0    0  501  503 -0.00000000000E+00 -0.00000000000E+00 -0.14867986107E+03  0.14867986107E+03  0.00000000000E+00 0. -1.
          1    1    1    2  501    0  0.22890904472E+02  0.11424844627E+02 -0.53448437466E+02  0.59255852452E+02  0.00000000000E+00 0.  1.
         -1    1    1    2    0  502 -0.22890904472E+02 -0.11424844627E+02 -0.90555440649E+02  0.94099991570E+02  0.00000000000E+00 0. -1.
<mgrwt>
<rscale>  2 0.25583600E+02</rscale>
<asrwt>0</asrwt>
<pdfrwt beam="1">  1       21 0.71938199E-03 0.25583600E+02</pdfrwt>
<pdfrwt beam="2">  1       21 0.22873825E-01 0.25583600E+02</pdfrwt>
<totfact> 0.81832357E+07</totfact>
</mgrwt>
</event>
<event>
 4    1  0.7165636E+004  0.2426603E+02  0.7546771E-02  0.1671774E+00
         21   -1    0    0  501  502  0.00000000000E+00  0.00000000000E+00  0.88194152585E+01  0.88194152585E+01  0.00000000000E+00 0.  1.
         21   -1    0    0  502  503 -0.00000000000E+00 -0.00000000000E+00 -0.67639594268E+02  0.67639594268E+02  0.00000000000E+00 0.  1.
          5    1    1    2  501    0 -0.22077983054E+02  0.10069893627E+02 -0.33753872224E+02  0.41571191750E+02  0.00000000000E+00 0. -1.
         -5    1    1    2    0  503  0.22077983054E+02 -0.10069893627E+02 -0.25066306786E+02  0.34887817777E+02  0.00000000000E+00 0.  1.
<mgrwt>
<rscale>  2 0.24266028E+02</rscale>
<asrwt>0</asrwt>
<pdfrwt beam="1">  1       21 0.13568331E-02 0.24266028E+02</pdfrwt>
<pdfrwt beam="2">  1       21 0.10406092E-01 0.24266028E+02</pdfrwt>
<totfact> 0.11977551E+08</totfact>
</mgrwt>
</event>
<event>
 4    1  0.7165636E+004  0.3284797E+02  0.7546771E-02  0.1568586E+00
         21   -1    0    0  501  502  0.00000000000E+00  0.00000000000E+00  0.20596863648E+02  0.20596863648E+02  0.00000000000E+00 0. -1.
         21   -1    0    0  502  503 -0.00000000000E+00 -0.00000000000E+00 -0.58377096555E+02  0.58377096555E+02  0.00000000000E+00 0. -1.
          1    1    1    2  501    0 -0.51855936245E+01  0.32436075183E+02 -0.62403584370E+01  0.33435481572E+02  0.00000000000E+00 0. -1.
         -1    1    1    2    0  503  0.51855936245E+01 -0.32436075183E+02 -0.31539874470E+02  0.45538478632E+02  0.00000000000E+00 0.  1.
<mgrwt>
<rscale>  2 0.32847973E+02</rscale>
<asrwt>0</asrwt>
<pdfrwt beam="1">  1       21 0.31687483E-02 0.32847973E+02</pdfrwt>
<pdfrwt beam="2">  1       21 0.89810917E-02 0.32847973E+02</pdfrwt>
<totfact> 0.44283894E+07</totfact>
</mgrwt>
</event>
<event>
 4    1  0.7165636E+004  0.2299707E+02  0.7546771E-02  0.1691558E+00
         21   -1    0    0  503  502  0.00000000000E+00  0.00000000000E+00  0.16537979908E+02  0.16537979908E+02  0.00000000000E+00 0.  1.
         21   -1    0    0  501  503 -0.00000000000E+00 -0.00000000000E+00 -0.32234075405E+02  0.32234075405E+02  0.00000000000E+00 0.  1.
          5    1    1    2  501    0 -0.20883947361E+02 -0.96294278357E+01 -0.56780060006E+01  0.23687652690E+02  0.00000000000E+00 0. -1.
         -5    1    1    2    0  502  0.20883947361E+02  0.96294278357E+01 -0.10018089496E+02  0.25084402624E+02  0.00000000000E+00 0.  1.
<mgrwt>
<rscale>  2 0.22997068E+02</rscale>
<asrwt>0</asrwt>
<pdfrwt beam="1">  1       21 0.25443046E-02 0.22997068E+02</pdfrwt>
<pdfrwt beam="2">  1       21 0.49590885E-02 0.22997068E+02</pdfrwt>
<totfact> 0.14996352E+08</totfact>
</mgrwt>
</event>
<event>
 4    1  0.7165636E+004  0.2143887E+02  0.7546771E-02  0.1718141E+00
         21   -1    0    0  503  502  0.00000000000E+00  0.00000000000E+00  0.19737797302E+02  0.19737797302E+02  0.00000000000E+00 0. -1.
         21   -1    0    0  501  503 -0.00000000000E+00 -0.00000000000E+00 -0.23321452886E+02  0.23321452886E+02  0.00000000000E+00 0. -1.
          4    1    1    2  501    0 -0.19477390443E+02 -0.89586039835E+01 -0.26246484553E+01  0.21598937551E+02  0.00000000000E+00 0. -1.
         -4    1    1    2    0  502  0.19477390443E+02  0.89586039835E+01 -0.95900712927E+00  0.21460312637E+02  0.00000000000E+00 0.  1.
<mgrwt>
<rscale>  2 0.21438874E+02</rscale>
<asrwt>0</asrwt>
<pdfrwt beam="1">  1       21 0.30365842E-02 0.21438874E+02</pdfrwt>
<pdfrwt beam="2">  1       21 0.35879158E-02 0.21438874E+02</pdfrwt>
<totfact> 0.18583805E+08</totfact>
</mgrwt>
</event>
<event>
 4    1  0.7165636E+004  0.2161473E+02  0.7546771E-02  0.1715002E+00
         21   -1    0    0  501  502  0.00000000000E+00  0.00000000000E+00  0.71815448902E+02  0.71815448902E+02  0.00000000000E+00 0.  1.
         21   -1    0    0  502  503 -0.00000000000E+00 -0.00000000000E+00 -0.66396695683E+01  0.66396695683E+01  0.00000000000E+00 0.  1.
          2    1    1    2  501    0 -0.18645717170E+01  0.21534153498E+02  0.27011890331E+02  0.34595355379E+02  0.00000000000E+00 0.  1.
         -2    1    1    2    0  503  0.18645717170E+01 -0.21534153498E+02  0.38163889003E+02  0.43859763091E+02  0.00000000000E+00 0. -1.
<mgrwt>
<rscale>  2 0.21614726E+02</rscale>
<asrwt>0</asrwt>
<pdfrwt beam="1">  1       21 0.11048530E-01 0.21614726E+02</pdfrwt>
<pdfrwt beam="2">  1       21 0.10214877E-02 0.21614726E+02</pdfrwt>
<totfact> 0.16079358E+08</totfact>
</mgrwt>
</event>
<event>
 4    1  0.7165636E+004  0.3391142E+02  0.7546771E-02  0.1558485E+00
         21   -1    0    0  503  502  0.00000000000E+00  0.00000000000E+00  0.39103761577E+02  0.39103761577E+02  0.00000000000E+00 0.  1.
         21   -1    0    0  501  503 -0.00000000000E+00 -0.00000000000E+00 -0.30552830038E+02  0.30552830038E+02  0.00000000000E+00 0.  1.
          4    1    1    2  501    0 -0.16495907681E+02  0.29628856212E+02 -0.24647953976E+01  0.34000872150E+02  0.00000000000E+00 0.  1.
         -4    1    1    2    0  502  0.16495907681E+02 -0.29628856212E+02  0.11015726937E+02  0.35655719465E+02  0.00000000000E+00 0. -1.
<mgrwt>
<rscale>  2 0.33911415E+02</rscale>
<asrwt>0</asrwt>
<pdfrwt beam="1">  1       21 0.60159633E-02 0.33911415E+02</pdfrwt>
<pdfrwt beam="2">  1       21 0.47004354E-02 0.33911415E+02</pdfrwt>
<totfact> 0.45988913E+07</totfact>
</mgrwt>
</event>
<event>
 4    1  0.7165636E+004  0.2025453E+02  0.7546771E-02  0.1740313E+00
         21   -1    0    0  501  502  0.00000000000E+00  0.00000000000E+00  0.16549311925E+01  0.16549311925E+01  0.00000000000E+00 0.  1.
         21   -1    0    0  502  503 -0.00000000000E+00 -0.00000000000E+00 -0.26226003333E+03  0.26226003333E+03  0.00000000000E+00 0.  1.
          2    1    1    2  501    0  0.17338132416E+02  0.10470671650E+02 -0.99417235668E+02  0.10145951187E+03  0.00000000000E+00 0.  1.
         -2    1    1    2    0  503 -0.17338132416E+02 -0.10470671650E+02 -0.16118786647E+03  0.16245545266E+03  0.00000000000E+00 0. -1.
<mgrwt>
<rscale>  2 0.20254525E+02</rscale>
<asrwt>0</asrwt>
<pdfrwt beam="1">  1       21 0.25460478E-03 0.20254525E+02</pdfrwt>
<pdfrwt beam="2">  1       21 0.40347700E-01 0.20254525E+02</pdfrwt>
<totfact> 0.12567445E+08</totfact>
</mgrwt>
</event>
<event>
 4    1  0.7165636E+004  0.2057024E+02  0.7546771E-02  0.1734220E+00
         21   -1    0    0  501  502  0.00000000000E+00  0.00000000000E+00  0.48955325717E+02  0.48955325717E+02  0.00000000000E+00 0. -1.
         21   -1    0    0  502  503 -0.00000000000E+00 -0.00000000000E+00 -0.86927254330E+01  0.86927254330E+01  0.00000000000E+00 0. -1.
          3    1    1    2  501    0  0.18946723432E+02 -0.80097816060E+01  0.22305047240E+02  0.30342215848E+02  0.00000000000E+00 0. -1.
         -3    1    1    2    0  503 -0.18946723432E+02  0.80097816060E+01  0.17957553044E+02  0.27305835302E+02  0.00000000000E+00 0.  1.
<mgrwt>
<rscale>  2 0.20570244E+02</rscale>
<asrwt>0</asrwt>
<pdfrwt beam="1">  1       21 0.75315885E-02 0.20570244E+02</pdfrwt>
<pdfrwt beam="2">  1       21 0.13373424E-02 0.20570244E+02</pdfrwt>
<totfact> 0.19784152E+08</totfact>
</mgrwt>
</event>
<event>
 4    1  0.7165636E+004  0.2985778E+02  0.7546771E-02  0.1599666E+00
         21   -1    0    0  503  502  0.00000000000E+00  0.00000000000E+00  0.29170413630E+02  0.29170413630E+02  0.00000000000E+00 0.  1.
         21   -1    0    0  501  503 -0.00000000000E+00 -0.00000000000E+00 -0.55828235634E+02  0.55828235634E+02  0.00000000000E+00 0.  1.
          4    1    1    2  501    0 -0.58514948707E+00  0.29852049171E+02 -0.41920015239E+02  0.51466250274E+02  0.00000000000E+00 0.  1.
         -4    1    1    2    0  502  0.58514948707E+00 -0.29852049171E+02  0.15262193235E+02  0.33532398990E+02  0.00000000000E+00 0. -1.
<mgrwt>
<rscale>  2 0.29857784E+02</rscale>
<asrwt>0</asrwt>
<pdfrwt beam="1">  1       21 0.44877560E-02 0.29857784E+02</pdfrwt>
<pdfrwt beam="2">  1       21 0.85889593E-02 0.29857784E+02</pdfrwt>
<totfact> 0.26901952E+07</totfact>
</mgrwt>
</event>
<event>
 4    1  0.7165636E+004  0.2327214E+02  0.7546771E-02  0.1687136E+00
         21   -1    0    0  501  502  0.00000000000E+00  0.00000000000E+00  0.50180604235E+02  0.50180604235E+02  0.00000000000E+00 0. -1.
         21   -1    0    0  502  503 -0.00000000000E+00 -0.00000000000E+00 -0.14032035770E+02  0.14032035770E+02  0.00000000000E+00 0. -1.
          3    1    1    2  501    0  0.11342738044E+02  0.20320793832E+02  0.26484993927E+01  0.23422359346E+02  0.00000000000E+00 0. -1.
         -3    1    1    2    0  503 -0.11342738044E+02 -0.20320793832E+02  0.33500069073E+02  0.40790280658E+02  0.00000000000E+00 0.  1.
<mgrwt>
<rscale>  2 0.23272137E+02</rscale>
<asrwt>0</asrwt>
<pdfrwt beam="1">  1       21 0.77200929E-02 0.23272137E+02</pdfrwt>
<pdfrwt beam="2">  1       21 0.21587748E-02 0.23272137E+02</pdfrwt>
<totfact> 0.95113977E+07</totfact>
</mgrwt>
</event>
<event>
 4    1  0.7165636E+004  0.3346397E+02  0.7546771E-02  0.1562680E+00
         21   -1    0    0  501  502  0.00000000000E+00  0.00000000000E+00  0.57007373170E+02  0.57007373170E+02  0.00000000000E+00 0. -1.
         21   -1    0    0  502  503 -0.00000000000E+00 -0.00000000000E+00 -0.28799498166E+02  0.28799498166E+02  0.00000000000E+00 0. -1.
          2    1    1    2  501    0 -0.24342812449E+02  0.22962244791E+02 -0.10086688441E+02  0.34951087071E+02  0.00000000000E+00 0.  1.
         -2    1    1    2    0  503  0.24342812449E+02 -0.22962244791E+02  0.38294563445E+02  0.50855784265E+02  0.00000000000E+00 0. -1.
<mgrwt>
<rscale>  2 0.33463969E+02</rscale>
<asrwt>0</asrwt>
<pdfrwt beam="1">  1       21 0.87703651E-02 0.33463969E+02</pdfrwt>
<pdfrwt beam="2">  1       21 0.44306920E-02 0.33463969E+02</pdfrwt>
<totfact> 0.27110559E+07</totfact>
</mgrwt>
</event>
<event>
 4    1  0.7165636E+004  0.2311260E+02  0.7546771E-02  0.1689691E+00
         21   -1    0    0  501  502  0.00000000000E+00  0.00000000000E+00  0.11271604048E+03  0.11271604048E+03  0.00000000000E+00 0.  1.
         21   -1    0    0  502  503 -0.00000000000E+00 -0.00000000000E+00 -0.57915044275E+01  0.57915044275E+01  0.00000000000E+00 0.  1.
          2    1    1    2  501    0 -0.16431596690E+02  0.16254079814E+02  0.78718887662E+02  0.82041792734E+02  0.00000000000E+00 0. -1.
         -2    1    1    2    0  503  0.16431596690E+02 -0.16254079814E+02  0.28205648390E+02  0.36465752172E+02  0.00000000000E+00 0.  1.
<mgrwt>
<rscale>  2 0.23112604E+02</rscale>
<asrwt>0</asrwt>
<pdfrwt beam="1">  1       21 0.17340928E-01 0.23112604E+02</pdfrwt>
<pdfrwt beam="2">  1       21 0.89100077E-03 0.23112604E+02</pdfrwt>
<totfact> 0.93908308E+07</totfact>
</mgrwt>
</event>
<event>
 4    1  0.7165636E+004  0.2832116E+02  0.7546771E-02  0.1617424E+00
         21   -1    0    0  501  502  0.00000000000E+00  0.00000000000E+00  0.21977323068E+03  0.21977323068E+03  0.00000000000E+00 0.  1.
         21   -1    0    0  502  503 -0.00000000000E+00 -0.00000000000E+00 -0.38176744314E+01  0.38176744314E+01  0.00000000000E+00 0.  1.
          1    1    1    2  501    0 -0.34641549895E+01 -0.28108498267E+02  0.84521776085E+02  0.89140443555E+02  0.00000000000E+00 0.  1.
         -1    1    1    2    0  503  0.34641549895E+01  0.28108498267E+02  0.13143378017E+03  0.13445046156E+03  0.00000000000E+00 0. -1.
<mgrwt>
<rscale>  2 0.28321159E+02</rscale>
<asrwt>0</asrwt>
<pdfrwt beam="1">  1       21 0.33811256E-01 0.28321159E+02</pdfrwt>
<pdfrwt beam="2">  1       21 0.58733470E-03 0.28321159E+02</pdfrwt>
<totfact> 0.55776649E+07</totfact>
</mgrwt>
</event>
<event>
 4    1  0.7165636E+004  0.2106004E+02  0.7546771E-02  0.1725034E+00
         21   -1    0    0  501  502  0.00000000000E+00  0.00000000000E+00  0.45197438521E+02  0.45197438521E+02  0.00000000000E+00 0. -1.
         21   -1    0    0  502  503 -0.00000000000E+00 -0.00000000000E+00 -0.12140047451E+02  0.12140047451E+02  0.00000000000E+00 0. -1.
          1    1    1    2  501    0 -0.18696843236E+02 -0.96929470107E+01  0.29080191614E+02  0.35905190615E+02  0.00000000000E+00 0. -1.
         -1    1    1    2    0  503  0.18696843236E+02  0.96929470107E+01  0.39771994554E+01  0.21432295357E+02  0.00000000000E+00 0.  1.
<mgrwt>
<rscale>  2 0.21060037E+02</rscale>
<asrwt>0</asrwt>
<pdfrwt beam="1">  1       21 0.69534520E-02 0.21060037E+02</pdfrwt>
<pdfrwt beam="2">  1       21 0.18676996E-02 0.21060037E+02</pdfrwt>
<totfact> 0.13661370E+08</totfact>
</mgrwt>
</event>
<event>
 4    1  0.7165636E+004  0.2464748E+02  0.7546771E-02  0.1666117E+00
         21   -1    0    0  503  502  0.00000000000E+00  0.00000000000E+00  0.26414810760E+02  0.26414810760E+02  0.00000000000E+00 0. -1.
         21   -1    0    0  501  503 -0.00000000000E+00 -0.00000000000E+00 -0.32234927786E+02  0.32234927786E+02  0.00000000000E+00 0. -1.
          5    1    1    2  501    0  0.23124401378E+02  0.85299780488E+01 -0.18607433482E+02  0.30882601014E+02  0.00000000000E+00 0.  1.
         -5    1    1    2    0  502 -0.23124401378E+02 -0.85299780488E+01  0.12787316456E+02  0.27767137532E+02  0.00000000000E+00 0. -1.
<mgrwt>
<rscale>  2 0.24647484E+02</rscale>
<asrwt>0</asrwt>
<pdfrwt beam="1">  1       21 0.40638171E-02 0.24647484E+02</pdfrwt>
<pdfrwt beam="2">  1       21 0.49592196E-02 0.24647484E+02</pdfrwt>
<totfact> 0.73546216E+07</totfact>
</mgrwt>
</event>
<event>
 4    1  0.7165636E+004  0.2197053E+02  0.7546771E-02  0.1708762E+00
         21   -1    0    0  503  502  0.00000000000E+00  0.00000000000E+00  0.70171912729E+02  0.70171912729E+02  0.00000000000E+00 0. -1.
         21   -1    0    0  501  503 -0.00000000000E+00 -0.00000000000E+00 -0.69081916581E+01  0.69081916581E+01  0.00000000000E+00 0. -1.
          4    1    1    2  501    0 -0.18870746461E+02 -0.11251636259E+02  0.29121554290E+02  0.36479711002E+02  0.00000000000E+00 0.  1.
         -4    1    1    2    0  502  0.18870746461E+02  0.11251636259E+02  0.34142166781E+02  0.40600393385E+02  0.00000000000E+00 0. -1.
<mgrwt>
<rscale>  2 0.21970535E+02</rscale>
<asrwt>0</asrwt>
<pdfrwt beam="1">  1       21 0.10795678E-01 0.21970535E+02</pdfrwt>
<pdfrwt beam="2">  1       21 0.10627988E-02 0.21970535E+02</pdfrwt>
<totfact> 0.15822542E+08</totfact>
</mgrwt>
</event>
<event>
 4    1  0.7165636E+004  0.2158789E+02  0.7546771E-02  0.1715478E+00
         21   -1    0    0  503  502  0.00000000000E+00  0.00000000000E+00  0.71635706903E+02  0.71635706903E+02  0.00000000000E+00 0.  1.
         21   -1    0    0  501  503 -0.00000000000E+00 -0.00000000000E+00 -0.65149890148E+01  0.65149890148E+01  0.00000000000E+00 0.  1.
          2    1    1    2  501    0  0.17825444651E+02  0.12177452715E+02  0.34039801691E+02  0.40308124873E+02  0.00000000000E+00 0.  1.
         -2    1    1    2    0  502 -0.17825444651E+02 -0.12177452715E+02  0.31080916197E+02  0.37842571045E+02  0.00000000000E+00 0. -1.
<mgrwt>
<rscale>  2 0.21587886E+02</rscale>
<asrwt>0</asrwt>
<pdfrwt beam="1">  1       21 0.11020877E-01 0.21587886E+02</pdfrwt>
<pdfrwt beam="2">  1       21 0.10023061E-02 0.21587886E+02</pdfrwt>
<totfact> 0.16605524E+08</totfact>
</mgrwt>
</event>
<event>
 4    1  0.7165636E+004  0.2002023E+02  0.7546771E-02  0.1744926E+00
         21   -1    0    0  501  502  0.00000000000E+00  0.00000000000E+00  0.79078289643E+01  0.79078289643E+01  0.00000000000E+00 0.  1.
         21   -1    0    0  502  503 -0.00000000000E+00 -0.00000000000E+00 -0.55831751933E+02  0.55831751933E+02  0.00000000000E+00 0.  1.
          4    1    1    2  501    0 -0.85098669351E+01 -0.18121578751E+02 -0.33638033956E+02  0.39144945779E+02  0.00000000000E+00 0. -1.
         -4    1    1    2    0  503  0.85098669351E+01  0.18121578751E+02 -0.14285889013E+02  0.24594635118E+02  0.00000000000E+00 0.  1.
<mgrwt>
<rscale>  2 0.20020226E+02</rscale>
<asrwt>0</asrwt>
<pdfrwt beam="1">  1       21 0.12165891E-02 0.20020226E+02</pdfrwt>
<pdfrwt beam="2">  1       21 0.85895002E-02 0.20020226E+02</pdfrwt>
<totfact> 0.18267332E+08</totfact>
</mgrwt>
</event>
<event>
 4    1  0.7165636E+004  0.2021273E+02  0.7546771E-02  0.1741130E+00
         21   -1    0    0  503  502  0.00000000000E+00  0.00000000000E+00  0.89758002911E+02  0.89758002911E+02  0.00000000000E+00 0.  1.
         21   -1    0    0  501  503 -0.00000000000E+00 -0.00000000000E+00 -0.50805938506E+01  0.50805938506E+01  0.00000000000E+00 0.  1.
          2    1    1    2  501    0 -0.20212687932E+02 -0.41168357850E-01  0.57637902547E+02  0.61079311213E+02  0.00000000000E+00 0. -1.
         -2    1    1    2    0  502  0.20212687932E+02  0.41168357850E-01  0.27039506513E+02  0.33759285548E+02  0.00000000000E+00 0.  1.
<mgrwt>
<rscale>  2 0.20212730E+02</rscale>
<asrwt>0</asrwt>
<pdfrwt beam="1">  1       21 0.13808922E-01 0.20212730E+02</pdfrwt>
<pdfrwt beam="2">  1       21 0.78162989E-03 0.20212730E+02</pdfrwt>
<totfact> 0.16177282E+08</totfact>
</mgrwt>
</event>
<event>
 4    1  0.7165636E+004  0.2247445E+02  0.7546771E-02  0.1700174E+00
         21   -1    0    0  503  502  0.00000000000E+00  0.00000000000E+00  0.28757785249E+02  0.28757785249E+02  0.00000000000E+00 0.  1.
         21   -1    0    0  501  503 -0.00000000000E+00 -0.00000000000E+00 -0.18085578085E+02  0.18085578085E+02  0.00000000000E+00 0.  1.
          2    1    1    2  501    0  0.77199494950E+01 -0.21106947007E+02  0.13584707820E+01  0.22515467462E+02  0.00000000000E+00 0. -1.
         -2    1    1    2    0  502 -0.77199494950E+01  0.21106947007E+02  0.93137363821E+01  0.24327895872E+02  0.00000000000E+00 0.  1.
<mgrwt>
<rscale>  2 0.22474448E+02</rscale>
<asrwt>0</asrwt>
<pdfrwt beam="1">  1       21 0.44242747E-02 0.22474448E+02</pdfrwt>
<pdfrwt beam="2">  1       21 0.27823966E-02 0.22474448E+02</pdfrwt>
<totfact> 0.15536905E+08</totfact>
</mgrwt>
</event>
<event>
 4    1  0.7165636E+004  0.2059430E+02  0.7546771E-02  0.1733762E+00
         21   -1    0    0  501  502  0.00000000000E+00  0.00000000000E+00  0.88815073616E+02  0.88815073616E+02  0.00000000000E+00 0. -1.
         21   -1    0    0  502  503 -0.00000000000E+00 -0.00000000000E+00 -0.48095844242E+01  0.48095844242E+01  0.00000000000E+00 0. -1.
          5    1    1    2  501    0 -0.20485260387E+02 -0.21164176442E+01  0.38054617034E+02  0.43269839315E+02  0.00000000000E+00 0. -1.
         -5    1    1    2    0  503  0.20485260387E+02  0.21164176442E+01  0.45950872157E+02  0.50354818724E+02  0.00000000000E+00 0.  1.
<mgrwt>
<rscale>  2 0.20594298E+02</rscale>
<asrwt>0</asrwt>
<pdfrwt beam="1">  1       21 0.13663856E-01 0.20594298E+02</pdfrwt>
<pdfrwt beam="2">  1       21 0.73993613E-03 0.20594298E+02</pdfrwt>
<totfact> 0.17967220E+08</totfact>
</mgrwt>
</event>
<event>
 4    1  0.7165636E+004  0.2752981E+02  0.7546771E-02  0.1627117E+00
         21   -1    0    0  501  502  0.00000000000E+00  0.00000000000E+00  0.19108139013E+01  0.19108139013E+01  0.00000000000E+00 0.  1.
         21   -1    0    0  502  503 -0.00000000000E+00 -0.00000000000E+00 -0.39828355248E+03  0.39828355248E+03  0.00000000000E+00 0.  1.
          4    1    1    2  501    0  0.27410032631E+02 -0.25652582397E+01 -0.21107054421E+03  0.21285832159E+03  0.00000000000E+00 0.  1.
         -4    1    1    2    0  503 -0.27410032631E+02  0.25652582397E+01 -0.18530219437E+03  0.18733604479E+03  0.00000000000E+00 0. -1.
<mgrwt>
<rscale>  2 0.27529810E+02</rscale>
<asrwt>0</asrwt>
<pdfrwt beam="1">  1       21 0.29397131E-03 0.27529810E+02</pdfrwt>
<pdfrwt beam="2">  1       21 0.61274406E-01 0.27529810E+02</pdfrwt>
<totfact> 0.48763904E+07</totfact>
</mgrwt>
</event>
<event>
 4    1  0.7165636E+004  0.3394271E+02  0.7546771E-02  0.1558195E+00
         21   -1    0    0  503  502  0.00000000000E+00  0.00000000000E+00  0.23542496128E+02  0.23542496128E+02  0.00000000000E+00 0.  1.
         21   -1    0    0  501  503 -0.00000000000E+00 -0.00000000000E+00 -0.49733035457E+02  0.49733035457E+02  0.00000000000E+00 0.  1.
          3    1    1    2  501    0  0.33535989713E+02 -0.52387659028E+01 -0.84610314656E+01  0.34981371152E+02  0.00000000000E+00 0. -1.
         -3    1    1    2    0  502 -0.33535989713E+02  0.52387659028E+01 -0.17729507863E+02  0.38294160433E+02  0.00000000000E+00 0.  1.
<mgrwt>
<rscale>  2 0.33942706E+02</rscale>
<asrwt>0</asrwt>
<pdfrwt beam="1">  1       21 0.36219226E-02 0.33942706E+02</pdfrwt>
<pdfrwt beam="2">  1       21 0.76512361E-02 0.33942706E+02</pdfrwt>
<totfact> 0.47052531E+07</totfact>
</mgrwt>
</event>
<event>
 4    1  0.7165636E+004  0.2406460E+02  0.7546771E-02  0.1674813E+00
         21   -1    0    0  503  502  0.00000000000E+00  0.00000000000E+00  0.42993879521E+02  0.42993879521E+02  0.00000000000E+00 0. -1.
         21   -1    0    0  501  503 -0.00000000000E+00 -0.00000000000E+00 -0.15132634856E+02  0.15132634856E+02  0.00000000000E+00 0. -1.
          3    1    1    2  501    0  0.20167312734E+02 -0.13129518422E+02  0.23565688452E+02  0.33681544340E+02  0.00000000000E+00 0.  1.
         -3    1    1    2    0  502 -0.20167312734E+02  0.13129518422E+02  0.42955562123E+01  0.24444970037E+02  0.00000000000E+00 0. -1.
<mgrwt>
<rscale>  2 0.24064596E+02</rscale>
<asrwt>0</asrwt>
<pdfrwt beam="1">  1       21 0.66144430E-02 0.24064596E+02</pdfrwt>
<pdfrwt beam="2">  1       21 0.23280977E-02 0.24064596E+02</pdfrwt>
<totfact> 0.10985231E+08</totfact>
</mgrwt>
</event>
<event>
 4    1  0.7165636E+004  0.2014981E+02  0.7546771E-02  0.1742365E+00
         21   -1    0    0  503  502  0.00000000000E+00  0.00000000000E+00  0.80932662205E+01  0.80932662205E+01  0.00000000000E+00 0. -1.
         21   -1    0    0  501  503 -0.00000000000E+00 -0.00000000000E+00 -0.12425022223E+03  0.12425022223E+03  0.00000000000E+00 0. -1.
          1    1    1    2  501    0  0.16224014333E+02  0.11949733938E+02 -0.69828237032E+01  0.21325445110E+02  0.00000000000E+00 0.  1.
         -1    1    1    2    0  502 -0.16224014333E+02 -0.11949733938E+02 -0.10917413231E+03  0.11101804334E+03  0.00000000000E+00 0. -1.
<mgrwt>
<rscale>  2 0.20149808E+02</rscale>
<asrwt>0</asrwt>
<pdfrwt beam="1">  1       21 0.12451179E-02 0.20149808E+02</pdfrwt>
<pdfrwt beam="2">  1       21 0.19115419E-01 0.20149808E+02</pdfrwt>
<totfact> 0.46309049E+07</totfact>
</mgrwt>
</event>
<event>
 4    1  0.7165636E+004  0.2096183E+02  0.7546771E-02  0.1726851E+00
         21   -1    0    0  503  502  0.00000000000E+00  0.00000000000E+00  0.32998842658E+02  0.32998842658E+02  0.00000000000E+00 0.  1.
         21   -1    0    0  501  503 -0.00000000000E+00 -0.00000000000E+00 -0.13322705933E+02  0.13322705933E+02  0.00000000000E+00 0.  1.
          4    1    1    2  501    0 -0.16743723518E+02 -0.12611353647E+02  0.93021819680E+01  0.22933144299E+02  0.00000000000E+00 0.  1.
         -4    1    1    2    0  502  0.16743723518E+02  0.12611353647E+02  0.10373954757E+02  0.23388404293E+02  0.00000000000E+00 0. -1.
<mgrwt>
<rscale>  2 0.20961835E+02</rscale>
<asrwt>0</asrwt>
<pdfrwt beam="1">  1       21 0.50767450E-02 0.20961835E+02</pdfrwt>
<pdfrwt beam="2">  1       21 0.20496471E-02 0.20961835E+02</pdfrwt>
<totfact> 0.19575855E+08</totfact>
</mgrwt>
</event>
<event>
 4    1  0.7165636E+004  0.2136083E+02  0.7546771E-02  0.1719546E+00
         21   -1    0    0  503  502  0.00000000000E+00  0.00000000000E+00  0.13605728366E+02  0.13605728366E+02  0.00000000000E+00 0.  1.
         21   -1    0    0  501  503 -0.00000000000E+00 -0.00000000000E+00 -0.33754754438E+02  0.33754754438E+02  0.00000000000E+00 0.  1.
          4    1    1    2  501    0  0.20790127260E+02  0.49046771079E+01 -0.11979703824E+02  0.24490785058E+02  0.00000000000E+00 0. -1.
         -4    1    1    2    0  502 -0.20790127260E+02 -0.49046771079E+01 -0.81693222473E+01  0.22869697746E+02  0.00000000000E+00 0.  1.
<mgrwt>
<rscale>  2 0.21360834E+02</rscale>
<asrwt>0</asrwt>
<pdfrwt beam="1">  1       21 0.20931890E-02 0.21360834E+02</pdfrwt>
<pdfrwt beam="2">  1       21 0.51930391E-02 0.21360834E+02</pdfrwt>
<totfact> 0.18395872E+08</totfact>
</mgrwt>
</event>
<event>
 4    1  0.7165636E+004  0.2984371E+02  0.7546771E-02  0.1599823E+00
         21   -1    0    0  503  502  0.00000000000E+00  0.00000000000E+00  0.13780536502E+02  0.13780536502E+02  0.00000000000E+00 0.  1.
         21   -1    0    0  501  503 -0.00000000000E+00 -0.00000000000E+00 -0.69664242745E+02  0.69664242745E+02  0.00000000000E+00 0.  1.
          1    1    1    2  501    0  0.26171184303E+02 -0.14342806841E+02 -0.16726909319E+02  0.34211642628E+02  0.00000000000E+00 0. -1.
         -1    1    1    2    0  502 -0.26171184303E+02  0.14342806841E+02 -0.39156796925E+02  0.49233136619E+02  0.00000000000E+00 0.  1.
<mgrwt>
<rscale>  2 0.29843709E+02</rscale>
<asrwt>0</asrwt>
<pdfrwt beam="1">  1       21 0.21200825E-02 0.29843709E+02</pdfrwt>
<pdfrwt beam="2">  1       21 0.10717576E-01 0.29843709E+02</pdfrwt>
<totfact> 0.60567760E+07</totfact>
</mgrwt>
</event>
<event>
 4    1  0.7165636E+004  0.3438173E+02  0.7546771E-02  0.1554160E+00
         21   -1    0    0  501  502  0.00000000000E+00  0.00000000000E+00  0.62689846987E+02  0.62689846987E+02  0.00000000000E+00 0.  1.
         21   -1    0    0  502  503 -0.00000000000E+00 -0.00000000000E+00 -0.19239343546E+02  0.19239343546E+02  0.00000000000E+00 0.  1.
          1    1    1    2  501    0  0.28286646073E+02  0.19544025255E+02  0.15945688164E+02  0.37899449076E+02  0.00000000000E+00 0. -1.
         -1    1    1    2    0  503 -0.28286646073E+02 -0.19544025255E+02  0.27504815278E+02  0.44029741456E+02  0.00000000000E+00 0.  1.
<mgrwt>
<rscale>  2 0.34381729E+02</rscale>
<asrwt>0</asrwt>
<pdfrwt beam="1">  1       21 0.96445917E-02 0.34381729E+02</pdfrwt>
<pdfrwt beam="2">  1       21 0.29598990E-02 0.34381729E+02</pdfrwt>
<totfact> 0.44198749E+07</totfact>
</mgrwt>
</event>
<event>
 4    1  0.7165636E+004  0.2261743E+02  0.7546771E-02  0.1697788E+00
         21   -1    0    0  501  502  0.00000000000E+00  0.00000000000E+00  0.83751487648E+00  0.83751487648E+00  0.00000000000E+00 0.  1.
         21   -1    0    0  502  503 -0.00000000000E+00 -0.00000000000E+00 -0.61296442280E+03  0.61296442280E+03  0.00000000000E+00 0.  1.
          3    1    1    2  501    0 -0.12669820016E+02 -0.18735630570E+02 -0.28779689989E+03  0.28868426313E+03  0.00000000000E+00 0.  1.
         -3    1    1    2    0  503  0.12669820016E+02  0.18735630570E+02 -0.32433000804E+03  0.32511767455E+03  0.00000000000E+00 0. -1.
<mgrwt>
<rscale>  2 0.22617431E+02</rscale>
<asrwt>0</asrwt>
<pdfrwt beam="1">  1       21 0.12884785E-03 0.22617431E+02</pdfrwt>
<pdfrwt beam="2">  1       21 0.94302651E-01 0.22617431E+02</pdfrwt>
<totfact> 0.62649891E+07</totfact>
</mgrwt>
</event>
<event>
 4    1  0.7165636E+004  0.2590196E+02  0.7546771E-02  0.1648375E+00
         21   -1    0    0  501  502  0.00000000000E+00  0.00000000000E+00  0.13193041469E+04  0.13193041469E+04  0.00000000000E+00 0.  1.
         21   -1    0    0  502  503 -0.00000000000E+00 -0.00000000000E+00 -0.56126124831E+00  0.56126124831E+00  0.00000000000E+00 0.  1.
          5    1    1    2  501    0  0.25900786458E+02 -0.24619910640E+00  0.45710044336E+03  0.45783373257E+03  0.00000000000E+00 0. -1.
         -5    1    1    2    0  503 -0.25900786458E+02  0.24619910640E+00  0.86164244230E+03  0.86203167559E+03  0.00000000000E+00 0.  1.
<mgrwt>
<rscale>  2 0.25901957E+02</rscale>
<asrwt>0</asrwt>
<pdfrwt beam="1">  1       21 0.20296739E+00 0.25901957E+02</pdfrwt>
<pdfrwt beam="2">  1       21 0.86348940E-04 0.25901957E+02</pdfrwt>
<totfact> 0.18722768E+07</totfact>
</mgrwt>
</event>
<event>
 4    1  0.7165636E+004  0.2486632E+02  0.7546771E-02  0.1662929E+00
         21   -1    0    0  501  502  0.00000000000E+00  0.00000000000E+00  0.21597465846E+03  0.21597465846E+03  0.00000000000E+00 0.  1.
         21   -1    0    0  502  503 -0.00000000000E+00 -0.00000000000E+00 -0.28655323340E+01  0.28655323340E+01  0.00000000000E+00 0.  1.
          5    1    1    2  501    0  0.13422107686E+02 -0.20932769075E+02  0.10981225154E+03  0.11259247037E+03  0.00000000000E+00 0. -1.
         -5    1    1    2    0  503 -0.13422107686E+02  0.20932769075E+02  0.10329687458E+03  0.10624772042E+03  0.00000000000E+00 0.  1.
<mgrwt>
<rscale>  2 0.24866319E+02</rscale>
<asrwt>0</asrwt>
<pdfrwt beam="1">  1       21 0.33226858E-01 0.24866319E+02</pdfrwt>
<pdfrwt beam="2">  1       21 0.44085130E-03 0.24866319E+02</pdfrwt>
<totfact> 0.85516425E+07</totfact>
</mgrwt>
</event>
<event>
 4    1  0.7165636E+004  0.2157753E+02  0.7546771E-02  0.1715662E+00
         21   -1    0    0  503  502  0.00000000000E+00  0.00000000000E+00  0.13147472458E+04  0.13147472458E+04  0.00000000000E+00 0.  1.
         21   -1    0    0  501  503 -0.00000000000E+00 -0.00000000000E+00 -0.45645887113E+00  0.45645887113E+00  0.00000000000E+00 0.  1.
          1    1    1    2  501    0 -0.20463908707E+02  0.68423838534E+01  0.34578455929E+03  0.34645714197E+03  0.00000000000E+00 0.  1.
         -1    1    1    2    0  502  0.20463908707E+02 -0.68423838534E+01  0.96850622766E+03  0.96874656273E+03  0.00000000000E+00 0. -1.
<mgrwt>
<rscale>  2 0.21577529E+02</rscale>
<asrwt>0</asrwt>
<pdfrwt beam="1">  1       21 0.20226578E+00 0.21577529E+02</pdfrwt>
<pdfrwt beam="2">  1       21 0.70225494E-04 0.21577529E+02</pdfrwt>
<totfact> 0.24700147E+07</totfact>
</mgrwt>
</event>
<event>
 4    1  0.7165636E+004  0.2013171E+02  0.7546771E-02  0.1742722E+00
         21   -1    0    0  503  502  0.00000000000E+00  0.00000000000E+00  0.22047303772E+02  0.22047303772E+02  0.00000000000E+00 0.  1.
         21   -1    0    0  501  503 -0.00000000000E+00 -0.00000000000E+00 -0.18777189169E+02  0.18777189169E+02  0.00000000000E+00 0.  1.
          3    1    1    2  501    0 -0.17909540918E+02  0.91942374269E+01 -0.13241525335E+01  0.20175208492E+02  0.00000000000E+00 0. -1.
         -3    1    1    2    0  502  0.17909540918E+02 -0.91942374269E+01  0.45942671360E+01  0.20649284449E+02  0.00000000000E+00 0.  1.
<mgrwt>
<rscale>  2 0.20131708E+02</rscale>
<asrwt>0</asrwt>
<pdfrwt beam="1">  1       21 0.33918929E-02 0.20131708E+02</pdfrwt>
<pdfrwt beam="2">  1       21 0.28887983E-02 0.20131708E+02</pdfrwt>
<totfact> 0.21475757E+08</totfact>
</mgrwt>
</event>
<event>
 4    1  0.7165636E+004  0.2236257E+02  0.7546771E-02  0.1702056E+00
         21   -1    0    0  501  502  0.00000000000E+00  0.00000000000E+00  0.42712101677E+03  0.42712101677E+03  0.00000000000E+00 0.  1.
         21   -1    0    0  502  503 -0.00000000000E+00 -0.00000000000E+00 -0.11708381207E+01  0.11708381207E+01  0.00000000000E+00 0.  1.
          1    1    1    2  501    0 -0.10453505106E+02  0.19768879838E+02  0.21366493245E+03  0.21483199887E+03  0.00000000000E+00 0.  1.
         -1    1    1    2    0  503  0.10453505106E+02 -0.19768879838E+02  0.21228524620E+03  0.21345985602E+03  0.00000000000E+00 0. -1.
<mgrwt>
<rscale>  2 0.22362566E+02</rscale>
<asrwt>0</asrwt>
<pdfrwt beam="1">  1       21 0.65710801E-01 0.22362566E+02</pdfrwt>
<pdfrwt beam="2">  1       21 0.18012928E-03 0.22362566E+02</pdfrwt>
<totfact> 0.82219686E+07</totfact>
</mgrwt>
</event>
<event>
 4    1  0.7165636E+004  0.2040194E+02  0.7546771E-02  0.1737451E+00
         21   -1    0    0  501  502  0.00000000000E+00  0.00000000000E+00  0.23802522003E+03  0.23802522003E+03  0.00000000000E+00 0.  1.
         21   -1    0    0  502  503 -0.00000000000E+00 -0.00000000000E+00 -0.29015651958E+01  0.29015651958E+01  0.00000000000E+00 0.  1.
          4    1    1    2  501    0 -0.70684218715E+01 -0.19138349597E+02  0.41629838383E+02  0.46360354365E+02  0.00000000000E+00 0. -1.
         -4    1    1    2    0  503  0.70684218715E+01  0.19138349597E+02  0.19349381645E+03  0.19456643086E+03  0.00000000000E+00 0.  1.
<mgrwt>
<rscale>  2 0.20401937E+02</rscale>
<asrwt>0</asrwt>
<pdfrwt beam="1">  1       21 0.36619249E-01 0.20401937E+02</pdfrwt>
<pdfrwt beam="2">  1       21 0.44639483E-03 0.20401937E+02</pdfrwt>
<totfact> 0.66653733E+07</totfact>
</mgrwt>
</event>
<event>
 4    1  0.7165636E+004  0.2701358E+02  0.7546771E-02  0.1633658E+00
         21   -1    0    0  503  502  0.00000000000E+00  0.00000000000E+00  0.10980012793E+02  0.10980012793E+02  0.00000000000E+00 0.  1.
         21   -1    0    0  501  503 -0.00000000000E+00 -0.00000000000E+00 -0.71110427088E+02  0.71110427088E+02  0.00000000000E+00 0.  1.
          4    1    1    2  501    0 -0.20431206386E+02 -0.17671994091E+02 -0.40561457995E+02  0.48733617188E+02  0.00000000000E+00 0. -1.
         -4    1    1    2    0  502  0.20431206386E+02  0.17671994091E+02 -0.19568956299E+02  0.33356822693E+02  0.00000000000E+00 0.  1.
<mgrwt>
<rscale>  2 0.27013581E+02</rscale>
<asrwt>0</asrwt>
<pdfrwt beam="1">  1       21 0.16892328E-02 0.27013581E+02</pdfrwt>
<pdfrwt beam="2">  1       21 0.10940065E-01 0.27013581E+02</pdfrwt>
<totfact> 0.81105906E+07</totfact>
</mgrwt>
</event>
<event>
 4    1  0.7165636E+004  0.2075266E+02  0.7546771E-02  0.1730762E+00
         21   -1    0    0  501  502  0.00000000000E+00  0.00000000000E+00  0.20572569883E+01  0.20572569883E+01  0.00000000000E+00 0.  1.
         21   -1    0    0  502  503 -0.00000000000E+00 -0.00000000000E+00 -0.28210370054E+03  0.28210370054E+03  0.00000000000E+00 0.  1.
          2    1    1    2  501    0  0.79165812266E+01 -0.19183347855E+02 -0.67866403056E+02  0.70968456070E+02  0.00000000000E+00 0.  1.
         -2    1    1    2    0  503 -0.79165812266E+01  0.19183347855E+02 -0.21218004050E+03  0.21319250146E+03  0.00000000000E+00 0. -1.
<mgrwt>
<rscale>  2 0.20752665E+02</rscale>
<asrwt>0</asrwt>
<pdfrwt beam="1">  1       21 0.31650123E-03 0.20752665E+02</pdfrwt>
<pdfrwt beam="2">  1       21 0.43400548E-01 0.20752665E+02</pdfrwt>
<totfact> 0.80425133E+07</totfact>
</mgrwt>
</event>
<event>
 4    1  0.7165636E+004  0.2790962E+02  0.7546771E-02  0.1622415E+00
         21   -1    0    0  503  502  0.00000000000E+00  0.00000000000E+00  0.57478680330E+02  0.57478680330E+02  0.00000000000E+00 0. -1.
         21   -1    0    0  501  503 -0.00000000000E+00 -0.00000000000E+00 -0.18359027925E+02  0.18359027925E+02  0.00000000000E+00 0. -1.
          5    1    1    2  501    0  0.23022134049E+02 -0.15777459583E+02  0.38962964455E+02  0.47927648452E+02  0.00000000000E+00 0.  1.
         -5    1    1    2    0  502 -0.23022134049E+02  0.15777459583E+02  0.15668795036E+00  0.27910059802E+02  0.00000000000E+00 0. -1.
<mgrwt>
<rscale>  2 0.27909620E+02</rscale>
<asrwt>0</asrwt>
<pdfrwt beam="1">  1       21 0.88428738E-02 0.27909620E+02</pdfrwt>
<pdfrwt beam="2">  1       21 0.28244659E-02 0.27909620E+02</pdfrwt>
<totfact> 0.52539179E+07</totfact>
</mgrwt>
</event>
<event>
 4    1  0.7165636E+004  0.2970925E+02  0.7546771E-02  0.1601325E+00
         21   -1    0    0  503  502  0.00000000000E+00  0.00000000000E+00  0.49570058459E+01  0.49570058459E+01  0.00000000000E+00 0. -1.
         21   -1    0    0  501  503 -0.00000000000E+00 -0.00000000000E+00 -0.18270209692E+03  0.18270209692E+03  0.00000000000E+00 0. -1.
          1    1    1    2  501    0  0.24684948725E+02 -0.16531569097E+02 -0.10383049511E+03  0.10799727397E+03  0.00000000000E+00 0. -1.
         -1    1    1    2    0  502 -0.24684948725E+02  0.16531569097E+02 -0.73914595960E+02  0.79661828791E+02  0.00000000000E+00 0.  1.
<mgrwt>
<rscale>  2 0.29709249E+02</rscale>
<asrwt>0</asrwt>
<pdfrwt beam="1">  1       21 0.76261654E-03 0.29709249E+02</pdfrwt>
<pdfrwt beam="2">  1       21 0.28108005E-01 0.29709249E+02</pdfrwt>
<totfact> 0.53582665E+07</totfact>
</mgrwt>
</event>
<event>
 4    1  0.7165636E+004  0.2059977E+02  0.7546771E-02  0.1733657E+00
         21   -1    0    0  501  502  0.00000000000E+00  0.00000000000E+00  0.25180950082E+02  0.25180950082E+02  0.00000000000E+00 0. -1.
         21   -1    0    0  502  503 -0.00000000000E+00 -0.00000000000E+00 -0.17549238621E+02  0.17549238621E+02  0.00000000000E+00 0. -1.
          5    1    1    2  501    0  0.19059944668E+02 -0.78146789534E+01  0.80742903022E+01  0.22125660708E+02  0.00000000000E+00 0.  1.
         -5    1    1    2    0  503 -0.19059944668E+02  0.78146789534E+01 -0.44257884105E+00  0.20604527996E+02  0.00000000000E+00 0. -1.
<mgrwt>
<rscale>  2 0.20599774E+02</rscale>
<asrwt>0</asrwt>
<pdfrwt beam="1">  1       21 0.38739923E-02 0.20599774E+02</pdfrwt>
<pdfrwt beam="2">  1       21 0.26998829E-02 0.20599774E+02</pdfrwt>
<totfact> 0.19520754E+08</totfact>
</mgrwt>
</event>
<event>
 4    1  0.7165636E+004  0.6594797E+02  0.7546771E-02  0.1374441E+00
         21   -1    0    0  501  502  0.00000000000E+00  0.00000000000E+00  0.13604049143E+03  0.13604049143E+03  0.00000000000E+00 0. -1.
         21   -1    0    0  502  503 -0.00000000000E+00 -0.00000000000E+00 -0.32107857831E+02  0.32107857831E+02  0.00000000000E+00 0. -1.
          3    1    1    2  501    0  0.65093351804E+02  0.10582533039E+02  0.46445572490E+02  0.80661798012E+02  0.00000000000E+00 0.  1.
         -3    1    1    2    0  503 -0.65093351804E+02 -0.10582533039E+02  0.57487061106E+02  0.87486551247E+02  0.00000000000E+00 0. -1.
<mgrwt>
<rscale>  2 0.65947968E+02</rscale>
<asrwt>0</asrwt>
<pdfrwt beam="1">  1       21 0.20929306E-01 0.65947968E+02</pdfrwt>
<pdfrwt beam="2">  1       21 0.49396705E-02 0.65947968E+02</pdfrwt>
<totfact> 0.54793521E+06</totfact>
</mgrwt>
</event>
<event>
 4    1  0.7165636E+004  0.2014850E+02  0.7546771E-02  0.1742391E+00
         21   -1    0    0  501  502  0.00000000000E+00  0.00000000000E+00  0.31578800981E+01  0.31578800981E+01  0.00000000000E+00 0.  1.
         21   -1    0    0  502  503 -0.00000000000E+00 -0.00000000000E+00 -0.12970626090E+03  0.12970626090E+03  0.00000000000E+00 0.  1.
          2    1    1    2  501    0  0.30742463814E+00 -0.20146154014E+02 -0.57016139810E+02  0.60471499322E+02  0.00000000000E+00 0.  1.
         -2    1    1    2    0  503 -0.30742463814E+00  0.20146154014E+02 -0.69532240996E+02  0.72392641680E+02  0.00000000000E+00 0. -1.
<mgrwt>
<rscale>  2 0.20148499E+02</rscale>
<asrwt>0</asrwt>
<pdfrwt beam="1">  1       21 0.48582767E-03 0.20148499E+02</pdfrwt>
<pdfrwt beam="2">  1       21 0.19954811E-01 0.20148499E+02</pdfrwt>
<totfact> 0.17388975E+08</totfact>
</mgrwt>
</event>
<event>
 4    1  0.7165636E+004  0.2494489E+02  0.7546771E-02  0.1661795E+00
         21   -1    0    0  501  502  0.00000000000E+00  0.00000000000E+00  0.38377257694E+02  0.38377257694E+02  0.00000000000E+00 0. -1.
         21   -1    0    0  502  503 -0.00000000000E+00 -0.00000000000E+00 -0.17230428034E+02  0.17230428034E+02  0.00000000000E+00 0. -1.
          3    1    1    2  501    0  0.24579563834E+02 -0.42535361008E+01  0.38203253279E+01  0.25235736827E+02  0.00000000000E+00 0. -1.
         -3    1    1    2    0  503 -0.24579563834E+02  0.42535361008E+01  0.17326504333E+02  0.30371948901E+02  0.00000000000E+00 0.  1.
<mgrwt>
<rscale>  2 0.24944890E+02</rscale>
<asrwt>0</asrwt>
<pdfrwt beam="1">  1       21 0.59041935E-02 0.24944890E+02</pdfrwt>
<pdfrwt beam="2">  1       21 0.26508351E-02 0.24944890E+02</pdfrwt>
<totfact> 0.10898569E+08</totfact>
</mgrwt>
</event>
<event>
 4    1  0.7165636E+004  0.2052458E+02  0.7546771E-02  0.1735093E+00
         21   -1    0    0  501  502  0.00000000000E+00  0.00000000000E+00  0.56774747115E+01  0.56774747115E+01  0.00000000000E+00 0. -1.
         21   -1    0    0  502  503 -0.00000000000E+00 -0.00000000000E+00 -0.12939952558E+03  0.12939952558E+03  0.00000000000E+00 0. -1.
          5    1    1    2  501    0  0.20477557990E+02 -0.13884627695E+01 -0.17748699498E+02  0.27134379373E+02  0.00000000000E+00 0.  1.
         -5    1    1    2    0  503 -0.20477557990E+02  0.13884627695E+01 -0.10597335137E+03  0.10794262092E+03  0.00000000000E+00 0. -1.
<mgrwt>
<rscale>  2 0.20524576E+02</rscale>
<asrwt>0</asrwt>
<pdfrwt beam="1">  1       21 0.87345769E-03 0.20524576E+02</pdfrwt>
<pdfrwt beam="2">  1       21 0.19907618E-01 0.20524576E+02</pdfrwt>
<totfact> 0.73753174E+07</totfact>
</mgrwt>
</event>
<event>
 4    1  0.7165636E+004  0.2341361E+02  0.7546771E-02  0.1684892E+00
         21   -1    0    0  503  502  0.00000000000E+00  0.00000000000E+00  0.63094550612E+03  0.63094550612E+03  0.00000000000E+00 0.  1.
         21   -1    0    0  501  503 -0.00000000000E+00 -0.00000000000E+00 -0.12257862218E+01  0.12257862218E+01  0.00000000000E+00 0.  1.
          4    1    1    2  501    0  0.18596830863E+02 -0.14225154889E+02  0.14429381612E+03  0.14618106075E+03  0.00000000000E+00 0.  1.
         -4    1    1    2    0  502 -0.18596830863E+02  0.14225154889E+02  0.48542590377E+03  0.48599023159E+03  0.00000000000E+00 0. -1.
<mgrwt>
<rscale>  2 0.23413610E+02</rscale>
<asrwt>0</asrwt>
<pdfrwt beam="1">  1       21 0.97068280E-01 0.23413610E+02</pdfrwt>
<pdfrwt beam="2">  1       21 0.18858300E-03 0.23413610E+02</pdfrwt>
<totfact> 0.34308122E+07</totfact>
</mgrwt>
</event>
<event>
 4    1  0.7165636E+004  0.2285559E+02  0.7546771E-02  0.1693862E+00
         21   -1    0    0  503  502  0.00000000000E+00  0.00000000000E+00  0.43046816300E+00  0.43046816300E+00  0.00000000000E+00 0.  1.
         21   -1    0    0  501  503 -0.00000000000E+00 -0.00000000000E+00 -0.12144625862E+04  0.12144625862E+04  0.00000000000E+00 0.  1.
          4    1    1    2  501    0  0.14572182831E+01 -0.22809087812E+02 -0.59001500273E+03  0.59045751872E+03  0.00000000000E+00 0.  1.
         -4    1    1    2    0  502 -0.14572182831E+01  0.22809087812E+02 -0.62401711535E+03  0.62443553568E+03  0.00000000000E+00 0. -1.
<mgrwt>
<rscale>  2 0.22855590E+02</rscale>
<asrwt>0</asrwt>
<pdfrwt beam="1">  1       21 0.66227278E-04 0.22855590E+02</pdfrwt>
<pdfrwt beam="2">  1       21 0.18683643E+00 0.22855590E+02</pdfrwt>
<totfact> 0.33139099E+07</totfact>
</mgrwt>
</event>
<event>
 4    1  0.7165636E+004  0.2024132E+02  0.7546771E-02  0.1740571E+00
         21   -1    0    0  501  502  0.00000000000E+00  0.00000000000E+00  0.16152110401E+02  0.16152110401E+02  0.00000000000E+00 0.  1.
         21   -1    0    0  502  503 -0.00000000000E+00 -0.00000000000E+00 -0.25378441088E+02  0.25378441088E+02  0.00000000000E+00 0.  1.
          5    1    1    2  501    0  0.20014047933E+02  0.30247421913E+01 -0.50766345314E+01  0.20868238981E+02  0.00000000000E+00 0. -1.
         -5    1    1    2    0  503 -0.20014047933E+02 -0.30247421913E+01 -0.41496961550E+01  0.20662312508E+02  0.00000000000E+00 0.  1.
<mgrwt>
<rscale>  2 0.20241324E+02</rscale>
<asrwt>0</asrwt>
<pdfrwt beam="1">  1       21 0.24849401E-02 0.20241324E+02</pdfrwt>
<pdfrwt beam="2">  1       21 0.39043755E-02 0.20241324E+02</pdfrwt>
<totfact> 0.21789164E+08</totfact>
</mgrwt>
</event>
<event>
 4    1  0.7165636E+004  0.2827075E+02  0.7546771E-02  0.1618029E+00
         21   -1    0    0  503  502  0.00000000000E+00  0.00000000000E+00  0.81343925683E+02  0.81343925683E+02  0.00000000000E+00 0. -1.
         21   -1    0    0  501  503 -0.00000000000E+00 -0.00000000000E+00 -0.98276437889E+01  0.98276437889E+01  0.00000000000E+00 0. -1.
          2    1    1    2  501    0  0.24961516791E+02 -0.13272462749E+02  0.35067415813E+02  0.45043970071E+02  0.00000000000E+00 0.  1.
         -2    1    1    2    0  502 -0.24961516791E+02  0.13272462749E+02  0.36448866081E+02  0.46127599401E+02  0.00000000000E+00 0. -1.
<mgrwt>
<rscale>  2 0.28270755E+02</rscale>
<asrwt>0</asrwt>
<pdfrwt beam="1">  1       21 0.12514450E-01 0.28270755E+02</pdfrwt>
<pdfrwt beam="2">  1       21 0.15119453E-02 0.28270755E+02</pdfrwt>
<totfact> 0.77527869E+07</totfact>
</mgrwt>
</event>
<event>
 4    1  0.7165636E+004  0.2757957E+02  0.7546771E-02  0.1626495E+00
         21   -1    0    0  503  502  0.00000000000E+00  0.00000000000E+00  0.48350276369E+00  0.48350276369E+00  0.00000000000E+00 0.  1.
         21   -1    0    0  501  503 -0.00000000000E+00 -0.00000000000E+00 -0.15733879489E+04  0.15733879489E+04  0.00000000000E+00 0.  1.
          2    1    1    2  501    0 -0.31916764753E+01  0.27394271728E+02 -0.77722908325E+03  0.77771825282E+03  0.00000000000E+00 0.  1.
         -2    1    1    2    0  502  0.31916764753E+01 -0.27394271728E+02 -0.79567536292E+03  0.79615319888E+03  0.00000000000E+00 0. -1.
<mgrwt>
<rscale>  2 0.27579574E+02</rscale>
<asrwt>0</asrwt>
<pdfrwt beam="1">  1       21 0.74384455E-04 0.27579574E+02</pdfrwt>
<pdfrwt beam="2">  1       21 0.24206159E+00 0.27579574E+02</pdfrwt>
<totfact> 0.14425031E+07</totfact>
</mgrwt>
</event>
<event>
 4    1  0.7165636E+004  0.2314023E+02  0.7546771E-02  0.1689247E+00
         21   -1    0    0  501  502  0.00000000000E+00  0.00000000000E+00  0.47989382385E+02  0.47989382385E+02  0.00000000000E+00 0.  1.
         21   -1    0    0  502  503 -0.00000000000E+00 -0.00000000000E+00 -0.11297170528E+02  0.11297170528E+02  0.00000000000E+00 0.  1.
          3    1    1    2  501    0 -0.12364829445E+02  0.19559689353E+02  0.21635037027E+02  0.31678782835E+02  0.00000000000E+00 0.  1.
         -3    1    1    2    0  503  0.12364829445E+02 -0.19559689353E+02  0.15057174830E+02  0.27607770077E+02  0.00000000000E+00 0. -1.
<mgrwt>
<rscale>  2 0.23140235E+02</rscale>
<asrwt>0</asrwt>
<pdfrwt beam="1">  1       21 0.73829818E-02 0.23140235E+02</pdfrwt>
<pdfrwt beam="2">  1       21 0.17380263E-02 0.23140235E+02</pdfrwt>
<totfact> 0.14237187E+08</totfact>
</mgrwt>
</event>
<event>
 4    1  0.7165636E+004  0.2301378E+02  0.7546771E-02  0.1691287E+00
         21   -1    0    0  503  502  0.00000000000E+00  0.00000000000E+00  0.86579190115E+03  0.86579190115E+03  0.00000000000E+00 0.  1.
         21   -1    0    0  501  503 -0.00000000000E+00 -0.00000000000E+00 -0.63566938135E+00  0.63566938135E+00  0.00000000000E+00 0.  1.
          1    1    1    2  501    0 -0.18962285374E+02  0.13040930246E+02  0.51664192122E+03  0.51715424091E+03  0.00000000000E+00 0.  1.
         -1    1    1    2    0  502  0.18962285374E+02 -0.13040930246E+02  0.34851431055E+03  0.34927332962E+03  0.00000000000E+00 0. -1.
<mgrwt>
<rscale>  2 0.23013781E+02</rscale>
<asrwt>0</asrwt>
<pdfrwt beam="1">  1       21 0.13319781E+00 0.23013781E+02</pdfrwt>
<pdfrwt beam="2">  1       21 0.97795983E-04 0.23013781E+02</pdfrwt>
<totfact> 0.43070076E+07</totfact>
</mgrwt>
</event>
<event>
 4    1  0.7165636E+004  0.2043275E+02  0.7546771E-02  0.1736857E+00
         21   -1    0    0  501  502  0.00000000000E+00  0.00000000000E+00  0.10104885988E+01  0.10104885988E+01  0.00000000000E+00 0.  1.
         21   -1    0    0  502  503 -0.00000000000E+00 -0.00000000000E+00 -0.41402087454E+03  0.41402087454E+03  0.00000000000E+00 0.  1.
          2    1    1    2  501    0 -0.41365373850E+01  0.20009654436E+02 -0.21594739860E+03  0.21691190879E+03  0.00000000000E+00 0.  1.
         -2    1    1    2    0  503  0.41365373850E+01 -0.20009654436E+02 -0.19706298733E+03  0.19811945434E+03  0.00000000000E+00 0. -1.
<mgrwt>
<rscale>  2 0.20432749E+02</rscale>
<asrwt>0</asrwt>
<pdfrwt beam="1">  1       21 0.15545984E-03 0.20432749E+02</pdfrwt>
<pdfrwt beam="2">  1       21 0.63695497E-01 0.20432749E+02</pdfrwt>
<totfact> 0.10565491E+08</totfact>
</mgrwt>
</event>
<event>
 4    1  0.7165636E+004  0.2151283E+02  0.7546771E-02  0.1716816E+00
         21   -1    0    0  501  502  0.00000000000E+00  0.00000000000E+00  0.89565113250E+03  0.89565113250E+03  0.00000000000E+00 0.  1.
         21   -1    0    0  502  503 -0.00000000000E+00 -0.00000000000E+00 -0.72154158635E+00  0.72154158635E+00  0.00000000000E+00 0.  1.
          1    1    1    2  501    0 -0.15252971845E+02  0.15170657458E+02  0.20867572918E+03  0.20978170070E+03  0.00000000000E+00 0. -1.
         -1    1    1    2    0  503  0.15252971845E+02 -0.15170657458E+02  0.68625386173E+03  0.68659097338E+03  0.00000000000E+00 0.  1.
<mgrwt>
<rscale>  2 0.21512833E+02</rscale>
<asrwt>0</asrwt>
<pdfrwt beam="1">  1       21 0.13779159E+00 0.21512833E+02</pdfrwt>
<pdfrwt beam="2">  1       21 0.11100711E-03 0.21512833E+02</pdfrwt>
<totfact> 0.32804020E+07</totfact>
</mgrwt>
</event>
<event>
 4    1  0.7165636E+004  0.2107913E+02  0.7546771E-02  0.1724682E+00
         21   -1    0    0  503  502  0.00000000000E+00  0.00000000000E+00  0.15454602000E+02  0.15454602000E+02  0.00000000000E+00 0.  1.
         21   -1    0    0  501  503 -0.00000000000E+00 -0.00000000000E+00 -0.29114936459E+02  0.29114936459E+02  0.00000000000E+00 0.  1.
          2    1    1    2  501    0 -0.59044487076E+01 -0.20235294329E+02 -0.93229217812E+01  0.23048785687E+02  0.00000000000E+00 0. -1.
         -2    1    1    2    0  502  0.59044487076E+01  0.20235294329E+02 -0.43374126779E+01  0.21520752771E+02  0.00000000000E+00 0.  1.
<mgrwt>
<rscale>  2 0.21079128E+02</rscale>
<asrwt>0</asrwt>
<pdfrwt beam="1">  1       21 0.23776311E-02 0.21079128E+02</pdfrwt>
<pdfrwt beam="2">  1       21 0.44792210E-02 0.21079128E+02</pdfrwt>
<totfact> 0.19039288E+08</totfact>
</mgrwt>
</event>
<event>
 4    1  0.7165636E+004  0.2893519E+02  0.7546771E-02  0.1610166E+00
         21   -1    0    0  501  502  0.00000000000E+00  0.00000000000E+00  0.21492744159E+02  0.21492744159E+02  0.00000000000E+00 0. -1.
         21   -1    0    0  502  503 -0.00000000000E+00 -0.00000000000E+00 -0.56970961488E+02  0.56970961488E+02  0.00000000000E+00 0. -1.
          3    1    1    2  501    0 -0.21918531188E+02  0.18889761324E+02  0.43228178923E+01  0.29256312940E+02  0.00000000000E+00 0. -1.
         -3    1    1    2    0  503  0.21918531188E+02 -0.18889761324E+02 -0.39801035221E+02  0.49207392707E+02  0.00000000000E+00 0.  1.
<mgrwt>
<rscale>  2 0.28935188E+02</rscale>
<asrwt>0</asrwt>
<pdfrwt beam="1">  1       21 0.33065760E-02 0.28935188E+02</pdfrwt>
<pdfrwt beam="2">  1       21 0.87647634E-02 0.28935188E+02</pdfrwt>
<totfact> 0.41973700E+07</totfact>
</mgrwt>
</event>
<event>
 4    1  0.7165636E+004  0.2394751E+02  0.7546771E-02  0.1676596E+00
         21   -1    0    0  503  502  0.00000000000E+00  0.00000000000E+00  0.27161469312E+03  0.27161469312E+03  0.00000000000E+00 0. -1.
         21   -1    0    0  501  503 -0.00000000000E+00 -0.00000000000E+00 -0.21661896467E+01  0.21661896467E+01  0.00000000000E+00 0. -1.
          3    1    1    2  501    0  0.21415840406E+02  0.10716577803E+02  0.15649796692E+03  0.15831960369E+03  0.00000000000E+00 0. -1.
         -3    1    1    2    0  502 -0.21415840406E+02 -0.10716577803E+02  0.11295053655E+03  0.11546127909E+03  0.00000000000E+00 0.  1.
<mgrwt>
<rscale>  2 0.23947511E+02</rscale>
<asrwt>0</asrwt>
<pdfrwt beam="1">  1       21 0.41786849E-01 0.23947511E+02</pdfrwt>
<pdfrwt beam="2">  1       21 0.33326016E-03 0.23947511E+02</pdfrwt>
<totfact> 0.83181591E+07</totfact>
</mgrwt>
</event>
<event>
 4    1  0.7165636E+004  0.2838267E+02  0.7546771E-02  0.1616686E+00
         21   -1    0    0  503  502  0.00000000000E+00  0.00000000000E+00  0.10514759559E+04  0.10514759559E+04  0.00000000000E+00 0.  1.
         21   -1    0    0  501  503 -0.00000000000E+00 -0.00000000000E+00 -0.83488279046E+00  0.83488279046E+00  0.00000000000E+00 0.  1.
          4    1    1    2  501    0 -0.23211687666E+02  0.16333806450E+02  0.37433991288E+03  0.37541436580E+03  0.00000000000E+00 0. -1.
         -4    1    1    2    0  502  0.23211687666E+02 -0.16333806450E+02  0.67630116020E+03  0.67689647286E+03  0.00000000000E+00 0.  1.
<mgrwt>
<rscale>  2 0.28382665E+02</rscale>
<asrwt>0</asrwt>
<pdfrwt beam="1">  1       21 0.16176447E+00 0.28382665E+02</pdfrwt>
<pdfrwt beam="2">  1       21 0.12844435E-03 0.28382665E+02</pdfrwt>
<totfact> 0.19035916E+07</totfact>
</mgrwt>
</event>
<event>
 4    1  0.7165636E+004  0.2773560E+02  0.7546771E-02  0.1624558E+00
         21   -1    0    0  503  502  0.00000000000E+00  0.00000000000E+00  0.11387755075E+03  0.11387755075E+03  0.00000000000E+00 0. -1.
         21   -1    0    0  501  503 -0.00000000000E+00 -0.00000000000E+00 -0.71988327976E+01  0.71988327976E+01  0.00000000000E+00 0. -1.
          3    1    1    2  501    0 -0.23928444549E+02 -0.14024737884E+02  0.68367954253E+02  0.73779678097E+02  0.00000000000E+00 0. -1.
         -3    1    1    2    0  502  0.23928444549E+02  0.14024737884E+02  0.38310763696E+02  0.47296705448E+02  0.00000000000E+00 0.  1.
<mgrwt>
<rscale>  2 0.27735604E+02</rscale>
<asrwt>0</asrwt>
<pdfrwt beam="1">  1       21 0.17519622E-01 0.27735604E+02</pdfrwt>
<pdfrwt beam="2">  1       21 0.11075128E-02 0.27735604E+02</pdfrwt>
<totfact> 0.69635398E+07</totfact>
</mgrwt>
</event>
<event>
 4    1  0.7165636E+004  0.3752084E+02  0.7546771E-02  0.1527290E+00
         21   -1    0    0  501  502  0.00000000000E+00  0.00000000000E+00  0.10368943630E+03  0.10368943630E+03  0.00000000000E+00 0. -1.
         21   -1    0    0  502  503 -0.00000000000E+00 -0.00000000000E+00 -0.13588540500E+02  0.13588540500E+02  0.00000000000E+00 0. -1.
          3    1    1    2  501    0 -0.36836581734E+02  0.71330204410E+01  0.43357532336E+02  0.57338375847E+02  0.00000000000E+00 0. -1.
         -3    1    1    2    0  503  0.36836581734E+02 -0.71330204410E+01  0.46743363463E+02  0.59939600952E+02  0.00000000000E+00 0.  1.
<mgrwt>
<rscale>  2 0.37520844E+02</rscale>
<asrwt>0</asrwt>
<pdfrwt beam="1">  1       21 0.15952220E-01 0.37520844E+02</pdfrwt>
<pdfrwt beam="2">  1       21 0.20905448E-02 0.37520844E+02</pdfrwt>
<totfact> 0.32840552E+07</totfact>
</mgrwt>
</event>
<event>
 4    1  0.7165636E+004  0.2068302E+02  0.7546771E-02  0.1732077E+00
         21   -1    0    0  501  502  0.00000000000E+00  0.00000000000E+00  0.49596015720E+03  0.49596015720E+03  0.00000000000E+00 0.  1.
         21   -1    0    0  502  503 -0.00000000000E+00 -0.00000000000E+00 -0.86616414807E+00  0.86616414807E+00  0.00000000000E+00 0.  1.
          3    1    1    2  501    0  0.16874428818E+02  0.11959972325E+02  0.23148651900E+03  0.23240868264E+03  0.00000000000E+00 0. -1.
         -3    1    1    2    0  503 -0.16874428818E+02 -0.11959972325E+02  0.26360747405E+03  0.26441763871E+03  0.00000000000E+00 0.  1.
<mgrwt>
<rscale>  2 0.20683019E+02</rscale>
<asrwt>0</asrwt>
<pdfrwt beam="1">  1       21 0.76301336E-01 0.20683019E+02</pdfrwt>
<pdfrwt beam="2">  1       21 0.13325642E-03 0.20683019E+02</pdfrwt>
<totfact> 0.91410524E+07</totfact>
</mgrwt>
</event>
<event>
 4    1  0.7165636E+004  0.2534767E+02  0.7546771E-02  0.1656058E+00
         21   -1    0    0  501  502  0.00000000000E+00  0.00000000000E+00  0.33414835708E+02  0.33414835708E+02  0.00000000000E+00 0.  1.
         21   -1    0    0  502  503 -0.00000000000E+00 -0.00000000000E+00 -0.19388845963E+02  0.19388845963E+02  0.00000000000E+00 0.  1.
          2    1    1    2  501    0  0.22342360781E+01  0.25249006381E+02  0.46091033820E+01  0.25763306621E+02  0.00000000000E+00 0.  1.
         -2    1    1    2    0  503 -0.22342360781E+01 -0.25249006381E+02  0.94168863629E+01  0.27040375050E+02  0.00000000000E+00 0. -1.
<mgrwt>
<rscale>  2 0.25347665E+02</rscale>
<asrwt>0</asrwt>
<pdfrwt beam="1">  1       21 0.51407440E-02 0.25347665E+02</pdfrwt>
<pdfrwt beam="2">  1       21 0.29828994E-02 0.25347665E+02</pdfrwt>
<totfact> 0.11373117E+08</totfact>
</mgrwt>
</event>
<event>
 4    1  0.7165636E+004  0.2502298E+02  0.7546771E-02  0.1660672E+00
         21   -1    0    0  503  502  0.00000000000E+00  0.00000000000E+00  0.14985033290E+03  0.14985033290E+03  0.00000000000E+00 0.  1.
         21   -1    0    0  501  503 -0.00000000000E+00 -0.00000000000E+00 -0.44903644504E+01  0.44903644504E+01  0.00000000000E+00 0.  1.
          1    1    1    2  501    0  0.12065047334E+02  0.21922229838E+02  0.52342697529E+02  0.58016441746E+02  0.00000000000E+00 0. -1.
         -1    1    1    2    0  502 -0.12065047334E+02 -0.21922229838E+02  0.93017270923E+02  0.96324255607E+02  0.00000000000E+00 0.  1.
<mgrwt>
<rscale>  2 0.25022980E+02</rscale>
<asrwt>0</asrwt>
<pdfrwt beam="1">  1       21 0.23053894E-01 0.25022980E+02</pdfrwt>
<pdfrwt beam="2">  1       21 0.69082541E-03 0.25022980E+02</pdfrwt>
<totfact> 0.85261773E+07</totfact>
</mgrwt>
</event>
<event>
 4    1  0.7165636E+004  0.2080072E+02  0.7546771E-02  0.1729858E+00
         21   -1    0    0  503  502  0.00000000000E+00  0.00000000000E+00  0.31371401003E+01  0.31371401003E+01  0.00000000000E+00 0. -1.
         21   -1    0    0  501  503 -0.00000000000E+00 -0.00000000000E+00 -0.14593661955E+03  0.14593661955E+03  0.00000000000E+00 0. -1.
          1    1    1    2  501    0 -0.19748747314E+02  0.65312146431E+01 -0.53928479828E+02  0.57800957793E+02  0.00000000000E+00 0. -1.
         -1    1    1    2    0  502  0.19748747314E+02 -0.65312146431E+01 -0.88870999622E+02  0.91272801858E+02  0.00000000000E+00 0.  1.
<mgrwt>
<rscale>  2 0.20800716E+02</rscale>
<asrwt>0</asrwt>
<pdfrwt beam="1">  1       21 0.48263689E-03 0.20800716E+02</pdfrwt>
<pdfrwt beam="2">  1       21 0.22451790E-01 0.20800716E+02</pdfrwt>
<totfact> 0.14431158E+08</totfact>
</mgrwt>
</event>
<event>
 4    1  0.7165636E+004  0.2538811E+02  0.7546771E-02  0.1655489E+00
         21   -1    0    0  501  502  0.00000000000E+00  0.00000000000E+00  0.17654659973E+02  0.17654659973E+02  0.00000000000E+00 0. -1.
         21   -1    0    0  502  503 -0.00000000000E+00 -0.00000000000E+00 -0.67089571915E+02  0.67089571915E+02  0.00000000000E+00 0. -1.
          4    1    1    2  501    0  0.14387026644E+02 -0.20918167340E+02  0.38896896305E+01  0.25684352161E+02  0.00000000000E+00 0.  1.
         -4    1    1    2    0  503 -0.14387026644E+02  0.20918167340E+02 -0.53324601573E+02  0.59059879727E+02  0.00000000000E+00 0. -1.
<mgrwt>
<rscale>  2 0.25388113E+02</rscale>
<asrwt>0</asrwt>
<pdfrwt beam="1">  1       21 0.27161016E-02 0.25388113E+02</pdfrwt>
<pdfrwt beam="2">  1       21 0.10321472E-01 0.25388113E+02</pdfrwt>
<totfact> 0.42265606E+07</totfact>
</mgrwt>
</event>
<event>
 4    1  0.7165636E+004  0.2195186E+02  0.7546771E-02  0.1709086E+00
         21   -1    0    0  503  502  0.00000000000E+00  0.00000000000E+00  0.20782507123E+01  0.20782507123E+01  0.00000000000E+00 0. -1.
         21   -1    0    0  501  503 -0.00000000000E+00 -0.00000000000E+00 -0.26999933523E+03  0.26999933523E+03  0.00000000000E+00 0. -1.
          4    1    1    2  501    0 -0.19215538710E+02 -0.10613535865E+02 -0.18508289391E+03  0.18638015369E+03  0.00000000000E+00 0. -1.
         -4    1    1    2    0  502  0.19215538710E+02  0.10613535865E+02 -0.82838190606E+02  0.85697432251E+02  0.00000000000E+00 0.  1.
<mgrwt>
<rscale>  2 0.21951858E+02</rscale>
<asrwt>0</asrwt>
<pdfrwt beam="1">  1       21 0.31973085E-03 0.21951858E+02</pdfrwt>
<pdfrwt beam="2">  1       21 0.41538364E-01 0.21951858E+02</pdfrwt>
<totfact> 0.87390232E+07</totfact>
</mgrwt>
</event>
<event>
 4    1  0.7165636E+004  0.2439514E+02  0.7546771E-02  0.1669845E+00
         21   -1    0    0  503  502  0.00000000000E+00  0.00000000000E+00  0.24073906216E+03  0.24073906216E+03  0.00000000000E+00 0.  1.
         21   -1    0    0  501  503 -0.00000000000E+00 -0.00000000000E+00 -0.27327243301E+01  0.27327243301E+01  0.00000000000E+00 0.  1.
          5    1    1    2  501    0  0.85168561489E+01  0.22860143602E+02  0.81405925222E+02  0.84982631551E+02  0.00000000000E+00 0.  1.
         -5    1    1    2    0  502 -0.85168561489E+01 -0.22860143602E+02  0.15660041261E+03  0.15848915494E+03  0.00000000000E+00 0. -1.
<mgrwt>
<rscale>  2 0.24395143E+02</rscale>
<asrwt>0</asrwt>
<pdfrwt beam="1">  1       21 0.37036762E-01 0.24395143E+02</pdfrwt>
<pdfrwt beam="2">  1       21 0.42041932E-03 0.24395143E+02</pdfrwt>
<totfact> 0.74606810E+07</totfact>
</mgrwt>
</event>
<event>
 4    1  0.7165636E+004  0.2261730E+02  0.7546771E-02  0.1697790E+00
         21   -1    0    0  503  502  0.00000000000E+00  0.00000000000E+00  0.18925475595E+02  0.18925475595E+02  0.00000000000E+00 0.  1.
         21   -1    0    0  501  503 -0.00000000000E+00 -0.00000000000E+00 -0.27051686951E+02  0.27051686951E+02  0.00000000000E+00 0.  1.
          3    1    1    2  501    0  0.39583968906E+01 -0.22268209192E+02 -0.47246695294E+01  0.23105509056E+02  0.00000000000E+00 0. -1.
         -3    1    1    2    0  502 -0.39583968906E+01  0.22268209192E+02 -0.34015418273E+01  0.22871653490E+02  0.00000000000E+00 0.  1.
<mgrwt>
<rscale>  2 0.22617295E+02</rscale>
<asrwt>0</asrwt>
<pdfrwt beam="1">  1       21 0.29116116E-02 0.22617295E+02</pdfrwt>
<pdfrwt beam="2">  1       21 0.41617980E-02 0.22617295E+02</pdfrwt>
<totfact> 0.15979174E+08</totfact>
</mgrwt>
</event>
<event>
 4    1  0.7165636E+004  0.2483145E+02  0.7546771E-02  0.1663435E+00
         21   -1    0    0  503  502  0.00000000000E+00  0.00000000000E+00  0.10098238667E+02  0.10098238667E+02  0.00000000000E+00 0.  1.
         21   -1    0    0  501  503 -0.00000000000E+00 -0.00000000000E+00 -0.62873532367E+02  0.62873532367E+02  0.00000000000E+00 0.  1.
          2    1    1    2  501    0 -0.14620263774E+02  0.20071095867E+02 -0.20191475938E+02  0.32004635644E+02  0.00000000000E+00 0. -1.
         -2    1    1    2    0  502  0.14620263774E+02 -0.20071095867E+02 -0.32583817762E+02  0.40967135390E+02  0.00000000000E+00 0.  1.
<mgrwt>
<rscale>  2 0.24831452E+02</rscale>
<asrwt>0</asrwt>
<pdfrwt beam="1">  1       21 0.15535751E-02 0.24831452E+02</pdfrwt>
<pdfrwt beam="2">  1       21 0.96728514E-02 0.24831452E+02</pdfrwt>
<totfact> 0.11072456E+08</totfact>
</mgrwt>
</event>
<event>
 4    1  0.7165636E+004  0.2027509E+02  0.7546771E-02  0.1739912E+00
         21   -1    0    0  503  502  0.00000000000E+00  0.00000000000E+00  0.17090446867E+03  0.17090446867E+03  0.00000000000E+00 0. -1.
         21   -1    0    0  501  503 -0.00000000000E+00 -0.00000000000E+00 -0.25557059063E+01  0.25557059063E+01  0.00000000000E+00 0. -1.
          3    1    1    2  501    0  0.96606659449E+01 -0.17825568659E+02  0.63135495058E+02  0.66311161208E+02  0.00000000000E+00 0. -1.
         -3    1    1    2    0  502 -0.96606659449E+01  0.17825568659E+02  0.10521326770E+03  0.10714901337E+03  0.00000000000E+00 0.  1.
<mgrwt>
<rscale>  2 0.20275092E+02</rscale>
<asrwt>0</asrwt>
<pdfrwt beam="1">  1       21 0.26292986E-01 0.20275092E+02</pdfrwt>
<pdfrwt beam="2">  1       21 0.39318566E-03 0.20275092E+02</pdfrwt>
<totfact> 0.14622778E+08</totfact>
</mgrwt>
</event>
<event>
 4    1  0.7165636E+004  0.2271403E+02  0.7546771E-02  0.1696188E+00
         21   -1    0    0  503  502  0.00000000000E+00  0.00000000000E+00  0.77248077273E+02  0.77248077273E+02  0.00000000000E+00 0. -1.
         21   -1    0    0  501  503 -0.00000000000E+00 -0.00000000000E+00 -0.75293217094E+01  0.75293217094E+01  0.00000000000E+00 0. -1.
          5    1    1    2  501    0 -0.19998494509E+02 -0.10769744186E+02  0.20612952748E+02  0.30672805438E+02  0.00000000000E+00 0.  1.
         -5    1    1    2    0  502  0.19998494509E+02  0.10769744186E+02  0.49105802815E+02  0.54104593544E+02  0.00000000000E+00 0. -1.
<mgrwt>
<rscale>  2 0.22714030E+02</rscale>
<asrwt>0</asrwt>
<pdfrwt beam="1">  1       21 0.11884319E-01 0.22714030E+02</pdfrwt>
<pdfrwt beam="2">  1       21 0.11583572E-02 0.22714030E+02</pdfrwt>
<totfact> 0.11961929E+08</totfact>
</mgrwt>
</event>
<event>
 4    1  0.7165636E+004  0.2399276E+02  0.7546771E-02  0.1675905E+00
         21   -1    0    0  501  502  0.00000000000E+00  0.00000000000E+00  0.13680313562E+02  0.13680313562E+02  0.00000000000E+00 0. -1.
         21   -1    0    0  502  503 -0.00000000000E+00 -0.00000000000E+00 -0.44893574059E+02  0.44893574059E+02  0.00000000000E+00 0. -1.
          2    1    1    2  501    0 -0.14898353651E+01  0.23946454861E+02 -0.22939894790E+02  0.33194744807E+02  0.00000000000E+00 0.  1.
         -2    1    1    2    0  503  0.14898353651E+01 -0.23946454861E+02 -0.82733657073E+01  0.25379142814E+02  0.00000000000E+00 0. -1.
<mgrwt>
<rscale>  2 0.23992755E+02</rscale>
<asrwt>0</asrwt>
<pdfrwt beam="1">  1       21 0.21046636E-02 0.23992755E+02</pdfrwt>
<pdfrwt beam="2">  1       21 0.69067037E-02 0.23992755E+02</pdfrwt>
<totfact> 0.11956599E+08</totfact>
</mgrwt>
</event>
<event>
 4    1  0.7165636E+004  0.2013201E+02  0.7546771E-02  0.1742716E+00
         21   -1    0    0  503  502  0.00000000000E+00  0.00000000000E+00  0.86142167952E+00  0.86142167952E+00  0.00000000000E+00 0.  1.
         21   -1    0    0  501  503 -0.00000000000E+00 -0.00000000000E+00 -0.63781755952E+03  0.63781755952E+03  0.00000000000E+00 0.  1.
          3    1    1    2  501    0 -0.76421670128E+01  0.18625120637E+02 -0.48203793919E+03  0.48245815637E+03  0.00000000000E+00 0. -1.
         -3    1    1    2    0  502  0.76421670128E+01 -0.18625120637E+02 -0.15491819866E+03  0.15622082483E+03  0.00000000000E+00 0.  1.
<mgrwt>
<rscale>  2 0.20132010E+02</rscale>
<asrwt>0</asrwt>
<pdfrwt beam="1">  1       21 0.13252687E-03 0.20132010E+02</pdfrwt>
<pdfrwt beam="2">  1       21 0.98125438E-01 0.20132010E+02</pdfrwt>
<totfact> 0.53746136E+07</totfact>
</mgrwt>
</event>
<event>
 4    1  0.7165636E+004  0.2105701E+02  0.7546771E-02  0.1725090E+00
         21   -1    0    0  501  502  0.00000000000E+00  0.00000000000E+00  0.63249730713E+00  0.63249730713E+00  0.00000000000E+00 0. -1.
         21   -1    0    0  502  503 -0.00000000000E+00 -0.00000000000E+00 -0.78295206737E+03  0.78295206737E+03  0.00000000000E+00 0. -1.
          3    1    1    2  501    0 -0.13890250867E+02  0.15825886559E+02 -0.51789474190E+03  0.51832264222E+03  0.00000000000E+00 0. -1.
         -3    1    1    2    0  503  0.13890250867E+02 -0.15825886559E+02 -0.26442482817E+03  0.26526192246E+03  0.00000000000E+00 0.  1.
<mgrwt>
<rscale>  2 0.21057012E+02</rscale>
<asrwt>0</asrwt>
<pdfrwt beam="1">  1       21 0.97307622E-04 0.21057012E+02</pdfrwt>
<pdfrwt beam="2">  1       21 0.12045374E+00 0.21057012E+02</pdfrwt>
<totfact> 0.53558349E+07</totfact>
</mgrwt>
</event>
<event>
 4    1  0.7165636E+004  0.2131095E+02  0.7546771E-02  0.1720449E+00
         21   -1    0    0  501  502  0.00000000000E+00  0.00000000000E+00  0.43704734128E+03  0.43704734128E+03  0.00000000000E+00 0. -1.
         21   -1    0    0  502  503 -0.00000000000E+00 -0.00000000000E+00 -0.13456273417E+01  0.13456273417E+01  0.00000000000E+00 0. -1.
          4    1    1    2  501    0 -0.19638759007E+02  0.82749999800E+01  0.32246066835E+03  0.32316410554E+03  0.00000000000E+00 0. -1.
         -4    1    1    2    0  503  0.19638759007E+02 -0.82749999800E+01  0.11324104558E+03  0.11522886307E+03  0.00000000000E+00 0.  1.
<mgrwt>
<rscale>  2 0.21310947E+02</rscale>
<asrwt>0</asrwt>
<pdfrwt beam="1">  1       21 0.67237939E-01 0.21310947E+02</pdfrwt>
<pdfrwt beam="2">  1       21 0.20701994E-03 0.21310947E+02</pdfrwt>
<totfact> 0.63465584E+07</totfact>
</mgrwt>
</event>
<event>
 4    1  0.7165636E+004  0.2390191E+02  0.7546771E-02  0.1677294E+00
         21   -1    0    0  501  502  0.00000000000E+00  0.00000000000E+00  0.30456046003E+02  0.30456046003E+02  0.00000000000E+00 0. -1.
         21   -1    0    0  502  503 -0.00000000000E+00 -0.00000000000E+00 -0.18859370464E+02  0.18859370464E+02  0.00000000000E+00 0. -1.
          2    1    1    2  501    0 -0.12052078408E+02  0.20640943091E+02  0.76041770145E+01  0.25082357021E+02  0.00000000000E+00 0.  1.
         -2    1    1    2    0  503  0.12052078408E+02 -0.20640943091E+02  0.39924985247E+01  0.24233059446E+02  0.00000000000E+00 0. -1.
<mgrwt>
<rscale>  2 0.23901906E+02</rscale>
<asrwt>0</asrwt>
<pdfrwt beam="1">  1       21 0.46855455E-02 0.23901906E+02</pdfrwt>
<pdfrwt beam="2">  1       21 0.29014416E-02 0.23901906E+02</pdfrwt>
<totfact> 0.13541690E+08</totfact>
</mgrwt>
</event>
<event>
 4    1  0.7165636E+004  0.2569189E+02  0.7546771E-02  0.1651258E+00
         21   -1    0    0  501  502  0.00000000000E+00  0.00000000000E+00  0.42255371799E+02  0.42255371799E+02  0.00000000000E+00 0.  1.
         21   -1    0    0  502  503 -0.00000000000E+00 -0.00000000000E+00 -0.19764312152E+02  0.19764312152E+02  0.00000000000E+00 0.  1.
          4    1    1    2  501    0 -0.15802045213E+02  0.20257560934E+02  0.25443613887E+02  0.36158690457E+02  0.00000000000E+00 0. -1.
         -4    1    1    2    0  503  0.15802045213E+02 -0.20257560934E+02 -0.29525542407E+01  0.25860993493E+02  0.00000000000E+00 0.  1.
<mgrwt>
<rscale>  2 0.25691894E+02</rscale>
<asrwt>0</asrwt>
<pdfrwt beam="1">  1       21 0.65008264E-02 0.25691894E+02</pdfrwt>
<pdfrwt beam="2">  1       21 0.30406634E-02 0.25691894E+02</pdfrwt>
<totfact> 0.75904573E+07</totfact>
</mgrwt>
</event>
<event>
 4    1  0.7165636E+004  0.2259604E+02  0.7546771E-02  0.1698143E+00
         21   -1    0    0  503  502  0.00000000000E+00  0.00000000000E+00  0.18653224361E+01  0.18653224361E+01  0.00000000000E+00 0. -1.
         21   -1    0    0  501  503 -0.00000000000E+00 -0.00000000000E+00 -0.60405540597E+03  0.60405540597E+03  0.00000000000E+00 0. -1.
          3    1    1    2  501    0  0.14577999505E+02  0.17264500931E+02 -0.52513383521E+03  0.52561975414E+03  0.00000000000E+00 0. -1.
         -3    1    1    2    0  502 -0.14577999505E+02 -0.17264500931E+02 -0.77056248322E+02  0.80300974262E+02  0.00000000000E+00 0.  1.
<mgrwt>
<rscale>  2 0.22596041E+02</rscale>
<asrwt>0</asrwt>
<pdfrwt beam="1">  1       21 0.28697262E-03 0.22596041E+02</pdfrwt>
<pdfrwt beam="2">  1       21 0.92931621E-01 0.22596041E+02</pdfrwt>
<totfact> 0.20374322E+07</totfact>
</mgrwt>
</event>
<event>
 4    1  0.7165636E+004  0.2462269E+02  0.7546771E-02  0.1666481E+00
         21   -1    0    0  501  502  0.00000000000E+00  0.00000000000E+00  0.78885009143E+03  0.78885009143E+03  0.00000000000E+00 0. -1.
         21   -1    0    0  502  503 -0.00000000000E+00 -0.00000000000E+00 -0.76993998204E+00  0.76993998204E+00  0.00000000000E+00 0. -1.
          5    1    1    2  501    0 -0.23651991481E+02 -0.68454343273E+01  0.37731046299E+03  0.37811302828E+03  0.00000000000E+00 0.  1.
         -5    1    1    2    0  503  0.23651991481E+02  0.68454343273E+01  0.41076968845E+03  0.41150700313E+03  0.00000000000E+00 0. -1.
<mgrwt>
<rscale>  2 0.24622686E+02</rscale>
<asrwt>0</asrwt>
<pdfrwt beam="1">  1       21 0.12136091E+00 0.24622686E+02</pdfrwt>
<pdfrwt beam="2">  1       21 0.11845294E-03 0.24622686E+02</pdfrwt>
<totfact> 0.41115205E+07</totfact>
</mgrwt>
</event>
<event>
 4    1  0.7165636E+004  0.2311618E+02  0.7546771E-02  0.1689634E+00
         21   -1    0    0  501  502  0.00000000000E+00  0.00000000000E+00  0.18397573021E+02  0.18397573021E+02  0.00000000000E+00 0.  1.
         21   -1    0    0  502  503 -0.00000000000E+00 -0.00000000000E+00 -0.30820008826E+02  0.30820008826E+02  0.00000000000E+00 0.  1.
          5    1    1    2  501    0 -0.23036754637E+02  0.19145485798E+01 -0.30548489375E+00  0.23118193734E+02  0.00000000000E+00 0.  1.
         -5    1    1    2    0  503  0.23036754637E+02 -0.19145485798E+01 -0.12116950911E+02  0.26099388113E+02  0.00000000000E+00 0. -1.
<mgrwt>
<rscale>  2 0.23116175E+02</rscale>
<asrwt>0</asrwt>
<pdfrwt beam="1">  1       21 0.28303959E-02 0.23116175E+02</pdfrwt>
<pdfrwt beam="2">  1       21 0.47415398E-02 0.23116175E+02</pdfrwt>
<totfact> 0.13673404E+08</totfact>
</mgrwt>
</event>
<event>
 4    1  0.7165636E+004  0.2653191E+02  0.7546771E-02  0.1639926E+00
         21   -1    0    0  501  502  0.00000000000E+00  0.00000000000E+00  0.49187012253E+02  0.49187012253E+02  0.00000000000E+00 0. -1.
         21   -1    0    0  502  503 -0.00000000000E+00 -0.00000000000E+00 -0.22541620265E+02  0.22541620265E+02  0.00000000000E+00 0. -1.
          5    1    1    2  501    0 -0.25110985044E+02  0.85662575384E+01  0.34993338496E+02  0.43914417646E+02  0.00000000000E+00 0.  1.
         -5    1    1    2    0  503  0.25110985044E+02 -0.85662575384E+01 -0.83479465077E+01  0.27814214872E+02  0.00000000000E+00 0. -1.
<mgrwt>
<rscale>  2 0.26531912E+02</rscale>
<asrwt>0</asrwt>
<pdfrwt beam="1">  1       21 0.75672327E-02 0.26531912E+02</pdfrwt>
<pdfrwt beam="2">  1       21 0.34679416E-02 0.26531912E+02</pdfrwt>
<totfact> 0.48602071E+07</totfact>
</mgrwt>
</event>
<event>
 4    1  0.7165636E+004  0.3074049E+02  0.7546771E-02  0.1590045E+00
         21   -1    0    0  501  502  0.00000000000E+00  0.00000000000E+00  0.11767110566E+02  0.11767110566E+02  0.00000000000E+00 0.  1.
         21   -1    0    0  502  503 -0.00000000000E+00 -0.00000000000E+00 -0.83111803686E+02  0.83111803686E+02  0.00000000000E+00 0.  1.
          3    1    1    2  501    0  0.45313846026E+01 -0.30404679938E+02 -0.44387630955E+02  0.53992960563E+02  0.00000000000E+00 0. -1.
         -3    1    1    2    0  503 -0.45313846026E+01  0.30404679938E+02 -0.26957062165E+02  0.40885953690E+02  0.00000000000E+00 0.  1.
<mgrwt>
<rscale>  2 0.30740495E+02</rscale>
<asrwt>0</asrwt>
<pdfrwt beam="1">  1       21 0.18103246E-02 0.30740495E+02</pdfrwt>
<pdfrwt beam="2">  1       21 0.12786432E-01 0.30740495E+02</pdfrwt>
<totfact> 0.57772289E+07</totfact>
</mgrwt>
</event>
<event>
 4    1  0.7165636E+004  0.2898696E+02  0.7546771E-02  0.1609564E+00
         21   -1    0    0  503  502  0.00000000000E+00  0.00000000000E+00  0.72095106186E+01  0.72095106186E+01  0.00000000000E+00 0.  1.
         21   -1    0    0  501  503 -0.00000000000E+00 -0.00000000000E+00 -0.20601466971E+03  0.20601466971E+03  0.00000000000E+00 0.  1.
          1    1    1    2  501    0 -0.10256697359E+02  0.27111698739E+02 -0.29145290967E+02  0.41105863752E+02  0.00000000000E+00 0.  1.
         -1    1    1    2    0  502  0.10256697359E+02 -0.27111698739E+02 -0.16965986812E+03  0.17211831658E+03  0.00000000000E+00 0. -1.
<mgrwt>
<rscale>  2 0.28986963E+02</rscale>
<asrwt>0</asrwt>
<pdfrwt beam="1">  1       21 0.11091555E-02 0.28986963E+02</pdfrwt>
<pdfrwt beam="2">  1       21 0.31694565E-01 0.28986963E+02</pdfrwt>
<totfact> 0.24280167E+07</totfact>
</mgrwt>
</event>
<event>
 4    1  0.7165636E+004  0.2037672E+02  0.7546771E-02  0.1737939E+00
         21   -1    0    0  501  502  0.00000000000E+00  0.00000000000E+00  0.94087009348E+02  0.94087009348E+02  0.00000000000E+00 0. -1.
         21   -1    0    0  502  503 -0.00000000000E+00 -0.00000000000E+00 -0.61623599978E+01  0.61623599978E+01  0.00000000000E+00 0. -1.
          2    1    1    2  501    0 -0.13322163850E+02 -0.15418522723E+02  0.70668471039E+02  0.73547560745E+02  0.00000000000E+00 0. -1.
         -2    1    1    2    0  503  0.13322163850E+02  0.15418522723E+02  0.17256178312E+02  0.26701808601E+02  0.00000000000E+00 0.  1.
<mgrwt>
<rscale>  2 0.20376724E+02</rscale>
<asrwt>0</asrwt>
<pdfrwt beam="1">  1       21 0.14474923E-01 0.20376724E+02</pdfrwt>
<pdfrwt beam="2">  1       21 0.94805545E-03 0.20376724E+02</pdfrwt>
<totfact> 0.11237225E+08</totfact>
</mgrwt>
</event>
<event>
 4    1  0.7165636E+004  0.2024909E+02  0.7546771E-02  0.1740420E+00
         21   -1    0    0  503  502  0.00000000000E+00  0.00000000000E+00  0.60562511073E+03  0.60562511073E+03  0.00000000000E+00 0. -1.
         21   -1    0    0  501  503 -0.00000000000E+00 -0.00000000000E+00 -0.80505621804E+00  0.80505621804E+00  0.00000000000E+00 0. -1.
          3    1    1    2  501    0  0.40343311726E+01 -0.19843128838E+02  0.18149247810E+03  0.18261857846E+03  0.00000000000E+00 0. -1.
         -3    1    1    2    0  502 -0.40343311726E+01  0.19843128838E+02  0.42332757641E+03  0.42381158849E+03  0.00000000000E+00 0.  1.
<mgrwt>
<rscale>  2 0.20249089E+02</rscale>
<asrwt>0</asrwt>
<pdfrwt beam="1">  1       21 0.93172730E-01 0.20249089E+02</pdfrwt>
<pdfrwt beam="2">  1       21 0.12385529E-03 0.20249089E+02</pdfrwt>
<totfact> 0.66258818E+07</totfact>
</mgrwt>
</event>
<event>
 4    1  0.7165636E+004  0.4131144E+02  0.7546771E-02  0.1498777E+00
         21   -1    0    0  501  502  0.00000000000E+00  0.00000000000E+00  0.14320024999E+02  0.14320024999E+02  0.00000000000E+00 0. -1.
         21   -1    0    0  502  503 -0.00000000000E+00 -0.00000000000E+00 -0.12314373463E+03  0.12314373463E+03  0.00000000000E+00 0. -1.
          1    1    1    2  501    0  0.31383849845E+02 -0.26864265687E+02 -0.42077883331E+02  0.58967644243E+02  0.00000000000E+00 0. -1.
         -1    1    1    2    0  503 -0.31383849845E+02  0.26864265687E+02 -0.66745826296E+02  0.78496115381E+02  0.00000000000E+00 0.  1.
<mgrwt>
<rscale>  2 0.41311437E+02</rscale>
<asrwt>0</asrwt>
<pdfrwt beam="1">  1       21 0.22030807E-02 0.41311437E+02</pdfrwt>
<pdfrwt beam="2">  1       21 0.18945191E-01 0.41311437E+02</pdfrwt>
<totfact> 0.22718807E+07</totfact>
</mgrwt>
</event>
<event>
 4    1  0.7165636E+004  0.2627582E+02  0.7546771E-02  0.1643325E+00
         21   -1    0    0  501  502  0.00000000000E+00  0.00000000000E+00  0.10000319727E+01  0.10000319727E+01  0.00000000000E+00 0. -1.
         21   -1    0    0  502  503 -0.00000000000E+00 -0.00000000000E+00 -0.70094471469E+03  0.70094471469E+03  0.00000000000E+00 0. -1.
          3    1    1    2  501    0 -0.19153983179E+02 -0.17987323608E+02 -0.30691827442E+03  0.30804098113E+03  0.00000000000E+00 0.  1.
         -3    1    1    2    0  503  0.19153983179E+02  0.17987323608E+02 -0.39302640830E+03  0.39390376553E+03  0.00000000000E+00 0. -1.
<mgrwt>
<rscale>  2 0.26275823E+02</rscale>
<asrwt>0</asrwt>
<pdfrwt beam="1">  1       21 0.15385073E-03 0.26275823E+02</pdfrwt>
<pdfrwt beam="2">  1       21 0.10783789E+00 0.26275823E+02</pdfrwt>
<totfact> 0.37317217E+07</totfact>
</mgrwt>
</event>
<event>
 4    1  0.7165636E+004  0.3215470E+02  0.7546771E-02  0.1575424E+00
         21   -1    0    0  501  502  0.00000000000E+00  0.00000000000E+00  0.99998361194E+01  0.99998361194E+01  0.00000000000E+00 0. -1.
         21   -1    0    0  502  503 -0.00000000000E+00 -0.00000000000E+00 -0.10414415422E+03  0.10414415422E+03  0.00000000000E+00 0. -1.
          1    1    1    2  501    0  0.26706297084E+01  0.32043599488E+02 -0.42228894733E+02  0.53077340566E+02  0.00000000000E+00 0. -1.
         -1    1    1    2    0  503 -0.26706297084E+01 -0.32043599488E+02 -0.51915423372E+02  0.61066649778E+02  0.00000000000E+00 0.  1.
<mgrwt>
<rscale>  2 0.32154697E+02</rscale>
<asrwt>0</asrwt>
<pdfrwt beam="1">  1       21 0.15384364E-02 0.32154697E+02</pdfrwt>
<pdfrwt beam="2">  1       21 0.16022177E-01 0.32154697E+02</pdfrwt>
<totfact> 0.50879594E+07</totfact>
</mgrwt>
</event>
<event>
 4    1  0.7165636E+004  0.2329693E+02  0.7546771E-02  0.1686742E+00
         21   -1    0    0  503  502  0.00000000000E+00  0.00000000000E+00  0.12245639099E+01  0.12245639099E+01  0.00000000000E+00 0.  1.
         21   -1    0    0  501  503 -0.00000000000E+00 -0.00000000000E+00 -0.44825447519E+03  0.44825447519E+03  0.00000000000E+00 0.  1.
          5    1    1    2  501    0 -0.22249604344E+02 -0.69066614395E+01 -0.24734075121E+03  0.24843549279E+03  0.00000000000E+00 0. -1.
         -5    1    1    2    0  502  0.22249604344E+02  0.69066614395E+01 -0.19968916006E+03  0.20104354631E+03  0.00000000000E+00 0.  1.
<mgrwt>
<rscale>  2 0.23296928E+02</rscale>
<asrwt>0</asrwt>
<pdfrwt beam="1">  1       21 0.18839447E-03 0.23296928E+02</pdfrwt>
<pdfrwt beam="2">  1       21 0.68962219E-01 0.23296928E+02</pdfrwt>
<totfact> 0.70555553E+07</totfact>
</mgrwt>
</event>
<event>
 4    1  0.7165636E+004  0.3365600E+02  0.7546771E-02  0.1560870E+00
         21   -1    0    0  503  502  0.00000000000E+00  0.00000000000E+00  0.56401375175E+01  0.56401375175E+01  0.00000000000E+00 0. -1.
         21   -1    0    0  501  503 -0.00000000000E+00 -0.00000000000E+00 -0.20509972962E+03  0.20509972962E+03  0.00000000000E+00 0. -1.
          2    1    1    2  501    0 -0.21079251090E+02 -0.26237221801E+02 -0.84532244119E+02  0.90985861155E+02  0.00000000000E+00 0.  1.
         -2    1    1    2    0  502  0.21079251090E+02  0.26237221801E+02 -0.11492734798E+03  0.11975400598E+03  0.00000000000E+00 0. -1.
<mgrwt>
<rscale>  2 0.33656004E+02</rscale>
<asrwt>0</asrwt>
<pdfrwt beam="1">  1       21 0.86771341E-03 0.33656004E+02</pdfrwt>
<pdfrwt beam="2">  1       21 0.31553807E-01 0.33656004E+02</pdfrwt>
<totfact> 0.36533244E+07</totfact>
</mgrwt>
</event>
<event>
 4    1  0.7165636E+004  0.9895148E+02  0.7546771E-02  0.1282516E+00
         21   -1    0    0  501  502  0.00000000000E+00  0.00000000000E+00  0.45492143723E+03  0.45492143723E+03  0.00000000000E+00 0.  1.
         21   -1    0    0  502  503 -0.00000000000E+00 -0.00000000000E+00 -0.22607342325E+02  0.22607342325E+02  0.00000000000E+00 0.  1.
          5    1    1    2  501    0  0.14584093693E+02 -0.97870830295E+02  0.16387234008E+03  0.19143024593E+03  0.00000000000E+00 0.  1.
         -5    1    1    2    0  503 -0.14584093693E+02  0.97870830295E+02  0.26844175482E+03  0.28609853362E+03  0.00000000000E+00 0. -1.
<mgrwt>
<rscale>  2 0.98951479E+02</rscale>
<asrwt>0</asrwt>
<pdfrwt beam="1">  1       21 0.69987906E-01 0.98951479E+02</pdfrwt>
<pdfrwt beam="2">  1       21 0.34780530E-02 0.98951479E+02</pdfrwt>
<totfact> 0.92018143E+05</totfact>
</mgrwt>
</event>
<event>
 4    1  0.7165636E+004  0.4410570E+02  0.7546771E-02  0.1480003E+00
         21   -1    0    0  501  502  0.00000000000E+00  0.00000000000E+00  0.11115461164E+03  0.11115461164E+03  0.00000000000E+00 0. -1.
         21   -1    0    0  502  503 -0.00000000000E+00 -0.00000000000E+00 -0.18772730471E+02  0.18772730471E+02  0.00000000000E+00 0. -1.
          5    1    1    2  501    0  0.43791502041E+02 -0.52552288832E+01  0.63099638928E+02  0.76986216393E+02  0.00000000000E+00 0. -1.
         -5    1    1    2    0  503 -0.43791502041E+02  0.52552288832E+01  0.29282242237E+02  0.52941125716E+02  0.00000000000E+00 0.  1.
<mgrwt>
<rscale>  2 0.44105704E+02</rscale>
<asrwt>0</asrwt>
<pdfrwt beam="1">  1       21 0.17100709E-01 0.44105704E+02</pdfrwt>
<pdfrwt beam="2">  1       21 0.28881124E-02 0.44105704E+02</pdfrwt>
<totfact> 0.17933092E+07</totfact>
</mgrwt>
</event>
<event>
 4    1  0.7165636E+004  0.4717566E+02  0.7546771E-02  0.1461199E+00
         21   -1    0    0  503  502  0.00000000000E+00  0.00000000000E+00  0.69607683683E+01  0.69607683683E+01  0.00000000000E+00 0.  1.
         21   -1    0    0  501  503 -0.00000000000E+00 -0.00000000000E+00 -0.43189004933E+03  0.43189004933E+03  0.00000000000E+00 0.  1.
          5    1    1    2  501    0 -0.15392227223E+02  0.44593972827E+02 -0.32428629686E+03  0.32769977938E+03  0.00000000000E+00 0. -1.
         -5    1    1    2    0  502  0.15392227223E+02 -0.44593972827E+02 -0.10064298410E+03  0.11115103832E+03  0.00000000000E+00 0.  1.
<mgrwt>
<rscale>  2 0.47175662E+02</rscale>
<asrwt>0</asrwt>
<pdfrwt beam="1">  1       21 0.10708870E-02 0.47175662E+02</pdfrwt>
<pdfrwt beam="2">  1       21 0.66444648E-01 0.47175662E+02</pdfrwt>
<totfact> 0.64251036E+06</totfact>
</mgrwt>
</event>
<event>
 4    1  0.7165636E+004  0.2496379E+02  0.7546771E-02  0.1661523E+00
         21   -1    0    0  503  502  0.00000000000E+00  0.00000000000E+00  0.18640881363E+02  0.18640881363E+02  0.00000000000E+00 0.  1.
         21   -1    0    0  501  503 -0.00000000000E+00 -0.00000000000E+00 -0.34439237963E+02  0.34439237963E+02  0.00000000000E+00 0.  1.
          5    1    1    2  501    0  0.20634901202E+02 -0.14049610453E+02 -0.12439338481E+02  0.27891357861E+02  0.00000000000E+00 0. -1.
         -5    1    1    2    0  502 -0.20634901202E+02  0.14049610453E+02 -0.33590181193E+01  0.25188761466E+02  0.00000000000E+00 0.  1.
<mgrwt>
<rscale>  2 0.24963788E+02</rscale>
<asrwt>0</asrwt>
<pdfrwt beam="1">  1       21 0.28678279E-02 0.24963788E+02</pdfrwt>
<pdfrwt beam="2">  1       21 0.52983442E-02 0.24963788E+02</pdfrwt>
<totfact> 0.11475265E+08</totfact>
</mgrwt>
</event>
<event>
 4    1  0.7165636E+004  0.2689095E+02  0.7546771E-02  0.1635238E+00
         21   -1    0    0  501  502  0.00000000000E+00  0.00000000000E+00  0.25518333013E+03  0.25518333013E+03  0.00000000000E+00 0. -1.
         21   -1    0    0  502  503 -0.00000000000E+00 -0.00000000000E+00 -0.32484731982E+01  0.32484731982E+01  0.00000000000E+00 0. -1.
          1    1    1    2  501    0 -0.15859539974E+02 -0.21716310662E+02  0.17213752977E+03  0.17422529183E+03  0.00000000000E+00 0. -1.
         -1    1    1    2    0  503  0.15859539974E+02  0.21716310662E+02  0.79797327159E+02  0.84206511498E+02  0.00000000000E+00 0.  1.
<mgrwt>
<rscale>  2 0.26890949E+02</rscale>
<asrwt>0</asrwt>
<pdfrwt beam="1">  1       21 0.39258958E-01 0.26890949E+02</pdfrwt>
<pdfrwt beam="2">  1       21 0.49976531E-03 0.26890949E+02</pdfrwt>
<totfact> 0.52969596E+07</totfact>
</mgrwt>
</event>
<event>
 4    1  0.7165636E+004  0.2002230E+02  0.7546771E-02  0.1744885E+00
         21   -1    0    0  501  502  0.00000000000E+00  0.00000000000E+00  0.58641349540E+01  0.58641349540E+01  0.00000000000E+00 0.  1.
         21   -1    0    0  502  503 -0.00000000000E+00 -0.00000000000E+00 -0.91141699866E+02  0.91141699866E+02  0.00000000000E+00 0.  1.
          2    1    1    2  501    0 -0.19172801951E+02 -0.57702789507E+01 -0.66886426377E+02  0.69818955072E+02  0.00000000000E+00 0. -1.
         -2    1    1    2    0  503  0.19172801951E+02  0.57702789507E+01 -0.18391138535E+02  0.27186879748E+02  0.00000000000E+00 0.  1.
<mgrwt>
<rscale>  2 0.20022299E+02</rscale>
<asrwt>0</asrwt>
<pdfrwt beam="1">  1       21 0.90217468E-03 0.20022299E+02</pdfrwt>
<pdfrwt beam="2">  1       21 0.14021799E-01 0.20022299E+02</pdfrwt>
<totfact> 0.12698329E+08</totfact>
</mgrwt>
</event>
<event>
 4    1  0.7165636E+004  0.2652812E+02  0.7546771E-02  0.1639976E+00
         21   -1    0    0  503  502  0.00000000000E+00  0.00000000000E+00  0.20395343139E+02  0.20395343139E+02  0.00000000000E+00 0.  1.
         21   -1    0    0  501  503 -0.00000000000E+00 -0.00000000000E+00 -0.43069251618E+02  0.43069251618E+02  0.00000000000E+00 0.  1.
          3    1    1    2  501    0 -0.26431628423E+02 -0.22605261711E+01 -0.25487168107E+02  0.36787724825E+02  0.00000000000E+00 0. -1.
         -3    1    1    2    0  502  0.26431628423E+02  0.22605261711E+01  0.28132596276E+01  0.26676869933E+02  0.00000000000E+00 0.  1.
<mgrwt>
<rscale>  2 0.26528116E+02</rscale>
<asrwt>0</asrwt>
<pdfrwt beam="1">  1       21 0.31377451E-02 0.26528116E+02</pdfrwt>
<pdfrwt beam="2">  1       21 0.66260386E-02 0.26528116E+02</pdfrwt>
<totfact> 0.70623356E+07</totfact>
</mgrwt>
</event>
<event>
 4    1  0.7165636E+004  0.2762618E+02  0.7546771E-02  0.1625915E+00
         21   -1    0    0  501  502  0.00000000000E+00  0.00000000000E+00  0.36266655755E+02  0.36266655755E+02  0.00000000000E+00 0. -1.
         21   -1    0    0  502  503 -0.00000000000E+00 -0.00000000000E+00 -0.21125513055E+02  0.21125513055E+02  0.00000000000E+00 0. -1.
          3    1    1    2  501    0 -0.24167347544E+02 -0.13384517863E+02  0.93499148549E+01  0.29165508970E+02  0.00000000000E+00 0.  1.
         -3    1    1    2    0  503  0.24167347544E+02  0.13384517863E+02  0.57912278452E+01  0.28226659839E+02  0.00000000000E+00 0. -1.
<mgrwt>
<rscale>  2 0.27626183E+02</rscale>
<asrwt>0</asrwt>
<pdfrwt beam="1">  1       21 0.55794855E-02 0.27626183E+02</pdfrwt>
<pdfrwt beam="2">  1       21 0.32500790E-02 0.27626183E+02</pdfrwt>
<totfact> 0.89166194E+07</totfact>
</mgrwt>
</event>
<event>
 4    1  0.7165636E+004  0.3505184E+02  0.7546771E-02  0.1548141E+00
         21   -1    0    0  501  502  0.00000000000E+00  0.00000000000E+00  0.12257699881E+03  0.12257699881E+03  0.00000000000E+00 0. -1.
         21   -1    0    0  502  503 -0.00000000000E+00 -0.00000000000E+00 -0.10079844713E+02  0.10079844713E+02  0.00000000000E+00 0. -1.
          5    1    1    2  501    0  0.13581253205E+02  0.32313785088E+02  0.51282556743E+02  0.62117081157E+02  0.00000000000E+00 0.  1.
         -5    1    1    2    0  503 -0.13581253205E+02 -0.32313785088E+02  0.61214597352E+02  0.70539762363E+02  0.00000000000E+00 0. -1.
<mgrwt>
<rscale>  2 0.35051835E+02</rscale>
<asrwt>0</asrwt>
<pdfrwt beam="1">  1       21 0.18857999E-01 0.35051835E+02</pdfrwt>
<pdfrwt beam="2">  1       21 0.15507454E-02 0.35051835E+02</pdfrwt>
<totfact> 0.38457729E+07</totfact>
</mgrwt>
</event>
<event>
 4    1  0.7165636E+004  0.2730137E+02  0.7546771E-02  0.1629989E+00
         21   -1    0    0  501  502  0.00000000000E+00  0.00000000000E+00  0.23085530442E+01  0.23085530442E+01  0.00000000000E+00 0.  1.
         21   -1    0    0  502  503 -0.00000000000E+00 -0.00000000000E+00 -0.32484877258E+03  0.32484877258E+03  0.00000000000E+00 0.  1.
          4    1    1    2  501    0  0.83992675436E+01  0.25977244967E+02 -0.14850664925E+03  0.15099533047E+03  0.00000000000E+00 0. -1.
         -4    1    1    2    0  503 -0.83992675436E+01 -0.25977244967E+02 -0.17403357028E+03  0.17616199515E+03  0.00000000000E+00 0.  1.
<mgrwt>
<rscale>  2 0.27301373E+02</rscale>
<asrwt>0</asrwt>
<pdfrwt beam="1">  1       21 0.35516182E-03 0.27301373E+02</pdfrwt>
<pdfrwt beam="2">  1       21 0.49976760E-01 0.27301373E+02</pdfrwt>
<totfact> 0.55309589E+07</totfact>
</mgrwt>
</event>
<event>
 4    1  0.7165636E+004  0.2397391E+02  0.7546771E-02  0.1676193E+00
         21   -1    0    0  503  502  0.00000000000E+00  0.00000000000E+00  0.25564597342E+02  0.25564597342E+02  0.00000000000E+00 0. -1.
         21   -1    0    0  501  503 -0.00000000000E+00 -0.00000000000E+00 -0.23206052491E+02  0.23206052491E+02  0.00000000000E+00 0. -1.
          4    1    1    2  501    0  0.18534312333E+02  0.15206173594E+02  0.54860481831E+01  0.24593600259E+02  0.00000000000E+00 0. -1.
         -4    1    1    2    0  502 -0.18534312333E+02 -0.15206173594E+02 -0.31275033316E+01  0.24177049574E+02  0.00000000000E+00 0.  1.
<mgrwt>
<rscale>  2 0.23973912E+02</rscale>
<asrwt>0</asrwt>
<pdfrwt beam="1">  1       21 0.39330150E-02 0.23973912E+02</pdfrwt>
<pdfrwt beam="2">  1       21 0.35701619E-02 0.23973912E+02</pdfrwt>
<totfact> 0.12928945E+08</totfact>
</mgrwt>
</event>
<event>
 4    1  0.7165636E+004  0.2112638E+02  0.7546771E-02  0.1723814E+00
         21   -1    0    0  503  502  0.00000000000E+00  0.00000000000E+00  0.17738765031E+03  0.17738765031E+03  0.00000000000E+00 0.  1.
         21   -1    0    0  501  503 -0.00000000000E+00 -0.00000000000E+00 -0.27523234777E+01  0.27523234777E+01  0.00000000000E+00 0.  1.
          2    1    1    2  501    0  0.16559369352E+02 -0.13119112343E+02  0.60930157538E+02  0.64488820113E+02  0.00000000000E+00 0. -1.
         -2    1    1    2    0  502 -0.16559369352E+02  0.13119112343E+02  0.11370516929E+03  0.11565115367E+03  0.00000000000E+00 0.  1.
<mgrwt>
<rscale>  2 0.21126377E+02</rscale>
<asrwt>0</asrwt>
<pdfrwt beam="1">  1       21 0.27290399E-01 0.21126377E+02</pdfrwt>
<pdfrwt beam="2">  1       21 0.42343452E-03 0.21126377E+02</pdfrwt>
<totfact> 0.12423584E+08</totfact>
</mgrwt>
</event>
<event>
 4    1  0.7165636E+004  0.2102235E+02  0.7546771E-02  0.1725730E+00
         21   -1    0    0  503  502  0.00000000000E+00  0.00000000000E+00  0.27695443490E+00  0.27695443490E+00  0.00000000000E+00 0. -1.
         21   -1    0    0  501  503 -0.00000000000E+00 -0.00000000000E+00 -0.16728788606E+04  0.16728788606E+04  0.00000000000E+00 0. -1.
          2    1    1    2  501    0 -0.12148267297E+02 -0.17156892592E+02 -0.10159773875E+04  0.10161948589E+04  0.00000000000E+00 0. -1.
         -2    1    1    2    0  502  0.12148267297E+02  0.17156892592E+02 -0.65662451872E+03  0.65696095618E+03  0.00000000000E+00 0.  1.
<mgrwt>
<rscale>  2 0.21022354E+02</rscale>
<asrwt>0</asrwt>
<pdfrwt beam="1">  1       21 0.42607414E-04 0.21022354E+02</pdfrwt>
<pdfrwt beam="2">  1       21 0.25737178E+00 0.21022354E+02</pdfrwt>
<totfact> 0.25896116E+07</totfact>
</mgrwt>
</event>
<event>
 4    1  0.7165636E+004  0.2679574E+02  0.7546771E-02  0.1636473E+00
         21   -1    0    0  501  502  0.00000000000E+00  0.00000000000E+00  0.70130801243E+01  0.70130801243E+01  0.00000000000E+00 0. -1.
         21   -1    0    0  502  503 -0.00000000000E+00 -0.00000000000E+00 -0.12209348548E+03  0.12209348548E+03  0.00000000000E+00 0. -1.
          2    1    1    2  501    0  0.19527499603E+02 -0.18349075439E+02 -0.31602357187E+02  0.41433329458E+02  0.00000000000E+00 0. -1.
         -2    1    1    2    0  503 -0.19527499603E+02  0.18349075439E+02 -0.83478048172E+02  0.87673236149E+02  0.00000000000E+00 0.  1.
<mgrwt>
<rscale>  2 0.26795742E+02</rscale>
<asrwt>0</asrwt>
<pdfrwt beam="1">  1       21 0.10789353E-02 0.26795742E+02</pdfrwt>
<pdfrwt beam="2">  1       21 0.18783615E-01 0.26795742E+02</pdfrwt>
<totfact> 0.63644111E+07</totfact>
</mgrwt>
</event>
<event>
 4    1  0.7165636E+004  0.4171585E+02  0.7546771E-02  0.1495951E+00
         21   -1    0    0  503  502  0.00000000000E+00  0.00000000000E+00  0.37303463290E+01  0.37303463290E+01  0.00000000000E+00 0.  1.
         21   -1    0    0  501  503 -0.00000000000E+00 -0.00000000000E+00 -0.51260424497E+03  0.51260424497E+03  0.00000000000E+00 0.  1.
          2    1    1    2  501    0 -0.33308821767E+02 -0.25114430723E+02 -0.17701333930E+03  0.18186240548E+03  0.00000000000E+00 0.  1.
         -2    1    1    2    0  502  0.33308821767E+02  0.25114430723E+02 -0.33186055935E+03  0.33447218582E+03  0.00000000000E+00 0. -1.
<mgrwt>
<rscale>  2 0.41715851E+02</rscale>
<asrwt>0</asrwt>
<pdfrwt beam="1">  1       21 0.57389924E-03 0.41715851E+02</pdfrwt>
<pdfrwt beam="2">  1       21 0.78862218E-01 0.41715851E+02</pdfrwt>
<totfact> 0.11409698E+07</totfact>
</mgrwt>
</event>
<event>
 4    1  0.7165636E+004  0.2119154E+02  0.7546771E-02  0.1722621E+00
         21   -1    0    0  501  502  0.00000000000E+00  0.00000000000E+00  0.40416724281E+02  0.40416724281E+02  0.00000000000E+00 0. -1.
         21   -1    0    0  502  503 -0.00000000000E+00 -0.00000000000E+00 -0.13745714421E+02  0.13745714421E+02  0.00000000000E+00 0. -1.
          1    1    1    2  501    0 -0.11058615063E+02 -0.18077285848E+02  0.14797590074E+01  0.21243138127E+02  0.00000000000E+00 0. -1.
         -1    1    1    2    0  503  0.11058615063E+02  0.18077285848E+02  0.25191250853E+02  0.32919300574E+02  0.00000000000E+00 0.  1.
<mgrwt>
<rscale>  2 0.21191537E+02</rscale>
<asrwt>0</asrwt>
<pdfrwt beam="1">  1       21 0.62179575E-02 0.21191537E+02</pdfrwt>
<pdfrwt beam="2">  1       21 0.21147253E-02 0.21191537E+02</pdfrwt>
<totfact> 0.13549533E+08</totfact>
</mgrwt>
</event>
<event>
 4    1  0.7165636E+004  0.2075641E+02  0.7546771E-02  0.1730691E+00
         21   -1    0    0  501  502  0.00000000000E+00  0.00000000000E+00  0.15743572806E+02  0.15743572806E+02  0.00000000000E+00 0.  1.
         21   -1    0    0  502  503 -0.00000000000E+00 -0.00000000000E+00 -0.30442597434E+02  0.30442597434E+02  0.00000000000E+00 0.  1.
          5    1    1    2  501    0  0.20275996985E+02  0.44398942237E+01 -0.74035384204E-02  0.20756415135E+02  0.00000000000E+00 0. -1.
         -5    1    1    2    0  503 -0.20275996985E+02 -0.44398942237E+01 -0.14691621090E+02  0.25429755105E+02  0.00000000000E+00 0.  1.
<mgrwt>
<rscale>  2 0.20756414E+02</rscale>
<asrwt>0</asrwt>
<pdfrwt beam="1">  1       21 0.24220882E-02 0.20756414E+02</pdfrwt>
<pdfrwt beam="2">  1       21 0.46834765E-02 0.20756414E+02</pdfrwt>
<totfact> 0.17161568E+08</totfact>
</mgrwt>
</event>
<event>
 4    1  0.7165636E+004  0.2568324E+02  0.7546771E-02  0.1651378E+00
         21   -1    0    0  503  502  0.00000000000E+00  0.00000000000E+00  0.56677698721E+01  0.56677698721E+01  0.00000000000E+00 0. -1.
         21   -1    0    0  501  503 -0.00000000000E+00 -0.00000000000E+00 -0.12593449283E+03  0.12593449283E+03  0.00000000000E+00 0. -1.
          5    1    1    2  501    0 -0.24901697334E+02  0.62876369368E+01 -0.78255493266E+02  0.82362316229E+02  0.00000000000E+00 0.  1.
         -5    1    1    2    0  502  0.24901697334E+02 -0.62876369368E+01 -0.42011229688E+02  0.49239946469E+02  0.00000000000E+00 0. -1.
<mgrwt>
<rscale>  2 0.25683242E+02</rscale>
<asrwt>0</asrwt>
<pdfrwt beam="1">  1       21 0.87196456E-03 0.25683242E+02</pdfrwt>
<pdfrwt beam="2">  1       21 0.19374538E-01 0.25683242E+02</pdfrwt>
<totfact> 0.82265413E+07</totfact>
</mgrwt>
</event>
<event>
 4    1  0.7165636E+004  0.2279684E+02  0.7546771E-02  0.1694825E+00
         21   -1    0    0  501  502  0.00000000000E+00  0.00000000000E+00  0.70416478735E+00  0.70416478735E+00  0.00000000000E+00 0.  1.
         21   -1    0    0  502  503 -0.00000000000E+00 -0.00000000000E+00 -0.87587676648E+03  0.87587676648E+03  0.00000000000E+00 0.  1.
          1    1    1    2  501    0  0.94510485333E+01 -0.20745442688E+02 -0.26371150395E+03  0.26469501890E+03  0.00000000000E+00 0.  1.
         -1    1    1    2    0  503 -0.94510485333E+01  0.20745442688E+02 -0.61146109774E+03  0.61188591237E+03  0.00000000000E+00 0. -1.
<mgrwt>
<rscale>  2 0.22796836E+02</rscale>
<asrwt>0</asrwt>
<pdfrwt beam="1">  1       21 0.10833307E-03 0.22796836E+02</pdfrwt>
<pdfrwt beam="2">  1       21 0.13475024E+00 0.22796836E+02</pdfrwt>
<totfact> 0.36177515E+07</totfact>
</mgrwt>
</event>
<event>
 4    1  0.7165636E+004  0.3627588E+02  0.7546771E-02  0.1537554E+00
         21   -1    0    0  501  502  0.00000000000E+00  0.00000000000E+00  0.57988512216E+02  0.57988512216E+02  0.00000000000E+00 0.  1.
         21   -1    0    0  502  503 -0.00000000000E+00 -0.00000000000E+00 -0.25216083297E+02  0.25216083297E+02  0.00000000000E+00 0.  1.
          4    1    1    2  501    0  0.27688834441E+02 -0.23436462221E+02  0.29545593075E+02  0.46785482623E+02  0.00000000000E+00 0.  1.
         -4    1    1    2    0  503 -0.27688834441E+02  0.23436462221E+02  0.32268358448E+01  0.36419112890E+02  0.00000000000E+00 0. -1.
<mgrwt>
<rscale>  2 0.36275878E+02</rscale>
<asrwt>0</asrwt>
<pdfrwt beam="1">  1       21 0.89213095E-02 0.36275878E+02</pdfrwt>
<pdfrwt beam="2">  1       21 0.38793975E-02 0.36275878E+02</pdfrwt>
<totfact> 0.33105729E+07</totfact>
</mgrwt>
</event>
<event>
 4    1  0.7165636E+004  0.2123939E+02  0.7546771E-02  0.1721748E+00
         21   -1    0    0  503  502  0.00000000000E+00  0.00000000000E+00  0.51115486105E+03  0.51115486105E+03  0.00000000000E+00 0. -1.
         21   -1    0    0  501  503 -0.00000000000E+00 -0.00000000000E+00 -0.96222107235E+00  0.96222107235E+00  0.00000000000E+00 0. -1.
          2    1    1    2  501    0  0.62169534916E+01 -0.20309138123E+02  0.32878409817E+03  0.32946941408E+03  0.00000000000E+00 0.  1.
         -2    1    1    2    0  502 -0.62169534916E+01  0.20309138123E+02  0.18140854181E+03  0.18264766804E+03  0.00000000000E+00 0. -1.
<mgrwt>
<rscale>  2 0.21239388E+02</rscale>
<asrwt>0</asrwt>
<pdfrwt beam="1">  1       21 0.78638993E-01 0.21239388E+02</pdfrwt>
<pdfrwt beam="2">  1       21 0.14803442E-03 0.21239388E+02</pdfrwt>
<totfact> 0.74378424E+07</totfact>
</mgrwt>
</event>
<event>
 4    1  0.7165636E+004  0.4643075E+02  0.7546771E-02  0.1465602E+00
         21   -1    0    0  501  502  0.00000000000E+00  0.00000000000E+00  0.64269424876E+02  0.64269424876E+02  0.00000000000E+00 0. -1.
         21   -1    0    0  502  503 -0.00000000000E+00 -0.00000000000E+00 -0.34331783057E+02  0.34331783057E+02  0.00000000000E+00 0. -1.
          5    1    1    2  501    0 -0.40249578084E+02  0.23147052859E+02  0.22439749114E+02  0.51568953182E+02  0.00000000000E+00 0. -1.
         -5    1    1    2    0  503  0.40249578084E+02 -0.23147052859E+02  0.74978927047E+01  0.47032254751E+02  0.00000000000E+00 0.  1.
<mgrwt>
<rscale>  2 0.46430750E+02</rscale>
<asrwt>0</asrwt>
<pdfrwt beam="1">  1       21 0.98876038E-02 0.46430750E+02</pdfrwt>
<pdfrwt beam="2">  1       21 0.52818128E-02 0.46430750E+02</pdfrwt>
<totfact> 0.17594724E+07</totfact>
</mgrwt>
</event>
<event>
 4    1  0.7165636E+004  0.2692762E+02  0.7546771E-02  0.1634765E+00
         21   -1    0    0  501  502  0.00000000000E+00  0.00000000000E+00  0.73016453406E+00  0.73016453406E+00  0.00000000000E+00 0.  1.
         21   -1    0    0  502  503 -0.00000000000E+00 -0.00000000000E+00 -0.19065698814E+04  0.19065698814E+04  0.00000000000E+00 0.  1.
          4    1    1    2  501    0  0.24474316657E+02  0.11229628940E+02 -0.29280511778E+03  0.29404070083E+03  0.00000000000E+00 0.  1.
         -4    1    1    2    0  503 -0.24474316657E+02 -0.11229628940E+02 -0.16130345991E+04  0.16132593451E+04  0.00000000000E+00 0. -1.
<mgrwt>
<rscale>  2 0.26927620E+02</rscale>
<asrwt>0</asrwt>
<pdfrwt beam="1">  1       21 0.11233096E-03 0.26927620E+02</pdfrwt>
<pdfrwt beam="2">  1       21 0.29332378E+00 0.26927620E+02</pdfrwt>
<totfact> 0.44398794E+06</totfact>
</mgrwt>
</event>
<event>
 4    1  0.7165636E+004  0.2361319E+02  0.7546771E-02  0.1681759E+00
         21   -1    0    0  503  502  0.00000000000E+00  0.00000000000E+00  0.22939259004E+02  0.22939259004E+02  0.00000000000E+00 0.  1.
         21   -1    0    0  501  503 -0.00000000000E+00 -0.00000000000E+00 -0.24437837617E+02  0.24437837617E+02  0.00000000000E+00 0.  1.
          5    1    1    2  501    0  0.18152510653E+02  0.15101949270E+02  0.98460219682E+00  0.23633703820E+02  0.00000000000E+00 0.  1.
         -5    1    1    2    0  502 -0.18152510653E+02 -0.15101949270E+02 -0.24831808100E+01  0.23743392801E+02  0.00000000000E+00 0. -1.
<mgrwt>
<rscale>  2 0.23613185E+02</rscale>
<asrwt>0</asrwt>
<pdfrwt beam="1">  1       21 0.35291168E-02 0.23613185E+02</pdfrwt>
<pdfrwt beam="2">  1       21 0.37596673E-02 0.23613185E+02</pdfrwt>
<totfact> 0.14070691E+08</totfact>
</mgrwt>
</event>
<event>
 4    1  0.7165636E+004  0.2440516E+02  0.7546771E-02  0.1669696E+00
         21   -1    0    0  503  502  0.00000000000E+00  0.00000000000E+00  0.24632850876E+02  0.24632850876E+02  0.00000000000E+00 0. -1.
         21   -1    0    0  501  503 -0.00000000000E+00 -0.00000000000E+00 -0.32460528930E+02  0.32460528930E+02  0.00000000000E+00 0. -1.
          5    1    1    2  501    0  0.17715329913E+02  0.16786276749E+02 -0.18332269945E+02  0.30523501149E+02  0.00000000000E+00 0. -1.
         -5    1    1    2    0  502 -0.17715329913E+02 -0.16786276749E+02  0.10504591891E+02  0.26569878657E+02  0.00000000000E+00 0.  1.
<mgrwt>
<rscale>  2 0.24405163E+02</rscale>
<asrwt>0</asrwt>
<pdfrwt beam="1">  1       21 0.37896694E-02 0.24405163E+02</pdfrwt>
<pdfrwt beam="2">  1       21 0.49939275E-02 0.24405163E+02</pdfrwt>
<totfact> 0.81001975E+07</totfact>
</mgrwt>
</event>
<event>
 4    1  0.7165636E+004  0.2212394E+02  0.7546771E-02  0.1706117E+00
         21   -1    0    0  503  502  0.00000000000E+00  0.00000000000E+00  0.32411268169E+02  0.32411268169E+02  0.00000000000E+00 0. -1.
         21   -1    0    0  501  503 -0.00000000000E+00 -0.00000000000E+00 -0.19249784797E+02  0.19249784797E+02  0.00000000000E+00 0. -1.
          2    1    1    2  501    0  0.13348357578E+02  0.17643415805E+02  0.18571273393E+02  0.28885307108E+02  0.00000000000E+00 0.  1.
         -2    1    1    2    0  502 -0.13348357578E+02 -0.17643415805E+02 -0.54097900214E+01  0.22775745858E+02  0.00000000000E+00 0. -1.
<mgrwt>
<rscale>  2 0.22123941E+02</rscale>
<asrwt>0</asrwt>
<pdfrwt beam="1">  1       21 0.49863490E-02 0.22123941E+02</pdfrwt>
<pdfrwt beam="2">  1       21 0.29615054E-02 0.22123941E+02</pdfrwt>
<totfact> 0.11611538E+08</totfact>
</mgrwt>
</event>
<event>
 4    1  0.7165636E+004  0.3305007E+02  0.7546771E-02  0.1566631E+00
         21   -1    0    0  503  502  0.00000000000E+00  0.00000000000E+00  0.67468356746E+02  0.67468356746E+02  0.00000000000E+00 0.  1.
         21   -1    0    0  501  503 -0.00000000000E+00 -0.00000000000E+00 -0.17240454775E+02  0.17240454775E+02  0.00000000000E+00 0.  1.
          3    1    1    2  501    0  0.98733060968E+01  0.31540843150E+02  0.14658795707E+02  0.36155044620E+02  0.00000000000E+00 0. -1.
         -3    1    1    2    0  502 -0.98733060968E+01 -0.31540843150E+02  0.35569106264E+02  0.48553766901E+02  0.00000000000E+00 0.  1.
<mgrwt>
<rscale>  2 0.33050067E+02</rscale>
<asrwt>0</asrwt>
<pdfrwt beam="1">  1       21 0.10379747E-01 0.33050067E+02</pdfrwt>
<pdfrwt beam="2">  1       21 0.26523777E-02 0.33050067E+02</pdfrwt>
<totfact> 0.46056432E+07</totfact>
</mgrwt>
</event>
<event>
 4    1  0.7165636E+004  0.2436530E+02  0.7546771E-02  0.1670289E+00
         21   -1    0    0  501  502  0.00000000000E+00  0.00000000000E+00  0.25447489861E+02  0.25447489861E+02  0.00000000000E+00 0. -1.
         21   -1    0    0  502  503 -0.00000000000E+00 -0.00000000000E+00 -0.26273099291E+02  0.26273099291E+02  0.00000000000E+00 0. -1.
          5    1    1    2  501    0 -0.19942264742E+02 -0.13999076969E+02  0.82437213400E+01  0.25722111511E+02  0.00000000000E+00 0.  1.
         -5    1    1    2    0  503  0.19942264742E+02  0.13999076969E+02 -0.90693307703E+01  0.25998477641E+02  0.00000000000E+00 0. -1.
<mgrwt>
<rscale>  2 0.24365305E+02</rscale>
<asrwt>0</asrwt>
<pdfrwt beam="1">  1       21 0.39149985E-02 0.24365305E+02</pdfrwt>
<pdfrwt beam="2">  1       21 0.40420153E-02 0.24365305E+02</pdfrwt>
<totfact> 0.10760741E+08</totfact>
</mgrwt>
</event>
<event>
 4    1  0.7165636E+004  0.2072093E+02  0.7546771E-02  0.1731360E+00
         21   -1    0    0  501  502  0.00000000000E+00  0.00000000000E+00  0.29209182420E+03  0.29209182420E+03  0.00000000000E+00 0. -1.
         21   -1    0    0  502  503 -0.00000000000E+00 -0.00000000000E+00 -0.18343398436E+01  0.18343398436E+01  0.00000000000E+00 0. -1.
          3    1    1    2  501    0 -0.59703607756E+01 -0.19842169149E+02  0.21063135273E+03  0.21164811277E+03  0.00000000000E+00 0.  1.
         -3    1    1    2    0  503  0.59703607756E+01  0.19842169149E+02  0.79626131624E+02  0.82278051276E+02  0.00000000000E+00 0. -1.
<mgrwt>
<rscale>  2 0.20720929E+02</rscale>
<asrwt>0</asrwt>
<pdfrwt beam="1">  1       21 0.44937167E-01 0.20720929E+02</pdfrwt>
<pdfrwt beam="2">  1       21 0.28220636E-03 0.20720929E+02</pdfrwt>
<totfact> 0.88879290E+07</totfact>
</mgrwt>
</event>
<event>
 4    1  0.7165636E+004  0.2042240E+02  0.7546771E-02  0.1737056E+00
         21   -1    0    0  501  502  0.00000000000E+00  0.00000000000E+00  0.22739206591E+02  0.22739206591E+02  0.00000000000E+00 0. -1.
         21   -1    0    0  502  503 -0.00000000000E+00 -0.00000000000E+00 -0.18966678150E+02  0.18966678150E+02  0.00000000000E+00 0. -1.
          2    1    1    2  501    0 -0.73923454254E+01 -0.19037530649E+02 -0.18992503694E+01  0.20510521594E+02  0.00000000000E+00 0. -1.
         -2    1    1    2    0  503  0.73923454254E+01  0.19037530649E+02  0.56717788104E+01  0.21195363148E+02  0.00000000000E+00 0.  1.
<mgrwt>
<rscale>  2 0.20422398E+02</rscale>
<asrwt>0</asrwt>
<pdfrwt beam="1">  1       21 0.34983395E-02 0.20422398E+02</pdfrwt>
<pdfrwt beam="2">  1       21 0.29179505E-02 0.20422398E+02</pdfrwt>
<totfact> 0.20247195E+08</totfact>
</mgrwt>
</event>
<event>
 4    1  0.7165636E+004  0.2013873E+02  0.7546771E-02  0.1742583E+00
         21   -1    0    0  501  502  0.00000000000E+00  0.00000000000E+00  0.73179990286E+00  0.73179990286E+00  0.00000000000E+00 0.  1.
         21   -1    0    0  502  503 -0.00000000000E+00 -0.00000000000E+00 -0.62705478787E+03  0.62705478787E+03  0.00000000000E+00 0.  1.
          1    1    1    2  501    0  0.62155702630E+01  0.19155552550E+02 -0.20617277867E+03  0.20715400834E+03  0.00000000000E+00 0.  1.
         -1    1    1    2    0  503 -0.62155702630E+01 -0.19155552550E+02 -0.42015020929E+03  0.42063257943E+03  0.00000000000E+00 0. -1.
<mgrwt>
<rscale>  2 0.20138732E+02</rscale>
<asrwt>0</asrwt>
<pdfrwt beam="1">  1       21 0.11258478E-03 0.20138732E+02</pdfrwt>
<pdfrwt beam="2">  1       21 0.96469811E-01 0.20138732E+02</pdfrwt>
<totfact> 0.70324509E+07</totfact>
</mgrwt>
</event>
<event>
 4    1  0.7165636E+004  0.2192432E+02  0.7546771E-02  0.1709564E+00
         21   -1    0    0  503  502  0.00000000000E+00  0.00000000000E+00  0.29786789300E+03  0.29786789300E+03  0.00000000000E+00 0. -1.
         21   -1    0    0  501  503 -0.00000000000E+00 -0.00000000000E+00 -0.18640218836E+01  0.18640218836E+01  0.00000000000E+00 0. -1.
          2    1    1    2  501    0 -0.21461469869E+02  0.44812000818E+01  0.20291911055E+03  0.20410007661E+03  0.00000000000E+00 0. -1.
         -2    1    1    2    0  502  0.21461469869E+02 -0.44812000818E+01  0.93084760563E+02  0.95631838277E+02  0.00000000000E+00 0.  1.
<mgrwt>
<rscale>  2 0.21924321E+02</rscale>
<asrwt>0</asrwt>
<pdfrwt beam="1">  1       21 0.45825792E-01 0.21924321E+02</pdfrwt>
<pdfrwt beam="2">  1       21 0.28677283E-03 0.21924321E+02</pdfrwt>
<totfact> 0.84897831E+07</totfact>
</mgrwt>
</event>
<event>
 4    1  0.7165636E+004  0.2329191E+02  0.7546771E-02  0.1686822E+00
         21   -1    0    0  501  502  0.00000000000E+00  0.00000000000E+00  0.87389026817E+01  0.87389026817E+01  0.00000000000E+00 0. -1.
         21   -1    0    0  502  503 -0.00000000000E+00 -0.00000000000E+00 -0.62877501365E+02  0.62877501365E+02  0.00000000000E+00 0. -1.
          3    1    1    2  501    0  0.86711281032E+00 -0.23275760539E+02 -0.31101511910E+02  0.38856363139E+02  0.00000000000E+00 0. -1.
         -3    1    1    2    0  503 -0.86711281032E+00  0.23275760539E+02 -0.23037086773E+02  0.32760040908E+02  0.00000000000E+00 0.  1.
<mgrwt>
<rscale>  2 0.23291907E+02</rscale>
<asrwt>0</asrwt>
<pdfrwt beam="1">  1       21 0.13444466E-02 0.23291907E+02</pdfrwt>
<pdfrwt beam="2">  1       21 0.96734615E-02 0.23291907E+02</pdfrwt>
<totfact> 0.13544123E+08</totfact>
</mgrwt>
</event>
<event>
 4    1  0.7165636E+004  0.2663783E+02  0.7546771E-02  0.1638534E+00
         21   -1    0    0  501  502  0.00000000000E+00  0.00000000000E+00  0.88958942787E+01  0.88958942787E+01  0.00000000000E+00 0. -1.
         21   -1    0    0  502  503 -0.00000000000E+00 -0.00000000000E+00 -0.98767465140E+02  0.98767465140E+02  0.00000000000E+00 0. -1.
          1    1    1    2  501    0  0.22892822656E+02  0.13619571509E+02 -0.21323127423E+02  0.34121105204E+02  0.00000000000E+00 0.  1.
         -1    1    1    2    0  503 -0.22892822656E+02 -0.13619571509E+02 -0.68548443438E+02  0.73542254215E+02  0.00000000000E+00 0. -1.
<mgrwt>
<rscale>  2 0.26637831E+02</rscale>
<asrwt>0</asrwt>
<pdfrwt beam="1">  1       21 0.13685991E-02 0.26637831E+02</pdfrwt>
<pdfrwt beam="2">  1       21 0.15194995E-01 0.26637831E+02</pdfrwt>
<totfact> 0.63916829E+07</totfact>
</mgrwt>
</event>
<event>
 4    1  0.7165636E+004  0.2068957E+02  0.7546771E-02  0.1731953E+00
         21   -1    0    0  503  502  0.00000000000E+00  0.00000000000E+00  0.17450699348E+01  0.17450699348E+01  0.00000000000E+00 0. -1.
         21   -1    0    0  501  503 -0.00000000000E+00 -0.00000000000E+00 -0.24712344001E+03  0.24712344001E+03  0.00000000000E+00 0. -1.
          2    1    1    2  501    0 -0.12315542740E+02 -0.16624856720E+02 -0.11198830293E+03  0.11388344238E+03  0.00000000000E+00 0.  1.
         -2    1    1    2    0  502  0.12315542740E+02  0.16624856720E+02 -0.13339006714E+03  0.13498506757E+03  0.00000000000E+00 0. -1.
<mgrwt>
<rscale>  2 0.20689574E+02</rscale>
<asrwt>0</asrwt>
<pdfrwt beam="1">  1       21 0.26847228E-03 0.20689574E+02</pdfrwt>
<pdfrwt beam="2">  1       21 0.38018994E-01 0.20689574E+02</pdfrwt>
<totfact> 0.13085909E+08</totfact>
</mgrwt>
</event>
<event>
 4    1  0.7165636E+004  0.2095417E+02  0.7546771E-02  0.1726993E+00
         21   -1    0    0  501  502  0.00000000000E+00  0.00000000000E+00  0.10786176752E+02  0.10786176752E+02  0.00000000000E+00 0. -1.
         21   -1    0    0  502  503 -0.00000000000E+00 -0.00000000000E+00 -0.41304341914E+02  0.41304341914E+02  0.00000000000E+00 0. -1.
          4    1    1    2  501    0 -0.89399078616E+01 -0.18951387836E+02 -0.12127944656E+02  0.24210825989E+02  0.00000000000E+00 0. -1.
         -4    1    1    2    0  503  0.89399078616E+01  0.18951387836E+02 -0.18390220506E+02  0.27879692677E+02  0.00000000000E+00 0.  1.
<mgrwt>
<rscale>  2 0.20954166E+02</rscale>
<asrwt>0</asrwt>
<pdfrwt beam="1">  1       21 0.16594118E-02 0.20954166E+02</pdfrwt>
<pdfrwt beam="2">  1       21 0.63545142E-02 0.20954166E+02</pdfrwt>
<totfact> 0.18877634E+08</totfact>
</mgrwt>
</event>
<event>
 4    1  0.7165636E+004  0.4378125E+02  0.7546771E-02  0.1482097E+00
         21   -1    0    0  501  502  0.00000000000E+00  0.00000000000E+00  0.35172534021E+02  0.35172534021E+02  0.00000000000E+00 0. -1.
         21   -1    0    0  502  503 -0.00000000000E+00 -0.00000000000E+00 -0.54893079221E+02  0.54893079221E+02  0.00000000000E+00 0. -1.
          3    1    1    2  501    0 -0.40080182611E+01 -0.43597399105E+02 -0.13685558131E+02  0.45870381735E+02  0.00000000000E+00 0.  1.
         -3    1    1    2    0  503  0.40080182611E+01  0.43597399105E+02 -0.60349870689E+01  0.44195231508E+02  0.00000000000E+00 0. -1.
<mgrwt>
<rscale>  2 0.43781245E+02</rscale>
<asrwt>0</asrwt>
<pdfrwt beam="1">  1       21 0.54111591E-02 0.43781245E+02</pdfrwt>
<pdfrwt beam="2">  1       21 0.84450891E-02 0.43781245E+02</pdfrwt>
<totfact> 0.21875587E+07</totfact>
</mgrwt>
</event>
<event>
 4    1  0.7165636E+004  0.3268053E+02  0.7546771E-02  0.1570219E+00
         21   -1    0    0  501  502  0.00000000000E+00  0.00000000000E+00  0.33376486910E+02  0.33376486910E+02  0.00000000000E+00 0.  1.
         21   -1    0    0  502  503 -0.00000000000E+00 -0.00000000000E+00 -0.38524375085E+02  0.38524375085E+02  0.00000000000E+00 0.  1.
          4    1    1    2  501    0 -0.23935772997E+02  0.22250748893E+02  0.12221779118E+02  0.34891101159E+02  0.00000000000E+00 0.  1.
         -4    1    1    2    0  503  0.23935772997E+02 -0.22250748893E+02 -0.17369667293E+02  0.37009760836E+02  0.00000000000E+00 0. -1.
<mgrwt>
<rscale>  2 0.32680530E+02</rscale>
<asrwt>0</asrwt>
<pdfrwt beam="1">  1       21 0.51348441E-02 0.32680530E+02</pdfrwt>
<pdfrwt beam="2">  1       21 0.59268269E-02 0.32680530E+02</pdfrwt>
<totfact> 0.40546657E+07</totfact>
</mgrwt>
</event>
<event>
 4    1  0.7165636E+004  0.2305421E+02  0.7546771E-02  0.1690633E+00
         21   -1    0    0  503  502  0.00000000000E+00  0.00000000000E+00  0.18439079238E+02  0.18439079238E+02  0.00000000000E+00 0. -1.
         21   -1    0    0  501  503 -0.00000000000E+00 -0.00000000000E+00 -0.30031339598E+02  0.30031339598E+02  0.00000000000E+00 0. -1.
          1    1    1    2  501    0 -0.12499141991E+02  0.19371832406E+02 -0.93774449111E+00  0.23073270380E+02  0.00000000000E+00 0.  1.
         -1    1    1    2    0  502  0.12499141991E+02 -0.19371832406E+02 -0.10654515869E+02  0.25397148456E+02  0.00000000000E+00 0. -1.
<mgrwt>
<rscale>  2 0.23054207E+02</rscale>
<asrwt>0</asrwt>
<pdfrwt beam="1">  1       21 0.28367815E-02 0.23054207E+02</pdfrwt>
<pdfrwt beam="2">  1       21 0.46202060E-02 0.23054207E+02</pdfrwt>
<totfact> 0.14186481E+08</totfact>
</mgrwt>
</event>
<event>
 4    1  0.7165636E+004  0.3373706E+02  0.7546771E-02  0.1560111E+00
         21   -1    0    0  503  502  0.00000000000E+00  0.00000000000E+00  0.68189435059E+03  0.68189435059E+03  0.00000000000E+00 0. -1.
         21   -1    0    0  501  503 -0.00000000000E+00 -0.00000000000E+00 -0.17115576724E+01  0.17115576724E+01  0.00000000000E+00 0. -1.
          1    1    1    2  501    0 -0.14814330551E+02  0.30310473283E+02  0.28629378156E+03  0.28827472754E+03  0.00000000000E+00 0.  1.
         -1    1    1    2    0  502  0.14814330551E+02 -0.30310473283E+02  0.39388901136E+03  0.39533118072E+03  0.00000000000E+00 0. -1.
<mgrwt>
<rscale>  2 0.33737059E+02</rscale>
<asrwt>0</asrwt>
<pdfrwt beam="1">  1       21 0.10490661E+00 0.33737059E+02</pdfrwt>
<pdfrwt beam="2">  1       21 0.26331711E-03 0.33737059E+02</pdfrwt>
<totfact> 0.18920539E+07</totfact>
</mgrwt>
</event>
<event>
 4    1  0.7165636E+004  0.2093986E+02  0.7546771E-02  0.1727259E+00
         21   -1    0    0  501  502  0.00000000000E+00  0.00000000000E+00  0.29773053475E+01  0.29773053475E+01  0.00000000000E+00 0. -1.
         21   -1    0    0  502  503 -0.00000000000E+00 -0.00000000000E+00 -0.15540767013E+03  0.15540767013E+03  0.00000000000E+00 0. -1.
          1    1    1    2  501    0 -0.16192139303E+02  0.13277519963E+02 -0.58097327130E+02  0.61755787835E+02  0.00000000000E+00 0. -1.
         -1    1    1    2    0  503  0.16192139303E+02 -0.13277519963E+02 -0.94333037657E+02  0.96629187646E+02  0.00000000000E+00 0.  1.
<mgrwt>
<rscale>  2 0.20939864E+02</rscale>
<asrwt>0</asrwt>
<pdfrwt beam="1">  1       21 0.45804691E-03 0.20939864E+02</pdfrwt>
<pdfrwt beam="2">  1       21 0.23908876E-01 0.20939864E+02</pdfrwt>
<totfact> 0.13975687E+08</totfact>
</mgrwt>
</event>
<event>
 4    1  0.7165636E+004  0.6045510E+02  0.7546771E-02  0.1395932E+00
         21   -1    0    0  501  502  0.00000000000E+00  0.00000000000E+00  0.12803380287E+03  0.12803380287E+03  0.00000000000E+00 0. -1.
         21   -1    0    0  502  503 -0.00000000000E+00 -0.00000000000E+00 -0.38836594079E+02  0.38836594079E+02  0.00000000000E+00 0. -1.
          2    1    1    2  501    0 -0.55624258904E+02 -0.23680382994E+02  0.87547756932E+02  0.10639280268E+03  0.00000000000E+00 0.  1.
         -2    1    1    2    0  503  0.55624258904E+02  0.23680382994E+02  0.16494518567E+01  0.60477594271E+02  0.00000000000E+00 0. -1.
<mgrwt>
<rscale>  2 0.60455097E+02</rscale>
<asrwt>0</asrwt>
<pdfrwt beam="1">  1       21 0.19697508E-01 0.60455097E+02</pdfrwt>
<pdfrwt beam="2">  1       21 0.59748607E-02 0.60455097E+02</pdfrwt>
<totfact> 0.44334038E+06</totfact>
</mgrwt>
</event>
<event>
 4    1  0.7165636E+004  0.2061655E+02  0.7546771E-02  0.1733338E+00
         21   -1    0    0  503  502  0.00000000000E+00  0.00000000000E+00  0.47072810315E+00  0.47072810315E+00  0.00000000000E+00 0.  1.
         21   -1    0    0  501  503 -0.00000000000E+00 -0.00000000000E+00 -0.91769438331E+03  0.91769438331E+03  0.00000000000E+00 0.  1.
          3    1    1    2  501    0  0.14881133256E+02 -0.14268630212E+02 -0.40041252232E+03  0.40094292607E+03  0.00000000000E+00 0.  1.
         -3    1    1    2    0  502 -0.14881133256E+02  0.14268630212E+02 -0.51681113289E+03  0.51722218535E+03  0.00000000000E+00 0. -1.
<mgrwt>
<rscale>  2 0.20616545E+02</rscale>
<asrwt>0</asrwt>
<pdfrwt beam="1">  1       21 0.72419583E-04 0.20616545E+02</pdfrwt>
<pdfrwt beam="2">  1       21 0.14118400E+00 0.20616545E+02</pdfrwt>
<totfact> 0.56273303E+07</totfact>
</mgrwt>
</event>
<event>
 4    1  0.7165636E+004  0.4293634E+02  0.7546771E-02  0.1487652E+00
         21   -1    0    0  501  502  0.00000000000E+00  0.00000000000E+00  0.16515945869E+02  0.16515945869E+02  0.00000000000E+00 0. -1.
         21   -1    0    0  502  503 -0.00000000000E+00 -0.00000000000E+00 -0.12087159150E+03  0.12087159150E+03  0.00000000000E+00 0. -1.
          5    1    1    2  501    0  0.42933718258E+02 -0.47468591218E+00 -0.71181409398E+02  0.83128349761E+02  0.00000000000E+00 0. -1.
         -5    1    1    2    0  503 -0.42933718258E+02  0.47468591218E+00 -0.33174236229E+02  0.54259187605E+02  0.00000000000E+00 0.  1.
<mgrwt>
<rscale>  2 0.42936342E+02</rscale>
<asrwt>0</asrwt>
<pdfrwt beam="1">  1       21 0.25409147E-02 0.42936342E+02</pdfrwt>
<pdfrwt beam="2">  1       21 0.18595630E-01 0.42936342E+02</pdfrwt>
<totfact> 0.18869709E+07</totfact>
</mgrwt>
</event>
<event>
 4    1  0.7165636E+004  0.2315386E+02  0.7546771E-02  0.1689028E+00
         21   -1    0    0  501  502  0.00000000000E+00  0.00000000000E+00  0.20054911448E+01  0.20054911448E+01  0.00000000000E+00 0. -1.
         21   -1    0    0  502  503 -0.00000000000E+00 -0.00000000000E+00 -0.28939720419E+03  0.28939720419E+03  0.00000000000E+00 0. -1.
          5    1    1    2  501    0 -0.23151006179E+02  0.36339327245E+00 -0.18394174766E+03  0.18539327839E+03  0.00000000000E+00 0. -1.
         -5    1    1    2    0  503  0.23151006179E+02 -0.36339327245E+00 -0.10344996539E+03  0.10600941694E+03  0.00000000000E+00 0.  1.
<mgrwt>
<rscale>  2 0.23153858E+02</rscale>
<asrwt>0</asrwt>
<pdfrwt beam="1">  1       21 0.30853721E-03 0.23153858E+02</pdfrwt>
<pdfrwt beam="2">  1       21 0.44522630E-01 0.23153858E+02</pdfrwt>
<totfact> 0.81793821E+07</totfact>
</mgrwt>
</event>
<event>
 4    1  0.7165636E+004  0.2081729E+02  0.7546771E-02  0.1729547E+00
         21   -1    0    0  501  502  0.00000000000E+00  0.00000000000E+00  0.85452204272E+02  0.85452204272E+02  0.00000000000E+00 0.  1.
         21   -1    0    0  502  503 -0.00000000000E+00 -0.00000000000E+00 -0.51195307136E+01  0.51195307136E+01  0.00000000000E+00 0.  1.
          4    1    1    2  501    0 -0.20568194236E+02  0.32107260961E+01  0.44558854679E+02  0.49181814795E+02  0.00000000000E+00 0. -1.
         -4    1    1    2    0  503  0.20568194236E+02 -0.32107260961E+01  0.35773818879E+02  0.41389920191E+02  0.00000000000E+00 0.  1.
<mgrwt>
<rscale>  2 0.20817286E+02</rscale>
<asrwt>0</asrwt>
<pdfrwt beam="1">  1       21 0.13146492E-01 0.20817286E+02</pdfrwt>
<pdfrwt beam="2">  1       21 0.78762018E-03 0.20817286E+02</pdfrwt>
<totfact> 0.17531306E+08</totfact>
</mgrwt>
</event>
<event>
 4    1  0.7165636E+004  0.3448603E+02  0.7546771E-02  0.1553213E+00
         21   -1    0    0  501  502  0.00000000000E+00  0.00000000000E+00  0.33643485319E+02  0.33643485319E+02  0.00000000000E+00 0. -1.
         21   -1    0    0  502  503 -0.00000000000E+00 -0.00000000000E+00 -0.39007448863E+02  0.39007448863E+02  0.00000000000E+00 0. -1.
          1    1    1    2  501    0 -0.34480521076E+02  0.61659007008E+00  0.84416198616E+01  0.35504189370E+02  0.00000000000E+00 0.  1.
         -1    1    1    2    0  503  0.34480521076E+02 -0.61659007008E+00 -0.13805583405E+02  0.37146744812E+02  0.00000000000E+00 0. -1.
<mgrwt>
<rscale>  2 0.34486034E+02</rscale>
<asrwt>0</asrwt>
<pdfrwt beam="1">  1       21 0.51759209E-02 0.34486034E+02</pdfrwt>
<pdfrwt beam="2">  1       21 0.60011459E-02 0.34486034E+02</pdfrwt>
<totfact> 0.39658354E+07</totfact>
</mgrwt>
</event>
<event>
 4    1  0.7165636E+004  0.2998444E+02  0.7546771E-02  0.1598261E+00
         21   -1    0    0  501  502  0.00000000000E+00  0.00000000000E+00  0.13758556256E+01  0.13758556256E+01  0.00000000000E+00 0. -1.
         21   -1    0    0  502  503 -0.00000000000E+00 -0.00000000000E+00 -0.12055787366E+04  0.12055787366E+04  0.00000000000E+00 0. -1.
          1    1    1    2  501    0 -0.14199112363E+02  0.26409309407E+02 -0.10104955284E+04  0.10109402947E+04  0.00000000000E+00 0. -1.
         -1    1    1    2    0  503  0.14199112363E+02 -0.26409309407E+02 -0.19370735249E+03  0.19601429749E+03  0.00000000000E+00 0.  1.
<mgrwt>
<rscale>  2 0.29984436E+02</rscale>
<asrwt>0</asrwt>
<pdfrwt beam="1">  1       21 0.21166972E-03 0.29984436E+02</pdfrwt>
<pdfrwt beam="2">  1       21 0.18547398E+00 0.29984436E+02</pdfrwt>
<totfact> 0.65952043E+06</totfact>
</mgrwt>
</event>
<event>
 4    1  0.7165636E+004  0.3209759E+02  0.7546771E-02  0.1575996E+00
         21   -1    0    0  501  502  0.00000000000E+00  0.00000000000E+00  0.10894427163E+03  0.10894427163E+03  0.00000000000E+00 0.  1.
         21   -1    0    0  502  503 -0.00000000000E+00 -0.00000000000E+00 -0.17921413617E+02  0.17921413617E+02  0.00000000000E+00 0.  1.
          3    1    1    2  501    0 -0.30566549428E+02  0.97949612656E+01  0.89106132253E+02  0.94710918142E+02  0.00000000000E+00 0.  1.
         -3    1    1    2    0  503  0.30566549428E+02 -0.97949612656E+01  0.19167257616E+01  0.32154767108E+02  0.00000000000E+00 0. -1.
<mgrwt>
<rscale>  2 0.32097589E+02</rscale>
<asrwt>0</asrwt>
<pdfrwt beam="1">  1       21 0.16760657E-01 0.32097589E+02</pdfrwt>
<pdfrwt beam="2">  1       21 0.27571406E-02 0.32097589E+02</pdfrwt>
<totfact> 0.18989771E+07</totfact>
</mgrwt>
</event>
<event>
 4    1  0.7165636E+004  0.2136014E+02  0.7546771E-02  0.1719559E+00
         21   -1    0    0  503  502  0.00000000000E+00  0.00000000000E+00  0.17463102351E+02  0.17463102351E+02  0.00000000000E+00 0. -1.
         21   -1    0    0  501  503 -0.00000000000E+00 -0.00000000000E+00 -0.27261447089E+02  0.27261447089E+02  0.00000000000E+00 0. -1.
          3    1    1    2  501    0 -0.18182099895E+02 -0.11210124495E+02 -0.94612706448E+01  0.23361748436E+02  0.00000000000E+00 0.  1.
         -3    1    1    2    0  502  0.18182099895E+02  0.11210124495E+02 -0.33707409271E+00  0.21362801004E+02  0.00000000000E+00 0. -1.
<mgrwt>
<rscale>  2 0.21360142E+02</rscale>
<asrwt>0</asrwt>
<pdfrwt beam="1">  1       21 0.26866311E-02 0.21360142E+02</pdfrwt>
<pdfrwt beam="2">  1       21 0.41940688E-02 0.21360142E+02</pdfrwt>
<totfact> 0.17565820E+08</totfact>
</mgrwt>
</event>
<event>
 4    1  0.7165636E+004  0.3766535E+02  0.7546771E-02  0.1526130E+00
         21   -1    0    0  503  502  0.00000000000E+00  0.00000000000E+00  0.19764977129E+02  0.19764977129E+02  0.00000000000E+00 0.  1.
         21   -1    0    0  501  503 -0.00000000000E+00 -0.00000000000E+00 -0.10416783783E+03  0.10416783783E+03  0.00000000000E+00 0.  1.
          3    1    1    2  501    0 -0.11544012597E+02  0.35852673636E+02 -0.76755402816E+02  0.85498949088E+02  0.00000000000E+00 0.  1.
         -3    1    1    2    0  502  0.11544012597E+02 -0.35852673636E+02 -0.76474578859E+01  0.38433865871E+02  0.00000000000E+00 0. -1.
<mgrwt>
<rscale>  2 0.37665348E+02</rscale>
<asrwt>0</asrwt>
<pdfrwt beam="1">  1       21 0.30407657E-02 0.37665348E+02</pdfrwt>
<pdfrwt beam="2">  1       21 0.16025821E-01 0.37665348E+02</pdfrwt>
<totfact> 0.18074868E+07</totfact>
</mgrwt>
</event>
<event>
 4    1  0.7165636E+004  0.6897622E+02  0.7546771E-02  0.1363609E+00
         21   -1    0    0  501  502  0.00000000000E+00  0.00000000000E+00  0.84548731563E+02  0.84548731563E+02  0.00000000000E+00 0. -1.
         21   -1    0    0  502  503 -0.00000000000E+00 -0.00000000000E+00 -0.10265869019E+03  0.10265869019E+03  0.00000000000E+00 0. -1.
          3    1    1    2  501    0  0.60384864082E+02  0.33337480965E+02 -0.71975495232E+02  0.99690477786E+02  0.00000000000E+00 0. -1.
         -3    1    1    2    0  503 -0.60384864082E+02 -0.33337480965E+02  0.53865536606E+02  0.87516943966E+02  0.00000000000E+00 0.  1.
<mgrwt>
<rscale>  2 0.68976224E+02</rscale>
<asrwt>0</asrwt>
<pdfrwt beam="1">  1       21 0.13007497E-01 0.68976224E+02</pdfrwt>
<pdfrwt beam="2">  1       21 0.15793645E-01 0.68976224E+02</pdfrwt>
<totfact> 0.17650343E+06</totfact>
</mgrwt>
</event>
<event>
 4    1  0.7165636E+004  0.2135386E+02  0.7546771E-02  0.1719672E+00
         21   -1    0    0  501  502  0.00000000000E+00  0.00000000000E+00  0.85607456000E+03  0.85607456000E+03  0.00000000000E+00 0.  1.
         21   -1    0    0  502  503 -0.00000000000E+00 -0.00000000000E+00 -0.53731768470E+00  0.53731768470E+00  0.00000000000E+00 0.  1.
          1    1    1    2  501    0  0.21289633981E+02 -0.16549468279E+01  0.46769225443E+03  0.46817948718E+03  0.00000000000E+00 0. -1.
         -1    1    1    2    0  503 -0.21289633981E+02  0.16549468279E+01  0.38784498789E+03  0.38843239050E+03  0.00000000000E+00 0.  1.
<mgrwt>
<rscale>  2 0.21353861E+02</rscale>
<asrwt>0</asrwt>
<pdfrwt beam="1">  1       21 0.13170269E+00 0.21353861E+02</pdfrwt>
<pdfrwt beam="2">  1       21 0.82664945E-04 0.21353861E+02</pdfrwt>
<totfact> 0.55235604E+07</totfact>
</mgrwt>
</event>
<event>
 4    1  0.7165636E+004  0.2146418E+02  0.7546771E-02  0.1717687E+00
         21   -1    0    0  501  502  0.00000000000E+00  0.00000000000E+00  0.22323916614E+02  0.22323916614E+02  0.00000000000E+00 0. -1.
         21   -1    0    0  502  503 -0.00000000000E+00 -0.00000000000E+00 -0.20765434877E+02  0.20765434877E+02  0.00000000000E+00 0. -1.
          4    1    1    2  501    0 -0.34171187252E+00 -0.21461464534E+02 -0.91142436381E+00  0.21483526743E+02  0.00000000000E+00 0. -1.
         -4    1    1    2    0  503  0.34171187252E+00  0.21461464534E+02  0.24699061004E+01  0.21605824749E+02  0.00000000000E+00 0.  1.
<mgrwt>
<rscale>  2 0.21464185E+02</rscale>
<asrwt>0</asrwt>
<pdfrwt beam="1">  1       21 0.34344487E-02 0.21464185E+02</pdfrwt>
<pdfrwt beam="2">  1       21 0.31946823E-02 0.21464185E+02</pdfrwt>
<totfact> 0.18394296E+08</totfact>
</mgrwt>
</event>
<event>
 4    1  0.7165636E+004  0.2298722E+02  0.7546771E-02  0.1691717E+00
         21   -1    0    0  501  502  0.00000000000E+00  0.00000000000E+00  0.15222024270E+02  0.15222024270E+02  0.00000000000E+00 0.  1.
         21   -1    0    0  502  503 -0.00000000000E+00 -0.00000000000E+00 -0.38611117868E+02  0.38611117868E+02  0.00000000000E+00 0.  1.
          2    1    1    2  501    0 -0.20039394467E+02  0.11262105057E+02 -0.20246270356E+02  0.30632071498E+02  0.00000000000E+00 0.  1.
         -2    1    1    2    0  503  0.20039394467E+02 -0.11262105057E+02 -0.31428232426E+01  0.23201070640E+02  0.00000000000E+00 0. -1.
<mgrwt>
<rscale>  2 0.22987221E+02</rscale>
<asrwt>0</asrwt>
<pdfrwt beam="1">  1       21 0.23418499E-02 0.22987221E+02</pdfrwt>
<pdfrwt beam="2">  1       21 0.59401719E-02 0.22987221E+02</pdfrwt>
<totfact> 0.12772465E+08</totfact>
</mgrwt>
</event>
<event>
 4    1  0.7165636E+004  0.2178960E+02  0.7546771E-02  0.1711916E+00
         21   -1    0    0  503  502  0.00000000000E+00  0.00000000000E+00  0.72229893164E+02  0.72229893164E+02  0.00000000000E+00 0.  1.
         21   -1    0    0  501  503 -0.00000000000E+00 -0.00000000000E+00 -0.77638694345E+01  0.77638694345E+01  0.00000000000E+00 0.  1.
          3    1    1    2  501    0  0.15570413934E+02 -0.15242998734E+02  0.47895808951E+02  0.52619343549E+02  0.00000000000E+00 0. -1.
         -3    1    1    2    0  502 -0.15570413934E+02  0.15242998734E+02  0.16570214778E+02  0.27374419049E+02  0.00000000000E+00 0.  1.
<mgrwt>
<rscale>  2 0.21789603E+02</rscale>
<asrwt>0</asrwt>
<pdfrwt beam="1">  1       21 0.11112291E-01 0.21789603E+02</pdfrwt>
<pdfrwt beam="2">  1       21 0.11944415E-02 0.21789603E+02</pdfrwt>
<totfact> 0.12620099E+08</totfact>
</mgrwt>
</event>
<event>
 4    1  0.7165636E+004  0.2724526E+02  0.7546771E-02  0.1630700E+00
         21   -1    0    0  503  502  0.00000000000E+00  0.00000000000E+00  0.15855202031E+03  0.15855202031E+03  0.00000000000E+00 0.  1.
         21   -1    0    0  501  503 -0.00000000000E+00 -0.00000000000E+00 -0.47176142015E+01  0.47176142015E+01  0.00000000000E+00 0.  1.
          4    1    1    2  501    0  0.16619137650E+02 -0.21589547096E+02  0.84032884356E+02  0.88339288730E+02  0.00000000000E+00 0.  1.
         -4    1    1    2    0  502 -0.16619137650E+02  0.21589547096E+02  0.69801521750E+02  0.74930345779E+02  0.00000000000E+00 0. -1.
<mgrwt>
<rscale>  2 0.27245262E+02</rscale>
<asrwt>0</asrwt>
<pdfrwt beam="1">  1       21 0.24392614E-01 0.27245262E+02</pdfrwt>
<pdfrwt beam="2">  1       21 0.72578692E-03 0.27245262E+02</pdfrwt>
<totfact> 0.73114486E+07</totfact>
</mgrwt>
</event>
<event>
 4    1  0.7165636E+004  0.2067877E+02  0.7546771E-02  0.1732157E+00
         21   -1    0    0  503  502  0.00000000000E+00  0.00000000000E+00  0.39138061124E+01  0.39138061124E+01  0.00000000000E+00 0.  1.
         21   -1    0    0  501  503 -0.00000000000E+00 -0.00000000000E+00 -0.11154805648E+03  0.11154805648E+03  0.00000000000E+00 0.  1.
          1    1    1    2  501    0  0.12553547809E+02  0.16432282547E+02 -0.62090393375E+02  0.65443322209E+02  0.00000000000E+00 0.  1.
         -1    1    1    2    0  502 -0.12553547809E+02 -0.16432282547E+02 -0.45543856991E+02  0.50018540382E+02  0.00000000000E+00 0. -1.
<mgrwt>
<rscale>  2 0.20678769E+02</rscale>
<asrwt>0</asrwt>
<pdfrwt beam="1">  1       21 0.60212396E-03 0.20678769E+02</pdfrwt>
<pdfrwt beam="2">  1       21 0.17161241E-01 0.20678769E+02</pdfrwt>
<totfact> 0.16576181E+08</totfact>
</mgrwt>
</event>
<event>
 4    1  0.7165636E+004  0.3158645E+02  0.7546771E-02  0.1581187E+00
         21   -1    0    0  501  502  0.00000000000E+00  0.00000000000E+00  0.63537581232E+02  0.63537581232E+02  0.00000000000E+00 0. -1.
         21   -1    0    0  502  503 -0.00000000000E+00 -0.00000000000E+00 -0.35289788268E+02  0.35289788268E+02  0.00000000000E+00 0. -1.
          1    1    1    2  501    0  0.30474680256E+02 -0.83064665909E+01  0.50937561752E+02  0.59936122007E+02  0.00000000000E+00 0. -1.
         -1    1    1    2    0  503 -0.30474680256E+02  0.83064665909E+01 -0.22689768788E+02  0.38891247493E+02  0.00000000000E+00 0.  1.
<mgrwt>
<rscale>  2 0.31586445E+02</rscale>
<asrwt>0</asrwt>
<pdfrwt beam="1">  1       21 0.97750125E-02 0.31586445E+02</pdfrwt>
<pdfrwt beam="2">  1       21 0.54291982E-02 0.31586445E+02</pdfrwt>
<totfact> 0.16134171E+07</totfact>
</mgrwt>
</event>
<event>
 4    1  0.7165636E+004  0.2006439E+02  0.7546771E-02  0.1744051E+00
         21   -1    0    0  501  502  0.00000000000E+00  0.00000000000E+00  0.19871350767E+01  0.19871350767E+01  0.00000000000E+00 0. -1.
         21   -1    0    0  502  503 -0.00000000000E+00 -0.00000000000E+00 -0.20925150510E+03  0.20925150510E+03  0.00000000000E+00 0. -1.
          1    1    1    2  501    0 -0.19968080718E+02 -0.19635724820E+01 -0.84791615381E+02  0.87133219287E+02  0.00000000000E+00 0. -1.
         -1    1    1    2    0  503  0.19968080718E+02  0.19635724820E+01 -0.12247275465E+03  0.12410542089E+03  0.00000000000E+00 0.  1.
<mgrwt>
<rscale>  2 0.20064393E+02</rscale>
<asrwt>0</asrwt>
<pdfrwt beam="1">  1       21 0.30571305E-03 0.20064393E+02</pdfrwt>
<pdfrwt beam="2">  1       21 0.32192544E-01 0.20064393E+02</pdfrwt>
<totfact> 0.14596319E+08</totfact>
</mgrwt>
</event>
<event>
 4    1  0.7165636E+004  0.2349378E+02  0.7546771E-02  0.1683629E+00
         21   -1    0    0  501  502  0.00000000000E+00  0.00000000000E+00  0.66349099874E+01  0.66349099874E+01  0.00000000000E+00 0. -1.
         21   -1    0    0  502  503 -0.00000000000E+00 -0.00000000000E+00 -0.83380456293E+02  0.83380456293E+02  0.00000000000E+00 0. -1.
          1    1    1    2  501    0 -0.17894281990E+02 -0.15223418753E+02 -0.36221412367E+02  0.43173470098E+02  0.00000000000E+00 0.  1.
         -1    1    1    2    0  503  0.17894281990E+02  0.15223418753E+02 -0.40524133938E+02  0.46841896182E+02  0.00000000000E+00 0. -1.
<mgrwt>
<rscale>  2 0.23493782E+02</rscale>
<asrwt>0</asrwt>
<pdfrwt beam="1">  1       21 0.10207554E-02 0.23493782E+02</pdfrwt>
<pdfrwt beam="2">  1       21 0.12827762E-01 0.23493782E+02</pdfrwt>
<totfact> 0.12855312E+08</totfact>
</mgrwt>
</event>
<event>
 4    1  0.7165636E+004  0.2096776E+02  0.7546771E-02  0.1726741E+00
         21   -1    0    0  503  502  0.00000000000E+00  0.00000000000E+00  0.49019377085E+03  0.49019377085E+03  0.00000000000E+00 0. -1.
         21   -1    0    0  501  503 -0.00000000000E+00 -0.00000000000E+00 -0.99140355981E+00  0.99140355981E+00  0.00000000000E+00 0. -1.
          1    1    1    2  501    0 -0.19205931474E+02  0.84130302158E+01  0.32043295222E+03  0.32111823951E+03  0.00000000000E+00 0. -1.
         -1    1    1    2    0  502  0.19205931474E+02 -0.84130302158E+01  0.16876941507E+03  0.17006693490E+03  0.00000000000E+00 0.  1.
<mgrwt>
<rscale>  2 0.20967758E+02</rscale>
<asrwt>0</asrwt>
<pdfrwt beam="1">  1       21 0.75414233E-01 0.20967758E+02</pdfrwt>
<pdfrwt beam="2">  1       21 0.15252402E-03 0.20967758E+02</pdfrwt>
<totfact> 0.77486953E+07</totfact>
</mgrwt>
</event>
<event>
 4    1  0.7165636E+004  0.3924359E+02  0.7546771E-02  0.1513853E+00
         21   -1    0    0  503  502  0.00000000000E+00  0.00000000000E+00  0.54736492078E+02  0.54736492078E+02  0.00000000000E+00 0.  1.
         21   -1    0    0  501  503 -0.00000000000E+00 -0.00000000000E+00 -0.35459843153E+02  0.35459843153E+02  0.00000000000E+00 0.  1.
          2    1    1    2  501    0  0.11713877719E+02 -0.37454566077E+02  0.30134060731E+02  0.49478490957E+02  0.00000000000E+00 0. -1.
         -2    1    1    2    0  502 -0.11713877719E+02  0.37454566077E+02 -0.10857411805E+02  0.40717844275E+02  0.00000000000E+00 0.  1.
<mgrwt>
<rscale>  2 0.39243591E+02</rscale>
<asrwt>0</asrwt>
<pdfrwt beam="1">  1       21 0.84209987E-02 0.39243591E+02</pdfrwt>
<pdfrwt beam="2">  1       21 0.54553605E-02 0.39243591E+02</pdfrwt>
<totfact> 0.21309856E+07</totfact>
</mgrwt>
</event>
<event>
 4    1  0.7165636E+004  0.3945817E+02  0.7546771E-02  0.1512237E+00
         21   -1    0    0  503  502  0.00000000000E+00  0.00000000000E+00  0.26747992926E+02  0.26747992926E+02  0.00000000000E+00 0. -1.
         21   -1    0    0  501  503 -0.00000000000E+00 -0.00000000000E+00 -0.60558960246E+02  0.60558960246E+02  0.00000000000E+00 0. -1.
          5    1    1    2  501    0  0.91936175834E+00 -0.39447453429E+02 -0.83043928672E+01  0.40322571210E+02  0.00000000000E+00 0. -1.
         -5    1    1    2    0  502 -0.91936175834E+00  0.39447453429E+02 -0.25506574453E+02  0.46984381963E+02  0.00000000000E+00 0.  1.
<mgrwt>
<rscale>  2 0.39458165E+02</rscale>
<asrwt>0</asrwt>
<pdfrwt beam="1">  1       21 0.41150759E-02 0.39458165E+02</pdfrwt>
<pdfrwt beam="2">  1       21 0.93167630E-02 0.39458165E+02</pdfrwt>
<totfact> 0.28426308E+07</totfact>
</mgrwt>
</event>
<event>
 4    1  0.7165636E+004  0.2165305E+02  0.7546771E-02  0.1714322E+00
         21   -1    0    0  501  502  0.00000000000E+00  0.00000000000E+00  0.62637617077E+01  0.62637617077E+01  0.00000000000E+00 0.  1.
         21   -1    0    0  502  503 -0.00000000000E+00 -0.00000000000E+00 -0.13002327498E+03  0.13002327498E+03  0.00000000000E+00 0.  1.
          1    1    1    2  501    0  0.10617685114E+02  0.18871119952E+02 -0.10626830514E+03  0.10845186528E+03  0.00000000000E+00 0.  1.
         -1    1    1    2    0  503 -0.10617685114E+02 -0.18871119952E+02 -0.17491208136E+02  0.27835171411E+02  0.00000000000E+00 0. -1.
<mgrwt>
<rscale>  2 0.21653046E+02</rscale>
<asrwt>0</asrwt>
<pdfrwt beam="1">  1       21 0.96365571E-03 0.21653046E+02</pdfrwt>
<pdfrwt beam="2">  1       21 0.20003580E-01 0.21653046E+02</pdfrwt>
<totfact> 0.64070236E+07</totfact>
</mgrwt>
</event>
<event>
 4    1  0.7165636E+004  0.2817209E+02  0.7546771E-02  0.1619219E+00
         21   -1    0    0  501  502  0.00000000000E+00  0.00000000000E+00  0.12448348667E+03  0.12448348667E+03  0.00000000000E+00 0.  1.
         21   -1    0    0  502  503 -0.00000000000E+00 -0.00000000000E+00 -0.63770281732E+01  0.63770281732E+01  0.00000000000E+00 0.  1.
          5    1    1    2  501    0 -0.24752565473E+01 -0.28063143713E+02  0.58102027203E+02  0.64571762366E+02  0.00000000000E+00 0.  1.
         -5    1    1    2    0  503  0.24752565473E+01  0.28063143713E+02  0.60004431294E+02  0.66288752477E+02  0.00000000000E+00 0. -1.
<mgrwt>
<rscale>  2 0.28172095E+02</rscale>
<asrwt>0</asrwt>
<pdfrwt beam="1">  1       21 0.19151304E-01 0.28172095E+02</pdfrwt>
<pdfrwt beam="2">  1       21 0.98108135E-03 0.28172095E+02</pdfrwt>
<totfact> 0.71889382E+07</totfact>
</mgrwt>
</event>
<event>
 4    1  0.7165636E+004  0.2365797E+02  0.7546771E-02  0.1681061E+00
         21   -1    0    0  503  502  0.00000000000E+00  0.00000000000E+00  0.16938508564E+04  0.16938508564E+04  0.00000000000E+00 0.  1.
         21   -1    0    0  501  503 -0.00000000000E+00 -0.00000000000E+00 -0.41247386568E+00  0.41247386568E+00  0.00000000000E+00 0.  1.
          5    1    1    2  501    0 -0.89677075507E+01 -0.21892455191E+02  0.46890750411E+03  0.46950393692E+03  0.00000000000E+00 0.  1.
         -5    1    1    2    0  502  0.89677075507E+01  0.21892455191E+02  0.12245308784E+04  0.12247593934E+04  0.00000000000E+00 0. -1.
<mgrwt>
<rscale>  2 0.23657966E+02</rscale>
<asrwt>0</asrwt>
<pdfrwt beam="1">  1       21 0.26058687E+00 0.23657966E+02</pdfrwt>
<pdfrwt beam="2">  1       21 0.63458874E-04 0.23657966E+02</pdfrwt>
<totfact> 0.14413574E+07</totfact>
</mgrwt>
</event>
<event>
 4    1  0.7165636E+004  0.2219488E+02  0.7546771E-02  0.1704903E+00
         21   -1    0    0  501  502  0.00000000000E+00  0.00000000000E+00  0.79114149878E+01  0.79114149878E+01  0.00000000000E+00 0.  1.
         21   -1    0    0  502  503 -0.00000000000E+00 -0.00000000000E+00 -0.62360033967E+02  0.62360033967E+02  0.00000000000E+00 0.  1.
          1    1    1    2  501    0  0.11048799242E+02 -0.19249330971E+02 -0.25860417758E+02  0.34078936517E+02  0.00000000000E+00 0.  1.
         -1    1    1    2    0  503 -0.11048799242E+02  0.19249330971E+02 -0.28588201221E+02  0.36192512437E+02  0.00000000000E+00 0. -1.
<mgrwt>
<rscale>  2 0.22194880E+02</rscale>
<asrwt>0</asrwt>
<pdfrwt beam="1">  1       21 0.12171407E-02 0.22194880E+02</pdfrwt>
<pdfrwt beam="2">  1       21 0.95938516E-02 0.22194880E+02</pdfrwt>
<totfact> 0.15729429E+08</totfact>
</mgrwt>
</event>
<event>
 4    1  0.7165636E+004  0.2598131E+02  0.7546771E-02  0.1647294E+00
         21   -1    0    0  503  502  0.00000000000E+00  0.00000000000E+00  0.90591071521E+01  0.90591071521E+01  0.00000000000E+00 0. -1.
         21   -1    0    0  501  503 -0.00000000000E+00 -0.00000000000E+00 -0.74870524869E+02  0.74870524869E+02  0.00000000000E+00 0. -1.
          4    1    1    2  501    0  0.43668170352E+01  0.25611704882E+02 -0.30009063886E+02  0.39693480992E+02  0.00000000000E+00 0. -1.
         -4    1    1    2    0  502 -0.43668170352E+01 -0.25611704882E+02 -0.35802353832E+02  0.44236151029E+02  0.00000000000E+00 0.  1.
<mgrwt>
<rscale>  2 0.25981311E+02</rscale>
<asrwt>0</asrwt>
<pdfrwt beam="1">  1       21 0.13937088E-02 0.25981311E+02</pdfrwt>
<pdfrwt beam="2">  1       21 0.11518542E-01 0.25981311E+02</pdfrwt>
<totfact> 0.98834029E+07</totfact>
</mgrwt>
</event>
<event>
 4    1  0.7165636E+004  0.2051148E+02  0.7546771E-02  0.1735344E+00
         21   -1    0    0  501  502  0.00000000000E+00  0.00000000000E+00  0.18528907600E+03  0.18528907600E+03  0.00000000000E+00 0.  1.
         21   -1    0    0  502  503 -0.00000000000E+00 -0.00000000000E+00 -0.28112719249E+01  0.28112719249E+01  0.00000000000E+00 0.  1.
          5    1    1    2  501    0 -0.20391621355E+02 -0.22141405882E+01  0.13248358881E+03  0.13406200784E+03  0.00000000000E+00 0.  1.
         -5    1    1    2    0  503  0.20391621355E+02  0.22141405882E+01  0.49994215265E+02  0.54038340093E+02  0.00000000000E+00 0. -1.
<mgrwt>
<rscale>  2 0.20511476E+02</rscale>
<asrwt>0</asrwt>
<pdfrwt beam="1">  1       21 0.28506002E-01 0.20511476E+02</pdfrwt>
<pdfrwt beam="2">  1       21 0.43250352E-03 0.20511476E+02</pdfrwt>
<totfact> 0.11043908E+08</totfact>
</mgrwt>
</event>
<event>
 4    1  0.7165636E+004  0.2279729E+02  0.7546771E-02  0.1694817E+00
         21   -1    0    0  503  502  0.00000000000E+00  0.00000000000E+00  0.30349303455E+03  0.30349303455E+03  0.00000000000E+00 0. -1.
         21   -1    0    0  501  503 -0.00000000000E+00 -0.00000000000E+00 -0.17223162925E+01  0.17223162925E+01  0.00000000000E+00 0. -1.
          1    1    1    2  501    0 -0.19639109058E+02  0.11576782766E+02  0.16243603252E+03  0.16402798897E+03  0.00000000000E+00 0.  1.
         -1    1    1    2    0  502  0.19639109058E+02 -0.11576782766E+02  0.13933468574E+03  0.14118736188E+03  0.00000000000E+00 0. -1.
<mgrwt>
<rscale>  2 0.22797292E+02</rscale>
<asrwt>0</asrwt>
<pdfrwt beam="1">  1       21 0.46691194E-01 0.22797292E+02</pdfrwt>
<pdfrwt beam="2">  1       21 0.26497198E-03 0.22797292E+02</pdfrwt>
<totfact> 0.92808370E+07</totfact>
</mgrwt>
</event>
<event>
 4    1  0.7165636E+004  0.2736009E+02  0.7546771E-02  0.1629248E+00
         21   -1    0    0  503  502  0.00000000000E+00  0.00000000000E+00  0.56791758086E+03  0.56791758086E+03  0.00000000000E+00 0. -1.
         21   -1    0    0  501  503 -0.00000000000E+00 -0.00000000000E+00 -0.13409133789E+01  0.13409133789E+01  0.00000000000E+00 0. -1.
          2    1    1    2  501    0 -0.77039920505E+01 -0.26253054319E+02  0.24616583174E+03  0.24768163248E+03  0.00000000000E+00 0. -1.
         -2    1    1    2    0  502  0.77039920505E+01  0.26253054319E+02  0.32041083575E+03  0.32157686176E+03  0.00000000000E+00 0.  1.
<mgrwt>
<rscale>  2 0.27360087E+02</rscale>
<asrwt>0</asrwt>
<pdfrwt beam="1">  1       21 0.87371744E-01 0.27360087E+02</pdfrwt>
<pdfrwt beam="2">  1       21 0.20629482E-03 0.27360087E+02</pdfrwt>
<totfact> 0.39002247E+07</totfact>
</mgrwt>
</event>
<event>
 4    1  0.7165636E+004  0.2720440E+02  0.7546771E-02  0.1631219E+00
         21   -1    0    0  501  502  0.00000000000E+00  0.00000000000E+00  0.11551352420E+03  0.11551352420E+03  0.00000000000E+00 0.  1.
         21   -1    0    0  502  503 -0.00000000000E+00 -0.00000000000E+00 -0.17178431601E+02  0.17178431601E+02  0.00000000000E+00 0.  1.
          4    1    1    2  501    0  0.18749321933E+02 -0.19711474107E+02 -0.33690977685E+01  0.27412225451E+02  0.00000000000E+00 0. -1.
         -4    1    1    2    0  503 -0.18749321933E+02  0.19711474107E+02  0.10170419036E+03  0.10527973035E+03  0.00000000000E+00 0.  1.
<mgrwt>
<rscale>  2 0.27204398E+02</rscale>
<asrwt>0</asrwt>
<pdfrwt beam="1">  1       21 0.17771311E-01 0.27204398E+02</pdfrwt>
<pdfrwt beam="2">  1       21 0.26428357E-02 0.27204398E+02</pdfrwt>
<totfact> 0.17774912E+07</totfact>
</mgrwt>
</event>
<event>
 4    1  0.7165636E+004  0.2067635E+02  0.7546771E-02  0.1732203E+00
         21   -1    0    0  503  502  0.00000000000E+00  0.00000000000E+00  0.45497509497E+03  0.45497509497E+03  0.00000000000E+00 0. -1.
         21   -1    0    0  501  503 -0.00000000000E+00 -0.00000000000E+00 -0.19057731274E+01  0.19057731274E+01  0.00000000000E+00 0. -1.
          3    1    1    2  501    0 -0.51986071881E+01 -0.20012145302E+02  0.38918557832E+03  0.38973442990E+03  0.00000000000E+00 0.  1.
         -3    1    1    2    0  502  0.51986071881E+01  0.20012145302E+02  0.63883743520E+02  0.67146438196E+02  0.00000000000E+00 0. -1.
<mgrwt>
<rscale>  2 0.20676351E+02</rscale>
<asrwt>0</asrwt>
<pdfrwt beam="1">  1       21 0.69996082E-01 0.20676351E+02</pdfrwt>
<pdfrwt beam="2">  1       21 0.29319623E-03 0.20676351E+02</pdfrwt>
<totfact> 0.35101864E+07</totfact>
</mgrwt>
</event>
<event>
 4    1  0.7165636E+004  0.2432491E+02  0.7546771E-02  0.1670892E+00
         21   -1    0    0  503  502  0.00000000000E+00  0.00000000000E+00  0.37417118035E+02  0.37417118035E+02  0.00000000000E+00 0. -1.
         21   -1    0    0  501  503 -0.00000000000E+00 -0.00000000000E+00 -0.35442764213E+02  0.35442764213E+02  0.00000000000E+00 0. -1.
          1    1    1    2  501    0  0.37853800703E+01  0.24028569811E+02  0.28098143988E+02  0.37164592895E+02  0.00000000000E+00 0. -1.
         -1    1    1    2    0  502 -0.37853800703E+01 -0.24028569811E+02 -0.26123790166E+02  0.35695289354E+02  0.00000000000E+00 0.  1.
<mgrwt>
<rscale>  2 0.24324910E+02</rscale>
<asrwt>0</asrwt>
<pdfrwt beam="1">  1       21 0.57564797E-02 0.24324910E+02</pdfrwt>
<pdfrwt beam="2">  1       21 0.54527329E-02 0.24324910E+02</pdfrwt>
<totfact> 0.36165346E+07</totfact>
</mgrwt>
</event>
<event>
 4    1  0.7165636E+004  0.2900758E+02  0.7546771E-02  0.1609325E+00
         21   -1    0    0  501  502  0.00000000000E+00  0.00000000000E+00  0.89815933193E+01  0.89815933193E+01  0.00000000000E+00 0.  1.
         21   -1    0    0  502  503 -0.00000000000E+00 -0.00000000000E+00 -0.10173296728E+03  0.10173296728E+03  0.00000000000E+00 0.  1.
          4    1    1    2  501    0  0.21417669872E+02 -0.19563315429E+02 -0.61945701713E+02  0.68401095415E+02  0.00000000000E+00 0. -1.
         -4    1    1    2    0  503 -0.21417669872E+02  0.19563315429E+02 -0.30805672251E+02  0.42313465187E+02  0.00000000000E+00 0.  1.
<mgrwt>
<rscale>  2 0.29007583E+02</rscale>
<asrwt>0</asrwt>
<pdfrwt beam="1">  1       21 0.13817836E-02 0.29007583E+02</pdfrwt>
<pdfrwt beam="2">  1       21 0.15651225E-01 0.29007583E+02</pdfrwt>
<totfact> 0.61089162E+07</totfact>
</mgrwt>
</event>
<event>
 4    1  0.7165636E+004  0.8601341E+02  0.7546771E-02  0.1312803E+00
         21   -1    0    0  503  502  0.00000000000E+00  0.00000000000E+00  0.17017906535E+03  0.17017906535E+03  0.00000000000E+00 0. -1.
         21   -1    0    0  501  503 -0.00000000000E+00 -0.00000000000E+00 -0.44838907323E+02  0.44838907323E+02  0.00000000000E+00 0. -1.
          5    1    1    2  501    0  0.51659655774E+02 -0.68771986013E+02  0.43910477578E+02  0.96573475323E+02  0.00000000000E+00 0.  1.
         -5    1    1    2    0  502 -0.51659655774E+02  0.68771986013E+02  0.81429680452E+02  0.11844449735E+03  0.00000000000E+00 0. -1.
<mgrwt>
<rscale>  2 0.86013406E+02</rscale>
<asrwt>0</asrwt>
<pdfrwt beam="1">  1       21 0.26181394E-01 0.86013406E+02</pdfrwt>
<pdfrwt beam="2">  1       21 0.68982935E-02 0.86013406E+02</pdfrwt>
<totfact> 0.21079908E+06</totfact>
</mgrwt>
</event>
<event>
 4    1  0.7165636E+004  0.3722101E+02  0.7546771E-02  0.1529718E+00
         21   -1    0    0  503  502  0.00000000000E+00  0.00000000000E+00  0.13605419533E+01  0.13605419533E+01  0.00000000000E+00 0.  1.
         21   -1    0    0  501  503 -0.00000000000E+00 -0.00000000000E+00 -0.13644435684E+04  0.13644435684E+04  0.00000000000E+00 0.  1.
          3    1    1    2  501    0 -0.18803442428E+02  0.32122169415E+02 -0.10255155512E+04  0.10261907956E+04  0.00000000000E+00 0.  1.
         -3    1    1    2    0  502  0.18803442428E+02 -0.32122169415E+02 -0.33756747520E+03  0.33961331471E+03  0.00000000000E+00 0. -1.
<mgrwt>
<rscale>  2 0.37221005E+02</rscale>
<asrwt>0</asrwt>
<pdfrwt beam="1">  1       21 0.20931525E-03 0.37221005E+02</pdfrwt>
<pdfrwt beam="2">  1       21 0.20991329E+00 0.37221005E+02</pdfrwt>
<totfact> 0.49049853E+06</totfact>
</mgrwt>
</event>
<event>
 4    1  0.7165636E+004  0.2021461E+02  0.7546771E-02  0.1741094E+00
         21   -1    0    0  501  502  0.00000000000E+00  0.00000000000E+00  0.35536169003E+02  0.35536169003E+02  0.00000000000E+00 0. -1.
         21   -1    0    0  502  503 -0.00000000000E+00 -0.00000000000E+00 -0.11624531739E+02  0.11624531739E+02  0.00000000000E+00 0. -1.
          2    1    1    2  501    0  0.31022942449E+01  0.19975139619E+02  0.95054124805E+01  0.22337934077E+02  0.00000000000E+00 0. -1.
         -2    1    1    2    0  503 -0.31022942449E+01 -0.19975139619E+02  0.14406224784E+02  0.24822766665E+02  0.00000000000E+00 0.  1.
<mgrwt>
<rscale>  2 0.20214609E+02</rscale>
<asrwt>0</asrwt>
<pdfrwt beam="1">  1       21 0.54671029E-02 0.20214609E+02</pdfrwt>
<pdfrwt beam="2">  1       21 0.17883895E-02 0.20214609E+02</pdfrwt>
<totfact> 0.21176570E+08</totfact>
</mgrwt>
</event>
<event>
 4    1  0.7165636E+004  0.2857055E+02  0.7546771E-02  0.1614449E+00
         21   -1    0    0  503  502  0.00000000000E+00  0.00000000000E+00  0.19903280663E+02  0.19903280663E+02  0.00000000000E+00 0.  1.
         21   -1    0    0  501  503 -0.00000000000E+00 -0.00000000000E+00 -0.48796525938E+02  0.48796525938E+02  0.00000000000E+00 0.  1.
          2    1    1    2  501    0 -0.28271578427E+02 -0.41224075987E+01 -0.72697729158E+00  0.28579798585E+02  0.00000000000E+00 0. -1.
         -2    1    1    2    0  502  0.28271578427E+02  0.41224075987E+01 -0.28166267983E+02  0.40120008016E+02  0.00000000000E+00 0.  1.
<mgrwt>
<rscale>  2 0.28570551E+02</rscale>
<asrwt>0</asrwt>
<pdfrwt beam="1">  1       21 0.30620432E-02 0.28570551E+02</pdfrwt>
<pdfrwt beam="2">  1       21 0.75071578E-02 0.28570551E+02</pdfrwt>
<totfact> 0.60957340E+07</totfact>
</mgrwt>
</event>
<event>
 4    1  0.7165636E+004  0.3157822E+02  0.7546771E-02  0.1581271E+00
         21   -1    0    0  501  502  0.00000000000E+00  0.00000000000E+00  0.48291221641E+02  0.48291221641E+02  0.00000000000E+00 0.  1.
         21   -1    0    0  502  503 -0.00000000000E+00 -0.00000000000E+00 -0.20651371740E+02  0.20651371740E+02  0.00000000000E+00 0.  1.
          1    1    1    2  501    0  0.18450619391E+01 -0.31524270758E+02  0.13481593945E+02  0.34335656040E+02  0.00000000000E+00 0. -1.
         -1    1    1    2    0  503 -0.18450619391E+01  0.31524270758E+02  0.14158255957E+02  0.34606937341E+02  0.00000000000E+00 0.  1.
<mgrwt>
<rscale>  2 0.31578219E+02</rscale>
<asrwt>0</asrwt>
<pdfrwt beam="1">  1       21 0.74294187E-02 0.31578219E+02</pdfrwt>
<pdfrwt beam="2">  1       21 0.31771341E-02 0.31578219E+02</pdfrwt>
<totfact> 0.59855868E+07</totfact>
</mgrwt>
</event>
<event>
 4    1  0.7165636E+004  0.2350651E+02  0.7546771E-02  0.1683429E+00
         21   -1    0    0  503  502  0.00000000000E+00  0.00000000000E+00  0.18775005605E+01  0.18775005605E+01  0.00000000000E+00 0.  1.
         21   -1    0    0  501  503 -0.00000000000E+00 -0.00000000000E+00 -0.30809491571E+03  0.30809491571E+03  0.00000000000E+00 0.  1.
          3    1    1    2  501    0 -0.11196528291E+01 -0.23479834309E+02 -0.18589895423E+03  0.18737923425E+03  0.00000000000E+00 0. -1.
         -3    1    1    2    0  502  0.11196528291E+01  0.23479834309E+02 -0.12031846092E+03  0.12259318203E+03  0.00000000000E+00 0.  1.
<mgrwt>
<rscale>  2 0.23506515E+02</rscale>
<asrwt>0</asrwt>
<pdfrwt beam="1">  1       21 0.28884641E-03 0.23506515E+02</pdfrwt>
<pdfrwt beam="2">  1       21 0.47399190E-01 0.23506515E+02</pdfrwt>
<totfact> 0.80145356E+07</totfact>
</mgrwt>
</event>
<event>
 4    1  0.7165636E+004  0.2073708E+02  0.7546771E-02  0.1731055E+00
         21   -1    0    0  503  502  0.00000000000E+00  0.00000000000E+00  0.19216739474E+02  0.19216739474E+02  0.00000000000E+00 0.  1.
         21   -1    0    0  501  503 -0.00000000000E+00 -0.00000000000E+00 -0.28324306425E+02  0.28324306425E+02  0.00000000000E+00 0.  1.
          1    1    1    2  501    0 -0.12807221223E+02  0.16309557763E+02 -0.15445426280E+02  0.25857064467E+02  0.00000000000E+00 0. -1.
         -1    1    1    2    0  502  0.12807221223E+02 -0.16309557763E+02  0.63378593284E+01  0.21683981432E+02  0.00000000000E+00 0.  1.
<mgrwt>
<rscale>  2 0.20737082E+02</rscale>
<asrwt>0</asrwt>
<pdfrwt beam="1">  1       21 0.29564215E-02 0.20737082E+02</pdfrwt>
<pdfrwt beam="2">  1       21 0.43575856E-02 0.20737082E+02</pdfrwt>
<totfact> 0.14130731E+08</totfact>
</mgrwt>
</event>
<event>
 4    1  0.7165636E+004  0.9880295E+02  0.7546771E-02  0.1282834E+00
         21   -1    0    0  501  502  0.00000000000E+00  0.00000000000E+00  0.42327795406E+02  0.42327795406E+02  0.00000000000E+00 0.  1.
         21   -1    0    0  502  503 -0.00000000000E+00 -0.00000000000E+00 -0.24114950311E+03  0.24114950311E+03  0.00000000000E+00 0.  1.
          3    1    1    2  501    0  0.10688059844E+02  0.98223152009E+02 -0.69806139310E+02  0.12097487053E+03  0.00000000000E+00 0.  1.
         -3    1    1    2    0  503 -0.10688059844E+02 -0.98223152009E+02 -0.12901556839E+03  0.16250242799E+03  0.00000000000E+00 0. -1.
<mgrwt>
<rscale>  2 0.98802946E+02</rscale>
<asrwt>0</asrwt>
<pdfrwt beam="1">  1       21 0.65119684E-02 0.98802946E+02</pdfrwt>
<pdfrwt beam="2">  1       21 0.37099924E-01 0.98802946E+02</pdfrwt>
<totfact> 0.11951787E+06</totfact>
</mgrwt>
</event>
<event>
 4    1  0.7165636E+004  0.2667719E+02  0.7546771E-02  0.1638018E+00
         21   -1    0    0  503  502  0.00000000000E+00  0.00000000000E+00  0.10438402774E+04  0.10438402774E+04  0.00000000000E+00 0.  1.
         21   -1    0    0  501  503 -0.00000000000E+00 -0.00000000000E+00 -0.12564401938E+01  0.12564401938E+01  0.00000000000E+00 0.  1.
          5    1    1    2  501    0 -0.20546985894E+02 -0.17014518723E+02  0.87468661705E+03  0.87509333818E+03  0.00000000000E+00 0. -1.
         -5    1    1    2    0  502  0.20546985894E+02  0.17014518723E+02  0.16789722015E+03  0.17000337941E+03  0.00000000000E+00 0.  1.
<mgrwt>
<rscale>  2 0.26677190E+02</rscale>
<asrwt>0</asrwt>
<pdfrwt beam="1">  1       21 0.16059012E+00 0.26677190E+02</pdfrwt>
<pdfrwt beam="2">  1       21 0.19329933E-03 0.26677190E+02</pdfrwt>
<totfact> 0.10648219E+07</totfact>
</mgrwt>
</event>
<event>
 4    1  0.7165636E+004  0.2622082E+02  0.7546771E-02  0.1644062E+00
         21   -1    0    0  503  502  0.00000000000E+00  0.00000000000E+00  0.41460749326E+02  0.41460749326E+02  0.00000000000E+00 0.  1.
         21   -1    0    0  501  503 -0.00000000000E+00 -0.00000000000E+00 -0.16654257758E+02  0.16654257758E+02  0.00000000000E+00 0.  1.
          3    1    1    2  501    0  0.14844627631E+02  0.21614081502E+02  0.10498660008E+02  0.28244527800E+02  0.00000000000E+00 0.  1.
         -3    1    1    2    0  502 -0.14844627631E+02 -0.21614081502E+02  0.14307831560E+02  0.29870479284E+02  0.00000000000E+00 0. -1.
<mgrwt>
<rscale>  2 0.26220822E+02</rscale>
<asrwt>0</asrwt>
<pdfrwt beam="1">  1       21 0.63785768E-02 0.26220822E+02</pdfrwt>
<pdfrwt beam="2">  1       21 0.25621935E-02 0.26220822E+02</pdfrwt>
<totfact> 0.10278011E+08</totfact>
</mgrwt>
</event>
<event>
 4    1  0.7165636E+004  0.2589200E+02  0.7546771E-02  0.1648511E+00
         21   -1    0    0  501  502  0.00000000000E+00  0.00000000000E+00  0.46349020791E+02  0.46349020791E+02  0.00000000000E+00 0. -1.
         21   -1    0    0  502  503 -0.00000000000E+00 -0.00000000000E+00 -0.14575363776E+02  0.14575363776E+02  0.00000000000E+00 0. -1.
          4    1    1    2  501    0  0.25870556214E+02 -0.10536230208E+01  0.18548616473E+02  0.31850384195E+02  0.00000000000E+00 0.  1.
         -4    1    1    2    0  503 -0.25870556214E+02  0.10536230208E+01  0.13225040543E+02  0.29074000373E+02  0.00000000000E+00 0. -1.
<mgrwt>
<rscale>  2 0.25892003E+02</rscale>
<asrwt>0</asrwt>
<pdfrwt beam="1">  1       21 0.71306185E-02 0.25892003E+02</pdfrwt>
<pdfrwt beam="2">  1       21 0.22423637E-02 0.25892003E+02</pdfrwt>
<totfact> 0.10511463E+08</totfact>
</mgrwt>
</event>
<event>
 4    1  0.7165636E+004  0.2526829E+02  0.7546771E-02  0.1657178E+00
         21   -1    0    0  503  502  0.00000000000E+00  0.00000000000E+00  0.33190327064E+02  0.33190327064E+02  0.00000000000E+00 0.  1.
         21   -1    0    0  501  503 -0.00000000000E+00 -0.00000000000E+00 -0.26817317430E+02  0.26817317430E+02  0.00000000000E+00 0.  1.
          4    1    1    2  501    0 -0.24930217758E+02 -0.41195253196E+01  0.19138287573E+02  0.31697954154E+02  0.00000000000E+00 0. -1.
         -4    1    1    2    0  502  0.24930217758E+02  0.41195253196E+01 -0.12765277939E+02  0.28309690341E+02  0.00000000000E+00 0.  1.
<mgrwt>
<rscale>  2 0.25268285E+02</rscale>
<asrwt>0</asrwt>
<pdfrwt beam="1">  1       21 0.51062042E-02 0.25268285E+02</pdfrwt>
<pdfrwt beam="2">  1       21 0.41257411E-02 0.25268285E+02</pdfrwt>
<totfact> 0.68966560E+07</totfact>
</mgrwt>
</event>
<event>
 4    1  0.7165636E+004  0.3668861E+02  0.7546771E-02  0.1534097E+00
         21   -1    0    0  501  502  0.00000000000E+00  0.00000000000E+00  0.72379313284E+01  0.72379313284E+01  0.00000000000E+00 0. -1.
         21   -1    0    0  502  503 -0.00000000000E+00 -0.00000000000E+00 -0.33523171390E+03  0.33523171390E+03  0.00000000000E+00 0. -1.
          5    1    1    2  501    0 -0.79594006104E+00  0.36679974600E+02 -0.49737858874E+02  0.61805409655E+02  0.00000000000E+00 0. -1.
         -5    1    1    2    0  503  0.79594006104E+00 -0.36679974600E+02 -0.27825592370E+03  0.28066423558E+03  0.00000000000E+00 0.  1.
<mgrwt>
<rscale>  2 0.36688609E+02</rscale>
<asrwt>0</asrwt>
<pdfrwt beam="1">  1       21 0.11135282E-02 0.36688609E+02</pdfrwt>
<pdfrwt beam="2">  1       21 0.51574097E-01 0.36688609E+02</pdfrwt>
<totfact> 0.98606059E+06</totfact>
</mgrwt>
</event>
<event>
 4    1  0.7165636E+004  0.2015714E+02  0.7546771E-02  0.1742221E+00
         21   -1    0    0  501  502  0.00000000000E+00  0.00000000000E+00  0.33900102656E+01  0.33900102656E+01  0.00000000000E+00 0.  1.
         21   -1    0    0  502  503 -0.00000000000E+00 -0.00000000000E+00 -0.32837742607E+03  0.32837742607E+03  0.00000000000E+00 0.  1.
          1    1    1    2  501    0  0.16028673701E+02  0.12222596125E+02 -0.30305313458E+02  0.36396734200E+02  0.00000000000E+00 0.  1.
         -1    1    1    2    0  503 -0.16028673701E+02 -0.12222596125E+02 -0.29468210234E+03  0.29537070213E+03  0.00000000000E+00 0. -1.
<mgrwt>
<rscale>  2 0.20157139E+02</rscale>
<asrwt>0</asrwt>
<pdfrwt beam="1">  1       21 0.52154005E-03 0.20157139E+02</pdfrwt>
<pdfrwt beam="2">  1       21 0.50519603E-01 0.20157139E+02</pdfrwt>
<totfact> 0.28764681E+07</totfact>
</mgrwt>
</event>
<event>
 4    1  0.7165636E+004  0.2501809E+02  0.7546771E-02  0.1660742E+00
         21   -1    0    0  503  502  0.00000000000E+00  0.00000000000E+00  0.40254268281E+02  0.40254268281E+02  0.00000000000E+00 0. -1.
         21   -1    0    0  501  503 -0.00000000000E+00 -0.00000000000E+00 -0.18799421482E+02  0.18799421482E+02  0.00000000000E+00 0. -1.
          2    1    1    2  501    0  0.12998881816E+02 -0.21376008997E+02  0.23005475074E+02  0.33987594391E+02  0.00000000000E+00 0. -1.
         -2    1    1    2    0  502 -0.12998881816E+02  0.21376008997E+02 -0.15506282748E+01  0.25066095371E+02  0.00000000000E+00 0.  1.
<mgrwt>
<rscale>  2 0.25018087E+02</rscale>
<asrwt>0</asrwt>
<pdfrwt beam="1">  1       21 0.61929643E-02 0.25018087E+02</pdfrwt>
<pdfrwt beam="2">  1       21 0.28922187E-02 0.25018087E+02</pdfrwt>
<totfact> 0.88173416E+07</totfact>
</mgrwt>
</event>
<event>
 4    1  0.7165636E+004  0.2700503E+02  0.7546771E-02  0.1633768E+00
         21   -1    0    0  501  502  0.00000000000E+00  0.00000000000E+00  0.60480224436E+01  0.60480224436E+01  0.00000000000E+00 0.  1.
         21   -1    0    0  502  503 -0.00000000000E+00 -0.00000000000E+00 -0.12119227858E+03  0.12119227858E+03  0.00000000000E+00 0.  1.
          3    1    1    2  501    0  0.20815904274E+02 -0.17203774295E+02 -0.62093423333E+02  0.67711630773E+02  0.00000000000E+00 0. -1.
         -3    1    1    2    0  503 -0.20815904274E+02  0.17203774295E+02 -0.53050832806E+02  0.59528670253E+02  0.00000000000E+00 0.  1.
<mgrwt>
<rscale>  2 0.27005031E+02</rscale>
<asrwt>0</asrwt>
<pdfrwt beam="1">  1       21 0.93046495E-03 0.27005031E+02</pdfrwt>
<pdfrwt beam="2">  1       21 0.18644967E-01 0.27005031E+02</pdfrwt>
<totfact> 0.80777567E+07</totfact>
</mgrwt>
</event>
<event>
 4    1  0.7165636E+004  0.3009528E+02  0.7546771E-02  0.1597038E+00
         21   -1    0    0  501  502  0.00000000000E+00  0.00000000000E+00  0.11169097827E+02  0.11169097827E+02  0.00000000000E+00 0.  1.
         21   -1    0    0  502  503 -0.00000000000E+00 -0.00000000000E+00 -0.91446104239E+02  0.91446104239E+02  0.00000000000E+00 0.  1.
          1    1    1    2  501    0 -0.23858937560E+02 -0.18343301350E+02 -0.57402973535E+02  0.64813786933E+02  0.00000000000E+00 0. -1.
         -1    1    1    2    0  503  0.23858937560E+02  0.18343301350E+02 -0.22874032877E+02  0.37801415132E+02  0.00000000000E+00 0.  1.
<mgrwt>
<rscale>  2 0.30095275E+02</rscale>
<asrwt>0</asrwt>
<pdfrwt beam="1">  1       21 0.17183227E-02 0.30095275E+02</pdfrwt>
<pdfrwt beam="2">  1       21 0.14068631E-01 0.30095275E+02</pdfrwt>
<totfact> 0.52944246E+07</totfact>
</mgrwt>
</event>
<event>
 4    1  0.7165636E+004  0.3394532E+02  0.7546771E-02  0.1558171E+00
         21   -1    0    0  501  502  0.00000000000E+00  0.00000000000E+00  0.48814059232E+02  0.48814059232E+02  0.00000000000E+00 0.  1.
         21   -1    0    0  502  503 -0.00000000000E+00 -0.00000000000E+00 -0.23670944080E+02  0.23670944080E+02  0.00000000000E+00 0.  1.
          4    1    1    2  501    0  0.99710854989E+01 -0.32447833778E+02  0.10667146396E+02  0.35581912191E+02  0.00000000000E+00 0.  1.
         -4    1    1    2    0  503 -0.99710854989E+01  0.32447833778E+02  0.14475968756E+02  0.36903091121E+02  0.00000000000E+00 0. -1.
<mgrwt>
<rscale>  2 0.33945316E+02</rscale>
<asrwt>0</asrwt>
<pdfrwt beam="1">  1       21 0.75098552E-02 0.33945316E+02</pdfrwt>
<pdfrwt beam="2">  1       21 0.36416837E-02 0.33945316E+02</pdfrwt>
<totfact> 0.48106398E+07</totfact>
</mgrwt>
</event>
<event>
 4    1  0.7165636E+004  0.2058402E+02  0.7546771E-02  0.1733957E+00
         21   -1    0    0  503  502  0.00000000000E+00  0.00000000000E+00  0.16343873013E+01  0.16343873013E+01  0.00000000000E+00 0. -1.
         21   -1    0    0  501  503 -0.00000000000E+00 -0.00000000000E+00 -0.26904811484E+03  0.26904811484E+03  0.00000000000E+00 0. -1.
          2    1    1    2  501    0 -0.18419904631E+02 -0.91874470925E+01 -0.15954495777E+03  0.16086732304E+03  0.00000000000E+00 0.  1.
         -2    1    1    2    0  502  0.18419904631E+02  0.91874470925E+01 -0.10786876976E+03  0.10981517910E+03  0.00000000000E+00 0. -1.
<mgrwt>
<rscale>  2 0.20584025E+02</rscale>
<asrwt>0</asrwt>
<pdfrwt beam="1">  1       21 0.25144418E-03 0.20584025E+02</pdfrwt>
<pdfrwt beam="2">  1       21 0.41392022E-01 0.20584025E+02</pdfrwt>
<totfact> 0.12251881E+08</totfact>
</mgrwt>
</event>
<event>
 4    1  0.7165636E+004  0.2962693E+02  0.7546771E-02  0.1602249E+00
         21   -1    0    0  503  502  0.00000000000E+00  0.00000000000E+00  0.62413983703E+01  0.62413983703E+01  0.00000000000E+00 0. -1.
         21   -1    0    0  501  503 -0.00000000000E+00 -0.00000000000E+00 -0.15170985451E+03  0.15170985451E+03  0.00000000000E+00 0. -1.
          4    1    1    2  501    0 -0.63133860888E+01 -0.28946437187E+02 -0.94072917012E+02  0.98627931059E+02  0.00000000000E+00 0.  1.
         -4    1    1    2    0  502  0.63133860888E+01  0.28946437187E+02 -0.51395539129E+02  0.59323321823E+02  0.00000000000E+00 0. -1.
<mgrwt>
<rscale>  2 0.29626931E+02</rscale>
<asrwt>0</asrwt>
<pdfrwt beam="1">  1       21 0.96021514E-03 0.29626931E+02</pdfrwt>
<pdfrwt beam="2">  1       21 0.23339977E-01 0.29626931E+02</pdfrwt>
<totfact> 0.52929680E+07</totfact>
</mgrwt>
</event>
<event>
 4    1  0.7165636E+004  0.2484028E+02  0.7546771E-02  0.1663307E+00
         21   -1    0    0  501  502  0.00000000000E+00  0.00000000000E+00  0.18433847224E+02  0.18433847224E+02  0.00000000000E+00 0.  1.
         21   -1    0    0  502  503 -0.00000000000E+00 -0.00000000000E+00 -0.33942172395E+02  0.33942172395E+02  0.00000000000E+00 0.  1.
          4    1    1    2  501    0 -0.22685032202E+02  0.10120714259E+02 -0.46758398601E+01  0.25276531042E+02  0.00000000000E+00 0. -1.
         -4    1    1    2    0  503  0.22685032202E+02 -0.10120714259E+02 -0.10832485311E+02  0.27099488577E+02  0.00000000000E+00 0.  1.
<mgrwt>
<rscale>  2 0.24840281E+02</rscale>
<asrwt>0</asrwt>
<pdfrwt beam="1">  1       21 0.28359765E-02 0.24840281E+02</pdfrwt>
<pdfrwt beam="2">  1       21 0.52218727E-02 0.24840281E+02</pdfrwt>
<totfact> 0.11935610E+08</totfact>
</mgrwt>
</event>
<event>
 4    1  0.7165636E+004  0.3227403E+02  0.7546771E-02  0.1574232E+00
         21   -1    0    0  503  502  0.00000000000E+00  0.00000000000E+00  0.17601746671E+01  0.17601746671E+01  0.00000000000E+00 0.  1.
         21   -1    0    0  501  503 -0.00000000000E+00 -0.00000000000E+00 -0.87261751387E+03  0.87261751387E+03  0.00000000000E+00 0.  1.
          3    1    1    2  501    0  0.31883881430E+02 -0.50031062560E+01 -0.68345332717E+03  0.68421492485E+03  0.00000000000E+00 0.  1.
         -3    1    1    2    0  502 -0.31883881430E+02  0.50031062560E+01 -0.18740401203E+03  0.19016276368E+03  0.00000000000E+00 0. -1.
<mgrwt>
<rscale>  2 0.32274029E+02</rscale>
<asrwt>0</asrwt>
<pdfrwt beam="1">  1       21 0.27079544E-03 0.32274029E+02</pdfrwt>
<pdfrwt beam="2">  1       21 0.13424918E+00 0.32274029E+02</pdfrwt>
<totfact> 0.10235972E+07</totfact>
</mgrwt>
</event>
<event>
 4    1  0.7165636E+004  0.4569410E+02  0.7546771E-02  0.1470054E+00
         21   -1    0    0  503  502  0.00000000000E+00  0.00000000000E+00  0.56837941154E+02  0.56837941154E+02  0.00000000000E+00 0.  1.
         21   -1    0    0  501  503 -0.00000000000E+00 -0.00000000000E+00 -0.51717206974E+02  0.51717206974E+02  0.00000000000E+00 0.  1.
          5    1    1    2  501    0 -0.28937528392E+02  0.35363407708E+02 -0.26653456351E+02  0.52899507461E+02  0.00000000000E+00 0. -1.
         -5    1    1    2    0  502  0.28937528392E+02 -0.35363407708E+02  0.31774190531E+02  0.55655640667E+02  0.00000000000E+00 0.  1.
<mgrwt>
<rscale>  2 0.45694104E+02</rscale>
<asrwt>0</asrwt>
<pdfrwt beam="1">  1       21 0.87442987E-02 0.45694104E+02</pdfrwt>
<pdfrwt beam="2">  1       21 0.79564934E-02 0.45694104E+02</pdfrwt>
<totfact> 0.10971404E+07</totfact>
</mgrwt>
</event>
<event>
 4    1  0.7165636E+004  0.2049934E+02  0.7546771E-02  0.1735577E+00
         21   -1    0    0  503  502  0.00000000000E+00  0.00000000000E+00  0.67650889634E+03  0.67650889634E+03  0.00000000000E+00 0. -1.
         21   -1    0    0  501  503 -0.00000000000E+00 -0.00000000000E+00 -0.62243420987E+00  0.62243420987E+00  0.00000000000E+00 0. -1.
          5    1    1    2  501    0  0.20369103016E+02  0.23070527009E+01  0.35323877107E+03  0.35383308528E+03  0.00000000000E+00 0.  1.
         -5    1    1    2    0  502 -0.20369103016E+02 -0.23070527009E+01  0.32264769106E+03  0.32329824527E+03  0.00000000000E+00 0. -1.
<mgrwt>
<rscale>  2 0.20499338E+02</rscale>
<asrwt>0</asrwt>
<pdfrwt beam="1">  1       21 0.10407770E+00 0.20499338E+02</pdfrwt>
<pdfrwt beam="2">  1       21 0.95759650E-04 0.20499338E+02</pdfrwt>
<totfact> 0.75335194E+07</totfact>
</mgrwt>
</event>
<event>
 4    1  0.7165636E+004  0.2994123E+02  0.7546771E-02  0.1598739E+00
         21   -1    0    0  501  502  0.00000000000E+00  0.00000000000E+00  0.39769336636E+01  0.39769336636E+01  0.00000000000E+00 0.  1.
         21   -1    0    0  502  503 -0.00000000000E+00 -0.00000000000E+00 -0.24864436429E+03  0.24864436429E+03  0.00000000000E+00 0.  1.
          5    1    1    2  501    0 -0.29704682094E+02  0.37562129341E+01 -0.83729930005E+02  0.88922316954E+02  0.00000000000E+00 0.  1.
         -5    1    1    2    0  503  0.29704682094E+02 -0.37562129341E+01 -0.16093750062E+03  0.16369898100E+03  0.00000000000E+00 0. -1.
<mgrwt>
<rscale>  2 0.29941230E+02</rscale>
<asrwt>0</asrwt>
<pdfrwt beam="1">  1       21 0.61183607E-03 0.29941230E+02</pdfrwt>
<pdfrwt beam="2">  1       21 0.38252972E-01 0.29941230E+02</pdfrwt>
<totfact> 0.42115933E+07</totfact>
</mgrwt>
</event>
<event>
 4    1  0.7165636E+004  0.2024177E+02  0.7546771E-02  0.1740563E+00
         21   -1    0    0  503  502  0.00000000000E+00  0.00000000000E+00  0.14205556415E+03  0.14205556415E+03  0.00000000000E+00 0. -1.
         21   -1    0    0  501  503 -0.00000000000E+00 -0.00000000000E+00 -0.28864152648E+01  0.28864152648E+01  0.00000000000E+00 0. -1.
          4    1    1    2  501    0  0.20153523118E+02  0.18880075640E+01  0.67616860592E+02  0.70581647069E+02  0.00000000000E+00 0. -1.
         -4    1    1    2    0  502 -0.20153523118E+02 -0.18880075640E+01  0.71552288292E+02  0.74360332345E+02  0.00000000000E+00 0.  1.
<mgrwt>
<rscale>  2 0.20241765E+02</rscale>
<asrwt>0</asrwt>
<pdfrwt beam="1">  1       21 0.21854697E-01 0.20241765E+02</pdfrwt>
<pdfrwt beam="2">  1       21 0.44406400E-03 0.20241765E+02</pdfrwt>
<totfact> 0.16955957E+08</totfact>
</mgrwt>
</event>
<event>
 4    1  0.7165636E+004  0.2910604E+02  0.7546771E-02  0.1608186E+00
         21   -1    0    0  501  502  0.00000000000E+00  0.00000000000E+00  0.46306361696E+02  0.46306361696E+02  0.00000000000E+00 0.  1.
         21   -1    0    0  502  503 -0.00000000000E+00 -0.00000000000E+00 -0.18333194790E+02  0.18333194790E+02  0.00000000000E+00 0.  1.
          4    1    1    2  501    0 -0.25496961602E+02  0.14038047908E+02  0.15467216204E+02  0.32960531202E+02  0.00000000000E+00 0.  1.
         -4    1    1    2    0  503  0.25496961602E+02 -0.14038047908E+02  0.12505950701E+02  0.31679025284E+02  0.00000000000E+00 0. -1.
<mgrwt>
<rscale>  2 0.29106045E+02</rscale>
<asrwt>0</asrwt>
<pdfrwt beam="1">  1       21 0.71240556E-02 0.29106045E+02</pdfrwt>
<pdfrwt beam="2">  1       21 0.28204915E-02 0.29106045E+02</pdfrwt>
<totfact> 0.75902252E+07</totfact>
</mgrwt>
</event>
<event>
 4    1  0.7165636E+004  0.2160721E+02  0.7546771E-02  0.1715135E+00
         21   -1    0    0  503  502  0.00000000000E+00  0.00000000000E+00  0.61630576904E+00  0.61630576904E+00  0.00000000000E+00 0.  1.
         21   -1    0    0  501  503 -0.00000000000E+00 -0.00000000000E+00 -0.94633503466E+03  0.94633503466E+03  0.00000000000E+00 0.  1.
          4    1    1    2  501    0  0.13645588787E+02 -0.16753197126E+02 -0.26137463624E+03  0.26226622386E+03  0.00000000000E+00 0. -1.
         -4    1    1    2    0  502 -0.13645588787E+02  0.16753197126E+02 -0.68434409265E+03  0.68468511657E+03  0.00000000000E+00 0.  1.
<mgrwt>
<rscale>  2 0.21607214E+02</rscale>
<asrwt>0</asrwt>
<pdfrwt beam="1">  1       21 0.94816491E-04 0.21607214E+02</pdfrwt>
<pdfrwt beam="2">  1       21 0.14558967E+00 0.21607214E+02</pdfrwt>
<totfact> 0.36124574E+07</totfact>
</mgrwt>
</event>
<event>
 4    1  0.7165636E+004  0.2648374E+02  0.7546771E-02  0.1640562E+00
         21   -1    0    0  501  502  0.00000000000E+00  0.00000000000E+00  0.12415778296E+03  0.12415778296E+03  0.00000000000E+00 0.  1.
         21   -1    0    0  502  503 -0.00000000000E+00 -0.00000000000E+00 -0.74181892334E+01  0.74181892334E+01  0.00000000000E+00 0.  1.
          2    1    1    2  501    0 -0.26478902642E+02  0.50606291185E+00  0.26243257005E+02  0.37284003581E+02  0.00000000000E+00 0. -1.
         -2    1    1    2    0  503  0.26478902642E+02 -0.50606291185E+00  0.90496336721E+02  0.94291968612E+02  0.00000000000E+00 0.  1.
<mgrwt>
<rscale>  2 0.26483738E+02</rscale>
<asrwt>0</asrwt>
<pdfrwt beam="1">  1       21 0.19101196E-01 0.26483738E+02</pdfrwt>
<pdfrwt beam="2">  1       21 0.11412600E-02 0.26483738E+02</pdfrwt>
<totfact> 0.56611826E+07</totfact>
</mgrwt>
</event>
<event>
 4    1  0.7165636E+004  0.2273049E+02  0.7546771E-02  0.1695916E+00
         21   -1    0    0  501  502  0.00000000000E+00  0.00000000000E+00  0.69423855935E+01  0.69423855935E+01  0.00000000000E+00 0.  1.
         21   -1    0    0  502  503 -0.00000000000E+00 -0.00000000000E+00 -0.75615504486E+02  0.75615504486E+02  0.00000000000E+00 0.  1.
          1    1    1    2  501    0  0.19011707201E+02  0.12459133150E+02 -0.29153278664E+02  0.36967400049E+02  0.00000000000E+00 0. -1.
         -1    1    1    2    0  503 -0.19011707201E+02 -0.12459133150E+02 -0.39519840230E+02  0.45590490031E+02  0.00000000000E+00 0.  1.
<mgrwt>
<rscale>  2 0.22730486E+02</rscale>
<asrwt>0</asrwt>
<pdfrwt beam="1">  1       21 0.10680593E-02 0.22730486E+02</pdfrwt>
<pdfrwt beam="2">  1       21 0.11633155E-01 0.22730486E+02</pdfrwt>
<totfact> 0.14011137E+08</totfact>
</mgrwt>
</event>
<event>
 4    1  0.7165636E+004  0.2185599E+02  0.7546771E-02  0.1710755E+00
         21   -1    0    0  503  502  0.00000000000E+00  0.00000000000E+00  0.21662853088E+02  0.21662853088E+02  0.00000000000E+00 0.  1.
         21   -1    0    0  501  503 -0.00000000000E+00 -0.00000000000E+00 -0.29442078932E+02  0.29442078932E+02  0.00000000000E+00 0.  1.
          4    1    1    2  501    0  0.85637701875E+01  0.20108360968E+02 -0.16692469706E+02  0.27501325160E+02  0.00000000000E+00 0.  1.
         -4    1    1    2    0  502 -0.85637701875E+01 -0.20108360968E+02  0.89132438621E+01  0.23603606860E+02  0.00000000000E+00 0. -1.
<mgrwt>
<rscale>  2 0.21855991E+02</rscale>
<asrwt>0</asrwt>
<pdfrwt beam="1">  1       21 0.33327466E-02 0.21855991E+02</pdfrwt>
<pdfrwt beam="2">  1       21 0.45295506E-02 0.21855991E+02</pdfrwt>
<totfact> 0.11209670E+08</totfact>
</mgrwt>
</event>
<event>
 4    1  0.7165636E+004  0.2911975E+02  0.7546771E-02  0.1608028E+00
         21   -1    0    0  501  502  0.00000000000E+00  0.00000000000E+00  0.37447886738E+03  0.37447886738E+03  0.00000000000E+00 0. -1.
         21   -1    0    0  502  503 -0.00000000000E+00 -0.00000000000E+00 -0.22826823185E+01  0.22826823185E+01  0.00000000000E+00 0. -1.
          3    1    1    2  501    0 -0.29119730191E+02  0.29885481351E-01  0.20296976229E+03  0.20504800410E+03  0.00000000000E+00 0.  1.
         -3    1    1    2    0  503  0.29119730191E+02 -0.29885481351E-01  0.16922642277E+03  0.17171354561E+03  0.00000000000E+00 0. -1.
<mgrwt>
<rscale>  2 0.29119746E+02</rscale>
<asrwt>0</asrwt>
<pdfrwt beam="1">  1       21 0.57612085E-01 0.29119746E+02</pdfrwt>
<pdfrwt beam="2">  1       21 0.35118219E-03 0.29119746E+02</pdfrwt>
<totfact> 0.43004885E+07</totfact>
</mgrwt>
</event>
<event>
 4    1  0.7165636E+004  0.2792333E+02  0.7546771E-02  0.1622247E+00
         21   -1    0    0  503  502  0.00000000000E+00  0.00000000000E+00  0.86317174871E+01  0.86317174871E+01  0.00000000000E+00 0. -1.
         21   -1    0    0  501  503 -0.00000000000E+00 -0.00000000000E+00 -0.94077653212E+02  0.94077653212E+02  0.00000000000E+00 0. -1.
          2    1    1    2  501    0 -0.83999696563E+01  0.26629925132E+02 -0.52971311493E+02  0.59880482998E+02  0.00000000000E+00 0.  1.
         -2    1    1    2    0  502  0.83999696563E+01 -0.26629925132E+02 -0.32474624232E+02  0.42828887701E+02  0.00000000000E+00 0. -1.
<mgrwt>
<rscale>  2 0.27923331E+02</rscale>
<asrwt>0</asrwt>
<pdfrwt beam="1">  1       21 0.13279565E-02 0.27923331E+02</pdfrwt>
<pdfrwt beam="2">  1       21 0.14473485E-01 0.27923331E+02</pdfrwt>
<totfact> 0.73573288E+07</totfact>
</mgrwt>
</event>
<event>
 4    1  0.7165636E+004  0.2105074E+02  0.7546771E-02  0.1725206E+00
         21   -1    0    0  501  502  0.00000000000E+00  0.00000000000E+00  0.13314742715E+02  0.13314742715E+02  0.00000000000E+00 0.  1.
         21   -1    0    0  502  503 -0.00000000000E+00 -0.00000000000E+00 -0.34850649594E+02  0.34850649594E+02  0.00000000000E+00 0.  1.
          5    1    1    2  501    0 -0.20466805142E+02  0.49237603560E+01 -0.56576925058E+01  0.21797775420E+02  0.00000000000E+00 0. -1.
         -5    1    1    2    0  503  0.20466805142E+02 -0.49237603560E+01 -0.15878214373E+02  0.26367616889E+02  0.00000000000E+00 0.  1.
<mgrwt>
<rscale>  2 0.21050737E+02</rscale>
<asrwt>0</asrwt>
<pdfrwt beam="1">  1       21 0.20484220E-02 0.21050737E+02</pdfrwt>
<pdfrwt beam="2">  1       21 0.53616384E-02 0.21050737E+02</pdfrwt>
<totfact> 0.17989431E+08</totfact>
</mgrwt>
</event>
<event>
 4    1  0.7165636E+004  0.2178487E+02  0.7546771E-02  0.1711999E+00
         21   -1    0    0  503  502  0.00000000000E+00  0.00000000000E+00  0.52196816628E+01  0.52196816628E+01  0.00000000000E+00 0. -1.
         21   -1    0    0  501  503 -0.00000000000E+00 -0.00000000000E+00 -0.93041191776E+02  0.93041191776E+02  0.00000000000E+00 0. -1.
          2    1    1    2  501    0 -0.15606682543E+02  0.15199078099E+02 -0.51326665661E+02  0.55758471311E+02  0.00000000000E+00 0.  1.
         -2    1    1    2    0  502  0.15606682543E+02 -0.15199078099E+02 -0.36494844452E+02  0.42502402128E+02  0.00000000000E+00 0. -1.
<mgrwt>
<rscale>  2 0.21784869E+02</rscale>
<asrwt>0</asrwt>
<pdfrwt beam="1">  1       21 0.80302798E-03 0.21784869E+02</pdfrwt>
<pdfrwt beam="2">  1       21 0.14314029E-01 0.21784869E+02</pdfrwt>
<totfact> 0.14962621E+08</totfact>
</mgrwt>
</event>
<event>
 4    1  0.7165636E+004  0.2933467E+02  0.7546771E-02  0.1605562E+00
         21   -1    0    0  501  502  0.00000000000E+00  0.00000000000E+00  0.42670720391E+02  0.42670720391E+02  0.00000000000E+00 0.  1.
         21   -1    0    0  502  503 -0.00000000000E+00 -0.00000000000E+00 -0.29634609406E+02  0.29634609406E+02  0.00000000000E+00 0.  1.
          2    1    1    2  501    0  0.18232747589E+02 -0.22980200005E+02  0.26952856549E+02  0.39836906921E+02  0.00000000000E+00 0.  1.
         -2    1    1    2    0  503 -0.18232747589E+02  0.22980200005E+02 -0.13916745564E+02  0.32468422875E+02  0.00000000000E+00 0. -1.
<mgrwt>
<rscale>  2 0.29334667E+02</rscale>
<asrwt>0</asrwt>
<pdfrwt beam="1">  1       21 0.65647262E-02 0.29334667E+02</pdfrwt>
<pdfrwt beam="2">  1       21 0.45591707E-02 0.29334667E+02</pdfrwt>
<totfact> 0.40635788E+07</totfact>
</mgrwt>
</event>
<event>
 4    1  0.7165636E+004  0.2480479E+02  0.7546771E-02  0.1663822E+00
         21   -1    0    0  501  502  0.00000000000E+00  0.00000000000E+00  0.42821188986E+02  0.42821188986E+02  0.00000000000E+00 0.  1.
         21   -1    0    0  502  503 -0.00000000000E+00 -0.00000000000E+00 -0.23139409824E+02  0.23139409824E+02  0.00000000000E+00 0.  1.
          1    1    1    2  501    0  0.11251550116E+01 -0.24779261922E+02  0.30145744318E+02  0.39039002237E+02  0.00000000000E+00 0.  1.
         -1    1    1    2    0  503 -0.11251550116E+01  0.24779261922E+02 -0.10463965156E+02  0.26921596572E+02  0.00000000000E+00 0. -1.
<mgrwt>
<rscale>  2 0.24804794E+02</rscale>
<asrwt>0</asrwt>
<pdfrwt beam="1">  1       21 0.65878752E-02 0.24804794E+02</pdfrwt>
<pdfrwt beam="2">  1       21 0.35599092E-02 0.24804794E+02</pdfrwt>
<totfact> 0.57504413E+07</totfact>
</mgrwt>
</event>
<event>
 4    1  0.7165636E+004  0.2156119E+02  0.7546771E-02  0.1715953E+00
         21   -1    0    0  503  502  0.00000000000E+00  0.00000000000E+00  0.20134590136E+02  0.20134590136E+02  0.00000000000E+00 0.  1.
         21   -1    0    0  501  503 -0.00000000000E+00 -0.00000000000E+00 -0.23469860768E+02  0.23469860768E+02  0.00000000000E+00 0.  1.
          3    1    1    2  501    0  0.19714697395E+02  0.87301613153E+01 -0.44454332474E+01  0.22014697062E+02  0.00000000000E+00 0. -1.
         -3    1    1    2    0  502 -0.19714697395E+02 -0.87301613153E+01  0.11101626151E+01  0.21589753843E+02  0.00000000000E+00 0.  1.
<mgrwt>
<rscale>  2 0.21561192E+02</rscale>
<asrwt>0</asrwt>
<pdfrwt beam="1">  1       21 0.30976293E-02 0.21561192E+02</pdfrwt>
<pdfrwt beam="2">  1       21 0.36107478E-02 0.21561192E+02</pdfrwt>
<totfact> 0.17871799E+08</totfact>
</mgrwt>
</event>
<event>
 4    1  0.7165636E+004  0.2909554E+02  0.7546771E-02  0.1608307E+00
         21   -1    0    0  501  502  0.00000000000E+00  0.00000000000E+00  0.23612317348E+03  0.23612317348E+03  0.00000000000E+00 0.  1.
         21   -1    0    0  502  503 -0.00000000000E+00 -0.00000000000E+00 -0.37473175172E+01  0.37473175172E+01  0.00000000000E+00 0.  1.
          1    1    1    2  501    0 -0.23571426241E+02  0.17056911169E+02  0.14113345876E+03  0.14410136549E+03  0.00000000000E+00 0.  1.
         -1    1    1    2    0  503  0.23571426241E+02 -0.17056911169E+02  0.91242397201E+02  0.95769125508E+02  0.00000000000E+00 0. -1.
<mgrwt>
<rscale>  2 0.29095538E+02</rscale>
<asrwt>0</asrwt>
<pdfrwt beam="1">  1       21 0.36326630E-01 0.29095538E+02</pdfrwt>
<pdfrwt beam="2">  1       21 0.57651057E-03 0.29095538E+02</pdfrwt>
<totfact> 0.50441626E+07</totfact>
</mgrwt>
</event>
<event>
 4    1  0.7165636E+004  0.3837525E+02  0.7546771E-02  0.1520520E+00
         21   -1    0    0  503  502  0.00000000000E+00  0.00000000000E+00  0.23652670106E+02  0.23652670106E+02  0.00000000000E+00 0. -1.
         21   -1    0    0  501  503 -0.00000000000E+00 -0.00000000000E+00 -0.85416084757E+02  0.85416084757E+02  0.00000000000E+00 0. -1.
          4    1    1    2  501    0 -0.26067116282E+02  0.28163184143E+02 -0.24884283587E+01  0.38455841793E+02  0.00000000000E+00 0. -1.
         -4    1    1    2    0  502  0.26067116282E+02 -0.28163184143E+02 -0.59274986292E+02  0.70612913070E+02  0.00000000000E+00 0.  1.
<mgrwt>
<rscale>  2 0.38375246E+02</rscale>
<asrwt>0</asrwt>
<pdfrwt beam="1">  1       21 0.36388723E-02 0.38375246E+02</pdfrwt>
<pdfrwt beam="2">  1       21 0.13140936E-01 0.38375246E+02</pdfrwt>
<totfact> 0.19209244E+07</totfact>
</mgrwt>
</event>
<event>
 4    1  0.7165636E+004  0.2676784E+02  0.7546771E-02  0.1636835E+00
         21   -1    0    0  501  502  0.00000000000E+00  0.00000000000E+00  0.56553517237E+02  0.56553517237E+02  0.00000000000E+00 0.  1.
         21   -1    0    0  502  503 -0.00000000000E+00 -0.00000000000E+00 -0.16806587687E+02  0.16806587687E+02  0.00000000000E+00 0.  1.
          4    1    1    2  501    0 -0.21562315404E+02  0.15861397992E+02  0.16753734992E+01  0.26820221255E+02  0.00000000000E+00 0.  1.
         -4    1    1    2    0  503  0.21562315404E+02 -0.15861397992E+02  0.38071556051E+02  0.46539883669E+02  0.00000000000E+00 0. -1.
<mgrwt>
<rscale>  2 0.26767842E+02</rscale>
<asrwt>0</asrwt>
<pdfrwt beam="1">  1       21 0.87005410E-02 0.26767842E+02</pdfrwt>
<pdfrwt beam="2">  1       21 0.25856289E-02 0.26767842E+02</pdfrwt>
<totfact> 0.61329429E+07</totfact>
</mgrwt>
</event>
<event>
 4    1  0.7165636E+004  0.2124750E+02  0.7546771E-02  0.1721601E+00
         21   -1    0    0  501  502  0.00000000000E+00  0.00000000000E+00  0.85666577040E+01  0.85666577040E+01  0.00000000000E+00 0.  1.
         21   -1    0    0  502  503 -0.00000000000E+00 -0.00000000000E+00 -0.53041820089E+02  0.53041820089E+02  0.00000000000E+00 0.  1.
          2    1    1    2  501    0  0.18235758350E+02  0.10904734138E+02 -0.24713293488E+02  0.32591455694E+02  0.00000000000E+00 0. -1.
         -2    1    1    2    0  503 -0.18235758350E+02 -0.10904734138E+02 -0.19761868897E+02  0.29017022099E+02  0.00000000000E+00 0.  1.
<mgrwt>
<rscale>  2 0.21247497E+02</rscale>
<asrwt>0</asrwt>
<pdfrwt beam="1">  1       21 0.13179474E-02 0.21247497E+02</pdfrwt>
<pdfrwt beam="2">  1       21 0.81602798E-02 0.21247497E+02</pdfrwt>
<totfact> 0.17940009E+08</totfact>
</mgrwt>
</event>
<event>
 4    1  0.7165636E+004  0.2763438E+02  0.7546771E-02  0.1625813E+00
         21   -1    0    0  501  502  0.00000000000E+00  0.00000000000E+00  0.16911286940E+02  0.16911286940E+02  0.00000000000E+00 0. -1.
         21   -1    0    0  502  503 -0.00000000000E+00 -0.00000000000E+00 -0.46758714522E+02  0.46758714522E+02  0.00000000000E+00 0. -1.
          2    1    1    2  501    0 -0.64470536189E-01 -0.27634307739E+02 -0.20816180138E+02  0.34597290012E+02  0.00000000000E+00 0.  1.
         -2    1    1    2    0  503  0.64470536189E-01  0.27634307739E+02 -0.90312474444E+01  0.29072711450E+02  0.00000000000E+00 0. -1.
<mgrwt>
<rscale>  2 0.27634383E+02</rscale>
<asrwt>0</asrwt>
<pdfrwt beam="1">  1       21 0.26017365E-02 0.27634383E+02</pdfrwt>
<pdfrwt beam="2">  1       21 0.71936484E-02 0.27634383E+02</pdfrwt>
<totfact> 0.83655876E+07</totfact>
</mgrwt>
</event>
<event>
 4    1  0.7165636E+004  0.2176398E+02  0.7546771E-02  0.1712366E+00
         21   -1    0    0  501  502  0.00000000000E+00  0.00000000000E+00  0.51262033211E+02  0.51262033211E+02  0.00000000000E+00 0. -1.
         21   -1    0    0  502  503 -0.00000000000E+00 -0.00000000000E+00 -0.14568156286E+02  0.14568156286E+02  0.00000000000E+00 0. -1.
          2    1    1    2  501    0 -0.19605929239E+02 -0.94487163705E+01 -0.15585906427E+01  0.21819713728E+02  0.00000000000E+00 0. -1.
         -2    1    1    2    0  503  0.19605929239E+02  0.94487163705E+01  0.38252467568E+02  0.44010475769E+02  0.00000000000E+00 0.  1.
<mgrwt>
<rscale>  2 0.21763977E+02</rscale>
<asrwt>0</asrwt>
<pdfrwt beam="1">  1       21 0.78864666E-02 0.21763977E+02</pdfrwt>
<pdfrwt beam="2">  1       21 0.22412548E-02 0.21763977E+02</pdfrwt>
<totfact> 0.85085711E+07</totfact>
</mgrwt>
</event>
<event>
 4    1  0.7165636E+004  0.2408742E+02  0.7546771E-02  0.1674466E+00
         21   -1    0    0  501  502  0.00000000000E+00  0.00000000000E+00  0.12147088372E+04  0.12147088372E+04  0.00000000000E+00 0. -1.
         21   -1    0    0  502  503 -0.00000000000E+00 -0.00000000000E+00 -0.58986211951E+00  0.58986211951E+00  0.00000000000E+00 0. -1.
          1    1    1    2  501    0 -0.22852995061E+02 -0.76121199816E+01  0.87209296136E+03  0.87242554812E+03  0.00000000000E+00 0.  1.
         -1    1    1    2    0  503  0.22852995061E+02  0.76121199816E+01  0.34202601371E+03  0.34287315120E+03  0.00000000000E+00 0. -1.
<mgrwt>
<rscale>  2 0.24087419E+02</rscale>
<asrwt>0</asrwt>
<pdfrwt beam="1">  1       21 0.18687628E+00 0.24087419E+02</pdfrwt>
<pdfrwt beam="2">  1       21 0.90748991E-04 0.24087419E+02</pdfrwt>
<totfact> 0.21357837E+07</totfact>
</mgrwt>
</event>
<event>
 4    1  0.7165636E+004  0.2371526E+02  0.7546771E-02  0.1680172E+00
         21   -1    0    0  501  502  0.00000000000E+00  0.00000000000E+00  0.21713468578E+01  0.21713468578E+01  0.00000000000E+00 0. -1.
         21   -1    0    0  502  503 -0.00000000000E+00 -0.00000000000E+00 -0.26107293701E+03  0.26107293701E+03  0.00000000000E+00 0. -1.
          3    1    1    2  501    0  0.23698637467E+02  0.88789932874E+00 -0.14113363809E+03  0.14311225519E+03  0.00000000000E+00 0.  1.
         -3    1    1    2    0  503 -0.23698637467E+02 -0.88789932874E+00 -0.11776795206E+03  0.12013202868E+03  0.00000000000E+00 0. -1.
<mgrwt>
<rscale>  2 0.23715265E+02</rscale>
<asrwt>0</asrwt>
<pdfrwt beam="1">  1       21 0.33405360E-03 0.23715265E+02</pdfrwt>
<pdfrwt beam="2">  1       21 0.40165039E-01 0.23715265E+02</pdfrwt>
<totfact> 0.89122730E+07</totfact>
</mgrwt>
</event>
<event>
 4    1  0.7165636E+004  0.2485938E+02  0.7546771E-02  0.1663030E+00
         21   -1    0    0  501  502  0.00000000000E+00  0.00000000000E+00  0.11849277318E+04  0.11849277318E+04  0.00000000000E+00 0.  1.
         21   -1    0    0  502  503 -0.00000000000E+00 -0.00000000000E+00 -0.67478889392E+00  0.67478889392E+00  0.00000000000E+00 0.  1.
          1    1    1    2  501    0  0.11678586493E+02  0.21945375450E+02  0.30962427791E+03  0.31062064058E+03  0.00000000000E+00 0.  1.
         -1    1    1    2    0  503 -0.11678586493E+02 -0.21945375450E+02  0.87462866502E+03  0.87498188013E+03  0.00000000000E+00 0. -1.
<mgrwt>
<rscale>  2 0.24859382E+02</rscale>
<asrwt>0</asrwt>
<pdfrwt beam="1">  1       21 0.18229491E+00 0.24859382E+02</pdfrwt>
<pdfrwt beam="2">  1       21 0.10381462E-03 0.24859382E+02</pdfrwt>
<totfact> 0.18854135E+07</totfact>
</mgrwt>
</event>
<event>
 4    1  0.7165636E+004  0.2349798E+02  0.7546771E-02  0.1683563E+00
         21   -1    0    0  501  502  0.00000000000E+00  0.00000000000E+00  0.24044021835E+02  0.24044021835E+02  0.00000000000E+00 0. -1.
         21   -1    0    0  502  503 -0.00000000000E+00 -0.00000000000E+00 -0.42035412130E+02  0.42035412130E+02  0.00000000000E+00 0. -1.
          3    1    1    2  501    0  0.22661531429E+02 -0.62137097303E+01 -0.31250109469E+02  0.39098907109E+02  0.00000000000E+00 0.  1.
         -3    1    1    2    0  503 -0.22661531429E+02  0.62137097303E+01  0.13258719174E+02  0.26980526856E+02  0.00000000000E+00 0. -1.
<mgrwt>
<rscale>  2 0.23497983E+02</rscale>
<asrwt>0</asrwt>
<pdfrwt beam="1">  1       21 0.36990803E-02 0.23497983E+02</pdfrwt>
<pdfrwt beam="2">  1       21 0.64669864E-02 0.23497983E+02</pdfrwt>
<totfact> 0.55011070E+07</totfact>
</mgrwt>
</event>
<event>
 4    1  0.7165636E+004  0.2222004E+02  0.7546771E-02  0.1704474E+00
         21   -1    0    0  501  502  0.00000000000E+00  0.00000000000E+00  0.24777109948E+01  0.24777109948E+01  0.00000000000E+00 0.  1.
         21   -1    0    0  502  503 -0.00000000000E+00 -0.00000000000E+00 -0.20255259761E+03  0.20255259761E+03  0.00000000000E+00 0.  1.
          5    1    1    2  501    0  0.22202034642E+02 -0.89441974843E+00 -0.86984398478E+02  0.89777591344E+02  0.00000000000E+00 0.  1.
         -5    1    1    2    0  503 -0.22202034642E+02  0.89441974843E+00 -0.11309048814E+03  0.11525271726E+03  0.00000000000E+00 0. -1.
<mgrwt>
<rscale>  2 0.22220043E+02</rscale>
<asrwt>0</asrwt>
<pdfrwt beam="1">  1       21 0.38118637E-03 0.22220043E+02</pdfrwt>
<pdfrwt beam="2">  1       21 0.31161933E-01 0.22220043E+02</pdfrwt>
<totfact> 0.11562222E+08</totfact>
</mgrwt>
</event>
<event>
 4    1  0.7165636E+004  0.2070985E+02  0.7546771E-02  0.1731570E+00
         21   -1    0    0  503  502  0.00000000000E+00  0.00000000000E+00  0.43414534056E+02  0.43414534056E+02  0.00000000000E+00 0. -1.
         21   -1    0    0  501  503 -0.00000000000E+00 -0.00000000000E+00 -0.28137700364E+02  0.28137700364E+02  0.00000000000E+00 0. -1.
          2    1    1    2  501    0  0.13594761504E+02  0.15623065260E+02 -0.21180809723E+02  0.29623038483E+02  0.00000000000E+00 0.  1.
         -2    1    1    2    0  502 -0.13594761504E+02 -0.15623065260E+02  0.36457643415E+02  0.41929195936E+02  0.00000000000E+00 0. -1.
<mgrwt>
<rscale>  2 0.20709846E+02</rscale>
<asrwt>0</asrwt>
<pdfrwt beam="1">  1       21 0.66791591E-02 0.20709846E+02</pdfrwt>
<pdfrwt beam="2">  1       21 0.43288770E-02 0.20709846E+02</pdfrwt>
<totfact> 0.39461116E+07</totfact>
</mgrwt>
</event>
<event>
 4    1  0.7165636E+004  0.4565124E+02  0.7546771E-02  0.1470317E+00
         21   -1    0    0  503  502  0.00000000000E+00  0.00000000000E+00  0.16696762697E+03  0.16696762697E+03  0.00000000000E+00 0. -1.
         21   -1    0    0  501  503 -0.00000000000E+00 -0.00000000000E+00 -0.15079094741E+02  0.15079094741E+02  0.00000000000E+00 0. -1.
          5    1    1    2  501    0  0.23868996767E+02  0.38914099543E+02  0.38166519194E+02  0.59503943880E+02  0.00000000000E+00 0.  1.
         -5    1    1    2    0  502 -0.23868996767E+02 -0.38914099543E+02  0.11372201303E+03  0.12254277783E+03  0.00000000000E+00 0. -1.
<mgrwt>
<rscale>  2 0.45651245E+02</rscale>
<asrwt>0</asrwt>
<pdfrwt beam="1">  1       21 0.25687326E-01 0.45651245E+02</pdfrwt>
<pdfrwt beam="2">  1       21 0.23198608E-02 0.45651245E+02</pdfrwt>
<totfact> 0.12260735E+07</totfact>
</mgrwt>
</event>
<event>
 4    1  0.7165636E+004  0.2242288E+02  0.7546771E-02  0.1701040E+00
         21   -1    0    0  501  502  0.00000000000E+00  0.00000000000E+00  0.14468403034E+03  0.14468403034E+03  0.00000000000E+00 0.  1.
         21   -1    0    0  502  503 -0.00000000000E+00 -0.00000000000E+00 -0.44300728153E+01  0.44300728153E+01  0.00000000000E+00 0.  1.
          3    1    1    2  501    0  0.18286822136E+02 -0.12976039003E+02  0.35510071792E+02  0.41997031451E+02  0.00000000000E+00 0. -1.
         -3    1    1    2    0  503 -0.18286822136E+02  0.12976039003E+02  0.10474388573E+03  0.10711707170E+03  0.00000000000E+00 0.  1.
<mgrwt>
<rscale>  2 0.22422878E+02</rscale>
<asrwt>0</asrwt>
<pdfrwt beam="1">  1       21 0.22259078E-01 0.22422878E+02</pdfrwt>
<pdfrwt beam="2">  1       21 0.68154977E-03 0.22422878E+02</pdfrwt>
<totfact> 0.89910929E+07</totfact>
</mgrwt>
</event>
<event>
 4    1  0.7165636E+004  0.3082326E+02  0.7546771E-02  0.1589163E+00
         21   -1    0    0  501  502  0.00000000000E+00  0.00000000000E+00  0.22581327658E+02  0.22581327658E+02  0.00000000000E+00 0. -1.
         21   -1    0    0  502  503 -0.00000000000E+00 -0.00000000000E+00 -0.46237384340E+02  0.46237384340E+02  0.00000000000E+00 0. -1.
          5    1    1    2  501    0 -0.18551231482E+00  0.30822705840E+02 -0.15019935521E+01  0.30859837893E+02  0.00000000000E+00 0. -1.
         -5    1    1    2    0  503  0.18551231482E+00 -0.30822705840E+02 -0.22154063130E+02  0.37958874105E+02  0.00000000000E+00 0.  1.
<mgrwt>
<rscale>  2 0.30823264E+02</rscale>
<asrwt>0</asrwt>
<pdfrwt beam="1">  1       21 0.34740504E-02 0.30823264E+02</pdfrwt>
<pdfrwt beam="2">  1       21 0.71134437E-02 0.30823264E+02</pdfrwt>
<totfact> 0.55518601E+07</totfact>
</mgrwt>
</event>
<event>
 4    1  0.7165636E+004  0.2730564E+02  0.7546771E-02  0.1629935E+00
         21   -1    0    0  501  502  0.00000000000E+00  0.00000000000E+00  0.25750294205E+03  0.25750294205E+03  0.00000000000E+00 0. -1.
         21   -1    0    0  502  503 -0.00000000000E+00 -0.00000000000E+00 -0.33058195967E+01  0.33058195967E+01  0.00000000000E+00 0. -1.
          4    1    1    2  501    0 -0.53780148796E+01 -0.26770782990E+02  0.81155741484E+02  0.85626235710E+02  0.00000000000E+00 0.  1.
         -4    1    1    2    0  503  0.53780148796E+01  0.26770782990E+02  0.17304138097E+03  0.17518252594E+03  0.00000000000E+00 0. -1.
<mgrwt>
<rscale>  2 0.27305638E+02</rscale>
<asrwt>0</asrwt>
<pdfrwt beam="1">  1       21 0.39615821E-01 0.27305638E+02</pdfrwt>
<pdfrwt beam="2">  1       21 0.50858783E-03 0.27305638E+02</pdfrwt>
<totfact> 0.50906200E+07</totfact>
</mgrwt>
</event>
<event>
 4    1  0.7165636E+004  0.2752975E+02  0.7546771E-02  0.1627117E+00
         21   -1    0    0  503  502  0.00000000000E+00  0.00000000000E+00  0.39308306415E+01  0.39308306415E+01  0.00000000000E+00 0. -1.
         21   -1    0    0  501  503 -0.00000000000E+00 -0.00000000000E+00 -0.20206706535E+03  0.20206706535E+03  0.00000000000E+00 0. -1.
          4    1    1    2  501    0 -0.11456093985E+02 -0.25032882601E+02 -0.77017636078E+02  0.81789996746E+02  0.00000000000E+00 0. -1.
         -4    1    1    2    0  502  0.11456093985E+02  0.25032882601E+02 -0.12111859863E+03  0.12420789924E+03  0.00000000000E+00 0.  1.
<mgrwt>
<rscale>  2 0.27529753E+02</rscale>
<asrwt>0</asrwt>
<pdfrwt beam="1">  1       21 0.60474305E-03 0.27529753E+02</pdfrwt>
<pdfrwt beam="2">  1       21 0.31087247E-01 0.27529753E+02</pdfrwt>
<totfact> 0.61982995E+07</totfact>
</mgrwt>
</event>
<event>
 4    1  0.7165636E+004  0.2786012E+02  0.7546771E-02  0.1623023E+00
         21   -1    0    0  503  502  0.00000000000E+00  0.00000000000E+00  0.36867884667E+02  0.36867884667E+02  0.00000000000E+00 0.  1.
         21   -1    0    0  501  503 -0.00000000000E+00 -0.00000000000E+00 -0.26204883731E+02  0.26204883731E+02  0.00000000000E+00 0.  1.
          1    1    1    2  501    0 -0.19655220413E+02  0.19744836143E+02  0.19314366047E+02  0.33900309432E+02  0.00000000000E+00 0.  1.
         -1    1    1    2    0  502  0.19655220413E+02 -0.19744836143E+02 -0.86513651111E+01  0.29172458965E+02  0.00000000000E+00 0. -1.
<mgrwt>
<rscale>  2 0.27860119E+02</rscale>
<asrwt>0</asrwt>
<pdfrwt beam="1">  1       21 0.56719823E-02 0.27860119E+02</pdfrwt>
<pdfrwt beam="2">  1       21 0.40315206E-02 0.27860119E+02</pdfrwt>
<totfact> 0.61904749E+07</totfact>
</mgrwt>
</event>
<event>
 4    1  0.7165636E+004  0.2143144E+02  0.7546771E-02  0.1718274E+00
         21   -1    0    0  503  502  0.00000000000E+00  0.00000000000E+00  0.33855651509E+01  0.33855651509E+01  0.00000000000E+00 0. -1.
         21   -1    0    0  501  503 -0.00000000000E+00 -0.00000000000E+00 -0.13592010117E+03  0.13592010117E+03  0.00000000000E+00 0. -1.
          1    1    1    2  501    0  0.48783399740E+01 -0.20868842242E+02 -0.69277670857E+02  0.72516911523E+02  0.00000000000E+00 0. -1.
         -1    1    1    2    0  502 -0.48783399740E+01  0.20868842242E+02 -0.63256865166E+02  0.66788754802E+02  0.00000000000E+00 0.  1.
<mgrwt>
<rscale>  2 0.21431444E+02</rscale>
<asrwt>0</asrwt>
<pdfrwt beam="1">  1       21 0.52085614E-03 0.21431444E+02</pdfrwt>
<pdfrwt beam="2">  1       21 0.20910786E-01 0.21431444E+02</pdfrwt>
<totfact> 0.14741302E+08</totfact>
</mgrwt>
</event>
<event>
 4    1  0.7165636E+004  0.2312795E+02  0.7546771E-02  0.1689444E+00
         21   -1    0    0  501  502  0.00000000000E+00  0.00000000000E+00  0.37476560335E+03  0.37476560335E+03  0.00000000000E+00 0.  1.
         21   -1    0    0  502  503 -0.00000000000E+00 -0.00000000000E+00 -0.14308622918E+01  0.14308622918E+01  0.00000000000E+00 0.  1.
          5    1    1    2  501    0  0.13530158021E+02 -0.18757319651E+02  0.19605528443E+03  0.19741473291E+03  0.00000000000E+00 0.  1.
         -5    1    1    2    0  503 -0.13530158021E+02  0.18757319651E+02  0.17727945663E+03  0.17878173273E+03  0.00000000000E+00 0. -1.
<mgrwt>
<rscale>  2 0.23127953E+02</rscale>
<asrwt>0</asrwt>
<pdfrwt beam="1">  1       21 0.57656169E-01 0.23127953E+02</pdfrwt>
<pdfrwt beam="2">  1       21 0.22013296E-03 0.23127953E+02</pdfrwt>
<totfact> 0.80698126E+07</totfact>
</mgrwt>
</event>
<event>
 4    1  0.7165636E+004  0.2732249E+02  0.7546771E-02  0.1629722E+00
         21   -1    0    0  501  502  0.00000000000E+00  0.00000000000E+00  0.44394707040E+03  0.44394707040E+03  0.00000000000E+00 0. -1.
         21   -1    0    0  502  503 -0.00000000000E+00 -0.00000000000E+00 -0.20368301748E+01  0.20368301748E+01  0.00000000000E+00 0. -1.
          5    1    1    2  501    0 -0.22036046662E+02  0.16153370209E+02  0.12782333743E+03  0.13071084237E+03  0.00000000000E+00 0.  1.
         -5    1    1    2    0  503  0.22036046662E+02 -0.16153370209E+02  0.31408690279E+03  0.31527305820E+03  0.00000000000E+00 0. -1.
<mgrwt>
<rscale>  2 0.27322495E+02</rscale>
<asrwt>0</asrwt>
<pdfrwt beam="1">  1       21 0.68299472E-01 0.27322495E+02</pdfrwt>
<pdfrwt beam="2">  1       21 0.31335884E-03 0.27322495E+02</pdfrwt>
<totfact> 0.35535422E+07</totfact>
</mgrwt>
</event>
<event>
 4    1  0.7165636E+004  0.4082308E+02  0.7546771E-02  0.1502240E+00
         21   -1    0    0  503  502  0.00000000000E+00  0.00000000000E+00  0.71598340311E+02  0.71598340311E+02  0.00000000000E+00 0.  1.
         21   -1    0    0  501  503 -0.00000000000E+00 -0.00000000000E+00 -0.23569266265E+02  0.23569266265E+02  0.00000000000E+00 0.  1.
          3    1    1    2  501    0  0.35004399112E+02 -0.21005149304E+02  0.29322206620E+02  0.50262471642E+02  0.00000000000E+00 0. -1.
         -3    1    1    2    0  502 -0.35004399112E+02  0.21005149304E+02  0.18706867426E+02  0.44905134933E+02  0.00000000000E+00 0.  1.
<mgrwt>
<rscale>  2 0.40823085E+02</rscale>
<asrwt>0</asrwt>
<pdfrwt beam="1">  1       21 0.11015129E-01 0.40823085E+02</pdfrwt>
<pdfrwt beam="2">  1       21 0.36260410E-02 0.40823085E+02</pdfrwt>
<totfact> 0.26391502E+07</totfact>
</mgrwt>
</event>
<event>
 4    1  0.7165636E+004  0.2291357E+02  0.7546771E-02  0.1692915E+00
         21   -1    0    0  503  502  0.00000000000E+00  0.00000000000E+00  0.27474532199E+03  0.27474532199E+03  0.00000000000E+00 0. -1.
         21   -1    0    0  501  503 -0.00000000000E+00 -0.00000000000E+00 -0.20193722779E+01  0.20193722779E+01  0.00000000000E+00 0. -1.
          2    1    1    2  501    0 -0.19695970462E+02  0.11708982764E+02  0.10430168111E+03  0.10678891428E+03  0.00000000000E+00 0.  1.
         -2    1    1    2    0  502  0.19695970462E+02 -0.11708982764E+02  0.16842426860E+03  0.16997577999E+03  0.00000000000E+00 0. -1.
<mgrwt>
<rscale>  2 0.22913567E+02</rscale>
<asrwt>0</asrwt>
<pdfrwt beam="1">  1       21 0.42268482E-01 0.22913567E+02</pdfrwt>
<pdfrwt beam="2">  1       21 0.31067288E-03 0.22913567E+02</pdfrwt>
<totfact> 0.89162080E+07</totfact>
</mgrwt>
</event>
<event>
 4    1  0.7165636E+004  0.3499161E+02  0.7546771E-02  0.1548675E+00
         21   -1    0    0  503  502  0.00000000000E+00  0.00000000000E+00  0.14382122643E+03  0.14382122643E+03  0.00000000000E+00 0. -1.
         21   -1    0    0  501  503 -0.00000000000E+00 -0.00000000000E+00 -0.85767815482E+01  0.85767815482E+01  0.00000000000E+00 0. -1.
          3    1    1    2  501    0  0.24047385648E+02  0.25419210274E+02  0.74170700594E+02  0.82010400768E+02  0.00000000000E+00 0. -1.
         -3    1    1    2    0  502 -0.24047385648E+02 -0.25419210274E+02  0.61073744286E+02  0.70387607209E+02  0.00000000000E+00 0.  1.
<mgrwt>
<rscale>  2 0.34991613E+02</rscale>
<asrwt>0</asrwt>
<pdfrwt beam="1">  1       21 0.22126341E-01 0.34991613E+02</pdfrwt>
<pdfrwt beam="2">  1       21 0.13195050E-02 0.34991613E+02</pdfrwt>
<totfact> 0.37100228E+07</totfact>
</mgrwt>
</event>
<event>
 4    1  0.7165636E+004  0.4065919E+02  0.7546771E-02  0.1503416E+00
         21   -1    0    0  501  502  0.00000000000E+00  0.00000000000E+00  0.22498875008E+03  0.22498875008E+03  0.00000000000E+00 0. -1.
         21   -1    0    0  502  503 -0.00000000000E+00 -0.00000000000E+00 -0.73534120297E+01  0.73534120297E+01  0.00000000000E+00 0. -1.
          2    1    1    2  501    0 -0.60788048244E+01  0.40202211630E+02  0.10560497921E+03  0.11316174849E+03  0.00000000000E+00 0.  1.
         -2    1    1    2    0  503  0.60788048244E+01 -0.40202211630E+02  0.11203035884E+03  0.11918041362E+03  0.00000000000E+00 0. -1.
<mgrwt>
<rscale>  2 0.40659189E+02</rscale>
<asrwt>0</asrwt>
<pdfrwt beam="1">  1       21 0.34613649E-01 0.40659189E+02</pdfrwt>
<pdfrwt beam="2">  1       21 0.11312943E-02 0.40659189E+02</pdfrwt>
<totfact> 0.21158256E+07</totfact>
</mgrwt>
</event>
<event>
 4    1  0.7165636E+004  0.3339117E+02  0.7546771E-02  0.1563370E+00
         21   -1    0    0  503  502  0.00000000000E+00  0.00000000000E+00  0.47488901967E+02  0.47488901967E+02  0.00000000000E+00 0. -1.
         21   -1    0    0  501  503 -0.00000000000E+00 -0.00000000000E+00 -0.26480778138E+02  0.26480778138E+02  0.00000000000E+00 0. -1.
          2    1    1    2  501    0 -0.15908482757E+02 -0.29357964764E+02 -0.19491447269E+01  0.33448005679E+02  0.00000000000E+00 0. -1.
         -2    1    1    2    0  502  0.15908482757E+02  0.29357964764E+02  0.22957268555E+02  0.40521674426E+02  0.00000000000E+00 0.  1.
<mgrwt>
<rscale>  2 0.33391165E+02</rscale>
<asrwt>0</asrwt>
<pdfrwt beam="1">  1       21 0.73059849E-02 0.33391165E+02</pdfrwt>
<pdfrwt beam="2">  1       21 0.40739659E-02 0.33391165E+02</pdfrwt>
<totfact> 0.41946589E+07</totfact>
</mgrwt>
</event>
<event>
 4    1  0.7165636E+004  0.4040143E+02  0.7546771E-02  0.1505278E+00
         21   -1    0    0  501  502  0.00000000000E+00  0.00000000000E+00  0.24876196444E+02  0.24876196444E+02  0.00000000000E+00 0.  1.
         21   -1    0    0  502  503 -0.00000000000E+00 -0.00000000000E+00 -0.66671176200E+02  0.66671176200E+02  0.00000000000E+00 0.  1.
          3    1    1    2  501    0 -0.18176196972E+02 -0.36081876438E+02 -0.26656050921E+02  0.48402696148E+02  0.00000000000E+00 0. -1.
         -3    1    1    2    0  503  0.18176196972E+02  0.36081876438E+02 -0.15138928836E+02  0.43144676496E+02  0.00000000000E+00 0.  1.
<mgrwt>
<rscale>  2 0.40401435E+02</rscale>
<asrwt>0</asrwt>
<pdfrwt beam="1">  1       21 0.38271071E-02 0.40401435E+02</pdfrwt>
<pdfrwt beam="2">  1       21 0.10257104E-01 0.40401435E+02</pdfrwt>
<totfact> 0.27269111E+07</totfact>
</mgrwt>
</event>
<event>
 4    1  0.7165636E+004  0.2409114E+02  0.7546771E-02  0.1674410E+00
         21   -1    0    0  501  502  0.00000000000E+00  0.00000000000E+00  0.10945775414E+02  0.10945775414E+02  0.00000000000E+00 0. -1.
         21   -1    0    0  502  503 -0.00000000000E+00 -0.00000000000E+00 -0.53624995797E+02  0.53624995797E+02  0.00000000000E+00 0. -1.
          1    1    1    2  501    0  0.19051494014E+02  0.14745285037E+02 -0.24759042932E+02  0.34545521589E+02  0.00000000000E+00 0. -1.
         -1    1    1    2    0  503 -0.19051494014E+02 -0.14745285037E+02 -0.17920177452E+02  0.30025249622E+02  0.00000000000E+00 0.  1.
<mgrwt>
<rscale>  2 0.24091136E+02</rscale>
<asrwt>0</asrwt>
<pdfrwt beam="1">  1       21 0.16839654E-02 0.24091136E+02</pdfrwt>
<pdfrwt beam="2">  1       21 0.82499994E-02 0.24091136E+02</pdfrwt>
<totfact> 0.12615828E+08</totfact>
</mgrwt>
</event>
<event>
 4    1  0.7165636E+004  0.2145235E+02  0.7546771E-02  0.1717899E+00
         21   -1    0    0  503  502  0.00000000000E+00  0.00000000000E+00  0.28797408935E+02  0.28797408935E+02  0.00000000000E+00 0. -1.
         21   -1    0    0  501  503 -0.00000000000E+00 -0.00000000000E+00 -0.22553158247E+02  0.22553158247E+02  0.00000000000E+00 0. -1.
          5    1    1    2  501    0 -0.77962184675E+01  0.19985557433E+02  0.16982488007E+02  0.27360709553E+02  0.00000000000E+00 0.  1.
         -5    1    1    2    0  502  0.77962184675E+01 -0.19985557433E+02 -0.10738237319E+02  0.23989857628E+02  0.00000000000E+00 0. -1.
<mgrwt>
<rscale>  2 0.21452355E+02</rscale>
<asrwt>0</asrwt>
<pdfrwt beam="1">  1       21 0.44303706E-02 0.21452355E+02</pdfrwt>
<pdfrwt beam="2">  1       21 0.34697166E-02 0.21452355E+02</pdfrwt>
<totfact> 0.10841213E+08</totfact>
</mgrwt>
</event>
<event>
 4    1  0.7165636E+004  0.2549979E+02  0.7546771E-02  0.1653925E+00
         21   -1    0    0  503  502  0.00000000000E+00  0.00000000000E+00  0.35303660777E+01  0.35303660777E+01  0.00000000000E+00 0.  1.
         21   -1    0    0  501  503 -0.00000000000E+00 -0.00000000000E+00 -0.20068940185E+03  0.20068940185E+03  0.00000000000E+00 0.  1.
          4    1    1    2  501    0 -0.64604778604E+01 -0.24667828398E+02 -0.69296962329E+02  0.73839748917E+02  0.00000000000E+00 0.  1.
         -4    1    1    2    0  502  0.64604778604E+01  0.24667828398E+02 -0.12786207345E+03  0.13038001901E+03  0.00000000000E+00 0. -1.
<mgrwt>
<rscale>  2 0.25499795E+02</rscale>
<asrwt>0</asrwt>
<pdfrwt beam="1">  1       21 0.54313327E-03 0.25499795E+02</pdfrwt>
<pdfrwt beam="2">  1       21 0.30875291E-01 0.25499795E+02</pdfrwt>
<totfact> 0.72336523E+07</totfact>
</mgrwt>
</event>
<event>
 4    1  0.7165636E+004  0.2175850E+02  0.7546771E-02  0.1712462E+00
         21   -1    0    0  501  502  0.00000000000E+00  0.00000000000E+00  0.82460561856E+02  0.82460561856E+02  0.00000000000E+00 0. -1.
         21   -1    0    0  502  503 -0.00000000000E+00 -0.00000000000E+00 -0.62496924741E+01  0.62496924741E+01  0.00000000000E+00 0. -1.
          3    1    1    2  501    0 -0.29684374998E+01 -0.21555061512E+02  0.25454971559E+02  0.33487129991E+02  0.00000000000E+00 0.  1.
         -3    1    1    2    0  503  0.29684374998E+01  0.21555061512E+02  0.50755897823E+02  0.55223124339E+02  0.00000000000E+00 0. -1.
<mgrwt>
<rscale>  2 0.21758499E+02</rscale>
<asrwt>0</asrwt>
<pdfrwt beam="1">  1       21 0.12686240E-01 0.21758499E+02</pdfrwt>
<pdfrwt beam="2">  1       21 0.96149120E-03 0.21758499E+02</pdfrwt>
<totfact> 0.14007517E+08</totfact>
</mgrwt>
</event>
<event>
 4    1  0.7165636E+004  0.2226128E+02  0.7546771E-02  0.1703772E+00
         21   -1    0    0  501  502  0.00000000000E+00  0.00000000000E+00  0.21485104956E+02  0.21485104956E+02  0.00000000000E+00 0.  1.
         21   -1    0    0  502  503 -0.00000000000E+00 -0.00000000000E+00 -0.23619172919E+02  0.23619172919E+02  0.00000000000E+00 0.  1.
          1    1    1    2  501    0 -0.20113016446E+02 -0.95410236317E+01  0.23858686683E+01  0.22388767983E+02  0.00000000000E+00 0.  1.
         -1    1    1    2    0  503  0.20113016446E+02  0.95410236317E+01 -0.45199366312E+01  0.22715509892E+02  0.00000000000E+00 0. -1.
<mgrwt>
<rscale>  2 0.22261279E+02</rscale>
<asrwt>0</asrwt>
<pdfrwt beam="1">  1       21 0.33054008E-02 0.22261279E+02</pdfrwt>
<pdfrwt beam="2">  1       21 0.36337189E-02 0.22261279E+02</pdfrwt>
<totfact> 0.16153082E+08</totfact>
</mgrwt>
</event>
<event>
 4    1  0.7165636E+004  0.2019990E+02  0.7546771E-02  0.1741382E+00
         21   -1    0    0  503  502  0.00000000000E+00  0.00000000000E+00  0.32984566025E+01  0.32984566025E+01  0.00000000000E+00 0.  1.
         21   -1    0    0  501  503 -0.00000000000E+00 -0.00000000000E+00 -0.26346770801E+03  0.26346770801E+03  0.00000000000E+00 0.  1.
          3    1    1    2  501    0 -0.20187088755E+02  0.71917422228E+00 -0.32936904809E+02  0.38637746601E+02  0.00000000000E+00 0.  1.
         -3    1    1    2    0  502  0.20187088755E+02 -0.71917422228E+00 -0.22723234660E+03  0.22812841801E+03  0.00000000000E+00 0. -1.
<mgrwt>
<rscale>  2 0.20199895E+02</rscale>
<asrwt>0</asrwt>
<pdfrwt beam="1">  1       21 0.50745460E-03 0.20199895E+02</pdfrwt>
<pdfrwt beam="2">  1       21 0.40533515E-01 0.20199895E+02</pdfrwt>
<totfact> 0.45584153E+07</totfact>
</mgrwt>
</event>
<event>
 4    1  0.7165636E+004  0.2880864E+02  0.7546771E-02  0.1611644E+00
         21   -1    0    0  501  502  0.00000000000E+00  0.00000000000E+00  0.18065499998E+03  0.18065499998E+03  0.00000000000E+00 0.  1.
         21   -1    0    0  502  503 -0.00000000000E+00 -0.00000000000E+00 -0.55710599210E+01  0.55710599210E+01  0.00000000000E+00 0.  1.
          2    1    1    2  501    0  0.28808618662E+02  0.36922726533E-01  0.48548551220E+02  0.56452632339E+02  0.00000000000E+00 0.  1.
         -2    1    1    2    0  503 -0.28808618662E+02 -0.36922726533E-01  0.12653538884E+03  0.12977342757E+03  0.00000000000E+00 0. -1.
<mgrwt>
<rscale>  2 0.28808642E+02</rscale>
<asrwt>0</asrwt>
<pdfrwt beam="1">  1       21 0.27793072E-01 0.28808642E+02</pdfrwt>
<pdfrwt beam="2">  1       21 0.85708628E-03 0.28808642E+02</pdfrwt>
<totfact> 0.45573392E+07</totfact>
</mgrwt>
</event>
<event>
 4    1  0.7165636E+004  0.2081041E+02  0.7546771E-02  0.1729676E+00
         21   -1    0    0  503  502  0.00000000000E+00  0.00000000000E+00  0.15615531606E+01  0.15615531606E+01  0.00000000000E+00 0. -1.
         21   -1    0    0  501  503 -0.00000000000E+00 -0.00000000000E+00 -0.28173536315E+03  0.28173536315E+03  0.00000000000E+00 0. -1.
          5    1    1    2  501    0 -0.20318688799E+02 -0.44971198006E+01 -0.12238418476E+03  0.12414089527E+03  0.00000000000E+00 0.  1.
         -5    1    1    2    0  502  0.20318688799E+02  0.44971198006E+01 -0.15778962524E+03  0.15915602104E+03  0.00000000000E+00 0. -1.
<mgrwt>
<rscale>  2 0.20810411E+02</rscale>
<asrwt>0</asrwt>
<pdfrwt beam="1">  1       21 0.24023885E-03 0.20810411E+02</pdfrwt>
<pdfrwt beam="2">  1       21 0.43343920E-01 0.20810411E+02</pdfrwt>
<totfact> 0.12031507E+08</totfact>
</mgrwt>
</event>
<event>
 4    1  0.7165636E+004  0.2011936E+02  0.7546771E-02  0.1742965E+00
         21   -1    0    0  503  502  0.00000000000E+00  0.00000000000E+00  0.65177738151E+01  0.65177738151E+01  0.00000000000E+00 0. -1.
         21   -1    0    0  501  503 -0.00000000000E+00 -0.00000000000E+00 -0.64552679956E+02  0.64552679956E+02  0.00000000000E+00 0. -1.
          3    1    1    2  501    0  0.19697664699E+02  0.40976612563E+01 -0.35936487898E+02  0.41185191329E+02  0.00000000000E+00 0. -1.
         -3    1    1    2    0  502 -0.19697664699E+02 -0.40976612563E+01 -0.22098418242E+02  0.29885262441E+02  0.00000000000E+00 0.  1.
<mgrwt>
<rscale>  2 0.20119364E+02</rscale>
<asrwt>0</asrwt>
<pdfrwt beam="1">  1       21 0.10027344E-02 0.20119364E+02</pdfrwt>
<pdfrwt beam="2">  1       21 0.99311814E-02 0.20119364E+02</pdfrwt>
<totfact> 0.19278610E+08</totfact>
</mgrwt>
</event>
<event>
 4    1  0.7165636E+004  0.2799402E+02  0.7546771E-02  0.1621383E+00
         21   -1    0    0  501  502  0.00000000000E+00  0.00000000000E+00  0.43985146595E+03  0.43985146595E+03  0.00000000000E+00 0.  1.
         21   -1    0    0  502  503 -0.00000000000E+00 -0.00000000000E+00 -0.18239663937E+01  0.18239663937E+01  0.00000000000E+00 0.  1.
          5    1    1    2  501    0 -0.19792113810E+02 -0.19797404119E+02  0.18537986889E+03  0.18748162782E+03  0.00000000000E+00 0. -1.
         -5    1    1    2    0  503  0.19792113810E+02  0.19797404119E+02  0.25264763066E+03  0.25419380452E+03  0.00000000000E+00 0.  1.
<mgrwt>
<rscale>  2 0.27994017E+02</rscale>
<asrwt>0</asrwt>
<pdfrwt beam="1">  1       21 0.67669372E-01 0.27994017E+02</pdfrwt>
<pdfrwt beam="2">  1       21 0.28061057E-03 0.27994017E+02</pdfrwt>
<totfact> 0.42783491E+07</totfact>
</mgrwt>
</event>
<event>
 4    1  0.7165636E+004  0.3755971E+02  0.7546771E-02  0.1526978E+00
         21   -1    0    0  503  502  0.00000000000E+00  0.00000000000E+00  0.10871857702E+01  0.10871857702E+01  0.00000000000E+00 0.  1.
         21   -1    0    0  501  503 -0.00000000000E+00 -0.00000000000E+00 -0.13863933871E+04  0.13863933871E+04  0.00000000000E+00 0.  1.
          1    1    1    2  501    0  0.33074739979E+02 -0.17798698402E+02 -0.51708550540E+03  0.51844782957E+03  0.00000000000E+00 0.  1.
         -1    1    1    2    0  502 -0.33074739979E+02  0.17798698402E+02 -0.86822069589E+03  0.86903274326E+03  0.00000000000E+00 0. -1.
<mgrwt>
<rscale>  2 0.37559714E+02</rscale>
<asrwt>0</asrwt>
<pdfrwt beam="1">  1       21 0.16725833E-03 0.37559714E+02</pdfrwt>
<pdfrwt beam="2">  1       21 0.21329258E+00 0.37559714E+02</pdfrwt>
<totfact> 0.65219808E+06</totfact>
</mgrwt>
</event>
<event>
 4    1  0.7165636E+004  0.2734465E+02  0.7546771E-02  0.1629442E+00
         21   -1    0    0  501  502  0.00000000000E+00  0.00000000000E+00  0.71302909130E+02  0.71302909130E+02  0.00000000000E+00 0. -1.
         21   -1    0    0  502  503 -0.00000000000E+00 -0.00000000000E+00 -0.20489177801E+02  0.20489177801E+02  0.00000000000E+00 0. -1.
          3    1    1    2  501    0  0.19770933313E+02  0.18890216094E+02  0.57474537824E+02  0.63647879511E+02  0.00000000000E+00 0.  1.
         -3    1    1    2    0  503 -0.19770933313E+02 -0.18890216094E+02 -0.66608064955E+01  0.28144207420E+02  0.00000000000E+00 0. -1.
<mgrwt>
<rscale>  2 0.27344653E+02</rscale>
<asrwt>0</asrwt>
<pdfrwt beam="1">  1       21 0.10969678E-01 0.27344653E+02</pdfrwt>
<pdfrwt beam="2">  1       21 0.31521812E-02 0.27344653E+02</pdfrwt>
<totfact> 0.30753673E+07</totfact>
</mgrwt>
</event>
<event>
 4    1  0.7165636E+004  0.2024866E+02  0.7546771E-02  0.1740428E+00
         21   -1    0    0  503  502  0.00000000000E+00  0.00000000000E+00  0.63143634852E+01  0.63143634852E+01  0.00000000000E+00 0. -1.
         21   -1    0    0  501  503 -0.00000000000E+00 -0.00000000000E+00 -0.84756876717E+02  0.84756876717E+02  0.00000000000E+00 0. -1.
          4    1    1    2  501    0  0.17362597931E+02 -0.10418650077E+02 -0.17198970909E+02  0.26567135274E+02  0.00000000000E+00 0.  1.
         -4    1    1    2    0  502 -0.17362597931E+02  0.10418650077E+02 -0.61243542323E+02  0.64504104928E+02  0.00000000000E+00 0. -1.
<mgrwt>
<rscale>  2 0.20248656E+02</rscale>
<asrwt>0</asrwt>
<pdfrwt beam="1">  1       21 0.97144059E-03 0.20248656E+02</pdfrwt>
<pdfrwt beam="2">  1       21 0.13039519E-01 0.20248656E+02</pdfrwt>
<totfact> 0.12892579E+08</totfact>
</mgrwt>
</event>
<event>
 4    1  0.7165636E+004  0.2326195E+02  0.7546771E-02  0.1687299E+00
         21   -1    0    0  501  502  0.00000000000E+00  0.00000000000E+00  0.47347848165E+02  0.47347848165E+02  0.00000000000E+00 0. -1.
         21   -1    0    0  502  503 -0.00000000000E+00 -0.00000000000E+00 -0.11461657664E+02  0.11461657664E+02  0.00000000000E+00 0. -1.
          3    1    1    2  501    0  0.11722960145E+02  0.20092054431E+02  0.19522859909E+02  0.30368742234E+02  0.00000000000E+00 0.  1.
         -3    1    1    2    0  503 -0.11722960145E+02 -0.20092054431E+02  0.16363330592E+02  0.28440763595E+02  0.00000000000E+00 0. -1.
<mgrwt>
<rscale>  2 0.23261953E+02</rscale>
<asrwt>0</asrwt>
<pdfrwt beam="1">  1       21 0.72842842E-02 0.23261953E+02</pdfrwt>
<pdfrwt beam="2">  1       21 0.17633320E-02 0.23261953E+02</pdfrwt>
<totfact> 0.14256352E+08</totfact>
</mgrwt>
</event>
<event>
 4    1  0.7165636E+004  0.3219748E+02  0.7546771E-02  0.1574996E+00
         21   -1    0    0  503  502  0.00000000000E+00  0.00000000000E+00  0.74931289621E+01  0.74931289621E+01  0.00000000000E+00 0. -1.
         21   -1    0    0  501  503 -0.00000000000E+00 -0.00000000000E+00 -0.13851579508E+03  0.13851579508E+03  0.00000000000E+00 0. -1.
          1    1    1    2  501    0 -0.19776290400E+02  0.25408187035E+02 -0.68033761080E+02  0.75267989723E+02  0.00000000000E+00 0.  1.
         -1    1    1    2    0  502  0.19776290400E+02 -0.25408187035E+02 -0.62988905037E+02  0.70740934317E+02  0.00000000000E+00 0. -1.
<mgrwt>
<rscale>  2 0.32197479E+02</rscale>
<asrwt>0</asrwt>
<pdfrwt beam="1">  1       21 0.11527891E-02 0.32197479E+02</pdfrwt>
<pdfrwt beam="2">  1       21 0.21310122E-01 0.32197479E+02</pdfrwt>
<totfact> 0.47985935E+07</totfact>
</mgrwt>
</event>
<event>
 4    1  0.7165636E+004  0.3242538E+02  0.7546771E-02  0.1572729E+00
         21   -1    0    0  501  502  0.00000000000E+00  0.00000000000E+00  0.45211117612E+03  0.45211117612E+03  0.00000000000E+00 0.  1.
         21   -1    0    0  502  503 -0.00000000000E+00 -0.00000000000E+00 -0.23276146018E+01  0.23276146018E+01  0.00000000000E+00 0.  1.
          5    1    1    2  501    0 -0.32410735375E+02  0.97457469578E+00  0.23166469809E+03  0.23392293155E+03  0.00000000000E+00 0. -1.
         -5    1    1    2    0  503  0.32410735375E+02 -0.97457469578E+00  0.21811886342E+03  0.22051585917E+03  0.00000000000E+00 0.  1.
<mgrwt>
<rscale>  2 0.32425385E+02</rscale>
<asrwt>0</asrwt>
<pdfrwt beam="1">  1       21 0.69555496E-01 0.32425385E+02</pdfrwt>
<pdfrwt beam="2">  1       21 0.35809491E-03 0.32425385E+02</pdfrwt>
<totfact> 0.29008110E+07</totfact>
</mgrwt>
</event>
<event>
 4    1  0.7165636E+004  0.2641220E+02  0.7546771E-02  0.1641509E+00
         21   -1    0    0  503  502  0.00000000000E+00  0.00000000000E+00  0.18496870576E+03  0.18496870576E+03  0.00000000000E+00 0. -1.
         21   -1    0    0  501  503 -0.00000000000E+00 -0.00000000000E+00 -0.46903926460E+01  0.46903926460E+01  0.00000000000E+00 0. -1.
          2    1    1    2  501    0 -0.32005695134E+01  0.26217564543E+02  0.13211293232E+03  0.13472724751E+03  0.00000000000E+00 0. -1.
         -2    1    1    2    0  502  0.32005695134E+01 -0.26217564543E+02  0.48165380800E+02  0.54931850901E+02  0.00000000000E+00 0.  1.
<mgrwt>
<rscale>  2 0.26412201E+02</rscale>
<asrwt>0</asrwt>
<pdfrwt beam="1">  1       21 0.28456718E-01 0.26412201E+02</pdfrwt>
<pdfrwt beam="2">  1       21 0.72159901E-03 0.26412201E+02</pdfrwt>
<totfact> 0.55442509E+07</totfact>
</mgrwt>
</event>
<event>
 4    1  0.7165636E+004  0.4683535E+02  0.7546771E-02  0.1463199E+00
         21   -1    0    0  503  502  0.00000000000E+00  0.00000000000E+00  0.22725523187E+02  0.22725523187E+02  0.00000000000E+00 0.  1.
         21   -1    0    0  501  503 -0.00000000000E+00 -0.00000000000E+00 -0.13402522717E+03  0.13402522717E+03  0.00000000000E+00 0.  1.
          3    1    1    2  501    0  0.44678209245E+02  0.14050174215E+02 -0.97108133277E+02  0.10781251933E+03  0.00000000000E+00 0.  1.
         -3    1    1    2    0  502 -0.44678209245E+02 -0.14050174215E+02 -0.14191570709E+02  0.48938231026E+02  0.00000000000E+00 0. -1.
<mgrwt>
<rscale>  2 0.46835348E+02</rscale>
<asrwt>0</asrwt>
<pdfrwt beam="1">  1       21 0.34962344E-02 0.46835348E+02</pdfrwt>
<pdfrwt beam="2">  1       21 0.20619265E-01 0.46835348E+02</pdfrwt>
<totfact> 0.95435492E+06</totfact>
</mgrwt>
</event>
<event>
 4    1  0.7165636E+004  0.2330814E+02  0.7546771E-02  0.1686563E+00
         21   -1    0    0  503  502  0.00000000000E+00  0.00000000000E+00  0.59518216433E+02  0.59518216433E+02  0.00000000000E+00 0.  1.
         21   -1    0    0  501  503 -0.00000000000E+00 -0.00000000000E+00 -0.11000402394E+02  0.11000402394E+02  0.00000000000E+00 0.  1.
          2    1    1    2  501    0  0.16083657315E+01 -0.23252580369E+02  0.38806606898E+02  0.45268334110E+02  0.00000000000E+00 0. -1.
         -2    1    1    2    0  502 -0.16083657315E+01  0.23252580369E+02  0.97112071414E+01  0.25250284717E+02  0.00000000000E+00 0.  1.
<mgrwt>
<rscale>  2 0.23308139E+02</rscale>
<asrwt>0</asrwt>
<pdfrwt beam="1">  1       21 0.91566485E-02 0.23308139E+02</pdfrwt>
<pdfrwt beam="2">  1       21 0.16923696E-02 0.23308139E+02</pdfrwt>
<totfact> 0.10450077E+08</totfact>
</mgrwt>
</event>
<event>
 4    1  0.7165636E+004  0.3000941E+02  0.7546771E-02  0.1597985E+00
         21   -1    0    0  503  502  0.00000000000E+00  0.00000000000E+00  0.16814262424E+04  0.16814262424E+04  0.00000000000E+00 0.  1.
         21   -1    0    0  501  503 -0.00000000000E+00 -0.00000000000E+00 -0.67152178974E+00  0.67152178974E+00  0.00000000000E+00 0.  1.
          3    1    1    2  501    0 -0.10755964186E+02  0.28015599148E+02  0.46198470864E+03  0.46295835188E+03  0.00000000000E+00 0. -1.
         -3    1    1    2    0  502  0.10755964186E+02 -0.28015599148E+02  0.12187700119E+04  0.12191394123E+04  0.00000000000E+00 0.  1.
<mgrwt>
<rscale>  2 0.30009408E+02</rscale>
<asrwt>0</asrwt>
<pdfrwt beam="1">  1       21 0.25867759E+00 0.30009408E+02</pdfrwt>
<pdfrwt beam="2">  1       21 0.10331239E-03 0.30009408E+02</pdfrwt>
<totfact> 0.74570507E+06</totfact>
</mgrwt>
</event>
<event>
 4    1  0.7165636E+004  0.2650941E+02  0.7546771E-02  0.1640223E+00
         21   -1    0    0  501  502  0.00000000000E+00  0.00000000000E+00  0.21278019815E+03  0.21278019815E+03  0.00000000000E+00 0.  1.
         21   -1    0    0  502  503 -0.00000000000E+00 -0.00000000000E+00 -0.33561895742E+01  0.33561895742E+01  0.00000000000E+00 0.  1.
          2    1    1    2  501    0  0.77921318579E+01 -0.25338336926E+02  0.91068711281E+02  0.94848609961E+02  0.00000000000E+00 0.  1.
         -2    1    1    2    0  503 -0.77921318579E+01  0.25338336926E+02  0.11835529730E+03  0.12128777776E+03  0.00000000000E+00 0. -1.
<mgrwt>
<rscale>  2 0.26509407E+02</rscale>
<asrwt>0</asrwt>
<pdfrwt beam="1">  1       21 0.32735405E-01 0.26509407E+02</pdfrwt>
<pdfrwt beam="2">  1       21 0.51633702E-03 0.26509407E+02</pdfrwt>
<totfact> 0.70657920E+07</totfact>
</mgrwt>
</event>
<event>
 4    1  0.7165636E+004  0.2123812E+02  0.7546771E-02  0.1721771E+00
         21   -1    0    0  503  502  0.00000000000E+00  0.00000000000E+00  0.91134163881E+01  0.91134163881E+01  0.00000000000E+00 0.  1.
         21   -1    0    0  501  503 -0.00000000000E+00 -0.00000000000E+00 -0.11362252713E+03  0.11362252713E+03  0.00000000000E+00 0.  1.
          1    1    1    2  501    0  0.12244815405E+02  0.17352880079E+02 -0.98358250003E+02  0.10062506296E+03  0.00000000000E+00 0.  1.
         -1    1    1    2    0  502 -0.12244815405E+02 -0.17352880079E+02 -0.61508607373E+01  0.22110880560E+02  0.00000000000E+00 0. -1.
<mgrwt>
<rscale>  2 0.21238125E+02</rscale>
<asrwt>0</asrwt>
<pdfrwt beam="1">  1       21 0.14020641E-02 0.21238125E+02</pdfrwt>
<pdfrwt beam="2">  1       21 0.17480388E-01 0.21238125E+02</pdfrwt>
<totfact> 0.45781357E+07</totfact>
</mgrwt>
</event>
<event>
 4    1  0.7165636E+004  0.2188946E+02  0.7546771E-02  0.1710171E+00
         21   -1    0    0  503  502  0.00000000000E+00  0.00000000000E+00  0.15542085142E+03  0.15542085142E+03  0.00000000000E+00 0.  1.
         21   -1    0    0  501  503 -0.00000000000E+00 -0.00000000000E+00 -0.31046078796E+01  0.31046078796E+01  0.00000000000E+00 0.  1.
          4    1    1    2  501    0 -0.11095057830E+02 -0.18869233709E+02  0.82784674965E+02  0.85629730223E+02  0.00000000000E+00 0. -1.
         -4    1    1    2    0  502  0.11095057830E+02  0.18869233709E+02  0.69531568573E+02  0.72895729074E+02  0.00000000000E+00 0.  1.
<mgrwt>
<rscale>  2 0.21889456E+02</rscale>
<asrwt>0</asrwt>
<pdfrwt beam="1">  1       21 0.23910894E-01 0.21889456E+02</pdfrwt>
<pdfrwt beam="2">  1       21 0.47763210E-03 0.21889456E+02</pdfrwt>
<totfact> 0.13310066E+08</totfact>
</mgrwt>
</event>
<event>
 4    1  0.7165636E+004  0.2852277E+02  0.7546771E-02  0.1615016E+00
         21   -1    0    0  501  502  0.00000000000E+00  0.00000000000E+00  0.14841812940E+01  0.14841812940E+01  0.00000000000E+00 0. -1.
         21   -1    0    0  502  503 -0.00000000000E+00 -0.00000000000E+00 -0.56856665859E+03  0.56856665859E+03  0.00000000000E+00 0. -1.
          2    1    1    2  501    0  0.10252994493E+02 -0.26616243334E+02 -0.22952480979E+03  0.23129026485E+03  0.00000000000E+00 0.  1.
         -2    1    1    2    0  503 -0.10252994493E+02  0.26616243334E+02 -0.33755766751E+03  0.33876057504E+03  0.00000000000E+00 0. -1.
<mgrwt>
<rscale>  2 0.28522768E+02</rscale>
<asrwt>0</asrwt>
<pdfrwt beam="1">  1       21 0.22833553E-03 0.28522768E+02</pdfrwt>
<pdfrwt beam="2">  1       21 0.87471815E-01 0.28522768E+02</pdfrwt>
<totfact> 0.33827003E+07</totfact>
</mgrwt>
</event>
<event>
 4    1  0.7165636E+004  0.2644763E+02  0.7546771E-02  0.1641039E+00
         21   -1    0    0  501  502  0.00000000000E+00  0.00000000000E+00  0.19080812898E+01  0.19080812898E+01  0.00000000000E+00 0. -1.
         21   -1    0    0  502  503 -0.00000000000E+00 -0.00000000000E+00 -0.42695984322E+03  0.42695984322E+03  0.00000000000E+00 0. -1.
          5    1    1    2  501    0  0.26041439773E+02  0.46173998391E+01 -0.29316066603E+03  0.29435124099E+03  0.00000000000E+00 0.  1.
         -5    1    1    2    0  503 -0.26041439773E+02 -0.46173998391E+01 -0.13189109590E+03  0.13451668352E+03  0.00000000000E+00 0. -1.
<mgrwt>
<rscale>  2 0.26447627E+02</rscale>
<asrwt>0</asrwt>
<pdfrwt beam="1">  1       21 0.29355069E-03 0.26447627E+02</pdfrwt>
<pdfrwt beam="2">  1       21 0.65686191E-01 0.26447627E+02</pdfrwt>
<totfact> 0.42080845E+07</totfact>
</mgrwt>
</event>
<event>
 4    1  0.7165636E+004  0.2454713E+02  0.7546771E-02  0.1667593E+00
         21   -1    0    0  501  502  0.00000000000E+00  0.00000000000E+00  0.30728888796E+01  0.30728888796E+01  0.00000000000E+00 0. -1.
         21   -1    0    0  502  503 -0.00000000000E+00 -0.00000000000E+00 -0.31363626937E+03  0.31363626937E+03  0.00000000000E+00 0. -1.
          3    1    1    2  501    0  0.76601945171E+01  0.23321296272E+02 -0.58337292347E+02  0.63291398454E+02  0.00000000000E+00 0. -1.
         -3    1    1    2    0  503 -0.76601945171E+01 -0.23321296272E+02 -0.25222608815E+03  0.25341775980E+03  0.00000000000E+00 0.  1.
<mgrwt>
<rscale>  2 0.24547127E+02</rscale>
<asrwt>0</asrwt>
<pdfrwt beam="1">  1       21 0.47275212E-03 0.24547127E+02</pdfrwt>
<pdfrwt beam="2">  1       21 0.48251736E-01 0.24547127E+02</pdfrwt>
<totfact> 0.37982451E+07</totfact>
</mgrwt>
</event>
<event>
 4    1  0.7165636E+004  0.3975577E+02  0.7546771E-02  0.1510016E+00
         21   -1    0    0  503  502  0.00000000000E+00  0.00000000000E+00  0.31811128912E+02  0.31811128912E+02  0.00000000000E+00 0. -1.
         21   -1    0    0  501  503 -0.00000000000E+00 -0.00000000000E+00 -0.59709981036E+02  0.59709981036E+02  0.00000000000E+00 0. -1.
          2    1    1    2  501    0  0.39387490628E+02 -0.53987441529E+01  0.48013767415E+01  0.40044651016E+02  0.00000000000E+00 0. -1.
         -2    1    1    2    0  502 -0.39387490628E+02  0.53987441529E+01 -0.32700228865E+02  0.51476458933E+02  0.00000000000E+00 0.  1.
<mgrwt>
<rscale>  2 0.39755765E+02</rscale>
<asrwt>0</asrwt>
<pdfrwt beam="1">  1       21 0.48940199E-02 0.39755765E+02</pdfrwt>
<pdfrwt beam="2">  1       21 0.91861509E-02 0.39755765E+02</pdfrwt>
<totfact> 0.22026529E+07</totfact>
</mgrwt>
</event>
<event>
 4    1  0.7165636E+004  0.3570820E+02  0.7546771E-02  0.1542400E+00
         21   -1    0    0  503  502  0.00000000000E+00  0.00000000000E+00  0.85395037511E+02  0.85395037511E+02  0.00000000000E+00 0. -1.
         21   -1    0    0  501  503 -0.00000000000E+00 -0.00000000000E+00 -0.14965601829E+02  0.14965601829E+02  0.00000000000E+00 0. -1.
          4    1    1    2  501    0 -0.92417761279E+01  0.34491523447E+02  0.32819174583E+02  0.48499214797E+02  0.00000000000E+00 0.  1.
         -4    1    1    2    0  502  0.92417761279E+01 -0.34491523447E+02  0.37610261099E+02  0.51861424543E+02  0.00000000000E+00 0. -1.
<mgrwt>
<rscale>  2 0.35708201E+02</rscale>
<asrwt>0</asrwt>
<pdfrwt beam="1">  1       21 0.13137698E-01 0.35708201E+02</pdfrwt>
<pdfrwt beam="2">  1       21 0.23024003E-02 0.35708201E+02</pdfrwt>
<totfact> 0.39149128E+07</totfact>
</mgrwt>
</event>
<event>
 4    1  0.7165636E+004  0.3271671E+02  0.7546771E-02  0.1569865E+00
         21   -1    0    0  503  502  0.00000000000E+00  0.00000000000E+00  0.36396269411E+03  0.36396269411E+03  0.00000000000E+00 0. -1.
         21   -1    0    0  501  503 -0.00000000000E+00 -0.00000000000E+00 -0.37257449011E+01  0.37257449011E+01  0.00000000000E+00 0. -1.
          3    1    1    2  501    0 -0.32175619769E+02  0.59255942734E+01  0.26449688163E+03  0.26651263303E+03  0.00000000000E+00 0. -1.
         -3    1    1    2    0  502  0.32175619769E+02 -0.59255942734E+01  0.95740067584E+02  0.10117580598E+03  0.00000000000E+00 0.  1.
<mgrwt>
<rscale>  2 0.32716711E+02</rscale>
<asrwt>0</asrwt>
<pdfrwt beam="1">  1       21 0.55994233E-01 0.32716711E+02</pdfrwt>
<pdfrwt beam="2">  1       21 0.57319181E-03 0.32716711E+02</pdfrwt>
<totfact> 0.22463863E+07</totfact>
</mgrwt>
</event>
<event>
 4    1  0.7165636E+004  0.2668136E+02  0.7546771E-02  0.1637964E+00
         21   -1    0    0  501  502  0.00000000000E+00  0.00000000000E+00  0.88059165530E+02  0.88059165530E+02  0.00000000000E+00 0. -1.
         21   -1    0    0  502  503 -0.00000000000E+00 -0.00000000000E+00 -0.84954863122E+01  0.84954863122E+01  0.00000000000E+00 0. -1.
          2    1    1    2  501    0  0.24115361529E+02  0.11416850447E+02  0.50403144128E+02  0.57029571923E+02  0.00000000000E+00 0.  1.
         -2    1    1    2    0  503 -0.24115361529E+02 -0.11416850447E+02  0.29160535090E+02  0.39525079919E+02  0.00000000000E+00 0. -1.
<mgrwt>
<rscale>  2 0.26681363E+02</rscale>
<asrwt>0</asrwt>
<pdfrwt beam="1">  1       21 0.13547563E-01 0.26681363E+02</pdfrwt>
<pdfrwt beam="2">  1       21 0.13069980E-02 0.26681363E+02</pdfrwt>
<totfact> 0.83431624E+07</totfact>
</mgrwt>
</event>
<event>
 4    1  0.7165636E+004  0.2016559E+02  0.7546771E-02  0.1742055E+00
         21   -1    0    0  503  502  0.00000000000E+00  0.00000000000E+00  0.14566668128E+03  0.14566668128E+03  0.00000000000E+00 0.  1.
         21   -1    0    0  501  503 -0.00000000000E+00 -0.00000000000E+00 -0.88286736032E+01  0.88286736032E+01  0.00000000000E+00 0.  1.
          5    1    1    2  501    0 -0.11809706253E+02 -0.16345702987E+02  0.13229665598E+03  0.13382472250E+03  0.00000000000E+00 0. -1.
         -5    1    1    2    0  502  0.11809706253E+02  0.16345702987E+02  0.45413516938E+01  0.20670632383E+02  0.00000000000E+00 0.  1.
<mgrwt>
<rscale>  2 0.20165594E+02</rscale>
<asrwt>0</asrwt>
<pdfrwt beam="1">  1       21 0.22410257E-01 0.20165594E+02</pdfrwt>
<pdfrwt beam="2">  1       21 0.13582576E-02 0.20165594E+02</pdfrwt>
<totfact> 0.30808630E+07</totfact>
</mgrwt>
</event>
<event>
 4    1  0.7165636E+004  0.2416353E+02  0.7546771E-02  0.1673315E+00
         21   -1    0    0  501  502  0.00000000000E+00  0.00000000000E+00  0.18433565534E+03  0.18433565534E+03  0.00000000000E+00 0. -1.
         21   -1    0    0  502  503 -0.00000000000E+00 -0.00000000000E+00 -0.33270570707E+01  0.33270570707E+01  0.00000000000E+00 0. -1.
          4    1    1    2  501    0 -0.16142681482E+02  0.17980261379E+02  0.69953476060E+02  0.74009220895E+02  0.00000000000E+00 0. -1.
         -4    1    1    2    0  503  0.16142681482E+02 -0.17980261379E+02  0.11105512221E+03  0.11365349151E+03  0.00000000000E+00 0.  1.
<mgrwt>
<rscale>  2 0.24163526E+02</rscale>
<asrwt>0</asrwt>
<pdfrwt beam="1">  1       21 0.28359324E-01 0.24163526E+02</pdfrwt>
<pdfrwt beam="2">  1       21 0.51185508E-03 0.24163526E+02</pdfrwt>
<totfact> 0.90989252E+07</totfact>
</mgrwt>
</event>
<event>
 4    1  0.7165636E+004  0.2059857E+02  0.7546771E-02  0.1733680E+00
         21   -1    0    0  503  502  0.00000000000E+00  0.00000000000E+00  0.42586439056E+01  0.42586439056E+01  0.00000000000E+00 0.  1.
         21   -1    0    0  501  503 -0.00000000000E+00 -0.00000000000E+00 -0.14036296822E+03  0.14036296822E+03  0.00000000000E+00 0.  1.
          2    1    1    2  501    0  0.22876272087E+00 -0.20597300701E+02 -0.29099746863E+02  0.35652438851E+02  0.00000000000E+00 0. -1.
         -2    1    1    2    0  502 -0.22876272087E+00  0.20597300701E+02 -0.10700457745E+03  0.10896917327E+03  0.00000000000E+00 0.  1.
<mgrwt>
<rscale>  2 0.20598571E+02</rscale>
<asrwt>0</asrwt>
<pdfrwt beam="1">  1       21 0.65517604E-03 0.20598571E+02</pdfrwt>
<pdfrwt beam="2">  1       21 0.21594301E-01 0.20598571E+02</pdfrwt>
<totfact> 0.98195221E+07</totfact>
</mgrwt>
</event>
<event>
 4    1  0.7165636E+004  0.2293048E+02  0.7546771E-02  0.1692640E+00
         21   -1    0    0  503  502  0.00000000000E+00  0.00000000000E+00  0.75209253732E+01  0.75209253732E+01  0.00000000000E+00 0. -1.
         21   -1    0    0  501  503 -0.00000000000E+00 -0.00000000000E+00 -0.71849970650E+02  0.71849970650E+02  0.00000000000E+00 0. -1.
          4    1    1    2  501    0  0.19385604450E+02 -0.12247654130E+02 -0.25647704387E+02  0.34403654340E+02  0.00000000000E+00 0.  1.
         -4    1    1    2    0  502 -0.19385604450E+02  0.12247654130E+02 -0.38681340890E+02  0.44967241684E+02  0.00000000000E+00 0. -1.
<mgrwt>
<rscale>  2 0.22930475E+02</rscale>
<asrwt>0</asrwt>
<pdfrwt beam="1">  1       21 0.11570655E-02 0.22930475E+02</pdfrwt>
<pdfrwt beam="2">  1       21 0.11053841E-01 0.22930475E+02</pdfrwt>
<totfact> 0.13559148E+08</totfact>
</mgrwt>
</event>
<event>
 4    1  0.7165636E+004  0.2076530E+02  0.7546771E-02  0.1730524E+00
         21   -1    0    0  503  502  0.00000000000E+00  0.00000000000E+00  0.36753453620E+02  0.36753453620E+02  0.00000000000E+00 0. -1.
         21   -1    0    0  501  503 -0.00000000000E+00 -0.00000000000E+00 -0.11937146757E+02  0.11937146757E+02  0.00000000000E+00 0. -1.
          4    1    1    2  501    0 -0.85361896507E+01  0.18929639903E+02  0.92179661649E+01  0.22719346400E+02  0.00000000000E+00 0.  1.
         -4    1    1    2    0  502  0.85361896507E+01 -0.18929639903E+02  0.15598340698E+02  0.25971253977E+02  0.00000000000E+00 0. -1.
<mgrwt>
<rscale>  2 0.20765303E+02</rscale>
<asrwt>0</asrwt>
<pdfrwt beam="1">  1       21 0.56543774E-02 0.20765303E+02</pdfrwt>
<pdfrwt beam="2">  1       21 0.18364841E-02 0.20765303E+02</pdfrwt>
<totfact> 0.19444145E+08</totfact>
</mgrwt>
</event>
<event>
 4    1  0.7165636E+004  0.2163220E+02  0.7546771E-02  0.1714692E+00
         21   -1    0    0  503  502  0.00000000000E+00  0.00000000000E+00  0.24732808053E+03  0.24732808053E+03  0.00000000000E+00 0.  1.
         21   -1    0    0  501  503 -0.00000000000E+00 -0.00000000000E+00 -0.19835461229E+01  0.19835461229E+01  0.00000000000E+00 0.  1.
          4    1    1    2  501    0 -0.21068044467E+02  0.49080959131E+01  0.14944807255E+03  0.15100555716E+03  0.00000000000E+00 0.  1.
         -4    1    1    2    0  502  0.21068044467E+02 -0.49080959131E+01  0.95896461853E+02  0.98306069492E+02  0.00000000000E+00 0. -1.
<mgrwt>
<rscale>  2 0.21632196E+02</rscale>
<asrwt>0</asrwt>
<pdfrwt beam="1">  1       21 0.38050449E-01 0.21632196E+02</pdfrwt>
<pdfrwt beam="2">  1       21 0.30516114E-03 0.21632196E+02</pdfrwt>
<totfact> 0.10984635E+08</totfact>
</mgrwt>
</event>
<event>
 4    1  0.7165636E+004  0.2082815E+02  0.7546771E-02  0.1729344E+00
         21   -1    0    0  503  502  0.00000000000E+00  0.00000000000E+00  0.73526592790E+02  0.73526592790E+02  0.00000000000E+00 0.  1.
         21   -1    0    0  501  503 -0.00000000000E+00 -0.00000000000E+00 -0.88912921051E+01  0.88912921051E+01  0.00000000000E+00 0.  1.
          5    1    1    2  501    0  0.18752140278E+02  0.90647213141E+01  0.84156930324E+01  0.22464100844E+02  0.00000000000E+00 0.  1.
         -5    1    1    2    0  502 -0.18752140278E+02 -0.90647213141E+01  0.56219607652E+02  0.59953784051E+02  0.00000000000E+00 0. -1.
<mgrwt>
<rscale>  2 0.20828153E+02</rscale>
<asrwt>0</asrwt>
<pdfrwt beam="1">  1       21 0.11311783E-01 0.20828153E+02</pdfrwt>
<pdfrwt beam="2">  1       21 0.13678911E-02 0.20828153E+02</pdfrwt>
<totfact> 0.98553172E+07</totfact>
</mgrwt>
</event>
<event>
 4    1  0.7165636E+004  0.2366527E+02  0.7546771E-02  0.1680948E+00
         21   -1    0    0  501  502  0.00000000000E+00  0.00000000000E+00  0.86491475974E+02  0.86491475974E+02  0.00000000000E+00 0. -1.
         21   -1    0    0  502  503 -0.00000000000E+00 -0.00000000000E+00 -0.65566022787E+01  0.65566022787E+01  0.00000000000E+00 0. -1.
          5    1    1    2  501    0 -0.97156572070E+01  0.21578952327E+02  0.45152962173E+02  0.50978771773E+02  0.00000000000E+00 0.  1.
         -5    1    1    2    0  503  0.97156572070E+01 -0.21578952327E+02  0.34781911522E+02  0.42069306479E+02  0.00000000000E+00 0. -1.
<mgrwt>
<rscale>  2 0.23665274E+02</rscale>
<asrwt>0</asrwt>
<pdfrwt beam="1">  1       21 0.13306380E-01 0.23665274E+02</pdfrwt>
<pdfrwt beam="2">  1       21 0.10087081E-02 0.23665274E+02</pdfrwt>
<totfact> 0.12328654E+08</totfact>
</mgrwt>
</event>
<event>
 4    1  0.7165636E+004  0.3160151E+02  0.7546771E-02  0.1581032E+00
         21   -1    0    0  501  502  0.00000000000E+00  0.00000000000E+00  0.30517815906E+01  0.30517815906E+01  0.00000000000E+00 0.  1.
         21   -1    0    0  502  503 -0.00000000000E+00 -0.00000000000E+00 -0.34441697778E+03  0.34441697778E+03  0.00000000000E+00 0.  1.
          4    1    1    2  501    0 -0.31030467248E+02 -0.59804205637E+01 -0.20948485296E+03  0.21185504230E+03  0.00000000000E+00 0. -1.
         -4    1    1    2    0  503  0.31030467248E+02  0.59804205637E+01 -0.13188034323E+03  0.13561371707E+03  0.00000000000E+00 0.  1.
<mgrwt>
<rscale>  2 0.31601508E+02</rscale>
<asrwt>0</asrwt>
<pdfrwt beam="1">  1       21 0.46950476E-03 0.31601508E+02</pdfrwt>
<pdfrwt beam="2">  1       21 0.52987238E-01 0.31601508E+02</pdfrwt>
<totfact> 0.33576753E+07</totfact>
</mgrwt>
</event>
<event>
 4    1  0.7165636E+004  0.2148327E+02  0.7546771E-02  0.1717345E+00
         21   -1    0    0  501  502  0.00000000000E+00  0.00000000000E+00  0.29742622192E+01  0.29742622192E+01  0.00000000000E+00 0. -1.
         21   -1    0    0  502  503 -0.00000000000E+00 -0.00000000000E+00 -0.15567104415E+03  0.15567104415E+03  0.00000000000E+00 0. -1.
          3    1    1    2  501    0  0.21417254069E+02 -0.16828934405E+01 -0.80826436006E+02  0.83632790577E+02  0.00000000000E+00 0. -1.
         -3    1    1    2    0  503 -0.21417254069E+02  0.16828934405E+01 -0.71870345922E+02  0.75012515790E+02  0.00000000000E+00 0.  1.
<mgrwt>
<rscale>  2 0.21483270E+02</rscale>
<asrwt>0</asrwt>
<pdfrwt beam="1">  1       21 0.45757882E-03 0.21483270E+02</pdfrwt>
<pdfrwt beam="2">  1       21 0.23949390E-01 0.21483270E+02</pdfrwt>
<totfact> 0.14059435E+08</totfact>
</mgrwt>
</event>
<event>
 4    1  0.7165636E+004  0.2216806E+02  0.7546771E-02  0.1705362E+00
         21   -1    0    0  503  502  0.00000000000E+00  0.00000000000E+00  0.69326139461E+02  0.69326139461E+02  0.00000000000E+00 0. -1.
         21   -1    0    0  501  503 -0.00000000000E+00 -0.00000000000E+00 -0.81363432234E+01  0.81363432234E+01  0.00000000000E+00 0. -1.
          4    1    1    2  501    0 -0.11466592146E+02  0.18972093836E+02  0.16695987243E+02  0.27752100280E+02  0.00000000000E+00 0. -1.
         -4    1    1    2    0  502  0.11466592146E+02 -0.18972093836E+02  0.44493808994E+02  0.49710382404E+02  0.00000000000E+00 0.  1.
<mgrwt>
<rscale>  2 0.22168064E+02</rscale>
<asrwt>0</asrwt>
<pdfrwt beam="1">  1       21 0.10665560E-01 0.22168064E+02</pdfrwt>
<pdfrwt beam="2">  1       21 0.12517452E-02 0.22168064E+02</pdfrwt>
<totfact> 0.12652141E+08</totfact>
</mgrwt>
</event>
<event>
 4    1  0.7165636E+004  0.2204650E+02  0.7546771E-02  0.1707449E+00
         21   -1    0    0  503  502  0.00000000000E+00  0.00000000000E+00  0.64519431268E+02  0.64519431268E+02  0.00000000000E+00 0.  1.
         21   -1    0    0  501  503 -0.00000000000E+00 -0.00000000000E+00 -0.89540753790E+01  0.89540753790E+01  0.00000000000E+00 0.  1.
          4    1    1    2  501    0  0.16137238924E+02 -0.15021244846E+02  0.13149335783E+02  0.25670085865E+02  0.00000000000E+00 0.  1.
         -4    1    1    2    0  502 -0.16137238924E+02  0.15021244846E+02  0.42416020106E+02  0.47803420782E+02  0.00000000000E+00 0. -1.
<mgrwt>
<rscale>  2 0.22046503E+02</rscale>
<asrwt>0</asrwt>
<pdfrwt beam="1">  1       21 0.99260661E-02 0.22046503E+02</pdfrwt>
<pdfrwt beam="2">  1       21 0.13775501E-02 0.22046503E+02</pdfrwt>
<totfact> 0.12308888E+08</totfact>
</mgrwt>
</event>
<event>
 4    1  0.7165636E+004  0.3944377E+02  0.7546771E-02  0.1512345E+00
         21   -1    0    0  501  502  0.00000000000E+00  0.00000000000E+00  0.84142444045E+03  0.84142444045E+03  0.00000000000E+00 0.  1.
         21   -1    0    0  502  503 -0.00000000000E+00 -0.00000000000E+00 -0.27503926148E+01  0.27503926148E+01  0.00000000000E+00 0.  1.
          2    1    1    2  501    0 -0.23757837585E+02  0.31486125799E+02  0.17770352700E+03  0.18202844413E+03  0.00000000000E+00 0.  1.
         -2    1    1    2    0  503  0.23757837585E+02 -0.31486125799E+02  0.66097052084E+03  0.66214638893E+03  0.00000000000E+00 0. -1.
<mgrwt>
<rscale>  2 0.39443770E+02</rscale>
<asrwt>0</asrwt>
<pdfrwt beam="1">  1       21 0.12944971E+00 0.39443770E+02</pdfrwt>
<pdfrwt beam="2">  1       21 0.42313800E-03 0.39443770E+02</pdfrwt>
<totfact> 0.58784717E+06</totfact>
</mgrwt>
</event>
<event>
 4    1  0.7165636E+004  0.2186763E+02  0.7546771E-02  0.1710551E+00
         21   -1    0    0  501  502  0.00000000000E+00  0.00000000000E+00  0.46081309510E+02  0.46081309510E+02  0.00000000000E+00 0. -1.
         21   -1    0    0  502  503 -0.00000000000E+00 -0.00000000000E+00 -0.11297913826E+02  0.11297913826E+02  0.00000000000E+00 0. -1.
          1    1    1    2  501    0 -0.95713750788E+01  0.19661689371E+02  0.92014573993E+01  0.23724672139E+02  0.00000000000E+00 0.  1.
         -1    1    1    2    0  503  0.95713750788E+01 -0.19661689371E+02  0.25581938285E+02  0.33654551197E+02  0.00000000000E+00 0. -1.
<mgrwt>
<rscale>  2 0.21867630E+02</rscale>
<asrwt>0</asrwt>
<pdfrwt beam="1">  1       21 0.70894321E-02 0.21867630E+02</pdfrwt>
<pdfrwt beam="2">  1       21 0.17381406E-02 0.21867630E+02</pdfrwt>
<totfact> 0.14945375E+08</totfact>
</mgrwt>
</event>
<event>
 4    1  0.7165636E+004  0.3400994E+02  0.7546771E-02  0.1557572E+00
         21   -1    0    0  503  502  0.00000000000E+00  0.00000000000E+00  0.13484941012E+03  0.13484941012E+03  0.00000000000E+00 0. -1.
         21   -1    0    0  501  503 -0.00000000000E+00 -0.00000000000E+00 -0.87977279940E+01  0.87977279940E+01  0.00000000000E+00 0. -1.
          3    1    1    2  501    0 -0.20859693744E+02  0.26861669855E+02  0.74388477488E+02  0.81794386809E+02  0.00000000000E+00 0.  1.
         -3    1    1    2    0  502  0.20859693744E+02 -0.26861669855E+02  0.51663204638E+02  0.61852751305E+02  0.00000000000E+00 0. -1.
<mgrwt>
<rscale>  2 0.34009942E+02</rscale>
<asrwt>0</asrwt>
<pdfrwt beam="1">  1       21 0.20746062E-01 0.34009942E+02</pdfrwt>
<pdfrwt beam="2">  1       21 0.13534967E-02 0.34009942E+02</pdfrwt>
<totfact> 0.39805522E+07</totfact>
</mgrwt>
</event>
<event>
 4    1  0.7165636E+004  0.2851778E+02  0.7546771E-02  0.1615075E+00
         21   -1    0    0  503  502  0.00000000000E+00  0.00000000000E+00  0.77181021837E+01  0.77181021837E+01  0.00000000000E+00 0. -1.
         21   -1    0    0  501  503 -0.00000000000E+00 -0.00000000000E+00 -0.12698897486E+03  0.12698897486E+03  0.00000000000E+00 0. -1.
          2    1    1    2  501    0 -0.24653025509E+02  0.14334994030E+02 -0.31845633558E+02  0.42748194082E+02  0.00000000000E+00 0. -1.
         -2    1    1    2    0  502  0.24653025509E+02 -0.14334994030E+02 -0.87425239116E+02  0.91958882959E+02  0.00000000000E+00 0.  1.
<mgrwt>
<rscale>  2 0.28517779E+02</rscale>
<asrwt>0</asrwt>
<pdfrwt beam="1">  1       21 0.11874004E-02 0.28517779E+02</pdfrwt>
<pdfrwt beam="2">  1       21 0.19536764E-01 0.28517779E+02</pdfrwt>
<totfact> 0.52124362E+07</totfact>
</mgrwt>
</event>
<event>
 4    1  0.7165636E+004  0.2168735E+02  0.7546771E-02  0.1713716E+00
         21   -1    0    0  503  502  0.00000000000E+00  0.00000000000E+00  0.42814468643E+01  0.42814468643E+01  0.00000000000E+00 0. -1.
         21   -1    0    0  501  503 -0.00000000000E+00 -0.00000000000E+00 -0.10986299946E+03  0.10986299946E+03  0.00000000000E+00 0. -1.
          1    1    1    2  501    0 -0.17482392405E+02  0.12833822071E+02 -0.52323276361E+02  0.56639794158E+02  0.00000000000E+00 0.  1.
         -1    1    1    2    0  502  0.17482392405E+02 -0.12833822071E+02 -0.53258276231E+02  0.57504652162E+02  0.00000000000E+00 0. -1.
<mgrwt>
<rscale>  2 0.21687347E+02</rscale>
<asrwt>0</asrwt>
<pdfrwt beam="1">  1       21 0.65868412E-03 0.21687347E+02</pdfrwt>
<pdfrwt beam="2">  1       21 0.16902000E-01 0.21687347E+02</pdfrwt>
<totfact> 0.15113500E+08</totfact>
</mgrwt>
</event>
<event>
 4    1  0.7165636E+004  0.3865886E+02  0.7546771E-02  0.1518319E+00
         21   -1    0    0  503  502  0.00000000000E+00  0.00000000000E+00  0.62216025815E+02  0.62216025815E+02  0.00000000000E+00 0.  1.
         21   -1    0    0  501  503 -0.00000000000E+00 -0.00000000000E+00 -0.25253031487E+02  0.25253031487E+02  0.00000000000E+00 0.  1.
          3    1    1    2  501    0  0.38645546811E+02  0.10144709021E+01  0.88224906365E+01  0.39652790325E+02  0.00000000000E+00 0.  1.
         -3    1    1    2    0  502 -0.38645546811E+02 -0.10144709021E+01  0.28140503692E+02  0.47816266976E+02  0.00000000000E+00 0. -1.
<mgrwt>
<rscale>  2 0.38658860E+02</rscale>
<asrwt>0</asrwt>
<pdfrwt beam="1">  1       21 0.95716963E-02 0.38658860E+02</pdfrwt>
<pdfrwt beam="2">  1       21 0.38850818E-02 0.38658860E+02</pdfrwt>
<totfact> 0.29686740E+07</totfact>
</mgrwt>
</event>
<event>
 4    1  0.7165636E+004  0.2457569E+02  0.7546771E-02  0.1667172E+00
         21   -1    0    0  501  502  0.00000000000E+00  0.00000000000E+00  0.18015907198E+03  0.18015907198E+03  0.00000000000E+00 0.  1.
         21   -1    0    0  502  503 -0.00000000000E+00 -0.00000000000E+00 -0.81658604117E+01  0.81658604117E+01  0.00000000000E+00 0.  1.
          1    1    1    2  501    0  0.15613609967E+02 -0.18978407442E+02  0.15829117561E+03  0.16018758080E+03  0.00000000000E+00 0. -1.
         -1    1    1    2    0  503 -0.15613609967E+02  0.18978407442E+02  0.13702035953E+02  0.28137351590E+02  0.00000000000E+00 0.  1.
<mgrwt>
<rscale>  2 0.24575695E+02</rscale>
<asrwt>0</asrwt>
<pdfrwt beam="1">  1       21 0.27716777E-01 0.24575695E+02</pdfrwt>
<pdfrwt beam="2">  1       21 0.12562864E-02 0.24575695E+02</pdfrwt>
<totfact> 0.24850463E+07</totfact>
</mgrwt>
</event>
<event>
 4    1  0.7165636E+004  0.2152921E+02  0.7546771E-02  0.1716524E+00
         21   -1    0    0  503  502  0.00000000000E+00  0.00000000000E+00  0.15289497728E+04  0.15289497728E+04  0.00000000000E+00 0. -1.
         21   -1    0    0  501  503 -0.00000000000E+00 -0.00000000000E+00 -0.22468340343E+01  0.22468340343E+01  0.00000000000E+00 0. -1.
          1    1    1    2  501    0 -0.11341730621E+02  0.18299503769E+02  0.14754300007E+04  0.14755870675E+04  0.00000000000E+00 0. -1.
         -1    1    1    2    0  502  0.11341730621E+02 -0.18299503769E+02  0.51272938094E+02  0.55609539402E+02  0.00000000000E+00 0.  1.
<mgrwt>
<rscale>  2 0.21529206E+02</rscale>
<asrwt>0</asrwt>
<pdfrwt beam="1">  1       21 0.23522221E+00 0.21529206E+02</pdfrwt>
<pdfrwt beam="2">  1       21 0.34566800E-03 0.21529206E+02</pdfrwt>
<totfact> 0.16847141E+06</totfact>
</mgrwt>
</event>
<event>
 4    1  0.7165636E+004  0.2871068E+02  0.7546771E-02  0.1612794E+00
         21   -1    0    0  503  502  0.00000000000E+00  0.00000000000E+00  0.20652510249E+02  0.20652510249E+02  0.00000000000E+00 0. -1.
         21   -1    0    0  501  503 -0.00000000000E+00 -0.00000000000E+00 -0.42719708993E+02  0.42719708993E+02  0.00000000000E+00 0. -1.
          1    1    1    2  501    0 -0.15700708732E+02  0.24037276412E+02 -0.19155472549E+02  0.34514272997E+02  0.00000000000E+00 0.  1.
         -1    1    1    2    0  502  0.15700708732E+02 -0.24037276412E+02 -0.29117261957E+01  0.28857946244E+02  0.00000000000E+00 0. -1.
<mgrwt>
<rscale>  2 0.28710676E+02</rscale>
<asrwt>0</asrwt>
<pdfrwt beam="1">  1       21 0.31773093E-02 0.28710676E+02</pdfrwt>
<pdfrwt beam="2">  1       21 0.65722628E-02 0.28710676E+02</pdfrwt>
<totfact> 0.71562358E+07</totfact>
</mgrwt>
</event>
<event>
 4    1  0.7165636E+004  0.4754685E+02  0.7546771E-02  0.1459041E+00
         21   -1    0    0  501  502  0.00000000000E+00  0.00000000000E+00  0.94024193019E+02  0.94024193019E+02  0.00000000000E+00 0.  1.
         21   -1    0    0  502  503 -0.00000000000E+00 -0.00000000000E+00 -0.25865899317E+02  0.25865899317E+02  0.00000000000E+00 0.  1.
          4    1    1    2  501    0 -0.10703174027E+02 -0.46326502911E+02  0.18169132578E+02  0.50900100048E+02  0.00000000000E+00 0.  1.
         -4    1    1    2    0  503  0.10703174027E+02  0.46326502911E+02  0.49989161124E+02  0.68989992289E+02  0.00000000000E+00 0. -1.
<mgrwt>
<rscale>  2 0.47546849E+02</rscale>
<asrwt>0</asrwt>
<pdfrwt beam="1">  1       21 0.14465260E-01 0.47546849E+02</pdfrwt>
<pdfrwt beam="2">  1       21 0.39793692E-02 0.47546849E+02</pdfrwt>
<totfact> 0.14540377E+07</totfact>
</mgrwt>
</event>
<event>
 4    1  0.7165636E+004  0.2090558E+02  0.7546771E-02  0.1727897E+00
         21   -1    0    0  501  502  0.00000000000E+00  0.00000000000E+00  0.13527474565E+02  0.13527474565E+02  0.00000000000E+00 0. -1.
         21   -1    0    0  502  503 -0.00000000000E+00 -0.00000000000E+00 -0.32708624841E+02  0.32708624841E+02  0.00000000000E+00 0. -1.
          5    1    1    2  501    0 -0.63097779785E+01 -0.19930627364E+02 -0.12149672747E+02  0.24179697126E+02  0.00000000000E+00 0. -1.
         -5    1    1    2    0  503  0.63097779785E+01  0.19930627364E+02 -0.70314775290E+01  0.22056402279E+02  0.00000000000E+00 0.  1.
<mgrwt>
<rscale>  2 0.20905578E+02</rscale>
<asrwt>0</asrwt>
<pdfrwt beam="1">  1       21 0.20811499E-02 0.20905578E+02</pdfrwt>
<pdfrwt beam="2">  1       21 0.50320961E-02 0.20905578E+02</pdfrwt>
<totfact> 0.19377373E+08</totfact>
</mgrwt>
</event>
<event>
 4    1  0.7165636E+004  0.2254666E+02  0.7546771E-02  0.1698966E+00
         21   -1    0    0  503  502  0.00000000000E+00  0.00000000000E+00  0.72033135872E+02  0.72033135872E+02  0.00000000000E+00 0. -1.
         21   -1    0    0  501  503 -0.00000000000E+00 -0.00000000000E+00 -0.93806857238E+01  0.93806857238E+01  0.00000000000E+00 0. -1.
          1    1    1    2  501    0  0.22429895082E+02  0.22916994852E+01  0.51585368200E+02  0.56297444811E+02  0.00000000000E+00 0.  1.
         -1    1    1    2    0  502 -0.22429895082E+02 -0.22916994852E+01  0.11067081948E+02  0.25116376785E+02  0.00000000000E+00 0. -1.
<mgrwt>
<rscale>  2 0.22546664E+02</rscale>
<asrwt>0</asrwt>
<pdfrwt beam="1">  1       21 0.11082021E-01 0.22546664E+02</pdfrwt>
<pdfrwt beam="2">  1       21 0.14431825E-02 0.22546664E+02</pdfrwt>
<totfact> 0.96188860E+07</totfact>
</mgrwt>
</event>
<event>
 4    1  0.7165636E+004  0.2215953E+02  0.7546771E-02  0.1705508E+00
         21   -1    0    0  503  502  0.00000000000E+00  0.00000000000E+00  0.31542610830E+03  0.31542610830E+03  0.00000000000E+00 0. -1.
         21   -1    0    0  501  503 -0.00000000000E+00 -0.00000000000E+00 -0.20965951295E+01  0.20965951295E+01  0.00000000000E+00 0. -1.
          5    1    1    2  501    0 -0.85587685792E+01  0.20439967630E+02  0.23722401529E+03  0.23825674854E+03  0.00000000000E+00 0. -1.
         -5    1    1    2    0  502  0.85587685792E+01 -0.20439967630E+02  0.76105497883E+02  0.79265954888E+02  0.00000000000E+00 0.  1.
<mgrwt>
<rscale>  2 0.22159531E+02</rscale>
<asrwt>0</asrwt>
<pdfrwt beam="1">  1       21 0.48527056E-01 0.22159531E+02</pdfrwt>
<pdfrwt beam="2">  1       21 0.32255335E-03 0.22159531E+02</pdfrwt>
<totfact> 0.64254184E+07</totfact>
</mgrwt>
</event>
<event>
 4    1  0.7165636E+004  0.4738493E+02  0.7546771E-02  0.1459979E+00
         21   -1    0    0  503  502  0.00000000000E+00  0.00000000000E+00  0.20113010412E+02  0.20113010412E+02  0.00000000000E+00 0. -1.
         21   -1    0    0  501  503 -0.00000000000E+00 -0.00000000000E+00 -0.11291268601E+03  0.11291268601E+03  0.00000000000E+00 0. -1.
          4    1    1    2  501    0 -0.23390978423E+02 -0.41209150378E+02 -0.53472953422E+02  0.71447104169E+02  0.00000000000E+00 0. -1.
         -4    1    1    2    0  502  0.23390978423E+02  0.41209150378E+02 -0.39326722171E+02  0.61578592247E+02  0.00000000000E+00 0.  1.
<mgrwt>
<rscale>  2 0.47384934E+02</rscale>
<asrwt>0</asrwt>
<pdfrwt beam="1">  1       21 0.30943092E-02 0.47384934E+02</pdfrwt>
<pdfrwt beam="2">  1       21 0.17371183E-01 0.47384934E+02</pdfrwt>
<totfact> 0.15782864E+07</totfact>
</mgrwt>
</event>
<event>
 4    1  0.7165636E+004  0.2462645E+02  0.7546771E-02  0.1666426E+00
         21   -1    0    0  501  502  0.00000000000E+00  0.00000000000E+00  0.36307733795E+01  0.36307733795E+01  0.00000000000E+00 0.  1.
         21   -1    0    0  502  503 -0.00000000000E+00 -0.00000000000E+00 -0.19193902841E+03  0.19193902841E+03  0.00000000000E+00 0.  1.
          2    1    1    2  501    0  0.18877553071E+02 -0.15814553179E+02 -0.58930435786E+02  0.63869072047E+02  0.00000000000E+00 0.  1.
         -2    1    1    2    0  503 -0.18877553071E+02  0.15814553179E+02 -0.12937781924E+03  0.13170072974E+03  0.00000000000E+00 0. -1.
<mgrwt>
<rscale>  2 0.24626451E+02</rscale>
<asrwt>0</asrwt>
<pdfrwt beam="1">  1       21 0.55858048E-03 0.24626451E+02</pdfrwt>
<pdfrwt beam="2">  1       21 0.29529083E-01 0.24626451E+02</pdfrwt>
<totfact> 0.74651226E+07</totfact>
</mgrwt>
</event>
<event>
 4    1  0.7165636E+004  0.2457312E+02  0.7546771E-02  0.1667210E+00
         21   -1    0    0  501  502  0.00000000000E+00  0.00000000000E+00  0.17535988668E+03  0.17535988668E+03  0.00000000000E+00 0. -1.
         21   -1    0    0  502  503 -0.00000000000E+00 -0.00000000000E+00 -0.38938513857E+01  0.38938513857E+01  0.00000000000E+00 0. -1.
          4    1    1    2  501    0 -0.24272468633E+02  0.38321817506E+01  0.11621626188E+03  0.11878576462E+03  0.00000000000E+00 0.  1.
         -4    1    1    2    0  503  0.24272468633E+02 -0.38321817506E+01  0.55249773411E+02  0.60467973444E+02  0.00000000000E+00 0. -1.
<mgrwt>
<rscale>  2 0.24573123E+02</rscale>
<asrwt>0</asrwt>
<pdfrwt beam="1">  1       21 0.26978438E-01 0.24573123E+02</pdfrwt>
<pdfrwt beam="2">  1       21 0.59905420E-03 0.24573123E+02</pdfrwt>
<totfact> 0.79218186E+07</totfact>
</mgrwt>
</event>
<event>
 4    1  0.7165636E+004  0.2072919E+02  0.7546771E-02  0.1731204E+00
         21   -1    0    0  503  502  0.00000000000E+00  0.00000000000E+00  0.53714925100E+01  0.53714925100E+01  0.00000000000E+00 0.  1.
         21   -1    0    0  501  503 -0.00000000000E+00 -0.00000000000E+00 -0.10808216299E+03  0.10808216299E+03  0.00000000000E+00 0.  1.
          1    1    1    2  501    0  0.19959027309E+02  0.55978889139E+01 -0.80272515278E+02  0.82905825130E+02  0.00000000000E+00 0.  1.
         -1    1    1    2    0  502 -0.19959027309E+02 -0.55978889139E+01 -0.22438155200E+02  0.30547830368E+02  0.00000000000E+00 0. -1.
<mgrwt>
<rscale>  2 0.20729185E+02</rscale>
<asrwt>0</asrwt>
<pdfrwt beam="1">  1       21 0.82638341E-03 0.20729185E+02</pdfrwt>
<pdfrwt beam="2">  1       21 0.16628026E-01 0.20729185E+02</pdfrwt>
<totfact> 0.10950705E+08</totfact>
</mgrwt>
</event>
<event>
 4    1  0.7165636E+004  0.5310368E+02  0.7546771E-02  0.1429286E+00
         21   -1    0    0  501  502  0.00000000000E+00  0.00000000000E+00  0.28764388844E+02  0.28764388844E+02  0.00000000000E+00 0.  1.
         21   -1    0    0  502  503 -0.00000000000E+00 -0.00000000000E+00 -0.10667013445E+03  0.10667013445E+03  0.00000000000E+00 0.  1.
          2    1    1    2  501    0 -0.11915058348E+01  0.53090307529E+02 -0.58216560905E+02  0.78798276651E+02  0.00000000000E+00 0.  1.
         -2    1    1    2    0  503  0.11915058348E+01 -0.53090307529E+02 -0.19689184704E+02  0.56636246645E+02  0.00000000000E+00 0. -1.
<mgrwt>
<rscale>  2 0.53103676E+02</rscale>
<asrwt>0</asrwt>
<pdfrwt beam="1">  1       21 0.44252905E-02 0.53103676E+02</pdfrwt>
<pdfrwt beam="2">  1       21 0.16410790E-01 0.53103676E+02</pdfrwt>
<totfact> 0.99412032E+06</totfact>
</mgrwt>
</event>
<event>
 4    1  0.7165636E+004  0.2704100E+02  0.7546771E-02  0.1633306E+00
         21   -1    0    0  503  502  0.00000000000E+00  0.00000000000E+00  0.28156005670E+02  0.28156005670E+02  0.00000000000E+00 0. -1.
         21   -1    0    0  501  503 -0.00000000000E+00 -0.00000000000E+00 -0.29522110783E+02  0.29522110783E+02  0.00000000000E+00 0. -1.
          3    1    1    2  501    0  0.25136701269E+02 -0.99680339588E+01 -0.10686322094E+02  0.29075985479E+02  0.00000000000E+00 0.  1.
         -3    1    1    2    0  502 -0.25136701269E+02  0.99680339588E+01  0.93202169819E+01  0.28602130974E+02  0.00000000000E+00 0. -1.
<mgrwt>
<rscale>  2 0.27040996E+02</rscale>
<asrwt>0</asrwt>
<pdfrwt beam="1">  1       21 0.43316932E-02 0.27040996E+02</pdfrwt>
<pdfrwt beam="2">  1       21 0.45418632E-02 0.27040996E+02</pdfrwt>
<totfact> 0.78293372E+07</totfact>
</mgrwt>
</event>
<event>
 4    1  0.7165636E+004  0.2267982E+02  0.7546771E-02  0.1696753E+00
         21   -1    0    0  503  502  0.00000000000E+00  0.00000000000E+00  0.83646610918E+02  0.83646610918E+02  0.00000000000E+00 0.  1.
         21   -1    0    0  501  503 -0.00000000000E+00 -0.00000000000E+00 -0.66741963267E+01  0.66741963267E+01  0.00000000000E+00 0.  1.
          4    1    1    2  501    0  0.20402552913E+02 -0.99050565060E+01  0.25822396858E+02  0.34368160982E+02  0.00000000000E+00 0. -1.
         -4    1    1    2    0  502 -0.20402552913E+02  0.99050565060E+01  0.51150017733E+02  0.55952646263E+02  0.00000000000E+00 0.  1.
<mgrwt>
<rscale>  2 0.22679822E+02</rscale>
<asrwt>0</asrwt>
<pdfrwt beam="1">  1       21 0.12868709E-01 0.22679822E+02</pdfrwt>
<pdfrwt beam="2">  1       21 0.10267995E-02 0.22679822E+02</pdfrwt>
<totfact> 0.12544359E+08</totfact>
</mgrwt>
</event>
<event>
 4    1  0.7165636E+004  0.2835548E+02  0.7546771E-02  0.1617012E+00
         21   -1    0    0  503  502  0.00000000000E+00  0.00000000000E+00  0.67257032327E+02  0.67257032327E+02  0.00000000000E+00 0.  1.
         21   -1    0    0  501  503 -0.00000000000E+00 -0.00000000000E+00 -0.13343322229E+02  0.13343322229E+02  0.00000000000E+00 0.  1.
          2    1    1    2  501    0 -0.10321565253E+02 -0.26410198174E+02  0.39957867692E+02  0.48996576078E+02  0.00000000000E+00 0. -1.
         -2    1    1    2    0  502  0.10321565253E+02  0.26410198174E+02  0.13955842406E+02  0.31603778478E+02  0.00000000000E+00 0.  1.
<mgrwt>
<rscale>  2 0.28355481E+02</rscale>
<asrwt>0</asrwt>
<pdfrwt beam="1">  1       21 0.10347236E-01 0.28355481E+02</pdfrwt>
<pdfrwt beam="2">  1       21 0.20528188E-02 0.28355481E+02</pdfrwt>
<totfact> 0.66724767E+07</totfact>
</mgrwt>
</event>
<event>
 4    1  0.7165636E+004  0.2032056E+02  0.7546771E-02  0.1739027E+00
         21   -1    0    0  503  502  0.00000000000E+00  0.00000000000E+00  0.13293840439E+01  0.13293840439E+01  0.00000000000E+00 0.  1.
         21   -1    0    0  501  503 -0.00000000000E+00 -0.00000000000E+00 -0.33240341823E+03  0.33240341823E+03  0.00000000000E+00 0.  1.
          1    1    1    2  501    0 -0.18206614608E+02 -0.90246479780E+01 -0.12281413510E+03  0.12448388196E+03  0.00000000000E+00 0.  1.
         -1    1    1    2    0  502  0.18206614608E+02  0.90246479780E+01 -0.20825989909E+03  0.20924892032E+03  0.00000000000E+00 0. -1.
<mgrwt>
<rscale>  2 0.20320558E+02</rscale>
<asrwt>0</asrwt>
<pdfrwt beam="1">  1       21 0.20452063E-03 0.20320558E+02</pdfrwt>
<pdfrwt beam="2">  1       21 0.51138985E-01 0.20320558E+02</pdfrwt>
<totfact> 0.10977665E+08</totfact>
</mgrwt>
</event>
<event>
 4    1  0.7165636E+004  0.3385108E+02  0.7546771E-02  0.1559047E+00
         21   -1    0    0  501  502  0.00000000000E+00  0.00000000000E+00  0.93240044215E+02  0.93240044215E+02  0.00000000000E+00 0.  1.
         21   -1    0    0  502  503 -0.00000000000E+00 -0.00000000000E+00 -0.16143882111E+02  0.16143882111E+02  0.00000000000E+00 0.  1.
          4    1    1    2  501    0 -0.20955747956E+02 -0.26584808048E+02  0.11825174447E+02  0.35857079385E+02  0.00000000000E+00 0.  1.
         -4    1    1    2    0  503  0.20955747956E+02  0.26584808048E+02  0.65270987657E+02  0.73526846941E+02  0.00000000000E+00 0. -1.
<mgrwt>
<rscale>  2 0.33851077E+02</rscale>
<asrwt>0</asrwt>
<pdfrwt beam="1">  1       21 0.14344622E-01 0.33851077E+02</pdfrwt>
<pdfrwt beam="2">  1       21 0.24836742E-02 0.33851077E+02</pdfrwt>
<totfact> 0.29582416E+07</totfact>
</mgrwt>
</event>
<event>
 4    1  0.7165636E+004  0.2230668E+02  0.7546771E-02  0.1703002E+00
         21   -1    0    0  503  502  0.00000000000E+00  0.00000000000E+00  0.58103301855E+00  0.58103301855E+00  0.00000000000E+00 0. -1.
         21   -1    0    0  501  503 -0.00000000000E+00 -0.00000000000E+00 -0.91893556781E+03  0.91893556781E+03  0.00000000000E+00 0. -1.
          3    1    1    2  501    0  0.21514081795E+02 -0.58933896532E+01 -0.33922626045E+03  0.33995888507E+03  0.00000000000E+00 0.  1.
         -3    1    1    2    0  502 -0.21514081795E+02  0.58933896532E+01 -0.57912827434E+03  0.57955771576E+03  0.00000000000E+00 0. -1.
<mgrwt>
<rscale>  2 0.22306675E+02</rscale>
<asrwt>0</asrwt>
<pdfrwt beam="1">  1       21 0.89389465E-04 0.22306675E+02</pdfrwt>
<pdfrwt beam="2">  1       21 0.14137507E+00 0.22306675E+02</pdfrwt>
<totfact> 0.42344352E+07</totfact>
</mgrwt>
</event>
<event>
 4    1  0.7165636E+004  0.2137128E+02  0.7546771E-02  0.1719358E+00
         21   -1    0    0  501  502  0.00000000000E+00  0.00000000000E+00  0.20485829904E+03  0.20485829904E+03  0.00000000000E+00 0.  1.
         21   -1    0    0  502  503 -0.00000000000E+00 -0.00000000000E+00 -0.22873713981E+01  0.22873713981E+01  0.00000000000E+00 0.  1.
          2    1    1    2  501    0 -0.17020411322E+02  0.12924287583E+02  0.11775983694E+03  0.11968337732E+03  0.00000000000E+00 0.  1.
         -2    1    1    2    0  503  0.17020411322E+02 -0.12924287583E+02  0.84811090708E+02  0.87462293122E+02  0.00000000000E+00 0. -1.
<mgrwt>
<rscale>  2 0.21371280E+02</rscale>
<asrwt>0</asrwt>
<pdfrwt beam="1">  1       21 0.31516647E-01 0.21371280E+02</pdfrwt>
<pdfrwt beam="2">  1       21 0.35190345E-03 0.21371280E+02</pdfrwt>
<totfact> 0.12591364E+08</totfact>
</mgrwt>
</event>
<event>
 4    1  0.7165636E+004  0.2209959E+02  0.7546771E-02  0.1706535E+00
         21   -1    0    0  501  502  0.00000000000E+00  0.00000000000E+00  0.73803877042E+02  0.73803877042E+02  0.00000000000E+00 0. -1.
         21   -1    0    0  502  503 -0.00000000000E+00 -0.00000000000E+00 -0.72836936353E+01  0.72836936353E+01  0.00000000000E+00 0. -1.
          5    1    1    2  501    0  0.21457917872E+02 -0.52867319858E+01  0.20997776779E+02  0.30484396076E+02  0.00000000000E+00 0.  1.
         -5    1    1    2    0  503 -0.21457917872E+02  0.52867319858E+01  0.45522406628E+02  0.50603174601E+02  0.00000000000E+00 0. -1.
<mgrwt>
<rscale>  2 0.22099588E+02</rscale>
<asrwt>0</asrwt>
<pdfrwt beam="1">  1       21 0.11354442E-01 0.22099588E+02</pdfrwt>
<pdfrwt beam="2">  1       21 0.11205683E-02 0.22099588E+02</pdfrwt>
<totfact> 0.13460255E+08</totfact>
</mgrwt>
</event>
<event>
 4    1  0.7165636E+004  0.2573586E+02  0.7546771E-02  0.1650652E+00
         21   -1    0    0  503  502  0.00000000000E+00  0.00000000000E+00  0.18429665489E+03  0.18429665489E+03  0.00000000000E+00 0. -1.
         21   -1    0    0  501  503 -0.00000000000E+00 -0.00000000000E+00 -0.64147953653E+01  0.64147953653E+01  0.00000000000E+00 0. -1.
          2    1    1    2  501    0  0.25505062881E+02 -0.34388973508E+01  0.15217524595E+03  0.15433612580E+03  0.00000000000E+00 0.  1.
         -2    1    1    2    0  502 -0.25505062881E+02  0.34388973508E+01  0.25706613570E+02  0.36375324449E+02  0.00000000000E+00 0. -1.
<mgrwt>
<rscale>  2 0.25735855E+02</rscale>
<asrwt>0</asrwt>
<pdfrwt beam="1">  1       21 0.28353328E-01 0.25735855E+02</pdfrwt>
<pdfrwt beam="2">  1       21 0.98689173E-03 0.25735855E+02</pdfrwt>
<totfact> 0.34679620E+07</totfact>
</mgrwt>
</event>
<event>
 4    1  0.7165636E+004  0.2645104E+02  0.7546771E-02  0.1640994E+00
         21   -1    0    0  501  502  0.00000000000E+00  0.00000000000E+00  0.12884824819E+02  0.12884824819E+02  0.00000000000E+00 0. -1.
         21   -1    0    0  502  503 -0.00000000000E+00 -0.00000000000E+00 -0.54320471188E+02  0.54320471188E+02  0.00000000000E+00 0. -1.
          3    1    1    2  501    0 -0.25256176698E+02 -0.78602119074E+01 -0.21355888430E+02  0.33996049230E+02  0.00000000000E+00 0. -1.
         -3    1    1    2    0  503  0.25256176698E+02  0.78602119074E+01 -0.20079757940E+02  0.33209246777E+02  0.00000000000E+00 0.  1.
<mgrwt>
<rscale>  2 0.26451038E+02</rscale>
<asrwt>0</asrwt>
<pdfrwt beam="1">  1       21 0.19822807E-02 0.26451038E+02</pdfrwt>
<pdfrwt beam="2">  1       21 0.83569956E-02 0.26451038E+02</pdfrwt>
<totfact> 0.98624445E+07</totfact>
</mgrwt>
</event>
<event>
 4    1  0.7165636E+004  0.4813780E+02  0.7546771E-02  0.1455653E+00
         21   -1    0    0  501  502  0.00000000000E+00  0.00000000000E+00  0.51775991214E+02  0.51775991214E+02  0.00000000000E+00 0.  1.
         21   -1    0    0  502  503 -0.00000000000E+00 -0.00000000000E+00 -0.85756666074E+02  0.85756666074E+02  0.00000000000E+00 0.  1.
          1    1    1    2  501    0 -0.44268625557E+02 -0.18908636078E+02 -0.64539326938E+02  0.80514423854E+02  0.00000000000E+00 0.  1.
         -1    1    1    2    0  503  0.44268625557E+02  0.18908636078E+02  0.30558652078E+02  0.57018233433E+02  0.00000000000E+00 0. -1.
<mgrwt>
<rscale>  2 0.48137799E+02</rscale>
<asrwt>0</asrwt>
<pdfrwt beam="1">  1       21 0.79655371E-02 0.48137799E+02</pdfrwt>
<pdfrwt beam="2">  1       21 0.13193333E-01 0.48137799E+02</pdfrwt>
<totfact> 0.54590238E+06</totfact>
</mgrwt>
</event>
<event>
 4    1  0.7165636E+004  0.2900314E+02  0.7546771E-02  0.1609376E+00
         21   -1    0    0  503  502  0.00000000000E+00  0.00000000000E+00  0.17472993860E+04  0.17472993860E+04  0.00000000000E+00 0.  1.
         21   -1    0    0  501  503 -0.00000000000E+00 -0.00000000000E+00 -0.49091645063E+00  0.49091645063E+00  0.00000000000E+00 0.  1.
          4    1    1    2  501    0  0.20298669079E+02  0.20715845659E+02  0.99495866033E+03  0.99538129277E+03  0.00000000000E+00 0. -1.
         -4    1    1    2    0  502 -0.20298669079E+02 -0.20715845659E+02  0.75184980925E+03  0.75240900971E+03  0.00000000000E+00 0.  1.
<mgrwt>
<rscale>  2 0.29003142E+02</rscale>
<asrwt>0</asrwt>
<pdfrwt beam="1">  1       21 0.26881031E+00 0.29003142E+02</pdfrwt>
<pdfrwt beam="2">  1       21 0.75527007E-04 0.29003142E+02</pdfrwt>
<totfact> 0.10370338E+07</totfact>
</mgrwt>
</event>
<event>
 4    1  0.7165636E+004  0.2467039E+02  0.7546771E-02  0.1665782E+00
         21   -1    0    0  501  502  0.00000000000E+00  0.00000000000E+00  0.39081843267E+03  0.39081843267E+03  0.00000000000E+00 0.  1.
         21   -1    0    0  502  503 -0.00000000000E+00 -0.00000000000E+00 -0.18264876808E+01  0.18264876808E+01  0.00000000000E+00 0.  1.
          5    1    1    2  501    0  0.17040524489E+02  0.17839531323E+02  0.26986191815E+03  0.27098723811E+03  0.00000000000E+00 0.  1.
         -5    1    1    2    0  503 -0.17040524489E+02 -0.17839531323E+02  0.11913002684E+03  0.12165768224E+03  0.00000000000E+00 0. -1.
<mgrwt>
<rscale>  2 0.24670394E+02</rscale>
<asrwt>0</asrwt>
<pdfrwt beam="1">  1       21 0.60125846E-01 0.24670394E+02</pdfrwt>
<pdfrwt beam="2">  1       21 0.28099842E-03 0.24670394E+02</pdfrwt>
<totfact> 0.52858112E+07</totfact>
</mgrwt>
</event>
<event>
 4    1  0.7165636E+004  0.2221405E+02  0.7546771E-02  0.1704576E+00
         21   -1    0    0  501  502  0.00000000000E+00  0.00000000000E+00  0.75079938131E+01  0.75079938131E+01  0.00000000000E+00 0. -1.
         21   -1    0    0  502  503 -0.00000000000E+00 -0.00000000000E+00 -0.10350564077E+03  0.10350564077E+03  0.00000000000E+00 0. -1.
          2    1    1    2  501    0  0.13687003000E+02 -0.17496574955E+02 -0.81533798475E+02  0.84505765957E+02  0.00000000000E+00 0.  1.
         -2    1    1    2    0  503 -0.13687003000E+02  0.17496574955E+02 -0.14463848485E+02  0.26507868629E+02  0.00000000000E+00 0. -1.
<mgrwt>
<rscale>  2 0.22214054E+02</rscale>
<asrwt>0</asrwt>
<pdfrwt beam="1">  1       21 0.11550760E-02 0.22214054E+02</pdfrwt>
<pdfrwt beam="2">  1       21 0.15923945E-01 0.22214054E+02</pdfrwt>
<totfact> 0.72812928E+07</totfact>
</mgrwt>
</event>
<event>
 4    1  0.7165636E+004  0.2201123E+02  0.7546771E-02  0.1708058E+00
         21   -1    0    0  501  502  0.00000000000E+00  0.00000000000E+00  0.67378789076E+02  0.67378789076E+02  0.00000000000E+00 0.  1.
         21   -1    0    0  502  503 -0.00000000000E+00 -0.00000000000E+00 -0.72944272340E+01  0.72944272340E+01  0.00000000000E+00 0.  1.
          3    1    1    2  501    0 -0.13690283254E+02  0.17235728027E+02  0.25587803867E+02  0.33752479656E+02  0.00000000000E+00 0.  1.
         -3    1    1    2    0  503  0.13690283254E+02 -0.17235728027E+02  0.34496557975E+02  0.40920736654E+02  0.00000000000E+00 0. -1.
<mgrwt>
<rscale>  2 0.22011228E+02</rscale>
<asrwt>0</asrwt>
<pdfrwt beam="1">  1       21 0.10365967E-01 0.22011228E+02</pdfrwt>
<pdfrwt beam="2">  1       21 0.11222196E-02 0.22011228E+02</pdfrwt>
<totfact> 0.15603896E+08</totfact>
</mgrwt>
</event>
<event>
 4    1  0.7165636E+004  0.2050430E+02  0.7546771E-02  0.1735481E+00
         21   -1    0    0  501  502  0.00000000000E+00  0.00000000000E+00  0.30803695770E+02  0.30803695770E+02  0.00000000000E+00 0.  1.
         21   -1    0    0  502  503 -0.00000000000E+00 -0.00000000000E+00 -0.19015509566E+02  0.19015509566E+02  0.00000000000E+00 0.  1.
          4    1    1    2  501    0  0.19777065957E+02  0.54123939300E+01  0.19127639278E+02  0.28040915289E+02  0.00000000000E+00 0. -1.
         -4    1    1    2    0  503 -0.19777065957E+02 -0.54123939300E+01 -0.73394530747E+01  0.21778290046E+02  0.00000000000E+00 0.  1.
<mgrwt>
<rscale>  2 0.20504301E+02</rscale>
<asrwt>0</asrwt>
<pdfrwt beam="1">  1       21 0.47390301E-02 0.20504301E+02</pdfrwt>
<pdfrwt beam="2">  1       21 0.29254630E-02 0.20504301E+02</pdfrwt>
<totfact> 0.12538324E+08</totfact>
</mgrwt>
</event>
<event>
 4    1  0.7165636E+004  0.2548429E+02  0.7546771E-02  0.1654142E+00
         21   -1    0    0  501  502  0.00000000000E+00  0.00000000000E+00  0.45318992701E+00  0.45318992701E+00  0.00000000000E+00 0. -1.
         21   -1    0    0  502  503 -0.00000000000E+00 -0.00000000000E+00 -0.20297816980E+04  0.20297816980E+04  0.00000000000E+00 0. -1.
          2    1    1    2  501    0 -0.18207114750E+02 -0.17831148367E+02 -0.46426590836E+03  0.46496481861E+03  0.00000000000E+00 0. -1.
         -2    1    1    2    0  503  0.18207114750E+02  0.17831148367E+02 -0.15650625997E+04  0.15652700693E+04  0.00000000000E+00 0.  1.
<mgrwt>
<rscale>  2 0.25484287E+02</rscale>
<asrwt>0</asrwt>
<pdfrwt beam="1">  1       21 0.69721291E-04 0.25484287E+02</pdfrwt>
<pdfrwt beam="2">  1       21 0.31227517E+00 0.25484287E+02</pdfrwt>
<totfact> 0.70773455E+06</totfact>
</mgrwt>
</event>
<event>
 4    1  0.7165636E+004  0.2556690E+02  0.7546771E-02  0.1652990E+00
         21   -1    0    0  501  502  0.00000000000E+00  0.00000000000E+00  0.12647624915E+02  0.12647624915E+02  0.00000000000E+00 0.  1.
         21   -1    0    0  502  503 -0.00000000000E+00 -0.00000000000E+00 -0.71901382646E+02  0.71901382646E+02  0.00000000000E+00 0.  1.
          5    1    1    2  501    0  0.12986042587E+02  0.22023377141E+02 -0.52044201647E+02  0.57985044346E+02  0.00000000000E+00 0.  1.
         -5    1    1    2    0  503 -0.12986042587E+02 -0.22023377141E+02 -0.72095560846E+01  0.26563963215E+02  0.00000000000E+00 0. -1.
<mgrwt>
<rscale>  2 0.25566901E+02</rscale>
<asrwt>0</asrwt>
<pdfrwt beam="1">  1       21 0.19457885E-02 0.25566901E+02</pdfrwt>
<pdfrwt beam="2">  1       21 0.11061751E-01 0.25566901E+02</pdfrwt>
<totfact> 0.63200774E+07</totfact>
</mgrwt>
</event>
<event>
 4    1  0.7165636E+004  0.2400057E+02  0.7546771E-02  0.1675786E+00
         21   -1    0    0  503  502  0.00000000000E+00  0.00000000000E+00  0.14611590749E+03  0.14611590749E+03  0.00000000000E+00 0. -1.
         21   -1    0    0  501  503 -0.00000000000E+00 -0.00000000000E+00 -0.90089214816E+01  0.90089214816E+01  0.00000000000E+00 0. -1.
          2    1    1    2  501    0  0.89946029257E+01 -0.22251388398E+02  0.12672037500E+03  0.12897317787E+03  0.00000000000E+00 0. -1.
         -2    1    1    2    0  502 -0.89946029257E+01  0.22251388398E+02  0.10386611004E+02  0.26151651106E+02  0.00000000000E+00 0.  1.
<mgrwt>
<rscale>  2 0.24000566E+02</rscale>
<asrwt>0</asrwt>
<pdfrwt beam="1">  1       21 0.22479369E-01 0.24000566E+02</pdfrwt>
<pdfrwt beam="2">  1       21 0.13859880E-02 0.24000566E+02</pdfrwt>
<totfact> 0.30965632E+07</totfact>
</mgrwt>
</event>
<event>
 4    1  0.7165636E+004  0.2059218E+02  0.7546771E-02  0.1733802E+00
         21   -1    0    0  503  502  0.00000000000E+00  0.00000000000E+00  0.67597893128E+02  0.67597893128E+02  0.00000000000E+00 0.  1.
         21   -1    0    0  501  503 -0.00000000000E+00 -0.00000000000E+00 -0.67992898332E+01  0.67992898332E+01  0.00000000000E+00 0.  1.
          2    1    1    2  501    0 -0.12884035721E+02 -0.16063607965E+02  0.40749050938E+02  0.45656577069E+02  0.00000000000E+00 0. -1.
         -2    1    1    2    0  502  0.12884035721E+02  0.16063607965E+02  0.20049552357E+02  0.28740605892E+02  0.00000000000E+00 0.  1.
<mgrwt>
<rscale>  2 0.20592180E+02</rscale>
<asrwt>0</asrwt>
<pdfrwt beam="1">  1       21 0.10399675E-01 0.20592180E+02</pdfrwt>
<pdfrwt beam="2">  1       21 0.10460446E-02 0.20592180E+02</pdfrwt>
<totfact> 0.16898119E+08</totfact>
</mgrwt>
</event>
<event>
 4    1  0.7165636E+004  0.2932683E+02  0.7546771E-02  0.1605651E+00
         21   -1    0    0  503  502  0.00000000000E+00  0.00000000000E+00  0.43723542336E+02  0.43723542336E+02  0.00000000000E+00 0. -1.
         21   -1    0    0  501  503 -0.00000000000E+00 -0.00000000000E+00 -0.27938848401E+02  0.27938848401E+02  0.00000000000E+00 0. -1.
          4    1    1    2  501    0 -0.10140487786E+02  0.27517880535E+02 -0.11600121915E+02  0.31537692847E+02  0.00000000000E+00 0. -1.
         -4    1    1    2    0  502  0.10140487786E+02 -0.27517880535E+02  0.27384815850E+02  0.40124697890E+02  0.00000000000E+00 0.  1.
<mgrwt>
<rscale>  2 0.29326835E+02</rscale>
<asrwt>0</asrwt>
<pdfrwt beam="1">  1       21 0.67266988E-02 0.29326835E+02</pdfrwt>
<pdfrwt beam="2">  1       21 0.42982844E-02 0.29326835E+02</pdfrwt>
<totfact> 0.42905391E+07</totfact>
</mgrwt>
</event>
<event>
 4    1  0.7165636E+004  0.2083184E+02  0.7546771E-02  0.1729275E+00
         21   -1    0    0  501  502  0.00000000000E+00  0.00000000000E+00  0.24556850406E+04  0.24556850406E+04  0.00000000000E+00 0.  1.
         21   -1    0    0  502  503 -0.00000000000E+00 -0.00000000000E+00 -0.17688815140E+00  0.17688815140E+00  0.00000000000E+00 0.  1.
          1    1    1    2  501    0  0.68924656814E+01 -0.19658575040E+02  0.12657510622E+04  0.12659224768E+04  0.00000000000E+00 0.  1.
         -1    1    1    2    0  503 -0.68924656814E+01  0.19658575040E+02  0.11897570902E+04  0.11899394520E+04  0.00000000000E+00 0. -1.
<mgrwt>
<rscale>  2 0.20831842E+02</rscale>
<asrwt>0</asrwt>
<pdfrwt beam="1">  1       21 0.37777040E+00 0.20831842E+02</pdfrwt>
<pdfrwt beam="2">  1       21 0.27215528E-04 0.20831842E+02</pdfrwt>
<totfact> 0.12550702E+07</totfact>
</mgrwt>
</event>
<event>
 4    1  0.7165636E+004  0.2534768E+02  0.7546771E-02  0.1656058E+00
         21   -1    0    0  501  502  0.00000000000E+00  0.00000000000E+00  0.59332370325E+02  0.59332370325E+02  0.00000000000E+00 0. -1.
         21   -1    0    0  502  503 -0.00000000000E+00 -0.00000000000E+00 -0.13717702170E+02  0.13717702170E+02  0.00000000000E+00 0. -1.
          4    1    1    2  501    0 -0.24915338530E+02  0.46616060791E+01  0.60460064458E+01  0.26058757822E+02  0.00000000000E+00 0. -1.
         -4    1    1    2    0  503  0.24915338530E+02 -0.46616060791E+01  0.39568661709E+02  0.46991314673E+02  0.00000000000E+00 0.  1.
<mgrwt>
<rscale>  2 0.25347676E+02</rscale>
<asrwt>0</asrwt>
<pdfrwt beam="1">  1       21 0.91280569E-02 0.25347676E+02</pdfrwt>
<pdfrwt beam="2">  1       21 0.21104157E-02 0.25347676E+02</pdfrwt>
<totfact> 0.76578136E+07</totfact>
</mgrwt>
</event>
<event>
 4    1  0.7165636E+004  0.2242886E+02  0.7546771E-02  0.1700939E+00
         21   -1    0    0  503  502  0.00000000000E+00  0.00000000000E+00  0.82442186553E+01  0.82442186553E+01  0.00000000000E+00 0. -1.
         21   -1    0    0  501  503 -0.00000000000E+00 -0.00000000000E+00 -0.61629072073E+02  0.61629072073E+02  0.00000000000E+00 0. -1.
          5    1    1    2  501    0  0.21667052654E+02 -0.57959090992E+01 -0.30168504938E+02  0.37592451679E+02  0.00000000000E+00 0.  1.
         -5    1    1    2    0  502 -0.21667052654E+02  0.57959090992E+01 -0.23216348480E+02  0.32280839050E+02  0.00000000000E+00 0. -1.
<mgrwt>
<rscale>  2 0.22428859E+02</rscale>
<asrwt>0</asrwt>
<pdfrwt beam="1">  1       21 0.12683413E-02 0.22428859E+02</pdfrwt>
<pdfrwt beam="2">  1       21 0.94813962E-02 0.22428859E+02</pdfrwt>
<totfact> 0.15118606E+08</totfact>
</mgrwt>
</event>
<event>
 4    1  0.7165636E+004  0.2577564E+02  0.7546771E-02  0.1650105E+00
         21   -1    0    0  501  502  0.00000000000E+00  0.00000000000E+00  0.59463647603E+02  0.59463647603E+02  0.00000000000E+00 0. -1.
         21   -1    0    0  502  503 -0.00000000000E+00 -0.00000000000E+00 -0.11430623765E+02  0.11430623765E+02  0.00000000000E+00 0. -1.
          5    1    1    2  501    0 -0.25219217195E+02 -0.53267859170E+01  0.18694294850E+02  0.31841171839E+02  0.00000000000E+00 0.  1.
         -5    1    1    2    0  503  0.25219217195E+02  0.53267859170E+01  0.29338728988E+02  0.39053099528E+02  0.00000000000E+00 0. -1.
<mgrwt>
<rscale>  2 0.25775639E+02</rscale>
<asrwt>0</asrwt>
<pdfrwt beam="1">  1       21 0.91482533E-02 0.25775639E+02</pdfrwt>
<pdfrwt beam="2">  1       21 0.17585575E-02 0.25775639E+02</pdfrwt>
<totfact> 0.10144918E+08</totfact>
</mgrwt>
</event>
<event>
 4    1  0.7165636E+004  0.2119315E+02  0.7546771E-02  0.1722592E+00
         21   -1    0    0  503  502  0.00000000000E+00  0.00000000000E+00  0.37609372415E+01  0.37609372415E+01  0.00000000000E+00 0. -1.
         21   -1    0    0  501  503 -0.00000000000E+00 -0.00000000000E+00 -0.15994295238E+03  0.15994295238E+03  0.00000000000E+00 0. -1.
          1    1    1    2  501    0 -0.18845467583E+02  0.96952483946E+01 -0.11928850362E+03  0.12115649626E+03  0.00000000000E+00 0.  1.
         -1    1    1    2    0  502  0.18845467583E+02 -0.96952483946E+01 -0.36893511523E+02  0.42547393367E+02  0.00000000000E+00 0. -1.
<mgrwt>
<rscale>  2 0.21193147E+02</rscale>
<asrwt>0</asrwt>
<pdfrwt beam="1">  1       21 0.57860575E-03 0.21193147E+02</pdfrwt>
<pdfrwt beam="2">  1       21 0.24606607E-01 0.21193147E+02</pdfrwt>
<totfact> 0.94498523E+07</totfact>
</mgrwt>
</event>
<event>
 4    1  0.7165636E+004  0.2032048E+02  0.7546771E-02  0.1739029E+00
         21   -1    0    0  503  502  0.00000000000E+00  0.00000000000E+00  0.15229336532E+01  0.15229336532E+01  0.00000000000E+00 0.  1.
         21   -1    0    0  501  503 -0.00000000000E+00 -0.00000000000E+00 -0.28148637509E+03  0.28148637509E+03  0.00000000000E+00 0.  1.
          5    1    1    2  501    0 -0.32346062931E+01 -0.20061384006E+02 -0.16711639831E+03  0.16834729695E+03  0.00000000000E+00 0. -1.
         -5    1    1    2    0  502  0.32346062931E+01  0.20061384006E+02 -0.11284704312E+03  0.11466201179E+03  0.00000000000E+00 0.  1.
<mgrwt>
<rscale>  2 0.20320478E+02</rscale>
<asrwt>0</asrwt>
<pdfrwt beam="1">  1       21 0.23429767E-03 0.20320478E+02</pdfrwt>
<pdfrwt beam="2">  1       21 0.43305562E-01 0.20320478E+02</pdfrwt>
<totfact> 0.12412372E+08</totfact>
</mgrwt>
</event>
<event>
 4    1  0.7165636E+004  0.2045761E+02  0.7546771E-02  0.1736378E+00
         21   -1    0    0  503  502  0.00000000000E+00  0.00000000000E+00  0.75001710125E+01  0.75001710125E+01  0.00000000000E+00 0. -1.
         21   -1    0    0  501  503 -0.00000000000E+00 -0.00000000000E+00 -0.57571310158E+02  0.57571310158E+02  0.00000000000E+00 0. -1.
          1    1    1    2  501    0 -0.19889465726E+02  0.47877724315E+01 -0.30741657044E+02  0.36926455144E+02  0.00000000000E+00 0. -1.
         -1    1    1    2    0  502  0.19889465726E+02 -0.47877724315E+01 -0.19329482102E+02  0.28145026027E+02  0.00000000000E+00 0.  1.
<mgrwt>
<rscale>  2 0.20457605E+02</rscale>
<asrwt>0</asrwt>
<pdfrwt beam="1">  1       21 0.11538725E-02 0.20457605E+02</pdfrwt>
<pdfrwt beam="2">  1       21 0.88571247E-02 0.20457605E+02</pdfrwt>
<totfact> 0.18946872E+08</totfact>
</mgrwt>
</event>
<event>
 4    1  0.7165636E+004  0.3247565E+02  0.7546771E-02  0.1572232E+00
         21   -1    0    0  501  502  0.00000000000E+00  0.00000000000E+00  0.26820099912E+03  0.26820099912E+03  0.00000000000E+00 0. -1.
         21   -1    0    0  502  503 -0.00000000000E+00 -0.00000000000E+00 -0.40543046291E+01  0.40543046291E+01  0.00000000000E+00 0. -1.
          2    1    1    2  501    0 -0.31120554919E+02  0.92832603566E+01  0.10846658461E+03  0.11322397201E+03  0.00000000000E+00 0. -1.
         -2    1    1    2    0  503  0.31120554919E+02 -0.92832603566E+01  0.15568010988E+03  0.15903133173E+03  0.00000000000E+00 0.  1.
<mgrwt>
<rscale>  2 0.32475650E+02</rscale>
<asrwt>0</asrwt>
<pdfrwt beam="1">  1       21 0.41261678E-01 0.32475650E+02</pdfrwt>
<pdfrwt beam="2">  1       21 0.62373938E-03 0.32475650E+02</pdfrwt>
<totfact> 0.35973915E+07</totfact>
</mgrwt>
</event>
<event>
 4    1  0.7165636E+004  0.2126718E+02  0.7546771E-02  0.1721243E+00
         21   -1    0    0  503  502  0.00000000000E+00  0.00000000000E+00  0.42105891316E+01  0.42105891316E+01  0.00000000000E+00 0. -1.
         21   -1    0    0  501  503 -0.00000000000E+00 -0.00000000000E+00 -0.18076170102E+03  0.18076170102E+03  0.00000000000E+00 0. -1.
          2    1    1    2  501    0 -0.11624334892E+02  0.17809210363E+02 -0.14718769991E+03  0.14871621344E+03  0.00000000000E+00 0.  1.
         -2    1    1    2    0  502  0.11624334892E+02 -0.17809210363E+02 -0.29363411979E+02  0.36256076711E+02  0.00000000000E+00 0. -1.
<mgrwt>
<rscale>  2 0.21267184E+02</rscale>
<asrwt>0</asrwt>
<pdfrwt beam="1">  1       21 0.64778287E-03 0.21267184E+02</pdfrwt>
<pdfrwt beam="2">  1       21 0.27809495E-01 0.21267184E+02</pdfrwt>
<totfact> 0.64337731E+07</totfact>
</mgrwt>
</event>
<event>
 4    1  0.7165636E+004  0.3834655E+02  0.7546771E-02  0.1520744E+00
         21   -1    0    0  503  502  0.00000000000E+00  0.00000000000E+00  0.60171225383E+02  0.60171225383E+02  0.00000000000E+00 0.  1.
         21   -1    0    0  501  503 -0.00000000000E+00 -0.00000000000E+00 -0.25022622259E+02  0.25022622259E+02  0.00000000000E+00 0.  1.
          3    1    1    2  501    0 -0.73181403052E+01 -0.37641772112E+02  0.24085904295E+02  0.45283429320E+02  0.00000000000E+00 0. -1.
         -3    1    1    2    0  502  0.73181403052E+01  0.37641772112E+02  0.11062698829E+02  0.39910418322E+02  0.00000000000E+00 0.  1.
<mgrwt>
<rscale>  2 0.38346554E+02</rscale>
<asrwt>0</asrwt>
<pdfrwt beam="1">  1       21 0.92571116E-02 0.38346554E+02</pdfrwt>
<pdfrwt beam="2">  1       21 0.38496342E-02 0.38346554E+02</pdfrwt>
<totfact> 0.31820855E+07</totfact>
</mgrwt>
</event>
<event>
 4    1  0.7165636E+004  0.5288047E+02  0.7546771E-02  0.1430397E+00
         21   -1    0    0  503  502  0.00000000000E+00  0.00000000000E+00  0.48588627857E+03  0.48588627857E+03  0.00000000000E+00 0. -1.
         21   -1    0    0  501  503 -0.00000000000E+00 -0.00000000000E+00 -0.90130450075E+01  0.90130450075E+01  0.00000000000E+00 0. -1.
          2    1    1    2  501    0 -0.21551372899E+02 -0.48289567037E+02  0.89664943307E+02  0.10409681079E+03  0.00000000000E+00 0. -1.
         -2    1    1    2    0  502  0.21551372899E+02  0.48289567037E+02  0.38720829025E+03  0.39080251278E+03  0.00000000000E+00 0.  1.
<mgrwt>
<rscale>  2 0.52880469E+02</rscale>
<asrwt>0</asrwt>
<pdfrwt beam="1">  1       21 0.74751715E-01 0.52880469E+02</pdfrwt>
<pdfrwt beam="2">  1       21 0.13866227E-02 0.52880469E+02</pdfrwt>
<totfact> 0.33880532E+06</totfact>
</mgrwt>
</event>
<event>
 4    1  0.7165636E+004  0.3147065E+02  0.7546771E-02  0.1582379E+00
         21   -1    0    0  503  502  0.00000000000E+00  0.00000000000E+00  0.10621879614E+03  0.10621879614E+03  0.00000000000E+00 0.  1.
         21   -1    0    0  501  503 -0.00000000000E+00 -0.00000000000E+00 -0.18326849405E+02  0.18326849405E+02  0.00000000000E+00 0.  1.
          3    1    1    2  501    0 -0.67374589497E+01  0.30740987731E+02  0.87591590378E+02  0.93073564371E+02  0.00000000000E+00 0. -1.
         -3    1    1    2    0  502  0.67374589497E+01 -0.30740987731E+02  0.30035636035E+00  0.31472081178E+02  0.00000000000E+00 0.  1.
<mgrwt>
<rscale>  2 0.31470648E+02</rscale>
<asrwt>0</asrwt>
<pdfrwt beam="1">  1       21 0.16341353E-01 0.31470648E+02</pdfrwt>
<pdfrwt beam="2">  1       21 0.28195154E-02 0.31470648E+02</pdfrwt>
<totfact> 0.19092907E+07</totfact>
</mgrwt>
</event>
<event>
 4    1  0.7165636E+004  0.2426771E+02  0.7546771E-02  0.1671748E+00
         21   -1    0    0  503  502  0.00000000000E+00  0.00000000000E+00  0.57663420348E+00  0.57663420348E+00  0.00000000000E+00 0. -1.
         21   -1    0    0  501  503 -0.00000000000E+00 -0.00000000000E+00 -0.11431758647E+04  0.11431758647E+04  0.00000000000E+00 0. -1.
          1    1    1    2  501    0 -0.23708777611E+02 -0.51783826579E+01 -0.75801844019E+03  0.75840680208E+03  0.00000000000E+00 0. -1.
         -1    1    1    2    0  502  0.23708777611E+02  0.51783826579E+01 -0.38458079035E+03  0.38534569687E+03  0.00000000000E+00 0.  1.
<mgrwt>
<rscale>  2 0.24267711E+02</rscale>
<asrwt>0</asrwt>
<pdfrwt beam="1">  1       21 0.88713829E-04 0.24267711E+02</pdfrwt>
<pdfrwt beam="2">  1       21 0.17587148E+00 0.24267711E+02</pdfrwt>
<totfact> 0.25709894E+07</totfact>
</mgrwt>
</event>
<event>
 4    1  0.7165636E+004  0.3870770E+02  0.7546771E-02  0.1517943E+00
         21   -1    0    0  503  502  0.00000000000E+00  0.00000000000E+00  0.32165665382E+01  0.32165665382E+01  0.00000000000E+00 0. -1.
         21   -1    0    0  501  503 -0.00000000000E+00 -0.00000000000E+00 -0.49799050780E+03  0.49799050780E+03  0.00000000000E+00 0. -1.
          5    1    1    2  501    0 -0.35257730023E+02  0.15974296781E+02 -0.18367489960E+03  0.18770922840E+03  0.00000000000E+00 0. -1.
         -5    1    1    2    0  502  0.35257730023E+02 -0.15974296781E+02 -0.31109904166E+03  0.31349784594E+03  0.00000000000E+00 0.  1.
<mgrwt>
<rscale>  2 0.38707695E+02</rscale>
<asrwt>0</asrwt>
<pdfrwt beam="1">  1       21 0.49485633E-03 0.38707695E+02</pdfrwt>
<pdfrwt beam="2">  1       21 0.76613934E-01 0.38707695E+02</pdfrwt>
<totfact> 0.15022620E+07</totfact>
</mgrwt>
</event>
<event>
 4    1  0.7165636E+004  0.2191013E+02  0.7546771E-02  0.1709811E+00
         21   -1    0    0  503  502  0.00000000000E+00  0.00000000000E+00  0.30400549276E+01  0.30400549276E+01  0.00000000000E+00 0.  1.
         21   -1    0    0  501  503 -0.00000000000E+00 -0.00000000000E+00 -0.16103113108E+03  0.16103113108E+03  0.00000000000E+00 0.  1.
          4    1    1    2  501    0  0.18449842496E+01  0.21832313425E+02 -0.90417239482E+02  0.93034031794E+02  0.00000000000E+00 0. -1.
         -4    1    1    2    0  502 -0.18449842496E+01 -0.21832313425E+02 -0.67573836669E+02  0.71037154212E+02  0.00000000000E+00 0.  1.
<mgrwt>
<rscale>  2 0.21910132E+02</rscale>
<asrwt>0</asrwt>
<pdfrwt beam="1">  1       21 0.46770070E-03 0.21910132E+02</pdfrwt>
<pdfrwt beam="2">  1       21 0.24774023E-01 0.21910132E+02</pdfrwt>
<totfact> 0.12894129E+08</totfact>
</mgrwt>
</event>
<event>
 4    1  0.7165636E+004  0.2201941E+02  0.7546771E-02  0.1707916E+00
         21   -1    0    0  501  502  0.00000000000E+00  0.00000000000E+00  0.27046834725E+02  0.27046834725E+02  0.00000000000E+00 0. -1.
         21   -1    0    0  502  503 -0.00000000000E+00 -0.00000000000E+00 -0.19315482228E+02  0.19315482228E+02  0.00000000000E+00 0. -1.
          3    1    1    2  501    0 -0.54932599246E+00 -0.22012559949E+02 -0.23506493771E+01  0.22144527700E+02  0.00000000000E+00 0.  1.
         -3    1    1    2    0  503  0.54932599246E+00  0.22012559949E+02  0.10082001874E+02  0.24217789253E+02  0.00000000000E+00 0. -1.
<mgrwt>
<rscale>  2 0.22019413E+02</rscale>
<asrwt>0</asrwt>
<pdfrwt beam="1">  1       21 0.41610515E-02 0.22019413E+02</pdfrwt>
<pdfrwt beam="2">  1       21 0.29716126E-02 0.22019413E+02</pdfrwt>
<totfact> 0.15357569E+08</totfact>
</mgrwt>
</event>
<event>
 4    1  0.7165636E+004  0.2254453E+02  0.7546771E-02  0.1699001E+00
         21   -1    0    0  503  502  0.00000000000E+00  0.00000000000E+00  0.11865058159E+02  0.11865058159E+02  0.00000000000E+00 0. -1.
         21   -1    0    0  501  503 -0.00000000000E+00 -0.00000000000E+00 -0.43104847187E+02  0.43104847187E+02  0.00000000000E+00 0. -1.
          1    1    1    2  501    0 -0.10066046278E+02  0.20172524183E+02 -0.13450763646E+02  0.26252220140E+02  0.00000000000E+00 0.  1.
         -1    1    1    2    0  502  0.10066046278E+02 -0.20172524183E+02 -0.17789025381E+02  0.28717685206E+02  0.00000000000E+00 0. -1.
<mgrwt>
<rscale>  2 0.22544534E+02</rscale>
<asrwt>0</asrwt>
<pdfrwt beam="1">  1       21 0.18253936E-02 0.22544534E+02</pdfrwt>
<pdfrwt beam="2">  1       21 0.66315149E-02 0.22544534E+02</pdfrwt>
<totfact> 0.15592930E+08</totfact>
</mgrwt>
</event>
<event>
 4    1  0.7165636E+004  0.3256295E+02  0.7546771E-02  0.1571372E+00
         21   -1    0    0  503  502  0.00000000000E+00  0.00000000000E+00  0.57435463406E+02  0.57435463406E+02  0.00000000000E+00 0.  1.
         21   -1    0    0  501  503 -0.00000000000E+00 -0.00000000000E+00 -0.19350379420E+02  0.19350379420E+02  0.00000000000E+00 0.  1.
          4    1    1    2  501    0  0.16586088264E+02  0.28022261602E+02  0.10813959462E+02  0.34311618855E+02  0.00000000000E+00 0.  1.
         -4    1    1    2    0  502 -0.16586088264E+02 -0.28022261602E+02  0.27271124523E+02  0.42474223971E+02  0.00000000000E+00 0. -1.
<mgrwt>
<rscale>  2 0.32562946E+02</rscale>
<asrwt>0</asrwt>
<pdfrwt beam="1">  1       21 0.88362250E-02 0.32562946E+02</pdfrwt>
<pdfrwt beam="2">  1       21 0.29769815E-02 0.32562946E+02</pdfrwt>
<totfact> 0.50120220E+07</totfact>
</mgrwt>
</event>
<event>
 4    1  0.7165636E+004  0.2018825E+02  0.7546771E-02  0.1741610E+00
         21   -1    0    0  503  502  0.00000000000E+00  0.00000000000E+00  0.54080461283E+02  0.54080461283E+02  0.00000000000E+00 0. -1.
         21   -1    0    0  501  503 -0.00000000000E+00 -0.00000000000E+00 -0.76154990845E+01  0.76154990845E+01  0.00000000000E+00 0. -1.
          4    1    1    2  501    0 -0.18181691130E+02 -0.87744829693E+01  0.20086216477E+02  0.28478439846E+02  0.00000000000E+00 0. -1.
         -4    1    1    2    0  502  0.18181691130E+02  0.87744829693E+01  0.26378745721E+02  0.33217520521E+02  0.00000000000E+00 0.  1.
<mgrwt>
<rscale>  2 0.20188250E+02</rscale>
<asrwt>0</asrwt>
<pdfrwt beam="1">  1       21 0.83200707E-02 0.20188250E+02</pdfrwt>
<pdfrwt beam="2">  1       21 0.11716153E-02 0.20188250E+02</pdfrwt>
<totfact> 0.20417592E+08</totfact>
</mgrwt>
</event>
<event>
 4    1  0.7165636E+004  0.2069066E+02  0.7546771E-02  0.1731932E+00
         21   -1    0    0  501  502  0.00000000000E+00  0.00000000000E+00  0.24804007866E+02  0.24804007866E+02  0.00000000000E+00 0. -1.
         21   -1    0    0  502  503 -0.00000000000E+00 -0.00000000000E+00 -0.22462912132E+02  0.22462912132E+02  0.00000000000E+00 0. -1.
          3    1    1    2  501    0 -0.11667243816E+02  0.17087385909E+02  0.12545270395E+02  0.24196841628E+02  0.00000000000E+00 0. -1.
         -3    1    1    2    0  503  0.11667243816E+02 -0.17087385909E+02 -0.10204174661E+02  0.23070078370E+02  0.00000000000E+00 0.  1.
<mgrwt>
<rscale>  2 0.20690658E+02</rscale>
<asrwt>0</asrwt>
<pdfrwt beam="1">  1       21 0.38160012E-02 0.20690658E+02</pdfrwt>
<pdfrwt beam="2">  1       21 0.34558326E-02 0.20690658E+02</pdfrwt>
<totfact> 0.13645516E+08</totfact>
</mgrwt>
</event>
<event>
 4    1  0.7165636E+004  0.2616731E+02  0.7546771E-02  0.1644780E+00
         21   -1    0    0  501  502  0.00000000000E+00  0.00000000000E+00  0.38500333021E+03  0.38500333021E+03  0.00000000000E+00 0. -1.
         21   -1    0    0  502  503 -0.00000000000E+00 -0.00000000000E+00 -0.19626019467E+01  0.19626019467E+01  0.00000000000E+00 0. -1.
          1    1    1    2  501    0  0.71281984445E+01 -0.25177709345E+02  0.13226109237E+03  0.13482479303E+03  0.00000000000E+00 0.  1.
         -1    1    1    2    0  503 -0.71281984445E+01  0.25177709345E+02  0.25077963589E+03  0.25214113913E+03  0.00000000000E+00 0. -1.
<mgrwt>
<rscale>  2 0.26167313E+02</rscale>
<asrwt>0</asrwt>
<pdfrwt beam="1">  1       21 0.59231221E-01 0.26167313E+02</pdfrwt>
<pdfrwt beam="2">  1       21 0.30193907E-03 0.26167313E+02</pdfrwt>
<totfact> 0.49672155E+07</totfact>
</mgrwt>
</event>
<event>
 4    1  0.7165636E+004  0.2551893E+02  0.7546771E-02  0.1653658E+00
         21   -1    0    0  501  502  0.00000000000E+00  0.00000000000E+00  0.19016567152E+03  0.19016567152E+03  0.00000000000E+00 0.  1.
         21   -1    0    0  502  503 -0.00000000000E+00 -0.00000000000E+00 -0.34317318231E+01  0.34317318231E+01  0.00000000000E+00 0.  1.
          4    1    1    2  501    0  0.17385060193E+02  0.18680890161E+02  0.88913076977E+02  0.92502709326E+02  0.00000000000E+00 0.  1.
         -4    1    1    2    0  503 -0.17385060193E+02 -0.18680890161E+02  0.97820862717E+02  0.10109469401E+03  0.00000000000E+00 0. -1.
<mgrwt>
<rscale>  2 0.25518934E+02</rscale>
<asrwt>0</asrwt>
<pdfrwt beam="1">  1       21 0.29256249E-01 0.25518934E+02</pdfrwt>
<pdfrwt beam="2">  1       21 0.52795889E-03 0.25518934E+02</pdfrwt>
<totfact> 0.83258758E+07</totfact>
</mgrwt>
</event>
<event>
 4    1  0.7165636E+004  0.2421728E+02  0.7546771E-02  0.1672506E+00
         21   -1    0    0  503  502  0.00000000000E+00  0.00000000000E+00  0.29128009556E+01  0.29128009556E+01  0.00000000000E+00 0.  1.
         21   -1    0    0  501  503 -0.00000000000E+00 -0.00000000000E+00 -0.20138085269E+03  0.20138085269E+03  0.00000000000E+00 0.  1.
          2    1    1    2  501    0  0.52899754235E+01  0.23632451989E+02 -0.10060530181E+03  0.10347899971E+03  0.00000000000E+00 0.  1.
         -2    1    1    2    0  502 -0.52899754235E+01 -0.23632451989E+02 -0.97862749916E+02  0.10081465394E+03  0.00000000000E+00 0. -1.
<mgrwt>
<rscale>  2 0.24217280E+02</rscale>
<asrwt>0</asrwt>
<pdfrwt beam="1">  1       21 0.44812337E-03 0.24217280E+02</pdfrwt>
<pdfrwt beam="2">  1       21 0.30981660E-01 0.24217280E+02</pdfrwt>
<totfact> 0.94307355E+07</totfact>
</mgrwt>
</event>
<event>
 4    1  0.7165636E+004  0.2011476E+02  0.7546771E-02  0.1743056E+00
         21   -1    0    0  503  502  0.00000000000E+00  0.00000000000E+00  0.92172972338E+00  0.92172972338E+00  0.00000000000E+00 0.  1.
         21   -1    0    0  501  503 -0.00000000000E+00 -0.00000000000E+00 -0.59515019893E+03  0.59515019893E+03  0.00000000000E+00 0.  1.
          3    1    1    2  501    0  0.13422393764E+02  0.14981418895E+02 -0.44979370043E+03  0.45024324149E+03  0.00000000000E+00 0.  1.
         -3    1    1    2    0  502 -0.13422393764E+02 -0.14981418895E+02 -0.14443476878E+03  0.14582868716E+03  0.00000000000E+00 0. -1.
<mgrwt>
<rscale>  2 0.20114760E+02</rscale>
<asrwt>0</asrwt>
<pdfrwt beam="1">  1       21 0.14180482E-03 0.20114760E+02</pdfrwt>
<pdfrwt beam="2">  1       21 0.91561412E-01 0.20114760E+02</pdfrwt>
<totfact> 0.56621099E+07</totfact>
</mgrwt>
</event>
<event>
 4    1  0.7165636E+004  0.2757447E+02  0.7546771E-02  0.1626559E+00
         21   -1    0    0  503  502  0.00000000000E+00  0.00000000000E+00  0.22199473465E+01  0.22199473465E+01  0.00000000000E+00 0. -1.
         21   -1    0    0  501  503 -0.00000000000E+00 -0.00000000000E+00 -0.39601308575E+03  0.39601308575E+03  0.00000000000E+00 0. -1.
          5    1    1    2  501    0  0.63488606572E+01 -0.26833627852E+02 -0.12370743745E+03  0.12674336944E+03  0.00000000000E+00 0. -1.
         -5    1    1    2    0  502 -0.63488606572E+01  0.26833627852E+02 -0.27008570095E+03  0.27148966366E+03  0.00000000000E+00 0.  1.
<mgrwt>
<rscale>  2 0.27574474E+02</rscale>
<asrwt>0</asrwt>
<pdfrwt beam="1">  1       21 0.34153012E-03 0.27574474E+02</pdfrwt>
<pdfrwt beam="2">  1       21 0.60925132E-01 0.27574474E+02</pdfrwt>
<totfact> 0.39599300E+07</totfact>
</mgrwt>
</event>
<event>
 4    1  0.7165636E+004  0.4684041E+02  0.7546771E-02  0.1463169E+00
         21   -1    0    0  503  502  0.00000000000E+00  0.00000000000E+00  0.57503147436E+03  0.57503147436E+03  0.00000000000E+00 0. -1.
         21   -1    0    0  501  503 -0.00000000000E+00 -0.00000000000E+00 -0.46659328647E+01  0.46659328647E+01  0.00000000000E+00 0. -1.
          4    1    1    2  501    0 -0.41686599196E+02  0.21360040646E+02  0.40892729796E+03  0.41160121344E+03  0.00000000000E+00 0.  1.
         -4    1    1    2    0  502  0.41686599196E+02 -0.21360040646E+02  0.16143824354E+03  0.16809619378E+03  0.00000000000E+00 0. -1.
<mgrwt>
<rscale>  2 0.46840409E+02</rscale>
<asrwt>0</asrwt>
<pdfrwt beam="1">  1       21 0.88466324E-01 0.46840409E+02</pdfrwt>
<pdfrwt beam="2">  1       21 0.71783628E-03 0.46840409E+02</pdfrwt>
<totfact> 0.64107371E+06</totfact>
</mgrwt>
</event>
<event>
 4    1  0.7165636E+004  0.2023365E+02  0.7546771E-02  0.1740721E+00
         21   -1    0    0  501  502  0.00000000000E+00  0.00000000000E+00  0.23100433927E+03  0.23100433927E+03  0.00000000000E+00 0.  1.
         21   -1    0    0  502  503 -0.00000000000E+00 -0.00000000000E+00 -0.18671115763E+01  0.18671115763E+01  0.00000000000E+00 0.  1.
          3    1    1    2  501    0  0.84686872457E+01 -0.18376128534E+02  0.88325621601E+02  0.90613554145E+02  0.00000000000E+00 0.  1.
         -3    1    1    2    0  503 -0.84686872457E+01  0.18376128534E+02  0.14081160609E+03  0.14225789670E+03  0.00000000000E+00 0. -1.
<mgrwt>
<rscale>  2 0.20233654E+02</rscale>
<asrwt>0</asrwt>
<pdfrwt beam="1">  1       21 0.35539106E-01 0.20233654E+02</pdfrwt>
<pdfrwt beam="2">  1       21 0.28724812E-03 0.20233654E+02</pdfrwt>
<totfact> 0.13360221E+08</totfact>
</mgrwt>
</event>
<event>
 4    1  0.7165636E+004  0.5435995E+02  0.7546771E-02  0.1423150E+00
         21   -1    0    0  501  502  0.00000000000E+00  0.00000000000E+00  0.92590436093E+01  0.92590436093E+01  0.00000000000E+00 0. -1.
         21   -1    0    0  502  503 -0.00000000000E+00 -0.00000000000E+00 -0.32346432428E+03  0.32346432428E+03  0.00000000000E+00 0. -1.
          5    1    1    2  501    0  0.46184420933E+02 -0.28670609041E+02 -0.13788496304E+03  0.14821358775E+03  0.00000000000E+00 0.  1.
         -5    1    1    2    0  503 -0.46184420933E+02  0.28670609041E+02 -0.17632031763E+03  0.18450978014E+03  0.00000000000E+00 0. -1.
<mgrwt>
<rscale>  2 0.54359954E+02</rscale>
<asrwt>0</asrwt>
<pdfrwt beam="1">  1       21 0.14244681E-02 0.54359954E+02</pdfrwt>
<pdfrwt beam="2">  1       21 0.49763748E-01 0.54359954E+02</pdfrwt>
<totfact> 0.75677560E+06</totfact>
</mgrwt>
</event>
<event>
 4    1  0.7165636E+004  0.2055382E+02  0.7546771E-02  0.1734534E+00
         21   -1    0    0  501  502  0.00000000000E+00  0.00000000000E+00  0.41549114480E+02  0.41549114480E+02  0.00000000000E+00 0. -1.
         21   -1    0    0  502  503 -0.00000000000E+00 -0.00000000000E+00 -0.10217220885E+02  0.10217220885E+02  0.00000000000E+00 0. -1.
          2    1    1    2  501    0  0.39121345733E+01  0.20178078300E+02  0.17467596448E+02  0.26973627240E+02  0.00000000000E+00 0. -1.
         -2    1    1    2    0  503 -0.39121345733E+01 -0.20178078300E+02  0.13864297147E+02  0.24792708125E+02  0.00000000000E+00 0.  1.
<mgrwt>
<rscale>  2 0.20553823E+02</rscale>
<asrwt>0</asrwt>
<pdfrwt beam="1">  1       21 0.63921714E-02 0.20553823E+02</pdfrwt>
<pdfrwt beam="2">  1       21 0.15718802E-02 0.20553823E+02</pdfrwt>
<totfact> 0.20177751E+08</totfact>
</mgrwt>
</event>
<event>
 4    1  0.7165636E+004  0.2125822E+02  0.7546771E-02  0.1721406E+00
         21   -1    0    0  503  502  0.00000000000E+00  0.00000000000E+00  0.14233580044E+02  0.14233580044E+02  0.00000000000E+00 0.  1.
         21   -1    0    0  501  503 -0.00000000000E+00 -0.00000000000E+00 -0.31755564983E+02  0.31755564983E+02  0.00000000000E+00 0.  1.
          1    1    1    2  501    0 -0.14574944668E+02 -0.15475237611E+02 -0.90733140333E+01  0.23113567849E+02  0.00000000000E+00 0. -1.
         -1    1    1    2    0  502  0.14574944668E+02  0.15475237611E+02 -0.84486709058E+01  0.22875577178E+02  0.00000000000E+00 0.  1.
<mgrwt>
<rscale>  2 0.21258222E+02</rscale>
<asrwt>0</asrwt>
<pdfrwt beam="1">  1       21 0.21897816E-02 0.21258222E+02</pdfrwt>
<pdfrwt beam="2">  1       21 0.48854715E-02 0.21258222E+02</pdfrwt>
<totfact> 0.18884505E+08</totfact>
</mgrwt>
</event>
<event>
 4    1  0.7165636E+004  0.2369877E+02  0.7546771E-02  0.1680427E+00
         21   -1    0    0  501  502  0.00000000000E+00  0.00000000000E+00  0.67487966278E+01  0.67487966278E+01  0.00000000000E+00 0.  1.
         21   -1    0    0  502  503 -0.00000000000E+00 -0.00000000000E+00 -0.87598598749E+02  0.87598598749E+02  0.00000000000E+00 0.  1.
          1    1    1    2  501    0  0.25763485046E+01  0.23558312192E+02 -0.50972230335E+02  0.56212097544E+02  0.00000000000E+00 0.  1.
         -1    1    1    2    0  503 -0.25763485046E+01 -0.23558312192E+02 -0.29877571786E+02  0.38135297832E+02  0.00000000000E+00 0. -1.
<mgrwt>
<rscale>  2 0.23698769E+02</rscale>
<asrwt>0</asrwt>
<pdfrwt beam="1">  1       21 0.10382765E-02 0.23698769E+02</pdfrwt>
<pdfrwt beam="2">  1       21 0.13476706E-01 0.23698769E+02</pdfrwt>
<totfact> 0.11557866E+08</totfact>
</mgrwt>
</event>
<event>
 4    1  0.7165636E+004  0.3154649E+02  0.7546771E-02  0.1581597E+00
         21   -1    0    0  503  502  0.00000000000E+00  0.00000000000E+00  0.96557407189E+02  0.96557407189E+02  0.00000000000E+00 0. -1.
         21   -1    0    0  501  503 -0.00000000000E+00 -0.00000000000E+00 -0.10354502423E+02  0.10354502423E+02  0.00000000000E+00 0. -1.
          4    1    1    2  501    0 -0.30719219883E+02 -0.71770926627E+01  0.46736333123E+02  0.56386753437E+02  0.00000000000E+00 0.  1.
         -4    1    1    2    0  502  0.30719219883E+02  0.71770926627E+01  0.39466571642E+02  0.50525156175E+02  0.00000000000E+00 0. -1.
<mgrwt>
<rscale>  2 0.31546492E+02</rscale>
<asrwt>0</asrwt>
<pdfrwt beam="1">  1       21 0.14854985E-01 0.31546492E+02</pdfrwt>
<pdfrwt beam="2">  1       21 0.15930004E-02 0.31546492E+02</pdfrwt>
<totfact> 0.54737158E+07</totfact>
</mgrwt>
</event>
<event>
 4    1  0.7165636E+004  0.2285460E+02  0.7546771E-02  0.1693878E+00
         21   -1    0    0  501  502  0.00000000000E+00  0.00000000000E+00  0.17649023720E+03  0.17649023720E+03  0.00000000000E+00 0.  1.
         21   -1    0    0  502  503 -0.00000000000E+00 -0.00000000000E+00 -0.31336674066E+01  0.31336674066E+01  0.00000000000E+00 0.  1.
          5    1    1    2  501    0  0.22072372863E+02  0.59281646446E+01  0.65508276980E+02  0.69380596226E+02  0.00000000000E+00 0. -1.
         -5    1    1    2    0  503 -0.22072372863E+02 -0.59281646446E+01  0.10784829282E+03  0.11024330838E+03  0.00000000000E+00 0.  1.
<mgrwt>
<rscale>  2 0.22854601E+02</rscale>
<asrwt>0</asrwt>
<pdfrwt beam="1">  1       21 0.27152336E-01 0.22854601E+02</pdfrwt>
<pdfrwt beam="2">  1       21 0.48210281E-03 0.22854601E+02</pdfrwt>
<totfact> 0.10591769E+08</totfact>
</mgrwt>
</event>
<event>
 4    1  0.7165636E+004  0.2157442E+02  0.7546771E-02  0.1715718E+00
         21   -1    0    0  501  502  0.00000000000E+00  0.00000000000E+00  0.20023052626E+01  0.20023052626E+01  0.00000000000E+00 0.  1.
         21   -1    0    0  502  503 -0.00000000000E+00 -0.00000000000E+00 -0.30250072880E+03  0.30250072880E+03  0.00000000000E+00 0.  1.
          4    1    1    2  501    0  0.21087978517E+02  0.45555294185E+01 -0.22351041486E+03  0.22454924011E+03  0.00000000000E+00 0.  1.
         -4    1    1    2    0  503 -0.21087978517E+02 -0.45555294185E+01 -0.76988008682E+02  0.79953793951E+02  0.00000000000E+00 0. -1.
<mgrwt>
<rscale>  2 0.21574422E+02</rscale>
<asrwt>0</asrwt>
<pdfrwt beam="1">  1       21 0.30804700E-03 0.21574422E+02</pdfrwt>
<pdfrwt beam="2">  1       21 0.46538568E-01 0.21574422E+02</pdfrwt>
<totfact> 0.73969709E+07</totfact>
</mgrwt>
</event>
<event>
 4    1  0.7165636E+004  0.2165315E+02  0.7546771E-02  0.1714321E+00
         21   -1    0    0  503  502  0.00000000000E+00  0.00000000000E+00  0.30227798551E+03  0.30227798551E+03  0.00000000000E+00 0.  1.
         21   -1    0    0  501  503 -0.00000000000E+00 -0.00000000000E+00 -0.15537959161E+01  0.15537959161E+01  0.00000000000E+00 0.  1.
          1    1    1    2  501    0 -0.15981511926E+02 -0.14609932802E+02  0.15670752988E+03  0.15819642468E+03  0.00000000000E+00 0. -1.
         -1    1    1    2    0  502  0.15981511926E+02  0.14609932802E+02  0.14401665971E+03  0.14563535675E+03  0.00000000000E+00 0.  1.
<mgrwt>
<rscale>  2 0.21653149E+02</rscale>
<asrwt>0</asrwt>
<pdfrwt beam="1">  1       21 0.46504259E-01 0.21653149E+02</pdfrwt>
<pdfrwt beam="2">  1       21 0.23904577E-03 0.21653149E+02</pdfrwt>
<totfact> 0.10711769E+08</totfact>
</mgrwt>
</event>
<event>
 4    1  0.7165636E+004  0.2385096E+02  0.7546771E-02  0.1678076E+00
         21   -1    0    0  503  502  0.00000000000E+00  0.00000000000E+00  0.32847215739E+02  0.32847215739E+02  0.00000000000E+00 0. -1.
         21   -1    0    0  501  503 -0.00000000000E+00 -0.00000000000E+00 -0.17359585002E+02  0.17359585002E+02  0.00000000000E+00 0. -1.
          5    1    1    2  501    0  0.36390570111E+01 -0.23571711544E+02  0.89633377415E+01  0.25479594669E+02  0.00000000000E+00 0. -1.
         -5    1    1    2    0  502 -0.36390570111E+01  0.23571711544E+02  0.65242929953E+01  0.24727206072E+02  0.00000000000E+00 0.  1.
<mgrwt>
<rscale>  2 0.23850961E+02</rscale>
<asrwt>0</asrwt>
<pdfrwt beam="1">  1       21 0.50534178E-02 0.23850961E+02</pdfrwt>
<pdfrwt beam="2">  1       21 0.26707054E-02 0.23850961E+02</pdfrwt>
<totfact> 0.13648470E+08</totfact>
</mgrwt>
</event>
<event>
 4    1  0.7165636E+004  0.2296068E+02  0.7546771E-02  0.1692148E+00
         21   -1    0    0  503  502  0.00000000000E+00  0.00000000000E+00  0.24697080851E+01  0.24697080851E+01  0.00000000000E+00 0.  1.
         21   -1    0    0  501  503 -0.00000000000E+00 -0.00000000000E+00 -0.22244460514E+03  0.22244460514E+03  0.00000000000E+00 0.  1.
          3    1    1    2  501    0 -0.22960010296E+02  0.17498654461E+00 -0.13258385982E+03  0.13455732079E+03  0.00000000000E+00 0. -1.
         -3    1    1    2    0  502  0.22960010296E+02 -0.17498654461E+00 -0.87391037231E+02  0.90356992433E+02  0.00000000000E+00 0.  1.
<mgrwt>
<rscale>  2 0.22960677E+02</rscale>
<asrwt>0</asrwt>
<pdfrwt beam="1">  1       21 0.37995493E-03 0.22960677E+02</pdfrwt>
<pdfrwt beam="2">  1       21 0.34222261E-01 0.22960677E+02</pdfrwt>
<totfact> 0.98694062E+07</totfact>
</mgrwt>
</event>
<event>
 4    1  0.7165636E+004  0.2877345E+02  0.7546771E-02  0.1612056E+00
         21   -1    0    0  501  502  0.00000000000E+00  0.00000000000E+00  0.50533669825E+02  0.50533669825E+02  0.00000000000E+00 0. -1.
         21   -1    0    0  502  503 -0.00000000000E+00 -0.00000000000E+00 -0.16703519459E+02  0.16703519459E+02  0.00000000000E+00 0. -1.
          5    1    1    2  501    0 -0.26132572770E+02  0.12041603176E+02  0.12260766145E+02  0.31276795761E+02  0.00000000000E+00 0.  1.
         -5    1    1    2    0  503  0.26132572770E+02 -0.12041603176E+02  0.21569384221E+02  0.35960393523E+02  0.00000000000E+00 0. -1.
<mgrwt>
<rscale>  2 0.28773452E+02</rscale>
<asrwt>0</asrwt>
<pdfrwt beam="1">  1       21 0.77744107E-02 0.28773452E+02</pdfrwt>
<pdfrwt beam="2">  1       21 0.25697723E-02 0.28773452E+02</pdfrwt>
<totfact> 0.75862473E+07</totfact>
</mgrwt>
</event>
<event>
 4    1  0.7165636E+004  0.3278523E+02  0.7546771E-02  0.1569196E+00
         21   -1    0    0  501  502  0.00000000000E+00  0.00000000000E+00  0.26386346220E+03  0.26386346220E+03  0.00000000000E+00 0. -1.
         21   -1    0    0  502  503 -0.00000000000E+00 -0.00000000000E+00 -0.44404046884E+01  0.44404046884E+01  0.00000000000E+00 0. -1.
          2    1    1    2  501    0  0.92071791679E+01  0.31465844959E+02  0.16826904497E+03  0.17143320286E+03  0.00000000000E+00 0. -1.
         -2    1    1    2    0  503 -0.92071791679E+01 -0.31465844959E+02  0.91154012544E+02  0.96870664032E+02  0.00000000000E+00 0.  1.
<mgrwt>
<rscale>  2 0.32785234E+02</rscale>
<asrwt>0</asrwt>
<pdfrwt beam="1">  1       21 0.40594367E-01 0.32785234E+02</pdfrwt>
<pdfrwt beam="2">  1       21 0.68313939E-03 0.32785234E+02</pdfrwt>
<totfact> 0.32433663E+07</totfact>
</mgrwt>
</event>
<event>
 4    1  0.7165636E+004  0.2167550E+02  0.7546771E-02  0.1713925E+00
         21   -1    0    0  503  502  0.00000000000E+00  0.00000000000E+00  0.50724554657E+03  0.50724554657E+03  0.00000000000E+00 0.  1.
         21   -1    0    0  501  503 -0.00000000000E+00 -0.00000000000E+00 -0.93046582654E+00  0.93046582654E+00  0.00000000000E+00 0.  1.
          2    1    1    2  501    0 -0.17083025994E+02 -0.13341571082E+02  0.27029617893E+03  0.27116388336E+03  0.00000000000E+00 0.  1.
         -2    1    1    2    0  502  0.17083025994E+02  0.13341571082E+02  0.23601890181E+03  0.23701212903E+03  0.00000000000E+00 0. -1.
<mgrwt>
<rscale>  2 0.21675500E+02</rscale>
<asrwt>0</asrwt>
<pdfrwt beam="1">  1       21 0.78037556E-01 0.21675500E+02</pdfrwt>
<pdfrwt beam="2">  1       21 0.14314899E-03 0.21675500E+02</pdfrwt>
<totfact> 0.79695464E+07</totfact>
</mgrwt>
</event>
<event>
 4    1  0.7165636E+004  0.4840931E+02  0.7546771E-02  0.1454115E+00
         21   -1    0    0  501  502  0.00000000000E+00  0.00000000000E+00  0.35722607271E+02  0.35722607271E+02  0.00000000000E+00 0.  1.
         21   -1    0    0  502  503 -0.00000000000E+00 -0.00000000000E+00 -0.68553270147E+02  0.68553270147E+02  0.00000000000E+00 0.  1.
          2    1    1    2  501    0  0.50777200133E+01  0.48142270230E+02 -0.55967293724E+01  0.48731763801E+02  0.00000000000E+00 0.  1.
         -2    1    1    2    0  503 -0.50777200133E+01 -0.48142270230E+02 -0.27233933504E+02  0.55544113618E+02  0.00000000000E+00 0. -1.
<mgrwt>
<rscale>  2 0.48409311E+02</rscale>
<asrwt>0</asrwt>
<pdfrwt beam="1">  1       21 0.54957859E-02 0.48409311E+02</pdfrwt>
<pdfrwt beam="2">  1       21 0.10546657E-01 0.48409311E+02</pdfrwt>
<totfact> 0.14857577E+07</totfact>
</mgrwt>
</event>
<event>
 4    1  0.7165636E+004  0.4065767E+02  0.7546771E-02  0.1503427E+00
         21   -1    0    0  501  502  0.00000000000E+00  0.00000000000E+00  0.13819512246E+03  0.13819512246E+03  0.00000000000E+00 0. -1.
         21   -1    0    0  502  503 -0.00000000000E+00 -0.00000000000E+00 -0.12109062707E+02  0.12109062707E+02  0.00000000000E+00 0. -1.
          5    1    1    2  501    0 -0.40657672019E+02 -0.86763049936E-02  0.71333961902E+02  0.82107128131E+02  0.00000000000E+00 0. -1.
         -5    1    1    2    0  503  0.40657672019E+02  0.86763049936E-02  0.54752097851E+02  0.68197057035E+02  0.00000000000E+00 0.  1.
<mgrwt>
<rscale>  2 0.40657673E+02</rscale>
<asrwt>0</asrwt>
<pdfrwt beam="1">  1       21 0.21260787E-01 0.40657673E+02</pdfrwt>
<pdfrwt beam="2">  1       21 0.18629328E-02 0.40657673E+02</pdfrwt>
<totfact> 0.23980741E+07</totfact>
</mgrwt>
</event>
<event>
 4    1  0.7165636E+004  0.3146128E+02  0.7546771E-02  0.1582476E+00
         21   -1    0    0  503  502  0.00000000000E+00  0.00000000000E+00  0.27332995353E+02  0.27332995353E+02  0.00000000000E+00 0. -1.
         21   -1    0    0  501  503 -0.00000000000E+00 -0.00000000000E+00 -0.39954920084E+02  0.39954920084E+02  0.00000000000E+00 0. -1.
          2    1    1    2  501    0 -0.30990050725E+02  0.54248383953E+01  0.39849348844E+01  0.31712644506E+02  0.00000000000E+00 0.  1.
         -2    1    1    2    0  502  0.30990050725E+02 -0.54248383953E+01 -0.16606859616E+02  0.35575270931E+02  0.00000000000E+00 0. -1.
<mgrwt>
<rscale>  2 0.31461280E+02</rscale>
<asrwt>0</asrwt>
<pdfrwt beam="1">  1       21 0.42050762E-02 0.31461280E+02</pdfrwt>
<pdfrwt beam="2">  1       21 0.61469108E-02 0.31461280E+02</pdfrwt>
<totfact> 0.52248273E+07</totfact>
</mgrwt>
</event>
<event>
 4    1  0.7165636E+004  0.2135766E+02  0.7546771E-02  0.1719604E+00
         21   -1    0    0  503  502  0.00000000000E+00  0.00000000000E+00  0.32530021796E+02  0.32530021796E+02  0.00000000000E+00 0. -1.
         21   -1    0    0  501  503 -0.00000000000E+00 -0.00000000000E+00 -0.16351089703E+02  0.16351089703E+02  0.00000000000E+00 0. -1.
          1    1    1    2  501    0  0.87086039060E+00 -0.21339893584E+02 -0.11339578066E+01  0.21387737522E+02  0.00000000000E+00 0.  1.
         -1    1    1    2    0  502 -0.87086039060E+00  0.21339893584E+02  0.17312889899E+02  0.27493373977E+02  0.00000000000E+00 0. -1.
<mgrwt>
<rscale>  2 0.21357656E+02</rscale>
<asrwt>0</asrwt>
<pdfrwt beam="1">  1       21 0.50046188E-02 0.21357656E+02</pdfrwt>
<pdfrwt beam="2">  1       21 0.25155523E-02 0.21357656E+02</pdfrwt>
<totfact> 0.14705253E+08</totfact>
</mgrwt>
</event>
<event>
 4    1  0.7165636E+004  0.6277944E+02  0.7546771E-02  0.1386524E+00
         21   -1    0    0  503  502  0.00000000000E+00  0.00000000000E+00  0.14676912679E+03  0.14676912679E+03  0.00000000000E+00 0.  1.
         21   -1    0    0  501  503 -0.00000000000E+00 -0.00000000000E+00 -0.26967563690E+02  0.26967563690E+02  0.00000000000E+00 0.  1.
          2    1    1    2  501    0  0.48740703122E+02  0.39567689638E+02  0.54250120692E+02  0.82971885595E+02  0.00000000000E+00 0.  1.
         -2    1    1    2    0  502 -0.48740703122E+02 -0.39567689638E+02  0.65551442410E+02  0.90764804887E+02  0.00000000000E+00 0. -1.
<mgrwt>
<rscale>  2 0.62779441E+02</rscale>
<asrwt>0</asrwt>
<pdfrwt beam="1">  1       21 0.22579865E-01 0.62779441E+02</pdfrwt>
<pdfrwt beam="2">  1       21 0.41488560E-02 0.62779441E+02</pdfrwt>
<totfact> 0.63252623E+06</totfact>
</mgrwt>
</event>
<event>
 4    1  0.7165636E+004  0.3344247E+02  0.7546771E-02  0.1562883E+00
         21   -1    0    0  501  502  0.00000000000E+00  0.00000000000E+00  0.33697934112E+03  0.33697934112E+03  0.00000000000E+00 0.  1.
         21   -1    0    0  502  503 -0.00000000000E+00 -0.00000000000E+00 -0.33241717481E+01  0.33241717481E+01  0.00000000000E+00 0.  1.
          3    1    1    2  501    0 -0.21545653816E+02 -0.25577011525E+02  0.17360741156E+03  0.17679912915E+03  0.00000000000E+00 0.  1.
         -3    1    1    2    0  503  0.21545653816E+02  0.25577011525E+02  0.16004775781E+03  0.16350438372E+03  0.00000000000E+00 0. -1.
<mgrwt>
<rscale>  2 0.33442469E+02</rscale>
<asrwt>0</asrwt>
<pdfrwt beam="1">  1       21 0.51842949E-01 0.33442469E+02</pdfrwt>
<pdfrwt beam="2">  1       21 0.51141130E-03 0.33442469E+02</pdfrwt>
<totfact> 0.31182904E+07</totfact>
</mgrwt>
</event>
<event>
 4    1  0.7165636E+004  0.3216737E+02  0.7546771E-02  0.1575297E+00
         21   -1    0    0  501  502  0.00000000000E+00  0.00000000000E+00  0.44045938146E+03  0.44045938146E+03  0.00000000000E+00 0. -1.
         21   -1    0    0  502  503 -0.00000000000E+00 -0.00000000000E+00 -0.23499895662E+01  0.23499895662E+01  0.00000000000E+00 0. -1.
          4    1    1    2  501    0  0.55118345316E+01  0.31691631749E+02  0.22303845702E+03  0.22534616294E+03  0.00000000000E+00 0.  1.
         -4    1    1    2    0  503 -0.55118345316E+01 -0.31691631749E+02  0.21507093488E+03  0.21746320809E+03  0.00000000000E+00 0. -1.
<mgrwt>
<rscale>  2 0.32167372E+02</rscale>
<asrwt>0</asrwt>
<pdfrwt beam="1">  1       21 0.67762916E-01 0.32167372E+02</pdfrwt>
<pdfrwt beam="2">  1       21 0.36153721E-03 0.32167372E+02</pdfrwt>
<totfact> 0.30149811E+07</totfact>
</mgrwt>
</event>
<event>
 4    1  0.7165636E+004  0.2098468E+02  0.7546771E-02  0.1726427E+00
         21   -1    0    0  501  502  0.00000000000E+00  0.00000000000E+00  0.50442660296E+02  0.50442660296E+02  0.00000000000E+00 0. -1.
         21   -1    0    0  502  503 -0.00000000000E+00 -0.00000000000E+00 -0.87403615218E+01  0.87403615218E+01  0.00000000000E+00 0. -1.
          2    1    1    2  501    0  0.59893728784E+01 -0.20111796425E+02  0.21877274833E+02  0.30314552562E+02  0.00000000000E+00 0. -1.
         -2    1    1    2    0  503 -0.59893728784E+01  0.20111796425E+02  0.19825023941E+02  0.28868469256E+02  0.00000000000E+00 0.  1.
<mgrwt>
<rscale>  2 0.20984684E+02</rscale>
<asrwt>0</asrwt>
<pdfrwt beam="1">  1       21 0.77604091E-02 0.20984684E+02</pdfrwt>
<pdfrwt beam="2">  1       21 0.13446710E-02 0.20984684E+02</pdfrwt>
<totfact> 0.18811605E+08</totfact>
</mgrwt>
</event>
<event>
 4    1  0.7165636E+004  0.2076062E+02  0.7546771E-02  0.1730612E+00
         21   -1    0    0  501  502  0.00000000000E+00  0.00000000000E+00  0.80769460764E+00  0.80769460764E+00  0.00000000000E+00 0.  1.
         21   -1    0    0  502  503 -0.00000000000E+00 -0.00000000000E+00 -0.57299217703E+03  0.57299217703E+03  0.00000000000E+00 0.  1.
          3    1    1    2  501    0  0.62448917517E+01  0.19799108632E+02 -0.36129632113E+03  0.36189229757E+03  0.00000000000E+00 0.  1.
         -3    1    1    2    0  503 -0.62448917517E+01 -0.19799108632E+02 -0.21088816129E+03  0.21190757407E+03  0.00000000000E+00 0. -1.
<mgrwt>
<rscale>  2 0.20760621E+02</rscale>
<asrwt>0</asrwt>
<pdfrwt beam="1">  1       21 0.12426039E-03 0.20760621E+02</pdfrwt>
<pdfrwt beam="2">  1       21 0.88152867E-01 0.20760621E+02</pdfrwt>
<totfact> 0.74680748E+07</totfact>
</mgrwt>
</event>
<event>
 4    1  0.7165636E+004  0.3158982E+02  0.7546771E-02  0.1581152E+00
         21   -1    0    0  503  502  0.00000000000E+00  0.00000000000E+00  0.10826329842E+03  0.10826329842E+03  0.00000000000E+00 0.  1.
         21   -1    0    0  501  503 -0.00000000000E+00 -0.00000000000E+00 -0.92520933088E+01  0.92520933088E+01  0.00000000000E+00 0.  1.
          3    1    1    2  501    0  0.30509637363E+02 -0.81901535140E+01  0.45912562497E+02  0.55730422407E+02  0.00000000000E+00 0.  1.
         -3    1    1    2    0  502 -0.30509637363E+02  0.81901535140E+01  0.53098642616E+02  0.61784969323E+02  0.00000000000E+00 0. -1.
<mgrwt>
<rscale>  2 0.31589818E+02</rscale>
<asrwt>0</asrwt>
<pdfrwt beam="1">  1       21 0.16655891E-01 0.31589818E+02</pdfrwt>
<pdfrwt beam="2">  1       21 0.14233990E-02 0.31589818E+02</pdfrwt>
<totfact> 0.53398489E+07</totfact>
</mgrwt>
</event>
<event>
 4    1  0.7165636E+004  0.2272646E+02  0.7546771E-02  0.1695983E+00
         21   -1    0    0  501  502  0.00000000000E+00  0.00000000000E+00  0.16106606808E+03  0.16106606808E+03  0.00000000000E+00 0. -1.
         21   -1    0    0  502  503 -0.00000000000E+00 -0.00000000000E+00 -0.51096717637E+01  0.51096717637E+01  0.00000000000E+00 0. -1.
          4    1    1    2  501    0 -0.64817414034E+01 -0.21782538189E+02  0.27272552437E+02  0.35500479687E+02  0.00000000000E+00 0.  1.
         -4    1    1    2    0  503  0.64817414034E+01  0.21782538189E+02  0.12868384388E+03  0.13067526016E+03  0.00000000000E+00 0. -1.
<mgrwt>
<rscale>  2 0.22726459E+02</rscale>
<asrwt>0</asrwt>
<pdfrwt beam="1">  1       21 0.24779391E-01 0.22726459E+02</pdfrwt>
<pdfrwt beam="2">  1       21 0.78610347E-03 0.22726459E+02</pdfrwt>
<totfact> 0.60344981E+07</totfact>
</mgrwt>
</event>
<event>
 4    1  0.7165636E+004  0.2441079E+02  0.7546771E-02  0.1669612E+00
         21   -1    0    0  503  502  0.00000000000E+00  0.00000000000E+00  0.94990475681E+02  0.94990475681E+02  0.00000000000E+00 0. -1.
         21   -1    0    0  501  503 -0.00000000000E+00 -0.00000000000E+00 -0.65809371206E+01  0.65809371206E+01  0.00000000000E+00 0. -1.
          2    1    1    2  501    0  0.24505407114E+01 -0.24287473649E+02  0.33221163068E+02  0.41225382977E+02  0.00000000000E+00 0.  1.
         -2    1    1    2    0  502 -0.24505407114E+01  0.24287473649E+02  0.55188375493E+02  0.60346029825E+02  0.00000000000E+00 0. -1.
<mgrwt>
<rscale>  2 0.24410787E+02</rscale>
<asrwt>0</asrwt>
<pdfrwt beam="1">  1       21 0.14613918E-01 0.24410787E+02</pdfrwt>
<pdfrwt beam="2">  1       21 0.10124519E-02 0.24410787E+02</pdfrwt>
<totfact> 0.10550127E+08</totfact>
</mgrwt>
</event>
<event>
 4    1  0.7165636E+004  0.2091648E+02  0.7546771E-02  0.1727694E+00
         21   -1    0    0  503  502  0.00000000000E+00  0.00000000000E+00  0.80286329247E+02  0.80286329247E+02  0.00000000000E+00 0. -1.
         21   -1    0    0  501  503 -0.00000000000E+00 -0.00000000000E+00 -0.55194606372E+01  0.55194606372E+01  0.00000000000E+00 0. -1.
          1    1    1    2  501    0 -0.20807490561E+02 -0.21324839021E+01  0.42222741676E+02  0.47119625058E+02  0.00000000000E+00 0.  1.
         -1    1    1    2    0  502  0.20807490561E+02  0.21324839021E+01  0.32544126934E+02  0.38686164826E+02  0.00000000000E+00 0. -1.
<mgrwt>
<rscale>  2 0.20916480E+02</rscale>
<asrwt>0</asrwt>
<pdfrwt beam="1">  1       21 0.12351742E-01 0.20916480E+02</pdfrwt>
<pdfrwt beam="2">  1       21 0.84914785E-03 0.20916480E+02</pdfrwt>
<totfact> 0.17425338E+08</totfact>
</mgrwt>
</event>
<event>
 4    1  0.7165636E+004  0.2062670E+02  0.7546771E-02  0.1733145E+00
         21   -1    0    0  503  502  0.00000000000E+00  0.00000000000E+00  0.35935036363E+00  0.35935036363E+00  0.00000000000E+00 0. -1.
         21   -1    0    0  501  503 -0.00000000000E+00 -0.00000000000E+00 -0.12780856195E+04  0.12780856195E+04  0.00000000000E+00 0. -1.
          3    1    1    2  501    0 -0.21025185877E+01 -0.20519259851E+02 -0.81232313010E+03  0.81258496682E+03  0.00000000000E+00 0.  1.
         -3    1    1    2    0  502  0.21025185877E+01  0.20519259851E+02 -0.46540313901E+03  0.46586000302E+03  0.00000000000E+00 0. -1.
<mgrwt>
<rscale>  2 0.20626697E+02</rscale>
<asrwt>0</asrwt>
<pdfrwt beam="1">  1       21 0.55283952E-04 0.20626697E+02</pdfrwt>
<pdfrwt beam="2">  1       21 0.19663111E+00 0.20626697E+02</pdfrwt>
<totfact> 0.36909958E+07</totfact>
</mgrwt>
</event>
<event>
 4    1  0.7165636E+004  0.2450935E+02  0.7546771E-02  0.1668151E+00
         21   -1    0    0  501  502  0.00000000000E+00  0.00000000000E+00  0.12548261526E+02  0.12548261526E+02  0.00000000000E+00 0.  1.
         21   -1    0    0  502  503 -0.00000000000E+00 -0.00000000000E+00 -0.48143692688E+02  0.48143692688E+02  0.00000000000E+00 0.  1.
          3    1    1    2  501    0 -0.24406412975E+02 -0.22438986793E+01 -0.15517284989E+02  0.29008519594E+02  0.00000000000E+00 0. -1.
         -3    1    1    2    0  503  0.24406412975E+02  0.22438986793E+01 -0.20078146174E+02  0.31683434621E+02  0.00000000000E+00 0.  1.
<mgrwt>
<rscale>  2 0.24509347E+02</rscale>
<asrwt>0</asrwt>
<pdfrwt beam="1">  1       21 0.19305018E-02 0.24509347E+02</pdfrwt>
<pdfrwt beam="2">  1       21 0.74067219E-02 0.24509347E+02</pdfrwt>
<totfact> 0.12264133E+08</totfact>
</mgrwt>
</event>
<event>
 4    1  0.7165636E+004  0.2390471E+02  0.7546771E-02  0.1677251E+00
         21   -1    0    0  503  502  0.00000000000E+00  0.00000000000E+00  0.25713171088E+03  0.25713171088E+03  0.00000000000E+00 0.  1.
         21   -1    0    0  501  503 -0.00000000000E+00 -0.00000000000E+00 -0.22682128686E+01  0.22682128686E+01  0.00000000000E+00 0.  1.
          1    1    1    2  501    0  0.11331523744E+02 -0.21048323752E+02  0.14587563322E+03  0.14782129661E+03  0.00000000000E+00 0. -1.
         -1    1    1    2    0  502 -0.11331523744E+02  0.21048323752E+02  0.10898786479E+03  0.11157862714E+03  0.00000000000E+00 0.  1.
<mgrwt>
<rscale>  2 0.23904714E+02</rscale>
<asrwt>0</asrwt>
<pdfrwt beam="1">  1       21 0.39558702E-01 0.23904714E+02</pdfrwt>
<pdfrwt beam="2">  1       21 0.34895603E-03 0.23904714E+02</pdfrwt>
<totfact> 0.86219212E+07</totfact>
</mgrwt>
</event>
<event>
 4    1  0.7165636E+004  0.2262209E+02  0.7546771E-02  0.1697710E+00
         21   -1    0    0  503  502  0.00000000000E+00  0.00000000000E+00  0.15568623821E+02  0.15568623821E+02  0.00000000000E+00 0. -1.
         21   -1    0    0  501  503 -0.00000000000E+00 -0.00000000000E+00 -0.42214822572E+02  0.42214822572E+02  0.00000000000E+00 0. -1.
          3    1    1    2  501    0  0.21329955348E+02 -0.75360402768E+01  0.26939854551E+00  0.22623692753E+02  0.00000000000E+00 0.  1.
         -3    1    1    2    0  502 -0.21329955348E+02  0.75360402768E+01 -0.26915597297E+02  0.35159753640E+02  0.00000000000E+00 0. -1.
<mgrwt>
<rscale>  2 0.22622089E+02</rscale>
<asrwt>0</asrwt>
<pdfrwt beam="1">  1       21 0.23951729E-02 0.22622089E+02</pdfrwt>
<pdfrwt beam="2">  1       21 0.64945880E-02 0.22622089E+02</pdfrwt>
<totfact> 0.10636549E+08</totfact>
</mgrwt>
</event>
<event>
 4    1  0.7165636E+004  0.6708546E+02  0.7546771E-02  0.1370294E+00
         21   -1    0    0  501  502  0.00000000000E+00  0.00000000000E+00  0.22103549482E+03  0.22103549482E+03  0.00000000000E+00 0.  1.
         21   -1    0    0  502  503 -0.00000000000E+00 -0.00000000000E+00 -0.21011784151E+02  0.21011784151E+02  0.00000000000E+00 0.  1.
          5    1    1    2  501    0 -0.34070079264E+02  0.57790039455E+02  0.12131407059E+03  0.13862742400E+03  0.00000000000E+00 0. -1.
         -5    1    1    2    0  503  0.34070079264E+02 -0.57790039455E+02  0.78709640081E+02  0.10341985497E+03  0.00000000000E+00 0.  1.
<mgrwt>
<rscale>  2 0.67085460E+02</rscale>
<asrwt>0</asrwt>
<pdfrwt beam="1">  1       21 0.34005459E-01 0.67085460E+02</pdfrwt>
<pdfrwt beam="2">  1       21 0.32325823E-02 0.67085460E+02</pdfrwt>
<totfact> 0.44273319E+06</totfact>
</mgrwt>
</event>
<event>
 4    1  0.7165636E+004  0.5105846E+02  0.7546771E-02  0.1439715E+00
         21   -1    0    0  501  502  0.00000000000E+00  0.00000000000E+00  0.36335758477E+01  0.36335758477E+01  0.00000000000E+00 0.  1.
         21   -1    0    0  502  503 -0.00000000000E+00 -0.00000000000E+00 -0.71994530092E+03  0.71994530092E+03  0.00000000000E+00 0.  1.
          3    1    1    2  501    0  0.22561889689E+02 -0.45803138979E+02 -0.33692399634E+03  0.34077081113E+03  0.00000000000E+00 0.  1.
         -3    1    1    2    0  503 -0.22561889689E+02  0.45803138979E+02 -0.37938772873E+03  0.38280806564E+03  0.00000000000E+00 0. -1.
<mgrwt>
<rscale>  2 0.51058461E+02</rscale>
<asrwt>0</asrwt>
<pdfrwt beam="1">  1       21 0.55901162E-03 0.51058461E+02</pdfrwt>
<pdfrwt beam="2">  1       21 0.11076083E+00 0.51058461E+02</pdfrwt>
<totfact> 0.56854546E+06</totfact>
</mgrwt>
</event>
<event>
 4    1  0.7165636E+004  0.5105364E+02  0.7546771E-02  0.1439740E+00
         21   -1    0    0  501  502  0.00000000000E+00  0.00000000000E+00  0.90878856282E+02  0.90878856282E+02  0.00000000000E+00 0.  1.
         21   -1    0    0  502  503 -0.00000000000E+00 -0.00000000000E+00 -0.29828460002E+02  0.29828460002E+02  0.00000000000E+00 0.  1.
          3    1    1    2  501    0 -0.39925565797E+01 -0.50897280864E+02  0.42363907799E+02  0.66341347525E+02  0.00000000000E+00 0.  1.
         -3    1    1    2    0  503  0.39925565797E+01  0.50897280864E+02  0.18686488481E+02  0.54365968759E+02  0.00000000000E+00 0. -1.
<mgrwt>
<rscale>  2 0.51053636E+02</rscale>
<asrwt>0</asrwt>
<pdfrwt beam="1">  1       21 0.13981362E-01 0.51053636E+02</pdfrwt>
<pdfrwt beam="2">  1       21 0.45889939E-02 0.51053636E+02</pdfrwt>
<totfact> 0.12358185E+07</totfact>
</mgrwt>
</event>
<event>
 4    1  0.7165636E+004  0.2817253E+02  0.7546771E-02  0.1619214E+00
         21   -1    0    0  501  502  0.00000000000E+00  0.00000000000E+00  0.32707582921E+03  0.32707582921E+03  0.00000000000E+00 0.  1.
         21   -1    0    0  502  503 -0.00000000000E+00 -0.00000000000E+00 -0.26403491871E+01  0.26403491871E+01  0.00000000000E+00 0.  1.
          4    1    1    2  501    0  0.14833941385E+02 -0.23950898924E+02  0.20912103286E+03  0.21101018402E+03  0.00000000000E+00 0.  1.
         -4    1    1    2    0  503 -0.14833941385E+02  0.23950898924E+02  0.11531444717E+03  0.11870599438E+03  0.00000000000E+00 0. -1.
<mgrwt>
<rscale>  2 0.28172529E+02</rscale>
<asrwt>0</asrwt>
<pdfrwt beam="1">  1       21 0.50319326E-01 0.28172529E+02</pdfrwt>
<pdfrwt beam="2">  1       21 0.40620783E-03 0.28172529E+02</pdfrwt>
<totfact> 0.45071997E+07</totfact>
</mgrwt>
</event>
<event>
 4    1  0.7165636E+004  0.2378508E+02  0.7546771E-02  0.1679091E+00
         21   -1    0    0  503  502  0.00000000000E+00  0.00000000000E+00  0.29937858792E+03  0.29937858792E+03  0.00000000000E+00 0. -1.
         21   -1    0    0  501  503 -0.00000000000E+00 -0.00000000000E+00 -0.20493618774E+01  0.20493618774E+01  0.00000000000E+00 0. -1.
          2    1    1    2  501    0 -0.19145275931E+02 -0.14113406812E+02  0.19073451523E+03  0.19221182363E+03  0.00000000000E+00 0.  1.
         -2    1    1    2    0  502  0.19145275931E+02  0.14113406812E+02  0.10659471081E+03  0.10921612617E+03  0.00000000000E+00 0. -1.
<mgrwt>
<rscale>  2 0.23785076E+02</rscale>
<asrwt>0</asrwt>
<pdfrwt beam="1">  1       21 0.46058210E-01 0.23785076E+02</pdfrwt>
<pdfrwt beam="2">  1       21 0.31528668E-03 0.23785076E+02</pdfrwt>
<totfact> 0.74764064E+07</totfact>
</mgrwt>
</event>
<event>
 4    1  0.7165636E+004  0.2045146E+02  0.7546771E-02  0.1736497E+00
         21   -1    0    0  501  502  0.00000000000E+00  0.00000000000E+00  0.36167864038E+01  0.36167864038E+01  0.00000000000E+00 0.  1.
         21   -1    0    0  502  503 -0.00000000000E+00 -0.00000000000E+00 -0.11666774606E+03  0.11666774606E+03  0.00000000000E+00 0.  1.
          5    1    1    2  501    0 -0.20346373357E+02 -0.20705413151E+01 -0.62157439290E+02  0.65435535524E+02  0.00000000000E+00 0.  1.
         -5    1    1    2    0  503  0.20346373357E+02  0.20705413151E+01 -0.50893520370E+02  0.54848996945E+02  0.00000000000E+00 0. -1.
<mgrwt>
<rscale>  2 0.20451456E+02</rscale>
<asrwt>0</asrwt>
<pdfrwt beam="1">  1       21 0.55642864E-03 0.20451456E+02</pdfrwt>
<pdfrwt beam="2">  1       21 0.17948885E-01 0.20451456E+02</pdfrwt>
<totfact> 0.17183626E+08</totfact>
</mgrwt>
</event>
<event>
 4    1  0.7165636E+004  0.3533485E+02  0.7546771E-02  0.1545647E+00
         21   -1    0    0  503  502  0.00000000000E+00  0.00000000000E+00  0.30406855252E+02  0.30406855252E+02  0.00000000000E+00 0. -1.
         21   -1    0    0  501  503 -0.00000000000E+00 -0.00000000000E+00 -0.41400958951E+02  0.41400958951E+02  0.00000000000E+00 0. -1.
          4    1    1    2  501    0  0.87673802398E+01  0.34229876586E+02 -0.87481000079E+01  0.36401657395E+02  0.00000000000E+00 0. -1.
         -4    1    1    2    0  502 -0.87673802398E+01 -0.34229876586E+02 -0.22460036902E+01  0.35406156808E+02  0.00000000000E+00 0.  1.
<mgrwt>
<rscale>  2 0.35334847E+02</rscale>
<asrwt>0</asrwt>
<pdfrwt beam="1">  1       21 0.46779778E-02 0.35334847E+02</pdfrwt>
<pdfrwt beam="2">  1       21 0.63693783E-02 0.35334847E+02</pdfrwt>
<totfact> 0.42579726E+07</totfact>
</mgrwt>
</event>
<event>
 4    1  0.7165636E+004  0.2266144E+02  0.7546771E-02  0.1697058E+00
         21   -1    0    0  501  502  0.00000000000E+00  0.00000000000E+00  0.10943358079E+03  0.10943358079E+03  0.00000000000E+00 0. -1.
         21   -1    0    0  502  503 -0.00000000000E+00 -0.00000000000E+00 -0.95755709133E+01  0.95755709133E+01  0.00000000000E+00 0. -1.
          5    1    1    2  501    0  0.14314613686E+02  0.17567945618E+02  0.92420779570E+02  0.95158506580E+02  0.00000000000E+00 0.  1.
         -5    1    1    2    0  503 -0.14314613686E+02 -0.17567945618E+02  0.74372303086E+01  0.23850645125E+02  0.00000000000E+00 0. -1.
<mgrwt>
<rscale>  2 0.22661440E+02</rscale>
<asrwt>0</asrwt>
<pdfrwt beam="1">  1       21 0.16835935E-01 0.22661440E+02</pdfrwt>
<pdfrwt beam="2">  1       21 0.14731648E-02 0.22661440E+02</pdfrwt>
<totfact> 0.46056931E+07</totfact>
</mgrwt>
</event>
<event>
 4    1  0.7165636E+004  0.2410236E+02  0.7546771E-02  0.1674240E+00
         21   -1    0    0  503  502  0.00000000000E+00  0.00000000000E+00  0.25874396533E+01  0.25874396533E+01  0.00000000000E+00 0. -1.
         21   -1    0    0  501  503 -0.00000000000E+00 -0.00000000000E+00 -0.22801489226E+03  0.22801489226E+03  0.00000000000E+00 0. -1.
          5    1    1    2  501    0  0.22985938197E+02 -0.72505393540E+01 -0.98432430556E+02  0.10134035258E+03  0.00000000000E+00 0. -1.
         -5    1    1    2    0  502 -0.22985938197E+02  0.72505393540E+01 -0.12699502205E+03  0.12926197933E+03  0.00000000000E+00 0.  1.
<mgrwt>
<rscale>  2 0.24102358E+02</rscale>
<asrwt>0</asrwt>
<pdfrwt beam="1">  1       21 0.39806767E-03 0.24102358E+02</pdfrwt>
<pdfrwt beam="2">  1       21 0.35079212E-01 0.24102358E+02</pdfrwt>
<totfact> 0.89179680E+07</totfact>
</mgrwt>
</event>
<event>
 4    1  0.7165636E+004  0.2464747E+02  0.7546771E-02  0.1666118E+00
         21   -1    0    0  503  502  0.00000000000E+00  0.00000000000E+00  0.15730749263E+02  0.15730749263E+02  0.00000000000E+00 0.  1.
         21   -1    0    0  501  503 -0.00000000000E+00 -0.00000000000E+00 -0.39435821212E+02  0.39435821212E+02  0.00000000000E+00 0.  1.
          4    1    1    2  501    0  0.20271320032E+02  0.14020382291E+02 -0.78815004617E+01  0.25876931521E+02  0.00000000000E+00 0. -1.
         -4    1    1    2    0  502 -0.20271320032E+02 -0.14020382291E+02 -0.15823571487E+02  0.29289638954E+02  0.00000000000E+00 0.  1.
<mgrwt>
<rscale>  2 0.24647465E+02</rscale>
<asrwt>0</asrwt>
<pdfrwt beam="1">  1       21 0.24201153E-02 0.24647465E+02</pdfrwt>
<pdfrwt beam="2">  1       21 0.60670494E-02 0.24647465E+02</pdfrwt>
<totfact> 0.11975225E+08</totfact>
</mgrwt>
</event>
<event>
 4    1  0.7165636E+004  0.1048549E+03  0.7546771E-02  0.1270406E+00
         21   -1    0    0  503  502  0.00000000000E+00  0.00000000000E+00  0.13183244816E+02  0.13183244816E+02  0.00000000000E+00 0.  1.
         21   -1    0    0  501  503 -0.00000000000E+00 -0.00000000000E+00 -0.11590090401E+04  0.11590090401E+04  0.00000000000E+00 0.  1.
          2    1    1    2  501    0  0.10485295852E+03 -0.63908921179E+00 -0.88328816011E+03  0.88949003655E+03  0.00000000000E+00 0. -1.
         -2    1    1    2    0  502 -0.10485295852E+03  0.63908921179E+00 -0.26253763523E+03  0.28270224841E+03  0.00000000000E+00 0.  1.
<mgrwt>
<rscale>  2 0.10485491E+03</rscale>
<asrwt>0</asrwt>
<pdfrwt beam="1">  1       21 0.20281917E-02 0.10485491E+03</pdfrwt>
<pdfrwt beam="2">  1       21 0.17830907E+00 0.10485491E+03</pdfrwt>
<totfact> 0.23412558E+05</totfact>
</mgrwt>
</event>
<event>
 4    1  0.7165636E+004  0.3166383E+02  0.7546771E-02  0.1580393E+00
         21   -1    0    0  501  502  0.00000000000E+00  0.00000000000E+00  0.10460895198E+01  0.10460895198E+01  0.00000000000E+00 0.  1.
         21   -1    0    0  502  503 -0.00000000000E+00 -0.00000000000E+00 -0.96073759386E+03  0.96073759386E+03  0.00000000000E+00 0.  1.
          1    1    1    2  501    0  0.31522576806E+02 -0.29875322651E+01 -0.45625139154E+03  0.45734880615E+03  0.00000000000E+00 0. -1.
         -1    1    1    2    0  503 -0.31522576806E+02  0.29875322651E+01 -0.50344011280E+03  0.50443487723E+03  0.00000000000E+00 0.  1.
<mgrwt>
<rscale>  2 0.31663831E+02</rscale>
<asrwt>0</asrwt>
<pdfrwt beam="1">  1       21 0.16093692E-03 0.31663831E+02</pdfrwt>
<pdfrwt beam="2">  1       21 0.14780572E+00 0.31663831E+02</pdfrwt>
<totfact> 0.17358798E+07</totfact>
</mgrwt>
</event>
<event>
 4    1  0.7165636E+004  0.2368158E+02  0.7546771E-02  0.1680694E+00
         21   -1    0    0  501  502  0.00000000000E+00  0.00000000000E+00  0.18066735954E+03  0.18066735954E+03  0.00000000000E+00 0.  1.
         21   -1    0    0  502  503 -0.00000000000E+00 -0.00000000000E+00 -0.35708329973E+01  0.35708329973E+01  0.00000000000E+00 0.  1.
          5    1    1    2  501    0  0.18092882027E+02  0.15279561419E+02  0.12185092888E+03  0.12413084325E+03  0.00000000000E+00 0. -1.
         -5    1    1    2    0  503 -0.18092882027E+02 -0.15279561419E+02  0.55245597671E+02  0.60107349294E+02  0.00000000000E+00 0.  1.
<mgrwt>
<rscale>  2 0.23681583E+02</rscale>
<asrwt>0</asrwt>
<pdfrwt beam="1">  1       21 0.27794971E-01 0.23681583E+02</pdfrwt>
<pdfrwt beam="2">  1       21 0.54935906E-03 0.23681583E+02</pdfrwt>
<totfact> 0.84539109E+07</totfact>
</mgrwt>
</event>
<event>
 4    1  0.7165636E+004  0.2326507E+02  0.7546771E-02  0.1687249E+00
         21   -1    0    0  501  502  0.00000000000E+00  0.00000000000E+00  0.11843818473E+03  0.11843818473E+03  0.00000000000E+00 0. -1.
         21   -1    0    0  502  503 -0.00000000000E+00 -0.00000000000E+00 -0.59620349318E+01  0.59620349318E+01  0.00000000000E+00 0. -1.
          2    1    1    2  501    0 -0.22311058275E+02  0.65939443753E+01  0.86293145271E+02  0.89374327100E+02  0.00000000000E+00 0. -1.
         -2    1    1    2    0  503  0.22311058275E+02 -0.65939443753E+01  0.26183004530E+02  0.35025892565E+02  0.00000000000E+00 0.  1.
<mgrwt>
<rscale>  2 0.23265069E+02</rscale>
<asrwt>0</asrwt>
<pdfrwt beam="1">  1       21 0.18221257E-01 0.23265069E+02</pdfrwt>
<pdfrwt beam="2">  1       21 0.91723623E-03 0.23265069E+02</pdfrwt>
<totfact> 0.82692248E+07</totfact>
</mgrwt>
</event>
<event>
 4    1  0.7165636E+004  0.2182448E+02  0.7546771E-02  0.1711305E+00
         21   -1    0    0  503  502  0.00000000000E+00  0.00000000000E+00  0.39794656419E+00  0.39794656419E+00  0.00000000000E+00 0.  1.
         21   -1    0    0  501  503 -0.00000000000E+00 -0.00000000000E+00 -0.12136158693E+04  0.12136158693E+04  0.00000000000E+00 0.  1.
          5    1    1    2  501    0  0.10011429060E+02 -0.19392756879E+02 -0.53539940935E+03  0.53584404005E+03  0.00000000000E+00 0. -1.
         -5    1    1    2    0  502 -0.10011429060E+02  0.19392756879E+02 -0.67781851340E+03  0.67816977582E+03  0.00000000000E+00 0.  1.
<mgrwt>
<rscale>  2 0.21824476E+02</rscale>
<asrwt>0</asrwt>
<pdfrwt beam="1">  1       21 0.61223235E-04 0.21824476E+02</pdfrwt>
<pdfrwt beam="2">  1       21 0.18670804E+00 0.21824476E+02</pdfrwt>
<totfact> 0.36800048E+07</totfact>
</mgrwt>
</event>
<event>
 4    1  0.7165636E+004  0.2294357E+02  0.7546771E-02  0.1692427E+00
         21   -1    0    0  503  502  0.00000000000E+00  0.00000000000E+00  0.19746734497E+03  0.19746734497E+03  0.00000000000E+00 0.  1.
         21   -1    0    0  501  503 -0.00000000000E+00 -0.00000000000E+00 -0.28229823229E+01  0.28229823229E+01  0.00000000000E+00 0.  1.
          3    1    1    2  501    0 -0.48600454769E+01  0.22422916180E+02  0.12095341534E+03  0.12311025910E+03  0.00000000000E+00 0. -1.
         -3    1    1    2    0  502  0.48600454769E+01 -0.22422916180E+02  0.73690947310E+02  0.77180068200E+02  0.00000000000E+00 0.  1.
<mgrwt>
<rscale>  2 0.22943566E+02</rscale>
<asrwt>0</asrwt>
<pdfrwt beam="1">  1       21 0.30379581E-01 0.22943566E+02</pdfrwt>
<pdfrwt beam="2">  1       21 0.43430513E-03 0.22943566E+02</pdfrwt>
<totfact> 0.10089630E+08</totfact>
</mgrwt>
</event>
<event>
 4    1  0.7165636E+004  0.2129210E+02  0.7546771E-02  0.1720790E+00
         21   -1    0    0  501  502  0.00000000000E+00  0.00000000000E+00  0.12668096101E+03  0.12668096101E+03  0.00000000000E+00 0.  1.
         21   -1    0    0  502  503 -0.00000000000E+00 -0.00000000000E+00 -0.36260740845E+01  0.36260740845E+01  0.00000000000E+00 0.  1.
          1    1    1    2  501    0 -0.20128965232E+02  0.69410697503E+01  0.68974258603E+02  0.72185885327E+02  0.00000000000E+00 0. -1.
         -1    1    1    2    0  503  0.20128965232E+02 -0.69410697503E+01  0.54080628323E+02  0.58121149769E+02  0.00000000000E+00 0.  1.
<mgrwt>
<rscale>  2 0.21292104E+02</rscale>
<asrwt>0</asrwt>
<pdfrwt beam="1">  1       21 0.19489375E-01 0.21292104E+02</pdfrwt>
<pdfrwt beam="2">  1       21 0.55785765E-03 0.21292104E+02</pdfrwt>
<totfact> 0.15031091E+08</totfact>
</mgrwt>
</event>
<event>
 4    1  0.7165636E+004  0.2425518E+02  0.7546771E-02  0.1671936E+00
         21   -1    0    0  501  502  0.00000000000E+00  0.00000000000E+00  0.64307067240E+01  0.64307067240E+01  0.00000000000E+00 0. -1.
         21   -1    0    0  502  503 -0.00000000000E+00 -0.00000000000E+00 -0.91726659796E+02  0.91726659796E+02  0.00000000000E+00 0. -1.
          1    1    1    2  501    0  0.23160855151E+02 -0.72033606917E+01 -0.45166753692E+02  0.51267428799E+02  0.00000000000E+00 0.  1.
         -1    1    1    2    0  503 -0.23160855151E+02  0.72033606917E+01 -0.40129199380E+02  0.46889937721E+02  0.00000000000E+00 0. -1.
<mgrwt>
<rscale>  2 0.24255177E+02</rscale>
<asrwt>0</asrwt>
<pdfrwt beam="1">  1       21 0.98933955E-03 0.24255177E+02</pdfrwt>
<pdfrwt beam="2">  1       21 0.14111793E-01 0.24255177E+02</pdfrwt>
<totfact> 0.11571761E+08</totfact>
</mgrwt>
</event>
<event>
 4    1  0.7165636E+004  0.2289882E+02  0.7546771E-02  0.1693155E+00
         21   -1    0    0  503  502  0.00000000000E+00  0.00000000000E+00  0.13334023258E+01  0.13334023258E+01  0.00000000000E+00 0.  1.
         21   -1    0    0  501  503 -0.00000000000E+00 -0.00000000000E+00 -0.39325517342E+03  0.39325517342E+03  0.00000000000E+00 0.  1.
          4    1    1    2  501    0 -0.22447064662E+02  0.45260814318E+01 -0.19504753649E+03  0.19638711163E+03  0.00000000000E+00 0. -1.
         -4    1    1    2    0  502  0.22447064662E+02 -0.45260814318E+01 -0.19687423460E+03  0.19820146411E+03  0.00000000000E+00 0.  1.
<mgrwt>
<rscale>  2 0.22898824E+02</rscale>
<asrwt>0</asrwt>
<pdfrwt beam="1">  1       21 0.20513826E-03 0.22898824E+02</pdfrwt>
<pdfrwt beam="2">  1       21 0.60500960E-01 0.22898824E+02</pdfrwt>
<totfact> 0.80978988E+07</totfact>
</mgrwt>
</event>
<event>
 4    1  0.7165636E+004  0.2624213E+02  0.7546771E-02  0.1643776E+00
         21   -1    0    0  503  502  0.00000000000E+00  0.00000000000E+00  0.11521396990E+02  0.11521396990E+02  0.00000000000E+00 0.  1.
         21   -1    0    0  501  503 -0.00000000000E+00 -0.00000000000E+00 -0.59848795062E+02  0.59848795062E+02  0.00000000000E+00 0.  1.
          4    1    1    2  501    0  0.24903897214E+02 -0.82731650326E+01 -0.22879952260E+02  0.34815823579E+02  0.00000000000E+00 0. -1.
         -4    1    1    2    0  502 -0.24903897214E+02  0.82731650326E+01 -0.25447445812E+02  0.36554368473E+02  0.00000000000E+00 0.  1.
<mgrwt>
<rscale>  2 0.26242129E+02</rscale>
<asrwt>0</asrwt>
<pdfrwt beam="1">  1       21 0.17725226E-02 0.26242129E+02</pdfrwt>
<pdfrwt beam="2">  1       21 0.92075070E-02 0.26242129E+02</pdfrwt>
<totfact> 0.99627663E+07</totfact>
</mgrwt>
</event>
<event>
 4    1  0.7165636E+004  0.3482041E+02  0.7546771E-02  0.1550201E+00
         21   -1    0    0  503  502  0.00000000000E+00  0.00000000000E+00  0.11884301211E+02  0.11884301211E+02  0.00000000000E+00 0.  1.
         21   -1    0    0  501  503 -0.00000000000E+00 -0.00000000000E+00 -0.11522429665E+03  0.11522429665E+03  0.00000000000E+00 0.  1.
          1    1    1    2  501    0  0.29806190435E+02  0.18001436125E+02 -0.30157198033E+02  0.46064273401E+02  0.00000000000E+00 0.  1.
         -1    1    1    2    0  502 -0.29806190435E+02 -0.18001436125E+02 -0.73182797410E+02  0.81044324462E+02  0.00000000000E+00 0. -1.
<mgrwt>
<rscale>  2 0.34820406E+02</rscale>
<asrwt>0</asrwt>
<pdfrwt beam="1">  1       21 0.18283540E-02 0.34820406E+02</pdfrwt>
<pdfrwt beam="2">  1       21 0.17726815E-01 0.34820406E+02</pdfrwt>
<totfact> 0.33190016E+07</totfact>
</mgrwt>
</event>
<event>
 4    1  0.7165636E+004  0.2954845E+02  0.7546771E-02  0.1603134E+00
         21   -1    0    0  501  502  0.00000000000E+00  0.00000000000E+00  0.26533108880E+02  0.26533108880E+02  0.00000000000E+00 0. -1.
         21   -1    0    0  502  503 -0.00000000000E+00 -0.00000000000E+00 -0.40424690536E+02  0.40424690536E+02  0.00000000000E+00 0. -1.
          3    1    1    2  501    0 -0.95095898075E+01  0.27976396089E+02  0.74921501549E+01  0.30483493081E+02  0.00000000000E+00 0. -1.
         -3    1    1    2    0  503  0.95095898075E+01 -0.27976396089E+02 -0.21383731812E+02  0.36474306335E+02  0.00000000000E+00 0.  1.
<mgrwt>
<rscale>  2 0.29548452E+02</rscale>
<asrwt>0</asrwt>
<pdfrwt beam="1">  1       21 0.40820168E-02 0.29548452E+02</pdfrwt>
<pdfrwt beam="2">  1       21 0.62191832E-02 0.29548452E+02</pdfrwt>
<totfact> 0.53022311E+07</totfact>
</mgrwt>
</event>
<event>
 4    1  0.7165636E+004  0.2941578E+02  0.7546771E-02  0.1604638E+00
         21   -1    0    0  501  502  0.00000000000E+00  0.00000000000E+00  0.31704450725E+01  0.31704450725E+01  0.00000000000E+00 0. -1.
         21   -1    0    0  502  503 -0.00000000000E+00 -0.00000000000E+00 -0.27700887169E+03  0.27700887169E+03  0.00000000000E+00 0. -1.
          5    1    1    2  501    0  0.25931488156E+02 -0.13886895570E+02 -0.15393265240E+03  0.15671805710E+03  0.00000000000E+00 0. -1.
         -5    1    1    2    0  503 -0.25931488156E+02  0.13886895570E+02 -0.11990577422E+03  0.12346125967E+03  0.00000000000E+00 0.  1.
<mgrwt>
<rscale>  2 0.29415777E+02</rscale>
<asrwt>0</asrwt>
<pdfrwt beam="1">  1       21 0.48776055E-03 0.29415777E+02</pdfrwt>
<pdfrwt beam="2">  1       21 0.42616770E-01 0.29415777E+02</pdfrwt>
<totfact> 0.47879815E+07</totfact>
</mgrwt>
</event>
<event>
 4    1  0.7165636E+004  0.2311933E+02  0.7546771E-02  0.1689583E+00
         21   -1    0    0  501  502  0.00000000000E+00  0.00000000000E+00  0.49327153364E+02  0.49327153364E+02  0.00000000000E+00 0.  1.
         21   -1    0    0  502  503 -0.00000000000E+00 -0.00000000000E+00 -0.11623961551E+02  0.11623961551E+02  0.00000000000E+00 0.  1.
          2    1    1    2  501    0 -0.21939485686E+02  0.72912538211E+01  0.10916384870E+02  0.25566987955E+02  0.00000000000E+00 0.  1.
         -2    1    1    2    0  503  0.21939485686E+02 -0.72912538211E+01  0.26786806943E+02  0.35384126959E+02  0.00000000000E+00 0. -1.
<mgrwt>
<rscale>  2 0.23119330E+02</rscale>
<asrwt>0</asrwt>
<pdfrwt beam="1">  1       21 0.75887927E-02 0.23119330E+02</pdfrwt>
<pdfrwt beam="2">  1       21 0.17883018E-02 0.23119330E+02</pdfrwt>
<totfact> 0.13030670E+08</totfact>
</mgrwt>
</event>
<event>
 4    1  0.7165636E+004  0.2068874E+02  0.7546771E-02  0.1731969E+00
         21   -1    0    0  501  502  0.00000000000E+00  0.00000000000E+00  0.11818330717E+02  0.11818330717E+02  0.00000000000E+00 0. -1.
         21   -1    0    0  502  503 -0.00000000000E+00 -0.00000000000E+00 -0.40730293916E+02  0.40730293916E+02  0.00000000000E+00 0. -1.
          4    1    1    2  501    0  0.38156600988E+01 -0.20333832205E+02 -0.23202221526E+02  0.31086445244E+02  0.00000000000E+00 0. -1.
         -4    1    1    2    0  503 -0.38156600988E+01  0.20333832205E+02 -0.57097416729E+01  0.21462179389E+02  0.00000000000E+00 0.  1.
<mgrwt>
<rscale>  2 0.20688741E+02</rscale>
<asrwt>0</asrwt>
<pdfrwt beam="1">  1       21 0.18182047E-02 0.20688741E+02</pdfrwt>
<pdfrwt beam="2">  1       21 0.62661990E-02 0.20688741E+02</pdfrwt>
<totfact> 0.16732638E+08</totfact>
</mgrwt>
</event>
<event>
 4    1  0.7165636E+004  0.3112898E+02  0.7546771E-02  0.1585934E+00
         21   -1    0    0  503  502  0.00000000000E+00  0.00000000000E+00  0.30195741162E+02  0.30195741162E+02  0.00000000000E+00 0.  1.
         21   -1    0    0  501  503 -0.00000000000E+00 -0.00000000000E+00 -0.34973499552E+02  0.34973499552E+02  0.00000000000E+00 0.  1.
          5    1    1    2  501    0  0.25123365751E+02  0.18380144184E+02  0.69656849976E+01  0.31898808353E+02  0.00000000000E+00 0.  1.
         -5    1    1    2    0  502 -0.25123365751E+02 -0.18380144184E+02 -0.11743443388E+02  0.33270432361E+02  0.00000000000E+00 0. -1.
<mgrwt>
<rscale>  2 0.31128977E+02</rscale>
<asrwt>0</asrwt>
<pdfrwt beam="1">  1       21 0.46454986E-02 0.31128977E+02</pdfrwt>
<pdfrwt beam="2">  1       21 0.53805384E-02 0.31128977E+02</pdfrwt>
<totfact> 0.55154577E+07</totfact>
</mgrwt>
</event>
<event>
 4    1  0.7165636E+004  0.2007543E+02  0.7546771E-02  0.1743832E+00
         21   -1    0    0  503  502  0.00000000000E+00  0.00000000000E+00  0.42005648067E+02  0.42005648067E+02  0.00000000000E+00 0.  1.
         21   -1    0    0  501  503 -0.00000000000E+00 -0.00000000000E+00 -0.12823714742E+02  0.12823714742E+02  0.00000000000E+00 0.  1.
          3    1    1    2  501    0 -0.50300179300E+01  0.19435068562E+02  0.83392368150E+00  0.20092744937E+02  0.00000000000E+00 0. -1.
         -3    1    1    2    0  502  0.50300179300E+01 -0.19435068562E+02  0.28348009644E+02  0.34736617872E+02  0.00000000000E+00 0.  1.
<mgrwt>
<rscale>  2 0.20075432E+02</rscale>
<asrwt>0</asrwt>
<pdfrwt beam="1">  1       21 0.64624073E-02 0.20075432E+02</pdfrwt>
<pdfrwt beam="2">  1       21 0.19728792E-02 0.20075432E+02</pdfrwt>
<totfact> 0.13928501E+08</totfact>
</mgrwt>
</event>
<event>
 4    1  0.7165636E+004  0.4270327E+02  0.7546771E-02  0.1489211E+00
         21   -1    0    0  503  502  0.00000000000E+00  0.00000000000E+00  0.39928670163E+03  0.39928670163E+03  0.00000000000E+00 0.  1.
         21   -1    0    0  501  503 -0.00000000000E+00 -0.00000000000E+00 -0.53466876557E+01  0.53466876557E+01  0.00000000000E+00 0.  1.
          4    1    1    2  501    0  0.30514630145E+02 -0.29873516816E+02  0.27422571998E+03  0.27753074633E+03  0.00000000000E+00 0.  1.
         -4    1    1    2    0  502 -0.30514630145E+02  0.29873516816E+02  0.11971429399E+03  0.12710264295E+03  0.00000000000E+00 0. -1.
<mgrwt>
<rscale>  2 0.42703275E+02</rscale>
<asrwt>0</asrwt>
<pdfrwt beam="1">  1       21 0.61428700E-01 0.42703275E+02</pdfrwt>
<pdfrwt beam="2">  1       21 0.82256765E-03 0.42703275E+02</pdfrwt>
<totfact> 0.11205629E+07</totfact>
</mgrwt>
</event>
<event>
 4    1  0.7165636E+004  0.2638576E+02  0.7546771E-02  0.1641860E+00
         21   -1    0    0  501  502  0.00000000000E+00  0.00000000000E+00  0.12102118879E+01  0.12102118879E+01  0.00000000000E+00 0. -1.
         21   -1    0    0  502  503 -0.00000000000E+00 -0.00000000000E+00 -0.57528278662E+03  0.57528278662E+03  0.00000000000E+00 0. -1.
          4    1    1    2  501    0 -0.23345999273E+02  0.12295236009E+02 -0.28622195589E+03  0.28743558678E+03  0.00000000000E+00 0. -1.
         -4    1    1    2    0  503  0.23345999273E+02 -0.12295236009E+02 -0.28785061884E+03  0.28905741173E+03  0.00000000000E+00 0.  1.
<mgrwt>
<rscale>  2 0.26385763E+02</rscale>
<asrwt>0</asrwt>
<pdfrwt beam="1">  1       21 0.18618699E-03 0.26385763E+02</pdfrwt>
<pdfrwt beam="2">  1       21 0.88504786E-01 0.26385763E+02</pdfrwt>
<totfact> 0.43710381E+07</totfact>
</mgrwt>
</event>
<event>
 4    1  0.7165636E+004  0.2637909E+02  0.7546771E-02  0.1641949E+00
         21   -1    0    0  501  502  0.00000000000E+00  0.00000000000E+00  0.39714187730E+01  0.39714187730E+01  0.00000000000E+00 0.  1.
         21   -1    0    0  502  503 -0.00000000000E+00 -0.00000000000E+00 -0.20048196963E+03  0.20048196963E+03  0.00000000000E+00 0.  1.
          5    1    1    2  501    0 -0.97176920365E+01  0.24523926816E+02 -0.61964708969E+02  0.67345984903E+02  0.00000000000E+00 0.  1.
         -5    1    1    2    0  503  0.97176920365E+01 -0.24523926816E+02 -0.13454584188E+03  0.13710740350E+03  0.00000000000E+00 0. -1.
<mgrwt>
<rscale>  2 0.26379093E+02</rscale>
<asrwt>0</asrwt>
<pdfrwt beam="1">  1       21 0.61098761E-03 0.26379093E+02</pdfrwt>
<pdfrwt beam="2">  1       21 0.30843374E-01 0.26379093E+02</pdfrwt>
<totfact> 0.61327759E+07</totfact>
</mgrwt>
</event>
<event>
 4    1  0.7165636E+004  0.3641921E+02  0.7546771E-02  0.1536347E+00
         21   -1    0    0  501  502  0.00000000000E+00  0.00000000000E+00  0.10317361589E+02  0.10317361589E+02  0.00000000000E+00 0. -1.
         21   -1    0    0  502  503 -0.00000000000E+00 -0.00000000000E+00 -0.13219347589E+03  0.13219347589E+03  0.00000000000E+00 0. -1.
          2    1    1    2  501    0 -0.29636148856E+02 -0.21167377658E+02 -0.49118252774E+02  0.61147051863E+02  0.00000000000E+00 0. -1.
         -2    1    1    2    0  503  0.29636148856E+02  0.21167377658E+02 -0.72757861528E+02  0.81363785618E+02  0.00000000000E+00 0.  1.
<mgrwt>
<rscale>  2 0.36419215E+02</rscale>
<asrwt>0</asrwt>
<pdfrwt beam="1">  1       21 0.15872863E-02 0.36419215E+02</pdfrwt>
<pdfrwt beam="2">  1       21 0.20337459E-01 0.36419215E+02</pdfrwt>
<totfact> 0.32679156E+07</totfact>
</mgrwt>
</event>
<event>
 4    1  0.7165636E+004  0.2306919E+02  0.7546771E-02  0.1690391E+00
         21   -1    0    0  503  502  0.00000000000E+00  0.00000000000E+00  0.38820033069E+03  0.38820033069E+03  0.00000000000E+00 0.  1.
         21   -1    0    0  501  503 -0.00000000000E+00 -0.00000000000E+00 -0.13728108898E+01  0.13728108898E+01  0.00000000000E+00 0.  1.
          3    1    1    2  501    0 -0.18392257197E+02 -0.13925248304E+02  0.18616528058E+03  0.18758917708E+03  0.00000000000E+00 0.  1.
         -3    1    1    2    0  502  0.18392257197E+02  0.13925248304E+02  0.20066223922E+03  0.20198396450E+03  0.00000000000E+00 0. -1.
<mgrwt>
<rscale>  2 0.23069193E+02</rscale>
<asrwt>0</asrwt>
<pdfrwt beam="1">  1       21 0.59723040E-01 0.23069193E+02</pdfrwt>
<pdfrwt beam="2">  1       21 0.21120199E-03 0.23069193E+02</pdfrwt>
<totfact> 0.79822996E+07</totfact>
</mgrwt>
</event>
<event>
 4    1  0.7165636E+004  0.2614681E+02  0.7546771E-02  0.1645056E+00
         21   -1    0    0  501  502  0.00000000000E+00  0.00000000000E+00  0.42749778657E+01  0.42749778657E+01  0.00000000000E+00 0. -1.
         21   -1    0    0  502  503 -0.00000000000E+00 -0.00000000000E+00 -0.33464577466E+03  0.33464577466E+03  0.00000000000E+00 0. -1.
          2    1    1    2  501    0 -0.94276077117E+01  0.24388026040E+02 -0.42736847737E+02  0.50100835879E+02  0.00000000000E+00 0. -1.
         -2    1    1    2    0  503  0.94276077117E+01 -0.24388026040E+02 -0.28763394906E+03  0.28881991665E+03  0.00000000000E+00 0.  1.
<mgrwt>
<rscale>  2 0.26146809E+02</rscale>
<asrwt>0</asrwt>
<pdfrwt beam="1">  1       21 0.65768839E-03 0.26146809E+02</pdfrwt>
<pdfrwt beam="2">  1       21 0.51484006E-01 0.26146809E+02</pdfrwt>
<totfact> 0.20767464E+07</totfact>
</mgrwt>
</event>
<event>
 4    1  0.7165636E+004  0.2740186E+02  0.7546771E-02  0.1628721E+00
         21   -1    0    0  501  502  0.00000000000E+00  0.00000000000E+00  0.38408609234E+02  0.38408609234E+02  0.00000000000E+00 0.  1.
         21   -1    0    0  502  503 -0.00000000000E+00 -0.00000000000E+00 -0.19774021530E+02  0.19774021530E+02  0.00000000000E+00 0.  1.
          3    1    1    2  501    0  0.26383263593E+02  0.74017265422E+01  0.62161646935E+01  0.28098093478E+02  0.00000000000E+00 0. -1.
         -3    1    1    2    0  503 -0.26383263593E+02 -0.74017265422E+01  0.12418423011E+02  0.30084537286E+02  0.00000000000E+00 0.  1.
<mgrwt>
<rscale>  2 0.27401864E+02</rscale>
<asrwt>0</asrwt>
<pdfrwt beam="1">  1       21 0.59090168E-02 0.27401864E+02</pdfrwt>
<pdfrwt beam="2">  1       21 0.30421572E-02 0.27401864E+02</pdfrwt>
<totfact> 0.89984826E+07</totfact>
</mgrwt>
</event>
<event>
 4    1  0.7165636E+004  0.3760894E+02  0.7546771E-02  0.1526582E+00
         21   -1    0    0  501  502  0.00000000000E+00  0.00000000000E+00  0.13618907292E+02  0.13618907292E+02  0.00000000000E+00 0.  1.
         21   -1    0    0  502  503 -0.00000000000E+00 -0.00000000000E+00 -0.10597276698E+03  0.10597276698E+03  0.00000000000E+00 0.  1.
          2    1    1    2  501    0 -0.28386411337E+02 -0.24670710111E+02 -0.54624007521E+02  0.66319035605E+02  0.00000000000E+00 0. -1.
         -2    1    1    2    0  503  0.28386411337E+02  0.24670710111E+02 -0.37729852165E+02  0.53272638666E+02  0.00000000000E+00 0.  1.
<mgrwt>
<rscale>  2 0.37608939E+02</rscale>
<asrwt>0</asrwt>
<pdfrwt beam="1">  1       21 0.20952165E-02 0.37608939E+02</pdfrwt>
<pdfrwt beam="2">  1       21 0.16303502E-01 0.37608939E+02</pdfrwt>
<totfact> 0.31518057E+07</totfact>
</mgrwt>
</event>
<event>
 4    1  0.7165636E+004  0.2262975E+02  0.7546771E-02  0.1697583E+00
         21   -1    0    0  501  502  0.00000000000E+00  0.00000000000E+00  0.16666526988E+01  0.16666526988E+01  0.00000000000E+00 0.  1.
         21   -1    0    0  502  503 -0.00000000000E+00 -0.00000000000E+00 -0.60226386717E+03  0.60226386717E+03  0.00000000000E+00 0.  1.
          1    1    1    2  501    0  0.69420047488E+01 -0.21538671008E+02 -0.88962849968E+02  0.91795939197E+02  0.00000000000E+00 0.  1.
         -1    1    1    2    0  503 -0.69420047488E+01  0.21538671008E+02 -0.51163436450E+03  0.51213458067E+03  0.00000000000E+00 0. -1.
<mgrwt>
<rscale>  2 0.22629754E+02</rscale>
<asrwt>0</asrwt>
<pdfrwt beam="1">  1       21 0.25640802E-03 0.22629754E+02</pdfrwt>
<pdfrwt beam="2">  1       21 0.92656013E-01 0.22629754E+02</pdfrwt>
<totfact> 0.24157222E+07</totfact>
</mgrwt>
</event>
<event>
 4    1  0.7165636E+004  0.2306803E+02  0.7546771E-02  0.1690410E+00
         21   -1    0    0  501  502  0.00000000000E+00  0.00000000000E+00  0.90785638712E+02  0.90785638712E+02  0.00000000000E+00 0.  1.
         21   -1    0    0  502  503 -0.00000000000E+00 -0.00000000000E+00 -0.58636105902E+01  0.58636105902E+01  0.00000000000E+00 0.  1.
          4    1    1    2  501    0 -0.53663737887E+01  0.22435151311E+02  0.41529849510E+02  0.47506445693E+02  0.00000000000E+00 0.  1.
         -4    1    1    2    0  503  0.53663737887E+01 -0.22435151311E+02  0.43392178611E+02  0.49142803610E+02  0.00000000000E+00 0. -1.
<mgrwt>
<rscale>  2 0.23068029E+02</rscale>
<asrwt>0</asrwt>
<pdfrwt beam="1">  1       21 0.13967020E-01 0.23068029E+02</pdfrwt>
<pdfrwt beam="2">  1       21 0.90209400E-03 0.23068029E+02</pdfrwt>
<totfact> 0.13332651E+08</totfact>
</mgrwt>
</event>
<event>
 4    1  0.7165636E+004  0.2173970E+02  0.7546771E-02  0.1712793E+00
         21   -1    0    0  501  502  0.00000000000E+00  0.00000000000E+00  0.61514521772E+00  0.61514521772E+00  0.00000000000E+00 0.  1.
         21   -1    0    0  502  503 -0.00000000000E+00 -0.00000000000E+00 -0.78506782332E+03  0.78506782332E+03  0.00000000000E+00 0.  1.
          1    1    1    2  501    0  0.10489640104E+02 -0.19041584774E+02 -0.33481004458E+03  0.33551509720E+03  0.00000000000E+00 0. -1.
         -1    1    1    2    0  503 -0.10489640104E+02  0.19041584774E+02 -0.44964263352E+03  0.45016787134E+03  0.00000000000E+00 0.  1.
<mgrwt>
<rscale>  2 0.21739699E+02</rscale>
<asrwt>0</asrwt>
<pdfrwt beam="1">  1       21 0.94637835E-04 0.21739699E+02</pdfrwt>
<pdfrwt beam="2">  1       21 0.12077953E+00 0.21739699E+02</pdfrwt>
<totfact> 0.55772644E+07</totfact>
</mgrwt>
</event>
<event>
 4    1  0.7165636E+004  0.2723991E+02  0.7546771E-02  0.1630768E+00
         21   -1    0    0  503  502  0.00000000000E+00  0.00000000000E+00  0.32017682306E+00  0.32017682306E+00  0.00000000000E+00 0.  1.
         21   -1    0    0  501  503 -0.00000000000E+00 -0.00000000000E+00 -0.26921570288E+04  0.26921570288E+04  0.00000000000E+00 0.  1.
          3    1    1    2  501    0  0.26851594238E+02  0.45830681402E+01 -0.84371040095E+03  0.84415001824E+03  0.00000000000E+00 0. -1.
         -3    1    1    2    0  502 -0.26851594238E+02 -0.45830681402E+01 -0.18481264510E+04  0.18483271874E+04  0.00000000000E+00 0.  1.
<mgrwt>
<rscale>  2 0.27239909E+02</rscale>
<asrwt>0</asrwt>
<pdfrwt beam="1">  1       21 0.49259016E-04 0.27239909E+02</pdfrwt>
<pdfrwt beam="2">  1       21 0.41416923E+00 0.27239909E+02</pdfrwt>
<totfact> 0.34014292E+06</totfact>
</mgrwt>
</event>
<event>
 4    1  0.7165636E+004  0.2326677E+02  0.7546771E-02  0.1687222E+00
         21   -1    0    0  503  502  0.00000000000E+00  0.00000000000E+00  0.35202020426E+03  0.35202020426E+03  0.00000000000E+00 0.  1.
         21   -1    0    0  501  503 -0.00000000000E+00 -0.00000000000E+00 -0.15468983638E+01  0.15468983638E+01  0.00000000000E+00 0.  1.
          5    1    1    2  501    0  0.97977996759E+01 -0.21103219813E+02  0.18878165252E+03  0.19021002889E+03  0.00000000000E+00 0.  1.
         -5    1    1    2    0  502 -0.97977996759E+01  0.21103219813E+02  0.16169165338E+03  0.16335707373E+03  0.00000000000E+00 0. -1.
<mgrwt>
<rscale>  2 0.23266774E+02</rscale>
<asrwt>0</asrwt>
<pdfrwt beam="1">  1       21 0.54156891E-01 0.23266774E+02</pdfrwt>
<pdfrwt beam="2">  1       21 0.23798464E-03 0.23266774E+02</pdfrwt>
<totfact> 0.81698456E+07</totfact>
</mgrwt>
</event>
<event>
 4    1  0.7165636E+004  0.2396889E+02  0.7546771E-02  0.1676269E+00
         21   -1    0    0  501  502  0.00000000000E+00  0.00000000000E+00  0.55145942910E+02  0.55145942910E+02  0.00000000000E+00 0. -1.
         21   -1    0    0  502  503 -0.00000000000E+00 -0.00000000000E+00 -0.10627796598E+02  0.10627796598E+02  0.00000000000E+00 0. -1.
          2    1    1    2  501    0  0.11295253228E+02  0.21140604758E+02  0.26880194810E+02  0.36014619088E+02  0.00000000000E+00 0.  1.
         -2    1    1    2    0  503 -0.11295253228E+02 -0.21140604758E+02  0.17637951501E+02  0.29759120420E+02  0.00000000000E+00 0. -1.
<mgrwt>
<rscale>  2 0.23968895E+02</rscale>
<asrwt>0</asrwt>
<pdfrwt beam="1">  1       21 0.84839911E-02 0.23968895E+02</pdfrwt>
<pdfrwt beam="2">  1       21 0.16350457E-02 0.23968895E+02</pdfrwt>
<totfact> 0.12586925E+08</totfact>
</mgrwt>
</event>
<event>
 4    1  0.7165636E+004  0.2165272E+02  0.7546771E-02  0.1714328E+00
         21   -1    0    0  501  502  0.00000000000E+00  0.00000000000E+00  0.21817520643E+02  0.21817520643E+02  0.00000000000E+00 0. -1.
         21   -1    0    0  502  503 -0.00000000000E+00 -0.00000000000E+00 -0.23643821080E+02  0.23643821080E+02  0.00000000000E+00 0. -1.
          5    1    1    2  501    0 -0.18251399093E+02  0.11650189951E+02  0.59487042969E+01  0.22455012303E+02  0.00000000000E+00 0. -1.
         -5    1    1    2    0  503  0.18251399093E+02 -0.11650189951E+02 -0.77750047336E+01  0.23006329419E+02  0.00000000000E+00 0.  1.
<mgrwt>
<rscale>  2 0.21652725E+02</rscale>
<asrwt>0</asrwt>
<pdfrwt beam="1">  1       21 0.33565417E-02 0.21652725E+02</pdfrwt>
<pdfrwt beam="2">  1       21 0.36375109E-02 0.21652725E+02</pdfrwt>
<totfact> 0.15610203E+08</totfact>
</mgrwt>
</event>
<event>
 4    1  0.7165636E+004  0.2060755E+02  0.7546771E-02  0.1733509E+00
         21   -1    0    0  501  502  0.00000000000E+00  0.00000000000E+00  0.10273810457E+02  0.10273810457E+02  0.00000000000E+00 0.  1.
         21   -1    0    0  502  503 -0.00000000000E+00 -0.00000000000E+00 -0.87595248616E+02  0.87595248616E+02  0.00000000000E+00 0.  1.
          2    1    1    2  501    0 -0.10284477815E+02  0.17857794221E+02 -0.30994217527E+01  0.20839330929E+02  0.00000000000E+00 0. -1.
         -2    1    1    2    0  503  0.10284477815E+02 -0.17857794221E+02 -0.74222016407E+02  0.77029728144E+02  0.00000000000E+00 0.  1.
<mgrwt>
<rscale>  2 0.20607554E+02</rscale>
<asrwt>0</asrwt>
<pdfrwt beam="1">  1       21 0.15805863E-02 0.20607554E+02</pdfrwt>
<pdfrwt beam="2">  1       21 0.13476192E-01 0.20607554E+02</pdfrwt>
<totfact> 0.58936578E+07</totfact>
</mgrwt>
</event>
<event>
 4    1  0.7165636E+004  0.3568516E+02  0.7546771E-02  0.1542599E+00
         21   -1    0    0  503  502  0.00000000000E+00  0.00000000000E+00  0.64689507109E+02  0.64689507109E+02  0.00000000000E+00 0. -1.
         21   -1    0    0  501  503 -0.00000000000E+00 -0.00000000000E+00 -0.22071533177E+02  0.22071533177E+02  0.00000000000E+00 0. -1.
          5    1    1    2  501    0 -0.56655953515E+01  0.35232536037E+02  0.70451141110E+01  0.36373949457E+02  0.00000000000E+00 0. -1.
         -5    1    1    2    0  502  0.56655953515E+01 -0.35232536037E+02  0.35572859822E+02  0.50387090829E+02  0.00000000000E+00 0.  1.
<mgrwt>
<rscale>  2 0.35685159E+02</rscale>
<asrwt>0</asrwt>
<pdfrwt beam="1">  1       21 0.99522318E-02 0.35685159E+02</pdfrwt>
<pdfrwt beam="2">  1       21 0.33956205E-02 0.35685159E+02</pdfrwt>
<totfact> 0.33980826E+07</totfact>
</mgrwt>
</event>
<event>
 4    1  0.7165636E+004  0.2418615E+02  0.7546771E-02  0.1672974E+00
         21   -1    0    0  503  502  0.00000000000E+00  0.00000000000E+00  0.87451818308E+01  0.87451818308E+01  0.00000000000E+00 0. -1.
         21   -1    0    0  501  503 -0.00000000000E+00 -0.00000000000E+00 -0.10924469636E+03  0.10924469636E+03  0.00000000000E+00 0. -1.
          3    1    1    2  501    0 -0.15132454002E+02  0.18867391774E+02 -0.13516218464E+02  0.27706638158E+02  0.00000000000E+00 0. -1.
         -3    1    1    2    0  502  0.15132454002E+02 -0.18867391774E+02 -0.86983296066E+02  0.90283240033E+02  0.00000000000E+00 0.  1.
<mgrwt>
<rscale>  2 0.24186146E+02</rscale>
<asrwt>0</asrwt>
<pdfrwt beam="1">  1       21 0.13454125E-02 0.24186146E+02</pdfrwt>
<pdfrwt beam="2">  1       21 0.16806877E-01 0.24186146E+02</pdfrwt>
<totfact> 0.53895436E+07</totfact>
</mgrwt>
</event>
<event>
 4    1  0.7165636E+004  0.2049138E+02  0.7546771E-02  0.1735729E+00
         21   -1    0    0  501  502  0.00000000000E+00  0.00000000000E+00  0.33033808975E+02  0.33033808975E+02  0.00000000000E+00 0. -1.
         21   -1    0    0  502  503 -0.00000000000E+00 -0.00000000000E+00 -0.12760113454E+02  0.12760113454E+02  0.00000000000E+00 0. -1.
          3    1    1    2  501    0 -0.18184981404E+02 -0.94447352792E+01  0.87179929506E+01  0.22268811694E+02  0.00000000000E+00 0.  1.
         -3    1    1    2    0  503  0.18184981404E+02  0.94447352792E+01  0.11555702571E+02  0.23525110735E+02  0.00000000000E+00 0. -1.
<mgrwt>
<rscale>  2 0.20491378E+02</rscale>
<asrwt>0</asrwt>
<pdfrwt beam="1">  1       21 0.50821244E-02 0.20491378E+02</pdfrwt>
<pdfrwt beam="2">  1       21 0.19630944E-02 0.20491378E+02</pdfrwt>
<totfact> 0.20723198E+08</totfact>
</mgrwt>
</event>
<event>
 4    1  0.7165636E+004  0.2720038E+02  0.7546771E-02  0.1631270E+00
         21   -1    0    0  503  502  0.00000000000E+00  0.00000000000E+00  0.23409063755E+03  0.23409063755E+03  0.00000000000E+00 0. -1.
         21   -1    0    0  501  503 -0.00000000000E+00 -0.00000000000E+00 -0.32333273204E+01  0.32333273204E+01  0.00000000000E+00 0. -1.
          1    1    1    2  501    0 -0.86479739729E+01  0.25789012848E+02  0.97628859143E+02  0.10134719915E+03  0.00000000000E+00 0. -1.
         -1    1    1    2    0  502  0.86479739729E+01 -0.25789012848E+02  0.13322845109E+03  0.13597676572E+03  0.00000000000E+00 0.  1.
<mgrwt>
<rscale>  2 0.27200379E+02</rscale>
<asrwt>0</asrwt>
<pdfrwt beam="1">  1       21 0.36013931E-01 0.27200379E+02</pdfrwt>
<pdfrwt beam="2">  1       21 0.49743516E-03 0.27200379E+02</pdfrwt>
<totfact> 0.62899996E+07</totfact>
</mgrwt>
</event>
<event>
 4    1  0.7165636E+004  0.2415850E+02  0.7546771E-02  0.1673391E+00
         21   -1    0    0  503  502  0.00000000000E+00  0.00000000000E+00  0.12891962748E+02  0.12891962748E+02  0.00000000000E+00 0. -1.
         21   -1    0    0  501  503 -0.00000000000E+00 -0.00000000000E+00 -0.55106387889E+02  0.55106387889E+02  0.00000000000E+00 0. -1.
          1    1    1    2  501    0  0.21365222411E+02  0.11276547365E+02 -0.67436855578E+01  0.25082076151E+02  0.00000000000E+00 0.  1.
         -1    1    1    2    0  502 -0.21365222411E+02 -0.11276547365E+02 -0.35470739583E+02  0.42916274486E+02  0.00000000000E+00 0. -1.
<mgrwt>
<rscale>  2 0.24158503E+02</rscale>
<asrwt>0</asrwt>
<pdfrwt beam="1">  1       21 0.19833789E-02 0.24158503E+02</pdfrwt>
<pdfrwt beam="2">  1       21 0.84779059E-02 0.24158503E+02</pdfrwt>
<totfact> 0.93963197E+07</totfact>
</mgrwt>
</event>
<event>
 4    1  0.7165636E+004  0.3043028E+02  0.7546771E-02  0.1593381E+00
         21   -1    0    0  501  502  0.00000000000E+00  0.00000000000E+00  0.29156198740E+03  0.29156198740E+03  0.00000000000E+00 0. -1.
         21   -1    0    0  502  503 -0.00000000000E+00 -0.00000000000E+00 -0.36635403605E+01  0.36635403605E+01  0.00000000000E+00 0. -1.
          4    1    1    2  501    0  0.28764006904E+02  0.99314605170E+01  0.90100305203E+02  0.95100299678E+02  0.00000000000E+00 0.  1.
         -4    1    1    2    0  503 -0.28764006904E+02 -0.99314605170E+01  0.19779814184E+03  0.20012522808E+03  0.00000000000E+00 0. -1.
<mgrwt>
<rscale>  2 0.30430281E+02</rscale>
<asrwt>0</asrwt>
<pdfrwt beam="1">  1       21 0.44855672E-01 0.30430281E+02</pdfrwt>
<pdfrwt beam="2">  1       21 0.56362182E-03 0.30430281E+02</pdfrwt>
<totfact> 0.35207560E+07</totfact>
</mgrwt>
</event>
<event>
 4    1  0.7165636E+004  0.2346100E+02  0.7546771E-02  0.1684145E+00
         21   -1    0    0  503  502  0.00000000000E+00  0.00000000000E+00  0.27899540908E+03  0.27899540908E+03  0.00000000000E+00 0.  1.
         21   -1    0    0  501  503 -0.00000000000E+00 -0.00000000000E+00 -0.19746985987E+01  0.19746985987E+01  0.00000000000E+00 0.  1.
          3    1    1    2  501    0 -0.18186866089E+02  0.14820818214E+02  0.13422310242E+03  0.13625806389E+03  0.00000000000E+00 0. -1.
         -3    1    1    2    0  502  0.18186866089E+02 -0.14820818214E+02  0.14279760805E+03  0.14471204379E+03  0.00000000000E+00 0.  1.
<mgrwt>
<rscale>  2 0.23461005E+02</rscale>
<asrwt>0</asrwt>
<pdfrwt beam="1">  1       21 0.42922340E-01 0.23461005E+02</pdfrwt>
<pdfrwt beam="2">  1       21 0.30380000E-03 0.23461005E+02</pdfrwt>
<totfact> 0.90016068E+07</totfact>
</mgrwt>
</event>
<event>
 4    1  0.7165636E+004  0.3594739E+02  0.7546771E-02  0.1540345E+00
         21   -1    0    0  501  502  0.00000000000E+00  0.00000000000E+00  0.44984526812E+03  0.44984526812E+03  0.00000000000E+00 0.  1.
         21   -1    0    0  502  503 -0.00000000000E+00 -0.00000000000E+00 -0.30078705548E+01  0.30078705548E+01  0.00000000000E+00 0.  1.
          1    1    1    2  501    0  0.32822947011E+02  0.14658412466E+02  0.27144037468E+03  0.27381032105E+03  0.00000000000E+00 0. -1.
         -1    1    1    2    0  503 -0.32822947011E+02 -0.14658412466E+02  0.17539702289E+03  0.17904281763E+03  0.00000000000E+00 0.  1.
<mgrwt>
<rscale>  2 0.35947391E+02</rscale>
<asrwt>0</asrwt>
<pdfrwt beam="1">  1       21 0.69206911E-01 0.35947391E+02</pdfrwt>
<pdfrwt beam="2">  1       21 0.46274967E-03 0.35947391E+02</pdfrwt>
<totfact> 0.20362051E+07</totfact>
</mgrwt>
</event>
<event>
 4    1  0.7165636E+004  0.2311822E+02  0.7546771E-02  0.1689601E+00
         21   -1    0    0  501  502  0.00000000000E+00  0.00000000000E+00  0.17589735514E+03  0.17589735514E+03  0.00000000000E+00 0.  1.
         21   -1    0    0  502  503 -0.00000000000E+00 -0.00000000000E+00 -0.38321371251E+01  0.38321371251E+01  0.00000000000E+00 0.  1.
          2    1    1    2  501    0 -0.86054407178E+01 -0.21456902387E+02  0.45134969648E+02  0.50711120626E+02  0.00000000000E+00 0. -1.
         -2    1    1    2    0  503  0.86054407178E+01  0.21456902387E+02  0.12693024836E+03  0.12901837164E+03  0.00000000000E+00 0.  1.
<mgrwt>
<rscale>  2 0.23118224E+02</rscale>
<asrwt>0</asrwt>
<pdfrwt beam="1">  1       21 0.27061125E-01 0.23118224E+02</pdfrwt>
<pdfrwt beam="2">  1       21 0.58955970E-03 0.23118224E+02</pdfrwt>
<totfact> 0.79403822E+07</totfact>
</mgrwt>
</event>
<event>
 4    1  0.7165636E+004  0.2157950E+02  0.7546771E-02  0.1715627E+00
         21   -1    0    0  503  502  0.00000000000E+00  0.00000000000E+00  0.25286243268E+03  0.25286243268E+03  0.00000000000E+00 0. -1.
         21   -1    0    0  501  503 -0.00000000000E+00 -0.00000000000E+00 -0.18682249464E+01  0.18682249464E+01  0.00000000000E+00 0. -1.
          2    1    1    2  501    0 -0.28004872300E+01  0.21397012473E+02  0.14069805699E+03  0.14234331074E+03  0.00000000000E+00 0. -1.
         -2    1    1    2    0  502  0.28004872300E+01 -0.21397012473E+02  0.11029615075E+03  0.11238734689E+03  0.00000000000E+00 0.  1.
<mgrwt>
<rscale>  2 0.21579501E+02</rscale>
<asrwt>0</asrwt>
<pdfrwt beam="1">  1       21 0.38901886E-01 0.21579501E+02</pdfrwt>
<pdfrwt beam="2">  1       21 0.28741942E-03 0.21579501E+02</pdfrwt>
<totfact> 0.11490622E+08</totfact>
</mgrwt>
</event>
<event>
 4    1  0.7165636E+004  0.2166532E+02  0.7546771E-02  0.1714105E+00
         21   -1    0    0  503  502  0.00000000000E+00  0.00000000000E+00  0.82033494833E+01  0.82033494833E+01  0.00000000000E+00 0.  1.
         21   -1    0    0  501  503 -0.00000000000E+00 -0.00000000000E+00 -0.57309101135E+02  0.57309101135E+02  0.00000000000E+00 0.  1.
          1    1    1    2  501    0  0.14355616050E+02 -0.16226590645E+02 -0.23252745723E+02  0.31781695043E+02  0.00000000000E+00 0. -1.
         -1    1    1    2    0  502 -0.14355616050E+02  0.16226590645E+02 -0.25853005928E+02  0.33730755575E+02  0.00000000000E+00 0.  1.
<mgrwt>
<rscale>  2 0.21665317E+02</rscale>
<asrwt>0</asrwt>
<pdfrwt beam="1">  1       21 0.12620537E-02 0.21665317E+02</pdfrwt>
<pdfrwt beam="2">  1       21 0.88167850E-02 0.21665317E+02</pdfrwt>
<totfact> 0.16982375E+08</totfact>
</mgrwt>
</event>
<event>
 4    1  0.7165636E+004  0.2507188E+02  0.7546771E-02  0.1659972E+00
         21   -1    0    0  503  502  0.00000000000E+00  0.00000000000E+00  0.17750611062E+02  0.17750611062E+02  0.00000000000E+00 0. -1.
         21   -1    0    0  501  503 -0.00000000000E+00 -0.00000000000E+00 -0.35512437241E+02  0.35512437241E+02  0.00000000000E+00 0. -1.
          4    1    1    2  501    0 -0.18498543150E+02  0.16923442733E+02 -0.74703407366E+01  0.26161135360E+02  0.00000000000E+00 0. -1.
         -4    1    1    2    0  502  0.18498543150E+02 -0.16923442733E+02 -0.10291485442E+02  0.27101912944E+02  0.00000000000E+00 0.  1.
<mgrwt>
<rscale>  2 0.25071877E+02</rscale>
<asrwt>0</asrwt>
<pdfrwt beam="1">  1       21 0.27308633E-02 0.25071877E+02</pdfrwt>
<pdfrwt beam="2">  1       21 0.54634519E-02 0.25071877E+02</pdfrwt>
<totfact> 0.11803769E+08</totfact>
</mgrwt>
</event>
<event>
 4    1  0.7165636E+004  0.2012420E+02  0.7546771E-02  0.1742869E+00
         21   -1    0    0  503  502  0.00000000000E+00  0.00000000000E+00  0.17262119650E+01  0.17262119650E+01  0.00000000000E+00 0.  1.
         21   -1    0    0  501  503 -0.00000000000E+00 -0.00000000000E+00 -0.53552565142E+03  0.53552565142E+03  0.00000000000E+00 0.  1.
          4    1    1    2  501    0 -0.19999718912E+02 -0.22349050601E+01 -0.46826354450E+03  0.46869577624E+03  0.00000000000E+00 0. -1.
         -4    1    1    2    0  502  0.19999718912E+02  0.22349050601E+01 -0.65535894963E+02  0.68556087153E+02  0.00000000000E+00 0.  1.
<mgrwt>
<rscale>  2 0.20124203E+02</rscale>
<asrwt>0</asrwt>
<pdfrwt beam="1">  1       21 0.26557052E-03 0.20124203E+02</pdfrwt>
<pdfrwt beam="2">  1       21 0.82388734E-01 0.20124203E+02</pdfrwt>
<totfact> 0.28745392E+07</totfact>
</mgrwt>
</event>
<event>
 4    1  0.7165636E+004  0.4106455E+02  0.7546771E-02  0.1500521E+00
         21   -1    0    0  503  502  0.00000000000E+00  0.00000000000E+00  0.54998129374E+02  0.54998129374E+02  0.00000000000E+00 0.  1.
         21   -1    0    0  501  503 -0.00000000000E+00 -0.00000000000E+00 -0.30680852144E+02  0.30680852144E+02  0.00000000000E+00 0.  1.
          3    1    1    2  501    0  0.38569771216E+02  0.14095024753E+02  0.13248691475E+02  0.43148867891E+02  0.00000000000E+00 0.  1.
         -3    1    1    2    0  502 -0.38569771216E+02 -0.14095024753E+02  0.11068585755E+02  0.42530113626E+02  0.00000000000E+00 0. -1.
<mgrwt>
<rscale>  2 0.41064546E+02</rscale>
<asrwt>0</asrwt>
<pdfrwt beam="1">  1       21 0.84612507E-02 0.41064546E+02</pdfrwt>
<pdfrwt beam="2">  1       21 0.47201311E-02 0.41064546E+02</pdfrwt>
<totfact> 0.26955234E+07</totfact>
</mgrwt>
</event>
<event>
 4    1  0.7165636E+004  0.2013415E+02  0.7546771E-02  0.1742673E+00
         21   -1    0    0  501  502  0.00000000000E+00  0.00000000000E+00  0.10115058626E+03  0.10115058626E+03  0.00000000000E+00 0.  1.
         21   -1    0    0  502  503 -0.00000000000E+00 -0.00000000000E+00 -0.43541289428E+01  0.43541289428E+01  0.00000000000E+00 0.  1.
          3    1    1    2  501    0  0.19479773376E+02  0.50913996002E+01  0.63277493805E+02  0.66403502490E+02  0.00000000000E+00 0.  1.
         -3    1    1    2    0  503 -0.19479773376E+02 -0.50913996002E+01  0.33518963512E+02  0.39101212713E+02  0.00000000000E+00 0. -1.
<mgrwt>
<rscale>  2 0.20134148E+02</rscale>
<asrwt>0</asrwt>
<pdfrwt beam="1">  1       21 0.15561627E-01 0.20134148E+02</pdfrwt>
<pdfrwt beam="2">  1       21 0.66986607E-03 0.20134148E+02</pdfrwt>
<totfact> 0.16594313E+08</totfact>
</mgrwt>
</event>
<event>
 4    1  0.7165636E+004  0.2820051E+02  0.7546771E-02  0.1618876E+00
         21   -1    0    0  503  502  0.00000000000E+00  0.00000000000E+00  0.11933653371E+01  0.11933653371E+01  0.00000000000E+00 0. -1.
         21   -1    0    0  501  503 -0.00000000000E+00 -0.00000000000E+00 -0.66705466293E+03  0.66705466293E+03  0.00000000000E+00 0. -1.
          5    1    1    2  501    0  0.13416626295E+01  0.28168579525E+02 -0.32253235052E+03  0.32376285467E+03  0.00000000000E+00 0.  1.
         -5    1    1    2    0  502 -0.13416626295E+01 -0.28168579525E+02 -0.34332894707E+03  0.34448517360E+03  0.00000000000E+00 0. -1.
<mgrwt>
<rscale>  2 0.28200513E+02</rscale>
<asrwt>0</asrwt>
<pdfrwt beam="1">  1       21 0.18359495E-03 0.28200513E+02</pdfrwt>
<pdfrwt beam="2">  1       21 0.10262363E+00 0.28200513E+02</pdfrwt>
<totfact> 0.32698511E+07</totfact>
</mgrwt>
</event>
<event>
 4    1  0.7165636E+004  0.2238546E+02  0.7546771E-02  0.1701670E+00
         21   -1    0    0  503  502  0.00000000000E+00  0.00000000000E+00  0.10854679637E+04  0.10854679637E+04  0.00000000000E+00 0.  1.
         21   -1    0    0  501  503 -0.00000000000E+00 -0.00000000000E+00 -0.47327291943E+00  0.47327291943E+00  0.00000000000E+00 0.  1.
          5    1    1    2  501    0  0.16165096635E+02 -0.15485434083E+02  0.45741664056E+03  0.45796407291E+03  0.00000000000E+00 0.  1.
         -5    1    1    2    0  502 -0.16165096635E+02  0.15485434083E+02  0.62757805018E+03  0.62797716367E+03  0.00000000000E+00 0. -1.
<mgrwt>
<rscale>  2 0.22385464E+02</rscale>
<asrwt>0</asrwt>
<pdfrwt beam="1">  1       21 0.16699308E+00 0.22385464E+02</pdfrwt>
<pdfrwt beam="2">  1       21 0.72812087E-04 0.22385464E+02</pdfrwt>
<totfact> 0.38116912E+07</totfact>
</mgrwt>
</event>
<event>
 4    1  0.7165636E+004  0.4437411E+02  0.7546771E-02  0.1478287E+00
         21   -1    0    0  501  502  0.00000000000E+00  0.00000000000E+00  0.33242563937E+02  0.33242563937E+02  0.00000000000E+00 0.  1.
         21   -1    0    0  502  503 -0.00000000000E+00 -0.00000000000E+00 -0.59841156241E+02  0.59841156241E+02  0.00000000000E+00 0.  1.
          4    1    1    2  501    0  0.12541570676E+00  0.44373935189E+02 -0.86079558464E+01  0.45201313666E+02  0.00000000000E+00 0.  1.
         -4    1    1    2    0  503 -0.12541570676E+00 -0.44373935189E+02 -0.17990636457E+02  0.47882406512E+02  0.00000000000E+00 0. -1.
<mgrwt>
<rscale>  2 0.44374112E+02</rscale>
<asrwt>0</asrwt>
<pdfrwt beam="1">  1       21 0.51142407E-02 0.44374112E+02</pdfrwt>
<pdfrwt beam="2">  1       21 0.92063316E-02 0.44374112E+02</pdfrwt>
<totfact> 0.20789846E+07</totfact>
</mgrwt>
</event>
<event>
 4    1  0.7165636E+004  0.3545833E+02  0.7546771E-02  0.1544568E+00
         21   -1    0    0  501  502  0.00000000000E+00  0.00000000000E+00  0.10629899328E+02  0.10629899328E+02  0.00000000000E+00 0.  1.
         21   -1    0    0  502  503 -0.00000000000E+00 -0.00000000000E+00 -0.11936659361E+03  0.11936659361E+03  0.00000000000E+00 0.  1.
          2    1    1    2  501    0 -0.72551061795E+01 -0.34708166339E+02 -0.48163905573E+02  0.59808487494E+02  0.00000000000E+00 0.  1.
         -2    1    1    2    0  503  0.72551061795E+01  0.34708166339E+02 -0.60572788709E+02  0.70188005444E+02  0.00000000000E+00 0. -1.
<mgrwt>
<rscale>  2 0.35458333E+02</rscale>
<asrwt>0</asrwt>
<pdfrwt beam="1">  1       21 0.16353691E-02 0.35458333E+02</pdfrwt>
<pdfrwt beam="2">  1       21 0.18364092E-01 0.35458333E+02</pdfrwt>
<totfact> 0.37206992E+07</totfact>
</mgrwt>
</event>
<event>
 4    1  0.7165636E+004  0.2481519E+02  0.7546771E-02  0.1663671E+00
         21   -1    0    0  501  502  0.00000000000E+00  0.00000000000E+00  0.25181517992E+02  0.25181517992E+02  0.00000000000E+00 0. -1.
         21   -1    0    0  502  503 -0.00000000000E+00 -0.00000000000E+00 -0.24462410860E+02  0.24462410860E+02  0.00000000000E+00 0. -1.
          3    1    1    2  501    0  0.16596042061E+02  0.18448989047E+02  0.81438723827E+00  0.24828552828E+02  0.00000000000E+00 0. -1.
         -3    1    1    2    0  503 -0.16596042061E+02 -0.18448989047E+02 -0.95280106331E-01  0.24815376024E+02  0.00000000000E+00 0.  1.
<mgrwt>
<rscale>  2 0.24815193E+02</rscale>
<asrwt>0</asrwt>
<pdfrwt beam="1">  1       21 0.38740797E-02 0.24815193E+02</pdfrwt>
<pdfrwt beam="2">  1       21 0.37634478E-02 0.24815193E+02</pdfrwt>
<totfact> 0.12307350E+08</totfact>
</mgrwt>
</event>
<event>
 4    1  0.7165636E+004  0.2629270E+02  0.7546771E-02  0.1643100E+00
         21   -1    0    0  501  502  0.00000000000E+00  0.00000000000E+00  0.89593821698E+01  0.89593821698E+01  0.00000000000E+00 0.  1.
         21   -1    0    0  502  503 -0.00000000000E+00 -0.00000000000E+00 -0.88152707708E+02  0.88152707708E+02  0.00000000000E+00 0.  1.
          2    1    1    2  501    0 -0.25670022466E+02 -0.56882549032E+01 -0.56743222745E+02  0.62538784964E+02  0.00000000000E+00 0.  1.
         -2    1    1    2    0  503  0.25670022466E+02  0.56882549032E+01 -0.22450102793E+02  0.34573304914E+02  0.00000000000E+00 0. -1.
<mgrwt>
<rscale>  2 0.26292704E+02</rscale>
<asrwt>0</asrwt>
<pdfrwt beam="1">  1       21 0.13783665E-02 0.26292704E+02</pdfrwt>
<pdfrwt beam="2">  1       21 0.13561955E-01 0.26292704E+02</pdfrwt>
<totfact> 0.76525239E+07</totfact>
</mgrwt>
</event>
<event>
 4    1  0.7165636E+004  0.2383109E+02  0.7546771E-02  0.1678382E+00
         21   -1    0    0  503  502  0.00000000000E+00  0.00000000000E+00  0.16505923003E+02  0.16505923003E+02  0.00000000000E+00 0.  1.
         21   -1    0    0  501  503 -0.00000000000E+00 -0.00000000000E+00 -0.39234996316E+02  0.39234996316E+02  0.00000000000E+00 0.  1.
          2    1    1    2  501    0 -0.12156967720E+02  0.20497043917E+02 -0.21141118181E+02  0.31856985913E+02  0.00000000000E+00 0.  1.
         -2    1    1    2    0  502  0.12156967720E+02 -0.20497043917E+02 -0.15879551309E+01  0.23883933407E+02  0.00000000000E+00 0. -1.
<mgrwt>
<rscale>  2 0.23831086E+02</rscale>
<asrwt>0</asrwt>
<pdfrwt beam="1">  1       21 0.25393728E-02 0.23831086E+02</pdfrwt>
<pdfrwt beam="2">  1       21 0.60361532E-02 0.23831086E+02</pdfrwt>
<totfact> 0.11099792E+08</totfact>
</mgrwt>
</event>
<event>
 4    1  0.7165636E+004  0.3329190E+02  0.7546771E-02  0.1564314E+00
         21   -1    0    0  501  502  0.00000000000E+00  0.00000000000E+00  0.43103404395E+01  0.43103404395E+01  0.00000000000E+00 0. -1.
         21   -1    0    0  502  503 -0.00000000000E+00 -0.00000000000E+00 -0.25730269745E+03  0.25730269745E+03  0.00000000000E+00 0. -1.
          3    1    1    2  501    0  0.21341546098E+01 -0.33223426169E+02 -0.12980945058E+03  0.13401061198E+03  0.00000000000E+00 0.  1.
         -3    1    1    2    0  503 -0.21341546098E+01  0.33223426169E+02 -0.12318290643E+03  0.12760242591E+03  0.00000000000E+00 0. -1.
<mgrwt>
<rscale>  2 0.33291901E+02</rscale>
<asrwt>0</asrwt>
<pdfrwt beam="1">  1       21 0.66312912E-03 0.33291901E+02</pdfrwt>
<pdfrwt beam="2">  1       21 0.39585041E-01 0.33291901E+02</pdfrwt>
<totfact> 0.35691141E+07</totfact>
</mgrwt>
</event>
<event>
 4    1  0.7165636E+004  0.2155072E+02  0.7546771E-02  0.1716140E+00
         21   -1    0    0  503  502  0.00000000000E+00  0.00000000000E+00  0.66391502619E+00  0.66391502619E+00  0.00000000000E+00 0. -1.
         21   -1    0    0  501  503 -0.00000000000E+00 -0.00000000000E+00 -0.11395008614E+04  0.11395008614E+04  0.00000000000E+00 0. -1.
          4    1    1    2  501    0  0.13714757819E+02  0.16623450511E+02 -0.21518599351E+03  0.21626244587E+03  0.00000000000E+00 0. -1.
         -4    1    1    2    0  502 -0.13714757819E+02 -0.16623450511E+02 -0.92365095284E+03  0.92390233054E+03  0.00000000000E+00 0.  1.
<mgrwt>
<rscale>  2 0.21550724E+02</rscale>
<asrwt>0</asrwt>
<pdfrwt beam="1">  1       21 0.10214167E-03 0.21550724E+02</pdfrwt>
<pdfrwt beam="2">  1       21 0.17530629E+00 0.21550724E+02</pdfrwt>
<totfact> 0.20808751E+07</totfact>
</mgrwt>
</event>
<event>
 4    1  0.7165636E+004  0.2363687E+02  0.7546771E-02  0.1681390E+00
         21   -1    0    0  501  502  0.00000000000E+00  0.00000000000E+00  0.27091586677E+02  0.27091586677E+02  0.00000000000E+00 0. -1.
         21   -1    0    0  502  503 -0.00000000000E+00 -0.00000000000E+00 -0.22236299714E+02  0.22236299714E+02  0.00000000000E+00 0. -1.
          2    1    1    2  501    0 -0.18227640045E+02  0.15048414796E+02  0.90716374738E+01  0.25317903861E+02  0.00000000000E+00 0. -1.
         -2    1    1    2    0  503  0.18227640045E+02 -0.15048414796E+02 -0.42163505104E+01  0.24009982530E+02  0.00000000000E+00 0.  1.
<mgrwt>
<rscale>  2 0.23636871E+02</rscale>
<asrwt>0</asrwt>
<pdfrwt beam="1">  1       21 0.41679364E-02 0.23636871E+02</pdfrwt>
<pdfrwt beam="2">  1       21 0.34209692E-02 0.23636871E+02</pdfrwt>
<totfact> 0.12561768E+08</totfact>
</mgrwt>
</event>
<event>
 4    1  0.7165636E+004  0.2304187E+02  0.7546771E-02  0.1690832E+00
         21   -1    0    0  501  502  0.00000000000E+00  0.00000000000E+00  0.28096478198E+02  0.28096478198E+02  0.00000000000E+00 0.  1.
         21   -1    0    0  502  503 -0.00000000000E+00 -0.00000000000E+00 -0.20563740052E+02  0.20563740052E+02  0.00000000000E+00 0.  1.
          4    1    1    2  501    0 -0.13460148876E+02 -0.18701666699E+02  0.10693906547E+02  0.25402511339E+02  0.00000000000E+00 0.  1.
         -4    1    1    2    0  503  0.13460148876E+02  0.18701666699E+02 -0.31611684011E+01  0.23257706911E+02  0.00000000000E+00 0. -1.
<mgrwt>
<rscale>  2 0.23041874E+02</rscale>
<asrwt>0</asrwt>
<pdfrwt beam="1">  1       21 0.43225351E-02 0.23041874E+02</pdfrwt>
<pdfrwt beam="2">  1       21 0.31636523E-02 0.23041874E+02</pdfrwt>
<totfact> 0.13300118E+08</totfact>
</mgrwt>
</event>
<event>
 4    1  0.7165636E+004  0.3226319E+02  0.7546771E-02  0.1574340E+00
         21   -1    0    0  503  502  0.00000000000E+00  0.00000000000E+00  0.11260180152E+03  0.11260180152E+03  0.00000000000E+00 0. -1.
         21   -1    0    0  501  503 -0.00000000000E+00 -0.00000000000E+00 -0.92442180010E+01  0.92442180010E+01  0.00000000000E+00 0. -1.
          1    1    1    2  501    0 -0.80927314588E+01  0.31231736546E+02  0.51595824991E+02  0.60852632043E+02  0.00000000000E+00 0.  1.
         -1    1    1    2    0  502  0.80927314588E+01 -0.31231736546E+02  0.51761758533E+02  0.60993387482E+02  0.00000000000E+00 0. -1.
<mgrwt>
<rscale>  2 0.32263194E+02</rscale>
<asrwt>0</asrwt>
<pdfrwt beam="1">  1       21 0.17323353E-01 0.32263194E+02</pdfrwt>
<pdfrwt beam="2">  1       21 0.14221875E-02 0.32263194E+02</pdfrwt>
<totfact> 0.50151394E+07</totfact>
</mgrwt>
</event>
<event>
 4    1  0.7165636E+004  0.2495075E+02  0.7546771E-02  0.1661710E+00
         21   -1    0    0  503  502  0.00000000000E+00  0.00000000000E+00  0.21195750081E+03  0.21195750081E+03  0.00000000000E+00 0. -1.
         21   -1    0    0  501  503 -0.00000000000E+00 -0.00000000000E+00 -0.37777371914E+01  0.37777371914E+01  0.00000000000E+00 0. -1.
          1    1    1    2  501    0  0.18804815420E+01 -0.24879785595E+02  0.15497374193E+03  0.15696942578E+03  0.00000000000E+00 0. -1.
         -1    1    1    2    0  502 -0.18804815420E+01  0.24879785595E+02  0.53206021690E+02  0.58765812222E+02  0.00000000000E+00 0.  1.
<mgrwt>
<rscale>  2 0.24950750E+02</rscale>
<asrwt>0</asrwt>
<pdfrwt beam="1">  1       21 0.32608837E-01 0.24950750E+02</pdfrwt>
<pdfrwt beam="2">  1       21 0.58119050E-03 0.24950750E+02</pdfrwt>
<totfact> 0.58869313E+07</totfact>
</mgrwt>
</event>
<event>
 4    1  0.7165636E+004  0.2082869E+02  0.7546771E-02  0.1729333E+00
         21   -1    0    0  501  502  0.00000000000E+00  0.00000000000E+00  0.31769703704E+03  0.31769703704E+03  0.00000000000E+00 0.  1.
         21   -1    0    0  502  503 -0.00000000000E+00 -0.00000000000E+00 -0.14703324363E+01  0.14703324363E+01  0.00000000000E+00 0.  1.
          3    1    1    2  501    0 -0.20598801515E+02  0.30860750320E+01  0.20071275181E+03  0.20179059250E+03  0.00000000000E+00 0.  1.
         -3    1    1    2    0  503  0.20598801515E+02 -0.30860750320E+01  0.11551395280E+03  0.11737677698E+03  0.00000000000E+00 0. -1.
<mgrwt>
<rscale>  2 0.20828694E+02</rscale>
<asrwt>0</asrwt>
<pdfrwt beam="1">  1       21 0.48876413E-01 0.20828694E+02</pdfrwt>
<pdfrwt beam="2">  1       21 0.22620524E-03 0.20828694E+02</pdfrwt>
<totfact> 0.10432637E+08</totfact>
</mgrwt>
</event>
<event>
 4    1  0.7165636E+004  0.2303569E+02  0.7546771E-02  0.1690932E+00
         21   -1    0    0  503  502  0.00000000000E+00  0.00000000000E+00  0.21729924533E+03  0.21729924533E+03  0.00000000000E+00 0.  1.
         21   -1    0    0  501  503 -0.00000000000E+00 -0.00000000000E+00 -0.27458046597E+01  0.27458046597E+01  0.00000000000E+00 0.  1.
          4    1    1    2  501    0  0.11460887124E+02  0.19982271364E+02  0.70679386591E+02  0.74338541762E+02  0.00000000000E+00 0.  1.
         -4    1    1    2    0  502 -0.11460887124E+02 -0.19982271364E+02  0.14387405408E+03  0.14570650822E+03  0.00000000000E+00 0. -1.
<mgrwt>
<rscale>  2 0.23035692E+02</rscale>
<asrwt>0</asrwt>
<pdfrwt beam="1">  1       21 0.33430640E-01 0.23035692E+02</pdfrwt>
<pdfrwt beam="2">  1       21 0.42243166E-03 0.23035692E+02</pdfrwt>
<totfact> 0.88287246E+07</totfact>
</mgrwt>
</event>
<event>
 4    1  0.7165636E+004  0.2604302E+02  0.7546771E-02  0.1646457E+00
         21   -1    0    0  503  502  0.00000000000E+00  0.00000000000E+00  0.58158215251E+01  0.58158215251E+01  0.00000000000E+00 0.  1.
         21   -1    0    0  501  503 -0.00000000000E+00 -0.00000000000E+00 -0.14245049350E+03  0.14245049350E+03  0.00000000000E+00 0.  1.
          2    1    1    2  501    0 -0.17748754197E+02  0.19058350179E+02 -0.36749127653E+02  0.45041507195E+02  0.00000000000E+00 0. -1.
         -2    1    1    2    0  502  0.17748754197E+02 -0.19058350179E+02 -0.99885544322E+02  0.10322480783E+03  0.00000000000E+00 0.  1.
<mgrwt>
<rscale>  2 0.26043022E+02</rscale>
<asrwt>0</asrwt>
<pdfrwt beam="1">  1       21 0.89474185E-03 0.26043022E+02</pdfrwt>
<pdfrwt beam="2">  1       21 0.21915459E-01 0.26043022E+02</pdfrwt>
<totfact> 0.63935564E+07</totfact>
</mgrwt>
</event>
<event>
 4    1  0.7165636E+004  0.3186204E+02  0.7546771E-02  0.1578374E+00
         21   -1    0    0  503  502  0.00000000000E+00  0.00000000000E+00  0.43561313401E+03  0.43561313401E+03  0.00000000000E+00 0. -1.
         21   -1    0    0  501  503 -0.00000000000E+00 -0.00000000000E+00 -0.23353420864E+01  0.23353420864E+01  0.00000000000E+00 0. -1.
          4    1    1    2  501    0  0.60050688931E+01 -0.31291034864E+02  0.22662559677E+03  0.22885443152E+03  0.00000000000E+00 0. -1.
         -4    1    1    2    0  502 -0.60050688931E+01  0.31291034864E+02  0.20665219515E+03  0.20909404457E+03  0.00000000000E+00 0.  1.
<mgrwt>
<rscale>  2 0.31862042E+02</rscale>
<asrwt>0</asrwt>
<pdfrwt beam="1">  1       21 0.67017341E-01 0.31862042E+02</pdfrwt>
<pdfrwt beam="2">  1       21 0.35928374E-03 0.31862042E+02</pdfrwt>
<totfact> 0.31081865E+07</totfact>
</mgrwt>
</event>
<event>
 4    1  0.7165636E+004  0.2238743E+02  0.7546771E-02  0.1701636E+00
         21   -1    0    0  503  502  0.00000000000E+00  0.00000000000E+00  0.19130839968E+02  0.19130839968E+02  0.00000000000E+00 0. -1.
         21   -1    0    0  501  503 -0.00000000000E+00 -0.00000000000E+00 -0.64677801359E+02  0.64677801359E+02  0.00000000000E+00 0. -1.
          5    1    1    2  501    0 -0.32697994519E+01 -0.22147358027E+02  0.95483115645E+01  0.24338597120E+02  0.00000000000E+00 0. -1.
         -5    1    1    2    0  502  0.32697994519E+01  0.22147358027E+02 -0.55095272955E+02  0.59470044207E+02  0.00000000000E+00 0.  1.
<mgrwt>
<rscale>  2 0.22387431E+02</rscale>
<asrwt>0</asrwt>
<pdfrwt beam="1">  1       21 0.29432062E-02 0.22387431E+02</pdfrwt>
<pdfrwt beam="2">  1       21 0.99504308E-02 0.22387431E+02</pdfrwt>
<totfact> 0.38439027E+07</totfact>
</mgrwt>
</event>
<event>
 4    1  0.7165636E+004  0.2543291E+02  0.7546771E-02  0.1654861E+00
         21   -1    0    0  501  502  0.00000000000E+00  0.00000000000E+00  0.16226097986E+02  0.16226097986E+02  0.00000000000E+00 0. -1.
         21   -1    0    0  502  503 -0.00000000000E+00 -0.00000000000E+00 -0.48216694283E+02  0.48216694283E+02  0.00000000000E+00 0. -1.
          5    1    1    2  501    0  0.10206867057E+02  0.23294912931E+02 -0.25841658582E+01  0.25563861538E+02  0.00000000000E+00 0.  1.
         -5    1    1    2    0  503 -0.10206867057E+02 -0.23294912931E+02 -0.29406430439E+02  0.38878930730E+02  0.00000000000E+00 0. -1.
<mgrwt>
<rscale>  2 0.25432914E+02</rscale>
<asrwt>0</asrwt>
<pdfrwt beam="1">  1       21 0.24963228E-02 0.25432914E+02</pdfrwt>
<pdfrwt beam="2">  1       21 0.74179530E-02 0.25432914E+02</pdfrwt>
<totfact> 0.83072649E+07</totfact>
</mgrwt>
</event>
<event>
 4    1  0.7165636E+004  0.2218793E+02  0.7546771E-02  0.1705022E+00
         21   -1    0    0  501  502  0.00000000000E+00  0.00000000000E+00  0.21517904241E+02  0.21517904241E+02  0.00000000000E+00 0.  1.
         21   -1    0    0  502  503 -0.00000000000E+00 -0.00000000000E+00 -0.25530852153E+02  0.25530852153E+02  0.00000000000E+00 0.  1.
          4    1    1    2  501    0  0.17139800043E+02 -0.14090119606E+02  0.55753736242E+01  0.22877696717E+02  0.00000000000E+00 0.  1.
         -4    1    1    2    0  503 -0.17139800043E+02  0.14090119606E+02 -0.95883215353E+01  0.24171059677E+02  0.00000000000E+00 0. -1.
<mgrwt>
<rscale>  2 0.22187930E+02</rscale>
<asrwt>0</asrwt>
<pdfrwt beam="1">  1       21 0.33104468E-02 0.22187930E+02</pdfrwt>
<pdfrwt beam="2">  1       21 0.39278234E-02 0.22187930E+02</pdfrwt>
<totfact> 0.14246921E+08</totfact>
</mgrwt>
</event>
<event>
 4    1  0.7165636E+004  0.2333040E+02  0.7546771E-02  0.1686210E+00
         21   -1    0    0  501  502  0.00000000000E+00  0.00000000000E+00  0.10604979642E+03  0.10604979642E+03  0.00000000000E+00 0.  1.
         21   -1    0    0  502  503 -0.00000000000E+00 -0.00000000000E+00 -0.51906624407E+01  0.51906624407E+01  0.00000000000E+00 0.  1.
          1    1    1    2  501    0 -0.28634262177E+01  0.23154016980E+02  0.56313821807E+02  0.60955346267E+02  0.00000000000E+00 0.  1.
         -1    1    1    2    0  503  0.28634262177E+01 -0.23154016980E+02  0.44545312168E+02  0.50285112589E+02  0.00000000000E+00 0. -1.
<mgrwt>
<rscale>  2 0.23330403E+02</rscale>
<asrwt>0</asrwt>
<pdfrwt beam="1">  1       21 0.16315352E-01 0.23330403E+02</pdfrwt>
<pdfrwt beam="2">  1       21 0.79856353E-03 0.23330403E+02</pdfrwt>
<totfact> 0.12316680E+08</totfact>
</mgrwt>
</event>
<event>
 4    1  0.7165636E+004  0.2352205E+02  0.7546771E-02  0.1683185E+00
         21   -1    0    0  503  502  0.00000000000E+00  0.00000000000E+00  0.35254712135E+02  0.35254712135E+02  0.00000000000E+00 0.  1.
         21   -1    0    0  501  503 -0.00000000000E+00 -0.00000000000E+00 -0.15694139023E+02  0.15694139023E+02  0.00000000000E+00 0.  1.
          4    1    1    2  501    0 -0.13311304586E+02  0.19393189753E+02  0.96984152092E+01  0.25442993065E+02  0.00000000000E+00 0. -1.
         -4    1    1    2    0  502  0.13311304586E+02 -0.19393189753E+02  0.98621579030E+01  0.25505858093E+02  0.00000000000E+00 0.  1.
<mgrwt>
<rscale>  2 0.23522046E+02</rscale>
<asrwt>0</asrwt>
<pdfrwt beam="1">  1       21 0.54238018E-02 0.23522046E+02</pdfrwt>
<pdfrwt beam="2">  1       21 0.24144829E-02 0.23522046E+02</pdfrwt>
<totfact> 0.14192650E+08</totfact>
</mgrwt>
</event>
<event>
 4    1  0.7165636E+004  0.6884052E+02  0.7546771E-02  0.1364081E+00
         21   -1    0    0  501  502  0.00000000000E+00  0.00000000000E+00  0.56282089803E+02  0.56282089803E+02  0.00000000000E+00 0.  1.
         21   -1    0    0  502  503 -0.00000000000E+00 -0.00000000000E+00 -0.88256494871E+02  0.88256494871E+02  0.00000000000E+00 0.  1.
          4    1    1    2  501    0 -0.60628268272E+02  0.32607208113E+02 -0.49567924374E+00  0.68842302638E+02  0.00000000000E+00 0.  1.
         -4    1    1    2    0  503  0.60628268272E+02 -0.32607208113E+02 -0.31478725824E+02  0.75696282036E+02  0.00000000000E+00 0. -1.
<mgrwt>
<rscale>  2 0.68840518E+02</rscale>
<asrwt>0</asrwt>
<pdfrwt beam="1">  1       21 0.86587831E-02 0.68840518E+02</pdfrwt>
<pdfrwt beam="2">  1       21 0.13577922E-01 0.68840518E+02</pdfrwt>
<totfact> 0.46547424E+06</totfact>
</mgrwt>
</event>
<event>
 4    1  0.7165636E+004  0.4444537E+02  0.7546771E-02  0.1477834E+00
         21   -1    0    0  501  502  0.00000000000E+00  0.00000000000E+00  0.10108683829E+03  0.10108683829E+03  0.00000000000E+00 0.  1.
         21   -1    0    0  502  503 -0.00000000000E+00 -0.00000000000E+00 -0.21674701292E+02  0.21674701292E+02  0.00000000000E+00 0.  1.
          5    1    1    2  501    0  0.41067205079E+02  0.16996346121E+02  0.58962198388E+02  0.73837198980E+02  0.00000000000E+00 0.  1.
         -5    1    1    2    0  503 -0.41067205079E+02 -0.16996346121E+02  0.20449938613E+02  0.48924340606E+02  0.00000000000E+00 0. -1.
<mgrwt>
<rscale>  2 0.44445372E+02</rscale>
<asrwt>0</asrwt>
<pdfrwt beam="1">  1       21 0.15551821E-01 0.44445372E+02</pdfrwt>
<pdfrwt beam="2">  1       21 0.33345695E-02 0.44445372E+02</pdfrwt>
<totfact> 0.16865981E+07</totfact>
</mgrwt>
</event>
<event>
 4    1  0.7165636E+004  0.3225220E+02  0.7546771E-02  0.1574449E+00
         21   -1    0    0  503  502  0.00000000000E+00  0.00000000000E+00  0.22670929175E+01  0.22670929175E+01  0.00000000000E+00 0. -1.
         21   -1    0    0  501  503 -0.00000000000E+00 -0.00000000000E+00 -0.45936386529E+03  0.45936386529E+03  0.00000000000E+00 0. -1.
          5    1    1    2  501    0  0.65343571384E+01  0.31583332625E+02 -0.22066177305E+03  0.22300632908E+03  0.00000000000E+00 0.  1.
         -5    1    1    2    0  502 -0.65343571384E+01 -0.31583332625E+02 -0.23643499932E+03  0.23862462913E+03  0.00000000000E+00 0. -1.
<mgrwt>
<rscale>  2 0.32252205E+02</rscale>
<asrwt>0</asrwt>
<pdfrwt beam="1">  1       21 0.34878330E-03 0.32252205E+02</pdfrwt>
<pdfrwt beam="2">  1       21 0.70671410E-01 0.32252205E+02</pdfrwt>
<totfact> 0.29151492E+07</totfact>
</mgrwt>
</event>
<event>
 4    1  0.7165636E+004  0.2346569E+02  0.7546771E-02  0.1684071E+00
         21   -1    0    0  501  502  0.00000000000E+00  0.00000000000E+00  0.15301364344E+02  0.15301364344E+02  0.00000000000E+00 0.  1.
         21   -1    0    0  502  503 -0.00000000000E+00 -0.00000000000E+00 -0.35992431828E+02  0.35992431828E+02  0.00000000000E+00 0.  1.
          3    1    1    2  501    0 -0.23395310528E+02 -0.18160587211E+01 -0.10681823809E+02  0.25782551927E+02  0.00000000000E+00 0.  1.
         -3    1    1    2    0  503  0.23395310528E+02  0.18160587211E+01 -0.10009243674E+02  0.25511244245E+02  0.00000000000E+00 0. -1.
<mgrwt>
<rscale>  2 0.23465690E+02</rscale>
<asrwt>0</asrwt>
<pdfrwt beam="1">  1       21 0.23540561E-02 0.23465690E+02</pdfrwt>
<pdfrwt beam="2">  1       21 0.55372972E-02 0.23465690E+02</pdfrwt>
<totfact> 0.14268044E+08</totfact>
</mgrwt>
</event>
<event>
 4    1  0.7165636E+004  0.2054367E+02  0.7546771E-02  0.1734728E+00
         21   -1    0    0  501  502  0.00000000000E+00  0.00000000000E+00  0.87166136271E+00  0.87166136271E+00  0.00000000000E+00 0. -1.
         21   -1    0    0  502  503 -0.00000000000E+00 -0.00000000000E+00 -0.56885631114E+03  0.56885631114E+03  0.00000000000E+00 0. -1.
          5    1    1    2  501    0  0.78624095641E+01  0.18979596719E+02 -0.17408855699E+03  0.17529651523E+03  0.00000000000E+00 0. -1.
         -5    1    1    2    0  503 -0.78624095641E+01 -0.18979596719E+02 -0.39389609279E+03  0.39443145728E+03  0.00000000000E+00 0.  1.
<mgrwt>
<rscale>  2 0.20543675E+02</rscale>
<asrwt>0</asrwt>
<pdfrwt beam="1">  1       21 0.13410163E-03 0.20543675E+02</pdfrwt>
<pdfrwt beam="2">  1       21 0.87516436E-01 0.20543675E+02</pdfrwt>
<totfact> 0.67853476E+07</totfact>
</mgrwt>
</event>
<event>
 4    1  0.7165636E+004  0.2150751E+02  0.7546771E-02  0.1716911E+00
         21   -1    0    0  503  502  0.00000000000E+00  0.00000000000E+00  0.69498651242E+00  0.69498651242E+00  0.00000000000E+00 0.  1.
         21   -1    0    0  501  503 -0.00000000000E+00 -0.00000000000E+00 -0.72305593699E+03  0.72305593699E+03  0.00000000000E+00 0.  1.
          3    1    1    2  501    0  0.20914042895E+02  0.50175630767E+01 -0.46320261687E+03  0.46370166854E+03  0.00000000000E+00 0. -1.
         -3    1    1    2    0  502 -0.20914042895E+02 -0.50175630767E+01 -0.25915833361E+03  0.26004925497E+03  0.00000000000E+00 0.  1.
<mgrwt>
<rscale>  2 0.21507513E+02</rscale>
<asrwt>0</asrwt>
<pdfrwt beam="1">  1       21 0.10692195E-03 0.21507513E+02</pdfrwt>
<pdfrwt beam="2">  1       21 0.11123839E+00 0.21507513E+02</pdfrwt>
<totfact> 0.56247625E+07</totfact>
</mgrwt>
</event>
<event>
 4    1  0.7165636E+004  0.2246192E+02  0.7546771E-02  0.1700384E+00
         21   -1    0    0  501  502  0.00000000000E+00  0.00000000000E+00  0.14619878757E+01  0.14619878757E+01  0.00000000000E+00 0. -1.
         21   -1    0    0  502  503 -0.00000000000E+00 -0.00000000000E+00 -0.35550174796E+03  0.35550174796E+03  0.00000000000E+00 0. -1.
          4    1    1    2  501    0 -0.11016714039E+02 -0.19574721803E+02 -0.14649563698E+03  0.14820765627E+03  0.00000000000E+00 0.  1.
         -4    1    1    2    0  503  0.11016714039E+02  0.19574721803E+02 -0.20754412311E+03  0.20875607957E+03  0.00000000000E+00 0. -1.
<mgrwt>
<rscale>  2 0.22461917E+02</rscale>
<asrwt>0</asrwt>
<pdfrwt beam="1">  1       21 0.22492121E-03 0.22461917E+02</pdfrwt>
<pdfrwt beam="2">  1       21 0.54692577E-01 0.22461917E+02</pdfrwt>
<totfact> 0.86190680E+07</totfact>
</mgrwt>
</event>
<event>
 4    1  0.7165636E+004  0.2359305E+02  0.7546771E-02  0.1682074E+00
         21   -1    0    0  503  502  0.00000000000E+00  0.00000000000E+00  0.89797945367E+01  0.89797945367E+01  0.00000000000E+00 0.  1.
         21   -1    0    0  501  503 -0.00000000000E+00 -0.00000000000E+00 -0.65985387946E+02  0.65985387946E+02  0.00000000000E+00 0.  1.
          4    1    1    2  501    0 -0.23258619967E+02 -0.39583317021E+01 -0.19276221806E+02  0.30466449083E+02  0.00000000000E+00 0. -1.
         -4    1    1    2    0  502  0.23258619967E+02  0.39583317021E+01 -0.37729371603E+02  0.44498733400E+02  0.00000000000E+00 0.  1.
<mgrwt>
<rscale>  2 0.23593045E+02</rscale>
<asrwt>0</asrwt>
<pdfrwt beam="1">  1       21 0.13815069E-02 0.23593045E+02</pdfrwt>
<pdfrwt beam="2">  1       21 0.10151598E-01 0.23593045E+02</pdfrwt>
<totfact> 0.12045022E+08</totfact>
</mgrwt>
</event>
<event>
 4    1  0.7165636E+004  0.4243050E+02  0.7546771E-02  0.1491051E+00
         21   -1    0    0  503  502  0.00000000000E+00  0.00000000000E+00  0.24081178453E+03  0.24081178453E+03  0.00000000000E+00 0.  1.
         21   -1    0    0  501  503 -0.00000000000E+00 -0.00000000000E+00 -0.75110917666E+01  0.75110917666E+01  0.00000000000E+00 0.  1.
          5    1    1    2  501    0  0.39493390724E+02  0.15511903188E+02  0.10818284502E+03  0.11620617457E+03  0.00000000000E+00 0. -1.
         -5    1    1    2    0  502 -0.39493390724E+02 -0.15511903188E+02  0.12511784775E+03  0.13211670173E+03  0.00000000000E+00 0.  1.
<mgrwt>
<rscale>  2 0.42430497E+02</rscale>
<asrwt>0</asrwt>
<pdfrwt beam="1">  1       21 0.37047961E-01 0.42430497E+02</pdfrwt>
<pdfrwt beam="2">  1       21 0.11555528E-02 0.42430497E+02</pdfrwt>
<totfact> 0.18112020E+07</totfact>
</mgrwt>
</event>
<event>
 4    1  0.7165636E+004  0.2780455E+02  0.7546771E-02  0.1623706E+00
         21   -1    0    0  503  502  0.00000000000E+00  0.00000000000E+00  0.91182081219E+02  0.91182081219E+02  0.00000000000E+00 0.  1.
         21   -1    0    0  501  503 -0.00000000000E+00 -0.00000000000E+00 -0.86849318164E+01  0.86849318164E+01  0.00000000000E+00 0.  1.
          5    1    1    2  501    0 -0.15428192788E+02 -0.23131451689E+02  0.48945706710E+02  0.56291876814E+02  0.00000000000E+00 0. -1.
         -5    1    1    2    0  502  0.15428192788E+02  0.23131451689E+02  0.33551442692E+02  0.43575136221E+02  0.00000000000E+00 0.  1.
<mgrwt>
<rscale>  2 0.27804553E+02</rscale>
<asrwt>0</asrwt>
<pdfrwt beam="1">  1       21 0.14028012E-01 0.27804553E+02</pdfrwt>
<pdfrwt beam="2">  1       21 0.13361434E-02 0.27804553E+02</pdfrwt>
<totfact> 0.76807846E+07</totfact>
</mgrwt>
</event>
<event>
 4    1  0.7165636E+004  0.2016171E+02  0.7546771E-02  0.1742131E+00
         21   -1    0    0  501  502  0.00000000000E+00  0.00000000000E+00  0.36560982301E+01  0.36560982301E+01  0.00000000000E+00 0.  1.
         21   -1    0    0  502  503 -0.00000000000E+00 -0.00000000000E+00 -0.12940943630E+03  0.12940943630E+03  0.00000000000E+00 0.  1.
          4    1    1    2  501    0  0.18452644789E+01 -0.20077086962E+02 -0.37907244198E+02  0.42935458360E+02  0.00000000000E+00 0.  1.
         -4    1    1    2    0  503 -0.18452644789E+01  0.20077086962E+02 -0.87846093872E+02  0.90130076170E+02  0.00000000000E+00 0. -1.
<mgrwt>
<rscale>  2 0.20161707E+02</rscale>
<asrwt>0</asrwt>
<pdfrwt beam="1">  1       21 0.56247676E-03 0.20161707E+02</pdfrwt>
<pdfrwt beam="2">  1       21 0.19909140E-01 0.20161707E+02</pdfrwt>
<totfact> 0.14079406E+08</totfact>
</mgrwt>
</event>
<event>
 4    1  0.7165636E+004  0.3138433E+02  0.7546771E-02  0.1583272E+00
         21   -1    0    0  503  502  0.00000000000E+00  0.00000000000E+00  0.20783651265E+03  0.20783651265E+03  0.00000000000E+00 0. -1.
         21   -1    0    0  501  503 -0.00000000000E+00 -0.00000000000E+00 -0.48635010732E+01  0.48635010732E+01  0.00000000000E+00 0. -1.
          2    1    1    2  501    0 -0.70697016328E+01 -0.30577694571E+02  0.84483595366E+02  0.90124657960E+02  0.00000000000E+00 0. -1.
         -2    1    1    2    0  502  0.70697016328E+01  0.30577694571E+02  0.11848941621E+03  0.12257535576E+03  0.00000000000E+00 0.  1.
<mgrwt>
<rscale>  2 0.31384329E+02</rscale>
<asrwt>0</asrwt>
<pdfrwt beam="1">  1       21 0.31974841E-01 0.31384329E+02</pdfrwt>
<pdfrwt beam="2">  1       21 0.74823109E-03 0.31384329E+02</pdfrwt>
<totfact> 0.43983360E+07</totfact>
</mgrwt>
</event>
<event>
 4    1  0.7165636E+004  0.2269509E+02  0.7546771E-02  0.1696501E+00
         21   -1    0    0  503  502  0.00000000000E+00  0.00000000000E+00  0.93428758135E+02  0.93428758135E+02  0.00000000000E+00 0.  1.
         21   -1    0    0  501  503 -0.00000000000E+00 -0.00000000000E+00 -0.58386717258E+01  0.58386717258E+01  0.00000000000E+00 0.  1.
          5    1    1    2  501    0  0.45061996138E+01 -0.22243231304E+02  0.32071752705E+02  0.39289495993E+02  0.00000000000E+00 0. -1.
         -5    1    1    2    0  502 -0.45061996138E+01  0.22243231304E+02  0.55518333704E+02  0.59977933868E+02  0.00000000000E+00 0.  1.
<mgrwt>
<rscale>  2 0.22695091E+02</rscale>
<asrwt>0</asrwt>
<pdfrwt beam="1">  1       21 0.14373654E-01 0.22695091E+02</pdfrwt>
<pdfrwt beam="2">  1       21 0.89825726E-03 0.22695091E+02</pdfrwt>
<totfact> 0.12720545E+08</totfact>
</mgrwt>
</event>
<event>
 4    1  0.7165636E+004  0.2293808E+02  0.7546771E-02  0.1692516E+00
         21   -1    0    0  503  502  0.00000000000E+00  0.00000000000E+00  0.16572970278E+01  0.16572970278E+01  0.00000000000E+00 0.  1.
         21   -1    0    0  501  503 -0.00000000000E+00 -0.00000000000E+00 -0.31784236303E+03  0.31784236303E+03  0.00000000000E+00 0.  1.
          5    1    1    2  501    0 -0.29058475105E+01  0.22753275674E+02 -0.16350063532E+03  0.16510182692E+03  0.00000000000E+00 0.  1.
         -5    1    1    2    0  502  0.29058475105E+01 -0.22753275674E+02 -0.15268443069E+03  0.15439783314E+03  0.00000000000E+00 0. -1.
<mgrwt>
<rscale>  2 0.22938080E+02</rscale>
<asrwt>0</asrwt>
<pdfrwt beam="1">  1       21 0.25496885E-03 0.22938080E+02</pdfrwt>
<pdfrwt beam="2">  1       21 0.48898810E-01 0.22938080E+02</pdfrwt>
<totfact> 0.89910785E+07</totfact>
</mgrwt>
</event>
<event>
 4    1  0.7165636E+004  0.2723140E+02  0.7546771E-02  0.1630876E+00
         21   -1    0    0  503  502  0.00000000000E+00  0.00000000000E+00  0.13296529665E+03  0.13296529665E+03  0.00000000000E+00 0.  1.
         21   -1    0    0  501  503 -0.00000000000E+00 -0.00000000000E+00 -0.55847852553E+01  0.55847852553E+01  0.00000000000E+00 0.  1.
          5    1    1    2  501    0 -0.10281178923E+01  0.27211981464E+02  0.66274863427E+02  0.71651283895E+02  0.00000000000E+00 0. -1.
         -5    1    1    2    0  502  0.10281178923E+01 -0.27211981464E+02  0.61105647971E+02  0.66898798013E+02  0.00000000000E+00 0.  1.
<mgrwt>
<rscale>  2 0.27231397E+02</rscale>
<asrwt>0</asrwt>
<pdfrwt beam="1">  1       21 0.20456197E-01 0.27231397E+02</pdfrwt>
<pdfrwt beam="2">  1       21 0.85919783E-03 0.27231397E+02</pdfrwt>
<totfact> 0.77569428E+07</totfact>
</mgrwt>
</event>
<event>
 4    1  0.7165636E+004  0.3505911E+02  0.7546771E-02  0.1548076E+00
         21   -1    0    0  503  502  0.00000000000E+00  0.00000000000E+00  0.14359782385E+04  0.14359782385E+04  0.00000000000E+00 0. -1.
         21   -1    0    0  501  503 -0.00000000000E+00 -0.00000000000E+00 -0.99417776353E+00  0.99417776353E+00  0.00000000000E+00 0. -1.
          3    1    1    2  501    0 -0.34341235229E+02  0.70583800854E+01  0.44959555820E+03  0.45096042744E+03  0.00000000000E+00 0. -1.
         -3    1    1    2    0  502  0.34341235229E+02 -0.70583800854E+01  0.98538850252E+03  0.98601198880E+03  0.00000000000E+00 0.  1.
<mgrwt>
<rscale>  2 0.35059110E+02</rscale>
<asrwt>0</asrwt>
<pdfrwt beam="1">  1       21 0.22091807E+00 0.35059110E+02</pdfrwt>
<pdfrwt beam="2">  1       21 0.15295157E-03 0.35059110E+02</pdfrwt>
<totfact> 0.67169444E+06</totfact>
</mgrwt>
</event>
<event>
 4    1  0.7165636E+004  0.4497525E+02  0.7546771E-02  0.1474496E+00
         21   -1    0    0  503  502  0.00000000000E+00  0.00000000000E+00  0.73572026366E+02  0.73572026366E+02  0.00000000000E+00 0.  1.
         21   -1    0    0  501  503 -0.00000000000E+00 -0.00000000000E+00 -0.31137104451E+02  0.31137104451E+02  0.00000000000E+00 0.  1.
          4    1    1    2  501    0  0.44364359053E+02 -0.73876165771E+01  0.39126169535E+02  0.59612334088E+02  0.00000000000E+00 0.  1.
         -4    1    1    2    0  502 -0.44364359053E+02  0.73876165771E+01  0.33087523807E+01  0.45096796729E+02  0.00000000000E+00 0. -1.
<mgrwt>
<rscale>  2 0.44975251E+02</rscale>
<asrwt>0</asrwt>
<pdfrwt beam="1">  1       21 0.11318773E-01 0.44975251E+02</pdfrwt>
<pdfrwt beam="2">  1       21 0.47903238E-02 0.44975251E+02</pdfrwt>
<totfact> 0.16317180E+07</totfact>
</mgrwt>
</event>
<event>
 4    1  0.7165636E+004  0.2114756E+02  0.7546771E-02  0.1723425E+00
         21   -1    0    0  503  502  0.00000000000E+00  0.00000000000E+00  0.17810037275E+03  0.17810037275E+03  0.00000000000E+00 0.  1.
         21   -1    0    0  501  503 -0.00000000000E+00 -0.00000000000E+00 -0.25153513657E+01  0.25153513657E+01  0.00000000000E+00 0.  1.
          5    1    1    2  501    0  0.10106668521E+02  0.18576185894E+02  0.84059231391E+02  0.86678566053E+02  0.00000000000E+00 0.  1.
         -5    1    1    2    0  502 -0.10106668521E+02 -0.18576185894E+02  0.91525789991E+02  0.93937158060E+02  0.00000000000E+00 0. -1.
<mgrwt>
<rscale>  2 0.21147563E+02</rscale>
<asrwt>0</asrwt>
<pdfrwt beam="1">  1       21 0.27400048E-01 0.21147563E+02</pdfrwt>
<pdfrwt beam="2">  1       21 0.38697727E-03 0.21147563E+02</pdfrwt>
<totfact> 0.14075251E+08</totfact>
</mgrwt>
</event>
<event>
 4    1  0.7165636E+004  0.2266258E+02  0.7546771E-02  0.1697039E+00
         21   -1    0    0  501  502  0.00000000000E+00  0.00000000000E+00  0.24916724700E+02  0.24916724700E+02  0.00000000000E+00 0.  1.
         21   -1    0    0  502  503 -0.00000000000E+00 -0.00000000000E+00 -0.23735897919E+02  0.23735897919E+02  0.00000000000E+00 0.  1.
          2    1    1    2  501    0  0.26684359420E+01  0.22504932207E+02  0.94150483708E+01  0.24540490212E+02  0.00000000000E+00 0.  1.
         -2    1    1    2    0  503 -0.26684359420E+01 -0.22504932207E+02 -0.82342215891E+01  0.24112132407E+02  0.00000000000E+00 0. -1.
<mgrwt>
<rscale>  2 0.22662580E+02</rscale>
<asrwt>0</asrwt>
<pdfrwt beam="1">  1       21 0.38333423E-02 0.22662580E+02</pdfrwt>
<pdfrwt beam="2">  1       21 0.36516766E-02 0.22662580E+02</pdfrwt>
<totfact> 0.12777485E+08</totfact>
</mgrwt>
</event>
<event>
 4    1  0.7165636E+004  0.2169572E+02  0.7546771E-02  0.1713568E+00
         21   -1    0    0  503  502  0.00000000000E+00  0.00000000000E+00  0.46429562903E+02  0.46429562903E+02  0.00000000000E+00 0.  1.
         21   -1    0    0  501  503 -0.00000000000E+00 -0.00000000000E+00 -0.10138452677E+02  0.10138452677E+02  0.00000000000E+00 0.  1.
          5    1    1    2  501    0 -0.58494821342E+01  0.20892293665E+02  0.17963276228E+02  0.28167067094E+02  0.00000000000E+00 0.  1.
         -5    1    1    2    0  502  0.58494821342E+01 -0.20892293665E+02  0.18327833998E+02  0.28400948486E+02  0.00000000000E+00 0. -1.
<mgrwt>
<rscale>  2 0.21695723E+02</rscale>
<asrwt>0</asrwt>
<pdfrwt beam="1">  1       21 0.71430096E-02 0.21695723E+02</pdfrwt>
<pdfrwt beam="2">  1       21 0.15597620E-02 0.21695723E+02</pdfrwt>
<totfact> 0.17366452E+08</totfact>
</mgrwt>
</event>
<event>
 4    1  0.7165636E+004  0.2370782E+02  0.7546771E-02  0.1680287E+00
         21   -1    0    0  501  502  0.00000000000E+00  0.00000000000E+00  0.45060174319E+02  0.45060174319E+02  0.00000000000E+00 0. -1.
         21   -1    0    0  502  503 -0.00000000000E+00 -0.00000000000E+00 -0.12557934109E+02  0.12557934109E+02  0.00000000000E+00 0. -1.
          2    1    1    2  501    0  0.93713666581E+01 -0.21777010321E+02  0.13889663289E+02  0.27476961947E+02  0.00000000000E+00 0.  1.
         -2    1    1    2    0  503 -0.93713666581E+01  0.21777010321E+02  0.18612576921E+02  0.30141146481E+02  0.00000000000E+00 0. -1.
<mgrwt>
<rscale>  2 0.23707819E+02</rscale>
<asrwt>0</asrwt>
<pdfrwt beam="1">  1       21 0.69323344E-02 0.23707819E+02</pdfrwt>
<pdfrwt beam="2">  1       21 0.19319899E-02 0.23707819E+02</pdfrwt>
<totfact> 0.13508582E+08</totfact>
</mgrwt>
</event>
<event>
 4    1  0.7165636E+004  0.3031140E+02  0.7546771E-02  0.1594672E+00
         21   -1    0    0  501  502  0.00000000000E+00  0.00000000000E+00  0.10213863793E+03  0.10213863793E+03  0.00000000000E+00 0.  1.
         21   -1    0    0  502  503 -0.00000000000E+00 -0.00000000000E+00 -0.91172651014E+01  0.91172651014E+01  0.00000000000E+00 0.  1.
          4    1    1    2  501    0  0.29232295293E+02  0.80158440273E+01  0.52941251779E+02  0.61004565268E+02  0.00000000000E+00 0. -1.
         -4    1    1    2    0  503 -0.29232295293E+02 -0.80158440273E+01  0.40080121045E+02  0.50251337759E+02  0.00000000000E+00 0.  1.
<mgrwt>
<rscale>  2 0.30311398E+02</rscale>
<asrwt>0</asrwt>
<pdfrwt beam="1">  1       21 0.15713636E-01 0.30311398E+02</pdfrwt>
<pdfrwt beam="2">  1       21 0.14026562E-02 0.30311398E+02</pdfrwt>
<totfact> 0.59882187E+07</totfact>
</mgrwt>
</event>
<event>
 4    1  0.7165636E+004  0.2013762E+02  0.7546771E-02  0.1742605E+00
         21   -1    0    0  501  502  0.00000000000E+00  0.00000000000E+00  0.61875994583E+02  0.61875994583E+02  0.00000000000E+00 0. -1.
         21   -1    0    0  502  503 -0.00000000000E+00 -0.00000000000E+00 -0.90517766078E+01  0.90517766078E+01  0.00000000000E+00 0. -1.
          2    1    1    2  501    0  0.77782860258E+01 -0.18574765261E+02  0.77821224543E+01  0.21589003402E+02  0.00000000000E+00 0.  1.
         -2    1    1    2    0  503 -0.77782860258E+01  0.18574765261E+02  0.45042095521E+02  0.49338767789E+02  0.00000000000E+00 0. -1.
<mgrwt>
<rscale>  2 0.20137617E+02</rscale>
<asrwt>0</asrwt>
<pdfrwt beam="1">  1       21 0.95193835E-02 0.20137617E+02</pdfrwt>
<pdfrwt beam="2">  1       21 0.13925811E-02 0.20137617E+02</pdfrwt>
<totfact> 0.12623997E+08</totfact>
</mgrwt>
</event>
<event>
 4    1  0.7165636E+004  0.2785448E+02  0.7546771E-02  0.1623092E+00
         21   -1    0    0  501  502  0.00000000000E+00  0.00000000000E+00  0.70371849149E+01  0.70371849149E+01  0.00000000000E+00 0. -1.
         21   -1    0    0  502  503 -0.00000000000E+00 -0.00000000000E+00 -0.11155725461E+03  0.11155725461E+03  0.00000000000E+00 0. -1.
          2    1    1    2  501    0 -0.20106207818E+02  0.19277252415E+02 -0.45848887864E+02  0.53646925092E+02  0.00000000000E+00 0. -1.
         -2    1    1    2    0  503  0.20106207818E+02 -0.19277252415E+02 -0.58671181831E+02  0.64947514432E+02  0.00000000000E+00 0.  1.
<mgrwt>
<rscale>  2 0.27854480E+02</rscale>
<asrwt>0</asrwt>
<pdfrwt beam="1">  1       21 0.10826439E-02 0.27854480E+02</pdfrwt>
<pdfrwt beam="2">  1       21 0.17162654E-01 0.27854480E+02</pdfrwt>
<totfact> 0.74773957E+07</totfact>
</mgrwt>
</event>
<event>
 4    1  0.7165636E+004  0.3001484E+02  0.7546771E-02  0.1597925E+00
         21   -1    0    0  503  502  0.00000000000E+00  0.00000000000E+00  0.17863876899E+01  0.17863876899E+01  0.00000000000E+00 0. -1.
         21   -1    0    0  501  503 -0.00000000000E+00 -0.00000000000E+00 -0.59708522410E+03  0.59708522410E+03  0.00000000000E+00 0. -1.
          3    1    1    2  501    0 -0.24030935448E+02 -0.17983451172E+02 -0.17961592900E+03  0.18210648623E+03  0.00000000000E+00 0. -1.
         -3    1    1    2    0  502  0.24030935448E+02  0.17983451172E+02 -0.41568290740E+03  0.41676512556E+03  0.00000000000E+00 0.  1.
<mgrwt>
<rscale>  2 0.30014836E+02</rscale>
<asrwt>0</asrwt>
<pdfrwt beam="1">  1       21 0.27482892E-03 0.30014836E+02</pdfrwt>
<pdfrwt beam="2">  1       21 0.91859250E-01 0.30014836E+02</pdfrwt>
<totfact> 0.23412289E+07</totfact>
</mgrwt>
</event>
<event>
 4    1  0.7165636E+004  0.2320722E+02  0.7546771E-02  0.1688173E+00
         21   -1    0    0  503  502  0.00000000000E+00  0.00000000000E+00  0.25104055015E+02  0.25104055015E+02  0.00000000000E+00 0. -1.
         21   -1    0    0  501  503 -0.00000000000E+00 -0.00000000000E+00 -0.31008889463E+02  0.31008889463E+02  0.00000000000E+00 0. -1.
          2    1    1    2  501    0  0.12865692386E+02 -0.19314476899E+02 -0.18526749382E+02  0.29695378446E+02  0.00000000000E+00 0.  1.
         -2    1    1    2    0  502 -0.12865692386E+02  0.19314476899E+02  0.12621914934E+02  0.26417566032E+02  0.00000000000E+00 0. -1.
<mgrwt>
<rscale>  2 0.23207220E+02</rscale>
<asrwt>0</asrwt>
<pdfrwt beam="1">  1       21 0.38621623E-02 0.23207220E+02</pdfrwt>
<pdfrwt beam="2">  1       21 0.47705983E-02 0.23207220E+02</pdfrwt>
<totfact> 0.83381060E+07</totfact>
</mgrwt>
</event>
<event>
 4    1  0.7165636E+004  0.2139172E+02  0.7546771E-02  0.1718989E+00
         21   -1    0    0  501  502  0.00000000000E+00  0.00000000000E+00  0.13938250347E+02  0.13938250347E+02  0.00000000000E+00 0. -1.
         21   -1    0    0  502  503 -0.00000000000E+00 -0.00000000000E+00 -0.38676886777E+02  0.38676886777E+02  0.00000000000E+00 0. -1.
          1    1    1    2  501    0 -0.10755169403E+02 -0.18491403392E+02 -0.22597134020E+02  0.31116492961E+02  0.00000000000E+00 0.  1.
         -1    1    1    2    0  503  0.10755169403E+02  0.18491403392E+02 -0.21415024107E+01  0.21498644163E+02  0.00000000000E+00 0. -1.
<mgrwt>
<rscale>  2 0.21391720E+02</rscale>
<asrwt>0</asrwt>
<pdfrwt beam="1">  1       21 0.21443462E-02 0.21391720E+02</pdfrwt>
<pdfrwt beam="2">  1       21 0.59502902E-02 0.21391720E+02</pdfrwt>
<totfact> 0.14273402E+08</totfact>
</mgrwt>
</event>
<event>
 4    1  0.7165636E+004  0.2425758E+02  0.7546771E-02  0.1671900E+00
         21   -1    0    0  503  502  0.00000000000E+00  0.00000000000E+00  0.12017186665E+02  0.12017186665E+02  0.00000000000E+00 0.  1.
         21   -1    0    0  501  503 -0.00000000000E+00 -0.00000000000E+00 -0.73301328151E+02  0.73301328151E+02  0.00000000000E+00 0.  1.
          3    1    1    2  501    0 -0.31878360588E+01 -0.24047200661E+02 -0.60622619453E+01  0.25003623302E+02  0.00000000000E+00 0. -1.
         -3    1    1    2    0  502  0.31878360588E+01  0.24047200661E+02 -0.55221879541E+02  0.60314891514E+02  0.00000000000E+00 0.  1.
<mgrwt>
<rscale>  2 0.24257579E+02</rscale>
<asrwt>0</asrwt>
<pdfrwt beam="1">  1       21 0.18487979E-02 0.24257579E+02</pdfrwt>
<pdfrwt beam="2">  1       21 0.11277128E-01 0.24257579E+02</pdfrwt>
<totfact> 0.65336010E+07</totfact>
</mgrwt>
</event>
<event>
 4    1  0.7165636E+004  0.2214602E+02  0.7546771E-02  0.1705739E+00
         21   -1    0    0  503  502  0.00000000000E+00  0.00000000000E+00  0.75706743973E+02  0.75706743973E+02  0.00000000000E+00 0. -1.
         21   -1    0    0  501  503 -0.00000000000E+00 -0.00000000000E+00 -0.15807373426E+02  0.15807373426E+02  0.00000000000E+00 0. -1.
          3    1    1    2  501    0 -0.48782925989E+01  0.21602051580E+02 -0.52022242722E+01  0.22748835322E+02  0.00000000000E+00 0.  1.
         -3    1    1    2    0  502  0.48782925989E+01 -0.21602051580E+02  0.65101594819E+02  0.68765282077E+02  0.00000000000E+00 0. -1.
<mgrwt>
<rscale>  2 0.22146024E+02</rscale>
<asrwt>0</asrwt>
<pdfrwt beam="1">  1       21 0.11647191E-01 0.22146024E+02</pdfrwt>
<pdfrwt beam="2">  1       21 0.24319036E-02 0.22146024E+02</pdfrwt>
<totfact> 0.39665761E+07</totfact>
</mgrwt>
</event>
<event>
 4    1  0.7165636E+004  0.3431016E+02  0.7546771E-02  0.1554813E+00
         21   -1    0    0  501  502  0.00000000000E+00  0.00000000000E+00  0.20425191412E+02  0.20425191412E+02  0.00000000000E+00 0. -1.
         21   -1    0    0  502  503 -0.00000000000E+00 -0.00000000000E+00 -0.64027852998E+02  0.64027852998E+02  0.00000000000E+00 0. -1.
          3    1    1    2  501    0  0.28996242418E+02  0.18341348929E+02 -0.35145126560E+02  0.49115853610E+02  0.00000000000E+00 0. -1.
         -3    1    1    2    0  503 -0.28996242418E+02 -0.18341348929E+02 -0.84575350261E+01  0.35337190800E+02  0.00000000000E+00 0.  1.
<mgrwt>
<rscale>  2 0.34310161E+02</rscale>
<asrwt>0</asrwt>
<pdfrwt beam="1">  1       21 0.31423371E-02 0.34310161E+02</pdfrwt>
<pdfrwt beam="2">  1       21 0.98504390E-02 0.34310161E+02</pdfrwt>
<totfact> 0.38794444E+07</totfact>
</mgrwt>
</event>
<event>
 4    1  0.7165636E+004  0.2066568E+02  0.7546771E-02  0.1732405E+00
         21   -1    0    0  503  502  0.00000000000E+00  0.00000000000E+00  0.23014755975E+02  0.23014755975E+02  0.00000000000E+00 0.  1.
         21   -1    0    0  501  503 -0.00000000000E+00 -0.00000000000E+00 -0.19051666049E+02  0.19051666049E+02  0.00000000000E+00 0.  1.
          2    1    1    2  501    0 -0.21398962604E+01  0.20554594662E+02 -0.14097682640E+01  0.20713714401E+02  0.00000000000E+00 0.  1.
         -2    1    1    2    0  502  0.21398962604E+01 -0.20554594662E+02  0.53728581902E+01  0.21352707624E+02  0.00000000000E+00 0. -1.
<mgrwt>
<rscale>  2 0.20665685E+02</rscale>
<asrwt>0</asrwt>
<pdfrwt beam="1">  1       21 0.35407317E-02 0.20665685E+02</pdfrwt>
<pdfrwt beam="2">  1       21 0.29310255E-02 0.20665685E+02</pdfrwt>
<totfact> 0.19808769E+08</totfact>
</mgrwt>
</event>
<event>
 4    1  0.7165636E+004  0.2352886E+02  0.7546771E-02  0.1683078E+00
         21   -1    0    0  501  502  0.00000000000E+00  0.00000000000E+00  0.90404650741E+01  0.90404650741E+01  0.00000000000E+00 0.  1.
         21   -1    0    0  502  503 -0.00000000000E+00 -0.00000000000E+00 -0.69064297775E+02  0.69064297775E+02  0.00000000000E+00 0.  1.
          4    1    1    2  501    0 -0.19505166114E+02  0.13158857181E+02 -0.43159281251E+02  0.49156185629E+02  0.00000000000E+00 0. -1.
         -4    1    1    2    0  503  0.19505166114E+02 -0.13158857181E+02 -0.16864551450E+02  0.28948577220E+02  0.00000000000E+00 0.  1.
<mgrwt>
<rscale>  2 0.23528855E+02</rscale>
<asrwt>0</asrwt>
<pdfrwt beam="1">  1       21 0.13908408E-02 0.23528855E+02</pdfrwt>
<pdfrwt beam="2">  1       21 0.10625276E-01 0.23528855E+02</pdfrwt>
<totfact> 0.11044659E+08</totfact>
</mgrwt>
</event>
<event>
 4    1  0.7165636E+004  0.2005908E+02  0.7546771E-02  0.1744156E+00
         21   -1    0    0  503  502  0.00000000000E+00  0.00000000000E+00  0.15983774823E+03  0.15983774823E+03  0.00000000000E+00 0. -1.
         21   -1    0    0  501  503 -0.00000000000E+00 -0.00000000000E+00 -0.25208231192E+01  0.25208231192E+01  0.00000000000E+00 0. -1.
          5    1    1    2  501    0 -0.19658535397E+02  0.39885467413E+01  0.81674515160E+02  0.84101682181E+02  0.00000000000E+00 0.  1.
         -5    1    1    2    0  502  0.19658535397E+02 -0.39885467413E+01  0.75642409946E+02  0.78256889164E+02  0.00000000000E+00 0. -1.
<mgrwt>
<rscale>  2 0.20059076E+02</rscale>
<asrwt>0</asrwt>
<pdfrwt beam="1">  1       21 0.24590415E-01 0.20059076E+02</pdfrwt>
<pdfrwt beam="2">  1       21 0.38781907E-03 0.20059076E+02</pdfrwt>
<totfact> 0.16746457E+08</totfact>
</mgrwt>
</event>
<event>
 4    1  0.7165636E+004  0.2238294E+02  0.7546771E-02  0.1701712E+00
         21   -1    0    0  503  502  0.00000000000E+00  0.00000000000E+00  0.12667993114E+03  0.12667993114E+03  0.00000000000E+00 0.  1.
         21   -1    0    0  501  503 -0.00000000000E+00 -0.00000000000E+00 -0.49544173836E+01  0.49544173836E+01  0.00000000000E+00 0.  1.
          5    1    1    2  501    0 -0.96840219807E+01 -0.20179581979E+02  0.90426292742E+02  0.93155301672E+02  0.00000000000E+00 0.  1.
         -5    1    1    2    0  502  0.96840219807E+01  0.20179581979E+02  0.31299221019E+02  0.38479046856E+02  0.00000000000E+00 0. -1.
<mgrwt>
<rscale>  2 0.22382936E+02</rscale>
<asrwt>0</asrwt>
<pdfrwt beam="1">  1       21 0.19489218E-01 0.22382936E+02</pdfrwt>
<pdfrwt beam="2">  1       21 0.76221815E-03 0.22382936E+02</pdfrwt>
<totfact> 0.96009229E+07</totfact>
</mgrwt>
</event>
<event>
 4    1  0.7165636E+004  0.5731807E+02  0.7546771E-02  0.1409444E+00
         21   -1    0    0  501  502  0.00000000000E+00  0.00000000000E+00  0.35332738802E+01  0.35332738802E+01  0.00000000000E+00 0. -1.
         21   -1    0    0  502  503 -0.00000000000E+00 -0.00000000000E+00 -0.98327083848E+03  0.98327083848E+03  0.00000000000E+00 0. -1.
          5    1    1    2  501    0 -0.44922543692E+02  0.35599522153E+02 -0.60489096912E+03  0.60760056405E+03  0.00000000000E+00 0.  1.
         -5    1    1    2    0  503  0.44922543692E+02 -0.35599522153E+02 -0.37484659548E+03  0.37920354831E+03  0.00000000000E+00 0. -1.
<mgrwt>
<rscale>  2 0.57318068E+02</rscale>
<asrwt>0</asrwt>
<pdfrwt beam="1">  1       21 0.54358077E-03 0.57318068E+02</pdfrwt>
<pdfrwt beam="2">  1       21 0.15127239E+00 0.57318068E+02</pdfrwt>
<totfact> 0.28258355E+06</totfact>
</mgrwt>
</event>
<event>
 4    1  0.7165636E+004  0.2314341E+02  0.7546771E-02  0.1689196E+00
         21   -1    0    0  501  502  0.00000000000E+00  0.00000000000E+00  0.36247980581E+02  0.36247980581E+02  0.00000000000E+00 0.  1.
         21   -1    0    0  502  503 -0.00000000000E+00 -0.00000000000E+00 -0.14831481841E+02  0.14831481841E+02  0.00000000000E+00 0.  1.
          4    1    1    2  501    0  0.23138042787E+02 -0.49853327613E+00  0.91529545130E+01  0.24887630175E+02  0.00000000000E+00 0. -1.
         -4    1    1    2    0  503 -0.23138042787E+02  0.49853327613E+00  0.12263544226E+02  0.26191832246E+02  0.00000000000E+00 0.  1.
<mgrwt>
<rscale>  2 0.23143413E+02</rscale>
<asrwt>0</asrwt>
<pdfrwt beam="1">  1       21 0.55766124E-02 0.23143413E+02</pdfrwt>
<pdfrwt beam="2">  1       21 0.22817664E-02 0.23143413E+02</pdfrwt>
<totfact> 0.14741268E+08</totfact>
</mgrwt>
</event>
<event>
 4    1  0.7165636E+004  0.2453585E+02  0.7546771E-02  0.1667760E+00
         21   -1    0    0  503  502  0.00000000000E+00  0.00000000000E+00  0.12260454480E+03  0.12260454480E+03  0.00000000000E+00 0.  1.
         21   -1    0    0  501  503 -0.00000000000E+00 -0.00000000000E+00 -0.59539062640E+01  0.59539062640E+01  0.00000000000E+00 0.  1.
          3    1    1    2  501    0 -0.24535473187E+02  0.13553152609E+00  0.31411997304E+02  0.39858768018E+02  0.00000000000E+00 0. -1.
         -3    1    1    2    0  502  0.24535473187E+02 -0.13553152609E+00  0.85238641236E+02  0.88699683050E+02  0.00000000000E+00 0.  1.
<mgrwt>
<rscale>  2 0.24535848E+02</rscale>
<asrwt>0</asrwt>
<pdfrwt beam="1">  1       21 0.18862236E-01 0.24535848E+02</pdfrwt>
<pdfrwt beam="2">  1       21 0.91598567E-03 0.24535848E+02</pdfrwt>
<totfact> 0.79149688E+07</totfact>
</mgrwt>
</event>
<event>
 4    1  0.7165636E+004  0.2336077E+02  0.7546771E-02  0.1685728E+00
         21   -1    0    0  501  502  0.00000000000E+00  0.00000000000E+00  0.79676877662E+02  0.79676877662E+02  0.00000000000E+00 0.  1.
         21   -1    0    0  502  503 -0.00000000000E+00 -0.00000000000E+00 -0.76192888918E+01  0.76192888918E+01  0.00000000000E+00 0.  1.
          3    1    1    2  501    0 -0.15270397790E+02 -0.17678812143E+02  0.49904953346E+02  0.55101994664E+02  0.00000000000E+00 0.  1.
         -3    1    1    2    0  503  0.15270397790E+02  0.17678812143E+02  0.22152635424E+02  0.32194171890E+02  0.00000000000E+00 0. -1.
<mgrwt>
<rscale>  2 0.23360767E+02</rscale>
<asrwt>0</asrwt>
<pdfrwt beam="1">  1       21 0.12257981E-01 0.23360767E+02</pdfrwt>
<pdfrwt beam="2">  1       21 0.11721983E-02 0.23360767E+02</pdfrwt>
<totfact> 0.11246381E+08</totfact>
</mgrwt>
</event>
<event>
 4    1  0.7165636E+004  0.2956484E+02  0.7546771E-02  0.1602949E+00
         21   -1    0    0  503  502  0.00000000000E+00  0.00000000000E+00  0.56865264514E+01  0.56865264514E+01  0.00000000000E+00 0. -1.
         21   -1    0    0  501  503 -0.00000000000E+00 -0.00000000000E+00 -0.16951140767E+03  0.16951140767E+03  0.00000000000E+00 0. -1.
          5    1    1    2  501    0  0.25106697755E+02  0.15611969997E+02 -0.10865715641E+03  0.11260753757E+03  0.00000000000E+00 0.  1.
         -5    1    1    2    0  502 -0.25106697755E+02 -0.15611969997E+02 -0.55167724805E+02  0.62590396544E+02  0.00000000000E+00 0. -1.
<mgrwt>
<rscale>  2 0.29564842E+02</rscale>
<asrwt>0</asrwt>
<pdfrwt beam="1">  1       21 0.87485034E-03 0.29564842E+02</pdfrwt>
<pdfrwt beam="2">  1       21 0.26078675E-01 0.29564842E+02</pdfrwt>
<totfact> 0.49877803E+07</totfact>
</mgrwt>
</event>
<event>
 4    1  0.7165636E+004  0.2572932E+02  0.7546771E-02  0.1650742E+00
         21   -1    0    0  503  502  0.00000000000E+00  0.00000000000E+00  0.40294734681E+01  0.40294734681E+01  0.00000000000E+00 0. -1.
         21   -1    0    0  501  503 -0.00000000000E+00 -0.00000000000E+00 -0.22669358488E+03  0.22669358488E+03  0.00000000000E+00 0. -1.
          4    1    1    2  501    0  0.19769135462E+02 -0.16467514969E+02 -0.17185917212E+03  0.17377448837E+03  0.00000000000E+00 0. -1.
         -4    1    1    2    0  502 -0.19769135462E+02  0.16467514969E+02 -0.50804939290E+02  0.56948569977E+02  0.00000000000E+00 0.  1.
<mgrwt>
<rscale>  2 0.25729317E+02</rscale>
<asrwt>0</asrwt>
<pdfrwt beam="1">  1       21 0.61991891E-03 0.25729317E+02</pdfrwt>
<pdfrwt beam="2">  1       21 0.34875941E-01 0.25729317E+02</pdfrwt>
<totfact> 0.47558020E+07</totfact>
</mgrwt>
</event>
<event>
 4    1  0.7165636E+004  0.2751283E+02  0.7546771E-02  0.1627329E+00
         21   -1    0    0  503  502  0.00000000000E+00  0.00000000000E+00  0.20873589372E+02  0.20873589372E+02  0.00000000000E+00 0. -1.
         21   -1    0    0  501  503 -0.00000000000E+00 -0.00000000000E+00 -0.37043352322E+02  0.37043352322E+02  0.00000000000E+00 0. -1.
          2    1    1    2  501    0 -0.33406267026E+00 -0.27510800346E+02 -0.12285780810E+02  0.30131315000E+02  0.00000000000E+00 0.  1.
         -2    1    1    2    0  502  0.33406267026E+00  0.27510800346E+02 -0.38839821400E+01  0.27785626694E+02  0.00000000000E+00 0. -1.
<mgrwt>
<rscale>  2 0.27512829E+02</rscale>
<asrwt>0</asrwt>
<pdfrwt beam="1">  1       21 0.32113214E-02 0.27512829E+02</pdfrwt>
<pdfrwt beam="2">  1       21 0.56989773E-02 0.27512829E+02</pdfrwt>
<totfact> 0.87719285E+07</totfact>
</mgrwt>
</event>
<event>
 4    1  0.7165636E+004  0.2142566E+02  0.7546771E-02  0.1718378E+00
         21   -1    0    0  503  502  0.00000000000E+00  0.00000000000E+00  0.51679674970E+00  0.51679674970E+00  0.00000000000E+00 0.  1.
         21   -1    0    0  501  503 -0.00000000000E+00 -0.00000000000E+00 -0.89346412536E+03  0.89346412536E+03  0.00000000000E+00 0.  1.
          3    1    1    2  501    0 -0.16730272244E+02  0.13384948569E+02 -0.41241657040E+03  0.41297274292E+03  0.00000000000E+00 0.  1.
         -3    1    1    2    0  502  0.16730272244E+02 -0.13384948569E+02 -0.48053075822E+03  0.48100817919E+03  0.00000000000E+00 0. -1.
<mgrwt>
<rscale>  2 0.21425659E+02</rscale>
<asrwt>0</asrwt>
<pdfrwt beam="1">  1       21 0.79507005E-04 0.21425659E+02</pdfrwt>
<pdfrwt beam="2">  1       21 0.13745634E+00 0.21425659E+02</pdfrwt>
<totfact> 0.52929026E+07</totfact>
</mgrwt>
</event>
<event>
 4    1  0.7165636E+004  0.2257262E+02  0.7546771E-02  0.1698533E+00
         21   -1    0    0  501  502  0.00000000000E+00  0.00000000000E+00  0.64101484606E+01  0.64101484606E+01  0.00000000000E+00 0.  1.
         21   -1    0    0  502  503 -0.00000000000E+00 -0.00000000000E+00 -0.81234727362E+02  0.81234727362E+02  0.00000000000E+00 0.  1.
          5    1    1    2  501    0 -0.21539352549E+02 -0.67512653127E+01 -0.30984435719E+02  0.38334821616E+02  0.00000000000E+00 0. -1.
         -5    1    1    2    0  503  0.21539352549E+02  0.67512653127E+01 -0.43840143183E+02  0.49310054206E+02  0.00000000000E+00 0.  1.
<mgrwt>
<rscale>  2 0.22572623E+02</rscale>
<asrwt>0</asrwt>
<pdfrwt beam="1">  1       21 0.98617661E-03 0.22572623E+02</pdfrwt>
<pdfrwt beam="2">  1       21 0.12497651E-01 0.22572623E+02</pdfrwt>
<totfact> 0.13980045E+08</totfact>
</mgrwt>
</event>
<event>
 4    1  0.7165636E+004  0.2004208E+02  0.7546771E-02  0.1744493E+00
         21   -1    0    0  503  502  0.00000000000E+00  0.00000000000E+00  0.11649967948E+02  0.11649967948E+02  0.00000000000E+00 0. -1.
         21   -1    0    0  501  503 -0.00000000000E+00 -0.00000000000E+00 -0.51485368019E+02  0.51485368019E+02  0.00000000000E+00 0. -1.
          2    1    1    2  501    0 -0.19218375060E+02  0.56867357466E+01 -0.17750729449E+01  0.20120531488E+02  0.00000000000E+00 0. -1.
         -2    1    1    2    0  502  0.19218375060E+02 -0.56867357466E+01 -0.38060327126E+02  0.43014804479E+02  0.00000000000E+00 0.  1.
<mgrwt>
<rscale>  2 0.20042078E+02</rscale>
<asrwt>0</asrwt>
<pdfrwt beam="1">  1       21 0.17923027E-02 0.20042078E+02</pdfrwt>
<pdfrwt beam="2">  1       21 0.79208261E-02 0.20042078E+02</pdfrwt>
<totfact> 0.11605947E+08</totfact>
</mgrwt>
</event>
<event>
 4    1  0.7165636E+004  0.2131103E+02  0.7546771E-02  0.1720447E+00
         21   -1    0    0  503  502  0.00000000000E+00  0.00000000000E+00  0.20855371363E+03  0.20855371363E+03  0.00000000000E+00 0. -1.
         21   -1    0    0  501  503 -0.00000000000E+00 -0.00000000000E+00 -0.27186559910E+01  0.27186559910E+01  0.00000000000E+00 0. -1.
          3    1    1    2  501    0  0.15256618114E+02  0.14879372987E+02  0.55794785159E+02  0.59726193481E+02  0.00000000000E+00 0.  1.
         -3    1    1    2    0  502 -0.15256618114E+02 -0.14879372987E+02  0.15004027247E+03  0.15154617613E+03  0.00000000000E+00 0. -1.
<mgrwt>
<rscale>  2 0.21311033E+02</rscale>
<asrwt>0</asrwt>
<pdfrwt beam="1">  1       21 0.32085174E-01 0.21311033E+02</pdfrwt>
<pdfrwt beam="2">  1       21 0.41825493E-03 0.21311033E+02</pdfrwt>
<totfact> 0.94603031E+07</totfact>
</mgrwt>
</event>
<event>
 4    1  0.7165636E+004  0.2566101E+02  0.7546771E-02  0.1651685E+00
         21   -1    0    0  501  502  0.00000000000E+00  0.00000000000E+00  0.17765937535E+02  0.17765937535E+02  0.00000000000E+00 0.  1.
         21   -1    0    0  502  503 -0.00000000000E+00 -0.00000000000E+00 -0.37507206014E+02  0.37507206014E+02  0.00000000000E+00 0.  1.
          2    1    1    2  501    0 -0.16478037029E+02  0.19671344625E+02 -0.12872779693E+02  0.28708813294E+02  0.00000000000E+00 0.  1.
         -2    1    1    2    0  503  0.16478037029E+02 -0.19671344625E+02 -0.68684887861E+01  0.26564330255E+02  0.00000000000E+00 0. -1.
<mgrwt>
<rscale>  2 0.25661011E+02</rscale>
<asrwt>0</asrwt>
<pdfrwt beam="1">  1       21 0.27332212E-02 0.25661011E+02</pdfrwt>
<pdfrwt beam="2">  1       21 0.57703393E-02 0.25661011E+02</pdfrwt>
<totfact> 0.10864648E+08</totfact>
</mgrwt>
</event>
<event>
 4    1  0.7165636E+004  0.3324161E+02  0.7546771E-02  0.1564794E+00
         21   -1    0    0  501  502  0.00000000000E+00  0.00000000000E+00  0.15828507700E+03  0.15828507700E+03  0.00000000000E+00 0.  1.
         21   -1    0    0  502  503 -0.00000000000E+00 -0.00000000000E+00 -0.73122899928E+01  0.73122899928E+01  0.00000000000E+00 0.  1.
          5    1    1    2  501    0  0.18136307741E+02  0.27858188320E+02  0.57865260725E+02  0.66733744940E+02  0.00000000000E+00 0. -1.
         -5    1    1    2    0  503 -0.18136307741E+02 -0.27858188320E+02  0.93107526280E+02  0.98863622050E+02  0.00000000000E+00 0.  1.
<mgrwt>
<rscale>  2 0.33241605E+02</rscale>
<asrwt>0</asrwt>
<pdfrwt beam="1">  1       21 0.24351548E-01 0.33241605E+02</pdfrwt>
<pdfrwt beam="2">  1       21 0.11249678E-02 0.33241605E+02</pdfrwt>
<totfact> 0.39467735E+07</totfact>
</mgrwt>
</event>
<event>
 4    1  0.7165636E+004  0.2022988E+02  0.7546771E-02  0.1740795E+00
         21   -1    0    0  503  502  0.00000000000E+00  0.00000000000E+00  0.21383482701E+03  0.21383482701E+03  0.00000000000E+00 0.  1.
         21   -1    0    0  501  503 -0.00000000000E+00 -0.00000000000E+00 -0.19396920301E+01  0.19396920301E+01  0.00000000000E+00 0.  1.
          3    1    1    2  501    0 -0.20086222291E+02 -0.24066226591E+01  0.11839994715E+03  0.12011575935E+03  0.00000000000E+00 0.  1.
         -3    1    1    2    0  502  0.20086222291E+02  0.24066226591E+01  0.93495187832E+02  0.95658759694E+02  0.00000000000E+00 0. -1.
<mgrwt>
<rscale>  2 0.20229883E+02</rscale>
<asrwt>0</asrwt>
<pdfrwt beam="1">  1       21 0.32897647E-01 0.20229883E+02</pdfrwt>
<pdfrwt beam="2">  1       21 0.29841433E-03 0.20229883E+02</pdfrwt>
<totfact> 0.14567270E+08</totfact>
</mgrwt>
</event>
<event>
 4    1  0.7165636E+004  0.2348351E+02  0.7546771E-02  0.1683790E+00
         21   -1    0    0  503  502  0.00000000000E+00  0.00000000000E+00  0.73864981416E+01  0.73864981416E+01  0.00000000000E+00 0.  1.
         21   -1    0    0  501  503 -0.00000000000E+00 -0.00000000000E+00 -0.83836481479E+02  0.83836481479E+02  0.00000000000E+00 0.  1.
          4    1    1    2  501    0 -0.14617314770E+01  0.23437973664E+02 -0.53315296755E+02  0.58258013495E+02  0.00000000000E+00 0.  1.
         -4    1    1    2    0  502  0.14617314770E+01 -0.23437973664E+02 -0.23134686583E+02  0.32964966126E+02  0.00000000000E+00 0. -1.
<mgrwt>
<rscale>  2 0.23483511E+02</rscale>
<asrwt>0</asrwt>
<pdfrwt beam="1">  1       21 0.11363843E-02 0.23483511E+02</pdfrwt>
<pdfrwt beam="2">  1       21 0.12897921E-01 0.23483511E+02</pdfrwt>
<totfact> 0.10835336E+08</totfact>
</mgrwt>
</event>
<event>
 4    1  0.7165636E+004  0.2963444E+02  0.7546771E-02  0.1602165E+00
         21   -1    0    0  503  502  0.00000000000E+00  0.00000000000E+00  0.12869085694E+02  0.12869085694E+02  0.00000000000E+00 0. -1.
         21   -1    0    0  501  503 -0.00000000000E+00 -0.00000000000E+00 -0.72655375482E+02  0.72655375482E+02  0.00000000000E+00 0. -1.
          4    1    1    2  501    0 -0.22143085228E+02 -0.19694762510E+02 -0.19352704590E+02  0.35393884622E+02  0.00000000000E+00 0.  1.
         -4    1    1    2    0  502  0.22143085228E+02  0.19694762510E+02 -0.40433585198E+02  0.50130576554E+02  0.00000000000E+00 0. -1.
<mgrwt>
<rscale>  2 0.29634438E+02</rscale>
<asrwt>0</asrwt>
<pdfrwt beam="1">  1       21 0.19798593E-02 0.29634438E+02</pdfrwt>
<pdfrwt beam="2">  1       21 0.11177750E-01 0.29634438E+02</pdfrwt>
<totfact> 0.62651004E+07</totfact>
</mgrwt>
</event>
<event>
 4    1  0.7165636E+004  0.2705773E+02  0.7546771E-02  0.1633092E+00
         21   -1    0    0  501  502  0.00000000000E+00  0.00000000000E+00  0.20669157526E+02  0.20669157526E+02  0.00000000000E+00 0.  1.
         21   -1    0    0  502  503 -0.00000000000E+00 -0.00000000000E+00 -0.38327699688E+02  0.38327699688E+02  0.00000000000E+00 0.  1.
          5    1    1    2  501    0 -0.10474967840E+02  0.24947858101E+02 -0.70567048350E+00  0.27066927161E+02  0.00000000000E+00 0. -1.
         -5    1    1    2    0  503  0.10474967840E+02 -0.24947858101E+02 -0.16952871678E+02  0.31929930054E+02  0.00000000000E+00 0.  1.
<mgrwt>
<rscale>  2 0.27057727E+02</rscale>
<asrwt>0</asrwt>
<pdfrwt beam="1">  1       21 0.31798704E-02 0.27057727E+02</pdfrwt>
<pdfrwt beam="2">  1       21 0.58965692E-02 0.27057727E+02</pdfrwt>
<totfact> 0.83958133E+07</totfact>
</mgrwt>
</event>
<event>
 4    1  0.7165636E+004  0.3379274E+02  0.7546771E-02  0.1559590E+00
         21   -1    0    0  503  502  0.00000000000E+00  0.00000000000E+00  0.48511627832E+02  0.48511627832E+02  0.00000000000E+00 0. -1.
         21   -1    0    0  501  503 -0.00000000000E+00 -0.00000000000E+00 -0.23543385533E+02  0.23543385533E+02  0.00000000000E+00 0. -1.
          2    1    1    2  501    0  0.19779838177E+02  0.27399036681E+02  0.12033411552E+02  0.35871328425E+02  0.00000000000E+00 0. -1.
         -2    1    1    2    0  502 -0.19779838177E+02 -0.27399036681E+02  0.12934830748E+02  0.36183684940E+02  0.00000000000E+00 0.  1.
<mgrwt>
<rscale>  2 0.33792739E+02</rscale>
<asrwt>0</asrwt>
<pdfrwt beam="1">  1       21 0.74633273E-02 0.33792739E+02</pdfrwt>
<pdfrwt beam="2">  1       21 0.36220593E-02 0.33792739E+02</pdfrwt>
<totfact> 0.48975409E+07</totfact>
</mgrwt>
</event>
<event>
 4    1  0.7165636E+004  0.2265943E+02  0.7546771E-02  0.1697091E+00
         21   -1    0    0  503  502  0.00000000000E+00  0.00000000000E+00  0.25352153284E+02  0.25352153284E+02  0.00000000000E+00 0. -1.
         21   -1    0    0  501  503 -0.00000000000E+00 -0.00000000000E+00 -0.23569557649E+02  0.23569557649E+02  0.00000000000E+00 0. -1.
          5    1    1    2  501    0 -0.16701635213E+02  0.15313559466E+02  0.10067414124E+02  0.24795212228E+02  0.00000000000E+00 0. -1.
         -5    1    1    2    0  502  0.16701635213E+02 -0.15313559466E+02 -0.82848184884E+01  0.24126498704E+02  0.00000000000E+00 0.  1.
<mgrwt>
<rscale>  2 0.22659429E+02</rscale>
<asrwt>0</asrwt>
<pdfrwt beam="1">  1       21 0.39003312E-02 0.22659429E+02</pdfrwt>
<pdfrwt beam="2">  1       21 0.36260858E-02 0.22659429E+02</pdfrwt>
<totfact> 0.12571482E+08</totfact>
</mgrwt>
</event>
<event>
 4    1  0.7165636E+004  0.2653021E+02  0.7546771E-02  0.1639948E+00
         21   -1    0    0  501  502  0.00000000000E+00  0.00000000000E+00  0.12825665783E+03  0.12825665783E+03  0.00000000000E+00 0.  1.
         21   -1    0    0  502  503 -0.00000000000E+00 -0.00000000000E+00 -0.84233069547E+01  0.84233069547E+01  0.00000000000E+00 0.  1.
          2    1    1    2  501    0  0.85216519947E+01  0.25124357352E+02  0.19573300817E+02  0.32969167262E+02  0.00000000000E+00 0. -1.
         -2    1    1    2    0  503 -0.85216519947E+01 -0.25124357352E+02  0.10026005006E+03  0.10371079752E+03  0.00000000000E+00 0.  1.
<mgrwt>
<rscale>  2 0.26530207E+02</rscale>
<asrwt>0</asrwt>
<pdfrwt beam="1">  1       21 0.19731792E-01 0.26530207E+02</pdfrwt>
<pdfrwt beam="2">  1       21 0.12958935E-02 0.26530207E+02</pdfrwt>
<totfact> 0.44118508E+07</totfact>
</mgrwt>
</event>
<event>
 4    1  0.7165636E+004  0.2523066E+02  0.7546771E-02  0.1657711E+00
         21   -1    0    0  501  502  0.00000000000E+00  0.00000000000E+00  0.56962454158E+02  0.56962454158E+02  0.00000000000E+00 0.  1.
         21   -1    0    0  502  503 -0.00000000000E+00 -0.00000000000E+00 -0.11199077766E+02  0.11199077766E+02  0.00000000000E+00 0.  1.
          4    1    1    2  501    0 -0.25062885171E+02  0.29048215853E+01  0.24444109489E+02  0.35129769289E+02  0.00000000000E+00 0.  1.
         -4    1    1    2    0  503  0.25062885171E+02 -0.29048215853E+01  0.21319266903E+02  0.33031762636E+02  0.00000000000E+00 0. -1.
<mgrwt>
<rscale>  2 0.25230660E+02</rscale>
<asrwt>0</asrwt>
<pdfrwt beam="1">  1       21 0.87634543E-02 0.25230660E+02</pdfrwt>
<pdfrwt beam="2">  1       21 0.17229351E-02 0.25230660E+02</pdfrwt>
<totfact> 0.11173785E+08</totfact>
</mgrwt>
</event>
<event>
 4    1  0.7165636E+004  0.2283089E+02  0.7546771E-02  0.1694266E+00
         21   -1    0    0  501  502  0.00000000000E+00  0.00000000000E+00  0.31370342518E+02  0.31370342518E+02  0.00000000000E+00 0. -1.
         21   -1    0    0  502  503 -0.00000000000E+00 -0.00000000000E+00 -0.16616281440E+02  0.16616281440E+02  0.00000000000E+00 0. -1.
          5    1    1    2  501    0 -0.82308190271E+01  0.21295612418E+02  0.74764509770E+01  0.24023879981E+02  0.00000000000E+00 0. -1.
         -5    1    1    2    0  503  0.82308190271E+01 -0.21295612418E+02  0.72776101009E+01  0.23962743977E+02  0.00000000000E+00 0.  1.
<mgrwt>
<rscale>  2 0.22830889E+02</rscale>
<asrwt>0</asrwt>
<pdfrwt beam="1">  1       21 0.48262065E-02 0.22830889E+02</pdfrwt>
<pdfrwt beam="2">  1       21 0.25563510E-02 0.22830889E+02</pdfrwt>
<totfact> 0.15509826E+08</totfact>
</mgrwt>
</event>
<event>
 4    1  0.7165636E+004  0.2110315E+02  0.7546771E-02  0.1724241E+00
         21   -1    0    0  503  502  0.00000000000E+00  0.00000000000E+00  0.61611058700E+01  0.61611058700E+01  0.00000000000E+00 0.  1.
         21   -1    0    0  501  503 -0.00000000000E+00 -0.00000000000E+00 -0.78291511892E+02  0.78291511892E+02  0.00000000000E+00 0.  1.
          1    1    1    2  501    0 -0.15181023333E+00  0.21102599804E+02 -0.47763210279E+02  0.52217497269E+02  0.00000000000E+00 0.  1.
         -1    1    1    2    0  502  0.15181023333E+00 -0.21102599804E+02 -0.24367195743E+02  0.32235120494E+02  0.00000000000E+00 0. -1.
<mgrwt>
<rscale>  2 0.21103146E+02</rscale>
<asrwt>0</asrwt>
<pdfrwt beam="1">  1       21 0.94786256E-03 0.21103146E+02</pdfrwt>
<pdfrwt beam="2">  1       21 0.12044846E-01 0.21103146E+02</pdfrwt>
<totfact> 0.15464123E+08</totfact>
</mgrwt>
</event>
<event>
 4    1  0.7165636E+004  0.2402695E+02  0.7546771E-02  0.1675385E+00
         21   -1    0    0  503  502  0.00000000000E+00  0.00000000000E+00  0.25496872249E+04  0.25496872249E+04  0.00000000000E+00 0. -1.
         21   -1    0    0  501  503 -0.00000000000E+00 -0.00000000000E+00 -0.22848611375E+00  0.22848611375E+00  0.00000000000E+00 0. -1.
          2    1    1    2  501    0  0.23657909713E+02 -0.41949524618E+01  0.11534227242E+04  0.11536729497E+04  0.00000000000E+00 0.  1.
         -2    1    1    2    0  502 -0.23657909713E+02  0.41949524618E+01  0.13960360147E+04  0.13962427613E+04  0.00000000000E+00 0. -1.
<mgrwt>
<rscale>  2 0.24026950E+02</rscale>
<asrwt>0</asrwt>
<pdfrwt beam="1">  1       21 0.39223679E+00 0.24026950E+02</pdfrwt>
<pdfrwt beam="2">  1       21 0.35153752E-04 0.24026950E+02</pdfrwt>
<totfact> 0.73067536E+06</totfact>
</mgrwt>
</event>
<event>
 4    1  0.7165636E+004  0.2663010E+02  0.7546771E-02  0.1638635E+00
         21   -1    0    0  503  502  0.00000000000E+00  0.00000000000E+00  0.26140762455E+01  0.26140762455E+01  0.00000000000E+00 0.  1.
         21   -1    0    0  501  503 -0.00000000000E+00 -0.00000000000E+00 -0.28606546913E+03  0.28606546913E+03  0.00000000000E+00 0.  1.
          4    1    1    2  501    0  0.12692698671E+02 -0.23410625922E+02 -0.17453404004E+03  0.17655393833E+03  0.00000000000E+00 0. -1.
         -4    1    1    2    0  502 -0.12692698671E+02  0.23410625922E+02 -0.10891735284E+03  0.11212560705E+03  0.00000000000E+00 0.  1.
<mgrwt>
<rscale>  2 0.26630096E+02</rscale>
<asrwt>0</asrwt>
<pdfrwt beam="1">  1       21 0.40216590E-03 0.26630096E+02</pdfrwt>
<pdfrwt beam="2">  1       21 0.44010037E-01 0.26630096E+02</pdfrwt>
<totfact> 0.58614041E+07</totfact>
</mgrwt>
</event>
<event>
 4    1  0.7165636E+004  0.2173325E+02  0.7546771E-02  0.1712907E+00
         21   -1    0    0  503  502  0.00000000000E+00  0.00000000000E+00  0.93542661920E+00  0.93542661920E+00  0.00000000000E+00 0.  1.
         21   -1    0    0  501  503 -0.00000000000E+00 -0.00000000000E+00 -0.50522801064E+03  0.50522801064E+03  0.00000000000E+00 0.  1.
          5    1    1    2  501    0 -0.20061025366E+00 -0.21732323699E+02 -0.25819086695E+03  0.25910395195E+03  0.00000000000E+00 0. -1.
         -5    1    1    2    0  502  0.20061025366E+00  0.21732323699E+02 -0.24610171707E+03  0.24705948531E+03  0.00000000000E+00 0.  1.
<mgrwt>
<rscale>  2 0.21733250E+02</rscale>
<asrwt>0</asrwt>
<pdfrwt beam="1">  1       21 0.14391207E-03 0.21733250E+02</pdfrwt>
<pdfrwt beam="2">  1       21 0.77727234E-01 0.21733250E+02</pdfrwt>
<totfact> 0.79803097E+07</totfact>
</mgrwt>
</event>
<event>
 4    1  0.7165636E+004  0.2159240E+02  0.7546771E-02  0.1715398E+00
         21   -1    0    0  501  502  0.00000000000E+00  0.00000000000E+00  0.37589980131E+03  0.37589980131E+03  0.00000000000E+00 0.  1.
         21   -1    0    0  502  503 -0.00000000000E+00 -0.00000000000E+00 -0.12924865243E+01  0.12924865243E+01  0.00000000000E+00 0.  1.
          4    1    1    2  501    0  0.18438390276E+02  0.11236427911E+02  0.14941008934E+03  0.15096226795E+03  0.00000000000E+00 0. -1.
         -4    1    1    2    0  503 -0.18438390276E+02 -0.11236427911E+02  0.22519722544E+03  0.22623001988E+03  0.00000000000E+00 0.  1.
<mgrwt>
<rscale>  2 0.21592396E+02</rscale>
<asrwt>0</asrwt>
<pdfrwt beam="1">  1       21 0.57830651E-01 0.21592396E+02</pdfrwt>
<pdfrwt beam="2">  1       21 0.19884438E-03 0.21592396E+02</pdfrwt>
<totfact> 0.91298898E+07</totfact>
</mgrwt>
</event>
<event>
 4    1  0.7165636E+004  0.3910958E+02  0.7546771E-02  0.1514868E+00
         21   -1    0    0  503  502  0.00000000000E+00  0.00000000000E+00  0.90300109070E+01  0.90300109070E+01  0.00000000000E+00 0.  1.
         21   -1    0    0  501  503 -0.00000000000E+00 -0.00000000000E+00 -0.16957390917E+03  0.16957390917E+03  0.00000000000E+00 0.  1.
          4    1    1    2  501    0 -0.34903791397E+02  0.17643251369E+02 -0.77300573090E+02  0.86631042778E+02  0.00000000000E+00 0. -1.
         -4    1    1    2    0  502  0.34903791397E+02 -0.17643251369E+02 -0.83243325170E+02  0.91972877296E+02  0.00000000000E+00 0.  1.
<mgrwt>
<rscale>  2 0.39109576E+02</rscale>
<asrwt>0</asrwt>
<pdfrwt beam="1">  1       21 0.13892326E-02 0.39109576E+02</pdfrwt>
<pdfrwt beam="2">  1       21 0.26088292E-01 0.39109576E+02</pdfrwt>
<totfact> 0.25935000E+07</totfact>
</mgrwt>
</event>
<event>
 4    1  0.7165636E+004  0.2274058E+02  0.7546771E-02  0.1695750E+00
         21   -1    0    0  501  502  0.00000000000E+00  0.00000000000E+00  0.61491481505E+01  0.61491481505E+01  0.00000000000E+00 0.  1.
         21   -1    0    0  502  503 -0.00000000000E+00 -0.00000000000E+00 -0.85857341903E+02  0.85857341903E+02  0.00000000000E+00 0.  1.
          1    1    1    2  501    0 -0.10437703229E+02  0.20203676136E+02 -0.46438437644E+02  0.51707472080E+02  0.00000000000E+00 0.  1.
         -1    1    1    2    0  503  0.10437703229E+02 -0.20203676136E+02 -0.33269756109E+02  0.40299017973E+02  0.00000000000E+00 0. -1.
<mgrwt>
<rscale>  2 0.22740584E+02</rscale>
<asrwt>0</asrwt>
<pdfrwt beam="1">  1       21 0.94602284E-03 0.22740584E+02</pdfrwt>
<pdfrwt beam="2">  1       21 0.13208821E-01 0.22740584E+02</pdfrwt>
<totfact> 0.13586692E+08</totfact>
</mgrwt>
</event>
<event>
 4    1  0.7165636E+004  0.2017254E+02  0.7546771E-02  0.1741918E+00
         21   -1    0    0  501  502  0.00000000000E+00  0.00000000000E+00  0.59520002696E+03  0.59520002696E+03  0.00000000000E+00 0. -1.
         21   -1    0    0  502  503 -0.00000000000E+00 -0.00000000000E+00 -0.68626667226E+00  0.68626667226E+00  0.00000000000E+00 0. -1.
          5    1    1    2  501    0  0.34513694438E+01  0.19875099622E+02  0.31551792358E+03  0.31616212872E+03  0.00000000000E+00 0.  1.
         -5    1    1    2    0  503 -0.34513694438E+01 -0.19875099622E+02  0.27899583671E+03  0.27972416491E+03  0.00000000000E+00 0. -1.
<mgrwt>
<rscale>  2 0.20172544E+02</rscale>
<asrwt>0</asrwt>
<pdfrwt beam="1">  1       21 0.91568822E-01 0.20172544E+02</pdfrwt>
<pdfrwt beam="2">  1       21 0.10557996E-03 0.20172544E+02</pdfrwt>
<totfact> 0.86196883E+07</totfact>
</mgrwt>
</event>
<event>
 4    1  0.7165636E+004  0.2317404E+02  0.7546771E-02  0.1688704E+00
         21   -1    0    0  501  502  0.00000000000E+00  0.00000000000E+00  0.17731905399E+02  0.17731905399E+02  0.00000000000E+00 0. -1.
         21   -1    0    0  502  503 -0.00000000000E+00 -0.00000000000E+00 -0.30484392848E+02  0.30484392848E+02  0.00000000000E+00 0. -1.
          3    1    1    2  501    0 -0.17827783154E+02  0.14805616465E+02 -0.83189884398E+01  0.24621975952E+02  0.00000000000E+00 0. -1.
         -3    1    1    2    0  503  0.17827783154E+02 -0.14805616465E+02 -0.44334990088E+01  0.23594322295E+02  0.00000000000E+00 0.  1.
<mgrwt>
<rscale>  2 0.23174040E+02</rscale>
<asrwt>0</asrwt>
<pdfrwt beam="1">  1       21 0.27279855E-02 0.23174040E+02</pdfrwt>
<pdfrwt beam="2">  1       21 0.46899066E-02 0.23174040E+02</pdfrwt>
<totfact> 0.14743826E+08</totfact>
</mgrwt>
</event>
<event>
 4    1  0.7165636E+004  0.2606317E+02  0.7546771E-02  0.1646185E+00
         21   -1    0    0  501  502  0.00000000000E+00  0.00000000000E+00  0.15571804682E+03  0.15571804682E+03  0.00000000000E+00 0. -1.
         21   -1    0    0  502  503 -0.00000000000E+00 -0.00000000000E+00 -0.43726423557E+01  0.43726423557E+01  0.00000000000E+00 0. -1.
          3    1    1    2  501    0  0.73963045188E+00 -0.26052671451E+02  0.79565719553E+02  0.83725697793E+02  0.00000000000E+00 0. -1.
         -3    1    1    2    0  503 -0.73963045188E+00  0.26052671451E+02  0.71779684912E+02  0.76364991384E+02  0.00000000000E+00 0.  1.
<mgrwt>
<rscale>  2 0.26063168E+02</rscale>
<asrwt>0</asrwt>
<pdfrwt beam="1">  1       21 0.23956618E-01 0.26063168E+02</pdfrwt>
<pdfrwt beam="2">  1       21 0.67271433E-03 0.26063168E+02</pdfrwt>
<totfact> 0.83685765E+07</totfact>
</mgrwt>
</event>
<event>
 4    1  0.7165636E+004  0.2161432E+02  0.7546771E-02  0.1715009E+00
         21   -1    0    0  501  502  0.00000000000E+00  0.00000000000E+00  0.18898328751E+03  0.18898328751E+03  0.00000000000E+00 0.  1.
         21   -1    0    0  502  503 -0.00000000000E+00 -0.00000000000E+00 -0.29731778452E+01  0.29731778452E+01  0.00000000000E+00 0.  1.
          5    1    1    2  501    0  0.10530024022E+02 -0.18875842814E+02  0.13240815148E+03  0.13416071491E+03  0.00000000000E+00 0. -1.
         -5    1    1    2    0  503 -0.10530024022E+02  0.18875842814E+02  0.53601958188E+02  0.57795750444E+02  0.00000000000E+00 0.  1.
<mgrwt>
<rscale>  2 0.21614320E+02</rscale>
<asrwt>0</asrwt>
<pdfrwt beam="1">  1       21 0.29074342E-01 0.21614320E+02</pdfrwt>
<pdfrwt beam="2">  1       21 0.45741212E-03 0.21614320E+02</pdfrwt>
<totfact> 0.99621026E+07</totfact>
</mgrwt>
</event>
<event>
 4    1  0.7165636E+004  0.3096094E+02  0.7546771E-02  0.1587703E+00
         21   -1    0    0  501  502  0.00000000000E+00  0.00000000000E+00  0.15193755908E+03  0.15193755908E+03  0.00000000000E+00 0.  1.
         21   -1    0    0  502  503 -0.00000000000E+00 -0.00000000000E+00 -0.66775998350E+01  0.66775998350E+01  0.00000000000E+00 0.  1.
          1    1    1    2  501    0  0.25590719763E+02 -0.17426839530E+02  0.91262015029E+02  0.96370820590E+02  0.00000000000E+00 0. -1.
         -1    1    1    2    0  503 -0.25590719763E+02  0.17426839530E+02  0.53997944217E+02  0.62244338326E+02  0.00000000000E+00 0.  1.
<mgrwt>
<rscale>  2 0.30960938E+02</rscale>
<asrwt>0</asrwt>
<pdfrwt beam="1">  1       21 0.23375007E-01 0.30960938E+02</pdfrwt>
<pdfrwt beam="2">  1       21 0.10273232E-02 0.30960938E+02</pdfrwt>
<totfact> 0.48088707E+07</totfact>
</mgrwt>
</event>
<event>
 4    1  0.7165636E+004  0.5116531E+02  0.7546771E-02  0.1439156E+00
         21   -1    0    0  501  502  0.00000000000E+00  0.00000000000E+00  0.19541472858E+02  0.19541472858E+02  0.00000000000E+00 0. -1.
         21   -1    0    0  502  503 -0.00000000000E+00 -0.00000000000E+00 -0.17807141643E+03  0.17807141643E+03  0.00000000000E+00 0. -1.
          5    1    1    2  501    0 -0.19647340776E+02 -0.47242683060E+02 -0.12843892225E+03  0.13825500298E+03  0.00000000000E+00 0.  1.
         -5    1    1    2    0  503  0.19647340776E+02  0.47242683060E+02 -0.30091021330E+02  0.59357886308E+02  0.00000000000E+00 0. -1.
<mgrwt>
<rscale>  2 0.51165312E+02</rscale>
<asrwt>0</asrwt>
<pdfrwt beam="1">  1       21 0.30063804E-02 0.51165312E+02</pdfrwt>
<pdfrwt beam="2">  1       21 0.27395603E-01 0.51165312E+02</pdfrwt>
<totfact> 0.73081104E+06</totfact>
</mgrwt>
</event>
<event>
 4    1  0.7165636E+004  0.3977859E+02  0.7546771E-02  0.1509847E+00
         21   -1    0    0  503  502  0.00000000000E+00  0.00000000000E+00  0.94804447290E+02  0.94804447290E+02  0.00000000000E+00 0.  1.
         21   -1    0    0  501  503 -0.00000000000E+00 -0.00000000000E+00 -0.23787078285E+02  0.23787078285E+02  0.00000000000E+00 0.  1.
          2    1    1    2  501    0  0.11103528467E+02 -0.38197490127E+02  0.67896126637E+02  0.78690664051E+02  0.00000000000E+00 0. -1.
         -2    1    1    2    0  502 -0.11103528467E+02  0.38197490127E+02  0.31212423685E+01  0.39900861524E+02  0.00000000000E+00 0.  1.
<mgrwt>
<rscale>  2 0.39778595E+02</rscale>
<asrwt>0</asrwt>
<pdfrwt beam="1">  1       21 0.14585299E-01 0.39778595E+02</pdfrwt>
<pdfrwt beam="2">  1       21 0.36595506E-02 0.39778595E+02</pdfrwt>
<totfact> 0.15987452E+07</totfact>
</mgrwt>
</event>
<event>
 4    1  0.7165636E+004  0.2386241E+02  0.7546771E-02  0.1677900E+00
         21   -1    0    0  501  502  0.00000000000E+00  0.00000000000E+00  0.40331201097E+01  0.40331201097E+01  0.00000000000E+00 0. -1.
         21   -1    0    0  502  503 -0.00000000000E+00 -0.00000000000E+00 -0.15970234917E+03  0.15970234917E+03  0.00000000000E+00 0. -1.
          3    1    1    2  501    0 -0.11439009113E+02  0.20941915058E+02 -0.10571189387E+03  0.10837167177E+03  0.00000000000E+00 0. -1.
         -3    1    1    2    0  503  0.11439009113E+02 -0.20941915058E+02 -0.49957335186E+02  0.55363797510E+02  0.00000000000E+00 0.  1.
<mgrwt>
<rscale>  2 0.23862413E+02</rscale>
<asrwt>0</asrwt>
<pdfrwt beam="1">  1       21 0.62048012E-03 0.23862413E+02</pdfrwt>
<pdfrwt beam="2">  1       21 0.24569588E-01 0.23862413E+02</pdfrwt>
<totfact> 0.88238301E+07</totfact>
</mgrwt>
</event>
<event>
 4    1  0.7165636E+004  0.2555118E+02  0.7546771E-02  0.1653209E+00
         21   -1    0    0  501  502  0.00000000000E+00  0.00000000000E+00  0.11836384033E+02  0.11836384033E+02  0.00000000000E+00 0. -1.
         21   -1    0    0  502  503 -0.00000000000E+00 -0.00000000000E+00 -0.55375782312E+02  0.55375782312E+02  0.00000000000E+00 0. -1.
          3    1    1    2  501    0  0.18188401763E+02  0.17945608183E+02 -0.23880662279E+02  0.34973544897E+02  0.00000000000E+00 0. -1.
         -3    1    1    2    0  503 -0.18188401763E+02 -0.17945608183E+02 -0.19658736000E+02  0.32238621448E+02  0.00000000000E+00 0.  1.
<mgrwt>
<rscale>  2 0.25551180E+02</rscale>
<asrwt>0</asrwt>
<pdfrwt beam="1">  1       21 0.18209821E-02 0.25551180E+02</pdfrwt>
<pdfrwt beam="2">  1       21 0.85193512E-02 0.25551180E+02</pdfrwt>
<totfact> 0.10789172E+08</totfact>
</mgrwt>
</event>
<event>
 4    1  0.7165636E+004  0.2134165E+02  0.7546771E-02  0.1719893E+00
         21   -1    0    0  503  502  0.00000000000E+00  0.00000000000E+00  0.17510048991E+01  0.17510048991E+01  0.00000000000E+00 0. -1.
         21   -1    0    0  501  503 -0.00000000000E+00 -0.00000000000E+00 -0.38208837570E+03  0.38208837570E+03  0.00000000000E+00 0. -1.
          1    1    1    2  501    0  0.20853259781E+02  0.45395414234E+01 -0.29860302741E+03  0.29936471712E+03  0.00000000000E+00 0.  1.
         -1    1    1    2    0  502 -0.20853259781E+02 -0.45395414234E+01 -0.81734343393E+02  0.84474663478E+02  0.00000000000E+00 0. -1.
<mgrwt>
<rscale>  2 0.21341647E+02</rscale>
<asrwt>0</asrwt>
<pdfrwt beam="1">  1       21 0.26938546E-03 0.21341647E+02</pdfrwt>
<pdfrwt beam="2">  1       21 0.58782807E-01 0.21341647E+02</pdfrwt>
<totfact> 0.56826243E+07</totfact>
</mgrwt>
</event>
<event>
 4    1  0.7165636E+004  0.3009262E+02  0.7546771E-02  0.1597067E+00
         21   -1    0    0  503  502  0.00000000000E+00  0.00000000000E+00  0.17325598349E+02  0.17325598349E+02  0.00000000000E+00 0.  1.
         21   -1    0    0  501  503 -0.00000000000E+00 -0.00000000000E+00 -0.52360277655E+02  0.52360277655E+02  0.00000000000E+00 0.  1.
          3    1    1    2  501    0  0.11035146933E+02  0.27996273666E+02 -0.18983976600E+02  0.35580291940E+02  0.00000000000E+00 0. -1.
         -3    1    1    2    0  502 -0.11035146933E+02 -0.27996273666E+02 -0.16050702706E+02  0.34105584064E+02  0.00000000000E+00 0.  1.
<mgrwt>
<rscale>  2 0.30092620E+02</rscale>
<asrwt>0</asrwt>
<pdfrwt beam="1">  1       21 0.26654767E-02 0.30092620E+02</pdfrwt>
<pdfrwt beam="2">  1       21 0.80554272E-02 0.30092620E+02</pdfrwt>
<totfact> 0.68304152E+07</totfact>
</mgrwt>
</event>
<event>
 4    1  0.7165636E+004  0.2295538E+02  0.7546771E-02  0.1692234E+00
         21   -1    0    0  503  502  0.00000000000E+00  0.00000000000E+00  0.11809406428E+03  0.11809406428E+03  0.00000000000E+00 0.  1.
         21   -1    0    0  501  503 -0.00000000000E+00 -0.00000000000E+00 -0.49471633821E+01  0.49471633821E+01  0.00000000000E+00 0.  1.
          1    1    1    2  501    0  0.10793244946E+02  0.20259692090E+02  0.37309950393E+02  0.43806182879E+02  0.00000000000E+00 0.  1.
         -1    1    1    2    0  502 -0.10793244946E+02 -0.20259692090E+02  0.75836950509E+02  0.79235044788E+02  0.00000000000E+00 0. -1.
<mgrwt>
<rscale>  2 0.22955375E+02</rscale>
<asrwt>0</asrwt>
<pdfrwt beam="1">  1       21 0.18168315E-01 0.22955375E+02</pdfrwt>
<pdfrwt beam="2">  1       21 0.76110215E-03 0.22955375E+02</pdfrwt>
<totfact> 0.10944045E+08</totfact>
</mgrwt>
</event>
<event>
 4    1  0.7165636E+004  0.2120699E+02  0.7546771E-02  0.1722339E+00
         21   -1    0    0  501  502  0.00000000000E+00  0.00000000000E+00  0.14898293264E+02  0.14898293264E+02  0.00000000000E+00 0. -1.
         21   -1    0    0  502  503 -0.00000000000E+00 -0.00000000000E+00 -0.30201308192E+02  0.30201308192E+02  0.00000000000E+00 0. -1.
          2    1    1    2  501    0  0.54664845150E+01 -0.20490341039E+02 -0.81403084522E+01  0.22715658709E+02  0.00000000000E+00 0. -1.
         -2    1    1    2    0  503 -0.54664845150E+01  0.20490341039E+02 -0.71627064759E+01  0.22383942748E+02  0.00000000000E+00 0.  1.
<mgrwt>
<rscale>  2 0.21206992E+02</rscale>
<asrwt>0</asrwt>
<pdfrwt beam="1">  1       21 0.22920451E-02 0.21206992E+02</pdfrwt>
<pdfrwt beam="2">  1       21 0.46463551E-02 0.21206992E+02</pdfrwt>
<totfact> 0.19047381E+08</totfact>
</mgrwt>
</event>
<event>
 4    1  0.7165636E+004  0.3699743E+02  0.7546771E-02  0.1531546E+00
         21   -1    0    0  501  502  0.00000000000E+00  0.00000000000E+00  0.10947187209E+02  0.10947187209E+02  0.00000000000E+00 0.  1.
         21   -1    0    0  502  503 -0.00000000000E+00 -0.00000000000E+00 -0.12650458996E+03  0.12650458996E+03  0.00000000000E+00 0.  1.
          2    1    1    2  501    0 -0.21551480235E+02  0.30072307643E+02 -0.50377858678E+02  0.62503908935E+02  0.00000000000E+00 0. -1.
         -2    1    1    2    0  503  0.21551480235E+02 -0.30072307643E+02 -0.65179544072E+02  0.74947868234E+02  0.00000000000E+00 0.  1.
<mgrwt>
<rscale>  2 0.36997432E+02</rscale>
<asrwt>0</asrwt>
<pdfrwt beam="1">  1       21 0.16841826E-02 0.36997432E+02</pdfrwt>
<pdfrwt beam="2">  1       21 0.19462245E-01 0.36997432E+02</pdfrwt>
<totfact> 0.32327156E+07</totfact>
</mgrwt>
</event>
<event>
 4    1  0.7165636E+004  0.2921528E+02  0.7546771E-02  0.1606928E+00
         21   -1    0    0  501  502  0.00000000000E+00  0.00000000000E+00  0.32380868453E+01  0.32380868453E+01  0.00000000000E+00 0.  1.
         21   -1    0    0  502  503 -0.00000000000E+00 -0.00000000000E+00 -0.26437177173E+03  0.26437177173E+03  0.00000000000E+00 0.  1.
          2    1    1    2  501    0 -0.13896885067E+02 -0.25698432496E+02 -0.13783508105E+03  0.14089727611E+03  0.00000000000E+00 0.  1.
         -2    1    1    2    0  503  0.13896885067E+02  0.25698432496E+02 -0.12329860384E+03  0.12671258247E+03  0.00000000000E+00 0. -1.
<mgrwt>
<rscale>  2 0.29215284E+02</rscale>
<asrwt>0</asrwt>
<pdfrwt beam="1">  1       21 0.49816699E-03 0.29215284E+02</pdfrwt>
<pdfrwt beam="2">  1       21 0.40672598E-01 0.29215284E+02</pdfrwt>
<totfact> 0.50665594E+07</totfact>
</mgrwt>
</event>
<event>
 4    1  0.7165636E+004  0.2295978E+02  0.7546771E-02  0.1692163E+00
         21   -1    0    0  503  502  0.00000000000E+00  0.00000000000E+00  0.27524164015E+02  0.27524164015E+02  0.00000000000E+00 0. -1.
         21   -1    0    0  501  503 -0.00000000000E+00 -0.00000000000E+00 -0.22794173394E+02  0.22794173394E+02  0.00000000000E+00 0. -1.
          4    1    1    2  501    0 -0.16219062752E+02 -0.16250950843E+02  0.12421475904E+02  0.26104491252E+02  0.00000000000E+00 0.  1.
         -4    1    1    2    0  502  0.16219062752E+02  0.16250950843E+02 -0.76914852829E+01  0.24213846157E+02  0.00000000000E+00 0. -1.
<mgrwt>
<rscale>  2 0.22959778E+02</rscale>
<asrwt>0</asrwt>
<pdfrwt beam="1">  1       21 0.42344868E-02 0.22959778E+02</pdfrwt>
<pdfrwt beam="2">  1       21 0.35067959E-02 0.22959778E+02</pdfrwt>
<totfact> 0.11683842E+08</totfact>
</mgrwt>
</event>
<event>
 4    1  0.7165636E+004  0.3193408E+02  0.7546771E-02  0.1577644E+00
         21   -1    0    0  503  502  0.00000000000E+00  0.00000000000E+00  0.20725912253E+03  0.20725912253E+03  0.00000000000E+00 0.  1.
         21   -1    0    0  501  503 -0.00000000000E+00 -0.00000000000E+00 -0.51484645520E+01  0.51484645520E+01  0.00000000000E+00 0.  1.
          1    1    1    2  501    0  0.31549070759E+02  0.49438231249E+01  0.12341099596E+03  0.12747571995E+03  0.00000000000E+00 0. -1.
         -1    1    1    2    0  502 -0.31549070759E+02 -0.49438231249E+01  0.78699662017E+02  0.84931867131E+02  0.00000000000E+00 0.  1.
<mgrwt>
<rscale>  2 0.31934077E+02</rscale>
<asrwt>0</asrwt>
<pdfrwt beam="1">  1       21 0.31886012E-01 0.31934077E+02</pdfrwt>
<pdfrwt beam="2">  1       21 0.79207163E-03 0.31934077E+02</pdfrwt>
<totfact> 0.40714068E+07</totfact>
</mgrwt>
</event>
<event>
 4    1  0.7165636E+004  0.2056677E+02  0.7546771E-02  0.1734286E+00
         21   -1    0    0  501  502  0.00000000000E+00  0.00000000000E+00  0.51876303317E+01  0.51876303317E+01  0.00000000000E+00 0.  1.
         21   -1    0    0  502  503 -0.00000000000E+00 -0.00000000000E+00 -0.82096483271E+02  0.82096483271E+02  0.00000000000E+00 0.  1.
          3    1    1    2  501    0 -0.13512997676E+02  0.15504550151E+02 -0.42051999138E+02  0.46811994329E+02  0.00000000000E+00 0.  1.
         -3    1    1    2    0  503  0.13512997676E+02 -0.15504550151E+02 -0.34856853801E+02  0.40472119274E+02  0.00000000000E+00 0. -1.
<mgrwt>
<rscale>  2 0.20566774E+02</rscale>
<asrwt>0</asrwt>
<pdfrwt beam="1">  1       21 0.79809705E-03 0.20566774E+02</pdfrwt>
<pdfrwt beam="2">  1       21 0.12630227E-01 0.20566774E+02</pdfrwt>
<totfact> 0.18314655E+08</totfact>
</mgrwt>
</event>
<event>
 4    1  0.7165636E+004  0.3029510E+02  0.7546771E-02  0.1594849E+00
         21   -1    0    0  501  502  0.00000000000E+00  0.00000000000E+00  0.15129307284E+04  0.15129307284E+04  0.00000000000E+00 0. -1.
         21   -1    0    0  502  503 -0.00000000000E+00 -0.00000000000E+00 -0.60696391279E+00  0.60696391279E+00  0.00000000000E+00 0. -1.
          1    1    1    2  501    0  0.30205617594E+02 -0.23266967242E+01  0.77384704226E+03  0.77443982185E+03  0.00000000000E+00 0.  1.
         -1    1    1    2    0  503 -0.30205617594E+02  0.23266967242E+01  0.73847672226E+03  0.73909787050E+03  0.00000000000E+00 0. -1.
<mgrwt>
<rscale>  2 0.30295096E+02</rscale>
<asrwt>0</asrwt>
<pdfrwt beam="1">  1       21 0.23275555E+00 0.30295096E+02</pdfrwt>
<pdfrwt beam="2">  1       21 0.93380275E-04 0.30295096E+02</pdfrwt>
<totfact> 0.11728981E+07</totfact>
</mgrwt>
</event>
<event>
 4    1  0.7165636E+004  0.2090817E+02  0.7546771E-02  0.1727849E+00
         21   -1    0    0  501  502  0.00000000000E+00  0.00000000000E+00  0.36972533377E+02  0.36972533377E+02  0.00000000000E+00 0.  1.
         21   -1    0    0  502  503 -0.00000000000E+00 -0.00000000000E+00 -0.12688102566E+02  0.12688102566E+02  0.00000000000E+00 0.  1.
          3    1    1    2  501    0 -0.17559841433E+02 -0.11349166960E+02  0.18623267389E+02  0.27999601963E+02  0.00000000000E+00 0. -1.
         -3    1    1    2    0  503  0.17559841433E+02  0.11349166960E+02  0.56611634215E+01  0.21661033981E+02  0.00000000000E+00 0.  1.
<mgrwt>
<rscale>  2 0.20908171E+02</rscale>
<asrwt>0</asrwt>
<pdfrwt beam="1">  1       21 0.56880820E-02 0.20908171E+02</pdfrwt>
<pdfrwt beam="2">  1       21 0.19520158E-02 0.20908171E+02</pdfrwt>
<totfact> 0.17587006E+08</totfact>
</mgrwt>
</event>
<event>
 4    1  0.7165636E+004  0.2023467E+02  0.7546771E-02  0.1740701E+00
         21   -1    0    0  503  502  0.00000000000E+00  0.00000000000E+00  0.30724665630E+03  0.30724665630E+03  0.00000000000E+00 0. -1.
         21   -1    0    0  501  503 -0.00000000000E+00 -0.00000000000E+00 -0.13677262571E+01  0.13677262571E+01  0.00000000000E+00 0. -1.
          5    1    1    2  501    0  0.20221102835E+02 -0.74088845926E+00  0.17766248139E+03  0.17881107127E+03  0.00000000000E+00 0.  1.
         -5    1    1    2    0  502 -0.20221102835E+02  0.74088845926E+00  0.12821644866E+03  0.12980331129E+03  0.00000000000E+00 0. -1.
<mgrwt>
<rscale>  2 0.20234671E+02</rscale>
<asrwt>0</asrwt>
<pdfrwt beam="1">  1       21 0.47268661E-01 0.20234671E+02</pdfrwt>
<pdfrwt beam="2">  1       21 0.21041967E-03 0.20234671E+02</pdfrwt>
<totfact> 0.12249996E+08</totfact>
</mgrwt>
</event>
<event>
 4    1  0.7165636E+004  0.2713927E+02  0.7546771E-02  0.1632049E+00
         21   -1    0    0  501  502  0.00000000000E+00  0.00000000000E+00  0.51056571239E+00  0.51056571239E+00  0.00000000000E+00 0. -1.
         21   -1    0    0  502  503 -0.00000000000E+00 -0.00000000000E+00 -0.16009630901E+04  0.16009630901E+04  0.00000000000E+00 0. -1.
          3    1    1    2  501    0  0.30706045011E+01 -0.26964998258E+02 -0.54838177533E+03  0.54905292209E+03  0.00000000000E+00 0. -1.
         -3    1    1    2    0  503 -0.30706045011E+01  0.26964998258E+02 -0.10520707491E+04  0.10524207337E+04  0.00000000000E+00 0.  1.
<mgrwt>
<rscale>  2 0.27139266E+02</rscale>
<asrwt>0</asrwt>
<pdfrwt beam="1">  1       21 0.78548961E-04 0.27139266E+02</pdfrwt>
<pdfrwt beam="2">  1       21 0.24630079E+00 0.27139266E+02</pdfrwt>
<totfact> 0.12684306E+07</totfact>
</mgrwt>
</event>
<event>
 4    1  0.7165636E+004  0.2226473E+02  0.7546771E-02  0.1703713E+00
         21   -1    0    0  501  502  0.00000000000E+00  0.00000000000E+00  0.21148530768E+01  0.21148530768E+01  0.00000000000E+00 0. -1.
         21   -1    0    0  502  503 -0.00000000000E+00 -0.00000000000E+00 -0.26504299715E+03  0.26504299715E+03  0.00000000000E+00 0. -1.
          5    1    1    2  501    0 -0.22227752292E+02 -0.12826112570E+01 -0.86043027525E+02  0.88876997301E+02  0.00000000000E+00 0.  1.
         -5    1    1    2    0  503  0.22227752292E+02  0.12826112570E+01 -0.17688511655E+03  0.17828085293E+03  0.00000000000E+00 0. -1.
<mgrwt>
<rscale>  2 0.22264727E+02</rscale>
<asrwt>0</asrwt>
<pdfrwt beam="1">  1       21 0.32536204E-03 0.22264727E+02</pdfrwt>
<pdfrwt beam="2">  1       21 0.40775842E-01 0.22264727E+02</pdfrwt>
<totfact> 0.88556059E+07</totfact>
</mgrwt>
</event>
<event>
 4    1  0.7165636E+004  0.4334750E+02  0.7546771E-02  0.1484930E+00
         21   -1    0    0  501  502  0.00000000000E+00  0.00000000000E+00  0.20625824329E+03  0.20625824329E+03  0.00000000000E+00 0.  1.
         21   -1    0    0  502  503 -0.00000000000E+00 -0.00000000000E+00 -0.96160598964E+01  0.96160598964E+01  0.00000000000E+00 0.  1.
          2    1    1    2  501    0  0.43227788227E+02  0.32192951309E+01  0.12308322298E+03  0.13049323858E+03  0.00000000000E+00 0. -1.
         -2    1    1    2    0  503 -0.43227788227E+02 -0.32192951309E+01  0.73558960413E+02  0.85381064606E+02  0.00000000000E+00 0.  1.
<mgrwt>
<rscale>  2 0.43347497E+02</rscale>
<asrwt>0</asrwt>
<pdfrwt beam="1">  1       21 0.31732034E-01 0.43347497E+02</pdfrwt>
<pdfrwt beam="2">  1       21 0.14793940E-02 0.43347497E+02</pdfrwt>
<totfact> 0.16630589E+07</totfact>
</mgrwt>
</event>
<event>
 4    1  0.7165636E+004  0.2104341E+02  0.7546771E-02  0.1725341E+00
         21   -1    0    0  503  502  0.00000000000E+00  0.00000000000E+00  0.31152474165E+02  0.31152474165E+02  0.00000000000E+00 0. -1.
         21   -1    0    0  501  503 -0.00000000000E+00 -0.00000000000E+00 -0.22024511600E+02  0.22024511600E+02  0.00000000000E+00 0. -1.
          3    1    1    2  501    0 -0.21034290269E+02 -0.61961912894E+00  0.20396823156E+02  0.29306239777E+02  0.00000000000E+00 0.  1.
         -3    1    1    2    0  502  0.21034290269E+02  0.61961912894E+00 -0.11268860591E+02  0.23870745988E+02  0.00000000000E+00 0. -1.
<mgrwt>
<rscale>  2 0.21043415E+02</rscale>
<asrwt>0</asrwt>
<pdfrwt beam="1">  1       21 0.47926884E-02 0.21043415E+02</pdfrwt>
<pdfrwt beam="2">  1       21 0.33883864E-02 0.21043415E+02</pdfrwt>
<totfact> 0.98792201E+07</totfact>
</mgrwt>
</event>
<event>
 4    1  0.7165636E+004  0.4704591E+02  0.7546771E-02  0.1461959E+00
         21   -1    0    0  503  502  0.00000000000E+00  0.00000000000E+00  0.21749552494E+02  0.21749552494E+02  0.00000000000E+00 0. -1.
         21   -1    0    0  501  503 -0.00000000000E+00 -0.00000000000E+00 -0.16546998825E+03  0.16546998825E+03  0.00000000000E+00 0. -1.
          1    1    1    2  501    0 -0.46944834041E+02  0.30822686371E+01 -0.13776787130E+02  0.49021604285E+02  0.00000000000E+00 0.  1.
         -1    1    1    2    0  502  0.46944834041E+02 -0.30822686371E+01 -0.12994364863E+03  0.13819793646E+03  0.00000000000E+00 0. -1.
<mgrwt>
<rscale>  2 0.47045912E+02</rscale>
<asrwt>0</asrwt>
<pdfrwt beam="1">  1       21 0.33460849E-02 0.47045912E+02</pdfrwt>
<pdfrwt beam="2">  1       21 0.25456922E-01 0.47045912E+02</pdfrwt>
<totfact> 0.69857718E+06</totfact>
</mgrwt>
</event>
<event>
 4    1  0.7165636E+004  0.2155606E+02  0.7546771E-02  0.1716045E+00
         21   -1    0    0  503  502  0.00000000000E+00  0.00000000000E+00  0.29214463847E+02  0.29214463847E+02  0.00000000000E+00 0.  1.
         21   -1    0    0  501  503 -0.00000000000E+00 -0.00000000000E+00 -0.15909966455E+02  0.15909966455E+02  0.00000000000E+00 0.  1.
          4    1    1    2  501    0 -0.17019363600E+02  0.13228952475E+02  0.70399123322E+01  0.22676513987E+02  0.00000000000E+00 0. -1.
         -4    1    1    2    0  502  0.17019363600E+02 -0.13228952475E+02  0.62645850590E+01  0.22447916315E+02  0.00000000000E+00 0.  1.
<mgrwt>
<rscale>  2 0.21556065E+02</rscale>
<asrwt>0</asrwt>
<pdfrwt beam="1">  1       21 0.44945329E-02 0.21556065E+02</pdfrwt>
<pdfrwt beam="2">  1       21 0.24476872E-02 0.21556065E+02</pdfrwt>
<totfact> 0.18237861E+08</totfact>
</mgrwt>
</event>
<event>
 4    1  0.7165636E+004  0.2342672E+02  0.7546771E-02  0.1684685E+00
         21   -1    0    0  503  502  0.00000000000E+00  0.00000000000E+00  0.93792557783E+01  0.93792557783E+01  0.00000000000E+00 0.  1.
         21   -1    0    0  501  503 -0.00000000000E+00 -0.00000000000E+00 -0.73246920095E+02  0.73246920095E+02  0.00000000000E+00 0.  1.
          1    1    1    2  501    0 -0.14797248554E+02  0.18161848675E+02 -0.13405021550E+02  0.26990848723E+02  0.00000000000E+00 0.  1.
         -1    1    1    2    0  502  0.14797248554E+02 -0.18161848675E+02 -0.50462642767E+02  0.55635327150E+02  0.00000000000E+00 0. -1.
<mgrwt>
<rscale>  2 0.23426722E+02</rscale>
<asrwt>0</asrwt>
<pdfrwt beam="1">  1       21 0.14429624E-02 0.23426722E+02</pdfrwt>
<pdfrwt beam="2">  1       21 0.11268757E-01 0.23426722E+02</pdfrwt>
<totfact> 0.94586057E+07</totfact>
</mgrwt>
</event>
<event>
 4    1  0.7165636E+004  0.4048874E+02  0.7546771E-02  0.1504645E+00
         21   -1    0    0  503  502  0.00000000000E+00  0.00000000000E+00  0.20152234130E+01  0.20152234130E+01  0.00000000000E+00 0.  1.
         21   -1    0    0  501  503 -0.00000000000E+00 -0.00000000000E+00 -0.11444379488E+04  0.11444379488E+04  0.00000000000E+00 0.  1.
          5    1    1    2  501    0 -0.37249632119E+02  0.15868297582E+02 -0.26295038261E+03  0.26604932188E+03  0.00000000000E+00 0. -1.
         -5    1    1    2    0  502  0.37249632119E+02 -0.15868297582E+02 -0.87947234282E+03  0.88040385037E+03  0.00000000000E+00 0.  1.
<mgrwt>
<rscale>  2 0.40488739E+02</rscale>
<asrwt>0</asrwt>
<pdfrwt beam="1">  1       21 0.31003353E-03 0.40488739E+02</pdfrwt>
<pdfrwt beam="2">  1       21 0.17606786E+00 0.40488739E+02</pdfrwt>
<totfact> 0.43947299E+06</totfact>
</mgrwt>
</event>
<event>
 4    1  0.7165636E+004  0.6771508E+02  0.7546771E-02  0.1368040E+00
         21   -1    0    0  501  502  0.00000000000E+00  0.00000000000E+00  0.39170439139E+03  0.39170439139E+03  0.00000000000E+00 0. -1.
         21   -1    0    0  502  503 -0.00000000000E+00 -0.00000000000E+00 -0.12825334807E+02  0.12825334807E+02  0.00000000000E+00 0. -1.
          2    1    1    2  501    0 -0.67190058010E+02 -0.84159797998E+01  0.24919061166E+03  0.25822721303E+03  0.00000000000E+00 0.  1.
         -2    1    1    2    0  503  0.67190058010E+02  0.84159797998E+01  0.12968844492E+03  0.14630251316E+03  0.00000000000E+00 0. -1.
<mgrwt>
<rscale>  2 0.67715084E+02</rscale>
<asrwt>0</asrwt>
<pdfrwt beam="1">  1       21 0.60262205E-01 0.67715084E+02</pdfrwt>
<pdfrwt beam="2">  1       21 0.19731287E-02 0.67715084E+02</pdfrwt>
<totfact> 0.31160097E+06</totfact>
</mgrwt>
</event>
<event>
 4    1  0.7165636E+004  0.2824118E+02  0.7546771E-02  0.1618385E+00
         21   -1    0    0  501  502  0.00000000000E+00  0.00000000000E+00  0.10125549827E+04  0.10125549827E+04  0.00000000000E+00 0. -1.
         21   -1    0    0  502  503 -0.00000000000E+00 -0.00000000000E+00 -0.84957588887E+00  0.84957588887E+00  0.00000000000E+00 0. -1.
          4    1    1    2  501    0  0.26746808087E+02 -0.90648918321E+01  0.36907949331E+03  0.37015839365E+03  0.00000000000E+00 0. -1.
         -4    1    1    2    0  503 -0.26746808087E+02  0.90648918321E+01  0.64262591351E+03  0.64324616495E+03  0.00000000000E+00 0.  1.
<mgrwt>
<rscale>  2 0.28241176E+02</rscale>
<asrwt>0</asrwt>
<pdfrwt beam="1">  1       21 0.15577672E+00 0.28241176E+02</pdfrwt>
<pdfrwt beam="2">  1       21 0.13070479E-03 0.28241176E+02</pdfrwt>
<totfact> 0.20338256E+07</totfact>
</mgrwt>
</event>
<event>
 4    1  0.7165636E+004  0.3064400E+02  0.7546771E-02  0.1591077E+00
         21   -1    0    0  503  502  0.00000000000E+00  0.00000000000E+00  0.11035659259E+03  0.11035659259E+03  0.00000000000E+00 0. -1.
         21   -1    0    0  501  503 -0.00000000000E+00 -0.00000000000E+00 -0.85103431208E+01  0.85103431208E+01  0.00000000000E+00 0. -1.
          3    1    1    2  501    0 -0.15128212752E+02 -0.26649424153E+02  0.50257385068E+02  0.58863056178E+02  0.00000000000E+00 0. -1.
         -3    1    1    2    0  502  0.15128212752E+02  0.26649424153E+02  0.51588864401E+02  0.60003879532E+02  0.00000000000E+00 0.  1.
<mgrwt>
<rscale>  2 0.30643998E+02</rscale>
<asrwt>0</asrwt>
<pdfrwt beam="1">  1       21 0.16977936E-01 0.30643998E+02</pdfrwt>
<pdfrwt beam="2">  1       21 0.13092836E-02 0.30643998E+02</pdfrwt>
<totfact> 0.58320763E+07</totfact>
</mgrwt>
</event>
<event>
 4    1  0.7165636E+004  0.2383397E+02  0.7546771E-02  0.1678338E+00
         21   -1    0    0  501  502  0.00000000000E+00  0.00000000000E+00  0.42932093253E+03  0.42932093253E+03  0.00000000000E+00 0. -1.
         21   -1    0    0  502  503 -0.00000000000E+00 -0.00000000000E+00 -0.23618941309E+01  0.23618941309E+01  0.00000000000E+00 0. -1.
          3    1    1    2  501    0 -0.19379229980E+02 -0.13874561285E+02  0.70340553871E+02  0.74268778934E+02  0.00000000000E+00 0. -1.
         -3    1    1    2    0  503  0.19379229980E+02  0.13874561285E+02  0.35661848453E+03  0.35741404773E+03  0.00000000000E+00 0.  1.
<mgrwt>
<rscale>  2 0.23833967E+02</rscale>
<asrwt>0</asrwt>
<pdfrwt beam="1">  1       21 0.66049312E-01 0.23833967E+02</pdfrwt>
<pdfrwt beam="2">  1       21 0.36336867E-03 0.23833967E+02</pdfrwt>
<totfact> 0.29802347E+07</totfact>
</mgrwt>
</event>
<event>
 4    1  0.7165636E+004  0.2135246E+02  0.7546771E-02  0.1719698E+00
         21   -1    0    0  503  502  0.00000000000E+00  0.00000000000E+00  0.66296647265E+03  0.66296647265E+03  0.00000000000E+00 0.  1.
         21   -1    0    0  501  503 -0.00000000000E+00 -0.00000000000E+00 -0.71002314296E+00  0.71002314296E+00  0.00000000000E+00 0.  1.
          4    1    1    2  501    0  0.20092758622E+02 -0.72255521477E+01  0.38995662029E+03  0.39054077030E+03  0.00000000000E+00 0.  1.
         -4    1    1    2    0  502 -0.20092758622E+02  0.72255521477E+01  0.27229982922E+03  0.27313572550E+03  0.00000000000E+00 0. -1.
<mgrwt>
<rscale>  2 0.21352460E+02</rscale>
<asrwt>0</asrwt>
<pdfrwt beam="1">  1       21 0.10199435E+00 0.21352460E+02</pdfrwt>
<pdfrwt beam="2">  1       21 0.10923486E-03 0.21352460E+02</pdfrwt>
<totfact> 0.65970623E+07</totfact>
</mgrwt>
</event>
<event>
 4    1  0.7165636E+004  0.2510730E+02  0.7546771E-02  0.1659465E+00
         21   -1    0    0  503  502  0.00000000000E+00  0.00000000000E+00  0.12885850774E+02  0.12885850774E+02  0.00000000000E+00 0.  1.
         21   -1    0    0  501  503 -0.00000000000E+00 -0.00000000000E+00 -0.51371773696E+02  0.51371773696E+02  0.00000000000E+00 0.  1.
          2    1    1    2  501    0  0.23147281495E+02 -0.97252230459E+01 -0.12224091571E+02  0.27924989143E+02  0.00000000000E+00 0.  1.
         -2    1    1    2    0  502 -0.23147281495E+02  0.97252230459E+01 -0.26261831351E+02  0.36332635327E+02  0.00000000000E+00 0. -1.
<mgrwt>
<rscale>  2 0.25107302E+02</rscale>
<asrwt>0</asrwt>
<pdfrwt beam="1">  1       21 0.19824386E-02 0.25107302E+02</pdfrwt>
<pdfrwt beam="2">  1       21 0.79033498E-02 0.25107302E+02</pdfrwt>
<totfact> 0.10659208E+08</totfact>
</mgrwt>
</event>
<event>
 4    1  0.7165636E+004  0.3695268E+02  0.7546771E-02  0.1531914E+00
         21   -1    0    0  503  502  0.00000000000E+00  0.00000000000E+00  0.56121909564E+02  0.56121909564E+02  0.00000000000E+00 0. -1.
         21   -1    0    0  501  503 -0.00000000000E+00 -0.00000000000E+00 -0.30551000881E+02  0.30551000881E+02  0.00000000000E+00 0. -1.
          1    1    1    2  501    0 -0.34387677639E+02  0.13527302476E+02 -0.67686111634E+01  0.37567464418E+02  0.00000000000E+00 0.  1.
         -1    1    1    2    0  502  0.34387677639E+02 -0.13527302476E+02  0.32339519846E+02  0.49105446027E+02  0.00000000000E+00 0. -1.
<mgrwt>
<rscale>  2 0.36952676E+02</rscale>
<asrwt>0</asrwt>
<pdfrwt beam="1">  1       21 0.86341399E-02 0.36952676E+02</pdfrwt>
<pdfrwt beam="2">  1       21 0.47001540E-02 0.36952676E+02</pdfrwt>
<totfact> 0.25767169E+07</totfact>
</mgrwt>
</event>
<event>
 4    1  0.7165636E+004  0.2646937E+02  0.7546771E-02  0.1640752E+00
         21   -1    0    0  501  502  0.00000000000E+00  0.00000000000E+00  0.56522464521E+01  0.56522464521E+01  0.00000000000E+00 0.  1.
         21   -1    0    0  502  503 -0.00000000000E+00 -0.00000000000E+00 -0.12411003280E+03  0.12411003280E+03  0.00000000000E+00 0.  1.
          1    1    1    2  501    0  0.22246948299E+02 -0.14342281138E+02 -0.61517392660E+02  0.66970272036E+02  0.00000000000E+00 0. -1.
         -1    1    1    2    0  503 -0.22246948299E+02  0.14342281138E+02 -0.56940393685E+02  0.62792007213E+02  0.00000000000E+00 0.  1.
<mgrwt>
<rscale>  2 0.26469374E+02</rscale>
<asrwt>0</asrwt>
<pdfrwt beam="1">  1       21 0.86957637E-03 0.26469374E+02</pdfrwt>
<pdfrwt beam="2">  1       21 0.19093851E-01 0.26469374E+02</pdfrwt>
<totfact> 0.85376333E+07</totfact>
</mgrwt>
</event>
<event>
 4    1  0.7165636E+004  0.2301659E+02  0.7546771E-02  0.1691241E+00
         21   -1    0    0  503  502  0.00000000000E+00  0.00000000000E+00  0.19370675036E+02  0.19370675036E+02  0.00000000000E+00 0. -1.
         21   -1    0    0  501  503 -0.00000000000E+00 -0.00000000000E+00 -0.27588546771E+02  0.27588546771E+02  0.00000000000E+00 0. -1.
          5    1    1    2  501    0  0.86467430866E+01 -0.21330665121E+02 -0.62980205592E+01  0.23862701094E+02  0.00000000000E+00 0. -1.
         -5    1    1    2    0  502 -0.86467430866E+01  0.21330665121E+02 -0.19198511754E+01  0.23096520713E+02  0.00000000000E+00 0.  1.
<mgrwt>
<rscale>  2 0.23016591E+02</rscale>
<asrwt>0</asrwt>
<pdfrwt beam="1">  1       21 0.29801038E-02 0.23016591E+02</pdfrwt>
<pdfrwt beam="2">  1       21 0.42443918E-02 0.23016591E+02</pdfrwt>
<totfact> 0.15021037E+08</totfact>
</mgrwt>
</event>
<event>
 4    1  0.7165636E+004  0.2131225E+02  0.7546771E-02  0.1720425E+00
         21   -1    0    0  503  502  0.00000000000E+00  0.00000000000E+00  0.10302865637E+02  0.10302865637E+02  0.00000000000E+00 0.  1.
         21   -1    0    0  501  503 -0.00000000000E+00 -0.00000000000E+00 -0.44387879677E+02  0.44387879677E+02  0.00000000000E+00 0.  1.
          2    1    1    2  501    0  0.26116140793E+01  0.21151630450E+02 -0.19297670639E+02  0.28750862437E+02  0.00000000000E+00 0.  1.
         -2    1    1    2    0  502 -0.26116140793E+01 -0.21151630450E+02 -0.14787343400E+02  0.25939882876E+02  0.00000000000E+00 0. -1.
<mgrwt>
<rscale>  2 0.21312250E+02</rscale>
<asrwt>0</asrwt>
<pdfrwt beam="1">  1       21 0.15850563E-02 0.21312250E+02</pdfrwt>
<pdfrwt beam="2">  1       21 0.68289045E-02 0.21312250E+02</pdfrwt>
<totfact> 0.18122403E+08</totfact>
</mgrwt>
</event>
<event>
 4    1  0.7165636E+004  0.3022004E+02  0.7546771E-02  0.1595669E+00
         21   -1    0    0  503  502  0.00000000000E+00  0.00000000000E+00  0.33066316577E+01  0.33066316577E+01  0.00000000000E+00 0.  1.
         21   -1    0    0  501  503 -0.00000000000E+00 -0.00000000000E+00 -0.31502588526E+03  0.31502588526E+03  0.00000000000E+00 0.  1.
          2    1    1    2  501    0  0.25185870511E+02  0.16700979573E+02 -0.21174622694E+03  0.21389183111E+03  0.00000000000E+00 0.  1.
         -2    1    1    2    0  502 -0.25185870511E+02 -0.16700979573E+02 -0.99973026666E+02  0.10444068581E+03  0.00000000000E+00 0. -1.
<mgrwt>
<rscale>  2 0.30220040E+02</rscale>
<asrwt>0</asrwt>
<pdfrwt beam="1">  1       21 0.50871250E-03 0.30220040E+02</pdfrwt>
<pdfrwt beam="2">  1       21 0.48465527E-01 0.30220040E+02</pdfrwt>
<totfact> 0.35236591E+07</totfact>
</mgrwt>
</event>
<event>
 4    1  0.7165636E+004  0.2727579E+02  0.7546771E-02  0.1630313E+00
         21   -1    0    0  501  502  0.00000000000E+00  0.00000000000E+00  0.18912854042E+03  0.18912854042E+03  0.00000000000E+00 0.  1.
         21   -1    0    0  502  503 -0.00000000000E+00 -0.00000000000E+00 -0.40896121627E+01  0.40896121627E+01  0.00000000000E+00 0.  1.
          1    1    1    2  501    0 -0.99316544335E+01 -0.25403360473E+02  0.11138479408E+03  0.11467580754E+03  0.00000000000E+00 0.  1.
         -1    1    1    2    0  503  0.99316544335E+01  0.25403360473E+02  0.73654134181E+02  0.78542345045E+02  0.00000000000E+00 0. -1.
<mgrwt>
<rscale>  2 0.27275786E+02</rscale>
<asrwt>0</asrwt>
<pdfrwt beam="1">  1       21 0.29096692E-01 0.27275786E+02</pdfrwt>
<pdfrwt beam="2">  1       21 0.62917125E-03 0.27275786E+02</pdfrwt>
<totfact> 0.65823121E+07</totfact>
</mgrwt>
</event>
<event>
 4    1  0.7165636E+004  0.2449274E+02  0.7546771E-02  0.1668397E+00
         21   -1    0    0  503  502  0.00000000000E+00  0.00000000000E+00  0.17942187021E+02  0.17942187021E+02  0.00000000000E+00 0.  1.
         21   -1    0    0  501  503 -0.00000000000E+00 -0.00000000000E+00 -0.34789695859E+02  0.34789695859E+02  0.00000000000E+00 0.  1.
          1    1    1    2  501    0 -0.13458540706E+02 -0.20463678873E+02 -0.13626848367E+02  0.28028297618E+02  0.00000000000E+00 0. -1.
         -1    1    1    2    0  502  0.13458540706E+02  0.20463678873E+02 -0.32206604713E+01  0.24703585262E+02  0.00000000000E+00 0.  1.
<mgrwt>
<rscale>  2 0.24492743E+02</rscale>
<asrwt>0</asrwt>
<pdfrwt beam="1">  1       21 0.27603365E-02 0.24492743E+02</pdfrwt>
<pdfrwt beam="2">  1       21 0.53522608E-02 0.24492743E+02</pdfrwt>
<totfact> 0.11920918E+08</totfact>
</mgrwt>
</event>
<event>
 4    1  0.7165636E+004  0.2141528E+02  0.7546771E-02  0.1718565E+00
         21   -1    0    0  501  502  0.00000000000E+00  0.00000000000E+00  0.26199910324E+03  0.26199910324E+03  0.00000000000E+00 0.  1.
         21   -1    0    0  502  503 -0.00000000000E+00 -0.00000000000E+00 -0.20255025509E+01  0.20255025509E+01  0.00000000000E+00 0.  1.
          5    1    1    2  501    0 -0.21132632691E+02 -0.34678741495E+01  0.17863445633E+03  0.17991354397E+03  0.00000000000E+00 0.  1.
         -5    1    1    2    0  503  0.21132632691E+02  0.34678741495E+01  0.81339144361E+02  0.84111061823E+02  0.00000000000E+00 0. -1.
<mgrwt>
<rscale>  2 0.21415282E+02</rscale>
<asrwt>0</asrwt>
<pdfrwt beam="1">  1       21 0.40307528E-01 0.21415282E+02</pdfrwt>
<pdfrwt beam="2">  1       21 0.31161598E-03 0.21415282E+02</pdfrwt>
<totfact> 0.95387557E+07</totfact>
</mgrwt>
</event>
<event>
 4    1  0.7165636E+004  0.2194630E+02  0.7546771E-02  0.1709182E+00
         21   -1    0    0  503  502  0.00000000000E+00  0.00000000000E+00  0.63237158735E+02  0.63237158735E+02  0.00000000000E+00 0. -1.
         21   -1    0    0  501  503 -0.00000000000E+00 -0.00000000000E+00 -0.11286110244E+02  0.11286110244E+02  0.00000000000E+00 0. -1.
          2    1    1    2  501    0  0.53696377682E+01 -0.21279261372E+02  0.47281534672E+01  0.22449842082E+02  0.00000000000E+00 0. -1.
         -2    1    1    2    0  502 -0.53696377682E+01  0.21279261372E+02  0.47222895025E+02  0.52073426897E+02  0.00000000000E+00 0.  1.
<mgrwt>
<rscale>  2 0.21946298E+02</rscale>
<asrwt>0</asrwt>
<pdfrwt beam="1">  1       21 0.97287934E-02 0.21946298E+02</pdfrwt>
<pdfrwt beam="2">  1       21 0.17363247E-02 0.21946298E+02</pdfrwt>
<totfact> 0.89396682E+07</totfact>
</mgrwt>
</event>
<event>
 4    1  0.7165636E+004  0.2031538E+02  0.7546771E-02  0.1739128E+00
         21   -1    0    0  501  502  0.00000000000E+00  0.00000000000E+00  0.45711720681E+02  0.45711720681E+02  0.00000000000E+00 0.  1.
         21   -1    0    0  502  503 -0.00000000000E+00 -0.00000000000E+00 -0.10776090278E+02  0.10776090278E+02  0.00000000000E+00 0.  1.
          4    1    1    2  501    0  0.94162837271E+01 -0.18001339542E+02  0.60942485882E+01  0.21209773464E+02  0.00000000000E+00 0.  1.
         -4    1    1    2    0  503 -0.94162837271E+01  0.18001339542E+02  0.28841381814E+02  0.35278037495E+02  0.00000000000E+00 0. -1.
<mgrwt>
<rscale>  2 0.20315379E+02</rscale>
<asrwt>0</asrwt>
<pdfrwt beam="1">  1       21 0.70325723E-02 0.20315379E+02</pdfrwt>
<pdfrwt beam="2">  1       21 0.16578601E-02 0.20315379E+02</pdfrwt>
<totfact> 0.15904147E+08</totfact>
</mgrwt>
</event>
<event>
 4    1  0.7165636E+004  0.2012715E+02  0.7546771E-02  0.1742811E+00
         21   -1    0    0  503  502  0.00000000000E+00  0.00000000000E+00  0.44032463225E+02  0.44032463225E+02  0.00000000000E+00 0.  1.
         21   -1    0    0  501  503 -0.00000000000E+00 -0.00000000000E+00 -0.10805683640E+02  0.10805683640E+02  0.00000000000E+00 0.  1.
          4    1    1    2  501    0  0.11918108879E+02 -0.16219147483E+02  0.27182688958E+02  0.33823078560E+02  0.00000000000E+00 0.  1.
         -4    1    1    2    0  502 -0.11918108879E+02  0.16219147483E+02  0.60440906275E+01  0.21015068305E+02  0.00000000000E+00 0. -1.
<mgrwt>
<rscale>  2 0.20127147E+02</rscale>
<asrwt>0</asrwt>
<pdfrwt beam="1">  1       21 0.67742250E-02 0.20127147E+02</pdfrwt>
<pdfrwt beam="2">  1       21 0.16624129E-02 0.20127147E+02</pdfrwt>
<totfact> 0.16770716E+08</totfact>
</mgrwt>
</event>
<event>
 4    1  0.7165636E+004  0.2435571E+02  0.7546771E-02  0.1670432E+00
         21   -1    0    0  503  502  0.00000000000E+00  0.00000000000E+00  0.78120034885E+02  0.78120034885E+02  0.00000000000E+00 0.  1.
         21   -1    0    0  501  503 -0.00000000000E+00 -0.00000000000E+00 -0.91827692804E+01  0.91827692804E+01  0.00000000000E+00 0.  1.
          2    1    1    2  501    0  0.17126401365E+02  0.17317241014E+02  0.16308578395E+02  0.29311605028E+02  0.00000000000E+00 0.  1.
         -2    1    1    2    0  502 -0.17126401365E+02 -0.17317241014E+02  0.52628687209E+02  0.57991199138E+02  0.00000000000E+00 0. -1.
<mgrwt>
<rscale>  2 0.24355707E+02</rscale>
<asrwt>0</asrwt>
<pdfrwt beam="1">  1       21 0.12018466E-01 0.24355707E+02</pdfrwt>
<pdfrwt beam="2">  1       21 0.14127338E-02 0.24355707E+02</pdfrwt>
<totfact> 0.88651612E+07</totfact>
</mgrwt>
</event>
<event>
 4    1  0.7165636E+004  0.2215785E+02  0.7546771E-02  0.1705536E+00
         21   -1    0    0  501  502  0.00000000000E+00  0.00000000000E+00  0.68141273672E+01  0.68141273672E+01  0.00000000000E+00 0.  1.
         21   -1    0    0  502  503 -0.00000000000E+00 -0.00000000000E+00 -0.72226345444E+02  0.72226345444E+02  0.00000000000E+00 0.  1.
          3    1    1    2  501    0  0.23870552161E+01  0.22028892614E+02 -0.30763318663E+02  0.37912424316E+02  0.00000000000E+00 0.  1.
         -3    1    1    2    0  503 -0.23870552161E+01 -0.22028892614E+02 -0.34648899414E+02  0.41128048495E+02  0.00000000000E+00 0. -1.
<mgrwt>
<rscale>  2 0.22157846E+02</rscale>
<asrwt>0</asrwt>
<pdfrwt beam="1">  1       21 0.10483273E-02 0.22157846E+02</pdfrwt>
<pdfrwt beam="2">  1       21 0.11111745E-01 0.22157846E+02</pdfrwt>
<totfact> 0.15435434E+08</totfact>
</mgrwt>
</event>
<event>
 4    1  0.7165636E+004  0.2076601E+02  0.7546771E-02  0.1730510E+00
         21   -1    0    0  501  502  0.00000000000E+00  0.00000000000E+00  0.65636322821E+02  0.65636322821E+02  0.00000000000E+00 0. -1.
         21   -1    0    0  502  503 -0.00000000000E+00 -0.00000000000E+00 -0.69276005421E+01  0.69276005421E+01  0.00000000000E+00 0. -1.
          5    1    1    2  501    0  0.10176440814E+02  0.18101585928E+02  0.37598186259E+02  0.42951728379E+02  0.00000000000E+00 0. -1.
         -5    1    1    2    0  503 -0.10176440814E+02 -0.18101585928E+02  0.21110536020E+02  0.29612194984E+02  0.00000000000E+00 0.  1.
<mgrwt>
<rscale>  2 0.20766015E+02</rscale>
<asrwt>0</asrwt>
<pdfrwt beam="1">  1       21 0.10097895E-01 0.20766015E+02</pdfrwt>
<pdfrwt beam="2">  1       21 0.10657847E-02 0.20766015E+02</pdfrwt>
<totfact> 0.17294234E+08</totfact>
</mgrwt>
</event>
<event>
 4    1  0.7165636E+004  0.2479381E+02  0.7546771E-02  0.1663981E+00
         21   -1    0    0  501  502  0.00000000000E+00  0.00000000000E+00  0.95586505821E+01  0.95586505821E+01  0.00000000000E+00 0.  1.
         21   -1    0    0  502  503 -0.00000000000E+00 -0.00000000000E+00 -0.65524143602E+02  0.65524143602E+02  0.00000000000E+00 0.  1.
          1    1    1    2  501    0  0.10578128908E+02 -0.22424008074E+02 -0.22876018081E+02  0.33734924819E+02  0.00000000000E+00 0.  1.
         -1    1    1    2    0  503 -0.10578128908E+02  0.22424008074E+02 -0.33089474939E+02  0.41347869365E+02  0.00000000000E+00 0. -1.
<mgrwt>
<rscale>  2 0.24793809E+02</rscale>
<asrwt>0</asrwt>
<pdfrwt beam="1">  1       21 0.14705617E-02 0.24793809E+02</pdfrwt>
<pdfrwt beam="2">  1       21 0.10080637E-01 0.24793809E+02</pdfrwt>
<totfact> 0.11238117E+08</totfact>
</mgrwt>
</event>
<event>
 4    1  0.7165636E+004  0.2301716E+02  0.7546771E-02  0.1691232E+00
         21   -1    0    0  503  502  0.00000000000E+00  0.00000000000E+00  0.18884161116E+02  0.18884161116E+02  0.00000000000E+00 0. -1.
         21   -1    0    0  501  503 -0.00000000000E+00 -0.00000000000E+00 -0.38463268756E+02  0.38463268756E+02  0.00000000000E+00 0. -1.
          1    1    1    2  501    0 -0.14515444381E+02 -0.17863134327E+02 -0.24705682958E+02  0.33766262215E+02  0.00000000000E+00 0. -1.
         -1    1    1    2    0  502  0.14515444381E+02  0.17863134327E+02  0.51265753182E+01  0.23581167657E+02  0.00000000000E+00 0.  1.
<mgrwt>
<rscale>  2 0.23017161E+02</rscale>
<asrwt>0</asrwt>
<pdfrwt beam="1">  1       21 0.29052556E-02 0.23017161E+02</pdfrwt>
<pdfrwt beam="2">  1       21 0.59174259E-02 0.23017161E+02</pdfrwt>
<totfact> 0.92065104E+07</totfact>
</mgrwt>
</event>
<event>
 4    1  0.7165636E+004  0.3154310E+02  0.7546771E-02  0.1581632E+00
         21   -1    0    0  503  502  0.00000000000E+00  0.00000000000E+00  0.65747898081E+02  0.65747898081E+02  0.00000000000E+00 0.  1.
         21   -1    0    0  501  503 -0.00000000000E+00 -0.00000000000E+00 -0.15172468444E+02  0.15172468444E+02  0.00000000000E+00 0.  1.
          4    1    1    2  501    0 -0.17721562602E+02  0.26094311601E+02  0.27349744912E+02  0.41748957181E+02  0.00000000000E+00 0.  1.
         -4    1    1    2    0  502  0.17721562602E+02 -0.26094311601E+02  0.23225684725E+02  0.39171409343E+02  0.00000000000E+00 0. -1.
<mgrwt>
<rscale>  2 0.31543096E+02</rscale>
<asrwt>0</asrwt>
<pdfrwt beam="1">  1       21 0.10115061E-01 0.31543096E+02</pdfrwt>
<pdfrwt beam="2">  1       21 0.23342260E-02 0.31543096E+02</pdfrwt>
<totfact> 0.58164053E+07</totfact>
</mgrwt>
</event>
<event>
 4    1  0.7165636E+004  0.2399949E+02  0.7546771E-02  0.1675803E+00
         21   -1    0    0  503  502  0.00000000000E+00  0.00000000000E+00  0.12030310698E+03  0.12030310698E+03  0.00000000000E+00 0. -1.
         21   -1    0    0  501  503 -0.00000000000E+00 -0.00000000000E+00 -0.47906442703E+01  0.47906442703E+01  0.00000000000E+00 0. -1.
          5    1    1    2  501    0  0.19767389887E+02  0.13609772339E+02  0.56206560795E+02  0.61115898770E+02  0.00000000000E+00 0. -1.
         -5    1    1    2    0  502 -0.19767389887E+02 -0.13609772339E+02  0.59305901914E+02  0.63977852480E+02  0.00000000000E+00 0.  1.
<mgrwt>
<rscale>  2 0.23999492E+02</rscale>
<asrwt>0</asrwt>
<pdfrwt beam="1">  1       21 0.18508168E-01 0.23999492E+02</pdfrwt>
<pdfrwt beam="2">  1       21 0.73702228E-03 0.23999492E+02</pdfrwt>
<totfact> 0.11258038E+08</totfact>
</mgrwt>
</event>
<event>
 4    1  0.7165636E+004  0.2362369E+02  0.7546771E-02  0.1681595E+00
         21   -1    0    0  501  502  0.00000000000E+00  0.00000000000E+00  0.71120273847E+01  0.71120273847E+01  0.00000000000E+00 0. -1.
         21   -1    0    0  502  503 -0.00000000000E+00 -0.00000000000E+00 -0.78743946736E+02  0.78743946736E+02  0.00000000000E+00 0. -1.
          5    1    1    2  501    0 -0.23488383704E+02  0.25248000732E+01 -0.33282649971E+02  0.40814379495E+02  0.00000000000E+00 0.  1.
         -5    1    1    2    0  503  0.23488383704E+02 -0.25248000732E+01 -0.38349269381E+02  0.45041594626E+02  0.00000000000E+00 0. -1.
<mgrwt>
<rscale>  2 0.23623691E+02</rscale>
<asrwt>0</asrwt>
<pdfrwt beam="1">  1       21 0.10941581E-02 0.23623691E+02</pdfrwt>
<pdfrwt beam="2">  1       21 0.12114452E-01 0.23623691E+02</pdfrwt>
<totfact> 0.12768145E+08</totfact>
</mgrwt>
</event>
<event>
 4    1  0.7165636E+004  0.3310000E+02  0.7546771E-02  0.1566151E+00
         21   -1    0    0  503  502  0.00000000000E+00  0.00000000000E+00  0.73112988579E+01  0.73112988579E+01  0.00000000000E+00 0. -1.
         21   -1    0    0  501  503 -0.00000000000E+00 -0.00000000000E+00 -0.15062278933E+03  0.15062278933E+03  0.00000000000E+00 0. -1.
          2    1    1    2  501    0  0.26641972871E+02  0.19642179524E+02 -0.66005372767E+02  0.73839821025E+02  0.00000000000E+00 0. -1.
         -2    1    1    2    0  502 -0.26641972871E+02 -0.19642179524E+02 -0.77306117701E+02  0.84094267159E+02  0.00000000000E+00 0.  1.
<mgrwt>
<rscale>  2 0.33099999E+02</rscale>
<asrwt>0</asrwt>
<pdfrwt beam="1">  1       21 0.11248152E-02 0.33099999E+02</pdfrwt>
<pdfrwt beam="2">  1       21 0.23172737E-01 0.33099999E+02</pdfrwt>
<totfact> 0.43128297E+07</totfact>
</mgrwt>
</event>
<event>
 4    1  0.7165636E+004  0.2719994E+02  0.7546771E-02  0.1631276E+00
         21   -1    0    0  503  502  0.00000000000E+00  0.00000000000E+00  0.50980551049E+02  0.50980551049E+02  0.00000000000E+00 0. -1.
         21   -1    0    0  501  503 -0.00000000000E+00 -0.00000000000E+00 -0.15251274984E+02  0.15251274984E+02  0.00000000000E+00 0. -1.
          5    1    1    2  501    0  0.24275047345E+02  0.12270237609E+02  0.10574312573E+02  0.29183089983E+02  0.00000000000E+00 0. -1.
         -5    1    1    2    0  502 -0.24275047345E+02 -0.12270237609E+02  0.25154963492E+02  0.37048736050E+02  0.00000000000E+00 0.  1.
<mgrwt>
<rscale>  2 0.27199939E+02</rscale>
<asrwt>0</asrwt>
<pdfrwt beam="1">  1       21 0.78431616E-02 0.27199939E+02</pdfrwt>
<pdfrwt beam="2">  1       21 0.23463500E-02 0.27199939E+02</pdfrwt>
<totfact> 0.84936419E+07</totfact>
</mgrwt>
</event>
<event>
 4    1  0.7165636E+004  0.2194919E+02  0.7546771E-02  0.1709132E+00
         21   -1    0    0  503  502  0.00000000000E+00  0.00000000000E+00  0.49410496254E+01  0.49410496254E+01  0.00000000000E+00 0. -1.
         21   -1    0    0  501  503 -0.00000000000E+00 -0.00000000000E+00 -0.98753505902E+02  0.98753505902E+02  0.00000000000E+00 0. -1.
          1    1    1    2  501    0  0.10840212230E+02  0.19085507439E+02 -0.52740752278E+02  0.57125771296E+02  0.00000000000E+00 0.  1.
         -1    1    1    2    0  502 -0.10840212230E+02 -0.19085507439E+02 -0.41071703999E+02  0.46568784231E+02  0.00000000000E+00 0. -1.
<mgrwt>
<rscale>  2 0.21949187E+02</rscale>
<asrwt>0</asrwt>
<pdfrwt beam="1">  1       21 0.76016149E-03 0.21949187E+02</pdfrwt>
<pdfrwt beam="2">  1       21 0.15192847E-01 0.21949187E+02</pdfrwt>
<totfact> 0.14708024E+08</totfact>
</mgrwt>
</event>
<event>
 4    1  0.7165636E+004  0.2522326E+02  0.7546771E-02  0.1657816E+00
         21   -1    0    0  501  502  0.00000000000E+00  0.00000000000E+00  0.13565508028E+03  0.13565508028E+03  0.00000000000E+00 0.  1.
         21   -1    0    0  502  503 -0.00000000000E+00 -0.00000000000E+00 -0.92072019235E+01  0.92072019235E+01  0.00000000000E+00 0.  1.
          4    1    1    2  501    0  0.76109031035E+00  0.25211769766E+02  0.12489870244E+02  0.28146215588E+02  0.00000000000E+00 0. -1.
         -4    1    1    2    0  503 -0.76109031035E+00 -0.25211769766E+02  0.11395800811E+03  0.11671606662E+03  0.00000000000E+00 0.  1.
<mgrwt>
<rscale>  2 0.25223255E+02</rscale>
<asrwt>0</asrwt>
<pdfrwt beam="1">  1       21 0.20870011E-01 0.25223255E+02</pdfrwt>
<pdfrwt beam="2">  1       21 0.14164927E-02 0.25223255E+02</pdfrwt>
<totfact> 0.34528922E+07</totfact>
</mgrwt>
</event>
<event>
 4    1  0.7165636E+004  0.2179586E+02  0.7546771E-02  0.1711807E+00
         21   -1    0    0  503  502  0.00000000000E+00  0.00000000000E+00  0.59315040963E+03  0.59315040963E+03  0.00000000000E+00 0. -1.
         21   -1    0    0  501  503 -0.00000000000E+00 -0.00000000000E+00 -0.85820879082E+00  0.85820879082E+00  0.00000000000E+00 0. -1.
          3    1    1    2  501    0  0.17903763547E+00  0.21795125709E+02  0.37288974509E+03  0.37352619929E+03  0.00000000000E+00 0.  1.
         -3    1    1    2    0  502 -0.17903763547E+00 -0.21795125709E+02  0.21940245575E+03  0.22048241914E+03  0.00000000000E+00 0. -1.
<mgrwt>
<rscale>  2 0.21795861E+02</rscale>
<asrwt>0</asrwt>
<pdfrwt beam="1">  1       21 0.91253582E-01 0.21795861E+02</pdfrwt>
<pdfrwt beam="2">  1       21 0.13203260E-03 0.21795861E+02</pdfrwt>
<totfact> 0.64374900E+07</totfact>
</mgrwt>
</event>
<event>
 4    1  0.7165636E+004  0.2828308E+02  0.7546771E-02  0.1617881E+00
         21   -1    0    0  503  502  0.00000000000E+00  0.00000000000E+00  0.52755870934E+02  0.52755870934E+02  0.00000000000E+00 0.  1.
         21   -1    0    0  501  503 -0.00000000000E+00 -0.00000000000E+00 -0.23788884314E+02  0.23788884314E+02  0.00000000000E+00 0.  1.
          1    1    1    2  501    0  0.24865208052E+02 -0.13477901662E+02  0.37529863980E+02  0.46993862312E+02  0.00000000000E+00 0. -1.
         -1    1    1    2    0  502 -0.24865208052E+02  0.13477901662E+02 -0.85628773593E+01  0.29550892937E+02  0.00000000000E+00 0.  1.
<mgrwt>
<rscale>  2 0.28283076E+02</rscale>
<asrwt>0</asrwt>
<pdfrwt beam="1">  1       21 0.81162878E-02 0.28283076E+02</pdfrwt>
<pdfrwt beam="2">  1       21 0.36598284E-02 0.28283076E+02</pdfrwt>
<totfact> 0.40385271E+07</totfact>
</mgrwt>
</event>
<event>
 4    1  0.7165636E+004  0.2101791E+02  0.7546771E-02  0.1725812E+00
         21   -1    0    0  501  502  0.00000000000E+00  0.00000000000E+00  0.10740900363E+03  0.10740900363E+03  0.00000000000E+00 0. -1.
         21   -1    0    0  502  503 -0.00000000000E+00 -0.00000000000E+00 -0.51634972977E+01  0.51634972977E+01  0.00000000000E+00 0. -1.
          5    1    1    2  501    0  0.78517831363E+01  0.19496201140E+02  0.76513061869E+02  0.79347343963E+02  0.00000000000E+00 0.  1.
         -5    1    1    2    0  503 -0.78517831363E+01 -0.19496201140E+02  0.25732444465E+02  0.33225156967E+02  0.00000000000E+00 0. -1.
<mgrwt>
<rscale>  2 0.21017906E+02</rscale>
<asrwt>0</asrwt>
<pdfrwt beam="1">  1       21 0.16524461E-01 0.21017906E+02</pdfrwt>
<pdfrwt beam="2">  1       21 0.79438428E-03 0.21017906E+02</pdfrwt>
<totfact> 0.11785447E+08</totfact>
</mgrwt>
</event>
<event>
 4    1  0.7165636E+004  0.2838478E+02  0.7546771E-02  0.1616661E+00
         21   -1    0    0  501  502  0.00000000000E+00  0.00000000000E+00  0.18489392191E+03  0.18489392191E+03  0.00000000000E+00 0. -1.
         21   -1    0    0  502  503 -0.00000000000E+00 -0.00000000000E+00 -0.58541791053E+01  0.58541791053E+01  0.00000000000E+00 0. -1.
          4    1    1    2  501    0 -0.26109225223E+02  0.11135722477E+02  0.41297858506E+02  0.50111965378E+02  0.00000000000E+00 0.  1.
         -4    1    1    2    0  503  0.26109225223E+02 -0.11135722477E+02  0.13774188430E+03  0.14063613564E+03  0.00000000000E+00 0. -1.
<mgrwt>
<rscale>  2 0.28384784E+02</rscale>
<asrwt>0</asrwt>
<pdfrwt beam="1">  1       21 0.28445214E-01 0.28384784E+02</pdfrwt>
<pdfrwt beam="2">  1       21 0.90064308E-03 0.28384784E+02</pdfrwt>
<totfact> 0.40411877E+07</totfact>
</mgrwt>
</event>
<event>
 4    1  0.7165636E+004  0.2330803E+02  0.7546771E-02  0.1686565E+00
         21   -1    0    0  503  502  0.00000000000E+00  0.00000000000E+00  0.13617405243E+01  0.13617405243E+01  0.00000000000E+00 0. -1.
         21   -1    0    0  501  503 -0.00000000000E+00 -0.00000000000E+00 -0.39942755371E+03  0.39942755371E+03  0.00000000000E+00 0. -1.
          5    1    1    2  501    0 -0.21803942326E+02 -0.82372404024E+01 -0.20597454675E+03  0.20728911679E+03  0.00000000000E+00 0.  1.
         -5    1    1    2    0  502  0.21803942326E+02  0.82372404024E+01 -0.19209126644E+03  0.19350017745E+03  0.00000000000E+00 0. -1.
<mgrwt>
<rscale>  2 0.23308025E+02</rscale>
<asrwt>0</asrwt>
<pdfrwt beam="1">  1       21 0.20949849E-03 0.23308025E+02</pdfrwt>
<pdfrwt beam="2">  1       21 0.61450408E-01 0.23308025E+02</pdfrwt>
<totfact> 0.76473100E+07</totfact>
</mgrwt>
</event>
<event>
 4    1  0.7165636E+004  0.2297351E+02  0.7546771E-02  0.1691940E+00
         21   -1    0    0  503  502  0.00000000000E+00  0.00000000000E+00  0.85634523610E+02  0.85634523610E+02  0.00000000000E+00 0. -1.
         21   -1    0    0  501  503 -0.00000000000E+00 -0.00000000000E+00 -0.64596715518E+01  0.64596715518E+01  0.00000000000E+00 0. -1.
          5    1    1    2  501    0 -0.20631685050E+02 -0.10105225893E+02  0.29722488227E+02  0.37566052824E+02  0.00000000000E+00 0.  1.
         -5    1    1    2    0  502  0.20631685050E+02  0.10105225893E+02  0.49452363831E+02  0.54528142338E+02  0.00000000000E+00 0. -1.
<mgrwt>
<rscale>  2 0.22973507E+02</rscale>
<asrwt>0</asrwt>
<pdfrwt beam="1">  1       21 0.13174541E-01 0.22973507E+02</pdfrwt>
<pdfrwt beam="2">  1       21 0.99379568E-03 0.22973507E+02</pdfrwt>
<totfact> 0.12711850E+08</totfact>
</mgrwt>
</event>
<event>
 4    1  0.7165636E+004  0.2482487E+02  0.7546771E-02  0.1663530E+00
         21   -1    0    0  501  502  0.00000000000E+00  0.00000000000E+00  0.29859524454E+03  0.29859524454E+03  0.00000000000E+00 0. -1.
         21   -1    0    0  502  503 -0.00000000000E+00 -0.00000000000E+00 -0.20736473985E+01  0.20736473985E+01  0.00000000000E+00 0. -1.
          3    1    1    2  501    0 -0.12067953909E+02 -0.21694213182E+02  0.13796022802E+03  0.14017595697E+03  0.00000000000E+00 0. -1.
         -3    1    1    2    0  503  0.12067953909E+02  0.21694213182E+02  0.15856136912E+03  0.16049293497E+03  0.00000000000E+00 0.  1.
<mgrwt>
<rscale>  2 0.24824875E+02</rscale>
<asrwt>0</asrwt>
<pdfrwt beam="1">  1       21 0.45937696E-01 0.24824875E+02</pdfrwt>
<pdfrwt beam="2">  1       21 0.31902291E-03 0.24824875E+02</pdfrwt>
<totfact> 0.74630628E+07</totfact>
</mgrwt>
</event>
<event>
 4    1  0.7165636E+004  0.2161263E+02  0.7546771E-02  0.1715039E+00
         21   -1    0    0  503  502  0.00000000000E+00  0.00000000000E+00  0.29782064160E+01  0.29782064160E+01  0.00000000000E+00 0.  1.
         21   -1    0    0  501  503 -0.00000000000E+00 -0.00000000000E+00 -0.15770112339E+03  0.15770112339E+03  0.00000000000E+00 0.  1.
          4    1    1    2  501    0  0.17335670200E+01  0.21542993590E+02 -0.71429309684E+02  0.74627421966E+02  0.00000000000E+00 0. -1.
         -4    1    1    2    0  502 -0.17335670200E+01 -0.21542993590E+02 -0.83293607287E+02  0.86051907837E+02  0.00000000000E+00 0.  1.
<mgrwt>
<rscale>  2 0.21612631E+02</rscale>
<asrwt>0</asrwt>
<pdfrwt beam="1">  1       21 0.45818569E-03 0.21612631E+02</pdfrwt>
<pdfrwt beam="2">  1       21 0.24261707E-01 0.21612631E+02</pdfrwt>
<totfact> 0.13737626E+08</totfact>
</mgrwt>
</event>
<event>
 4    1  0.7165636E+004  0.4172073E+02  0.7546771E-02  0.1495917E+00
         21   -1    0    0  501  502  0.00000000000E+00  0.00000000000E+00  0.48037197175E+02  0.48037197175E+02  0.00000000000E+00 0. -1.
         21   -1    0    0  502  503 -0.00000000000E+00 -0.00000000000E+00 -0.58507078953E+02  0.58507078953E+02  0.00000000000E+00 0. -1.
          3    1    1    2  501    0 -0.36822923356E+00  0.41719107281E+02 -0.38103297465E+02  0.56502042289E+02  0.00000000000E+00 0. -1.
         -3    1    1    2    0  503  0.36822923356E+00 -0.41719107281E+02  0.27633415687E+02  0.50042233839E+02  0.00000000000E+00 0.  1.
<mgrwt>
<rscale>  2 0.41720732E+02</rscale>
<asrwt>0</asrwt>
<pdfrwt beam="1">  1       21 0.73903380E-02 0.41720732E+02</pdfrwt>
<pdfrwt beam="2">  1       21 0.90010891E-02 0.41720732E+02</pdfrwt>
<totfact> 0.11676346E+07</totfact>
</mgrwt>
</event>
<event>
 4    1  0.7165636E+004  0.2086444E+02  0.7546771E-02  0.1728665E+00
         21   -1    0    0  503  502  0.00000000000E+00  0.00000000000E+00  0.18875212020E+02  0.18875212020E+02  0.00000000000E+00 0.  1.
         21   -1    0    0  501  503 -0.00000000000E+00 -0.00000000000E+00 -0.30793144757E+02  0.30793144757E+02  0.00000000000E+00 0.  1.
          5    1    1    2  501    0  0.10092435600E+02  0.18261091027E+02  0.64835472312E+01  0.21848594613E+02  0.00000000000E+00 0. -1.
         -5    1    1    2    0  502 -0.10092435600E+02 -0.18261091027E+02 -0.18401479968E+02  0.27819762164E+02  0.00000000000E+00 0.  1.
<mgrwt>
<rscale>  2 0.20864436E+02</rscale>
<asrwt>0</asrwt>
<pdfrwt beam="1">  1       21 0.29038788E-02 0.20864436E+02</pdfrwt>
<pdfrwt beam="2">  1       21 0.47374068E-02 0.20864436E+02</pdfrwt>
<totfact> 0.12757197E+08</totfact>
</mgrwt>
</event>
<event>
 4    1  0.7165636E+004  0.2513441E+02  0.7546771E-02  0.1659079E+00
         21   -1    0    0  503  502  0.00000000000E+00  0.00000000000E+00  0.50540664002E+01  0.50540664002E+01  0.00000000000E+00 0. -1.
         21   -1    0    0  501  503 -0.00000000000E+00 -0.00000000000E+00 -0.13238651976E+03  0.13238651976E+03  0.00000000000E+00 0. -1.
          2    1    1    2  501    0  0.12176698135E+02  0.21987879029E+02 -0.79902877004E+02  0.83762811290E+02  0.00000000000E+00 0.  1.
         -2    1    1    2    0  502 -0.12176698135E+02 -0.21987879029E+02 -0.47429576354E+02  0.53677774869E+02  0.00000000000E+00 0. -1.
<mgrwt>
<rscale>  2 0.25134415E+02</rscale>
<asrwt>0</asrwt>
<pdfrwt beam="1">  1       21 0.77754868E-03 0.25134415E+02</pdfrwt>
<pdfrwt beam="2">  1       21 0.20367157E-01 0.25134415E+02</pdfrwt>
<totfact> 0.89018030E+07</totfact>
</mgrwt>
</event>
<event>
 4    1  0.7165636E+004  0.2304969E+02  0.7546771E-02  0.1690706E+00
         21   -1    0    0  501  502  0.00000000000E+00  0.00000000000E+00  0.41559960388E+01  0.41559960388E+01  0.00000000000E+00 0. -1.
         21   -1    0    0  502  503 -0.00000000000E+00 -0.00000000000E+00 -0.15027244813E+03  0.15027244813E+03  0.00000000000E+00 0. -1.
          3    1    1    2  501    0 -0.23048625655E+02 -0.22134167572E+00 -0.43222989465E+02  0.48984844136E+02  0.00000000000E+00 0.  1.
         -3    1    1    2    0  503  0.23048625655E+02  0.22134167572E+00 -0.10289346263E+03  0.10544360003E+03  0.00000000000E+00 0. -1.
<mgrwt>
<rscale>  2 0.23049688E+02</rscale>
<asrwt>0</asrwt>
<pdfrwt beam="1">  1       21 0.63938401E-03 0.23049688E+02</pdfrwt>
<pdfrwt beam="2">  1       21 0.23118838E-01 0.23049688E+02</pdfrwt>
<totfact> 0.93154205E+07</totfact>
</mgrwt>
</event>
<event>
 4    1  0.7165636E+004  0.2248095E+02  0.7546771E-02  0.1700065E+00
         21   -1    0    0  503  502  0.00000000000E+00  0.00000000000E+00  0.98030312658E+01  0.98030312658E+01  0.00000000000E+00 0. -1.
         21   -1    0    0  501  503 -0.00000000000E+00 -0.00000000000E+00 -0.51589712152E+02  0.51589712152E+02  0.00000000000E+00 0. -1.
          1    1    1    2  501    0  0.12067437332E+02 -0.18967606085E+02 -0.20094581841E+02  0.30152700438E+02  0.00000000000E+00 0. -1.
         -1    1    1    2    0  502 -0.12067437332E+02  0.18967606085E+02 -0.21692099046E+02  0.31240042980E+02  0.00000000000E+00 0.  1.
<mgrwt>
<rscale>  2 0.22480950E+02</rscale>
<asrwt>0</asrwt>
<pdfrwt beam="1">  1       21 0.15081587E-02 0.22480950E+02</pdfrwt>
<pdfrwt beam="2">  1       21 0.79368788E-02 0.22480950E+02</pdfrwt>
<totfact> 0.15572643E+08</totfact>
</mgrwt>
</event>
<event>
 4    1  0.7165636E+004  0.2092845E+02  0.7546771E-02  0.1727471E+00
         21   -1    0    0  503  502  0.00000000000E+00  0.00000000000E+00  0.14507689387E+01  0.14507689387E+01  0.00000000000E+00 0.  1.
         21   -1    0    0  501  503 -0.00000000000E+00 -0.00000000000E+00 -0.48105725951E+03  0.48105725951E+03  0.00000000000E+00 0.  1.
          4    1    1    2  501    0 -0.34210741832E+01  0.20646941159E+02 -0.92577864755E+02  0.94913966150E+02  0.00000000000E+00 0. -1.
         -4    1    1    2    0  502  0.34210741832E+01 -0.20646941159E+02 -0.38702862582E+03  0.38759406230E+03  0.00000000000E+00 0.  1.
<mgrwt>
<rscale>  2 0.20928448E+02</rscale>
<asrwt>0</asrwt>
<pdfrwt beam="1">  1       21 0.22319544E-03 0.20928448E+02</pdfrwt>
<pdfrwt beam="2">  1       21 0.74008736E-01 0.20928448E+02</pdfrwt>
<totfact> 0.46592887E+07</totfact>
</mgrwt>
</event>
<event>
 4    1  0.7165636E+004  0.2151047E+02  0.7546771E-02  0.1716858E+00
         21   -1    0    0  501  502  0.00000000000E+00  0.00000000000E+00  0.23357777017E+02  0.23357777017E+02  0.00000000000E+00 0.  1.
         21   -1    0    0  502  503 -0.00000000000E+00 -0.00000000000E+00 -0.20234472803E+02  0.20234472803E+02  0.00000000000E+00 0.  1.
          1    1    1    2  501    0 -0.67650327777E+00  0.21499826936E+02 -0.15979899427E+01  0.21569742391E+02  0.00000000000E+00 0.  1.
         -1    1    1    2    0  503  0.67650327777E+00 -0.21499826936E+02  0.47212941573E+01  0.22022507429E+02  0.00000000000E+00 0. -1.
<mgrwt>
<rscale>  2 0.21510468E+02</rscale>
<asrwt>0</asrwt>
<pdfrwt beam="1">  1       21 0.35935041E-02 0.21510468E+02</pdfrwt>
<pdfrwt beam="2">  1       21 0.31129958E-02 0.21510468E+02</pdfrwt>
<totfact> 0.17854827E+08</totfact>
</mgrwt>
</event>
<event>
 4    1  0.7165636E+004  0.2022537E+02  0.7546771E-02  0.1740883E+00
         21   -1    0    0  503  502  0.00000000000E+00  0.00000000000E+00  0.12732628359E+03  0.12732628359E+03  0.00000000000E+00 0.  1.
         21   -1    0    0  501  503 -0.00000000000E+00 -0.00000000000E+00 -0.40008992630E+01  0.40008992630E+01  0.00000000000E+00 0.  1.
          3    1    1    2  501    0  0.19365553714E+02  0.58344672079E+01  0.90807019833E+02  0.93032147827E+02  0.00000000000E+00 0. -1.
         -3    1    1    2    0  502 -0.19365553714E+02 -0.58344672079E+01  0.32518364490E+02  0.38295035022E+02  0.00000000000E+00 0.  1.
<mgrwt>
<rscale>  2 0.20225372E+02</rscale>
<asrwt>0</asrwt>
<pdfrwt beam="1">  1       21 0.19588656E-01 0.20225372E+02</pdfrwt>
<pdfrwt beam="2">  1       21 0.61552306E-03 0.20225372E+02</pdfrwt>
<totfact> 0.12692030E+08</totfact>
</mgrwt>
</event>
<event>
 4    1  0.7165636E+004  0.2702084E+02  0.7546771E-02  0.1633565E+00
         21   -1    0    0  503  502  0.00000000000E+00  0.00000000000E+00  0.48501710419E+02  0.48501710419E+02  0.00000000000E+00 0. -1.
         21   -1    0    0  501  503 -0.00000000000E+00 -0.00000000000E+00 -0.15127802911E+02  0.15127802911E+02  0.00000000000E+00 0. -1.
          5    1    1    2  501    0 -0.25889554328E+02 -0.77367062989E+01  0.14458862018E+02  0.30646114574E+02  0.00000000000E+00 0.  1.
         -5    1    1    2    0  502  0.25889554328E+02  0.77367062989E+01  0.18915045490E+02  0.32983398756E+02  0.00000000000E+00 0. -1.
<mgrwt>
<rscale>  2 0.27020837E+02</rscale>
<asrwt>0</asrwt>
<pdfrwt beam="1">  1       21 0.74618015E-02 0.27020837E+02</pdfrwt>
<pdfrwt beam="2">  1       21 0.23273543E-02 0.27020837E+02</pdfrwt>
<totfact> 0.93175017E+07</totfact>
</mgrwt>
</event>
<event>
 4    1  0.7165636E+004  0.2027894E+02  0.7546771E-02  0.1739837E+00
         21   -1    0    0  503  502  0.00000000000E+00  0.00000000000E+00  0.51534251338E+00  0.51534251338E+00  0.00000000000E+00 0.  1.
         21   -1    0    0  501  503 -0.00000000000E+00 -0.00000000000E+00 -0.83393409958E+03  0.83393409958E+03  0.00000000000E+00 0.  1.
          4    1    1    2  501    0 -0.13200880008E+02 -0.15393898102E+02 -0.33008277899E+03  0.33070511989E+03  0.00000000000E+00 0. -1.
         -4    1    1    2    0  502  0.13200880008E+02  0.15393898102E+02 -0.50333597807E+03  0.50374432220E+03  0.00000000000E+00 0.  1.
<mgrwt>
<rscale>  2 0.20278938E+02</rscale>
<asrwt>0</asrwt>
<pdfrwt beam="1">  1       21 0.79283179E-04 0.20278938E+02</pdfrwt>
<pdfrwt beam="2">  1       21 0.12829801E+00 0.20278938E+02</pdfrwt>
<totfact> 0.61488111E+07</totfact>
</mgrwt>
</event>
<event>
 4    1  0.7165636E+004  0.3208099E+02  0.7546771E-02  0.1576163E+00
         21   -1    0    0  501  502  0.00000000000E+00  0.00000000000E+00  0.33601011552E+03  0.33601011552E+03  0.00000000000E+00 0.  1.
         21   -1    0    0  502  503 -0.00000000000E+00 -0.00000000000E+00 -0.30637997758E+01  0.30637997758E+01  0.00000000000E+00 0.  1.
          2    1    1    2  501    0 -0.31830691407E+02 -0.39996526524E+01  0.16368926871E+03  0.16680337775E+03  0.00000000000E+00 0. -1.
         -2    1    1    2    0  503  0.31830691407E+02  0.39996526524E+01  0.16925704703E+03  0.17227053755E+03  0.00000000000E+00 0.  1.
<mgrwt>
<rscale>  2 0.32080993E+02</rscale>
<asrwt>0</asrwt>
<pdfrwt beam="1">  1       21 0.51693835E-01 0.32080993E+02</pdfrwt>
<pdfrwt beam="2">  1       21 0.47135408E-03 0.32080993E+02</pdfrwt>
<totfact> 0.35154054E+07</totfact>
</mgrwt>
</event>
<event>
 4    1  0.7165636E+004  0.4140171E+02  0.7546771E-02  0.1498143E+00
         21   -1    0    0  503  502  0.00000000000E+00  0.00000000000E+00  0.29578899094E+03  0.29578899094E+03  0.00000000000E+00 0. -1.
         21   -1    0    0  501  503 -0.00000000000E+00 -0.00000000000E+00 -0.59931986475E+01  0.59931986475E+01  0.00000000000E+00 0. -1.
          5    1    1    2  501    0  0.54205598700E+01  0.41045332436E+02  0.11745893621E+03  0.12454197477E+03  0.00000000000E+00 0.  1.
         -5    1    1    2    0  502 -0.54205598700E+01 -0.41045332436E+02  0.17233685608E+03  0.17724021482E+03  0.00000000000E+00 0. -1.
<mgrwt>
<rscale>  2 0.41401712E+02</rscale>
<asrwt>0</asrwt>
<pdfrwt beam="1">  1       21 0.45505987E-01 0.41401712E+02</pdfrwt>
<pdfrwt beam="2">  1       21 0.92203079E-03 0.41401712E+02</pdfrwt>
<totfact> 0.17129595E+07</totfact>
</mgrwt>
</event>
<event>
 4    1  0.7165636E+004  0.2180762E+02  0.7546771E-02  0.1711601E+00
         21   -1    0    0  501  502  0.00000000000E+00  0.00000000000E+00  0.92036238536E+01  0.92036238536E+01  0.00000000000E+00 0.  1.
         21   -1    0    0  502  503 -0.00000000000E+00 -0.00000000000E+00 -0.97296847336E+02  0.97296847336E+02  0.00000000000E+00 0.  1.
          3    1    1    2  501    0 -0.71861894464E+01 -0.20589581623E+02 -0.80511219718E+02  0.83412401300E+02  0.00000000000E+00 0.  1.
         -3    1    1    2    0  503  0.71861894464E+01  0.20589581623E+02 -0.75820037647E+01  0.23088069890E+02  0.00000000000E+00 0. -1.
<mgrwt>
<rscale>  2 0.21807618E+02</rscale>
<asrwt>0</asrwt>
<pdfrwt beam="1">  1       21 0.14159422E-02 0.21807618E+02</pdfrwt>
<pdfrwt beam="2">  1       21 0.14968745E-01 0.21807618E+02</pdfrwt>
<totfact> 0.59191902E+07</totfact>
</mgrwt>
</event>
<event>
 4    1  0.7165636E+004  0.2451100E+02  0.7546771E-02  0.1668126E+00
         21   -1    0    0  501  502  0.00000000000E+00  0.00000000000E+00  0.95408672974E+01  0.95408672974E+01  0.00000000000E+00 0.  1.
         21   -1    0    0  502  503 -0.00000000000E+00 -0.00000000000E+00 -0.68853281540E+02  0.68853281540E+02  0.00000000000E+00 0.  1.
          2    1    1    2  501    0  0.12393017408E+02 -0.21147160215E+02 -0.41113917807E+02  0.47865890811E+02  0.00000000000E+00 0.  1.
         -2    1    1    2    0  503 -0.12393017408E+02  0.21147160215E+02 -0.18198496435E+02  0.30528258026E+02  0.00000000000E+00 0. -1.
<mgrwt>
<rscale>  2 0.24511003E+02</rscale>
<asrwt>0</asrwt>
<pdfrwt beam="1">  1       21 0.14678257E-02 0.24511003E+02</pdfrwt>
<pdfrwt beam="2">  1       21 0.10592813E-01 0.24511003E+02</pdfrwt>
<totfact> 0.10347055E+08</totfact>
</mgrwt>
</event>
<event>
 4    1  0.7165636E+004  0.2262061E+02  0.7546771E-02  0.1697735E+00
         21   -1    0    0  501  502  0.00000000000E+00  0.00000000000E+00  0.83623582304E+02  0.83623582304E+02  0.00000000000E+00 0. -1.
         21   -1    0    0  502  503 -0.00000000000E+00 -0.00000000000E+00 -0.10541124502E+02  0.10541124502E+02  0.00000000000E+00 0. -1.
          1    1    1    2  501    0 -0.10903778622E+01 -0.22594317393E+02  0.67036361443E+02  0.70750023730E+02  0.00000000000E+00 0. -1.
         -1    1    1    2    0  503  0.10903778622E+01  0.22594317393E+02  0.60460963586E+01  0.23414683075E+02  0.00000000000E+00 0.  1.
<mgrwt>
<rscale>  2 0.22620612E+02</rscale>
<asrwt>0</asrwt>
<pdfrwt beam="1">  1       21 0.12865166E-01 0.22620612E+02</pdfrwt>
<pdfrwt beam="2">  1       21 0.16217115E-02 0.22620612E+02</pdfrwt>
<totfact> 0.62827211E+07</totfact>
</mgrwt>
</event>
<event>
 4    1  0.7165636E+004  0.3504066E+02  0.7546771E-02  0.1548240E+00
         21   -1    0    0  503  502  0.00000000000E+00  0.00000000000E+00  0.51716625253E+01  0.51716625253E+01  0.00000000000E+00 0. -1.
         21   -1    0    0  501  503 -0.00000000000E+00 -0.00000000000E+00 -0.27003610594E+03  0.27003610594E+03  0.00000000000E+00 0. -1.
          3    1    1    2  501    0 -0.88414515527E+01  0.33906882152E+02 -0.84608168869E+02  0.91577236048E+02  0.00000000000E+00 0.  1.
         -3    1    1    2    0  502  0.88414515527E+01 -0.33906882152E+02 -0.18025627454E+03  0.18363053241E+03  0.00000000000E+00 0. -1.
<mgrwt>
<rscale>  2 0.35040661E+02</rscale>
<asrwt>0</asrwt>
<pdfrwt beam="1">  1       21 0.79564052E-03 0.35040661E+02</pdfrwt>
<pdfrwt beam="2">  1       21 0.41544009E-01 0.35040661E+02</pdfrwt>
<totfact> 0.24942397E+07</totfact>
</mgrwt>
</event>
<event>
 4    1  0.7165636E+004  0.2136566E+02  0.7546771E-02  0.1719459E+00
         21   -1    0    0  501  502  0.00000000000E+00  0.00000000000E+00  0.34612663079E+03  0.34612663079E+03  0.00000000000E+00 0.  1.
         21   -1    0    0  502  503 -0.00000000000E+00 -0.00000000000E+00 -0.41743669576E+01  0.41743669576E+01  0.00000000000E+00 0.  1.
          2    1    1    2  501    0 -0.10175547842E+02  0.18786958284E+02  0.26112991420E+02  0.33739885838E+02  0.00000000000E+00 0. -1.
         -2    1    1    2    0  503  0.10175547842E+02 -0.18786958284E+02  0.31583927241E+03  0.31656111191E+03  0.00000000000E+00 0.  1.
<mgrwt>
<rscale>  2 0.21365663E+02</rscale>
<asrwt>0</asrwt>
<pdfrwt beam="1">  1       21 0.53250229E-01 0.21365663E+02</pdfrwt>
<pdfrwt beam="2">  1       21 0.64221057E-03 0.21365663E+02</pdfrwt>
<totfact> 0.19346036E+07</totfact>
</mgrwt>
</event>
<event>
 4    1  0.7165636E+004  0.4697774E+02  0.7546771E-02  0.1462360E+00
         21   -1    0    0  501  502  0.00000000000E+00  0.00000000000E+00  0.20015245287E+04  0.20015245287E+04  0.00000000000E+00 0.  1.
         21   -1    0    0  502  503 -0.00000000000E+00 -0.00000000000E+00 -0.12136214711E+01  0.12136214711E+01  0.00000000000E+00 0.  1.
          3    1    1    2  501    0  0.18313213987E+02  0.43261227440E+02  0.69730377606E+03  0.69888444231E+03  0.00000000000E+00 0. -1.
         -3    1    1    2    0  503 -0.18313213987E+02 -0.43261227440E+02  0.13030071311E+04  0.13038537078E+04  0.00000000000E+00 0.  1.
<mgrwt>
<rscale>  2 0.46977735E+02</rscale>
<asrwt>0</asrwt>
<pdfrwt beam="1">  1       21 0.30792421E+00 0.46977735E+02</pdfrwt>
<pdfrwt beam="2">  1       21 0.18671260E-03 0.46977735E+02</pdfrwt>
<totfact> 0.17549615E+06</totfact>
</mgrwt>
</event>
<event>
 4    1  0.7165636E+004  0.4156601E+02  0.7546771E-02  0.1496994E+00
         21   -1    0    0  501  502  0.00000000000E+00  0.00000000000E+00  0.27817494702E+02  0.27817494702E+02  0.00000000000E+00 0. -1.
         21   -1    0    0  502  503 -0.00000000000E+00 -0.00000000000E+00 -0.67289585369E+02  0.67289585369E+02  0.00000000000E+00 0. -1.
          5    1    1    2  501    0  0.38336637953E+02  0.16063492129E+02 -0.65421506712E+01  0.42077705787E+02  0.00000000000E+00 0. -1.
         -5    1    1    2    0  503 -0.38336637953E+02 -0.16063492129E+02 -0.32929939996E+02  0.53029374285E+02  0.00000000000E+00 0.  1.
<mgrwt>
<rscale>  2 0.41566015E+02</rscale>
<asrwt>0</asrwt>
<pdfrwt beam="1">  1       21 0.42796146E-02 0.41566015E+02</pdfrwt>
<pdfrwt beam="2">  1       21 0.10352244E-01 0.41566015E+02</pdfrwt>
<totfact> 0.22534146E+07</totfact>
</mgrwt>
</event>
<event>
 4    1  0.7165636E+004  0.2000172E+02  0.7546771E-02  0.1745294E+00
         21   -1    0    0  501  502  0.00000000000E+00  0.00000000000E+00  0.56263273057E+00  0.56263273057E+00  0.00000000000E+00 0.  1.
         21   -1    0    0  502  503 -0.00000000000E+00 -0.00000000000E+00 -0.92110371933E+03  0.92110371933E+03  0.00000000000E+00 0.  1.
          3    1    1    2  501    0 -0.13263856655E+02  0.14971266338E+02 -0.24021178404E+03  0.24104308723E+03  0.00000000000E+00 0. -1.
         -3    1    1    2    0  503  0.13263856655E+02 -0.14971266338E+02 -0.68032930256E+03  0.68062326483E+03  0.00000000000E+00 0.  1.
<mgrwt>
<rscale>  2 0.20001718E+02</rscale>
<asrwt>0</asrwt>
<pdfrwt beam="1">  1       21 0.86558962E-04 0.20001718E+02</pdfrwt>
<pdfrwt beam="2">  1       21 0.14170813E+00 0.20001718E+02</pdfrwt>
<totfact> 0.43080573E+07</totfact>
</mgrwt>
</event>
<event>
 4    1  0.7165636E+004  0.2615836E+02  0.7546771E-02  0.1644901E+00
         21   -1    0    0  501  502  0.00000000000E+00  0.00000000000E+00  0.43717033664E+03  0.43717033664E+03  0.00000000000E+00 0.  1.
         21   -1    0    0  502  503 -0.00000000000E+00 -0.00000000000E+00 -0.16880507243E+01  0.16880507243E+01  0.00000000000E+00 0.  1.
          1    1    1    2  501    0 -0.26117466135E+02 -0.14621142000E+01  0.15854583700E+03  0.16068927234E+03  0.00000000000E+00 0.  1.
         -1    1    1    2    0  503  0.26117466135E+02  0.14621142000E+01  0.27693644892E+03  0.27816911503E+03  0.00000000000E+00 0. -1.
<mgrwt>
<rscale>  2 0.26158360E+02</rscale>
<asrwt>0</asrwt>
<pdfrwt beam="1">  1       21 0.67256885E-01 0.26158360E+02</pdfrwt>
<pdfrwt beam="2">  1       21 0.25970046E-03 0.26158360E+02</pdfrwt>
<totfact> 0.47845067E+07</totfact>
</mgrwt>
</event>
<event>
 4    1  0.7165636E+004  0.2080724E+02  0.7546771E-02  0.1729736E+00
         21   -1    0    0  501  502  0.00000000000E+00  0.00000000000E+00  0.47919443746E+02  0.47919443746E+02  0.00000000000E+00 0.  1.
         21   -1    0    0  502  503 -0.00000000000E+00 -0.00000000000E+00 -0.92536738211E+01  0.92536738211E+01  0.00000000000E+00 0.  1.
          2    1    1    2  501    0  0.51154807756E+01  0.20168616746E+02  0.14936157497E+02  0.25613083489E+02  0.00000000000E+00 0.  1.
         -2    1    1    2    0  503 -0.51154807756E+01 -0.20168616746E+02  0.23729612428E+02  0.31560034078E+02  0.00000000000E+00 0. -1.
<mgrwt>
<rscale>  2 0.20807240E+02</rscale>
<asrwt>0</asrwt>
<pdfrwt beam="1">  1       21 0.73722220E-02 0.20807240E+02</pdfrwt>
<pdfrwt beam="2">  1       21 0.14236422E-02 0.20807240E+02</pdfrwt>
<totfact> 0.18703130E+08</totfact>
</mgrwt>
</event>
<event>
 4    1  0.7165636E+004  0.2968153E+02  0.7546771E-02  0.1601636E+00
         21   -1    0    0  503  502  0.00000000000E+00  0.00000000000E+00  0.75092565866E+01  0.75092565866E+01  0.00000000000E+00 0.  1.
         21   -1    0    0  501  503 -0.00000000000E+00 -0.00000000000E+00 -0.14054820120E+03  0.14054820120E+03  0.00000000000E+00 0.  1.
          5    1    1    2  501    0 -0.21116079794E+02 -0.20859150582E+02 -0.96613943328E+02  0.10107050526E+03  0.00000000000E+00 0.  1.
         -5    1    1    2    0  502  0.21116079794E+02  0.20859150582E+02 -0.36425001289E+02  0.46986952527E+02  0.00000000000E+00 0. -1.
<mgrwt>
<rscale>  2 0.29681526E+02</rscale>
<asrwt>0</asrwt>
<pdfrwt beam="1">  1       21 0.11552701E-02 0.29681526E+02</pdfrwt>
<pdfrwt beam="2">  1       21 0.21622802E-01 0.29681526E+02</pdfrwt>
<totfact> 0.45832603E+07</totfact>
</mgrwt>
</event>
<event>
 4    1  0.7165636E+004  0.2277738E+02  0.7546771E-02  0.1695144E+00
         21   -1    0    0  501  502  0.00000000000E+00  0.00000000000E+00  0.17812139661E+02  0.17812139661E+02  0.00000000000E+00 0. -1.
         21   -1    0    0  502  503 -0.00000000000E+00 -0.00000000000E+00 -0.30631113208E+02  0.30631113208E+02  0.00000000000E+00 0. -1.
          5    1    1    2  501    0 -0.46167868849E+01  0.22304583354E+02 -0.10416048207E+01  0.22801186380E+02  0.00000000000E+00 0.  1.
         -5    1    1    2    0  503  0.46167868849E+01 -0.22304583354E+02 -0.11777368726E+02  0.25642066489E+02  0.00000000000E+00 0. -1.
<mgrwt>
<rscale>  2 0.22777383E+02</rscale>
<asrwt>0</asrwt>
<pdfrwt beam="1">  1       21 0.27403292E-02 0.22777383E+02</pdfrwt>
<pdfrwt beam="2">  1       21 0.47124789E-02 0.22777383E+02</pdfrwt>
<totfact> 0.14453829E+08</totfact>
</mgrwt>
</event>
<event>
 4    1  0.7165636E+004  0.2105188E+02  0.7546771E-02  0.1725184E+00
         21   -1    0    0  501  502  0.00000000000E+00  0.00000000000E+00  0.21211201721E+02  0.21211201721E+02  0.00000000000E+00 0. -1.
         21   -1    0    0  502  503 -0.00000000000E+00 -0.00000000000E+00 -0.24641969272E+02  0.24641969272E+02  0.00000000000E+00 0. -1.
          3    1    1    2  501    0 -0.20403164995E+02 -0.51858109412E+01  0.72261812081E+01  0.22257571112E+02  0.00000000000E+00 0. -1.
         -3    1    1    2    0  503  0.20403164995E+02  0.51858109412E+01 -0.10656948758E+02  0.23595599882E+02  0.00000000000E+00 0.  1.
<mgrwt>
<rscale>  2 0.21051883E+02</rscale>
<asrwt>0</asrwt>
<pdfrwt beam="1">  1       21 0.32632618E-02 0.21051883E+02</pdfrwt>
<pdfrwt beam="2">  1       21 0.37910722E-02 0.21051883E+02</pdfrwt>
<totfact> 0.15155611E+08</totfact>
</mgrwt>
</event>
<event>
 4    1  0.7165636E+004  0.2286658E+02  0.7546771E-02  0.1693682E+00
         21   -1    0    0  501  502  0.00000000000E+00  0.00000000000E+00  0.16419028285E+02  0.16419028285E+02  0.00000000000E+00 0. -1.
         21   -1    0    0  502  503 -0.00000000000E+00 -0.00000000000E+00 -0.33016531833E+02  0.33016531833E+02  0.00000000000E+00 0. -1.
          3    1    1    2  501    0  0.10466134854E+02  0.20330775608E+02 -0.36446605593E+01  0.23155214665E+02  0.00000000000E+00 0.  1.
         -3    1    1    2    0  503 -0.10466134854E+02 -0.20330775608E+02 -0.12952842989E+02  0.26280345453E+02  0.00000000000E+00 0. -1.
<mgrwt>
<rscale>  2 0.22866579E+02</rscale>
<asrwt>0</asrwt>
<pdfrwt beam="1">  1       21 0.25260044E-02 0.22866579E+02</pdfrwt>
<pdfrwt beam="2">  1       21 0.50794664E-02 0.22866579E+02</pdfrwt>
<totfact> 0.14571416E+08</totfact>
</mgrwt>
</event>
<event>
 4    1  0.7165636E+004  0.2268134E+02  0.7546771E-02  0.1696728E+00
         21   -1    0    0  503  502  0.00000000000E+00  0.00000000000E+00  0.30779554337E+01  0.30779554337E+01  0.00000000000E+00 0. -1.
         21   -1    0    0  501  503 -0.00000000000E+00 -0.00000000000E+00 -0.25199706248E+03  0.25199706248E+03  0.00000000000E+00 0. -1.
          3    1    1    2  501    0 -0.85996580131E+01  0.20987829038E+02 -0.19846939886E+03  0.19976122088E+03  0.00000000000E+00 0.  1.
         -3    1    1    2    0  502  0.85996580131E+01 -0.20987829038E+02 -0.50449708193E+02  0.55313797035E+02  0.00000000000E+00 0. -1.
<mgrwt>
<rscale>  2 0.22681338E+02</rscale>
<asrwt>0</asrwt>
<pdfrwt beam="1">  1       21 0.47353176E-03 0.22681338E+02</pdfrwt>
<pdfrwt beam="2">  1       21 0.38768766E-01 0.22681338E+02</pdfrwt>
<totfact> 0.56454765E+07</totfact>
</mgrwt>
</event>
<event>
 4    1  0.7165636E+004  0.3815556E+02  0.7546771E-02  0.1522240E+00
         21   -1    0    0  501  502  0.00000000000E+00  0.00000000000E+00  0.83296001545E+00  0.83296001545E+00  0.00000000000E+00 0. -1.
         21   -1    0    0  502  503 -0.00000000000E+00 -0.00000000000E+00 -0.21660139480E+04  0.21660139480E+04  0.00000000000E+00 0. -1.
          5    1    1    2  501    0 -0.22815510802E+02  0.30582667740E+02 -0.60652453964E+03  0.60772350973E+03  0.00000000000E+00 0. -1.
         -5    1    1    2    0  503  0.22815510802E+02 -0.30582667740E+02 -0.15586564484E+04  0.15591233983E+04  0.00000000000E+00 0.  1.
<mgrwt>
<rscale>  2 0.38155564E+02</rscale>
<asrwt>0</asrwt>
<pdfrwt beam="1">  1       21 0.12814783E-03 0.38155564E+02</pdfrwt>
<pdfrwt beam="2">  1       21 0.33323256E+00 0.38155564E+02</pdfrwt>
<totfact> 0.22817425E+06</totfact>
</mgrwt>
</event>
<event>
 4    1  0.7165636E+004  0.3971727E+02  0.7546771E-02  0.1510302E+00
         21   -1    0    0  501  502  0.00000000000E+00  0.00000000000E+00  0.59486734815E+02  0.59486734815E+02  0.00000000000E+00 0.  1.
         21   -1    0    0  502  503 -0.00000000000E+00 -0.00000000000E+00 -0.26518923170E+02  0.26518923170E+02  0.00000000000E+00 0.  1.
          2    1    1    2  501    0 -0.15736381755E+02  0.36466804022E+02  0.16212918966E+02  0.42898953924E+02  0.00000000000E+00 0.  1.
         -2    1    1    2    0  503  0.15736381755E+02 -0.36466804022E+02  0.16754892678E+02  0.43106704061E+02  0.00000000000E+00 0. -1.
<mgrwt>
<rscale>  2 0.39717270E+02</rscale>
<asrwt>0</asrwt>
<pdfrwt beam="1">  1       21 0.91518053E-02 0.39717270E+02</pdfrwt>
<pdfrwt beam="2">  1       21 0.40798343E-02 0.39717270E+02</pdfrwt>
<totfact> 0.29734543E+07</totfact>
</mgrwt>
</event>
<event>
 4    1  0.7165636E+004  0.3119861E+02  0.7546771E-02  0.1585205E+00
         21   -1    0    0  501  502  0.00000000000E+00  0.00000000000E+00  0.61824723720E+02  0.61824723720E+02  0.00000000000E+00 0.  1.
         21   -1    0    0  502  503 -0.00000000000E+00 -0.00000000000E+00 -0.16667383359E+02  0.16667383359E+02  0.00000000000E+00 0.  1.
          5    1    1    2  501    0  0.21710608202E+02  0.22405413190E+02  0.13339948651E+02  0.33930919214E+02  0.00000000000E+00 0.  1.
         -5    1    1    2    0  503 -0.21710608202E+02 -0.22405413190E+02  0.31817391710E+02  0.44561187865E+02  0.00000000000E+00 0. -1.
<mgrwt>
<rscale>  2 0.31198607E+02</rscale>
<asrwt>0</asrwt>
<pdfrwt beam="1">  1       21 0.95114959E-02 0.31198607E+02</pdfrwt>
<pdfrwt beam="2">  1       21 0.25642129E-02 0.31198607E+02</pdfrwt>
<totfact> 0.55530746E+07</totfact>
</mgrwt>
</event>
<event>
 4    1  0.7165636E+004  0.3500291E+02  0.7546771E-02  0.1548575E+00
         21   -1    0    0  503  502  0.00000000000E+00  0.00000000000E+00  0.19712150204E+03  0.19712150204E+03  0.00000000000E+00 0.  1.
         21   -1    0    0  501  503 -0.00000000000E+00 -0.00000000000E+00 -0.62617300892E+01  0.62617300892E+01  0.00000000000E+00 0.  1.
          3    1    1    2  501    0  0.12086940044E+02  0.32849808096E+02  0.86689875851E+02  0.93489777980E+02  0.00000000000E+00 0.  1.
         -3    1    1    2    0  502 -0.12086940044E+02 -0.32849808096E+02  0.10416989610E+03  0.10989345415E+03  0.00000000000E+00 0. -1.
<mgrwt>
<rscale>  2 0.35002914E+02</rscale>
<asrwt>0</asrwt>
<pdfrwt beam="1">  1       21 0.30326380E-01 0.35002914E+02</pdfrwt>
<pdfrwt beam="2">  1       21 0.96334324E-03 0.35002914E+02</pdfrwt>
<totfact> 0.33800720E+07</totfact>
</mgrwt>
</event>
<event>
 4    1  0.7165636E+004  0.2737430E+02  0.7546771E-02  0.1629068E+00
         21   -1    0    0  501  502  0.00000000000E+00  0.00000000000E+00  0.23383871108E+02  0.23383871108E+02  0.00000000000E+00 0.  1.
         21   -1    0    0  502  503 -0.00000000000E+00 -0.00000000000E+00 -0.39013303676E+02  0.39013303676E+02  0.00000000000E+00 0.  1.
          1    1    1    2  501    0  0.13527133186E+02 -0.23798504641E+02  0.53699994264E+01  0.27896040027E+02  0.00000000000E+00 0. -1.
         -1    1    1    2    0  503 -0.13527133186E+02  0.23798504641E+02 -0.20999431995E+02  0.34501134756E+02  0.00000000000E+00 0.  1.
<mgrwt>
<rscale>  2 0.27374297E+02</rscale>
<asrwt>0</asrwt>
<pdfrwt beam="1">  1       21 0.35975187E-02 0.27374297E+02</pdfrwt>
<pdfrwt beam="2">  1       21 0.60020467E-02 0.27374297E+02</pdfrwt>
<totfact> 0.67374076E+07</totfact>
</mgrwt>
</event>
<event>
 4    1  0.7165636E+004  0.2532814E+02  0.7546771E-02  0.1656333E+00
         21   -1    0    0  503  502  0.00000000000E+00  0.00000000000E+00  0.27923060001E+02  0.27923060001E+02  0.00000000000E+00 0.  1.
         21   -1    0    0  501  503 -0.00000000000E+00 -0.00000000000E+00 -0.22980868853E+02  0.22980868853E+02  0.00000000000E+00 0.  1.
          5    1    1    2  501    0  0.10103482195E+02 -0.23225723429E+02  0.28992621904E+01  0.25493534524E+02  0.00000000000E+00 0. -1.
         -5    1    1    2    0  502 -0.10103482195E+02  0.23225723429E+02  0.20429289578E+01  0.25410394330E+02  0.00000000000E+00 0.  1.
<mgrwt>
<rscale>  2 0.25328138E+02</rscale>
<asrwt>0</asrwt>
<pdfrwt beam="1">  1       21 0.42958554E-02 0.25328138E+02</pdfrwt>
<pdfrwt beam="2">  1       21 0.35355183E-02 0.25328138E+02</pdfrwt>
<totfact> 0.11595722E+08</totfact>
</mgrwt>
</event>
<event>
 4    1  0.7165636E+004  0.2039714E+02  0.7546771E-02  0.1737544E+00
         21   -1    0    0  501  502  0.00000000000E+00  0.00000000000E+00  0.54451447591E+01  0.54451447591E+01  0.00000000000E+00 0. -1.
         21   -1    0    0  502  503 -0.00000000000E+00 -0.00000000000E+00 -0.83723547235E+02  0.83723547235E+02  0.00000000000E+00 0. -1.
          5    1    1    2  501    0  0.13794863671E+02  0.15024811505E+02 -0.25958660880E+02  0.33013562352E+02  0.00000000000E+00 0.  1.
         -5    1    1    2    0  503 -0.13794863671E+02 -0.15024811505E+02 -0.52319741595E+02  0.56155129642E+02  0.00000000000E+00 0. -1.
<mgrwt>
<rscale>  2 0.20397138E+02</rscale>
<asrwt>0</asrwt>
<pdfrwt beam="1">  1       21 0.83771456E-03 0.20397138E+02</pdfrwt>
<pdfrwt beam="2">  1       21 0.12880546E-01 0.20397138E+02</pdfrwt>
<totfact> 0.16448453E+08</totfact>
</mgrwt>
</event>
<event>
 4    1  0.7165636E+004  0.2019503E+02  0.7546771E-02  0.1741477E+00
         21   -1    0    0  501  502  0.00000000000E+00  0.00000000000E+00  0.17598283327E+03  0.17598283327E+03  0.00000000000E+00 0.  1.
         21   -1    0    0  502  503 -0.00000000000E+00 -0.00000000000E+00 -0.23290496502E+01  0.23290496502E+01  0.00000000000E+00 0.  1.
          3    1    1    2  501    0  0.65827530692E+01 -0.19092052539E+02  0.80546833543E+02  0.83039939198E+02  0.00000000000E+00 0. -1.
         -3    1    1    2    0  503 -0.65827530692E+01  0.19092052539E+02  0.93106950079E+02  0.95271943725E+02  0.00000000000E+00 0.  1.
<mgrwt>
<rscale>  2 0.20195027E+02</rscale>
<asrwt>0</asrwt>
<pdfrwt beam="1">  1       21 0.27074272E-01 0.20195027E+02</pdfrwt>
<pdfrwt beam="2">  1       21 0.35831547E-03 0.20195027E+02</pdfrwt>
<totfact> 0.15871708E+08</totfact>
</mgrwt>
</event>
<event>
 4    1  0.7165636E+004  0.2572172E+02  0.7546771E-02  0.1650847E+00
         21   -1    0    0  503  502  0.00000000000E+00  0.00000000000E+00  0.86698605599E+01  0.86698605599E+01  0.00000000000E+00 0.  1.
         21   -1    0    0  501  503 -0.00000000000E+00 -0.00000000000E+00 -0.10229657356E+03  0.10229657356E+03  0.00000000000E+00 0.  1.
          1    1    1    2  501    0  0.15004315353E+02  0.20892044166E+02 -0.18849566589E+02  0.31889075704E+02  0.00000000000E+00 0.  1.
         -1    1    1    2    0  502 -0.15004315353E+02 -0.20892044166E+02 -0.74777146409E+02  0.79077358414E+02  0.00000000000E+00 0. -1.
<mgrwt>
<rscale>  2 0.25721722E+02</rscale>
<asrwt>0</asrwt>
<pdfrwt beam="1">  1       21 0.13338247E-02 0.25721722E+02</pdfrwt>
<pdfrwt beam="2">  1       21 0.15737934E-01 0.25721722E+02</pdfrwt>
<totfact> 0.62059049E+07</totfact>
</mgrwt>
</event>
<event>
 4    1  0.7165636E+004  0.2062318E+02  0.7546771E-02  0.1733212E+00
         21   -1    0    0  503  502  0.00000000000E+00  0.00000000000E+00  0.68609517568E+00  0.68609517568E+00  0.00000000000E+00 0. -1.
         21   -1    0    0  501  503 -0.00000000000E+00 -0.00000000000E+00 -0.67855140293E+03  0.67855140293E+03  0.00000000000E+00 0. -1.
          1    1    1    2  501    0 -0.14619240996E+02 -0.14546242432E+02 -0.43877450542E+03  0.43925890086E+03  0.00000000000E+00 0.  1.
         -1    1    1    2    0  502  0.14619240996E+02  0.14546242432E+02 -0.23909080234E+03  0.23997859725E+03  0.00000000000E+00 0. -1.
<mgrwt>
<rscale>  2 0.20623176E+02</rscale>
<asrwt>0</asrwt>
<pdfrwt beam="1">  1       21 0.10555264E-03 0.20623176E+02</pdfrwt>
<pdfrwt beam="2">  1       21 0.10439298E+00 0.20623176E+02</pdfrwt>
<totfact> 0.65277409E+07</totfact>
</mgrwt>
</event>
<event>
 4    1  0.7165636E+004  0.2280578E+02  0.7546771E-02  0.1694678E+00
         21   -1    0    0  503  502  0.00000000000E+00  0.00000000000E+00  0.11704127979E+03  0.11704127979E+03  0.00000000000E+00 0.  1.
         21   -1    0    0  501  503 -0.00000000000E+00 -0.00000000000E+00 -0.52842305535E+01  0.52842305535E+01  0.00000000000E+00 0.  1.
          2    1    1    2  501    0  0.64444510168E+01  0.21876308566E+02  0.31486020891E+02  0.38877671444E+02  0.00000000000E+00 0. -1.
         -2    1    1    2    0  502 -0.64444510168E+01 -0.21876308566E+02  0.80271028350E+02  0.83447838904E+02  0.00000000000E+00 0.  1.
<mgrwt>
<rscale>  2 0.22805785E+02</rscale>
<asrwt>0</asrwt>
<pdfrwt beam="1">  1       21 0.18006349E-01 0.22805785E+02</pdfrwt>
<pdfrwt beam="2">  1       21 0.81295863E-03 0.22805785E+02</pdfrwt>
<totfact> 0.10055431E+08</totfact>
</mgrwt>
</event>
<event>
 4    1  0.7165636E+004  0.2251448E+02  0.7546771E-02  0.1699503E+00
         21   -1    0    0  501  502  0.00000000000E+00  0.00000000000E+00  0.50597930739E+03  0.50597930739E+03  0.00000000000E+00 0.  1.
         21   -1    0    0  502  503 -0.00000000000E+00 -0.00000000000E+00 -0.28158192412E+01  0.28158192412E+01  0.00000000000E+00 0.  1.
          1    1    1    2  501    0 -0.22313107320E+02 -0.30044785105E+01  0.47394425337E+02  0.52470307817E+02  0.00000000000E+00 0.  1.
         -1    1    1    2    0  503  0.22313107320E+02  0.30044785105E+01  0.45576906281E+03  0.45632481882E+03  0.00000000000E+00 0. -1.
<mgrwt>
<rscale>  2 0.22514476E+02</rscale>
<asrwt>0</asrwt>
<pdfrwt beam="1">  1       21 0.77842898E-01 0.22514476E+02</pdfrwt>
<pdfrwt beam="2">  1       21 0.43320336E-03 0.22514476E+02</pdfrwt>
<totfact> 0.16231924E+07</totfact>
</mgrwt>
</event>
<event>
 4    1  0.7165636E+004  0.2705776E+02  0.7546771E-02  0.1633091E+00
         21   -1    0    0  501  502  0.00000000000E+00  0.00000000000E+00  0.27062501213E+02  0.27062501213E+02  0.00000000000E+00 0. -1.
         21   -1    0    0  502  503 -0.00000000000E+00 -0.00000000000E+00 -0.31926837479E+02  0.31926837479E+02  0.00000000000E+00 0. -1.
          3    1    1    2  501    0 -0.25975934353E+02 -0.75744996509E+01 -0.13956095214E+02  0.30444947103E+02  0.00000000000E+00 0. -1.
         -3    1    1    2    0  503  0.25975934353E+02  0.75744996509E+01  0.90917589483E+01  0.28544391590E+02  0.00000000000E+00 0.  1.
<mgrwt>
<rscale>  2 0.27057757E+02</rscale>
<asrwt>0</asrwt>
<pdfrwt beam="1">  1       21 0.41634617E-02 0.27057757E+02</pdfrwt>
<pdfrwt beam="2">  1       21 0.49118212E-02 0.27057757E+02</pdfrwt>
<totfact> 0.73587997E+07</totfact>
</mgrwt>
</event>
<event>
 4    1  0.7165636E+004  0.3269715E+02  0.7546771E-02  0.1570056E+00
         21   -1    0    0  503  502  0.00000000000E+00  0.00000000000E+00  0.15773051117E+02  0.15773051117E+02  0.00000000000E+00 0.  1.
         21   -1    0    0  501  503 -0.00000000000E+00 -0.00000000000E+00 -0.92431041465E+02  0.92431041465E+02  0.00000000000E+00 0.  1.
          1    1    1    2  501    0 -0.21943398743E+02  0.24240269589E+02 -0.66268521961E+02  0.73896010860E+02  0.00000000000E+00 0. -1.
         -1    1    1    2    0  502  0.21943398743E+02 -0.24240269589E+02 -0.10389468387E+02  0.34308081723E+02  0.00000000000E+00 0.  1.
<mgrwt>
<rscale>  2 0.32697147E+02</rscale>
<asrwt>0</asrwt>
<pdfrwt beam="1">  1       21 0.24266232E-02 0.32697147E+02</pdfrwt>
<pdfrwt beam="2">  1       21 0.14220160E-01 0.32697147E+02</pdfrwt>
<totfact> 0.30935460E+07</totfact>
</mgrwt>
</event>
<event>
 4    1  0.7165636E+004  0.2628606E+02  0.7546771E-02  0.1643188E+00
         21   -1    0    0  501  502  0.00000000000E+00  0.00000000000E+00  0.51752587641E+02  0.51752587641E+02  0.00000000000E+00 0.  1.
         21   -1    0    0  502  503 -0.00000000000E+00 -0.00000000000E+00 -0.21232345765E+02  0.21232345765E+02  0.00000000000E+00 0.  1.
          5    1    1    2  501    0  0.14669136968E+02 -0.21812232602E+02  0.37493220745E+02  0.45789722343E+02  0.00000000000E+00 0.  1.
         -5    1    1    2    0  503 -0.14669136968E+02  0.21812232602E+02 -0.69729788690E+01  0.27195211063E+02  0.00000000000E+00 0. -1.
<mgrwt>
<rscale>  2 0.26286062E+02</rscale>
<asrwt>0</asrwt>
<pdfrwt beam="1">  1       21 0.79619366E-02 0.26286062E+02</pdfrwt>
<pdfrwt beam="2">  1       21 0.32665147E-02 0.26286062E+02</pdfrwt>
<totfact> 0.49023439E+07</totfact>
</mgrwt>
</event>
<event>
 4    1  0.7165636E+004  0.2209721E+02  0.7546771E-02  0.1706576E+00
         21   -1    0    0  501  502  0.00000000000E+00  0.00000000000E+00  0.73149034935E+01  0.73149034935E+01  0.00000000000E+00 0.  1.
         21   -1    0    0  502  503 -0.00000000000E+00 -0.00000000000E+00 -0.79712866652E+02  0.79712866652E+02  0.00000000000E+00 0.  1.
          2    1    1    2  501    0 -0.18939164515E+02 -0.11383974270E+02 -0.18653099522E+02  0.28917554262E+02  0.00000000000E+00 0.  1.
         -2    1    1    2    0  503  0.18939164515E+02  0.11383974270E+02 -0.53744863637E+02  0.58110215883E+02  0.00000000000E+00 0. -1.
<mgrwt>
<rscale>  2 0.22097213E+02</rscale>
<asrwt>0</asrwt>
<pdfrwt beam="1">  1       21 0.11253698E-02 0.22097213E+02</pdfrwt>
<pdfrwt beam="2">  1       21 0.12263518E-01 0.22097213E+02</pdfrwt>
<totfact> 0.11759766E+08</totfact>
</mgrwt>
</event>
<event>
 4    1  0.7165636E+004  0.2333661E+02  0.7546771E-02  0.1686111E+00
         21   -1    0    0  501  502  0.00000000000E+00  0.00000000000E+00  0.94405936178E+03  0.94405936178E+03  0.00000000000E+00 0. -1.
         21   -1    0    0  502  503 -0.00000000000E+00 -0.00000000000E+00 -0.57718054909E+00  0.57718054909E+00  0.00000000000E+00 0. -1.
          3    1    1    2  501    0 -0.14863861729E+02  0.17990633263E+02  0.48273891104E+03  0.48330265208E+03  0.00000000000E+00 0.  1.
         -3    1    1    2    0  503  0.14863861729E+02 -0.17990633263E+02  0.46074327019E+03  0.46133389026E+03  0.00000000000E+00 0. -1.
<mgrwt>
<rscale>  2 0.23336608E+02</rscale>
<asrwt>0</asrwt>
<pdfrwt beam="1">  1       21 0.14523867E+00 0.23336608E+02</pdfrwt>
<pdfrwt beam="2">  1       21 0.88797763E-04 0.23336608E+02</pdfrwt>
<totfact> 0.40481245E+07</totfact>
</mgrwt>
</event>
<event>
 4    1  0.7165636E+004  0.2324548E+02  0.7546771E-02  0.1687562E+00
         21   -1    0    0  503  502  0.00000000000E+00  0.00000000000E+00  0.79229186638E+02  0.79229186638E+02  0.00000000000E+00 0.  1.
         21   -1    0    0  501  503 -0.00000000000E+00 -0.00000000000E+00 -0.72717690717E+01  0.72717690717E+01  0.00000000000E+00 0.  1.
          3    1    1    2  501    0  0.17344226373E+00 -0.23244835078E+02  0.25199865392E+02  0.34283897908E+02  0.00000000000E+00 0. -1.
         -3    1    1    2    0  502 -0.17344226373E+00  0.23244835078E+02  0.46757552175E+02  0.52217057801E+02  0.00000000000E+00 0.  1.
<mgrwt>
<rscale>  2 0.23245482E+02</rscale>
<asrwt>0</asrwt>
<pdfrwt beam="1">  1       21 0.12189105E-01 0.23245482E+02</pdfrwt>
<pdfrwt beam="2">  1       21 0.11187338E-02 0.23245482E+02</pdfrwt>
<totfact> 0.12164169E+08</totfact>
</mgrwt>
</event>
<event>
 4    1  0.7165636E+004  0.3000601E+02  0.7546771E-02  0.1598022E+00
         21   -1    0    0  503  502  0.00000000000E+00  0.00000000000E+00  0.48313759661E+03  0.48313759661E+03  0.00000000000E+00 0.  1.
         21   -1    0    0  501  503 -0.00000000000E+00 -0.00000000000E+00 -0.20513392056E+01  0.20513392056E+01  0.00000000000E+00 0.  1.
          5    1    1    2  501    0 -0.27056569165E+02 -0.12973152315E+02  0.31393950396E+03  0.31537021540E+03  0.00000000000E+00 0. -1.
         -5    1    1    2    0  502  0.27056569165E+02  0.12973152315E+02  0.16714675344E+03  0.16981872041E+03  0.00000000000E+00 0.  1.
<mgrwt>
<rscale>  2 0.30006010E+02</rscale>
<asrwt>0</asrwt>
<pdfrwt beam="1">  1       21 0.74328771E-01 0.30006010E+02</pdfrwt>
<pdfrwt beam="2">  1       21 0.31559103E-03 0.30006010E+02</pdfrwt>
<totfact> 0.30026233E+07</totfact>
</mgrwt>
</event>
<event>
 4    1  0.7165636E+004  0.3022938E+02  0.7546771E-02  0.1595567E+00
         21   -1    0    0  503  502  0.00000000000E+00  0.00000000000E+00  0.10001496754E+02  0.10001496754E+02  0.00000000000E+00 0.  1.
         21   -1    0    0  501  503 -0.00000000000E+00 -0.00000000000E+00 -0.92130963513E+02  0.92130963513E+02  0.00000000000E+00 0.  1.
          5    1    1    2  501    0 -0.16830196357E+02  0.25110952083E+02 -0.36417218769E+02  0.47328947239E+02  0.00000000000E+00 0. -1.
         -5    1    1    2    0  502  0.16830196357E+02 -0.25110952083E+02 -0.45712247990E+02  0.54803513028E+02  0.00000000000E+00 0.  1.
<mgrwt>
<rscale>  2 0.30229380E+02</rscale>
<asrwt>0</asrwt>
<pdfrwt beam="1">  1       21 0.15386918E-02 0.30229380E+02</pdfrwt>
<pdfrwt beam="2">  1       21 0.14173994E-01 0.30229380E+02</pdfrwt>
<totfact> 0.62010118E+07</totfact>
</mgrwt>
</event>
<event>
 4    1  0.7165636E+004  0.2444932E+02  0.7546771E-02  0.1669040E+00
         21   -1    0    0  503  502  0.00000000000E+00  0.00000000000E+00  0.13039881262E+04  0.13039881262E+04  0.00000000000E+00 0.  1.
         21   -1    0    0  501  503 -0.00000000000E+00 -0.00000000000E+00 -0.47664769068E+00  0.47664769068E+00  0.00000000000E+00 0.  1.
          1    1    1    2  501    0  0.98683902918E+01 -0.22369263777E+02  0.52419516543E+03  0.52476503365E+03  0.00000000000E+00 0. -1.
         -1    1    1    2    0  502 -0.98683902918E+01  0.22369263777E+02  0.77931631312E+03  0.77969974028E+03  0.00000000000E+00 0.  1.
<mgrwt>
<rscale>  2 0.24449317E+02</rscale>
<asrwt>0</asrwt>
<pdfrwt beam="1">  1       21 0.20061070E+00 0.24449317E+02</pdfrwt>
<pdfrwt beam="2">  1       21 0.73331458E-04 0.24449317E+02</pdfrwt>
<totfact> 0.24162874E+07</totfact>
</mgrwt>
</event>
<event>
 4    1  0.7165636E+004  0.2022188E+02  0.7546771E-02  0.1740951E+00
         21   -1    0    0  503  502  0.00000000000E+00  0.00000000000E+00  0.67786652915E+01  0.67786652915E+01  0.00000000000E+00 0. -1.
         21   -1    0    0  501  503 -0.00000000000E+00 -0.00000000000E+00 -0.60448290606E+02  0.60448290606E+02  0.00000000000E+00 0. -1.
          5    1    1    2  501    0  0.20221878995E+02 -0.97299586860E-02 -0.28351500042E+02  0.34824302425E+02  0.00000000000E+00 0. -1.
         -5    1    1    2    0  502 -0.20221878995E+02  0.97299586860E-02 -0.25318125272E+02  0.32402653472E+02  0.00000000000E+00 0.  1.
<mgrwt>
<rscale>  2 0.20221881E+02</rscale>
<asrwt>0</asrwt>
<pdfrwt beam="1">  1       21 0.10428715E-02 0.20221881E+02</pdfrwt>
<pdfrwt beam="2">  1       21 0.92997375E-02 0.20221881E+02</pdfrwt>
<totfact> 0.20283432E+08</totfact>
</mgrwt>
</event>
<event>
 4    1  0.7165636E+004  0.2140900E+02  0.7546771E-02  0.1718678E+00
         21   -1    0    0  501  502  0.00000000000E+00  0.00000000000E+00  0.22603832388E+03  0.22603832388E+03  0.00000000000E+00 0. -1.
         21   -1    0    0  502  503 -0.00000000000E+00 -0.00000000000E+00 -0.20705046820E+01  0.20705046820E+01  0.00000000000E+00 0. -1.
          3    1    1    2  501    0 -0.21350292037E+02  0.15844429453E+01  0.12837662076E+03  0.13014953779E+03  0.00000000000E+00 0. -1.
         -3    1    1    2    0  503  0.21350292037E+02 -0.15844429453E+01  0.95591198435E+02  0.97959290768E+02  0.00000000000E+00 0.  1.
<mgrwt>
<rscale>  2 0.21409003E+02</rscale>
<asrwt>0</asrwt>
<pdfrwt beam="1">  1       21 0.34775107E-01 0.21409003E+02</pdfrwt>
<pdfrwt beam="2">  1       21 0.31853936E-03 0.21409003E+02</pdfrwt>
<totfact> 0.12160848E+08</totfact>
</mgrwt>
</event>
<event>
 4    1  0.7165636E+004  0.2581013E+02  0.7546771E-02  0.1649631E+00
         21   -1    0    0  501  502  0.00000000000E+00  0.00000000000E+00  0.19709761559E+01  0.19709761559E+01  0.00000000000E+00 0.  1.
         21   -1    0    0  502  503 -0.00000000000E+00 -0.00000000000E+00 -0.33880754049E+03  0.33880754049E+03  0.00000000000E+00 0.  1.
          5    1    1    2  501    0  0.21794581317E+02 -0.13826019270E+02 -0.16002854363E+03  0.16209656801E+03  0.00000000000E+00 0. -1.
         -5    1    1    2    0  503 -0.21794581317E+02  0.13826019270E+02 -0.17680802071E+03  0.17868194864E+03  0.00000000000E+00 0.  1.
<mgrwt>
<rscale>  2 0.25810126E+02</rscale>
<asrwt>0</asrwt>
<pdfrwt beam="1">  1       21 0.30322706E-03 0.25810126E+02</pdfrwt>
<pdfrwt beam="2">  1       21 0.52124244E-01 0.25810126E+02</pdfrwt>
<totfact> 0.63431327E+07</totfact>
</mgrwt>
</event>
<event>
 4    1  0.7165636E+004  0.8337029E+02  0.7546771E-02  0.1319750E+00
         21   -1    0    0  503  502  0.00000000000E+00  0.00000000000E+00  0.96121129358E+02  0.96121129358E+02  0.00000000000E+00 0. -1.
         21   -1    0    0  501  503 -0.00000000000E+00 -0.00000000000E+00 -0.75443170839E+02  0.75443170839E+02  0.00000000000E+00 0. -1.
          1    1    1    2  501    0 -0.73773439700E+02  0.38834075608E+02  0.27817967179E+02  0.87888822563E+02  0.00000000000E+00 0. -1.
         -1    1    1    2    0  502  0.73773439700E+02 -0.38834075608E+02 -0.71400086603E+01  0.83675477634E+02  0.00000000000E+00 0.  1.
<mgrwt>
<rscale>  2 0.83370293E+02</rscale>
<asrwt>0</asrwt>
<pdfrwt beam="1">  1       21 0.14787866E-01 0.83370293E+02</pdfrwt>
<pdfrwt beam="2">  1       21 0.11606642E-01 0.83370293E+02</pdfrwt>
<totfact> 0.24436692E+06</totfact>
</mgrwt>
</event>
<event>
 4    1  0.7165636E+004  0.2049672E+02  0.7546771E-02  0.1735627E+00
         21   -1    0    0  503  502  0.00000000000E+00  0.00000000000E+00  0.19230725076E+04  0.19230725076E+04  0.00000000000E+00 0. -1.
         21   -1    0    0  501  503 -0.00000000000E+00 -0.00000000000E+00 -0.23903733580E+00  0.23903733580E+00  0.00000000000E+00 0. -1.
          1    1    1    2  501    0  0.52440082485E+00 -0.20490006837E+02  0.67926930610E+03  0.67957847640E+03  0.00000000000E+00 0.  1.
         -1    1    1    2    0  502 -0.52440082485E+00  0.20490006837E+02  0.12435641642E+04  0.12437330686E+04  0.00000000000E+00 0. -1.
<mgrwt>
<rscale>  2 0.20496716E+02</rscale>
<asrwt>0</asrwt>
<pdfrwt beam="1">  1       21 0.29584492E+00 0.20496716E+02</pdfrwt>
<pdfrwt beam="2">  1       21 0.36776515E-04 0.20496716E+02</pdfrwt>
<totfact> 0.20751075E+07</totfact>
</mgrwt>
</event>
<event>
 4    1  0.7165636E+004  0.2212252E+02  0.7546771E-02  0.1706142E+00
         21   -1    0    0  503  502  0.00000000000E+00  0.00000000000E+00  0.32118697144E+03  0.32118697144E+03  0.00000000000E+00 0. -1.
         21   -1    0    0  501  503 -0.00000000000E+00 -0.00000000000E+00 -0.15372927929E+01  0.15372927929E+01  0.00000000000E+00 0. -1.
          3    1    1    2  501    0  0.15505145265E+01 -0.22068119956E+02  0.17497470913E+03  0.17636766951E+03  0.00000000000E+00 0. -1.
         -3    1    1    2    0  502 -0.15505145265E+01  0.22068119956E+02  0.14467496951E+03  0.14635659472E+03  0.00000000000E+00 0.  1.
<mgrwt>
<rscale>  2 0.22122523E+02</rscale>
<asrwt>0</asrwt>
<pdfrwt beam="1">  1       21 0.49413327E-01 0.22122523E+02</pdfrwt>
<pdfrwt beam="2">  1       21 0.23650684E-03 0.22122523E+02</pdfrwt>
<totfact> 0.97330264E+07</totfact>
</mgrwt>
</event>
<event>
 4    1  0.7165636E+004  0.2441629E+02  0.7546771E-02  0.1669530E+00
         21   -1    0    0  501  502  0.00000000000E+00  0.00000000000E+00  0.40656741609E+01  0.40656741609E+01  0.00000000000E+00 0.  1.
         21   -1    0    0  502  503 -0.00000000000E+00 -0.00000000000E+00 -0.14748972778E+03  0.14748972778E+03  0.00000000000E+00 0.  1.
          2    1    1    2  501    0 -0.22935271417E+02  0.83742707936E+01 -0.77493153680E+02  0.81248655088E+02  0.00000000000E+00 0.  1.
         -2    1    1    2    0  503  0.22935271417E+02 -0.83742707936E+01 -0.65930899943E+02  0.70306746857E+02  0.00000000000E+00 0. -1.
<mgrwt>
<rscale>  2 0.24416287E+02</rscale>
<asrwt>0</asrwt>
<pdfrwt beam="1">  1       21 0.62548846E-03 0.24416287E+02</pdfrwt>
<pdfrwt beam="2">  1       21 0.22690723E-01 0.24416287E+02</pdfrwt>
<totfact> 0.10104581E+08</totfact>
</mgrwt>
</event>
<event>
 4    1  0.7165636E+004  0.2609872E+02  0.7546771E-02  0.1645704E+00
         21   -1    0    0  501  502  0.00000000000E+00  0.00000000000E+00  0.11854310504E+03  0.11854310504E+03  0.00000000000E+00 0. -1.
         21   -1    0    0  502  503 -0.00000000000E+00 -0.00000000000E+00 -0.86995934719E+01  0.86995934719E+01  0.00000000000E+00 0. -1.
          4    1    1    2  501    0  0.18167677416E+02  0.18737090058E+02  0.17850930859E+02  0.31619594859E+02  0.00000000000E+00 0. -1.
         -4    1    1    2    0  503 -0.18167677416E+02 -0.18737090058E+02  0.91992580705E+02  0.95623103648E+02  0.00000000000E+00 0.  1.
<mgrwt>
<rscale>  2 0.26098717E+02</rscale>
<asrwt>0</asrwt>
<pdfrwt beam="1">  1       21 0.18237400E-01 0.26098717E+02</pdfrwt>
<pdfrwt beam="2">  1       21 0.13383991E-02 0.26098717E+02</pdfrwt>
<totfact> 0.48018789E+07</totfact>
</mgrwt>
</event>
<event>
 4    1  0.7165636E+004  0.2089672E+02  0.7546771E-02  0.1728062E+00
         21   -1    0    0  501  502  0.00000000000E+00  0.00000000000E+00  0.14967292987E+03  0.14967292987E+03  0.00000000000E+00 0. -1.
         21   -1    0    0  502  503 -0.00000000000E+00 -0.00000000000E+00 -0.31456419314E+01  0.31456419314E+01  0.00000000000E+00 0. -1.
          4    1    1    2  501    0  0.11485060795E+02 -0.17457556080E+02  0.93840575787E+02  0.96139100005E+02  0.00000000000E+00 0. -1.
         -4    1    1    2    0  503 -0.11485060795E+02  0.17457556080E+02  0.52686712147E+02  0.56679471792E+02  0.00000000000E+00 0.  1.
<mgrwt>
<rscale>  2 0.20896719E+02</rscale>
<asrwt>0</asrwt>
<pdfrwt beam="1">  1       21 0.23026599E-01 0.20896719E+02</pdfrwt>
<pdfrwt beam="2">  1       21 0.48394503E-03 0.20896719E+02</pdfrwt>
<totfact> 0.13767531E+08</totfact>
</mgrwt>
</event>
<event>
 4    1  0.7165636E+004  0.3721481E+02  0.7546771E-02  0.1529768E+00
         21   -1    0    0  501  502  0.00000000000E+00  0.00000000000E+00  0.19086066952E+01  0.19086066952E+01  0.00000000000E+00 0.  1.
         21   -1    0    0  502  503 -0.00000000000E+00 -0.00000000000E+00 -0.74786220900E+03  0.74786220900E+03  0.00000000000E+00 0.  1.
          1    1    1    2  501    0 -0.92813642286E+01  0.36038842071E+02 -0.30833980259E+03  0.31057748747E+03  0.00000000000E+00 0.  1.
         -1    1    1    2    0  503  0.92813642286E+01 -0.36038842071E+02 -0.43761379971E+03  0.43919332823E+03  0.00000000000E+00 0. -1.
<mgrwt>
<rscale>  2 0.37214807E+02</rscale>
<asrwt>0</asrwt>
<pdfrwt beam="1">  1       21 0.29363149E-03 0.37214807E+02</pdfrwt>
<pdfrwt beam="2">  1       21 0.11505585E+00 0.37214807E+02</pdfrwt>
<totfact> 0.13234716E+07</totfact>
</mgrwt>
</event>
<event>
 4    1  0.7165636E+004  0.2051771E+02  0.7546771E-02  0.1735224E+00
         21   -1    0    0  503  502  0.00000000000E+00  0.00000000000E+00  0.78590826451E+02  0.78590826451E+02  0.00000000000E+00 0.  1.
         21   -1    0    0  501  503 -0.00000000000E+00 -0.00000000000E+00 -0.56014103024E+01  0.56014103024E+01  0.00000000000E+00 0.  1.
          1    1    1    2  501    0 -0.18585553498E+02  0.86921689164E+01  0.27693499664E+02  0.34466019830E+02  0.00000000000E+00 0. -1.
         -1    1    1    2    0  502  0.18585553498E+02 -0.86921689164E+01  0.45295916484E+02  0.49726216923E+02  0.00000000000E+00 0.  1.
<mgrwt>
<rscale>  2 0.20517714E+02</rscale>
<asrwt>0</asrwt>
<pdfrwt beam="1">  1       21 0.12090896E-01 0.20517714E+02</pdfrwt>
<pdfrwt beam="2">  1       21 0.86175549E-03 0.20517714E+02</pdfrwt>
<totfact> 0.17559941E+08</totfact>
</mgrwt>
</event>
<event>
 4    1  0.7165636E+004  0.3700982E+02  0.7546771E-02  0.1531444E+00
         21   -1    0    0  501  502  0.00000000000E+00  0.00000000000E+00  0.77757029419E+01  0.77757029419E+01  0.00000000000E+00 0. -1.
         21   -1    0    0  502  503 -0.00000000000E+00 -0.00000000000E+00 -0.19370533000E+03  0.19370533000E+03  0.00000000000E+00 0. -1.
          5    1    1    2  501    0  0.33549914867E+02  0.15624668896E+02 -0.62641334120E+02  0.72757568720E+02  0.00000000000E+00 0.  1.
         -5    1    1    2    0  503 -0.33549914867E+02 -0.15624668896E+02 -0.12328829294E+03  0.12872346422E+03  0.00000000000E+00 0. -1.
<mgrwt>
<rscale>  2 0.37009824E+02</rscale>
<asrwt>0</asrwt>
<pdfrwt beam="1">  1       21 0.11962620E-02 0.37009824E+02</pdfrwt>
<pdfrwt beam="2">  1       21 0.29800819E-01 0.37009824E+02</pdfrwt>
<totfact> 0.25322792E+07</totfact>
</mgrwt>
</event>
<event>
 4    1  0.7165636E+004  0.2108337E+02  0.7546771E-02  0.1724604E+00
         21   -1    0    0  501  502  0.00000000000E+00  0.00000000000E+00  0.65709291663E+01  0.65709291663E+01  0.00000000000E+00 0. -1.
         21   -1    0    0  502  503 -0.00000000000E+00 -0.00000000000E+00 -0.69965782110E+02  0.69965782110E+02  0.00000000000E+00 0. -1.
          3    1    1    2  501    0 -0.16192721469E+02  0.13502005338E+02 -0.38663041756E+02  0.44037928817E+02  0.00000000000E+00 0. -1.
         -3    1    1    2    0  503  0.16192721469E+02 -0.13502005338E+02 -0.24731811188E+02  0.32498782460E+02  0.00000000000E+00 0.  1.
<mgrwt>
<rscale>  2 0.21083367E+02</rscale>
<asrwt>0</asrwt>
<pdfrwt beam="1">  1       21 0.10109122E-02 0.21083367E+02</pdfrwt>
<pdfrwt beam="2">  1       21 0.10763966E-01 0.21083367E+02</pdfrwt>
<totfact> 0.16924431E+08</totfact>
</mgrwt>
</event>
<event>
 4    1  0.7165636E+004  0.2111272E+02  0.7546771E-02  0.1724065E+00
         21   -1    0    0  501  502  0.00000000000E+00  0.00000000000E+00  0.11399753612E+01  0.11399753612E+01  0.00000000000E+00 0. -1.
         21   -1    0    0  502  503 -0.00000000000E+00 -0.00000000000E+00 -0.40662681233E+03  0.40662681233E+03  0.00000000000E+00 0. -1.
          1    1    1    2  501    0 -0.78668605305E+01 -0.19592329308E+02 -0.24269351871E+03  0.24361012066E+03  0.00000000000E+00 0. -1.
         -1    1    1    2    0  503  0.78668605305E+01  0.19592329308E+02 -0.16279331826E+03  0.16415666703E+03  0.00000000000E+00 0.  1.
<mgrwt>
<rscale>  2 0.21112718E+02</rscale>
<asrwt>0</asrwt>
<pdfrwt beam="1">  1       21 0.17538068E-03 0.21112718E+02</pdfrwt>
<pdfrwt beam="2">  1       21 0.62558023E-01 0.21112718E+02</pdfrwt>
<totfact> 0.92965308E+07</totfact>
</mgrwt>
</event>
<event>
 4    1  0.7165636E+004  0.3066408E+02  0.7546771E-02  0.1590862E+00
         21   -1    0    0  503  502  0.00000000000E+00  0.00000000000E+00  0.12234843898E+02  0.12234843898E+02  0.00000000000E+00 0.  1.
         21   -1    0    0  501  503 -0.00000000000E+00 -0.00000000000E+00 -0.87505769292E+02  0.87505769292E+02  0.00000000000E+00 0.  1.
          1    1    1    2  501    0  0.24230015773E+02  0.18793403052E+02 -0.20235314445E+02  0.36738993091E+02  0.00000000000E+00 0.  1.
         -1    1    1    2    0  502 -0.24230015773E+02 -0.18793403052E+02 -0.55035610949E+02  0.63001620099E+02  0.00000000000E+00 0. -1.
<mgrwt>
<rscale>  2 0.30664078E+02</rscale>
<asrwt>0</asrwt>
<pdfrwt beam="1">  1       21 0.18822837E-02 0.30664078E+02</pdfrwt>
<pdfrwt beam="2">  1       21 0.13462426E-01 0.30664078E+02</pdfrwt>
<totfact> 0.49792786E+07</totfact>
</mgrwt>
</event>
<event>
 4    1  0.7165636E+004  0.2019523E+02  0.7546771E-02  0.1741473E+00
         21   -1    0    0  503  502  0.00000000000E+00  0.00000000000E+00  0.52256838254E+02  0.52256838254E+02  0.00000000000E+00 0.  1.
         21   -1    0    0  501  503 -0.00000000000E+00 -0.00000000000E+00 -0.78902033612E+01  0.78902033612E+01  0.00000000000E+00 0.  1.
          1    1    1    2  501    0 -0.30630122156E+01 -0.19961598168E+02  0.25314473197E+02  0.32383174620E+02  0.00000000000E+00 0. -1.
         -1    1    1    2    0  502  0.30630122156E+01  0.19961598168E+02  0.19052161697E+02  0.27763866996E+02  0.00000000000E+00 0.  1.
<mgrwt>
<rscale>  2 0.20195233E+02</rscale>
<asrwt>0</asrwt>
<pdfrwt beam="1">  1       21 0.80395134E-02 0.20195233E+02</pdfrwt>
<pdfrwt beam="2">  1       21 0.12138775E-02 0.20195233E+02</pdfrwt>
<totfact> 0.20471062E+08</totfact>
</mgrwt>
</event>
<event>
 4    1  0.7165636E+004  0.2534313E+02  0.7546771E-02  0.1656122E+00
         21   -1    0    0  501  502  0.00000000000E+00  0.00000000000E+00  0.97096572519E+01  0.97096572519E+01  0.00000000000E+00 0.  1.
         21   -1    0    0  502  503 -0.00000000000E+00 -0.00000000000E+00 -0.67357379563E+02  0.67357379563E+02  0.00000000000E+00 0.  1.
          4    1    1    2  501    0  0.22958785307E+02  0.10731652477E+02 -0.23660512419E+02  0.34671227778E+02  0.00000000000E+00 0.  1.
         -4    1    1    2    0  503 -0.22958785307E+02 -0.10731652477E+02 -0.33987209892E+02  0.42395809037E+02  0.00000000000E+00 0. -1.
<mgrwt>
<rscale>  2 0.25343129E+02</rscale>
<asrwt>0</asrwt>
<pdfrwt beam="1">  1       21 0.14937934E-02 0.25343129E+02</pdfrwt>
<pdfrwt beam="2">  1       21 0.10362674E-01 0.25343129E+02</pdfrwt>
<totfact> 0.10542050E+08</totfact>
</mgrwt>
</event>
<event>
 4    1  0.7165636E+004  0.2038165E+02  0.7546771E-02  0.1737843E+00
         21   -1    0    0  503  502  0.00000000000E+00  0.00000000000E+00  0.16172557998E+02  0.16172557998E+02  0.00000000000E+00 0.  1.
         21   -1    0    0  501  503 -0.00000000000E+00 -0.00000000000E+00 -0.27008525993E+02  0.27008525993E+02  0.00000000000E+00 0.  1.
          2    1    1    2  501    0  0.14713749077E+02 -0.14103805749E+02 -0.10195261275E+02  0.22789363769E+02  0.00000000000E+00 0. -1.
         -2    1    1    2    0  502 -0.14713749077E+02  0.14103805749E+02 -0.64070672014E+00  0.20391720222E+02  0.00000000000E+00 0.  1.
<mgrwt>
<rscale>  2 0.20381652E+02</rscale>
<asrwt>0</asrwt>
<pdfrwt beam="1">  1       21 0.24880859E-02 0.20381652E+02</pdfrwt>
<pdfrwt beam="2">  1       21 0.41551578E-02 0.20381652E+02</pdfrwt>
<totfact> 0.19768279E+08</totfact>
</mgrwt>
</event>
<event>
 4    1  0.7165636E+004  0.2119630E+02  0.7546771E-02  0.1722534E+00
         21   -1    0    0  501  502  0.00000000000E+00  0.00000000000E+00  0.19138934231E+03  0.19138934231E+03  0.00000000000E+00 0. -1.
         21   -1    0    0  502  503 -0.00000000000E+00 -0.00000000000E+00 -0.23573601551E+01  0.23573601551E+01  0.00000000000E+00 0. -1.
          1    1    1    2  501    0 -0.64217274791E+01 -0.20200110108E+02  0.88245093314E+02  0.90755052345E+02  0.00000000000E+00 0. -1.
         -1    1    1    2    0  503  0.64217274791E+01  0.20200110108E+02  0.10078688885E+03  0.10299165012E+03  0.00000000000E+00 0.  1.
<mgrwt>
<rscale>  2 0.21196298E+02</rscale>
<asrwt>0</asrwt>
<pdfrwt beam="1">  1       21 0.29444502E-01 0.21196298E+02</pdfrwt>
<pdfrwt beam="2">  1       21 0.36267094E-03 0.21196298E+02</pdfrwt>
<totfact> 0.13601673E+08</totfact>
</mgrwt>
</event>
<event>
 4    1  0.7165636E+004  0.2253434E+02  0.7546771E-02  0.1699171E+00
         21   -1    0    0  503  502  0.00000000000E+00  0.00000000000E+00  0.10293211857E+04  0.10293211857E+04  0.00000000000E+00 0.  1.
         21   -1    0    0  501  503 -0.00000000000E+00 -0.00000000000E+00 -0.60925503122E+00  0.60925503122E+00  0.00000000000E+00 0.  1.
          3    1    1    2  501    0  0.20592056823E+02  0.91522448392E+01  0.73898425769E+03  0.73932775513E+03  0.00000000000E+00 0.  1.
         -3    1    1    2    0  502 -0.20592056823E+02 -0.91522448392E+01  0.28972767300E+03  0.29060268563E+03  0.00000000000E+00 0. -1.
<mgrwt>
<rscale>  2 0.22534338E+02</rscale>
<asrwt>0</asrwt>
<pdfrwt beam="1">  1       21 0.15835571E+00 0.22534338E+02</pdfrwt>
<pdfrwt beam="2">  1       21 0.93732367E-04 0.22534338E+02</pdfrwt>
<totfact> 0.30326954E+07</totfact>
</mgrwt>
</event>
<event>
 4    1  0.7165636E+004  0.3712922E+02  0.7546771E-02  0.1530467E+00
         21   -1    0    0  503  502  0.00000000000E+00  0.00000000000E+00  0.11994638830E+03  0.11994638830E+03  0.00000000000E+00 0. -1.
         21   -1    0    0  501  503 -0.00000000000E+00 -0.00000000000E+00 -0.13231958997E+02  0.13231958997E+02  0.00000000000E+00 0. -1.
          3    1    1    2  501    0 -0.36156617786E+02 -0.84426422315E+01  0.77495109461E+02  0.85930618571E+02  0.00000000000E+00 0. -1.
         -3    1    1    2    0  502  0.36156617786E+02  0.84426422315E+01  0.29219319837E+02  0.47247728722E+02  0.00000000000E+00 0.  1.
<mgrwt>
<rscale>  2 0.37129223E+02</rscale>
<asrwt>0</asrwt>
<pdfrwt beam="1">  1       21 0.18453290E-01 0.37129223E+02</pdfrwt>
<pdfrwt beam="2">  1       21 0.20356861E-02 0.37129223E+02</pdfrwt>
<totfact> 0.26465781E+07</totfact>
</mgrwt>
</event>
<event>
 4    1  0.7165636E+004  0.2554337E+02  0.7546771E-02  0.1653318E+00
         21   -1    0    0  501  502  0.00000000000E+00  0.00000000000E+00  0.45839330778E+02  0.45839330778E+02  0.00000000000E+00 0. -1.
         21   -1    0    0  502  503 -0.00000000000E+00 -0.00000000000E+00 -0.14234720072E+02  0.14234720072E+02  0.00000000000E+00 0. -1.
          4    1    1    2  501    0  0.19951977750E+02 -0.15949359866E+02  0.16055995031E+02  0.30170490097E+02  0.00000000000E+00 0.  1.
         -4    1    1    2    0  503 -0.19951977750E+02  0.15949359866E+02  0.15548615675E+02  0.29903560752E+02  0.00000000000E+00 0. -1.
<mgrwt>
<rscale>  2 0.25543365E+02</rscale>
<asrwt>0</asrwt>
<pdfrwt beam="1">  1       21 0.70522047E-02 0.25543365E+02</pdfrwt>
<pdfrwt beam="2">  1       21 0.21899570E-02 0.25543365E+02</pdfrwt>
<totfact> 0.11060972E+08</totfact>
</mgrwt>
</event>
<event>
 4    1  0.7165636E+004  0.3126761E+02  0.7546771E-02  0.1584485E+00
         21   -1    0    0  503  502  0.00000000000E+00  0.00000000000E+00  0.28164784425E+01  0.28164784425E+01  0.00000000000E+00 0. -1.
         21   -1    0    0  501  503 -0.00000000000E+00 -0.00000000000E+00 -0.34722039504E+03  0.34722039504E+03  0.00000000000E+00 0. -1.
          5    1    1    2  501    0  0.17934925346E+02 -0.25612534631E+02 -0.16926555739E+03  0.17212928976E+03  0.00000000000E+00 0.  1.
         -5    1    1    2    0  502 -0.17934925346E+02  0.25612534631E+02 -0.17513835921E+03  0.17790758372E+03  0.00000000000E+00 0. -1.
<mgrwt>
<rscale>  2 0.31267611E+02</rscale>
<asrwt>0</asrwt>
<pdfrwt beam="1">  1       21 0.43330430E-03 0.31267611E+02</pdfrwt>
<pdfrwt beam="2">  1       21 0.53418532E-01 0.31267611E+02</pdfrwt>
<totfact> 0.37151819E+07</totfact>
</mgrwt>
</event>
<event>
 4    1  0.7165636E+004  0.3803390E+02  0.7546771E-02  0.1523199E+00
         21   -1    0    0  501  502  0.00000000000E+00  0.00000000000E+00  0.11523594689E+02  0.11523594689E+02  0.00000000000E+00 0.  1.
         21   -1    0    0  502  503 -0.00000000000E+00 -0.00000000000E+00 -0.13020397051E+03  0.13020397051E+03  0.00000000000E+00 0.  1.
          3    1    1    2  501    0 -0.65513978716E+01 -0.37465405163E+02 -0.72763890056E+02  0.82104574137E+02  0.00000000000E+00 0.  1.
         -3    1    1    2    0  503  0.65513978716E+01  0.37465405163E+02 -0.45916485762E+02  0.59622991059E+02  0.00000000000E+00 0. -1.
<mgrwt>
<rscale>  2 0.38033898E+02</rscale>
<asrwt>0</asrwt>
<pdfrwt beam="1">  1       21 0.17728607E-02 0.38033898E+02</pdfrwt>
<pdfrwt beam="2">  1       21 0.20031380E-01 0.38033898E+02</pdfrwt>
<totfact> 0.28496889E+07</totfact>
</mgrwt>
</event>
<event>
 4    1  0.7165636E+004  0.2063769E+02  0.7546771E-02  0.1732936E+00
         21   -1    0    0  503  502  0.00000000000E+00  0.00000000000E+00  0.36960550359E+03  0.36960550359E+03  0.00000000000E+00 0.  1.
         21   -1    0    0  501  503 -0.00000000000E+00 -0.00000000000E+00 -0.12087561666E+01  0.12087561666E+01  0.00000000000E+00 0.  1.
          1    1    1    2  501    0  0.89688982695E+01  0.18586912178E+02  0.22425046341E+03  0.22519810119E+03  0.00000000000E+00 0.  1.
         -1    1    1    2    0  502 -0.89688982695E+01 -0.18586912178E+02  0.14414628401E+03  0.14561615856E+03  0.00000000000E+00 0. -1.
<mgrwt>
<rscale>  2 0.20637695E+02</rscale>
<asrwt>0</asrwt>
<pdfrwt beam="1">  1       21 0.56862295E-01 0.20637695E+02</pdfrwt>
<pdfrwt beam="2">  1       21 0.18596278E-03 0.20637695E+02</pdfrwt>
<totfact> 0.10271130E+08</totfact>
</mgrwt>
</event>
<event>
 4    1  0.7165636E+004  0.2063686E+02  0.7546771E-02  0.1732952E+00
         21   -1    0    0  503  502  0.00000000000E+00  0.00000000000E+00  0.27047081189E+01  0.27047081189E+01  0.00000000000E+00 0.  1.
         21   -1    0    0  501  503 -0.00000000000E+00 -0.00000000000E+00 -0.18174514052E+03  0.18174514052E+03  0.00000000000E+00 0.  1.
          2    1    1    2  501    0  0.19442651237E+02 -0.69183190040E+01 -0.12323332759E+03  0.12494932114E+03  0.00000000000E+00 0.  1.
         -2    1    1    2    0  502 -0.19442651237E+02  0.69183190040E+01 -0.55807104808E+02  0.59500527494E+02  0.00000000000E+00 0. -1.
<mgrwt>
<rscale>  2 0.20636856E+02</rscale>
<asrwt>0</asrwt>
<pdfrwt beam="1">  1       21 0.41610893E-03 0.20636856E+02</pdfrwt>
<pdfrwt beam="2">  1       21 0.27960792E-01 0.20636856E+02</pdfrwt>
<totfact> 0.12120295E+08</totfact>
</mgrwt>
</event>
<event>
 4    1  0.7165636E+004  0.3290371E+02  0.7546771E-02  0.1568045E+00
         21   -1    0    0  501  502  0.00000000000E+00  0.00000000000E+00  0.22630672683E+02  0.22630672683E+02  0.00000000000E+00 0.  1.
         21   -1    0    0  502  503 -0.00000000000E+00 -0.00000000000E+00 -0.53515962142E+02  0.53515962142E+02  0.00000000000E+00 0.  1.
          2    1    1    2  501    0 -0.18611711342E+02 -0.27134086203E+02 -0.27841843898E+02  0.43102467502E+02  0.00000000000E+00 0.  1.
         -2    1    1    2    0  503  0.18611711342E+02  0.27134086203E+02 -0.30434455608E+01  0.33044167322E+02  0.00000000000E+00 0. -1.
<mgrwt>
<rscale>  2 0.32903715E+02</rscale>
<asrwt>0</asrwt>
<pdfrwt beam="1">  1       21 0.34816420E-02 0.32903715E+02</pdfrwt>
<pdfrwt beam="2">  1       21 0.82332248E-02 0.32903715E+02</pdfrwt>
<totfact> 0.44090762E+07</totfact>
</mgrwt>
</event>
<event>
 4    1  0.7165636E+004  0.2684611E+02  0.7546771E-02  0.1635819E+00
         21   -1    0    0  501  502  0.00000000000E+00  0.00000000000E+00  0.36434622716E+01  0.36434622716E+01  0.00000000000E+00 0. -1.
         21   -1    0    0  502  503 -0.00000000000E+00 -0.00000000000E+00 -0.19781128871E+03  0.19781128871E+03  0.00000000000E+00 0. -1.
          1    1    1    2  501    0  0.23536469960E+02  0.12913095376E+02 -0.97336080024E+02  0.10097042104E+03  0.00000000000E+00 0.  1.
         -1    1    1    2    0  503 -0.23536469960E+02 -0.12913095376E+02 -0.96831746414E+02  0.10048432994E+03  0.00000000000E+00 0. -1.
<mgrwt>
<rscale>  2 0.26846107E+02</rscale>
<asrwt>0</asrwt>
<pdfrwt beam="1">  1       21 0.56053255E-03 0.26846107E+02</pdfrwt>
<pdfrwt beam="2">  1       21 0.30432512E-01 0.26846107E+02</pdfrwt>
<totfact> 0.71748223E+07</totfact>
</mgrwt>
</event>
<event>
 4    1  0.7165636E+004  0.2329621E+02  0.7546771E-02  0.1686753E+00
         21   -1    0    0  501  502  0.00000000000E+00  0.00000000000E+00  0.14572528540E+01  0.14572528540E+01  0.00000000000E+00 0.  1.
         21   -1    0    0  502  503 -0.00000000000E+00 -0.00000000000E+00 -0.39089739870E+03  0.39089739870E+03  0.00000000000E+00 0.  1.
          2    1    1    2  501    0  0.18227803218E+02 -0.14507262956E+02 -0.23736924150E+03  0.23850968596E+03  0.00000000000E+00 0. -1.
         -2    1    1    2    0  503 -0.18227803218E+02  0.14507262956E+02 -0.15207090435E+03  0.15384496559E+03  0.00000000000E+00 0.  1.
<mgrwt>
<rscale>  2 0.23296212E+02</rscale>
<asrwt>0</asrwt>
<pdfrwt beam="1">  1       21 0.22419274E-03 0.23296212E+02</pdfrwt>
<pdfrwt beam="2">  1       21 0.60138064E-01 0.23296212E+02</pdfrwt>
<totfact> 0.72384687E+07</totfact>
</mgrwt>
</event>
<event>
 4    1  0.7165636E+004  0.2555595E+02  0.7546771E-02  0.1653143E+00
         21   -1    0    0  501  502  0.00000000000E+00  0.00000000000E+00  0.86020651228E+02  0.86020651228E+02  0.00000000000E+00 0.  1.
         21   -1    0    0  502  503 -0.00000000000E+00 -0.00000000000E+00 -0.76066658504E+01  0.76066658504E+01  0.00000000000E+00 0.  1.
          1    1    1    2  501    0  0.39083908282E+01  0.25255314814E+02  0.41231633062E+02  0.48509318797E+02  0.00000000000E+00 0. -1.
         -1    1    1    2    0  503 -0.39083908282E+01 -0.25255314814E+02  0.37182352316E+02  0.45117998282E+02  0.00000000000E+00 0.  1.
<mgrwt>
<rscale>  2 0.25555947E+02</rscale>
<asrwt>0</asrwt>
<pdfrwt beam="1">  1       21 0.13233946E-01 0.25555947E+02</pdfrwt>
<pdfrwt beam="2">  1       21 0.11702563E-02 0.25555947E+02</pdfrwt>
<totfact> 0.10154515E+08</totfact>
</mgrwt>
</event>
<event>
 4    1  0.7165636E+004  0.2037243E+02  0.7546771E-02  0.1738022E+00
         21   -1    0    0  503  502  0.00000000000E+00  0.00000000000E+00  0.21061159578E+02  0.21061159578E+02  0.00000000000E+00 0.  1.
         21   -1    0    0  501  503 -0.00000000000E+00 -0.00000000000E+00 -0.19850481860E+02  0.19850481860E+02  0.00000000000E+00 0.  1.
          1    1    1    2  501    0 -0.19638834220E+02 -0.54177705418E+01 -0.11384449169E+01  0.20404217799E+02  0.00000000000E+00 0. -1.
         -1    1    1    2    0  502  0.19638834220E+02  0.54177705418E+01  0.23491226348E+01  0.20507423639E+02  0.00000000000E+00 0.  1.
<mgrwt>
<rscale>  2 0.20372434E+02</rscale>
<asrwt>0</asrwt>
<pdfrwt beam="1">  1       21 0.32401784E-02 0.20372434E+02</pdfrwt>
<pdfrwt beam="2">  1       21 0.30539203E-02 0.20372434E+02</pdfrwt>
<totfact> 0.21242461E+08</totfact>
</mgrwt>
</event>
<event>
 4    1  0.7165636E+004  0.6615318E+02  0.7546771E-02  0.1373685E+00
         21   -1    0    0  503  502  0.00000000000E+00  0.00000000000E+00  0.40960906141E+01  0.40960906141E+01  0.00000000000E+00 0. -1.
         21   -1    0    0  501  503 -0.00000000000E+00 -0.00000000000E+00 -0.10820565752E+04  0.10820565752E+04  0.00000000000E+00 0. -1.
          4    1    1    2  501    0 -0.64750769332E+02 -0.13549205849E+02 -0.60000201515E+03  0.60363785608E+03  0.00000000000E+00 0.  1.
         -4    1    1    2    0  502  0.64750769332E+02  0.13549205849E+02 -0.47795846948E+03  0.48251480978E+03  0.00000000000E+00 0. -1.
<mgrwt>
<rscale>  2 0.66153179E+02</rscale>
<asrwt>0</asrwt>
<pdfrwt beam="1">  1       21 0.63016786E-03 0.66153179E+02</pdfrwt>
<pdfrwt beam="2">  1       21 0.16647022E+00 0.66153179E+02</pdfrwt>
<totfact> 0.17735720E+06</totfact>
</mgrwt>
</event>
<event>
 4    1  0.7165636E+004  0.2098269E+02  0.7546771E-02  0.1726464E+00
         21   -1    0    0  503  502  0.00000000000E+00  0.00000000000E+00  0.52124787092E+02  0.52124787092E+02  0.00000000000E+00 0. -1.
         21   -1    0    0  501  503 -0.00000000000E+00 -0.00000000000E+00 -0.10682896887E+02  0.10682896887E+02  0.00000000000E+00 0. -1.
          4    1    1    2  501    0 -0.11890324802E+02  0.17288535922E+02  0.35089408065E+02  0.40884469626E+02  0.00000000000E+00 0. -1.
         -4    1    1    2    0  502  0.11890324802E+02 -0.17288535922E+02  0.63524821400E+01  0.21923214353E+02  0.00000000000E+00 0.  1.
<mgrwt>
<rscale>  2 0.20982690E+02</rscale>
<asrwt>0</asrwt>
<pdfrwt beam="1">  1       21 0.80191978E-02 0.20982690E+02</pdfrwt>
<pdfrwt beam="2">  1       21 0.16435226E-02 0.20982690E+02</pdfrwt>
<totfact> 0.13160452E+08</totfact>
</mgrwt>
</event>
<event>
 4    1  0.7165636E+004  0.2283747E+02  0.7546771E-02  0.1694158E+00
         21   -1    0    0  501  502  0.00000000000E+00  0.00000000000E+00  0.22215808781E+01  0.22215808781E+01  0.00000000000E+00 0.  1.
         21   -1    0    0  502  503 -0.00000000000E+00 -0.00000000000E+00 -0.39324628637E+03  0.39324628637E+03  0.00000000000E+00 0.  1.
          3    1    1    2  501    0 -0.13072179879E+02 -0.18726131404E+02 -0.32103948516E+03  0.32185074323E+03  0.00000000000E+00 0. -1.
         -3    1    1    2    0  503  0.13072179879E+02  0.18726131404E+02 -0.69985220328E+02  0.73617124017E+02  0.00000000000E+00 0.  1.
<mgrwt>
<rscale>  2 0.22837467E+02</rscale>
<asrwt>0</asrwt>
<pdfrwt beam="1">  1       21 0.34178179E-03 0.22837467E+02</pdfrwt>
<pdfrwt beam="2">  1       21 0.60499408E-01 0.22837467E+02</pdfrwt>
<totfact> 0.38552024E+07</totfact>
</mgrwt>
</event>
<event>
 4    1  0.7165636E+004  0.2482306E+02  0.7546771E-02  0.1663556E+00
         21   -1    0    0  503  502  0.00000000000E+00  0.00000000000E+00  0.91252888555E+01  0.91252888555E+01  0.00000000000E+00 0.  1.
         21   -1    0    0  501  503 -0.00000000000E+00 -0.00000000000E+00 -0.67906796540E+02  0.67906796540E+02  0.00000000000E+00 0.  1.
          4    1    1    2  501    0 -0.36164653803E+01  0.24558204598E+02 -0.26502357345E+02  0.36311970200E+02  0.00000000000E+00 0. -1.
         -4    1    1    2    0  502  0.36164653803E+01 -0.24558204598E+02 -0.32279150340E+02  0.40720115196E+02  0.00000000000E+00 0.  1.
<mgrwt>
<rscale>  2 0.24823059E+02</rscale>
<asrwt>0</asrwt>
<pdfrwt beam="1">  1       21 0.14038906E-02 0.24823059E+02</pdfrwt>
<pdfrwt beam="2">  1       21 0.10447199E-01 0.24823059E+02</pdfrwt>
<totfact> 0.11368946E+08</totfact>
</mgrwt>
</event>
<event>
 4    1  0.7165636E+004  0.2687644E+02  0.7546771E-02  0.1635426E+00
         21   -1    0    0  503  502  0.00000000000E+00  0.00000000000E+00  0.44592382636E+02  0.44592382636E+02  0.00000000000E+00 0.  1.
         21   -1    0    0  501  503 -0.00000000000E+00 -0.00000000000E+00 -0.19772628703E+02  0.19772628703E+02  0.00000000000E+00 0.  1.
          5    1    1    2  501    0 -0.17600773005E+02  0.20311473876E+02  0.26092028237E+02  0.37458471924E+02  0.00000000000E+00 0. -1.
         -5    1    1    2    0  502  0.17600773005E+02 -0.20311473876E+02 -0.12722743039E+01  0.26906539415E+02  0.00000000000E+00 0.  1.
<mgrwt>
<rscale>  2 0.26876443E+02</rscale>
<asrwt>0</asrwt>
<pdfrwt beam="1">  1       21 0.68603665E-02 0.26876443E+02</pdfrwt>
<pdfrwt beam="2">  1       21 0.30419429E-02 0.26876443E+02</pdfrwt>
<totfact> 0.70296855E+07</totfact>
</mgrwt>
</event>
<event>
 4    1  0.7165636E+004  0.2385532E+02  0.7546771E-02  0.1678009E+00
         21   -1    0    0  501  502  0.00000000000E+00  0.00000000000E+00  0.56059325857E+01  0.56059325857E+01  0.00000000000E+00 0. -1.
         21   -1    0    0  502  503 -0.00000000000E+00 -0.00000000000E+00 -0.10949681022E+03  0.10949681022E+03  0.00000000000E+00 0. -1.
          2    1    1    2  501    0 -0.23690985892E+02  0.27953010914E+01 -0.36405373676E+02  0.43525024449E+02  0.00000000000E+00 0.  1.
         -2    1    1    2    0  503  0.23690985892E+02 -0.27953010914E+01 -0.67485503961E+02  0.71577718360E+02  0.00000000000E+00 0. -1.
<mgrwt>
<rscale>  2 0.23855325E+02</rscale>
<asrwt>0</asrwt>
<pdfrwt beam="1">  1       21 0.86245124E-03 0.23855325E+02</pdfrwt>
<pdfrwt beam="2">  1       21 0.16845662E-01 0.23855325E+02</pdfrwt>
<totfact> 0.10455900E+08</totfact>
</mgrwt>
</event>
<event>
 4    1  0.7165636E+004  0.2176900E+02  0.7546771E-02  0.1712278E+00
         21   -1    0    0  503  502  0.00000000000E+00  0.00000000000E+00  0.18105129703E+01  0.18105129703E+01  0.00000000000E+00 0. -1.
         21   -1    0    0  501  503 -0.00000000000E+00 -0.00000000000E+00 -0.27289029830E+03  0.27289029830E+03  0.00000000000E+00 0. -1.
          5    1    1    2  501    0 -0.21531050960E+02 -0.32098816213E+01 -0.16329969798E+03  0.16474428930E+03  0.00000000000E+00 0. -1.
         -5    1    1    2    0  502  0.21531050960E+02  0.32098816213E+01 -0.10778008734E+03  0.10995652197E+03  0.00000000000E+00 0.  1.
<mgrwt>
<rscale>  2 0.21769003E+02</rscale>
<asrwt>0</asrwt>
<pdfrwt beam="1">  1       21 0.27854045E-03 0.21769003E+02</pdfrwt>
<pdfrwt beam="2">  1       21 0.41983123E-01 0.21769003E+02</pdfrwt>
<totfact> 0.10443921E+08</totfact>
</mgrwt>
</event>
<event>
 4    1  0.7165636E+004  0.3860836E+02  0.7546771E-02  0.1518709E+00
         21   -1    0    0  503  502  0.00000000000E+00  0.00000000000E+00  0.19135755238E+02  0.19135755238E+02  0.00000000000E+00 0.  1.
         21   -1    0    0  501  503 -0.00000000000E+00 -0.00000000000E+00 -0.10074569196E+03  0.10074569196E+03  0.00000000000E+00 0.  1.
          3    1    1    2  501    0  0.36350620597E+02  0.13009150511E+02 -0.12258951055E+02  0.40507869554E+02  0.00000000000E+00 0. -1.
         -3    1    1    2    0  502 -0.36350620597E+02 -0.13009150511E+02 -0.69350985666E+02  0.79373577642E+02  0.00000000000E+00 0.  1.
<mgrwt>
<rscale>  2 0.38608362E+02</rscale>
<asrwt>0</asrwt>
<pdfrwt beam="1">  1       21 0.29439623E-02 0.38608362E+02</pdfrwt>
<pdfrwt beam="2">  1       21 0.15499337E-01 0.38608362E+02</pdfrwt>
<totfact> 0.20246784E+07</totfact>
</mgrwt>
</event>
<event>
 4    1  0.7165636E+004  0.2082639E+02  0.7546771E-02  0.1729377E+00
         21   -1    0    0  503  502  0.00000000000E+00  0.00000000000E+00  0.94780045462E+02  0.94780045462E+02  0.00000000000E+00 0.  1.
         21   -1    0    0  501  503 -0.00000000000E+00 -0.00000000000E+00 -0.63308107622E+01  0.63308107622E+01  0.00000000000E+00 0.  1.
          3    1    1    2  501    0  0.65290369214E+01  0.19776511007E+02  0.17609993165E+02  0.27273624072E+02  0.00000000000E+00 0. -1.
         -3    1    1    2    0  502 -0.65290369214E+01 -0.19776511007E+02  0.70839241534E+02  0.73837232152E+02  0.00000000000E+00 0.  1.
<mgrwt>
<rscale>  2 0.20826395E+02</rscale>
<asrwt>0</asrwt>
<pdfrwt beam="1">  1       21 0.14581544E-01 0.20826395E+02</pdfrwt>
<pdfrwt beam="2">  1       21 0.97397095E-03 0.20826395E+02</pdfrwt>
<totfact> 0.10728356E+08</totfact>
</mgrwt>
</event>
<event>
 4    1  0.7165636E+004  0.3549009E+02  0.7546771E-02  0.1544291E+00
         21   -1    0    0  501  502  0.00000000000E+00  0.00000000000E+00  0.38434422530E+03  0.38434422530E+03  0.00000000000E+00 0.  1.
         21   -1    0    0  502  503 -0.00000000000E+00 -0.00000000000E+00 -0.33206454311E+01  0.33206454311E+01  0.00000000000E+00 0.  1.
          1    1    1    2  501    0  0.30616045100E+02 -0.17950051900E+02  0.21270035348E+03  0.21564087496E+03  0.00000000000E+00 0. -1.
         -1    1    1    2    0  503 -0.30616045100E+02  0.17950051900E+02  0.16832322638E+03  0.17202399577E+03  0.00000000000E+00 0.  1.
<mgrwt>
<rscale>  2 0.35490091E+02</rscale>
<asrwt>0</asrwt>
<pdfrwt beam="1">  1       21 0.59129846E-01 0.35490091E+02</pdfrwt>
<pdfrwt beam="2">  1       21 0.51086883E-03 0.35490091E+02</pdfrwt>
<totfact> 0.24230320E+07</totfact>
</mgrwt>
</event>
