<event>
 4    1  0.7616518E+004  0.2277511E+02  0.7546771E-02  0.1695182E+00
         21   -1    0    0  503  502  0.00000000000E+00  0.00000000000E+00  0.14256119560E+03  0.14256119560E+03  0.00000000000E+00 0. -1.
         21   -1    0    0  501  503 -0.00000000000E+00 -0.00000000000E+00 -0.41913337410E+01  0.41913337410E+01  0.00000000000E+00 0. -1.
          2    1    1    2  501    0 -0.96926615302E+01  0.20609661212E+02  0.42535664745E+02  0.48249234171E+02  0.00000000000E+00 0. -1.
         -2    1    1    2    0  502  0.96926615302E+01 -0.20609661212E+02  0.95834197119E+02  0.98503295175E+02  0.00000000000E+00 0.  1.
<mgrwt>
<rscale>  2 0.22775114E+02</rscale>
<asrwt>0</asrwt>
<pdfrwt beam="1">  1       21 0.21932488E-01 0.22775114E+02</pdfrwt>
<pdfrwt beam="2">  1       21 0.64482069E-03 0.22775114E+02</pdfrwt>
<totfact> 0.10061950E+08</totfact>
</mgrwt>
</event>
<event>
 4    1  0.7616518E+004  0.2494149E+02  0.7546771E-02  0.1661844E+00
         21   -1    0    0  503  502  0.00000000000E+00  0.00000000000E+00  0.11057864297E+02  0.11057864297E+02  0.00000000000E+00 0.  1.
         21   -1    0    0  501  503 -0.00000000000E+00 -0.00000000000E+00 -0.58160531780E+02  0.58160531780E+02  0.00000000000E+00 0.  1.
          5    1    1    2  501    0 -0.15658946570E+02 -0.19413273670E+02 -0.17289471329E+02  0.30348041471E+02  0.00000000000E+00 0.  1.
         -5    1    1    2    0  502  0.15658946570E+02  0.19413273670E+02 -0.29813196153E+02  0.38870354606E+02  0.00000000000E+00 0. -1.
<mgrwt>
<rscale>  2 0.24941488E+02</rscale>
<asrwt>0</asrwt>
<pdfrwt beam="1">  1       21 0.17012099E-02 0.24941488E+02</pdfrwt>
<pdfrwt beam="2">  1       21 0.89477742E-02 0.24941488E+02</pdfrwt>
<totfact> 0.10975124E+08</totfact>
</mgrwt>
</event>
<event>
 4    1  0.7616518E+004  0.2417577E+02  0.7546771E-02  0.1673131E+00
         21   -1    0    0  501  502  0.00000000000E+00  0.00000000000E+00  0.17454188522E+02  0.17454188522E+02  0.00000000000E+00 0.  1.
         21   -1    0    0  502  503 -0.00000000000E+00 -0.00000000000E+00 -0.33515877227E+02  0.33515877227E+02  0.00000000000E+00 0.  1.
          3    1    1    2  501    0  0.17508990644E+02 -0.16670427413E+02 -0.72677156766E+01  0.25244555743E+02  0.00000000000E+00 0. -1.
         -3    1    1    2    0  503 -0.17508990644E+02  0.16670427413E+02 -0.87939730283E+01  0.25725510007E+02  0.00000000000E+00 0.  1.
<mgrwt>
<rscale>  2 0.24175771E+02</rscale>
<asrwt>0</asrwt>
<pdfrwt beam="1">  1       21 0.26852598E-02 0.24175771E+02</pdfrwt>
<pdfrwt beam="2">  1       21 0.51562888E-02 0.24175771E+02</pdfrwt>
<totfact> 0.13158175E+08</totfact>
</mgrwt>
</event>
<event>
 4    1  0.7616518E+004  0.2254876E+02  0.7546771E-02  0.1698931E+00
         21   -1    0    0  503  502  0.00000000000E+00  0.00000000000E+00  0.30531044577E+01  0.30531044577E+01  0.00000000000E+00 0.  1.
         21   -1    0    0  501  503 -0.00000000000E+00 -0.00000000000E+00 -0.21590363441E+03  0.21590363441E+03  0.00000000000E+00 0.  1.
          5    1    1    2  501    0  0.19753099920E+02 -0.10874810944E+02 -0.15877653087E+03  0.16036967676E+03  0.00000000000E+00 0.  1.
         -5    1    1    2    0  502 -0.19753099920E+02  0.10874810944E+02 -0.54073999087E+02  0.58587062111E+02  0.00000000000E+00 0. -1.
<mgrwt>
<rscale>  2 0.22548758E+02</rscale>
<asrwt>0</asrwt>
<pdfrwt beam="1">  1       21 0.46970863E-03 0.22548758E+02</pdfrwt>
<pdfrwt beam="2">  1       21 0.33215926E-01 0.22548758E+02</pdfrwt>
<totfact> 0.76012418E+07</totfact>
</mgrwt>
</event>
<event>
 4    1  0.7616518E+004  0.2373414E+02  0.7546771E-02  0.1679879E+00
         21   -1    0    0  501  502  0.00000000000E+00  0.00000000000E+00  0.22055521016E+01  0.22055521016E+01  0.00000000000E+00 0.  1.
         21   -1    0    0  502  503 -0.00000000000E+00 -0.00000000000E+00 -0.26196916070E+03  0.26196916070E+03  0.00000000000E+00 0.  1.
          5    1    1    2  501    0 -0.23565769607E+02 -0.28220442266E+01 -0.10897345135E+03  0.11152812439E+03  0.00000000000E+00 0.  1.
         -5    1    1    2    0  503  0.23565769607E+02  0.28220442266E+01 -0.15079015724E+03  0.15264658840E+03  0.00000000000E+00 0. -1.
<mgrwt>
<rscale>  2 0.23734141E+02</rscale>
<asrwt>0</asrwt>
<pdfrwt beam="1">  1       21 0.33931598E-03 0.23734141E+02</pdfrwt>
<pdfrwt beam="2">  1       21 0.40302916E-01 0.23734141E+02</pdfrwt>
<totfact> 0.86564263E+07</totfact>
</mgrwt>
</event>
<event>
 4    1  0.7616518E+004  0.2374763E+02  0.7546771E-02  0.1679670E+00
         21   -1    0    0  503  502  0.00000000000E+00  0.00000000000E+00  0.60911902038E+03  0.60911902038E+03  0.00000000000E+00 0.  1.
         21   -1    0    0  501  503 -0.00000000000E+00 -0.00000000000E+00 -0.10525388705E+01  0.10525388705E+01  0.00000000000E+00 0.  1.
          3    1    1    2  501    0 -0.23528628653E+02 -0.32177110298E+01  0.19818587719E+03  0.19960358701E+03  0.00000000000E+00 0. -1.
         -3    1    1    2    0  502  0.23528628653E+02  0.32177110298E+01  0.40988060432E+03  0.41056797224E+03  0.00000000000E+00 0.  1.
<mgrwt>
<rscale>  2 0.23747632E+02</rscale>
<asrwt>0</asrwt>
<pdfrwt beam="1">  1       21 0.93710337E-01 0.23747632E+02</pdfrwt>
<pdfrwt beam="2">  1       21 0.16192954E-03 0.23747632E+02</pdfrwt>
<totfact> 0.46257310E+07</totfact>
</mgrwt>
</event>
<event>
 4    1  0.7616518E+004  0.2819223E+02  0.7546771E-02  0.1618976E+00
         21   -1    0    0  501  502  0.00000000000E+00  0.00000000000E+00  0.25426082814E+02  0.25426082814E+02  0.00000000000E+00 0. -1.
         21   -1    0    0  502  503 -0.00000000000E+00 -0.00000000000E+00 -0.34061599475E+02  0.34061599475E+02  0.00000000000E+00 0. -1.
          4    1    1    2  501    0  0.27987266472E+02  0.33933170499E+01  0.42136631136E+01  0.28505379177E+02  0.00000000000E+00 0. -1.
         -4    1    1    2    0  503 -0.27987266472E+02 -0.33933170499E+01 -0.12849179774E+02  0.30982303111E+02  0.00000000000E+00 0.  1.
<mgrwt>
<rscale>  2 0.28192227E+02</rscale>
<asrwt>0</asrwt>
<pdfrwt beam="1">  1       21 0.39117051E-02 0.28192227E+02</pdfrwt>
<pdfrwt beam="2">  1       21 0.52402461E-02 0.28192227E+02</pdfrwt>
<totfact> 0.73990080E+07</totfact>
</mgrwt>
</event>
<event>
 4    1  0.7616518E+004  0.2200122E+02  0.7546771E-02  0.1708231E+00
         21   -1    0    0  501  502  0.00000000000E+00  0.00000000000E+00  0.38658193773E+03  0.38658193773E+03  0.00000000000E+00 0.  1.
         21   -1    0    0  502  503 -0.00000000000E+00 -0.00000000000E+00 -0.16993020318E+01  0.16993020318E+01  0.00000000000E+00 0.  1.
          2    1    1    2  501    0 -0.15773411832E+02  0.15337959608E+02  0.92851470084E+02  0.95422476505E+02  0.00000000000E+00 0.  1.
         -2    1    1    2    0  503  0.15773411832E+02 -0.15337959608E+02  0.29203116561E+03  0.29285876326E+03  0.00000000000E+00 0. -1.
<mgrwt>
<rscale>  2 0.22001216E+02</rscale>
<asrwt>0</asrwt>
<pdfrwt beam="1">  1       21 0.59474074E-01 0.22001216E+02</pdfrwt>
<pdfrwt beam="2">  1       21 0.26143139E-03 0.22001216E+02</pdfrwt>
<totfact> 0.58416337E+07</totfact>
</mgrwt>
</event>
<event>
 4    1  0.7616518E+004  0.2343421E+02  0.7546771E-02  0.1684567E+00
         21   -1    0    0  503  502  0.00000000000E+00  0.00000000000E+00  0.74145544630E+02  0.74145544630E+02  0.00000000000E+00 0.  1.
         21   -1    0    0  501  503 -0.00000000000E+00 -0.00000000000E+00 -0.83679646395E+01  0.83679646395E+01  0.00000000000E+00 0.  1.
          2    1    1    2  501    0  0.21875791485E+02  0.84030965603E+01  0.46873121934E+02  0.52404692964E+02  0.00000000000E+00 0. -1.
         -2    1    1    2    0  502 -0.21875791485E+02 -0.84030965603E+01  0.18904458057E+02  0.30108816305E+02  0.00000000000E+00 0.  1.
<mgrwt>
<rscale>  2 0.23434212E+02</rscale>
<asrwt>0</asrwt>
<pdfrwt beam="1">  1       21 0.11407006E-01 0.23434212E+02</pdfrwt>
<pdfrwt beam="2">  1       21 0.12873792E-02 0.23434212E+02</pdfrwt>
<totfact> 0.11019723E+08</totfact>
</mgrwt>
</event>
<event>
 4    1  0.7616518E+004  0.2121570E+02  0.7546771E-02  0.1722180E+00
         21   -1    0    0  501  502  0.00000000000E+00  0.00000000000E+00  0.15427108014E+01  0.15427108014E+01  0.00000000000E+00 0.  1.
         21   -1    0    0  502  503 -0.00000000000E+00 -0.00000000000E+00 -0.30024196693E+03  0.30024196693E+03  0.00000000000E+00 0.  1.
          4    1    1    2  501    0  0.15734164867E+02  0.14231719795E+02 -0.17470706027E+03  0.17599051878E+03  0.00000000000E+00 0. -1.
         -4    1    1    2    0  503 -0.15734164867E+02 -0.14231719795E+02 -0.12399219587E+03  0.12579415896E+03  0.00000000000E+00 0.  1.
<mgrwt>
<rscale>  2 0.21215697E+02</rscale>
<asrwt>0</asrwt>
<pdfrwt beam="1">  1       21 0.23733995E-03 0.21215697E+02</pdfrwt>
<pdfrwt beam="2">  1       21 0.46191106E-01 0.21215697E+02</pdfrwt>
<totfact> 0.10904054E+08</totfact>
</mgrwt>
</event>
<event>
 4    1  0.7616518E+004  0.3611358E+02  0.7546771E-02  0.1538928E+00
         21   -1    0    0  503  502  0.00000000000E+00  0.00000000000E+00  0.38583467779E+02  0.38583467779E+02  0.00000000000E+00 0. -1.
         21   -1    0    0  501  503 -0.00000000000E+00 -0.00000000000E+00 -0.34405607717E+02  0.34405607717E+02  0.00000000000E+00 0. -1.
          3    1    1    2  501    0  0.35048512757E+02 -0.87058806766E+01  0.69235585031E+01  0.36771269589E+02  0.00000000000E+00 0.  1.
         -3    1    1    2    0  502 -0.35048512757E+02  0.87058806766E+01 -0.27456984410E+01  0.36217805908E+02  0.00000000000E+00 0. -1.
<mgrwt>
<rscale>  2 0.36113579E+02</rscale>
<asrwt>0</asrwt>
<pdfrwt beam="1">  1       21 0.59359182E-02 0.36113579E+02</pdfrwt>
<pdfrwt beam="2">  1       21 0.52931704E-02 0.36113579E+02</pdfrwt>
<totfact> 0.39289816E+07</totfact>
</mgrwt>
</event>
<event>
 4    1  0.7616518E+004  0.2205474E+02  0.7546771E-02  0.1707307E+00
         21   -1    0    0  503  502  0.00000000000E+00  0.00000000000E+00  0.73668103774E+02  0.73668103774E+02  0.00000000000E+00 0.  1.
         21   -1    0    0  501  503 -0.00000000000E+00 -0.00000000000E+00 -0.66055855895E+01  0.66055855895E+01  0.00000000000E+00 0.  1.
          5    1    1    2  501    0  0.11477165114E+02  0.18833116266E+02  0.32698704580E+02  0.39441309164E+02  0.00000000000E+00 0.  1.
         -5    1    1    2    0  502 -0.11477165114E+02 -0.18833116266E+02  0.34363813604E+02  0.40832380199E+02  0.00000000000E+00 0. -1.
<mgrwt>
<rscale>  2 0.22054741E+02</rscale>
<asrwt>0</asrwt>
<pdfrwt beam="1">  1       21 0.11333554E-01 0.22054741E+02</pdfrwt>
<pdfrwt beam="2">  1       21 0.10162440E-02 0.22054741E+02</pdfrwt>
<totfact> 0.15627459E+08</totfact>
</mgrwt>
</event>
<event>
 4    1  0.7616518E+004  0.2276386E+02  0.7546771E-02  0.1695367E+00
         21   -1    0    0  501  502  0.00000000000E+00  0.00000000000E+00  0.32807797777E+01  0.32807797777E+01  0.00000000000E+00 0.  1.
         21   -1    0    0  502  503 -0.00000000000E+00 -0.00000000000E+00 -0.16052998203E+03  0.16052998203E+03  0.00000000000E+00 0.  1.
          3    1    1    2  501    0  0.22365559371E+02 -0.42397094049E+01 -0.89011622655E+02  0.91876342708E+02  0.00000000000E+00 0. -1.
         -3    1    1    2    0  503 -0.22365559371E+02  0.42397094049E+01 -0.68237579598E+02  0.71934419100E+02  0.00000000000E+00 0.  1.
<mgrwt>
<rscale>  2 0.22763861E+02</rscale>
<asrwt>0</asrwt>
<pdfrwt beam="1">  1       21 0.50473543E-03 0.22763861E+02</pdfrwt>
<pdfrwt beam="2">  1       21 0.24696916E-01 0.22763861E+02</pdfrwt>
<totfact> 0.11715321E+08</totfact>
</mgrwt>
</event>
<event>
 4    1  0.7616518E+004  0.2434127E+02  0.7546771E-02  0.1670648E+00
         21   -1    0    0  501  502  0.00000000000E+00  0.00000000000E+00  0.35421734775E+02  0.35421734775E+02  0.00000000000E+00 0. -1.
         21   -1    0    0  502  503 -0.00000000000E+00 -0.00000000000E+00 -0.16992002772E+02  0.16992002772E+02  0.00000000000E+00 0. -1.
          2    1    1    2  501    0 -0.23613982468E+02 -0.59057125400E+01  0.59417717415E+01  0.25055982520E+02  0.00000000000E+00 0.  1.
         -2    1    1    2    0  503  0.23613982468E+02  0.59057125400E+01  0.12487960262E+02  0.27357755027E+02  0.00000000000E+00 0. -1.
<mgrwt>
<rscale>  2 0.24341274E+02</rscale>
<asrwt>0</asrwt>
<pdfrwt beam="1">  1       21 0.54494977E-02 0.24341274E+02</pdfrwt>
<pdfrwt beam="2">  1       21 0.26141543E-02 0.24341274E+02</pdfrwt>
<totfact> 0.12581844E+08</totfact>
</mgrwt>
</event>
<event>
 4    1  0.7616518E+004  0.2416313E+02  0.7546771E-02  0.1673321E+00
         21   -1    0    0  503  502  0.00000000000E+00  0.00000000000E+00  0.20492740924E+03  0.20492740924E+03  0.00000000000E+00 0. -1.
         21   -1    0    0  501  503 -0.00000000000E+00 -0.00000000000E+00 -0.30079314104E+01  0.30079314104E+01  0.00000000000E+00 0. -1.
          4    1    1    2  501    0 -0.14617814940E+02 -0.19239964769E+02  0.12485134677E+03  0.12716806025E+03  0.00000000000E+00 0. -1.
         -4    1    1    2    0  502  0.14617814940E+02  0.19239964769E+02  0.77068131061E+02  0.80767280399E+02  0.00000000000E+00 0.  1.
<mgrwt>
<rscale>  2 0.24163128E+02</rscale>
<asrwt>0</asrwt>
<pdfrwt beam="1">  1       21 0.31527283E-01 0.24163128E+02</pdfrwt>
<pdfrwt beam="2">  1       21 0.46275884E-03 0.24163128E+02</pdfrwt>
<totfact> 0.87062687E+07</totfact>
</mgrwt>
</event>
<event>
 4    1  0.7616518E+004  0.1616791E+03  0.7546771E-02  0.1186814E+00
         21   -1    0    0  503  502  0.00000000000E+00  0.00000000000E+00  0.28690891605E+02  0.28690891605E+02  0.00000000000E+00 0.  1.
         21   -1    0    0  501  503 -0.00000000000E+00 -0.00000000000E+00 -0.91328131498E+03  0.91328131498E+03  0.00000000000E+00 0.  1.
          4    1    1    2  501    0 -0.54150484323E+02 -0.15234121058E+03 -0.46534100006E+03  0.49262801964E+03  0.00000000000E+00 0. -1.
         -4    1    1    2    0  502  0.54150484323E+02  0.15234121058E+03 -0.41924942332E+03  0.44934418695E+03  0.00000000000E+00 0.  1.
<mgrwt>
<rscale>  2 0.16167906E+03</rscale>
<asrwt>0</asrwt>
<pdfrwt beam="1">  1       21 0.44139830E-02 0.16167906E+03</pdfrwt>
<pdfrwt beam="2">  1       21 0.14050483E+00 0.16167906E+03</pdfrwt>
<totfact> 0.11940422E+05</totfact>
</mgrwt>
</event>
<event>
 4    1  0.7616518E+004  0.2580361E+02  0.7546771E-02  0.1649721E+00
         21   -1    0    0  503  502  0.00000000000E+00  0.00000000000E+00  0.74758469186E+03  0.74758469186E+03  0.00000000000E+00 0.  1.
         21   -1    0    0  501  503 -0.00000000000E+00 -0.00000000000E+00 -0.99963515996E+00  0.99963515996E+00  0.00000000000E+00 0.  1.
          3    1    1    2  501    0 -0.10597116459E+02 -0.23527165034E+02  0.24969774793E+03  0.25102747199E+03  0.00000000000E+00 0.  1.
         -3    1    1    2    0  502  0.10597116459E+02  0.23527165034E+02  0.49688730878E+03  0.49755685504E+03  0.00000000000E+00 0. -1.
<mgrwt>
<rscale>  2 0.25803612E+02</rscale>
<asrwt>0</asrwt>
<pdfrwt beam="1">  1       21 0.11501258E+00 0.25803612E+02</pdfrwt>
<pdfrwt beam="2">  1       21 0.15379062E-03 0.25803612E+02</pdfrwt>
<totfact> 0.32204990E+07</totfact>
</mgrwt>
</event>
<event>
 4    1  0.7616518E+004  0.2309284E+02  0.7546771E-02  0.1690010E+00
         21   -1    0    0  503  502  0.00000000000E+00  0.00000000000E+00  0.11439017897E+03  0.11439017897E+03  0.00000000000E+00 0. -1.
         21   -1    0    0  501  503 -0.00000000000E+00 -0.00000000000E+00 -0.49285072519E+01  0.49285072519E+01  0.00000000000E+00 0. -1.
          5    1    1    2  501    0 -0.19356406877E+02 -0.12593998075E+02  0.40855918521E+02  0.46930644071E+02  0.00000000000E+00 0. -1.
         -5    1    1    2    0  502  0.19356406877E+02  0.12593998075E+02  0.68605753194E+02  0.72388042148E+02  0.00000000000E+00 0.  1.
<mgrwt>
<rscale>  2 0.23092840E+02</rscale>
<asrwt>0</asrwt>
<pdfrwt beam="1">  1       21 0.17598487E-01 0.23092840E+02</pdfrwt>
<pdfrwt beam="2">  1       21 0.75823197E-03 0.23092840E+02</pdfrwt>
<totfact> 0.11648223E+08</totfact>
</mgrwt>
</event>
<event>
 4    1  0.7616518E+004  0.2116459E+02  0.7546771E-02  0.1723114E+00
         21   -1    0    0  501  502  0.00000000000E+00  0.00000000000E+00  0.35916345457E+03  0.35916345457E+03  0.00000000000E+00 0. -1.
         21   -1    0    0  502  503 -0.00000000000E+00 -0.00000000000E+00 -0.15493712449E+01  0.15493712449E+01  0.00000000000E+00 0. -1.
          3    1    1    2  501    0  0.14952381860E+02 -0.14978851996E+02  0.99154749672E+02  0.10138838253E+03  0.00000000000E+00 0. -1.
         -3    1    1    2    0  503 -0.14952381860E+02  0.14978851996E+02  0.25845933365E+03  0.25932444328E+03  0.00000000000E+00 0.  1.
<mgrwt>
<rscale>  2 0.21164587E+02</rscale>
<asrwt>0</asrwt>
<pdfrwt beam="1">  1       21 0.55255850E-01 0.21164587E+02</pdfrwt>
<pdfrwt beam="2">  1       21 0.23836509E-03 0.21164587E+02</pdfrwt>
<totfact> 0.76498381E+07</totfact>
</mgrwt>
</event>
<event>
 4    1  0.7616518E+004  0.2081548E+02  0.7546771E-02  0.1729581E+00
         21   -1    0    0  501  502  0.00000000000E+00  0.00000000000E+00  0.11308724230E+01  0.11308724230E+01  0.00000000000E+00 0.  1.
         21   -1    0    0  502  503 -0.00000000000E+00 -0.00000000000E+00 -0.39629681697E+03  0.39629681697E+03  0.00000000000E+00 0.  1.
          4    1    1    2  501    0 -0.82160364896E+01 -0.19125401150E+02 -0.16137806033E+03  0.16271497344E+03  0.00000000000E+00 0.  1.
         -4    1    1    2    0  503  0.82160364896E+01  0.19125401150E+02 -0.23378788421E+03  0.23471271595E+03  0.00000000000E+00 0. -1.
<mgrwt>
<rscale>  2 0.20815480E+02</rscale>
<asrwt>0</asrwt>
<pdfrwt beam="1">  1       21 0.17398060E-03 0.20815480E+02</pdfrwt>
<pdfrwt beam="2">  1       21 0.60968662E-01 0.20815480E+02</pdfrwt>
<totfact> 0.98639760E+07</totfact>
</mgrwt>
</event>
<event>
 4    1  0.7616518E+004  0.2108820E+02  0.7546771E-02  0.1724515E+00
         21   -1    0    0  503  502  0.00000000000E+00  0.00000000000E+00  0.22512215131E+02  0.22512215131E+02  0.00000000000E+00 0. -1.
         21   -1    0    0  501  503 -0.00000000000E+00 -0.00000000000E+00 -0.21215645326E+02  0.21215645326E+02  0.00000000000E+00 0. -1.
          4    1    1    2  501    0 -0.21054689377E+02 -0.11883295986E+01  0.63865816219E+01  0.22034075811E+02  0.00000000000E+00 0.  1.
         -4    1    1    2    0  502  0.21054689377E+02  0.11883295986E+01 -0.50900118170E+01  0.21693784647E+02  0.00000000000E+00 0. -1.
<mgrwt>
<rscale>  2 0.21088197E+02</rscale>
<asrwt>0</asrwt>
<pdfrwt beam="1">  1       21 0.34634177E-02 0.21088197E+02</pdfrwt>
<pdfrwt beam="2">  1       21 0.32639454E-02 0.21088197E+02</pdfrwt>
<totfact> 0.17460405E+08</totfact>
</mgrwt>
</event>
<event>
 4    1  0.7616518E+004  0.2641570E+02  0.7546771E-02  0.1641463E+00
         21   -1    0    0  503  502  0.00000000000E+00  0.00000000000E+00  0.33032350866E+03  0.33032350866E+03  0.00000000000E+00 0. -1.
         21   -1    0    0  501  503 -0.00000000000E+00 -0.00000000000E+00 -0.25216840884E+01  0.25216840884E+01  0.00000000000E+00 0. -1.
          1    1    1    2  501    0 -0.24359045607E+02  0.10218897457E+02  0.23094454811E+03  0.23245036733E+03  0.00000000000E+00 0.  1.
         -1    1    1    2    0  502  0.24359045607E+02 -0.10218897457E+02  0.96857276463E+02  0.10039482542E+03  0.00000000000E+00 0. -1.
<mgrwt>
<rscale>  2 0.26415695E+02</rscale>
<asrwt>0</asrwt>
<pdfrwt beam="1">  1       21 0.50818967E-01 0.26415695E+02</pdfrwt>
<pdfrwt beam="2">  1       21 0.38795166E-03 0.26415695E+02</pdfrwt>
<totfact> 0.46672393E+07</totfact>
</mgrwt>
</event>
<event>
 4    1  0.7616518E+004  0.3052479E+02  0.7546771E-02  0.1592359E+00
         21   -1    0    0  503  502  0.00000000000E+00  0.00000000000E+00  0.20198432222E+03  0.20198432222E+03  0.00000000000E+00 0. -1.
         21   -1    0    0  501  503 -0.00000000000E+00 -0.00000000000E+00 -0.13497833945E+02  0.13497833945E+02  0.00000000000E+00 0. -1.
          1    1    1    2  501    0  0.30205073527E+02  0.44063752283E+01  0.18165560569E+03  0.18420239327E+03  0.00000000000E+00 0.  1.
         -1    1    1    2    0  502 -0.30205073527E+02 -0.44063752283E+01  0.68308825828E+01  0.31279762888E+02  0.00000000000E+00 0. -1.
<mgrwt>
<rscale>  2 0.30524787E+02</rscale>
<asrwt>0</asrwt>
<pdfrwt beam="1">  1       21 0.31074509E-01 0.30524787E+02</pdfrwt>
<pdfrwt beam="2">  1       21 0.20765900E-02 0.30524787E+02</pdfrwt>
<totfact> 0.97044248E+06</totfact>
</mgrwt>
</event>
<event>
 4    1  0.7616518E+004  0.3208481E+02  0.7546771E-02  0.1576125E+00
         21   -1    0    0  503  502  0.00000000000E+00  0.00000000000E+00  0.88685547424E+02  0.88685547424E+02  0.00000000000E+00 0.  1.
         21   -1    0    0  501  503 -0.00000000000E+00 -0.00000000000E+00 -0.11651135305E+02  0.11651135305E+02  0.00000000000E+00 0.  1.
          3    1    1    2  501    0 -0.28894090265E+02  0.13948718365E+02  0.35454051614E+02  0.47816576332E+02  0.00000000000E+00 0.  1.
         -3    1    1    2    0  502  0.28894090265E+02 -0.13948718365E+02  0.41580360504E+02  0.52520106397E+02  0.00000000000E+00 0. -1.
<mgrwt>
<rscale>  2 0.32084813E+02</rscale>
<asrwt>0</asrwt>
<pdfrwt beam="1">  1       21 0.13643930E-01 0.32084813E+02</pdfrwt>
<pdfrwt beam="2">  1       21 0.17924824E-02 0.32084813E+02</pdfrwt>
<totfact> 0.52994489E+07</totfact>
</mgrwt>
</event>
<event>
 4    1  0.7616518E+004  0.1227000E+03  0.7546771E-02  0.1238708E+00
         21   -1    0    0  503  502  0.00000000000E+00  0.00000000000E+00  0.40363893070E+02  0.40363893070E+02  0.00000000000E+00 0. -1.
         21   -1    0    0  501  503 -0.00000000000E+00 -0.00000000000E+00 -0.41063121107E+03  0.41063121107E+03  0.00000000000E+00 0. -1.
          1    1    1    2  501    0 -0.26883800167E+01  0.12267052513E+03 -0.25340742256E+03  0.28155036304E+03  0.00000000000E+00 0.  1.
         -1    1    1    2    0  502  0.26883800167E+01 -0.12267052513E+03 -0.11685989544E+03  0.16944474109E+03  0.00000000000E+00 0. -1.
<mgrwt>
<rscale>  2 0.12269998E+03</rscale>
<asrwt>0</asrwt>
<pdfrwt beam="1">  1       21 0.62098297E-02 0.12269998E+03</pdfrwt>
<pdfrwt beam="2">  1       21 0.63174032E-01 0.12269998E+03</pdfrwt>
<totfact> 0.43600779E+05</totfact>
</mgrwt>
</event>
<event>
 4    1  0.7616518E+004  0.2915371E+02  0.7546771E-02  0.1607636E+00
         21   -1    0    0  503  502  0.00000000000E+00  0.00000000000E+00  0.41847352065E+03  0.41847352065E+03  0.00000000000E+00 0. -1.
         21   -1    0    0  501  503 -0.00000000000E+00 -0.00000000000E+00 -0.20339898251E+01  0.20339898251E+01  0.00000000000E+00 0. -1.
          2    1    1    2  501    0 -0.27350692302E+02  0.10093483048E+02  0.21621922726E+03  0.21817583048E+03  0.00000000000E+00 0. -1.
         -2    1    1    2    0  502  0.27350692302E+02 -0.10093483048E+02  0.20022030357E+03  0.20233168000E+03  0.00000000000E+00 0.  1.
<mgrwt>
<rscale>  2 0.29153709E+02</rscale>
<asrwt>0</asrwt>
<pdfrwt beam="1">  1       21 0.64380473E-01 0.29153709E+02</pdfrwt>
<pdfrwt beam="2">  1       21 0.31292185E-03 0.29153709E+02</pdfrwt>
<totfact> 0.40708599E+07</totfact>
</mgrwt>
</event>
<event>
 4    1  0.7616518E+004  0.2271967E+02  0.7546771E-02  0.1696095E+00
         21   -1    0    0  503  502  0.00000000000E+00  0.00000000000E+00  0.18338349308E+02  0.18338349308E+02  0.00000000000E+00 0.  1.
         21   -1    0    0  501  503 -0.00000000000E+00 -0.00000000000E+00 -0.29110745522E+02  0.29110745522E+02  0.00000000000E+00 0.  1.
          1    1    1    2  501    0 -0.21921435991E+02 -0.59694294273E+01 -0.97012030030E+01  0.24704185542E+02  0.00000000000E+00 0.  1.
         -1    1    1    2    0  502  0.21921435991E+02  0.59694294273E+01 -0.10711932101E+01  0.22744909288E+02  0.00000000000E+00 0. -1.
<mgrwt>
<rscale>  2 0.22719671E+02</rscale>
<asrwt>0</asrwt>
<pdfrwt beam="1">  1       21 0.28212845E-02 0.22719671E+02</pdfrwt>
<pdfrwt beam="2">  1       21 0.44785762E-02 0.22719671E+02</pdfrwt>
<totfact> 0.14964756E+08</totfact>
</mgrwt>
</event>
<event>
 4    1  0.7616518E+004  0.2196167E+02  0.7546771E-02  0.1708916E+00
         21   -1    0    0  503  502  0.00000000000E+00  0.00000000000E+00  0.98128129309E+01  0.98128129309E+01  0.00000000000E+00 0. -1.
         21   -1    0    0  501  503 -0.00000000000E+00 -0.00000000000E+00 -0.50768790579E+02  0.50768790579E+02  0.00000000000E+00 0. -1.
          3    1    1    2  501    0 -0.13098716311E+02 -0.17627777903E+02 -0.25884290274E+02  0.33945712627E+02  0.00000000000E+00 0. -1.
         -3    1    1    2    0  502  0.13098716311E+02  0.17627777903E+02 -0.15071687374E+02  0.26635890882E+02  0.00000000000E+00 0.  1.
<mgrwt>
<rscale>  2 0.21961669E+02</rscale>
<asrwt>0</asrwt>
<pdfrwt beam="1">  1       21 0.15096636E-02 0.21961669E+02</pdfrwt>
<pdfrwt beam="2">  1       21 0.78105830E-02 0.21961669E+02</pdfrwt>
<totfact> 0.15846845E+08</totfact>
</mgrwt>
</event>
<event>
 4    1  0.7616518E+004  0.2152627E+02  0.7546771E-02  0.1716576E+00
         21   -1    0    0  501  502  0.00000000000E+00  0.00000000000E+00  0.24762713310E+02  0.24762713310E+02  0.00000000000E+00 0.  1.
         21   -1    0    0  502  503 -0.00000000000E+00 -0.00000000000E+00 -0.19688162038E+02  0.19688162038E+02  0.00000000000E+00 0.  1.
          4    1    1    2  501    0  0.20772438241E+02 -0.56467653342E+01  0.74841016365E+01  0.22790171709E+02  0.00000000000E+00 0. -1.
         -4    1    1    2    0  503 -0.20772438241E+02  0.56467653342E+01 -0.24095503641E+01  0.21660703640E+02  0.00000000000E+00 0.  1.
<mgrwt>
<rscale>  2 0.21526266E+02</rscale>
<asrwt>0</asrwt>
<pdfrwt beam="1">  1       21 0.38096482E-02 0.21526266E+02</pdfrwt>
<pdfrwt beam="2">  1       21 0.30289480E-02 0.21526266E+02</pdfrwt>
<totfact> 0.17005994E+08</totfact>
</mgrwt>
</event>
<event>
 4    1  0.7616518E+004  0.2620422E+02  0.7546771E-02  0.1644284E+00
         21   -1    0    0  503  502  0.00000000000E+00  0.00000000000E+00  0.60362863052E+00  0.60362863052E+00  0.00000000000E+00 0.  1.
         21   -1    0    0  501  503 -0.00000000000E+00 -0.00000000000E+00 -0.11409729179E+04  0.11409729179E+04  0.00000000000E+00 0.  1.
          3    1    1    2  501    0  0.81490049611E+00  0.26191548141E+02 -0.53894783988E+03  0.53958450253E+03  0.00000000000E+00 0.  1.
         -3    1    1    2    0  502 -0.81490049611E+00 -0.26191548141E+02 -0.60142144939E+03  0.60199204400E+03  0.00000000000E+00 0. -1.
<mgrwt>
<rscale>  2 0.26204222E+02</rscale>
<asrwt>0</asrwt>
<pdfrwt beam="1">  1       21 0.92865351E-04 0.26204222E+02</pdfrwt>
<pdfrwt beam="2">  1       21 0.17553542E+00 0.26204222E+02</pdfrwt>
<totfact> 0.24488729E+07</totfact>
</mgrwt>
</event>
<event>
 4    1  0.7616518E+004  0.2132584E+02  0.7546771E-02  0.1720179E+00
         21   -1    0    0  501  502  0.00000000000E+00  0.00000000000E+00  0.34193622309E+03  0.34193622309E+03  0.00000000000E+00 0.  1.
         21   -1    0    0  502  503 -0.00000000000E+00 -0.00000000000E+00 -0.13626638054E+01  0.13626638054E+01  0.00000000000E+00 0.  1.
          1    1    1    2  501    0  0.21255391817E+02  0.17320302663E+01  0.14373083873E+03  0.14530432069E+03  0.00000000000E+00 0.  1.
         -1    1    1    2    0  503 -0.21255391817E+02 -0.17320302663E+01  0.19684272056E+03  0.19799456621E+03  0.00000000000E+00 0. -1.
<mgrwt>
<rscale>  2 0.21325844E+02</rscale>
<asrwt>0</asrwt>
<pdfrwt beam="1">  1       21 0.52605504E-01 0.21325844E+02</pdfrwt>
<pdfrwt beam="2">  1       21 0.20964086E-03 0.21325844E+02</pdfrwt>
<totfact> 0.10158468E+08</totfact>
</mgrwt>
</event>
<event>
 4    1  0.7616518E+004  0.2761923E+02  0.7546771E-02  0.1626001E+00
         21   -1    0    0  503  502  0.00000000000E+00  0.00000000000E+00  0.68165678362E+01  0.68165678362E+01  0.00000000000E+00 0. -1.
         21   -1    0    0  501  503 -0.00000000000E+00 -0.00000000000E+00 -0.17058765453E+03  0.17058765453E+03  0.00000000000E+00 0. -1.
          2    1    1    2  501    0 -0.26340959145E+02 -0.83051510781E+01 -0.13391000906E+03  0.13672860780E+03  0.00000000000E+00 0.  1.
         -2    1    1    2    0  502  0.26340959145E+02  0.83051510781E+01 -0.29861077625E+02  0.40675614562E+02  0.00000000000E+00 0. -1.
<mgrwt>
<rscale>  2 0.27619226E+02</rscale>
<asrwt>0</asrwt>
<pdfrwt beam="1">  1       21 0.10487028E-02 0.27619226E+02</pdfrwt>
<pdfrwt beam="2">  1       21 0.26244252E-01 0.27619226E+02</pdfrwt>
<totfact> 0.36946888E+07</totfact>
</mgrwt>
</event>
<event>
 4    1  0.7616518E+004  0.3402922E+02  0.7546771E-02  0.1557394E+00
         21   -1    0    0  501  502  0.00000000000E+00  0.00000000000E+00  0.48592816647E+01  0.48592816647E+01  0.00000000000E+00 0. -1.
         21   -1    0    0  502  503 -0.00000000000E+00 -0.00000000000E+00 -0.24150338925E+03  0.24150338925E+03  0.00000000000E+00 0. -1.
          3    1    1    2  501    0 -0.29214711427E+02 -0.17449592359E+02 -0.10414462202E+03  0.10956317782E+03  0.00000000000E+00 0.  1.
         -3    1    1    2    0  503  0.29214711427E+02  0.17449592359E+02 -0.13249948557E+03  0.13679949310E+03  0.00000000000E+00 0. -1.
<mgrwt>
<rscale>  2 0.34029217E+02</rscale>
<asrwt>0</asrwt>
<pdfrwt beam="1">  1       21 0.74758192E-03 0.34029217E+02</pdfrwt>
<pdfrwt beam="2">  1       21 0.37154361E-01 0.34029217E+02</pdfrwt>
<totfact> 0.33749307E+07</totfact>
</mgrwt>
</event>
<event>
 4    1  0.7616518E+004  0.2498727E+02  0.7546771E-02  0.1661185E+00
         21   -1    0    0  503  502  0.00000000000E+00  0.00000000000E+00  0.38239568857E+02  0.38239568857E+02  0.00000000000E+00 0. -1.
         21   -1    0    0  501  503 -0.00000000000E+00 -0.00000000000E+00 -0.22129736057E+02  0.22129736057E+02  0.00000000000E+00 0. -1.
          2    1    1    2  501    0 -0.24766246884E+02 -0.33161456241E+01  0.23510615989E+02  0.34309078546E+02  0.00000000000E+00 0. -1.
         -2    1    1    2    0  502  0.24766246884E+02  0.33161456241E+01 -0.74007831898E+01  0.26060226368E+02  0.00000000000E+00 0.  1.
<mgrwt>
<rscale>  2 0.24987273E+02</rscale>
<asrwt>0</asrwt>
<pdfrwt beam="1">  1       21 0.58830106E-02 0.24987273E+02</pdfrwt>
<pdfrwt beam="2">  1       21 0.34045748E-02 0.24987273E+02</pdfrwt>
<totfact> 0.74180605E+07</totfact>
</mgrwt>
</event>
<event>
 4    1  0.7616518E+004  0.2839098E+02  0.7546771E-02  0.1616587E+00
         21   -1    0    0  501  502  0.00000000000E+00  0.00000000000E+00  0.29090549132E+02  0.29090549132E+02  0.00000000000E+00 0.  1.
         21   -1    0    0  502  503 -0.00000000000E+00 -0.00000000000E+00 -0.29316984782E+02  0.29316984782E+02  0.00000000000E+00 0.  1.
          5    1    1    2  501    0  0.93465868192E+00 -0.28375594230E+02  0.67278314221E+01  0.29177245422E+02  0.00000000000E+00 0.  1.
         -5    1    1    2    0  503 -0.93465868192E+00  0.28375594230E+02 -0.69542670726E+01  0.29230288492E+02  0.00000000000E+00 0. -1.
<mgrwt>
<rscale>  2 0.28390983E+02</rscale>
<asrwt>0</asrwt>
<pdfrwt beam="1">  1       21 0.44754691E-02 0.28390983E+02</pdfrwt>
<pdfrwt beam="2">  1       21 0.45103054E-02 0.28390983E+02</pdfrwt>
<totfact> 0.76082310E+07</totfact>
</mgrwt>
</event>
<event>
 4    1  0.7616518E+004  0.2521460E+02  0.7546771E-02  0.1657939E+00
         21   -1    0    0  501  502  0.00000000000E+00  0.00000000000E+00  0.19107262793E+01  0.19107262793E+01  0.00000000000E+00 0. -1.
         21   -1    0    0  502  503 -0.00000000000E+00 -0.00000000000E+00 -0.33363816959E+03  0.33363816959E+03  0.00000000000E+00 0. -1.
          1    1    1    2  501    0  0.23771148694E+02 -0.84088404798E+01 -0.15716140863E+03  0.15917124260E+03  0.00000000000E+00 0.  1.
         -1    1    1    2    0  503 -0.23771148694E+02  0.84088404798E+01 -0.17456603468E+03  0.17637765327E+03  0.00000000000E+00 0. -1.
<mgrwt>
<rscale>  2 0.25214601E+02</rscale>
<asrwt>0</asrwt>
<pdfrwt beam="1">  1       21 0.29395759E-03 0.25214601E+02</pdfrwt>
<pdfrwt beam="2">  1       21 0.51329001E-01 0.25214601E+02</pdfrwt>
<totfact> 0.68047935E+07</totfact>
</mgrwt>
</event>
<event>
 4    1  0.7616518E+004  0.2061594E+02  0.7546771E-02  0.1733350E+00
         21   -1    0    0  501  502  0.00000000000E+00  0.00000000000E+00  0.40379519400E+02  0.40379519400E+02  0.00000000000E+00 0.  1.
         21   -1    0    0  502  503 -0.00000000000E+00 -0.00000000000E+00 -0.10963394948E+02  0.10963394948E+02  0.00000000000E+00 0.  1.
          2    1    1    2  501    0  0.14615163882E+02 -0.14540086306E+02  0.19838239029E+02  0.28610712205E+02  0.00000000000E+00 0. -1.
         -2    1    1    2    0  503 -0.14615163882E+02  0.14540086306E+02  0.95778854238E+01  0.22732202144E+02  0.00000000000E+00 0.  1.
<mgrwt>
<rscale>  2 0.20615943E+02</rscale>
<asrwt>0</asrwt>
<pdfrwt beam="1">  1       21 0.62122337E-02 0.20615943E+02</pdfrwt>
<pdfrwt beam="2">  1       21 0.16866762E-02 0.20615943E+02</pdfrwt>
<totfact> 0.18998237E+08</totfact>
</mgrwt>
</event>
<event>
 4    1  0.7616518E+004  0.2131935E+02  0.7546771E-02  0.1720296E+00
         21   -1    0    0  503  502  0.00000000000E+00  0.00000000000E+00  0.73418812733E+03  0.73418812733E+03  0.00000000000E+00 0. -1.
         21   -1    0    0  501  503 -0.00000000000E+00 -0.00000000000E+00 -0.63964090921E+00  0.63964090921E+00  0.00000000000E+00 0. -1.
          3    1    1    2  501    0 -0.21094292614E+02 -0.30895580620E+01  0.30088658959E+03  0.30164093612E+03  0.00000000000E+00 0.  1.
         -3    1    1    2    0  502  0.21094292614E+02  0.30895580620E+01  0.43266189684E+03  0.43318683212E+03  0.00000000000E+00 0. -1.
<mgrwt>
<rscale>  2 0.21319347E+02</rscale>
<asrwt>0</asrwt>
<pdfrwt beam="1">  1       21 0.11295135E+00 0.21319347E+02</pdfrwt>
<pdfrwt beam="2">  1       21 0.98406881E-04 0.21319347E+02</pdfrwt>
<totfact> 0.61050108E+07</totfact>
</mgrwt>
</event>
<event>
 4    1  0.7616518E+004  0.5297347E+02  0.7546771E-02  0.1429933E+00
         21   -1    0    0  501  502  0.00000000000E+00  0.00000000000E+00  0.13924227505E+02  0.13924227505E+02  0.00000000000E+00 0.  1.
         21   -1    0    0  502  503 -0.00000000000E+00 -0.00000000000E+00 -0.20177998685E+03  0.20177998685E+03  0.00000000000E+00 0.  1.
          1    1    1    2  501    0  0.41303873099E+01  0.52812201772E+02 -0.90153116071E+02  0.10456468377E+03  0.00000000000E+00 0. -1.
         -1    1    1    2    0  503 -0.41303873099E+01 -0.52812201772E+02 -0.97702643276E+02  0.11113953058E+03  0.00000000000E+00 0.  1.
<mgrwt>
<rscale>  2 0.52973472E+02</rscale>
<asrwt>0</asrwt>
<pdfrwt beam="1">  1       21 0.21421889E-02 0.52973472E+02</pdfrwt>
<pdfrwt beam="2">  1       21 0.31043075E-01 0.52973472E+02</pdfrwt>
<totfact> 0.99520192E+06</totfact>
</mgrwt>
</event>
<event>
 4    1  0.7616518E+004  0.2020011E+02  0.7546771E-02  0.1741378E+00
         21   -1    0    0  501  502  0.00000000000E+00  0.00000000000E+00  0.50326666767E+01  0.50326666767E+01  0.00000000000E+00 0. -1.
         21   -1    0    0  502  503 -0.00000000000E+00 -0.00000000000E+00 -0.83566326351E+02  0.83566326351E+02  0.00000000000E+00 0. -1.
          2    1    1    2  501    0  0.20196347401E+02  0.39012137297E+00 -0.46909253416E+02  0.51073698702E+02  0.00000000000E+00 0. -1.
         -2    1    1    2    0  503 -0.20196347401E+02 -0.39012137297E+00 -0.31624406258E+02  0.37525294325E+02  0.00000000000E+00 0.  1.
<mgrwt>
<rscale>  2 0.20200115E+02</rscale>
<asrwt>0</asrwt>
<pdfrwt beam="1">  1       21 0.77425643E-03 0.20200115E+02</pdfrwt>
<pdfrwt beam="2">  1       21 0.12856358E-01 0.20200115E+02</pdfrwt>
<totfact> 0.18493392E+08</totfact>
</mgrwt>
</event>
<event>
 4    1  0.7616518E+004  0.3162374E+02  0.7546771E-02  0.1580804E+00
         21   -1    0    0  501  502  0.00000000000E+00  0.00000000000E+00  0.31809538344E+02  0.31809538344E+02  0.00000000000E+00 0. -1.
         21   -1    0    0  502  503 -0.00000000000E+00 -0.00000000000E+00 -0.32728377660E+02  0.32728377660E+02  0.00000000000E+00 0. -1.
          4    1    1    2  501    0 -0.20722056740E+02 -0.23888431126E+02 -0.68642710993E+01  0.32360145163E+02  0.00000000000E+00 0.  1.
         -4    1    1    2    0  503  0.20722056740E+02  0.23888431126E+02  0.59454317836E+01  0.32177770841E+02  0.00000000000E+00 0. -1.
<mgrwt>
<rscale>  2 0.31623738E+02</rscale>
<asrwt>0</asrwt>
<pdfrwt beam="1">  1       21 0.48937751E-02 0.31623738E+02</pdfrwt>
<pdfrwt beam="2">  1       21 0.50351351E-02 0.31623738E+02</pdfrwt>
<totfact> 0.56655775E+07</totfact>
</mgrwt>
</event>
<event>
 4    1  0.7616518E+004  0.2857072E+02  0.7546771E-02  0.1614447E+00
         21   -1    0    0  503  502  0.00000000000E+00  0.00000000000E+00  0.34074305250E+03  0.34074305250E+03  0.00000000000E+00 0.  1.
         21   -1    0    0  501  503 -0.00000000000E+00 -0.00000000000E+00 -0.24384416451E+01  0.24384416451E+01  0.00000000000E+00 0.  1.
          2    1    1    2  501    0 -0.20341655891E+02  0.20062476206E+02  0.14640954945E+03  0.14917118383E+03  0.00000000000E+00 0.  1.
         -2    1    1    2    0  502  0.20341655891E+02 -0.20062476206E+02  0.19189506140E+03  0.19401031031E+03  0.00000000000E+00 0. -1.
<mgrwt>
<rscale>  2 0.28570718E+02</rscale>
<asrwt>0</asrwt>
<pdfrwt beam="1">  1       21 0.52421970E-01 0.28570718E+02</pdfrwt>
<pdfrwt beam="2">  1       21 0.37514514E-03 0.28570718E+02</pdfrwt>
<totfact> 0.46899545E+07</totfact>
</mgrwt>
</event>
<event>
 4    1  0.7616518E+004  0.2169907E+02  0.7546771E-02  0.1713509E+00
         21   -1    0    0  501  502  0.00000000000E+00  0.00000000000E+00  0.46015920443E+02  0.46015920443E+02  0.00000000000E+00 0.  1.
         21   -1    0    0  502  503 -0.00000000000E+00 -0.00000000000E+00 -0.10500398139E+02  0.10500398139E+02  0.00000000000E+00 0.  1.
          4    1    1    2  501    0 -0.10297131088E+02  0.19100230760E+02  0.13242634738E+02  0.25420800509E+02  0.00000000000E+00 0. -1.
         -4    1    1    2    0  503  0.10297131088E+02 -0.19100230760E+02  0.22272887567E+02  0.31095518074E+02  0.00000000000E+00 0.  1.
<mgrwt>
<rscale>  2 0.21699072E+02</rscale>
<asrwt>0</asrwt>
<pdfrwt beam="1">  1       21 0.70793723E-02 0.21699072E+02</pdfrwt>
<pdfrwt beam="2">  1       21 0.16154459E-02 0.21699072E+02</pdfrwt>
<totfact> 0.16705833E+08</totfact>
</mgrwt>
</event>
<event>
 4    1  0.7616518E+004  0.2260219E+02  0.7546771E-02  0.1698041E+00
         21   -1    0    0  503  502  0.00000000000E+00  0.00000000000E+00  0.24191013148E+01  0.24191013148E+01  0.00000000000E+00 0.  1.
         21   -1    0    0  501  503 -0.00000000000E+00 -0.00000000000E+00 -0.21569786435E+03  0.21569786435E+03  0.00000000000E+00 0.  1.
          5    1    1    2  501    0 -0.54910842332E+01  0.21925031571E+02 -0.90850978953E+02  0.93620293698E+02  0.00000000000E+00 0.  1.
         -5    1    1    2    0  502  0.54910842332E+01 -0.21925031571E+02 -0.12242778408E+03  0.12449667196E+03  0.00000000000E+00 0. -1.
<mgrwt>
<rscale>  2 0.22602191E+02</rscale>
<asrwt>0</asrwt>
<pdfrwt beam="1">  1       21 0.37216955E-03 0.22602191E+02</pdfrwt>
<pdfrwt beam="2">  1       21 0.33184276E-01 0.22602191E+02</pdfrwt>
<totfact> 0.10721888E+08</totfact>
</mgrwt>
</event>
<event>
 4    1  0.7616518E+004  0.2336361E+02  0.7546771E-02  0.1685683E+00
         21   -1    0    0  503  502  0.00000000000E+00  0.00000000000E+00  0.32971366258E+02  0.32971366258E+02  0.00000000000E+00 0. -1.
         21   -1    0    0  501  503 -0.00000000000E+00 -0.00000000000E+00 -0.23292340467E+02  0.23292340467E+02  0.00000000000E+00 0. -1.
          4    1    1    2  501    0  0.15858584966E+02  0.17157024675E+02  0.19968824578E+02  0.30734543560E+02  0.00000000000E+00 0.  1.
         -4    1    1    2    0  502 -0.15858584966E+02 -0.17157024675E+02 -0.10289798787E+02  0.25529163165E+02  0.00000000000E+00 0. -1.
<mgrwt>
<rscale>  2 0.23363609E+02</rscale>
<asrwt>0</asrwt>
<pdfrwt beam="1">  1       21 0.50725179E-02 0.23363609E+02</pdfrwt>
<pdfrwt beam="2">  1       21 0.35834370E-02 0.23363609E+02</pdfrwt>
<totfact> 0.85231427E+07</totfact>
</mgrwt>
</event>
<event>
 4    1  0.7616518E+004  0.2142648E+02  0.7546771E-02  0.1718364E+00
         21   -1    0    0  501  502  0.00000000000E+00  0.00000000000E+00  0.37594491373E+02  0.37594491373E+02  0.00000000000E+00 0.  1.
         21   -1    0    0  502  503 -0.00000000000E+00 -0.00000000000E+00 -0.19650990652E+02  0.19650990652E+02  0.00000000000E+00 0.  1.
          2    1    1    2  501    0 -0.30748687545E+01  0.21204694702E+02 -0.86392405622E+01  0.23102605324E+02  0.00000000000E+00 0.  1.
         -2    1    1    2    0  503  0.30748687545E+01 -0.21204694702E+02  0.26582741283E+02  0.34142876701E+02  0.00000000000E+00 0. -1.
<mgrwt>
<rscale>  2 0.21426477E+02</rscale>
<asrwt>0</asrwt>
<pdfrwt beam="1">  1       21 0.57837679E-02 0.21426477E+02</pdfrwt>
<pdfrwt beam="2">  1       21 0.30232293E-02 0.21426477E+02</pdfrwt>
<totfact> 0.87946572E+07</totfact>
</mgrwt>
</event>
<event>
 4    1  0.7616518E+004  0.2029121E+02  0.7546771E-02  0.1739598E+00
         21   -1    0    0  503  502  0.00000000000E+00  0.00000000000E+00  0.11289852991E+02  0.11289852991E+02  0.00000000000E+00 0. -1.
         21   -1    0    0  501  503 -0.00000000000E+00 -0.00000000000E+00 -0.36733494563E+02  0.36733494563E+02  0.00000000000E+00 0. -1.
          3    1    1    2  501    0 -0.18782012460E+02 -0.76791515165E+01 -0.14758063925E+02  0.25090512368E+02  0.00000000000E+00 0. -1.
         -3    1    1    2    0  502  0.18782012460E+02  0.76791515165E+01 -0.10685577646E+02  0.22932835187E+02  0.00000000000E+00 0.  1.
<mgrwt>
<rscale>  2 0.20291214E+02</rscale>
<asrwt>0</asrwt>
<pdfrwt beam="1">  1       21 0.17369005E-02 0.20291214E+02</pdfrwt>
<pdfrwt beam="2">  1       21 0.56513067E-02 0.20291214E+02</pdfrwt>
<totfact> 0.21027241E+08</totfact>
</mgrwt>
</event>
<event>
 4    1  0.7616518E+004  0.2328957E+02  0.7546771E-02  0.1686859E+00
         21   -1    0    0  501  502  0.00000000000E+00  0.00000000000E+00  0.30001760156E+03  0.30001760156E+03  0.00000000000E+00 0. -1.
         21   -1    0    0  502  503 -0.00000000000E+00 -0.00000000000E+00 -0.24044741173E+01  0.24044741173E+01  0.00000000000E+00 0. -1.
          4    1    1    2  501    0 -0.99581489060E+01  0.21053247860E+02  0.73487826135E+02  0.77089977073E+02  0.00000000000E+00 0.  1.
         -4    1    1    2    0  503  0.99581489060E+01 -0.21053247860E+02  0.22412530131E+03  0.22533209861E+03  0.00000000000E+00 0. -1.
<mgrwt>
<rscale>  2 0.23289568E+02</rscale>
<asrwt>0</asrwt>
<pdfrwt beam="1">  1       21 0.46156524E-01 0.23289568E+02</pdfrwt>
<pdfrwt beam="2">  1       21 0.36991933E-03 0.23289568E+02</pdfrwt>
<totfact> 0.58635789E+07</totfact>
</mgrwt>
</event>
<event>
 4    1  0.7616518E+004  0.3300550E+02  0.7546771E-02  0.1567061E+00
         21   -1    0    0  503  502  0.00000000000E+00  0.00000000000E+00  0.31327459072E+01  0.31327459072E+01  0.00000000000E+00 0.  1.
         21   -1    0    0  501  503 -0.00000000000E+00 -0.00000000000E+00 -0.35863971222E+03  0.35863971222E+03  0.00000000000E+00 0.  1.
          1    1    1    2  501    0 -0.33005402549E+02  0.80069599424E-01 -0.14621080180E+03  0.14988983145E+03  0.00000000000E+00 0. -1.
         -1    1    1    2    0  502  0.33005402549E+02 -0.80069599424E-01 -0.20929616451E+03  0.21188262668E+03  0.00000000000E+00 0.  1.
<mgrwt>
<rscale>  2 0.33005500E+02</rscale>
<asrwt>0</asrwt>
<pdfrwt beam="1">  1       21 0.48196070E-03 0.33005500E+02</pdfrwt>
<pdfrwt beam="2">  1       21 0.55175365E-01 0.33005500E+02</pdfrwt>
<totfact> 0.30020935E+07</totfact>
</mgrwt>
</event>
<event>
 4    1  0.7616518E+004  0.2422808E+02  0.7546771E-02  0.1672343E+00
         21   -1    0    0  503  502  0.00000000000E+00  0.00000000000E+00  0.15418178506E+03  0.15418178506E+03  0.00000000000E+00 0. -1.
         21   -1    0    0  501  503 -0.00000000000E+00 -0.00000000000E+00 -0.64156539333E+01  0.64156539333E+01  0.00000000000E+00 0. -1.
          4    1    1    2  501    0  0.94330088069E+01  0.22316323398E+02  0.22681852335E+02  0.33188346908E+02  0.00000000000E+00 0.  1.
         -4    1    1    2    0  502 -0.94330088069E+01 -0.22316323398E+02  0.12508427879E+03  0.12740909208E+03  0.00000000000E+00 0. -1.
<mgrwt>
<rscale>  2 0.24228082E+02</rscale>
<asrwt>0</asrwt>
<pdfrwt beam="1">  1       21 0.23720272E-01 0.24228082E+02</pdfrwt>
<pdfrwt beam="2">  1       21 0.98702379E-03 0.24228082E+02</pdfrwt>
<totfact> 0.47130315E+07</totfact>
</mgrwt>
</event>
<event>
 4    1  0.7616518E+004  0.4085508E+02  0.7546771E-02  0.1502012E+00
         21   -1    0    0  503  502  0.00000000000E+00  0.00000000000E+00  0.86419412533E+02  0.86419412533E+02  0.00000000000E+00 0.  1.
         21   -1    0    0  501  503 -0.00000000000E+00 -0.00000000000E+00 -0.20087464496E+02  0.20087464496E+02  0.00000000000E+00 0.  1.
          2    1    1    2  501    0 -0.37360724046E+02  0.16532204753E+02  0.22718815641E+02  0.46747000753E+02  0.00000000000E+00 0. -1.
         -2    1    1    2    0  502  0.37360724046E+02 -0.16532204753E+02  0.43613132395E+02  0.59759876276E+02  0.00000000000E+00 0.  1.
<mgrwt>
<rscale>  2 0.40855079E+02</rscale>
<asrwt>0</asrwt>
<pdfrwt beam="1">  1       21 0.13295294E-01 0.40855079E+02</pdfrwt>
<pdfrwt beam="2">  1       21 0.30903792E-02 0.40855079E+02</pdfrwt>
<totfact> 0.24682046E+07</totfact>
</mgrwt>
</event>
<event>
 4    1  0.7616518E+004  0.2257231E+02  0.7546771E-02  0.1698538E+00
         21   -1    0    0  503  502  0.00000000000E+00  0.00000000000E+00  0.12373926775E+03  0.12373926775E+03  0.00000000000E+00 0.  1.
         21   -1    0    0  501  503 -0.00000000000E+00 -0.00000000000E+00 -0.43775225021E+01  0.43775225021E+01  0.00000000000E+00 0.  1.
          3    1    1    2  501    0 -0.73237157752E+01  0.21351169410E+02  0.75290079475E+02  0.78600924392E+02  0.00000000000E+00 0. -1.
         -3    1    1    2    0  502  0.73237157752E+01 -0.21351169410E+02  0.44071665776E+02  0.49515865864E+02  0.00000000000E+00 0.  1.
<mgrwt>
<rscale>  2 0.22572312E+02</rscale>
<asrwt>0</asrwt>
<pdfrwt beam="1">  1       21 0.19036808E-01 0.22572312E+02</pdfrwt>
<pdfrwt beam="2">  1       21 0.67346510E-03 0.22572312E+02</pdfrwt>
<totfact> 0.12051043E+08</totfact>
</mgrwt>
</event>
<event>
 4    1  0.7616518E+004  0.2736609E+02  0.7546771E-02  0.1629172E+00
         21   -1    0    0  501  502  0.00000000000E+00  0.00000000000E+00  0.48839751697E+03  0.48839751697E+03  0.00000000000E+00 0.  1.
         21   -1    0    0  502  503 -0.00000000000E+00 -0.00000000000E+00 -0.16679814888E+01  0.16679814888E+01  0.00000000000E+00 0.  1.
          1    1    1    2  501    0 -0.23612759527E+02 -0.13832584719E+02  0.31296982684E+03  0.31416399432E+03  0.00000000000E+00 0. -1.
         -1    1    1    2    0  503  0.23612759527E+02  0.13832584719E+02  0.17375970864E+03  0.17590150414E+03  0.00000000000E+00 0.  1.
<mgrwt>
<rscale>  2 0.27366089E+02</rscale>
<asrwt>0</asrwt>
<pdfrwt beam="1">  1       21 0.75137965E-01 0.27366089E+02</pdfrwt>
<pdfrwt beam="2">  1       21 0.25661293E-03 0.27366089E+02</pdfrwt>
<totfact> 0.39068417E+07</totfact>
</mgrwt>
</event>
<event>
 4    1  0.7616518E+004  0.2451694E+02  0.7546771E-02  0.1668039E+00
         21   -1    0    0  503  502  0.00000000000E+00  0.00000000000E+00  0.36933910386E+01  0.36933910386E+01  0.00000000000E+00 0. -1.
         21   -1    0    0  501  503 -0.00000000000E+00 -0.00000000000E+00 -0.17283101398E+03  0.17283101398E+03  0.00000000000E+00 0. -1.
          2    1    1    2  501    0 -0.23753141443E+02  0.60719394075E+01 -0.10589081765E+03  0.10869197505E+03  0.00000000000E+00 0.  1.
         -2    1    1    2    0  502  0.23753141443E+02 -0.60719394075E+01 -0.63246805288E+02  0.67832429970E+02  0.00000000000E+00 0. -1.
<mgrwt>
<rscale>  2 0.24516937E+02</rscale>
<asrwt>0</asrwt>
<pdfrwt beam="1">  1       21 0.56821413E-03 0.24516937E+02</pdfrwt>
<pdfrwt beam="2">  1       21 0.26589381E-01 0.24516937E+02</pdfrwt>
<totfact> 0.87901792E+07</totfact>
</mgrwt>
</event>
<event>
 4    1  0.7616518E+004  0.2047455E+02  0.7546771E-02  0.1736053E+00
         21   -1    0    0  503  502  0.00000000000E+00  0.00000000000E+00  0.52930952275E+02  0.52930952275E+02  0.00000000000E+00 0.  1.
         21   -1    0    0  501  503 -0.00000000000E+00 -0.00000000000E+00 -0.79744854312E+01  0.79744854312E+01  0.00000000000E+00 0.  1.
          5    1    1    2  501    0  0.12983321642E+02  0.15831625115E+02  0.19958368224E+02  0.28592716849E+02  0.00000000000E+00 0. -1.
         -5    1    1    2    0  502 -0.12983321642E+02 -0.15831625115E+02  0.24998098620E+02  0.32312720858E+02  0.00000000000E+00 0.  1.
<mgrwt>
<rscale>  2 0.20474545E+02</rscale>
<asrwt>0</asrwt>
<pdfrwt beam="1">  1       21 0.81432232E-02 0.20474545E+02</pdfrwt>
<pdfrwt beam="2">  1       21 0.12268439E-02 0.20474545E+02</pdfrwt>
<totfact> 0.19819347E+08</totfact>
</mgrwt>
</event>
<event>
 4    1  0.7616518E+004  0.2910600E+02  0.7546771E-02  0.1608186E+00
         21   -1    0    0  501  502  0.00000000000E+00  0.00000000000E+00  0.56132360752E+02  0.56132360752E+02  0.00000000000E+00 0.  1.
         21   -1    0    0  502  503 -0.00000000000E+00 -0.00000000000E+00 -0.15110580026E+02  0.15110580026E+02  0.00000000000E+00 0.  1.
          5    1    1    2  501    0 -0.28384862490E+02  0.64388708545E+01  0.19267733667E+02  0.34905659098E+02  0.00000000000E+00 0.  1.
         -5    1    1    2    0  503  0.28384862490E+02 -0.64388708545E+01  0.21754047060E+02  0.36337281680E+02  0.00000000000E+00 0. -1.
<mgrwt>
<rscale>  2 0.29106004E+02</rscale>
<asrwt>0</asrwt>
<pdfrwt beam="1">  1       21 0.86357477E-02 0.29106004E+02</pdfrwt>
<pdfrwt beam="2">  1       21 0.23247046E-02 0.29106004E+02</pdfrwt>
<totfact> 0.74790643E+07</totfact>
</mgrwt>
</event>
<event>
 4    1  0.7616518E+004  0.2800964E+02  0.7546771E-02  0.1621192E+00
         21   -1    0    0  503  502  0.00000000000E+00  0.00000000000E+00  0.16338854337E+04  0.16338854337E+04  0.00000000000E+00 0. -1.
         21   -1    0    0  501  503 -0.00000000000E+00 -0.00000000000E+00 -0.53018275447E+00  0.53018275447E+00  0.00000000000E+00 0. -1.
          5    1    1    2  501    0 -0.18162656741E+02  0.21322703882E+02  0.56568094209E+03  0.56637396483E+03  0.00000000000E+00 0.  1.
         -5    1    1    2    0  502  0.18162656741E+02 -0.21322703882E+02  0.10676743089E+04  0.10680416516E+04  0.00000000000E+00 0. -1.
<mgrwt>
<rscale>  2 0.28009638E+02</rscale>
<asrwt>0</asrwt>
<pdfrwt beam="1">  1       21 0.25136296E+00 0.28009638E+02</pdfrwt>
<pdfrwt beam="2">  1       21 0.81567886E-04 0.28009638E+02</pdfrwt>
<totfact> 0.11353050E+07</totfact>
</mgrwt>
</event>
<event>
 4    1  0.7616518E+004  0.2512889E+02  0.7546771E-02  0.1659157E+00
         21   -1    0    0  501  502  0.00000000000E+00  0.00000000000E+00  0.10741916854E+03  0.10741916854E+03  0.00000000000E+00 0. -1.
         21   -1    0    0  502  503 -0.00000000000E+00 -0.00000000000E+00 -0.63198160895E+01  0.63198160895E+01  0.00000000000E+00 0. -1.
          5    1    1    2  501    0  0.79789412179E+01 -0.23828503286E+02  0.35521249751E+02  0.43511150935E+02  0.00000000000E+00 0. -1.
         -5    1    1    2    0  503 -0.79789412179E+01  0.23828503286E+02  0.65578102698E+02  0.70227833693E+02  0.00000000000E+00 0.  1.
<mgrwt>
<rscale>  2 0.25128889E+02</rscale>
<asrwt>0</asrwt>
<pdfrwt beam="1">  1       21 0.16526025E-01 0.25128889E+02</pdfrwt>
<pdfrwt beam="2">  1       21 0.97227948E-03 0.25128889E+02</pdfrwt>
<totfact> 0.91522974E+07</totfact>
</mgrwt>
</event>
<event>
 4    1  0.7616518E+004  0.4938543E+02  0.7546771E-02  0.1448685E+00
         21   -1    0    0  501  502  0.00000000000E+00  0.00000000000E+00  0.90664833942E+01  0.90664833942E+01  0.00000000000E+00 0.  1.
         21   -1    0    0  502  503 -0.00000000000E+00 -0.00000000000E+00 -0.27463918001E+03  0.27463918001E+03  0.00000000000E+00 0.  1.
          4    1    1    2  501    0  0.43737658007E+02 -0.22933346024E+02 -0.15310558116E+03  0.16087336657E+03  0.00000000000E+00 0. -1.
         -4    1    1    2    0  503 -0.43737658007E+02  0.22933346024E+02 -0.11246711546E+03  0.12283229684E+03  0.00000000000E+00 0.  1.
<mgrwt>
<rscale>  2 0.49385434E+02</rscale>
<asrwt>0</asrwt>
<pdfrwt beam="1">  1       21 0.13948435E-02 0.49385434E+02</pdfrwt>
<pdfrwt beam="2">  1       21 0.42252184E-01 0.49385434E+02</pdfrwt>
<totfact> 0.10705524E+07</totfact>
</mgrwt>
</event>
<event>
 4    1  0.7616518E+004  0.2486895E+02  0.7546771E-02  0.1662891E+00
         21   -1    0    0  501  502  0.00000000000E+00  0.00000000000E+00  0.22343155643E+02  0.22343155643E+02  0.00000000000E+00 0. -1.
         21   -1    0    0  502  503 -0.00000000000E+00 -0.00000000000E+00 -0.27947898352E+02  0.27947898352E+02  0.00000000000E+00 0. -1.
          3    1    1    2  501    0 -0.15459461075E+02 -0.19479976906E+02 -0.34167827616E+00  0.24871292308E+02  0.00000000000E+00 0.  1.
         -3    1    1    2    0  503  0.15459461075E+02  0.19479976906E+02 -0.52630644335E+01  0.25419761687E+02  0.00000000000E+00 0. -1.
<mgrwt>
<rscale>  2 0.24868945E+02</rscale>
<asrwt>0</asrwt>
<pdfrwt beam="1">  1       21 0.34374086E-02 0.24868945E+02</pdfrwt>
<pdfrwt beam="2">  1       21 0.42996767E-02 0.24868945E+02</pdfrwt>
<totfact> 0.12042972E+08</totfact>
</mgrwt>
</event>
<event>
 4    1  0.7616518E+004  0.2095906E+02  0.7546771E-02  0.1726902E+00
         21   -1    0    0  501  502  0.00000000000E+00  0.00000000000E+00  0.30893685354E+03  0.30893685354E+03  0.00000000000E+00 0. -1.
         21   -1    0    0  502  503 -0.00000000000E+00 -0.00000000000E+00 -0.14320115322E+01  0.14320115322E+01  0.00000000000E+00 0. -1.
          5    1    1    2  501    0 -0.76833930446E+01  0.19499936250E+02  0.14072212431E+03  0.14227437687E+03  0.00000000000E+00 0.  1.
         -5    1    1    2    0  503  0.76833930446E+01 -0.19499936250E+02  0.16678271770E+03  0.16809448820E+03  0.00000000000E+00 0. -1.
<mgrwt>
<rscale>  2 0.20959056E+02</rscale>
<asrwt>0</asrwt>
<pdfrwt beam="1">  1       21 0.47528694E-01 0.20959056E+02</pdfrwt>
<pdfrwt beam="2">  1       21 0.22030971E-03 0.20959056E+02</pdfrwt>
<totfact> 0.11456662E+08</totfact>
</mgrwt>
</event>
<event>
 4    1  0.7616518E+004  0.2593018E+02  0.7546771E-02  0.1647990E+00
         21   -1    0    0  501  502  0.00000000000E+00  0.00000000000E+00  0.18524200154E+03  0.18524200154E+03  0.00000000000E+00 0. -1.
         21   -1    0    0  502  503 -0.00000000000E+00 -0.00000000000E+00 -0.39944808780E+01  0.39944808780E+01  0.00000000000E+00 0. -1.
          4    1    1    2  501    0  0.11765483241E+02 -0.23107304055E+02  0.62030948773E+02  0.67232527115E+02  0.00000000000E+00 0.  1.
         -4    1    1    2    0  503 -0.11765483241E+02  0.23107304055E+02  0.11921657189E+03  0.12200395530E+03  0.00000000000E+00 0. -1.
<mgrwt>
<rscale>  2 0.25930177E+02</rscale>
<asrwt>0</asrwt>
<pdfrwt beam="1">  1       21 0.28498763E-01 0.25930177E+02</pdfrwt>
<pdfrwt beam="2">  1       21 0.61453566E-03 0.25930177E+02</pdfrwt>
<totfact> 0.69965894E+07</totfact>
</mgrwt>
</event>
<event>
 4    1  0.7616518E+004  0.2087132E+02  0.7546771E-02  0.1728536E+00
         21   -1    0    0  503  502  0.00000000000E+00  0.00000000000E+00  0.37419747010E+02  0.37419747010E+02  0.00000000000E+00 0. -1.
         21   -1    0    0  501  503 -0.00000000000E+00 -0.00000000000E+00 -0.11804581787E+02  0.11804581787E+02  0.00000000000E+00 0. -1.
          3    1    1    2  501    0  0.18904149784E+02 -0.88456366799E+01  0.99123977734E+01  0.23105579346E+02  0.00000000000E+00 0. -1.
         -3    1    1    2    0  502 -0.18904149784E+02  0.88456366799E+01  0.15702767449E+02  0.26118749451E+02  0.00000000000E+00 0.  1.
<mgrwt>
<rscale>  2 0.20871324E+02</rscale>
<asrwt>0</asrwt>
<pdfrwt beam="1">  1       21 0.57568841E-02 0.20871324E+02</pdfrwt>
<pdfrwt beam="2">  1       21 0.18160895E-02 0.20871324E+02</pdfrwt>
<totfact> 0.19250263E+08</totfact>
</mgrwt>
</event>
<event>
 4    1  0.7616518E+004  0.3928424E+02  0.7546771E-02  0.1513546E+00
         21   -1    0    0  501  502  0.00000000000E+00  0.00000000000E+00  0.19412403526E+02  0.19412403526E+02  0.00000000000E+00 0. -1.
         21   -1    0    0  502  503 -0.00000000000E+00 -0.00000000000E+00 -0.79918439439E+02  0.79918439439E+02  0.00000000000E+00 0. -1.
          4    1    1    2  501    0 -0.73314225684E+01  0.38594062805E+02 -0.26651621148E+02  0.47471679457E+02  0.00000000000E+00 0.  1.
         -4    1    1    2    0  503  0.73314225684E+01 -0.38594062805E+02 -0.33854414766E+02  0.51859163508E+02  0.00000000000E+00 0. -1.
<mgrwt>
<rscale>  2 0.39284239E+02</rscale>
<asrwt>0</asrwt>
<pdfrwt beam="1">  1       21 0.29865235E-02 0.39284239E+02</pdfrwt>
<pdfrwt beam="2">  1       21 0.12295145E-01 0.39284239E+02</pdfrwt>
<totfact> 0.29609397E+07</totfact>
</mgrwt>
</event>
<event>
 4    1  0.7616518E+004  0.2353202E+02  0.7546771E-02  0.1683029E+00
         21   -1    0    0  503  502  0.00000000000E+00  0.00000000000E+00  0.66616606616E+03  0.66616606616E+03  0.00000000000E+00 0. -1.
         21   -1    0    0  501  503 -0.00000000000E+00 -0.00000000000E+00 -0.11144852439E+01  0.11144852439E+01  0.00000000000E+00 0. -1.
          1    1    1    2  501    0  0.18979615563E+02 -0.13911514807E+02  0.16433251943E+03  0.16600883409E+03  0.00000000000E+00 0.  1.
         -1    1    1    2    0  502 -0.18979615563E+02  0.13911514807E+02  0.50071906149E+03  0.50127171732E+03  0.00000000000E+00 0. -1.
<mgrwt>
<rscale>  2 0.23532022E+02</rscale>
<asrwt>0</asrwt>
<pdfrwt beam="1">  1       21 0.10248677E+00 0.23532022E+02</pdfrwt>
<pdfrwt beam="2">  1       21 0.17145980E-03 0.23532022E+02</pdfrwt>
<totfact> 0.34977191E+07</totfact>
</mgrwt>
</event>
<event>
 4    1  0.7616518E+004  0.3325112E+02  0.7546771E-02  0.1564703E+00
         21   -1    0    0  501  502  0.00000000000E+00  0.00000000000E+00  0.36121460268E+03  0.36121460268E+03  0.00000000000E+00 0. -1.
         21   -1    0    0  502  503 -0.00000000000E+00 -0.00000000000E+00 -0.37816707260E+01  0.37816707260E+01  0.00000000000E+00 0. -1.
          2    1    1    2  501    0  0.24851193129E+02 -0.22091965462E+02  0.25839096688E+03  0.26052164690E+03  0.00000000000E+00 0.  1.
         -2    1    1    2    0  503 -0.24851193129E+02  0.22091965462E+02  0.99041965070E+02  0.10447462650E+03  0.00000000000E+00 0. -1.
<mgrwt>
<rscale>  2 0.33251116E+02</rscale>
<asrwt>0</asrwt>
<pdfrwt beam="1">  1       21 0.55571450E-01 0.33251116E+02</pdfrwt>
<pdfrwt beam="2">  1       21 0.58179578E-03 0.33251116E+02</pdfrwt>
<totfact> 0.22364693E+07</totfact>
</mgrwt>
</event>
<event>
 4    1  0.7616518E+004  0.2352467E+02  0.7546771E-02  0.1683144E+00
         21   -1    0    0  503  502  0.00000000000E+00  0.00000000000E+00  0.40665252425E+01  0.40665252425E+01  0.00000000000E+00 0. -1.
         21   -1    0    0  501  503 -0.00000000000E+00 -0.00000000000E+00 -0.13610784705E+03  0.13610784705E+03  0.00000000000E+00 0. -1.
          3    1    1    2  501    0 -0.31274581159E+01 -0.23315853794E+02 -0.66841744216E+02  0.70860629423E+02  0.00000000000E+00 0. -1.
         -3    1    1    2    0  502  0.31274581159E+01  0.23315853794E+02 -0.65199577587E+02  0.69313742865E+02  0.00000000000E+00 0.  1.
<mgrwt>
<rscale>  2 0.23524669E+02</rscale>
<asrwt>0</asrwt>
<pdfrwt beam="1">  1       21 0.62561925E-03 0.23524669E+02</pdfrwt>
<pdfrwt beam="2">  1       21 0.20939669E-01 0.23524669E+02</pdfrwt>
<totfact> 0.11518784E+08</totfact>
</mgrwt>
</event>
<event>
 4    1  0.7616518E+004  0.2886765E+02  0.7546771E-02  0.1610953E+00
         21   -1    0    0  501  502  0.00000000000E+00  0.00000000000E+00  0.37089881022E+01  0.37089881022E+01  0.00000000000E+00 0.  1.
         21   -1    0    0  502  503 -0.00000000000E+00 -0.00000000000E+00 -0.22536484887E+03  0.22536484887E+03  0.00000000000E+00 0.  1.
          3    1    1    2  501    0 -0.15001904859E+02 -0.24663419354E+02 -0.11713445281E+03  0.12063922015E+03  0.00000000000E+00 0. -1.
         -3    1    1    2    0  503  0.15001904859E+02  0.24663419354E+02 -0.10452140796E+03  0.10843461682E+03  0.00000000000E+00 0.  1.
<mgrwt>
<rscale>  2 0.28867653E+02</rscale>
<asrwt>0</asrwt>
<pdfrwt beam="1">  1       21 0.57061348E-03 0.28867653E+02</pdfrwt>
<pdfrwt beam="2">  1       21 0.34671520E-01 0.28867653E+02</pdfrwt>
<totfact> 0.55801463E+07</totfact>
</mgrwt>
</event>
<event>
 4    1  0.7616518E+004  0.2006068E+02  0.7546771E-02  0.1744124E+00
         21   -1    0    0  501  502  0.00000000000E+00  0.00000000000E+00  0.43725923344E+01  0.43725923344E+01  0.00000000000E+00 0.  1.
         21   -1    0    0  502  503 -0.00000000000E+00 -0.00000000000E+00 -0.11497855898E+03  0.11497855898E+03  0.00000000000E+00 0.  1.
          5    1    1    2  501    0 -0.39260739292E+01 -0.19672744342E+02 -0.28645453866E+02  0.34971316155E+02  0.00000000000E+00 0. -1.
         -5    1    1    2    0  503  0.39260739292E+01  0.19672744342E+02 -0.81960512784E+02  0.84379835164E+02  0.00000000000E+00 0.  1.
<mgrwt>
<rscale>  2 0.20060681E+02</rscale>
<asrwt>0</asrwt>
<pdfrwt beam="1">  1       21 0.67270657E-03 0.20060681E+02</pdfrwt>
<pdfrwt beam="2">  1       21 0.17689008E-01 0.20060681E+02</pdfrwt>
<totfact> 0.13236624E+08</totfact>
</mgrwt>
</event>
<event>
 4    1  0.7616518E+004  0.2817377E+02  0.7546771E-02  0.1619199E+00
         21   -1    0    0  501  502  0.00000000000E+00  0.00000000000E+00  0.12794829133E+03  0.12794829133E+03  0.00000000000E+00 0. -1.
         21   -1    0    0  502  503 -0.00000000000E+00 -0.00000000000E+00 -0.11947544529E+02  0.11947544529E+02  0.00000000000E+00 0. -1.
          3    1    1    2  501    0  0.79436076879E+00 -0.28162571150E+02  0.95012088408E+01  0.29732715857E+02  0.00000000000E+00 0.  1.
         -3    1    1    2    0  503 -0.79436076879E+00  0.28162571150E+02  0.10649953796E+03  0.11016312000E+03  0.00000000000E+00 0. -1.
<mgrwt>
<rscale>  2 0.28173772E+02</rscale>
<asrwt>0</asrwt>
<pdfrwt beam="1">  1       21 0.19684352E-01 0.28173772E+02</pdfrwt>
<pdfrwt beam="2">  1       21 0.18380839E-02 0.28173772E+02</pdfrwt>
<totfact> 0.26283810E+07</totfact>
</mgrwt>
</event>
<event>
 4    1  0.7616518E+004  0.3520670E+02  0.7546771E-02  0.1546773E+00
         21   -1    0    0  503  502  0.00000000000E+00  0.00000000000E+00  0.45998157789E+02  0.45998157789E+02  0.00000000000E+00 0. -1.
         21   -1    0    0  501  503 -0.00000000000E+00 -0.00000000000E+00 -0.26968591126E+02  0.26968591126E+02  0.00000000000E+00 0. -1.
          1    1    1    2  501    0  0.98509599569E+00 -0.35192920181E+02  0.84823264331E+01  0.36214111983E+02  0.00000000000E+00 0.  1.
         -1    1    1    2    0  502 -0.98509599569E+00  0.35192920181E+02  0.10547240231E+02  0.36752636932E+02  0.00000000000E+00 0. -1.
<mgrwt>
<rscale>  2 0.35206705E+02</rscale>
<asrwt>0</asrwt>
<pdfrwt beam="1">  1       21 0.70766396E-02 0.35206705E+02</pdfrwt>
<pdfrwt beam="2">  1       21 0.41490140E-02 0.35206705E+02</pdfrwt>
<totfact> 0.43407336E+07</totfact>
</mgrwt>
</event>
<event>
 4    1  0.7616518E+004  0.2911996E+02  0.7546771E-02  0.1608025E+00
         21   -1    0    0  503  502  0.00000000000E+00  0.00000000000E+00  0.42830016544E+03  0.42830016544E+03  0.00000000000E+00 0. -1.
         21   -1    0    0  501  503 -0.00000000000E+00 -0.00000000000E+00 -0.19932633186E+01  0.19932633186E+01  0.00000000000E+00 0. -1.
          2    1    1    2  501    0 -0.27516756183E+02 -0.95289079633E+01  0.19550731565E+03  0.19766406460E+03  0.00000000000E+00 0. -1.
         -2    1    1    2    0  502  0.27516756183E+02  0.95289079633E+01  0.23079958647E+03  0.23262936416E+03  0.00000000000E+00 0.  1.
<mgrwt>
<rscale>  2 0.29119958E+02</rscale>
<asrwt>0</asrwt>
<pdfrwt beam="1">  1       21 0.65892260E-01 0.29119958E+02</pdfrwt>
<pdfrwt beam="2">  1       21 0.30665624E-03 0.29119958E+02</pdfrwt>
<totfact> 0.39981987E+07</totfact>
</mgrwt>
</event>
<event>
 4    1  0.7616518E+004  0.2858212E+02  0.7546771E-02  0.1614312E+00
         21   -1    0    0  503  502  0.00000000000E+00  0.00000000000E+00  0.44973204352E+02  0.44973204352E+02  0.00000000000E+00 0.  1.
         21   -1    0    0  501  503 -0.00000000000E+00 -0.00000000000E+00 -0.18291969271E+02  0.18291969271E+02  0.00000000000E+00 0.  1.
          2    1    1    2  501    0 -0.25834542142E+02 -0.12227581618E+02  0.10704957300E+02  0.30521032595E+02  0.00000000000E+00 0.  1.
         -2    1    1    2    0  502  0.25834542142E+02  0.12227581618E+02  0.15976277781E+02  0.32744141027E+02  0.00000000000E+00 0. -1.
<mgrwt>
<rscale>  2 0.28582115E+02</rscale>
<asrwt>0</asrwt>
<pdfrwt beam="1">  1       21 0.69189545E-02 0.28582115E+02</pdfrwt>
<pdfrwt beam="2">  1       21 0.28141491E-02 0.28582115E+02</pdfrwt>
<totfact> 0.79533629E+07</totfact>
</mgrwt>
</event>
<event>
 4    1  0.7616518E+004  0.3552884E+02  0.7546771E-02  0.1543954E+00
         21   -1    0    0  501  502  0.00000000000E+00  0.00000000000E+00  0.24359527435E+02  0.24359527435E+02  0.00000000000E+00 0. -1.
         21   -1    0    0  502  503 -0.00000000000E+00 -0.00000000000E+00 -0.58040754793E+02  0.58040754793E+02  0.00000000000E+00 0. -1.
          2    1    1    2  501    0 -0.10012282147E+02  0.34088889952E+02 -0.33518660144E+01  0.35686597173E+02  0.00000000000E+00 0. -1.
         -2    1    1    2    0  503  0.10012282147E+02 -0.34088889952E+02 -0.30329361344E+02  0.46713685056E+02  0.00000000000E+00 0.  1.
<mgrwt>
<rscale>  2 0.35528836E+02</rscale>
<asrwt>0</asrwt>
<pdfrwt beam="1">  1       21 0.37476196E-02 0.35528836E+02</pdfrwt>
<pdfrwt beam="2">  1       21 0.89293468E-02 0.35528836E+02</pdfrwt>
<totfact> 0.34800336E+07</totfact>
</mgrwt>
</event>
<event>
 4    1  0.7616518E+004  0.2596688E+02  0.7546771E-02  0.1647490E+00
         21   -1    0    0  501  502  0.00000000000E+00  0.00000000000E+00  0.21637125230E+01  0.21637125230E+01  0.00000000000E+00 0.  1.
         21   -1    0    0  502  503 -0.00000000000E+00 -0.00000000000E+00 -0.40120869416E+03  0.40120869416E+03  0.00000000000E+00 0.  1.
          1    1    1    2  501    0 -0.21546309475E+02 -0.14492593796E+02 -0.10422262843E+03  0.10740872871E+03  0.00000000000E+00 0. -1.
         -1    1    1    2    0  503  0.21546309475E+02  0.14492593796E+02 -0.29482235321E+03  0.29596367797E+03  0.00000000000E+00 0.  1.
<mgrwt>
<rscale>  2 0.25966877E+02</rscale>
<asrwt>0</asrwt>
<pdfrwt beam="1">  1       21 0.33287861E-03 0.25966877E+02</pdfrwt>
<pdfrwt beam="2">  1       21 0.61724459E-01 0.25966877E+02</pdfrwt>
<totfact> 0.39564929E+07</totfact>
</mgrwt>
</event>
<event>
 4    1  0.7616518E+004  0.2042076E+02  0.7546771E-02  0.1737088E+00
         21   -1    0    0  503  502  0.00000000000E+00  0.00000000000E+00  0.66976925011E+02  0.66976925011E+02  0.00000000000E+00 0. -1.
         21   -1    0    0  501  503 -0.00000000000E+00 -0.00000000000E+00 -0.65292471265E+01  0.65292471265E+01  0.00000000000E+00 0. -1.
          4    1    1    2  501    0  0.15841972066E+02 -0.12885625514E+02  0.38142712584E+02  0.43265158581E+02  0.00000000000E+00 0.  1.
         -4    1    1    2    0  502 -0.15841972066E+02  0.12885625514E+02  0.22304965301E+02  0.30241013556E+02  0.00000000000E+00 0. -1.
<mgrwt>
<rscale>  2 0.20420760E+02</rscale>
<asrwt>0</asrwt>
<pdfrwt beam="1">  1       21 0.10304142E-01 0.20420760E+02</pdfrwt>
<pdfrwt beam="2">  1       21 0.10044996E-02 0.20420760E+02</pdfrwt>
<totfact> 0.18182743E+08</totfact>
</mgrwt>
</event>
<event>
 4    1  0.7616518E+004  0.2248831E+02  0.7546771E-02  0.1699941E+00
         21   -1    0    0  503  502  0.00000000000E+00  0.00000000000E+00  0.70569953811E+01  0.70569953811E+01  0.00000000000E+00 0.  1.
         21   -1    0    0  501  503 -0.00000000000E+00 -0.00000000000E+00 -0.76409573662E+02  0.76409573662E+02  0.00000000000E+00 0.  1.
          5    1    1    2  501    0  0.26800633805E+01  0.22328038332E+02 -0.24274500498E+02  0.33090412659E+02  0.00000000000E+00 0.  1.
         -5    1    1    2    0  502 -0.26800633805E+01 -0.22328038332E+02 -0.45078077782E+02  0.50376156384E+02  0.00000000000E+00 0. -1.
<mgrwt>
<rscale>  2 0.22488309E+02</rscale>
<asrwt>0</asrwt>
<pdfrwt beam="1">  1       21 0.10856916E-02 0.22488309E+02</pdfrwt>
<pdfrwt beam="2">  1       21 0.11755319E-01 0.22488309E+02</pdfrwt>
<totfact> 0.13391323E+08</totfact>
</mgrwt>
</event>
<event>
 4    1  0.7616518E+004  0.2263818E+02  0.7546771E-02  0.1697443E+00
         21   -1    0    0  501  502  0.00000000000E+00  0.00000000000E+00  0.51135959608E+00  0.51135959608E+00  0.00000000000E+00 0. -1.
         21   -1    0    0  502  503 -0.00000000000E+00 -0.00000000000E+00 -0.10577804965E+04  0.10577804965E+04  0.00000000000E+00 0. -1.
          4    1    1    2  501    0  0.19191944842E+02 -0.12006524742E+02 -0.64992248296E+03  0.65031663153E+03  0.00000000000E+00 0.  1.
         -4    1    1    2    0  503 -0.19191944842E+02  0.12006524742E+02 -0.40734665391E+03  0.40797522453E+03  0.00000000000E+00 0. -1.
<mgrwt>
<rscale>  2 0.22638184E+02</rscale>
<asrwt>0</asrwt>
<pdfrwt beam="1">  1       21 0.78670954E-04 0.22638184E+02</pdfrwt>
<pdfrwt beam="2">  1       21 0.16273495E+00 0.22638184E+02</pdfrwt>
<totfact> 0.36442326E+07</totfact>
</mgrwt>
</event>
<event>
 4    1  0.7616518E+004  0.2005800E+02  0.7546771E-02  0.1744177E+00
         21   -1    0    0  501  502  0.00000000000E+00  0.00000000000E+00  0.11445772470E+03  0.11445772470E+03  0.00000000000E+00 0. -1.
         21   -1    0    0  502  503 -0.00000000000E+00 -0.00000000000E+00 -0.36720408208E+01  0.36720408208E+01  0.00000000000E+00 0. -1.
          2    1    1    2  501    0  0.17261267016E+02  0.10216254657E+02  0.67606056029E+02  0.70518806073E+02  0.00000000000E+00 0.  1.
         -2    1    1    2    0  503 -0.17261267016E+02 -0.10216254657E+02  0.43179627854E+02  0.47610959451E+02  0.00000000000E+00 0. -1.
<mgrwt>
<rscale>  2 0.20057996E+02</rscale>
<asrwt>0</asrwt>
<pdfrwt beam="1">  1       21 0.17608878E-01 0.20057996E+02</pdfrwt>
<pdfrwt beam="2">  1       21 0.56492945E-03 0.20057996E+02</pdfrwt>
<totfact> 0.17259460E+08</totfact>
</mgrwt>
</event>
<event>
 4    1  0.7616518E+004  0.2080363E+02  0.7546771E-02  0.1729803E+00
         21   -1    0    0  501  502  0.00000000000E+00  0.00000000000E+00  0.54966375757E+02  0.54966375757E+02  0.00000000000E+00 0.  1.
         21   -1    0    0  502  503 -0.00000000000E+00 -0.00000000000E+00 -0.81242175827E+01  0.81242175827E+01  0.00000000000E+00 0.  1.
          4    1    1    2  501    0 -0.43760030448E+01 -0.20338180348E+02  0.17882124752E+02  0.27432851988E+02  0.00000000000E+00 0.  1.
         -4    1    1    2    0  503  0.43760030448E+01  0.20338180348E+02  0.28960033422E+02  0.35657741352E+02  0.00000000000E+00 0. -1.
<mgrwt>
<rscale>  2 0.20803629E+02</rscale>
<asrwt>0</asrwt>
<pdfrwt beam="1">  1       21 0.84563652E-02 0.20803629E+02</pdfrwt>
<pdfrwt beam="2">  1       21 0.12498797E-02 0.20803629E+02</pdfrwt>
<totfact> 0.18215973E+08</totfact>
</mgrwt>
</event>
<event>
 4    1  0.7616518E+004  0.3227127E+02  0.7546771E-02  0.1574259E+00
         21   -1    0    0  501  502  0.00000000000E+00  0.00000000000E+00  0.22193171963E+02  0.22193171963E+02  0.00000000000E+00 0. -1.
         21   -1    0    0  502  503 -0.00000000000E+00 -0.00000000000E+00 -0.61995756358E+02  0.61995756358E+02  0.00000000000E+00 0. -1.
          1    1    1    2  501    0 -0.29047687196E+02  0.14059396388E+02  0.85254650674E+00  0.32282527686E+02  0.00000000000E+00 0.  1.
         -1    1    1    2    0  503  0.29047687196E+02 -0.14059396388E+02 -0.40655130902E+02  0.51906400635E+02  0.00000000000E+00 0. -1.
<mgrwt>
<rscale>  2 0.32271268E+02</rscale>
<asrwt>0</asrwt>
<pdfrwt beam="1">  1       21 0.34143341E-02 0.32271268E+02</pdfrwt>
<pdfrwt beam="2">  1       21 0.95378088E-02 0.32271268E+02</pdfrwt>
<totfact> 0.35462233E+07</totfact>
</mgrwt>
</event>
<event>
 4    1  0.7616518E+004  0.2386426E+02  0.7546771E-02  0.1677872E+00
         21   -1    0    0  503  502  0.00000000000E+00  0.00000000000E+00  0.63104913366E+02  0.63104913366E+02  0.00000000000E+00 0.  1.
         21   -1    0    0  501  503 -0.00000000000E+00 -0.00000000000E+00 -0.90652661387E+01  0.90652661387E+01  0.00000000000E+00 0.  1.
          4    1    1    2  501    0  0.22004065877E+02 -0.92371028220E+01  0.24605957158E+02  0.34277632814E+02  0.00000000000E+00 0. -1.
         -4    1    1    2    0  502 -0.22004065877E+02  0.92371028220E+01  0.29433690068E+02  0.37892546690E+02  0.00000000000E+00 0.  1.
<mgrwt>
<rscale>  2 0.23864262E+02</rscale>
<asrwt>0</asrwt>
<pdfrwt beam="1">  1       21 0.97084479E-02 0.23864262E+02</pdfrwt>
<pdfrwt beam="2">  1       21 0.13946564E-02 0.23864262E+02</pdfrwt>
<totfact> 0.12826244E+08</totfact>
</mgrwt>
</event>
<event>
 4    1  0.7616518E+004  0.2427522E+02  0.7546771E-02  0.1671636E+00
         21   -1    0    0  503  502  0.00000000000E+00  0.00000000000E+00  0.11537271515E+04  0.11537271515E+04  0.00000000000E+00 0. -1.
         21   -1    0    0  501  503 -0.00000000000E+00 -0.00000000000E+00 -0.52184580880E+00  0.52184580880E+00  0.00000000000E+00 0. -1.
          2    1    1    2  501    0  0.76315496824E+01 -0.23044434605E+02  0.49251504099E+03  0.49311292025E+03  0.00000000000E+00 0. -1.
         -2    1    1    2    0  502 -0.76315496824E+01  0.23044434605E+02  0.66069026476E+03  0.66113607711E+03  0.00000000000E+00 0.  1.
<mgrwt>
<rscale>  2 0.24275224E+02</rscale>
<asrwt>0</asrwt>
<pdfrwt beam="1">  1       21 0.17749444E+00 0.24275224E+02</pdfrwt>
<pdfrwt beam="2">  1       21 0.80284894E-04 0.24275224E+02</pdfrwt>
<totfact> 0.28963101E+07</totfact>
</mgrwt>
</event>
<event>
 4    1  0.7616518E+004  0.2307593E+02  0.7546771E-02  0.1690282E+00
         21   -1    0    0  501  502  0.00000000000E+00  0.00000000000E+00  0.21941545014E+02  0.21941545014E+02  0.00000000000E+00 0. -1.
         21   -1    0    0  502  503 -0.00000000000E+00 -0.00000000000E+00 -0.24275425879E+02  0.24275425879E+02  0.00000000000E+00 0. -1.
          5    1    1    2  501    0 -0.14309670769E+02  0.18103369837E+02 -0.15438156037E+01  0.23127517022E+02  0.00000000000E+00 0.  1.
         -5    1    1    2    0  503  0.14309670769E+02 -0.18103369837E+02 -0.79006526126E+00  0.23089453872E+02  0.00000000000E+00 0. -1.
<mgrwt>
<rscale>  2 0.23075933E+02</rscale>
<asrwt>0</asrwt>
<pdfrwt beam="1">  1       21 0.33756223E-02 0.23075933E+02</pdfrwt>
<pdfrwt beam="2">  1       21 0.37346809E-02 0.23075933E+02</pdfrwt>
<totfact> 0.15139187E+08</totfact>
</mgrwt>
</event>
<event>
 4    1  0.7616518E+004  0.2464168E+02  0.7546771E-02  0.1666203E+00
         21   -1    0    0  503  502  0.00000000000E+00  0.00000000000E+00  0.70853987834E+02  0.70853987834E+02  0.00000000000E+00 0.  1.
         21   -1    0    0  501  503 -0.00000000000E+00 -0.00000000000E+00 -0.95495650227E+01  0.95495650227E+01  0.00000000000E+00 0.  1.
          5    1    1    2  501    0  0.24140421231E+02 -0.49449198634E+01  0.17775930638E+02  0.30384138621E+02  0.00000000000E+00 0.  1.
         -5    1    1    2    0  502 -0.24140421231E+02  0.49449198634E+01  0.43528492172E+02  0.50019414236E+02  0.00000000000E+00 0. -1.
<mgrwt>
<rscale>  2 0.24641675E+02</rscale>
<asrwt>0</asrwt>
<pdfrwt beam="1">  1       21 0.10900613E-01 0.24641675E+02</pdfrwt>
<pdfrwt beam="2">  1       21 0.14691639E-02 0.24641675E+02</pdfrwt>
<totfact> 0.98648930E+07</totfact>
</mgrwt>
</event>
<event>
 4    1  0.7616518E+004  0.5345880E+02  0.7546771E-02  0.1427531E+00
         21   -1    0    0  501  502  0.00000000000E+00  0.00000000000E+00  0.30163722060E+02  0.30163722060E+02  0.00000000000E+00 0.  1.
         21   -1    0    0  502  503 -0.00000000000E+00 -0.00000000000E+00 -0.95347321640E+02  0.95347321640E+02  0.00000000000E+00 0.  1.
          5    1    1    2  501    0  0.25871132820E+02 -0.46781704920E+02 -0.37582160629E+02  0.65347243447E+02  0.00000000000E+00 0.  1.
         -5    1    1    2    0  503 -0.25871132820E+02  0.46781704920E+02 -0.27601438951E+02  0.60163800252E+02  0.00000000000E+00 0. -1.
<mgrwt>
<rscale>  2 0.53458801E+02</rscale>
<asrwt>0</asrwt>
<pdfrwt beam="1">  1       21 0.46405727E-02 0.53458801E+02</pdfrwt>
<pdfrwt beam="2">  1       21 0.14668819E-01 0.53458801E+02</pdfrwt>
<totfact> 0.11218949E+07</totfact>
</mgrwt>
</event>
<event>
 4    1  0.7616518E+004  0.2991478E+02  0.7546771E-02  0.1599033E+00
         21   -1    0    0  503  502  0.00000000000E+00  0.00000000000E+00  0.29367034060E+02  0.29367034060E+02  0.00000000000E+00 0.  1.
         21   -1    0    0  501  503 -0.00000000000E+00 -0.00000000000E+00 -0.36756954227E+02  0.36756954227E+02  0.00000000000E+00 0.  1.
          4    1    1    2  501    0 -0.29552365280E+02 -0.46424155229E+01  0.99755398705E+01  0.31534199074E+02  0.00000000000E+00 0. -1.
         -4    1    1    2    0  502  0.29552365280E+02  0.46424155229E+01 -0.17365460038E+02  0.34589789214E+02  0.00000000000E+00 0.  1.
<mgrwt>
<rscale>  2 0.29914784E+02</rscale>
<asrwt>0</asrwt>
<pdfrwt beam="1">  1       21 0.45180053E-02 0.29914784E+02</pdfrwt>
<pdfrwt beam="2">  1       21 0.56549160E-02 0.29914784E+02</pdfrwt>
<totfact> 0.52753129E+07</totfact>
</mgrwt>
</event>
<event>
 4    1  0.7616518E+004  0.2066809E+02  0.7546771E-02  0.1732360E+00
         21   -1    0    0  503  502  0.00000000000E+00  0.00000000000E+00  0.32451809093E+02  0.32451809093E+02  0.00000000000E+00 0.  1.
         21   -1    0    0  501  503 -0.00000000000E+00 -0.00000000000E+00 -0.13219260241E+02  0.13219260241E+02  0.00000000000E+00 0.  1.
          5    1    1    2  501    0 -0.20238365768E+02 -0.41926857017E+01  0.81293589549E+01  0.22209379536E+02  0.00000000000E+00 0. -1.
         -5    1    1    2    0  502  0.20238365768E+02  0.41926857017E+01  0.11103189897E+02  0.23461689799E+02  0.00000000000E+00 0.  1.
<mgrwt>
<rscale>  2 0.20668093E+02</rscale>
<asrwt>0</asrwt>
<pdfrwt beam="1">  1       21 0.49925860E-02 0.20668093E+02</pdfrwt>
<pdfrwt beam="2">  1       21 0.20337324E-02 0.20668093E+02</pdfrwt>
<totfact> 0.20250904E+08</totfact>
</mgrwt>
</event>
<event>
 4    1  0.7616518E+004  0.6616490E+02  0.7546771E-02  0.1373642E+00
         21   -1    0    0  501  502  0.00000000000E+00  0.00000000000E+00  0.17828634944E+02  0.17828634944E+02  0.00000000000E+00 0. -1.
         21   -1    0    0  502  503 -0.00000000000E+00 -0.00000000000E+00 -0.25088942755E+03  0.25088942755E+03  0.00000000000E+00 0. -1.
          3    1    1    2  501    0 -0.64259558374E+02  0.15763963345E+02 -0.96926755850E+02  0.11735667592E+03  0.00000000000E+00 0. -1.
         -3    1    1    2    0  503  0.64259558374E+02 -0.15763963345E+02 -0.13613403676E+03  0.15136138658E+03  0.00000000000E+00 0.  1.
<mgrwt>
<rscale>  2 0.66164895E+02</rscale>
<asrwt>0</asrwt>
<pdfrwt beam="1">  1       21 0.27428667E-02 0.66164895E+02</pdfrwt>
<pdfrwt beam="2">  1       21 0.38598376E-01 0.66164895E+02</pdfrwt>
<totfact> 0.45107622E+06</totfact>
</mgrwt>
</event>
<event>
 4    1  0.7616518E+004  0.2248746E+02  0.7546771E-02  0.1699956E+00
         21   -1    0    0  503  502  0.00000000000E+00  0.00000000000E+00  0.12166415365E+04  0.12166415365E+04  0.00000000000E+00 0. -1.
         21   -1    0    0  501  503 -0.00000000000E+00 -0.00000000000E+00 -0.45261267005E+00  0.45261267005E+00  0.00000000000E+00 0. -1.
          5    1    1    2  501    0 -0.17430407211E+01  0.22419803577E+02  0.78202142410E+03  0.78234467694E+03  0.00000000000E+00 0.  1.
         -5    1    1    2    0  502  0.17430407211E+01 -0.22419803577E+02  0.43416749968E+03  0.43474947218E+03  0.00000000000E+00 0. -1.
<mgrwt>
<rscale>  2 0.22487458E+02</rscale>
<asrwt>0</asrwt>
<pdfrwt beam="1">  1       21 0.18717300E+00 0.22487458E+02</pdfrwt>
<pdfrwt beam="2">  1       21 0.69633692E-04 0.22487458E+02</pdfrwt>
<totfact> 0.30649094E+07</totfact>
</mgrwt>
</event>
<event>
 4    1  0.7616518E+004  0.2199478E+02  0.7546771E-02  0.1708342E+00
         21   -1    0    0  503  502  0.00000000000E+00  0.00000000000E+00  0.27826321597E+03  0.27826321597E+03  0.00000000000E+00 0.  1.
         21   -1    0    0  501  503 -0.00000000000E+00 -0.00000000000E+00 -0.22437056297E+01  0.22437056297E+01  0.00000000000E+00 0.  1.
          1    1    1    2  501    0  0.35435958662E+01  0.21707447995E+02  0.20455999852E+03  0.20573906621E+03  0.00000000000E+00 0.  1.
         -1    1    1    2    0  502 -0.35435958662E+01 -0.21707447995E+02  0.71459511826E+02  0.74767855396E+02  0.00000000000E+00 0. -1.
<mgrwt>
<rscale>  2 0.21994781E+02</rscale>
<asrwt>0</asrwt>
<pdfrwt beam="1">  1       21 0.42809698E-01 0.21994781E+02</pdfrwt>
<pdfrwt beam="2">  1       21 0.34518570E-03 0.21994781E+02</pdfrwt>
<totfact> 0.73853104E+07</totfact>
</mgrwt>
</event>
<event>
 4    1  0.7616518E+004  0.2011766E+02  0.7546771E-02  0.1742998E+00
         21   -1    0    0  503  502  0.00000000000E+00  0.00000000000E+00  0.12374484408E+01  0.12374484408E+01  0.00000000000E+00 0. -1.
         21   -1    0    0  501  503 -0.00000000000E+00 -0.00000000000E+00 -0.34677751991E+03  0.34677751991E+03  0.00000000000E+00 0. -1.
          4    1    1    2  501    0  0.15750383068E+02  0.12515815930E+02 -0.21426216129E+03  0.21520453986E+03  0.00000000000E+00 0.  1.
         -4    1    1    2    0  502 -0.15750383068E+02 -0.12515815930E+02 -0.13127791017E+03  0.13281042848E+03  0.00000000000E+00 0. -1.
<mgrwt>
<rscale>  2 0.20117659E+02</rscale>
<asrwt>0</asrwt>
<pdfrwt beam="1">  1       21 0.19037646E-03 0.20117659E+02</pdfrwt>
<pdfrwt beam="2">  1       21 0.53350452E-01 0.20117659E+02</pdfrwt>
<totfact> 0.11175158E+08</totfact>
</mgrwt>
</event>
<event>
 4    1  0.7616518E+004  0.3124414E+02  0.7546771E-02  0.1584730E+00
         21   -1    0    0  503  502  0.00000000000E+00  0.00000000000E+00  0.14065182408E+02  0.14065182408E+02  0.00000000000E+00 0.  1.
         21   -1    0    0  501  503 -0.00000000000E+00 -0.00000000000E+00 -0.72576136035E+02  0.72576136035E+02  0.00000000000E+00 0.  1.
          5    1    1    2  501    0  0.19680832892E+02 -0.24266464070E+02 -0.38310582288E+02  0.49435788423E+02  0.00000000000E+00 0. -1.
         -5    1    1    2    0  502 -0.19680832892E+02  0.24266464070E+02 -0.20200371339E+02  0.37205530019E+02  0.00000000000E+00 0.  1.
<mgrwt>
<rscale>  2 0.31244143E+02</rscale>
<asrwt>0</asrwt>
<pdfrwt beam="1">  1       21 0.21638742E-02 0.31244143E+02</pdfrwt>
<pdfrwt beam="2">  1       21 0.11165559E-01 0.31244143E+02</pdfrwt>
<totfact> 0.55319264E+07</totfact>
</mgrwt>
</event>
<event>
 4    1  0.7616518E+004  0.3148997E+02  0.7546771E-02  0.1582180E+00
         21   -1    0    0  501  502  0.00000000000E+00  0.00000000000E+00  0.19366440046E+03  0.19366440046E+03  0.00000000000E+00 0.  1.
         21   -1    0    0  502  503 -0.00000000000E+00 -0.00000000000E+00 -0.55596797474E+01  0.55596797474E+01  0.00000000000E+00 0.  1.
          5    1    1    2  501    0 -0.31373879632E+02 -0.27014324689E+01  0.66048914259E+02  0.73171559607E+02  0.00000000000E+00 0. -1.
         -5    1    1    2    0  503  0.31373879632E+02  0.27014324689E+01  0.12205580645E+03  0.12605252060E+03  0.00000000000E+00 0.  1.
<mgrwt>
<rscale>  2 0.31489968E+02</rscale>
<asrwt>0</asrwt>
<pdfrwt beam="1">  1       21 0.29794518E-01 0.31489968E+02</pdfrwt>
<pdfrwt beam="2">  1       21 0.85533550E-03 0.31489968E+02</pdfrwt>
<totfact> 0.40986656E+07</totfact>
</mgrwt>
</event>
<event>
 4    1  0.7616518E+004  0.2307774E+02  0.7546771E-02  0.1690253E+00
         21   -1    0    0  503  502  0.00000000000E+00  0.00000000000E+00  0.26635409359E+02  0.26635409359E+02  0.00000000000E+00 0.  1.
         21   -1    0    0  501  503 -0.00000000000E+00 -0.00000000000E+00 -0.20149990100E+02  0.20149990100E+02  0.00000000000E+00 0.  1.
          4    1    1    2  501    0 -0.22298420984E+02  0.59466433661E+01  0.11928730115E+01  0.23108550186E+02  0.00000000000E+00 0.  1.
         -4    1    1    2    0  502  0.22298420984E+02 -0.59466433661E+01  0.52925462469E+01  0.23676849272E+02  0.00000000000E+00 0. -1.
<mgrwt>
<rscale>  2 0.23077741E+02</rscale>
<asrwt>0</asrwt>
<pdfrwt beam="1">  1       21 0.40977553E-02 0.23077741E+02</pdfrwt>
<pdfrwt beam="2">  1       21 0.30999985E-02 0.23077741E+02</pdfrwt>
<totfact> 0.14943897E+08</totfact>
</mgrwt>
</event>
<event>
 4    1  0.7616518E+004  0.2287192E+02  0.7546771E-02  0.1693595E+00
         21   -1    0    0  501  502  0.00000000000E+00  0.00000000000E+00  0.23138533086E+01  0.23138533086E+01  0.00000000000E+00 0. -1.
         21   -1    0    0  502  503 -0.00000000000E+00 -0.00000000000E+00 -0.24662229358E+03  0.24662229358E+03  0.00000000000E+00 0. -1.
          4    1    1    2  501    0  0.77358552585E+00  0.22858829108E+02 -0.15807346667E+03  0.15971958355E+03  0.00000000000E+00 0.  1.
         -4    1    1    2    0  503 -0.77358552585E+00 -0.22858829108E+02 -0.86234973600E+02  0.89216563342E+02  0.00000000000E+00 0. -1.
<mgrwt>
<rscale>  2 0.22871915E+02</rscale>
<asrwt>0</asrwt>
<pdfrwt beam="1">  1       21 0.35597760E-03 0.22871915E+02</pdfrwt>
<pdfrwt beam="2">  1       21 0.37941873E-01 0.22871915E+02</pdfrwt>
<totfact> 0.89537352E+07</totfact>
</mgrwt>
</event>
<event>
 4    1  0.7616518E+004  0.3192632E+02  0.7546771E-02  0.1577722E+00
         21   -1    0    0  501  502  0.00000000000E+00  0.00000000000E+00  0.35618974526E+02  0.35618974526E+02  0.00000000000E+00 0. -1.
         21   -1    0    0  502  503 -0.00000000000E+00 -0.00000000000E+00 -0.30735333444E+02  0.30735333444E+02  0.00000000000E+00 0. -1.
          4    1    1    2  501    0  0.19701367962E+02  0.25122619438E+02 -0.62692182478E+01  0.32536026254E+02  0.00000000000E+00 0.  1.
         -4    1    1    2    0  503 -0.19701367962E+02 -0.25122619438E+02  0.11152859330E+02  0.33818281715E+02  0.00000000000E+00 0. -1.
<mgrwt>
<rscale>  2 0.31926320E+02</rscale>
<asrwt>0</asrwt>
<pdfrwt beam="1">  1       21 0.54798422E-02 0.31926320E+02</pdfrwt>
<pdfrwt beam="2">  1       21 0.47285128E-02 0.31926320E+02</pdfrwt>
<totfact> 0.52332097E+07</totfact>
</mgrwt>
</event>
<event>
 4    1  0.7616518E+004  0.2026978E+02  0.7546771E-02  0.1740016E+00
         21   -1    0    0  501  502  0.00000000000E+00  0.00000000000E+00  0.19583611372E+01  0.19583611372E+01  0.00000000000E+00 0.  1.
         21   -1    0    0  502  503 -0.00000000000E+00 -0.00000000000E+00 -0.22427119135E+03  0.22427119135E+03  0.00000000000E+00 0.  1.
          4    1    1    2  501    0  0.23165756837E+01 -0.20136968506E+02 -0.13988973679E+03  0.14135063665E+03  0.00000000000E+00 0. -1.
         -4    1    1    2    0  503 -0.23165756837E+01  0.20136968506E+02 -0.82423093423E+02  0.84878915833E+02  0.00000000000E+00 0.  1.
<mgrwt>
<rscale>  2 0.20269781E+02</rscale>
<asrwt>0</asrwt>
<pdfrwt beam="1">  1       21 0.30128636E-03 0.20269781E+02</pdfrwt>
<pdfrwt beam="2">  1       21 0.34503257E-01 0.20269781E+02</pdfrwt>
<totfact> 0.13171983E+08</totfact>
</mgrwt>
</event>
<event>
 4    1  0.7616518E+004  0.3733673E+02  0.7546771E-02  0.1528778E+00
         21   -1    0    0  501  502  0.00000000000E+00  0.00000000000E+00  0.69636564512E+02  0.69636564512E+02  0.00000000000E+00 0.  1.
         21   -1    0    0  502  503 -0.00000000000E+00 -0.00000000000E+00 -0.22744135496E+02  0.22744135496E+02  0.00000000000E+00 0.  1.
          4    1    1    2  501    0 -0.96539521787E+01 -0.36067056945E+02  0.39435788686E+02  0.54306655381E+02  0.00000000000E+00 0.  1.
         -4    1    1    2    0  503  0.96539521787E+01  0.36067056945E+02  0.74566403296E+01  0.38074044628E+02  0.00000000000E+00 0. -1.
<mgrwt>
<rscale>  2 0.37336730E+02</rscale>
<asrwt>0</asrwt>
<pdfrwt beam="1">  1       21 0.10713318E-01 0.37336730E+02</pdfrwt>
<pdfrwt beam="2">  1       21 0.34990978E-02 0.37336730E+02</pdfrwt>
<totfact> 0.28838899E+07</totfact>
</mgrwt>
</event>
<event>
 4    1  0.7616518E+004  0.3948383E+02  0.7546771E-02  0.1512045E+00
         21   -1    0    0  503  502  0.00000000000E+00  0.00000000000E+00  0.17224367255E+02  0.17224367255E+02  0.00000000000E+00 0.  1.
         21   -1    0    0  501  503 -0.00000000000E+00 -0.00000000000E+00 -0.94606079538E+02  0.94606079538E+02  0.00000000000E+00 0.  1.
          2    1    1    2  501    0 -0.28480953969E+02 -0.27346080605E+02 -0.27055787726E+02  0.47864271779E+02  0.00000000000E+00 0.  1.
         -2    1    1    2    0  502  0.28480953969E+02  0.27346080605E+02 -0.50325924557E+02  0.63966175014E+02  0.00000000000E+00 0. -1.
<mgrwt>
<rscale>  2 0.39483830E+02</rscale>
<asrwt>0</asrwt>
<pdfrwt beam="1">  1       21 0.26499027E-02 0.39483830E+02</pdfrwt>
<pdfrwt beam="2">  1       21 0.14554781E-01 0.39483830E+02</pdfrwt>
<totfact> 0.26775498E+07</totfact>
</mgrwt>
</event>
<event>
 4    1  0.7616518E+004  0.2029756E+02  0.7546771E-02  0.1739475E+00
         21   -1    0    0  501  502  0.00000000000E+00  0.00000000000E+00  0.12731055301E+03  0.12731055301E+03  0.00000000000E+00 0. -1.
         21   -1    0    0  502  503 -0.00000000000E+00 -0.00000000000E+00 -0.34536625583E+01  0.34536625583E+01  0.00000000000E+00 0. -1.
          4    1    1    2  501    0  0.18710902994E+02  0.78672185786E+01  0.45518748629E+02  0.49839216444E+02  0.00000000000E+00 0. -1.
         -4    1    1    2    0  503 -0.18710902994E+02 -0.78672185786E+01  0.78338141823E+02  0.80924999125E+02  0.00000000000E+00 0.  1.
<mgrwt>
<rscale>  2 0.20297562E+02</rscale>
<asrwt>0</asrwt>
<pdfrwt beam="1">  1       21 0.19586235E-01 0.20297562E+02</pdfrwt>
<pdfrwt beam="2">  1       21 0.53133280E-03 0.20297562E+02</pdfrwt>
<totfact> 0.15783212E+08</totfact>
</mgrwt>
</event>
<event>
 4    1  0.7616518E+004  0.2493066E+02  0.7546771E-02  0.1662000E+00
         21   -1    0    0  501  502  0.00000000000E+00  0.00000000000E+00  0.18267365339E+01  0.18267365339E+01  0.00000000000E+00 0.  1.
         21   -1    0    0  502  503 -0.00000000000E+00 -0.00000000000E+00 -0.34076617366E+03  0.34076617366E+03  0.00000000000E+00 0.  1.
          2    1    1    2  501    0  0.17034664251E+02  0.18203243902E+02 -0.16277035498E+03  0.16466853474E+03  0.00000000000E+00 0. -1.
         -2    1    1    2    0  503 -0.17034664251E+02 -0.18203243902E+02 -0.17616908214E+03  0.17792437545E+03  0.00000000000E+00 0.  1.
<mgrwt>
<rscale>  2 0.24930661E+02</rscale>
<asrwt>0</asrwt>
<pdfrwt beam="1">  1       21 0.28103665E-03 0.24930661E+02</pdfrwt>
<pdfrwt beam="2">  1       21 0.52425516E-01 0.24930661E+02</pdfrwt>
<totfact> 0.69530521E+07</totfact>
</mgrwt>
</event>
<event>
 4    1  0.7616518E+004  0.2467274E+02  0.7546771E-02  0.1665747E+00
         21   -1    0    0  501  502  0.00000000000E+00  0.00000000000E+00  0.10339274282E+03  0.10339274282E+03  0.00000000000E+00 0.  1.
         21   -1    0    0  502  503 -0.00000000000E+00 -0.00000000000E+00 -0.63228092498E+01  0.63228092498E+01  0.00000000000E+00 0.  1.
          2    1    1    2  501    0 -0.19507418729E+02  0.15106441539E+02  0.62925918277E+02  0.67590052171E+02  0.00000000000E+00 0. -1.
         -2    1    1    2    0  503  0.19507418729E+02 -0.15106441539E+02  0.34144015298E+02  0.42125499904E+02  0.00000000000E+00 0.  1.
<mgrwt>
<rscale>  2 0.24672737E+02</rscale>
<asrwt>0</asrwt>
<pdfrwt beam="1">  1       21 0.15906575E-01 0.24672737E+02</pdfrwt>
<pdfrwt beam="2">  1       21 0.97273996E-03 0.24672737E+02</pdfrwt>
<totfact> 0.97206761E+07</totfact>
</mgrwt>
</event>
<event>
 4    1  0.7616518E+004  0.2314994E+02  0.7546771E-02  0.1689091E+00
         21   -1    0    0  501  502  0.00000000000E+00  0.00000000000E+00  0.20122469650E+03  0.20122469650E+03  0.00000000000E+00 0. -1.
         21   -1    0    0  502  503 -0.00000000000E+00 -0.00000000000E+00 -0.38051085784E+01  0.38051085784E+01  0.00000000000E+00 0. -1.
          5    1    1    2  501    0  0.16716895979E+02  0.16014524790E+02  0.15486656514E+03  0.15658726836E+03  0.00000000000E+00 0. -1.
         -5    1    1    2    0  503 -0.16716895979E+02 -0.16014524790E+02  0.42553022776E+02  0.48442536709E+02  0.00000000000E+00 0.  1.
<mgrwt>
<rscale>  2 0.23149938E+02</rscale>
<asrwt>0</asrwt>
<pdfrwt beam="1">  1       21 0.30957637E-01 0.23149938E+02</pdfrwt>
<pdfrwt beam="2">  1       21 0.58540148E-03 0.23149938E+02</pdfrwt>
<totfact> 0.62903251E+07</totfact>
</mgrwt>
</event>
<event>
 4    1  0.7616518E+004  0.3533742E+02  0.7546771E-02  0.1545624E+00
         21   -1    0    0  503  502  0.00000000000E+00  0.00000000000E+00  0.12490269035E+02  0.12490269035E+02  0.00000000000E+00 0. -1.
         21   -1    0    0  501  503 -0.00000000000E+00 -0.00000000000E+00 -0.10067505880E+03  0.10067505880E+03  0.00000000000E+00 0. -1.
          4    1    1    2  501    0 -0.23848810805E+02  0.26076182409E+02 -0.39379021975E+02  0.52909738589E+02  0.00000000000E+00 0.  1.
         -4    1    1    2    0  502  0.23848810805E+02 -0.26076182409E+02 -0.48805767787E+02  0.60255589244E+02  0.00000000000E+00 0. -1.
<mgrwt>
<rscale>  2 0.35337417E+02</rscale>
<asrwt>0</asrwt>
<pdfrwt beam="1">  1       21 0.19215799E-02 0.35337417E+02</pdfrwt>
<pdfrwt beam="2">  1       21 0.15488470E-01 0.35337417E+02</pdfrwt>
<totfact> 0.38996340E+07</totfact>
</mgrwt>
</event>
<event>
 4    1  0.7616518E+004  0.2095265E+02  0.7546771E-02  0.1727021E+00
         21   -1    0    0  501  502  0.00000000000E+00  0.00000000000E+00  0.50724789159E+02  0.50724789159E+02  0.00000000000E+00 0. -1.
         21   -1    0    0  502  503 -0.00000000000E+00 -0.00000000000E+00 -0.92050731933E+01  0.92050731933E+01  0.00000000000E+00 0. -1.
          5    1    1    2  501    0 -0.16007798217E+02  0.13519019325E+02  0.28086151456E+02  0.35040624864E+02  0.00000000000E+00 0.  1.
         -5    1    1    2    0  503  0.16007798217E+02 -0.13519019325E+02  0.13433564509E+02  0.24889237488E+02  0.00000000000E+00 0. -1.
<mgrwt>
<rscale>  2 0.20952649E+02</rscale>
<asrwt>0</asrwt>
<pdfrwt beam="1">  1       21 0.78038135E-02 0.20952649E+02</pdfrwt>
<pdfrwt beam="2">  1       21 0.14161651E-02 0.20952649E+02</pdfrwt>
<totfact> 0.17230299E+08</totfact>
</mgrwt>
</event>
<event>
 4    1  0.7616518E+004  0.2213556E+02  0.7546771E-02  0.1705918E+00
         21   -1    0    0  503  502  0.00000000000E+00  0.00000000000E+00  0.18013806297E+01  0.18013806297E+01  0.00000000000E+00 0.  1.
         21   -1    0    0  501  503 -0.00000000000E+00 -0.00000000000E+00 -0.28621283401E+03  0.28621283401E+03  0.00000000000E+00 0.  1.
          5    1    1    2  501    0  0.12740000395E+02  0.18101808443E+02 -0.17429173504E+03  0.17569175274E+03  0.00000000000E+00 0.  1.
         -5    1    1    2    0  502 -0.12740000395E+02 -0.18101808443E+02 -0.11011971835E+03  0.11232246190E+03  0.00000000000E+00 0. -1.
<mgrwt>
<rscale>  2 0.22135561E+02</rscale>
<asrwt>0</asrwt>
<pdfrwt beam="1">  1       21 0.27713559E-03 0.22135561E+02</pdfrwt>
<pdfrwt beam="2">  1       21 0.44032726E-01 0.22135561E+02</pdfrwt>
<totfact> 0.96533414E+07</totfact>
</mgrwt>
</event>
<event>
 4    1  0.7616518E+004  0.2150326E+02  0.7546771E-02  0.1716987E+00
         21   -1    0    0  503  502  0.00000000000E+00  0.00000000000E+00  0.12931576505E+01  0.12931576505E+01  0.00000000000E+00 0. -1.
         21   -1    0    0  501  503 -0.00000000000E+00 -0.00000000000E+00 -0.38973346639E+03  0.38973346639E+03  0.00000000000E+00 0. -1.
          4    1    1    2  501    0  0.19003218185E+02  0.10063198117E+02 -0.13805131718E+03  0.13971598488E+03  0.00000000000E+00 0. -1.
         -4    1    1    2    0  502 -0.19003218185E+02 -0.10063198117E+02 -0.25038899156E+03  0.25131063915E+03  0.00000000000E+00 0.  1.
<mgrwt>
<rscale>  2 0.21503262E+02</rscale>
<asrwt>0</asrwt>
<pdfrwt beam="1">  1       21 0.19894704E-03 0.21503262E+02</pdfrwt>
<pdfrwt beam="2">  1       21 0.59959082E-01 0.21503262E+02</pdfrwt>
<totfact> 0.84816498E+07</totfact>
</mgrwt>
</event>
<event>
 4    1  0.7616518E+004  0.2634473E+02  0.7546771E-02  0.1642406E+00
         21   -1    0    0  503  502  0.00000000000E+00  0.00000000000E+00  0.37818394888E+03  0.37818394888E+03  0.00000000000E+00 0. -1.
         21   -1    0    0  501  503 -0.00000000000E+00 -0.00000000000E+00 -0.22827667772E+01  0.22827667772E+01  0.00000000000E+00 0. -1.
          4    1    1    2  501    0 -0.18251603425E+02 -0.18997987839E+02  0.10371744064E+03  0.10701099039E+03  0.00000000000E+00 0.  1.
         -4    1    1    2    0  502  0.18251603425E+02  0.18997987839E+02  0.27218374146E+03  0.27345572527E+03  0.00000000000E+00 0. -1.
<mgrwt>
<rscale>  2 0.26344726E+02</rscale>
<asrwt>0</asrwt>
<pdfrwt beam="1">  1       21 0.58182096E-01 0.26344726E+02</pdfrwt>
<pdfrwt beam="2">  1       21 0.35119519E-03 0.26344726E+02</pdfrwt>
<totfact> 0.41309861E+07</totfact>
</mgrwt>
</event>
<event>
 4    1  0.7616518E+004  0.2764343E+02  0.7546771E-02  0.1625700E+00
         21   -1    0    0  503  502  0.00000000000E+00  0.00000000000E+00  0.30391875592E+02  0.30391875592E+02  0.00000000000E+00 0. -1.
         21   -1    0    0  501  503 -0.00000000000E+00 -0.00000000000E+00 -0.26598376098E+02  0.26598376098E+02  0.00000000000E+00 0. -1.
          2    1    1    2  501    0  0.17913898539E+02 -0.21053535563E+02  0.85609974049E+01  0.28938724871E+02  0.00000000000E+00 0.  1.
         -2    1    1    2    0  502 -0.17913898539E+02  0.21053535563E+02 -0.47674979109E+01  0.28051526819E+02  0.00000000000E+00 0. -1.
<mgrwt>
<rscale>  2 0.27643428E+02</rscale>
<asrwt>0</asrwt>
<pdfrwt beam="1">  1       21 0.46756731E-02 0.27643428E+02</pdfrwt>
<pdfrwt beam="2">  1       21 0.40920579E-02 0.27643428E+02</pdfrwt>
<totfact> 0.82284265E+07</totfact>
</mgrwt>
</event>
<event>
 4    1  0.7616518E+004  0.4654210E+02  0.7546771E-02  0.1464938E+00
         21   -1    0    0  501  502  0.00000000000E+00  0.00000000000E+00  0.11212271527E+03  0.11212271527E+03  0.00000000000E+00 0.  1.
         21   -1    0    0  502  503 -0.00000000000E+00 -0.00000000000E+00 -0.21454361703E+02  0.21454361703E+02  0.00000000000E+00 0.  1.
          5    1    1    2  501    0 -0.12722355093E+02 -0.44769503302E+02  0.24266425843E+02  0.52488343165E+02  0.00000000000E+00 0. -1.
         -5    1    1    2    0  503  0.12722355093E+02  0.44769503302E+02  0.66401927722E+02  0.81088733806E+02  0.00000000000E+00 0.  1.
<mgrwt>
<rscale>  2 0.46542096E+02</rscale>
<asrwt>0</asrwt>
<pdfrwt beam="1">  1       21 0.17249648E-01 0.46542096E+02</pdfrwt>
<pdfrwt beam="2">  1       21 0.33006711E-02 0.46542096E+02</pdfrwt>
<totfact> 0.14376825E+07</totfact>
</mgrwt>
</event>
<event>
 4    1  0.7616518E+004  0.3177916E+02  0.7546771E-02  0.1579216E+00
         21   -1    0    0  501  502  0.00000000000E+00  0.00000000000E+00  0.45662918823E+02  0.45662918823E+02  0.00000000000E+00 0.  1.
         21   -1    0    0  502  503 -0.00000000000E+00 -0.00000000000E+00 -0.22125467741E+02  0.22125467741E+02  0.00000000000E+00 0.  1.
          1    1    1    2  501    0 -0.12085998338E+02  0.29391220167E+02  0.11095780111E+02  0.33660533492E+02  0.00000000000E+00 0.  1.
         -1    1    1    2    0  503  0.12085998338E+02 -0.29391220167E+02  0.12441670971E+02  0.34127853072E+02  0.00000000000E+00 0. -1.
<mgrwt>
<rscale>  2 0.31779163E+02</rscale>
<asrwt>0</asrwt>
<pdfrwt beam="1">  1       21 0.70250644E-02 0.31779163E+02</pdfrwt>
<pdfrwt beam="2">  1       21 0.34039181E-02 0.31779163E+02</pdfrwt>
<totfact> 0.58922354E+07</totfact>
</mgrwt>
</event>
<event>
 4    1  0.7616518E+004  0.2230259E+02  0.7546771E-02  0.1703071E+00
         21   -1    0    0  501  502  0.00000000000E+00  0.00000000000E+00  0.70470535622E+00  0.70470535622E+00  0.00000000000E+00 0.  1.
         21   -1    0    0  502  503 -0.00000000000E+00 -0.00000000000E+00 -0.76037759373E+03  0.76037759373E+03  0.00000000000E+00 0.  1.
          3    1    1    2  501    0  0.19192580469E+02  0.11360034225E+02 -0.48175561800E+03  0.48227158427E+03  0.00000000000E+00 0.  1.
         -3    1    1    2    0  503 -0.19192580469E+02 -0.11360034225E+02 -0.27791727037E+03  0.27881071481E+03  0.00000000000E+00 0. -1.
<mgrwt>
<rscale>  2 0.22302590E+02</rscale>
<asrwt>0</asrwt>
<pdfrwt beam="1">  1       21 0.10841645E-03 0.22302590E+02</pdfrwt>
<pdfrwt beam="2">  1       21 0.11698091E+00 0.22302590E+02</pdfrwt>
<totfact> 0.49684365E+07</totfact>
</mgrwt>
</event>
<event>
 4    1  0.7616518E+004  0.3028850E+02  0.7546771E-02  0.1594921E+00
         21   -1    0    0  503  502  0.00000000000E+00  0.00000000000E+00  0.20517240569E+03  0.20517240569E+03  0.00000000000E+00 0.  1.
         21   -1    0    0  501  503 -0.00000000000E+00 -0.00000000000E+00 -0.49299957344E+01  0.49299957344E+01  0.00000000000E+00 0.  1.
          4    1    1    2  501    0  0.24861765603E+02 -0.17299873421E+02  0.68078652445E+02  0.74512387749E+02  0.00000000000E+00 0.  1.
         -4    1    1    2    0  502 -0.24861765603E+02  0.17299873421E+02  0.13216375751E+03  0.13559001367E+03  0.00000000000E+00 0. -1.
<mgrwt>
<rscale>  2 0.30288496E+02</rscale>
<asrwt>0</asrwt>
<pdfrwt beam="1">  1       21 0.31564979E-01 0.30288496E+02</pdfrwt>
<pdfrwt beam="2">  1       21 0.75846104E-03 0.30288496E+02</pdfrwt>
<totfact> 0.43825243E+07</totfact>
</mgrwt>
</event>
<event>
 4    1  0.7616518E+004  0.2203665E+02  0.7546771E-02  0.1707619E+00
         21   -1    0    0  503  502  0.00000000000E+00  0.00000000000E+00  0.98153792832E+00  0.98153792832E+00  0.00000000000E+00 0. -1.
         21   -1    0    0  501  503 -0.00000000000E+00 -0.00000000000E+00 -0.96906708302E+03  0.96906708302E+03  0.00000000000E+00 0. -1.
          4    1    1    2  501    0  0.22025121475E+02 -0.71262622650E+00 -0.14471302153E+03  0.14638125704E+03  0.00000000000E+00 0. -1.
         -4    1    1    2    0  502 -0.22025121475E+02  0.71262622650E+00 -0.82337252356E+03  0.82366736391E+03  0.00000000000E+00 0.  1.
<mgrwt>
<rscale>  2 0.22036647E+02</rscale>
<asrwt>0</asrwt>
<pdfrwt beam="1">  1       21 0.15100722E-03 0.22036647E+02</pdfrwt>
<pdfrwt beam="2">  1       21 0.14908588E+00 0.22036647E+02</pdfrwt>
<totfact> 0.17655953E+07</totfact>
</mgrwt>
</event>
<event>
 4    1  0.7616518E+004  0.2422739E+02  0.7546771E-02  0.1672354E+00
         21   -1    0    0  503  502  0.00000000000E+00  0.00000000000E+00  0.53038788700E+02  0.53038788700E+02  0.00000000000E+00 0.  1.
         21   -1    0    0  501  503 -0.00000000000E+00 -0.00000000000E+00 -0.11264874194E+02  0.11264874194E+02  0.00000000000E+00 0.  1.
          2    1    1    2  501    0  0.21520814349E+02  0.11127495242E+02  0.25150983406E+02  0.34921892373E+02  0.00000000000E+00 0. -1.
         -2    1    1    2    0  502 -0.21520814349E+02 -0.11127495242E+02  0.16622931100E+02  0.29381770521E+02  0.00000000000E+00 0.  1.
<mgrwt>
<rscale>  2 0.24227394E+02</rscale>
<asrwt>0</asrwt>
<pdfrwt beam="1">  1       21 0.81598135E-02 0.24227394E+02</pdfrwt>
<pdfrwt beam="2">  1       21 0.17330576E-02 0.24227394E+02</pdfrwt>
<totfact> 0.12313001E+08</totfact>
</mgrwt>
</event>
<event>
 4    1  0.7616518E+004  0.2233487E+02  0.7546771E-02  0.1702524E+00
         21   -1    0    0  503  502  0.00000000000E+00  0.00000000000E+00  0.45040419720E+02  0.45040419720E+02  0.00000000000E+00 0. -1.
         21   -1    0    0  501  503 -0.00000000000E+00 -0.00000000000E+00 -0.11457433446E+02  0.11457433446E+02  0.00000000000E+00 0. -1.
          1    1    1    2  501    0 -0.14469688293E+02  0.17013946351E+02  0.21948984115E+02  0.31314599685E+02  0.00000000000E+00 0. -1.
         -1    1    1    2    0  502  0.14469688293E+02 -0.17013946351E+02  0.11634002159E+02  0.25183253482E+02  0.00000000000E+00 0.  1.
<mgrwt>
<rscale>  2 0.22334866E+02</rscale>
<asrwt>0</asrwt>
<pdfrwt beam="1">  1       21 0.69292953E-02 0.22334866E+02</pdfrwt>
<pdfrwt beam="2">  1       21 0.17626821E-02 0.22334866E+02</pdfrwt>
<totfact> 0.15278014E+08</totfact>
</mgrwt>
</event>
<event>
 4    1  0.7616518E+004  0.2837966E+02  0.7546771E-02  0.1616722E+00
         21   -1    0    0  503  502  0.00000000000E+00  0.00000000000E+00  0.16195935053E+03  0.16195935053E+03  0.00000000000E+00 0.  1.
         21   -1    0    0  501  503 -0.00000000000E+00 -0.00000000000E+00 -0.50120227681E+01  0.50120227681E+01  0.00000000000E+00 0.  1.
          2    1    1    2  501    0  0.16578141443E+02  0.23034116902E+02  0.71096313001E+02  0.76551231456E+02  0.00000000000E+00 0.  1.
         -2    1    1    2    0  502 -0.16578141443E+02 -0.23034116902E+02  0.85851014763E+02  0.90420141844E+02  0.00000000000E+00 0. -1.
<mgrwt>
<rscale>  2 0.28379664E+02</rscale>
<asrwt>0</asrwt>
<pdfrwt beam="1">  1       21 0.24916819E-01 0.28379664E+02</pdfrwt>
<pdfrwt beam="2">  1       21 0.77108055E-03 0.28379664E+02</pdfrwt>
<totfact> 0.64887789E+07</totfact>
</mgrwt>
</event>
<event>
 4    1  0.7616518E+004  0.2537781E+02  0.7546771E-02  0.1655634E+00
         21   -1    0    0  501  502  0.00000000000E+00  0.00000000000E+00  0.14256575167E+02  0.14256575167E+02  0.00000000000E+00 0. -1.
         21   -1    0    0  502  503 -0.00000000000E+00 -0.00000000000E+00 -0.45540190000E+02  0.45540190000E+02  0.00000000000E+00 0. -1.
          1    1    1    2  501    0  0.18444360516E+02  0.17430975253E+02 -0.18321100470E+02  0.31300096734E+02  0.00000000000E+00 0.  1.
         -1    1    1    2    0  503 -0.18444360516E+02 -0.17430975253E+02 -0.12962514363E+02  0.28496668432E+02  0.00000000000E+00 0. -1.
<mgrwt>
<rscale>  2 0.25377812E+02</rscale>
<asrwt>0</asrwt>
<pdfrwt beam="1">  1       21 0.21933193E-02 0.25377812E+02</pdfrwt>
<pdfrwt beam="2">  1       21 0.70061831E-02 0.25377812E+02</pdfrwt>
<totfact> 0.11133508E+08</totfact>
</mgrwt>
</event>
<event>
 4    1  0.7616518E+004  0.2406120E+02  0.7546771E-02  0.1674864E+00
         21   -1    0    0  503  502  0.00000000000E+00  0.00000000000E+00  0.21786399462E+03  0.21786399462E+03  0.00000000000E+00 0. -1.
         21   -1    0    0  501  503 -0.00000000000E+00 -0.00000000000E+00 -0.26574440801E+01  0.26574440801E+01  0.00000000000E+00 0. -1.
          5    1    1    2  501    0  0.23405963504E+02  0.55769373890E+01  0.10825172705E+03  0.11089354250E+03  0.00000000000E+00 0.  1.
         -5    1    1    2    0  502 -0.23405963504E+02 -0.55769373890E+01  0.10695482349E+03  0.10962789620E+03  0.00000000000E+00 0. -1.
<mgrwt>
<rscale>  2 0.24061200E+02</rscale>
<asrwt>0</asrwt>
<pdfrwt beam="1">  1       21 0.33517524E-01 0.24061200E+02</pdfrwt>
<pdfrwt beam="2">  1       21 0.40883772E-03 0.24061200E+02</pdfrwt>
<totfact> 0.93250584E+07</totfact>
</mgrwt>
</event>
<event>
 4    1  0.7616518E+004  0.4376873E+02  0.7546771E-02  0.1482178E+00
         21   -1    0    0  503  502  0.00000000000E+00  0.00000000000E+00  0.32621584257E+03  0.32621584257E+03  0.00000000000E+00 0.  1.
         21   -1    0    0  501  503 -0.00000000000E+00 -0.00000000000E+00 -0.61039032684E+01  0.61039032684E+01  0.00000000000E+00 0.  1.
          5    1    1    2  501    0  0.14430369780E+02 -0.41321497182E+02  0.19240859093E+03  0.19732401670E+03  0.00000000000E+00 0. -1.
         -5    1    1    2    0  502 -0.14430369780E+02  0.41321497182E+02  0.12770334837E+03  0.13499572914E+03  0.00000000000E+00 0.  1.
<mgrwt>
<rscale>  2 0.43768730E+02</rscale>
<asrwt>0</asrwt>
<pdfrwt beam="1">  1       21 0.50187039E-01 0.43768730E+02</pdfrwt>
<pdfrwt beam="2">  1       21 0.93906230E-03 0.43768730E+02</pdfrwt>
<totfact> 0.13826055E+07</totfact>
</mgrwt>
</event>
<event>
 4    1  0.7616518E+004  0.2716849E+02  0.7546771E-02  0.1631676E+00
         21   -1    0    0  501  502  0.00000000000E+00  0.00000000000E+00  0.13388038347E+02  0.13388038347E+02  0.00000000000E+00 0.  1.
         21   -1    0    0  502  503 -0.00000000000E+00 -0.00000000000E+00 -0.66308735415E+02  0.66308735415E+02  0.00000000000E+00 0.  1.
          1    1    1    2  501    0  0.12075505870E+02 -0.24337398519E+02 -0.42819376374E+02  0.50711199964E+02  0.00000000000E+00 0. -1.
         -1    1    1    2    0  503 -0.12075505870E+02  0.24337398519E+02 -0.10101320694E+02  0.28985573799E+02  0.00000000000E+00 0.  1.
<mgrwt>
<rscale>  2 0.27168489E+02</rscale>
<asrwt>0</asrwt>
<pdfrwt beam="1">  1       21 0.20596982E-02 0.27168489E+02</pdfrwt>
<pdfrwt beam="2">  1       21 0.10201344E-01 0.27168489E+02</pdfrwt>
<totfact> 0.67268101E+07</totfact>
</mgrwt>
</event>
<event>
 4    1  0.7616518E+004  0.3075252E+02  0.7546771E-02  0.1589916E+00
         21   -1    0    0  501  502  0.00000000000E+00  0.00000000000E+00  0.19086212856E+02  0.19086212856E+02  0.00000000000E+00 0. -1.
         21   -1    0    0  502  503 -0.00000000000E+00 -0.00000000000E+00 -0.49615338923E+02  0.49615338923E+02  0.00000000000E+00 0. -1.
          4    1    1    2  501    0 -0.37950902011E+01 -0.30517453197E+02 -0.16513218221E+02  0.34905644748E+02  0.00000000000E+00 0.  1.
         -4    1    1    2    0  503  0.37950902011E+01  0.30517453197E+02 -0.14015907846E+02  0.33795907031E+02  0.00000000000E+00 0. -1.
<mgrwt>
<rscale>  2 0.30752523E+02</rscale>
<asrwt>0</asrwt>
<pdfrwt beam="1">  1       21 0.29363404E-02 0.30752523E+02</pdfrwt>
<pdfrwt beam="2">  1       21 0.76331290E-02 0.30752523E+02</pdfrwt>
<totfact> 0.64440755E+07</totfact>
</mgrwt>
</event>
<event>
 4    1  0.7616518E+004  0.2189504E+02  0.7546771E-02  0.1710074E+00
         21   -1    0    0  503  502  0.00000000000E+00  0.00000000000E+00  0.23860503983E+02  0.23860503983E+02  0.00000000000E+00 0. -1.
         21   -1    0    0  501  503 -0.00000000000E+00 -0.00000000000E+00 -0.20238003193E+02  0.20238003193E+02  0.00000000000E+00 0. -1.
          5    1    1    2  501    0 -0.15277264396E+02 -0.15684319671E+02 -0.64920586324E-01  0.21895134292E+02  0.00000000000E+00 0. -1.
         -5    1    1    2    0  502  0.15277264396E+02  0.15684319671E+02  0.36874213761E+01  0.22203372883E+02  0.00000000000E+00 0.  1.
<mgrwt>
<rscale>  2 0.21895038E+02</rscale>
<asrwt>0</asrwt>
<pdfrwt beam="1">  1       21 0.36708468E-02 0.21895038E+02</pdfrwt>
<pdfrwt beam="2">  1       21 0.31135390E-02 0.21895038E+02</pdfrwt>
<totfact> 0.17361148E+08</totfact>
</mgrwt>
</event>
<event>
 4    1  0.7616518E+004  0.2202435E+02  0.7546771E-02  0.1707831E+00
         21   -1    0    0  503  502  0.00000000000E+00  0.00000000000E+00  0.98565022521E+01  0.98565022521E+01  0.00000000000E+00 0.  1.
         21   -1    0    0  501  503 -0.00000000000E+00 -0.00000000000E+00 -0.49501809506E+02  0.49501809506E+02  0.00000000000E+00 0.  1.
          1    1    1    2  501    0 -0.16086649273E+02 -0.15042992466E+02 -0.22088090483E+02  0.31192236989E+02  0.00000000000E+00 0.  1.
         -1    1    1    2    0  502  0.16086649273E+02  0.15042992466E+02 -0.17557216771E+02  0.28166074769E+02  0.00000000000E+00 0. -1.
<mgrwt>
<rscale>  2 0.22024348E+02</rscale>
<asrwt>0</asrwt>
<pdfrwt beam="1">  1       21 0.15163850E-02 0.22024348E+02</pdfrwt>
<pdfrwt beam="2">  1       21 0.76156630E-02 0.22024348E+02</pdfrwt>
<totfact> 0.16414681E+08</totfact>
</mgrwt>
</event>
<event>
 4    1  0.7616518E+004  0.2094652E+02  0.7546771E-02  0.1727135E+00
         21   -1    0    0  501  502  0.00000000000E+00  0.00000000000E+00  0.40888448297E+03  0.40888448297E+03  0.00000000000E+00 0.  1.
         21   -1    0    0  502  503 -0.00000000000E+00 -0.00000000000E+00 -0.18092434248E+01  0.18092434248E+01  0.00000000000E+00 0.  1.
          1    1    1    2  501    0  0.20215037971E+02 -0.54871639868E+01  0.33452613084E+03  0.33518127773E+03  0.00000000000E+00 0. -1.
         -1    1    1    2    0  503 -0.20215037971E+02  0.54871639868E+01  0.72549108708E+02  0.75512448663E+02  0.00000000000E+00 0.  1.
<mgrwt>
<rscale>  2 0.20946521E+02</rscale>
<asrwt>0</asrwt>
<pdfrwt beam="1">  1       21 0.62905231E-01 0.20946521E+02</pdfrwt>
<pdfrwt beam="2">  1       21 0.27834547E-03 0.20946521E+02</pdfrwt>
<totfact> 0.47122867E+07</totfact>
</mgrwt>
</event>
<event>
 4    1  0.7616518E+004  0.4837789E+02  0.7546771E-02  0.1454292E+00
         21   -1    0    0  503  502  0.00000000000E+00  0.00000000000E+00  0.73476159298E+02  0.73476159298E+02  0.00000000000E+00 0.  1.
         21   -1    0    0  501  503 -0.00000000000E+00 -0.00000000000E+00 -0.32239459361E+02  0.32239459361E+02  0.00000000000E+00 0.  1.
          5    1    1    2  501    0  0.41745485912E+02  0.24448617840E+02  0.26407121606E+02  0.55115846903E+02  0.00000000000E+00 0.  1.
         -5    1    1    2    0  502 -0.41745485912E+02 -0.24448617840E+02  0.14829578331E+02  0.50599771756E+02  0.00000000000E+00 0. -1.
<mgrwt>
<rscale>  2 0.48377893E+02</rscale>
<asrwt>0</asrwt>
<pdfrwt beam="1">  1       21 0.11304025E-01 0.48377893E+02</pdfrwt>
<pdfrwt beam="2">  1       21 0.49599168E-02 0.48377893E+02</pdfrwt>
<totfact> 0.15609026E+07</totfact>
</mgrwt>
</event>
<event>
 4    1  0.7616518E+004  0.3226223E+02  0.7546771E-02  0.1574350E+00
         21   -1    0    0  503  502  0.00000000000E+00  0.00000000000E+00  0.22625099831E+01  0.22625099831E+01  0.00000000000E+00 0.  1.
         21   -1    0    0  501  503 -0.00000000000E+00 -0.00000000000E+00 -0.66497203062E+03  0.66497203062E+03  0.00000000000E+00 0.  1.
          4    1    1    2  501    0  0.29582127264E+02  0.12874358225E+02 -0.51655810468E+03  0.51756461130E+03  0.00000000000E+00 0. -1.
         -4    1    1    2    0  502 -0.29582127264E+02 -0.12874358225E+02 -0.14615141595E+03  0.14966992930E+03  0.00000000000E+00 0.  1.
<mgrwt>
<rscale>  2 0.32262228E+02</rscale>
<asrwt>0</asrwt>
<pdfrwt beam="1">  1       21 0.34807834E-03 0.32262228E+02</pdfrwt>
<pdfrwt beam="2">  1       21 0.10230343E+00 0.32262228E+02</pdfrwt>
<totfact> 0.13183459E+07</totfact>
</mgrwt>
</event>
<event>
 4    1  0.7616518E+004  0.2019346E+02  0.7546771E-02  0.1741508E+00
         21   -1    0    0  503  502  0.00000000000E+00  0.00000000000E+00  0.36474302670E+02  0.36474302670E+02  0.00000000000E+00 0.  1.
         21   -1    0    0  501  503 -0.00000000000E+00 -0.00000000000E+00 -0.11677586994E+02  0.11677586994E+02  0.00000000000E+00 0.  1.
          2    1    1    2  501    0 -0.18302016728E+02  0.85329862376E+01  0.74275676804E+01  0.21516143523E+02  0.00000000000E+00 0. -1.
         -2    1    1    2    0  502  0.18302016728E+02 -0.85329862376E+01  0.17369147996E+02  0.26635746142E+02  0.00000000000E+00 0.  1.
<mgrwt>
<rscale>  2 0.20193456E+02</rscale>
<asrwt>0</asrwt>
<pdfrwt beam="1">  1       21 0.56114312E-02 0.20193456E+02</pdfrwt>
<pdfrwt beam="2">  1       21 0.17965519E-02 0.20193456E+02</pdfrwt>
<totfact> 0.20168934E+08</totfact>
</mgrwt>
</event>
<event>
 4    1  0.7616518E+004  0.3182308E+02  0.7546771E-02  0.1578769E+00
         21   -1    0    0  503  502  0.00000000000E+00  0.00000000000E+00  0.14765181969E+03  0.14765181969E+03  0.00000000000E+00 0.  1.
         21   -1    0    0  501  503 -0.00000000000E+00 -0.00000000000E+00 -0.68944398929E+01  0.68944398929E+01  0.00000000000E+00 0.  1.
          3    1    1    2  501    0  0.30446788016E+02 -0.92574984968E+01  0.64819651445E+02  0.72210078192E+02  0.00000000000E+00 0. -1.
         -3    1    1    2    0  502 -0.30446788016E+02  0.92574984968E+01  0.75937728356E+02  0.82336181396E+02  0.00000000000E+00 0.  1.
<mgrwt>
<rscale>  2 0.31823076E+02</rscale>
<asrwt>0</asrwt>
<pdfrwt beam="1">  1       21 0.22715662E-01 0.31823076E+02</pdfrwt>
<pdfrwt beam="2">  1       21 0.10606832E-02 0.31823076E+02</pdfrwt>
<totfact> 0.48490561E+07</totfact>
</mgrwt>
</event>
<event>
 4    1  0.7616518E+004  0.2605395E+02  0.7546771E-02  0.1646309E+00
         21   -1    0    0  503  502  0.00000000000E+00  0.00000000000E+00  0.49158028602E+01  0.49158028602E+01  0.00000000000E+00 0.  1.
         21   -1    0    0  501  503 -0.00000000000E+00 -0.00000000000E+00 -0.14005049015E+03  0.14005049015E+03  0.00000000000E+00 0.  1.
          4    1    1    2  501    0  0.19911521372E+02 -0.16802966551E+02 -0.58984892021E+02  0.64482756261E+02  0.00000000000E+00 0. -1.
         -4    1    1    2    0  502 -0.19911521372E+02  0.16802966551E+02 -0.76149795272E+02  0.80483536753E+02  0.00000000000E+00 0.  1.
<mgrwt>
<rscale>  2 0.26053951E+02</rscale>
<asrwt>0</asrwt>
<pdfrwt beam="1">  1       21 0.75627722E-03 0.26053951E+02</pdfrwt>
<pdfrwt beam="2">  1       21 0.21546233E-01 0.26053951E+02</pdfrwt>
<totfact> 0.84795978E+07</totfact>
</mgrwt>
</event>
<event>
 4    1  0.7616518E+004  0.3162701E+02  0.7546771E-02  0.1580770E+00
         21   -1    0    0  501  502  0.00000000000E+00  0.00000000000E+00  0.12360355021E+01  0.12360355021E+01  0.00000000000E+00 0.  1.
         21   -1    0    0  502  503 -0.00000000000E+00 -0.00000000000E+00 -0.90835031447E+03  0.90835031447E+03  0.00000000000E+00 0.  1.
          3    1    1    2  501    0 -0.22694685271E+02 -0.22027693755E+02 -0.30334203714E+03  0.30498632678E+03  0.00000000000E+00 0. -1.
         -3    1    1    2    0  503  0.22694685271E+02  0.22027693755E+02 -0.60377224183E+03  0.60460002319E+03  0.00000000000E+00 0.  1.
<mgrwt>
<rscale>  2 0.31627014E+02</rscale>
<asrwt>0</asrwt>
<pdfrwt beam="1">  1       21 0.19015954E-03 0.31627014E+02</pdfrwt>
<pdfrwt beam="2">  1       21 0.13974603E+00 0.31627014E+02</pdfrwt>
<totfact> 0.15573107E+07</totfact>
</mgrwt>
</event>
<event>
 4    1  0.7616518E+004  0.2806709E+02  0.7546771E-02  0.1620493E+00
         21   -1    0    0  501  502  0.00000000000E+00  0.00000000000E+00  0.54196681198E+03  0.54196681198E+03  0.00000000000E+00 0. -1.
         21   -1    0    0  502  503 -0.00000000000E+00 -0.00000000000E+00 -0.16475933502E+01  0.16475933502E+01  0.00000000000E+00 0. -1.
          3    1    1    2  501    0  0.28026986296E+02 -0.14999193164E+01  0.36344519104E+03  0.36452732217E+03  0.00000000000E+00 0.  1.
         -3    1    1    2    0  503 -0.28026986296E+02  0.14999193164E+01  0.17687402759E+03  0.17908708316E+03  0.00000000000E+00 0. -1.
<mgrwt>
<rscale>  2 0.28067093E+02</rscale>
<asrwt>0</asrwt>
<pdfrwt beam="1">  1       21 0.83379367E-01 0.28067093E+02</pdfrwt>
<pdfrwt beam="2">  1       21 0.25347633E-03 0.28067093E+02</pdfrwt>
<totfact> 0.32085803E+07</totfact>
</mgrwt>
</event>
<event>
 4    1  0.7616518E+004  0.2417182E+02  0.7546771E-02  0.1673190E+00
         21   -1    0    0  501  502  0.00000000000E+00  0.00000000000E+00  0.31231802194E+01  0.31231802194E+01  0.00000000000E+00 0. -1.
         21   -1    0    0  502  503 -0.00000000000E+00 -0.00000000000E+00 -0.18710980062E+03  0.18710980062E+03  0.00000000000E+00 0. -1.
          1    1    1    2  501    0 -0.23393792906E+02  0.60833658688E+01 -0.93242167688E+02  0.96324341275E+02  0.00000000000E+00 0.  1.
         -1    1    1    2    0  503  0.23393792906E+02 -0.60833658688E+01 -0.90744452712E+02  0.93908639564E+02  0.00000000000E+00 0. -1.
<mgrwt>
<rscale>  2 0.24171820E+02</rscale>
<asrwt>0</asrwt>
<pdfrwt beam="1">  1       21 0.48048911E-03 0.24171820E+02</pdfrwt>
<pdfrwt beam="2">  1       21 0.28786132E-01 0.24171820E+02</pdfrwt>
<totfact> 0.97237224E+07</totfact>
</mgrwt>
</event>
<event>
 4    1  0.7616518E+004  0.2911619E+02  0.7546771E-02  0.1608069E+00
         21   -1    0    0  501  502  0.00000000000E+00  0.00000000000E+00  0.16498460752E+01  0.16498460752E+01  0.00000000000E+00 0. -1.
         21   -1    0    0  502  503 -0.00000000000E+00 -0.00000000000E+00 -0.53813278161E+03  0.53813278161E+03  0.00000000000E+00 0. -1.
          4    1    1    2  501    0 -0.25429341143E+02  0.14181016652E+02 -0.21089508755E+03  0.21289549215E+03  0.00000000000E+00 0. -1.
         -4    1    1    2    0  503  0.25429341143E+02 -0.14181016652E+02 -0.32558784799E+03  0.32688713554E+03  0.00000000000E+00 0.  1.
<mgrwt>
<rscale>  2 0.29116192E+02</rscale>
<asrwt>0</asrwt>
<pdfrwt beam="1">  1       21 0.25382236E-03 0.29116192E+02</pdfrwt>
<pdfrwt beam="2">  1       21 0.82789695E-01 0.29116192E+02</pdfrwt>
<totfact> 0.32730933E+07</totfact>
</mgrwt>
</event>
<event>
 4    1  0.7616518E+004  0.3072059E+02  0.7546771E-02  0.1590257E+00
         21   -1    0    0  501  502  0.00000000000E+00  0.00000000000E+00  0.74635304344E+00  0.74635304344E+00  0.00000000000E+00 0. -1.
         21   -1    0    0  502  503 -0.00000000000E+00 -0.00000000000E+00 -0.12645208189E+04  0.12645208189E+04  0.00000000000E+00 0. -1.
          4    1    1    2  501    0  0.11162358952E+02  0.28620907009E+02 -0.63510304076E+03  0.63584559993E+03  0.00000000000E+00 0.  1.
         -4    1    1    2    0  503 -0.11162358952E+02 -0.28620907009E+02 -0.62867142509E+03  0.62942157200E+03  0.00000000000E+00 0. -1.
<mgrwt>
<rscale>  2 0.30720589E+02</rscale>
<asrwt>0</asrwt>
<pdfrwt beam="1">  1       21 0.11482489E-03 0.30720589E+02</pdfrwt>
<pdfrwt beam="2">  1       21 0.19453939E+00 0.30720589E+02</pdfrwt>
<totfact> 0.14174562E+07</totfact>
</mgrwt>
</event>
<event>
 4    1  0.7616518E+004  0.2334688E+02  0.7546771E-02  0.1685948E+00
         21   -1    0    0  503  502  0.00000000000E+00  0.00000000000E+00  0.69001272556E+03  0.69001272556E+03  0.00000000000E+00 0.  1.
         21   -1    0    0  501  503 -0.00000000000E+00 -0.00000000000E+00 -0.13466067120E+01  0.13466067120E+01  0.00000000000E+00 0.  1.
          5    1    1    2  501    0  0.12354144204E+02  0.19810400947E+02  0.56658544420E+03  0.56706625931E+03  0.00000000000E+00 0. -1.
         -5    1    1    2    0  502 -0.12354144204E+02 -0.19810400947E+02  0.12208067465E+03  0.12429307297E+03  0.00000000000E+00 0.  1.
<mgrwt>
<rscale>  2 0.23346881E+02</rscale>
<asrwt>0</asrwt>
<pdfrwt beam="1">  1       21 0.10615552E+00 0.23346881E+02</pdfrwt>
<pdfrwt beam="2">  1       21 0.20717081E-03 0.23346881E+02</pdfrwt>
<totfact> 0.24591422E+07</totfact>
</mgrwt>
</event>
<event>
 4    1  0.7616518E+004  0.2674279E+02  0.7546771E-02  0.1637162E+00
         21   -1    0    0  503  502  0.00000000000E+00  0.00000000000E+00  0.12056515122E+03  0.12056515122E+03  0.00000000000E+00 0.  1.
         21   -1    0    0  501  503 -0.00000000000E+00 -0.00000000000E+00 -0.10067142633E+02  0.10067142633E+02  0.00000000000E+00 0.  1.
          4    1    1    2  501    0 -0.16559330698E+02 -0.20999175493E+02  0.97110960555E+02  0.10072594236E+03  0.00000000000E+00 0. -1.
         -4    1    1    2    0  502  0.16559330698E+02  0.20999175493E+02  0.13387048034E+02  0.29906351493E+02  0.00000000000E+00 0.  1.
<mgrwt>
<rscale>  2 0.26742790E+02</rscale>
<asrwt>0</asrwt>
<pdfrwt beam="1">  1       21 0.18548484E-01 0.26742790E+02</pdfrwt>
<pdfrwt beam="2">  1       21 0.15487913E-02 0.26742790E+02</pdfrwt>
<totfact> 0.37519928E+07</totfact>
</mgrwt>
</event>
<event>
 4    1  0.7616518E+004  0.2260622E+02  0.7546771E-02  0.1697974E+00
         21   -1    0    0  503  502  0.00000000000E+00  0.00000000000E+00  0.12664013152E+02  0.12664013152E+02  0.00000000000E+00 0. -1.
         21   -1    0    0  501  503 -0.00000000000E+00 -0.00000000000E+00 -0.41605164066E+02  0.41605164066E+02  0.00000000000E+00 0. -1.
          5    1    1    2  501    0  0.17619997043E+01  0.22537445973E+02 -0.97646977176E+01  0.24624996151E+02  0.00000000000E+00 0. -1.
         -5    1    1    2    0  502 -0.17619997043E+01 -0.22537445973E+02 -0.19176453197E+02  0.29644181067E+02  0.00000000000E+00 0.  1.
<mgrwt>
<rscale>  2 0.22606218E+02</rscale>
<asrwt>0</asrwt>
<pdfrwt beam="1">  1       21 0.19483097E-02 0.22606218E+02</pdfrwt>
<pdfrwt beam="2">  1       21 0.64007945E-02 0.22606218E+02</pdfrwt>
<totfact> 0.14954631E+08</totfact>
</mgrwt>
</event>
<event>
 4    1  0.7616518E+004  0.2250206E+02  0.7546771E-02  0.1699711E+00
         21   -1    0    0  503  502  0.00000000000E+00  0.00000000000E+00  0.22831488881E+02  0.22831488881E+02  0.00000000000E+00 0. -1.
         21   -1    0    0  501  503 -0.00000000000E+00 -0.00000000000E+00 -0.22424521610E+02  0.22424521610E+02  0.00000000000E+00 0. -1.
          1    1    1    2  501    0 -0.17713094539E+02 -0.13877642301E+02  0.25789831964E+01  0.22649367062E+02  0.00000000000E+00 0. -1.
         -1    1    1    2    0  502  0.17713094539E+02  0.13877642301E+02 -0.21720159262E+01  0.22606643429E+02  0.00000000000E+00 0.  1.
<mgrwt>
<rscale>  2 0.22502059E+02</rscale>
<asrwt>0</asrwt>
<pdfrwt beam="1">  1       21 0.35125368E-02 0.22502059E+02</pdfrwt>
<pdfrwt beam="2">  1       21 0.34499264E-02 0.22502059E+02</pdfrwt>
<totfact> 0.15985509E+08</totfact>
</mgrwt>
</event>
<event>
 4    1  0.7616518E+004  0.2672132E+02  0.7546771E-02  0.1637442E+00
         21   -1    0    0  503  502  0.00000000000E+00  0.00000000000E+00  0.16758643123E+01  0.16758643123E+01  0.00000000000E+00 0. -1.
         21   -1    0    0  501  503 -0.00000000000E+00 -0.00000000000E+00 -0.55213425807E+03  0.55213425807E+03  0.00000000000E+00 0. -1.
          5    1    1    2  501    0  0.16902639756E+02 -0.20696125837E+02 -0.14291349959E+03  0.14539015517E+03  0.00000000000E+00 0. -1.
         -5    1    1    2    0  502 -0.16902639756E+02  0.20696125837E+02 -0.40754489417E+03  0.40841996721E+03  0.00000000000E+00 0.  1.
<mgrwt>
<rscale>  2 0.26721318E+02</rscale>
<asrwt>0</asrwt>
<pdfrwt beam="1">  1       21 0.25782507E-03 0.26721318E+02</pdfrwt>
<pdfrwt beam="2">  1       21 0.84943801E-01 0.26721318E+02</pdfrwt>
<totfact> 0.29808030E+07</totfact>
</mgrwt>
</event>
<event>
 4    1  0.7616518E+004  0.5218134E+02  0.7546771E-02  0.1433919E+00
         21   -1    0    0  503  502  0.00000000000E+00  0.00000000000E+00  0.49315883451E+01  0.49315883451E+01  0.00000000000E+00 0.  1.
         21   -1    0    0  501  503 -0.00000000000E+00 -0.00000000000E+00 -0.78772708781E+03  0.78772708781E+03  0.00000000000E+00 0.  1.
          4    1    1    2  501    0  0.51973670957E+02 -0.46507327787E+01 -0.60814354951E+03  0.61037813575E+03  0.00000000000E+00 0.  1.
         -4    1    1    2    0  502 -0.51973670957E+02  0.46507327787E+01 -0.17465194995E+03  0.18228054041E+03  0.00000000000E+00 0. -1.
<mgrwt>
<rscale>  2 0.52181336E+02</rscale>
<asrwt>0</asrwt>
<pdfrwt beam="1">  1       21 0.75870616E-03 0.52181336E+02</pdfrwt>
<pdfrwt beam="2">  1       21 0.12118874E+00 0.52181336E+02</pdfrwt>
<totfact> 0.28999304E+06</totfact>
</mgrwt>
</event>
<event>
 4    1  0.7616518E+004  0.2046880E+02  0.7546771E-02  0.1736163E+00
         21   -1    0    0  501  502  0.00000000000E+00  0.00000000000E+00  0.44381741256E+01  0.44381741256E+01  0.00000000000E+00 0. -1.
         21   -1    0    0  502  503 -0.00000000000E+00 -0.00000000000E+00 -0.10766957099E+03  0.10766957099E+03  0.00000000000E+00 0. -1.
          4    1    1    2  501    0  0.17200344373E+02  0.11095948327E+02 -0.31938781800E+02  0.37934913981E+02  0.00000000000E+00 0.  1.
         -4    1    1    2    0  503 -0.17200344373E+02 -0.11095948327E+02 -0.71292615062E+02  0.74172831133E+02  0.00000000000E+00 0. -1.
<mgrwt>
<rscale>  2 0.20468803E+02</rscale>
<asrwt>0</asrwt>
<pdfrwt beam="1">  1       21 0.68279604E-03 0.20468803E+02</pdfrwt>
<pdfrwt beam="2">  1       21 0.16564549E-01 0.20468803E+02</pdfrwt>
<totfact> 0.14578318E+08</totfact>
</mgrwt>
</event>
<event>
 4    1  0.7616518E+004  0.4551570E+02  0.7546771E-02  0.1471148E+00
         21   -1    0    0  503  502  0.00000000000E+00  0.00000000000E+00  0.98807768640E+01  0.98807768640E+01  0.00000000000E+00 0. -1.
         21   -1    0    0  501  503 -0.00000000000E+00 -0.00000000000E+00 -0.22333939097E+03  0.22333939097E+03  0.00000000000E+00 0. -1.
          5    1    1    2  501    0  0.38947559020E+02  0.23553484864E+02 -0.77877981149E+02  0.90203430926E+02  0.00000000000E+00 0.  1.
         -5    1    1    2    0  502 -0.38947559020E+02 -0.23553484864E+02 -0.13558063296E+03  0.14301673691E+03  0.00000000000E+00 0. -1.
<mgrwt>
<rscale>  2 0.45515701E+02</rscale>
<asrwt>0</asrwt>
<pdfrwt beam="1">  1       21 0.15201198E-02 0.45515701E+02</pdfrwt>
<pdfrwt beam="2">  1       21 0.34359900E-01 0.45515701E+02</pdfrwt>
<totfact> 0.13808832E+07</totfact>
</mgrwt>
</event>
<event>
 4    1  0.7616518E+004  0.2906577E+02  0.7546771E-02  0.1608651E+00
         21   -1    0    0  501  502  0.00000000000E+00  0.00000000000E+00  0.17340270826E+03  0.17340270826E+03  0.00000000000E+00 0. -1.
         21   -1    0    0  502  503 -0.00000000000E+00 -0.00000000000E+00 -0.50684308006E+01  0.50684308006E+01  0.00000000000E+00 0. -1.
          2    1    1    2  501    0 -0.37698583126E+01  0.28820260496E+02  0.10173415688E+03  0.10580481049E+03  0.00000000000E+00 0.  1.
         -2    1    1    2    0  503  0.37698583126E+01 -0.28820260496E+02  0.66600120583E+02  0.72666328574E+02  0.00000000000E+00 0. -1.
<mgrwt>
<rscale>  2 0.29065774E+02</rscale>
<asrwt>0</asrwt>
<pdfrwt beam="1">  1       21 0.26677335E-01 0.29065774E+02</pdfrwt>
<pdfrwt beam="2">  1       21 0.77975872E-03 0.29065774E+02</pdfrwt>
<totfact> 0.56715429E+07</totfact>
</mgrwt>
</event>
<event>
 4    1  0.7616518E+004  0.2106253E+02  0.7546771E-02  0.1724988E+00
         21   -1    0    0  501  502  0.00000000000E+00  0.00000000000E+00  0.47257110847E+03  0.47257110847E+03  0.00000000000E+00 0.  1.
         21   -1    0    0  502  503 -0.00000000000E+00 -0.00000000000E+00 -0.14955104354E+01  0.14955104354E+01  0.00000000000E+00 0.  1.
          1    1    1    2  501    0 -0.19715691078E+02  0.74109112625E+01  0.90912064645E+02  0.93320059893E+02  0.00000000000E+00 0.  1.
         -1    1    1    2    0  503  0.19715691078E+02 -0.74109112625E+01  0.38016353339E+03  0.38074655901E+03  0.00000000000E+00 0. -1.
<mgrwt>
<rscale>  2 0.21062528E+02</rscale>
<asrwt>0</asrwt>
<pdfrwt beam="1">  1       21 0.72703129E-01 0.21062528E+02</pdfrwt>
<pdfrwt beam="2">  1       21 0.23007890E-03 0.21062528E+02</pdfrwt>
<totfact> 0.46327259E+07</totfact>
</mgrwt>
</event>
<event>
 4    1  0.7616518E+004  0.2277003E+02  0.7546771E-02  0.1695265E+00
         21   -1    0    0  503  502  0.00000000000E+00  0.00000000000E+00  0.98962549014E+02  0.98962549014E+02  0.00000000000E+00 0. -1.
         21   -1    0    0  501  503 -0.00000000000E+00 -0.00000000000E+00 -0.57214649752E+01  0.57214649752E+01  0.00000000000E+00 0. -1.
          4    1    1    2  501    0 -0.21681454425E+02  0.69562035265E+01  0.31422532528E+02  0.38805280362E+02  0.00000000000E+00 0. -1.
         -4    1    1    2    0  502  0.21681454425E+02 -0.69562035265E+01  0.61818551510E+02  0.65878733627E+02  0.00000000000E+00 0.  1.
<mgrwt>
<rscale>  2 0.22770029E+02</rscale>
<asrwt>0</asrwt>
<pdfrwt beam="1">  1       21 0.15225006E-01 0.22770029E+02</pdfrwt>
<pdfrwt beam="2">  1       21 0.88022546E-03 0.22770029E+02</pdfrwt>
<totfact> 0.11901873E+08</totfact>
</mgrwt>
</event>
<event>
 4    1  0.7616518E+004  0.2834526E+02  0.7546771E-02  0.1617134E+00
         21   -1    0    0  503  502  0.00000000000E+00  0.00000000000E+00  0.15157271506E+02  0.15157271506E+02  0.00000000000E+00 0.  1.
         21   -1    0    0  501  503 -0.00000000000E+00 -0.00000000000E+00 -0.54297136101E+02  0.54297136101E+02  0.00000000000E+00 0.  1.
          2    1    1    2  501    0  0.27543121121E+02 -0.66955301351E+01 -0.24921291589E+02  0.37742872431E+02  0.00000000000E+00 0. -1.
         -2    1    1    2    0  502 -0.27543121121E+02  0.66955301351E+01 -0.14218573006E+02  0.31711535176E+02  0.00000000000E+00 0.  1.
<mgrwt>
<rscale>  2 0.28345258E+02</rscale>
<asrwt>0</asrwt>
<pdfrwt beam="1">  1       21 0.23318879E-02 0.28345258E+02</pdfrwt>
<pdfrwt beam="2">  1       21 0.83534056E-02 0.28345258E+02</pdfrwt>
<totfact> 0.78118660E+07</totfact>
</mgrwt>
</event>
<event>
 4    1  0.7616518E+004  0.2565565E+02  0.7546771E-02  0.1651759E+00
         21   -1    0    0  503  502  0.00000000000E+00  0.00000000000E+00  0.58451693969E+02  0.58451693969E+02  0.00000000000E+00 0.  1.
         21   -1    0    0  501  503 -0.00000000000E+00 -0.00000000000E+00 -0.11358399855E+02  0.11358399855E+02  0.00000000000E+00 0.  1.
          2    1    1    2  501    0  0.15554138946E+02  0.20402971425E+02  0.20310951049E+02  0.32722273971E+02  0.00000000000E+00 0. -1.
         -2    1    1    2    0  502 -0.15554138946E+02 -0.20402971425E+02  0.26782343065E+02  0.37087819852E+02  0.00000000000E+00 0.  1.
<mgrwt>
<rscale>  2 0.25655652E+02</rscale>
<asrwt>0</asrwt>
<pdfrwt beam="1">  1       21 0.89925681E-02 0.25655652E+02</pdfrwt>
<pdfrwt beam="2">  1       21 0.17474462E-02 0.25655652E+02</pdfrwt>
<totfact> 0.10525649E+08</totfact>
</mgrwt>
</event>
<event>
 4    1  0.7616518E+004  0.2026829E+02  0.7546771E-02  0.1740045E+00
         21   -1    0    0  501  502  0.00000000000E+00  0.00000000000E+00  0.36695644406E+03  0.36695644406E+03  0.00000000000E+00 0. -1.
         21   -1    0    0  502  503 -0.00000000000E+00 -0.00000000000E+00 -0.11197088289E+01  0.11197088289E+01  0.00000000000E+00 0. -1.
          1    1    1    2  501    0  0.44037360566E+01  0.19784106413E+02  0.18549616495E+03  0.18660019016E+03  0.00000000000E+00 0. -1.
         -1    1    1    2    0  503 -0.44037360566E+01 -0.19784106413E+02  0.18034057028E+03  0.18147596272E+03  0.00000000000E+00 0.  1.
<mgrwt>
<rscale>  2 0.20268294E+02</rscale>
<asrwt>0</asrwt>
<pdfrwt beam="1">  1       21 0.56454742E-01 0.20268294E+02</pdfrwt>
<pdfrwt beam="2">  1       21 0.17226319E-03 0.20268294E+02</pdfrwt>
<totfact> 0.11569583E+08</totfact>
</mgrwt>
</event>
<event>
 4    1  0.7616518E+004  0.2060099E+02  0.7546771E-02  0.1733634E+00
         21   -1    0    0  501  502  0.00000000000E+00  0.00000000000E+00  0.25045024576E+02  0.25045024576E+02  0.00000000000E+00 0.  1.
         21   -1    0    0  502  503 -0.00000000000E+00 -0.00000000000E+00 -0.18326658952E+02  0.18326658952E+02  0.00000000000E+00 0.  1.
          1    1    1    2  501    0 -0.12767235898E+02 -0.16167825864E+02 -0.25940613419E+01  0.20763671638E+02  0.00000000000E+00 0.  1.
         -1    1    1    2    0  503  0.12767235898E+02  0.16167825864E+02  0.93124269665E+01  0.22608011890E+02  0.00000000000E+00 0. -1.
<mgrwt>
<rscale>  2 0.20600993E+02</rscale>
<asrwt>0</asrwt>
<pdfrwt beam="1">  1       21 0.38530807E-02 0.20600993E+02</pdfrwt>
<pdfrwt beam="2">  1       21 0.28194860E-02 0.20600993E+02</pdfrwt>
<totfact> 0.18411695E+08</totfact>
</mgrwt>
</event>
<event>
 4    1  0.7616518E+004  0.3667561E+02  0.7546771E-02  0.1534205E+00
         21   -1    0    0  503  502  0.00000000000E+00  0.00000000000E+00  0.32025049198E+02  0.32025049198E+02  0.00000000000E+00 0. -1.
         21   -1    0    0  501  503 -0.00000000000E+00 -0.00000000000E+00 -0.51531173762E+02  0.51531173762E+02  0.00000000000E+00 0. -1.
          3    1    1    2  501    0  0.24997658883E+02 -0.26836869373E+02 -0.27719108666E+02  0.45972268734E+02  0.00000000000E+00 0. -1.
         -3    1    1    2    0  502 -0.24997658883E+02  0.26836869373E+02  0.82129841015E+01  0.37583954225E+02  0.00000000000E+00 0.  1.
<mgrwt>
<rscale>  2 0.36675612E+02</rscale>
<asrwt>0</asrwt>
<pdfrwt beam="1">  1       21 0.49269307E-02 0.36675612E+02</pdfrwt>
<pdfrwt beam="2">  1       21 0.79278728E-02 0.36675612E+02</pdfrwt>
<totfact> 0.27485013E+07</totfact>
</mgrwt>
</event>
<event>
 4    1  0.7616518E+004  0.2086288E+02  0.7546771E-02  0.1728694E+00
         21   -1    0    0  501  502  0.00000000000E+00  0.00000000000E+00  0.35721977809E+02  0.35721977809E+02  0.00000000000E+00 0. -1.
         21   -1    0    0  502  503 -0.00000000000E+00 -0.00000000000E+00 -0.22858293986E+02  0.22858293986E+02  0.00000000000E+00 0. -1.
          1    1    1    2  501    0  0.11842633928E+02  0.17175908131E+02 -0.13583169190E+02  0.24895025280E+02  0.00000000000E+00 0.  1.
         -1    1    1    2    0  503 -0.11842633928E+02 -0.17175908131E+02  0.26446853013E+02  0.33685246515E+02  0.00000000000E+00 0. -1.
<mgrwt>
<rscale>  2 0.20862881E+02</rscale>
<asrwt>0</asrwt>
<pdfrwt beam="1">  1       21 0.54956889E-02 0.20862881E+02</pdfrwt>
<pdfrwt beam="2">  1       21 0.35166606E-02 0.20862881E+02</pdfrwt>
<totfact> 0.74830118E+07</totfact>
</mgrwt>
</event>
<event>
 4    1  0.7616518E+004  0.2183416E+02  0.7546771E-02  0.1711136E+00
         21   -1    0    0  503  502  0.00000000000E+00  0.00000000000E+00  0.89301062734E+01  0.89301062734E+01  0.00000000000E+00 0. -1.
         21   -1    0    0  501  503 -0.00000000000E+00 -0.00000000000E+00 -0.58478982019E+02  0.58478982019E+02  0.00000000000E+00 0. -1.
          2    1    1    2  501    0 -0.14184180706E+02 -0.16599377925E+02 -0.14826490975E+02  0.26392331546E+02  0.00000000000E+00 0. -1.
         -2    1    1    2    0  502  0.14184180706E+02  0.16599377925E+02 -0.34722384770E+02  0.41016756746E+02  0.00000000000E+00 0.  1.
<mgrwt>
<rscale>  2 0.21834155E+02</rscale>
<asrwt>0</asrwt>
<pdfrwt beam="1">  1       21 0.13738624E-02 0.21834155E+02</pdfrwt>
<pdfrwt beam="2">  1       21 0.89967669E-02 0.21834155E+02</pdfrwt>
<totfact> 0.14486180E+08</totfact>
</mgrwt>
</event>
<event>
 4    1  0.7616518E+004  0.2014468E+02  0.7546771E-02  0.1742466E+00
         21   -1    0    0  503  502  0.00000000000E+00  0.00000000000E+00  0.12617556259E+01  0.12617556259E+01  0.00000000000E+00 0.  1.
         21   -1    0    0  501  503 -0.00000000000E+00 -0.00000000000E+00 -0.32377789023E+03  0.32377789023E+03  0.00000000000E+00 0.  1.
          4    1    1    2  501    0  0.16328133872E+02 -0.11798313389E+02 -0.17452019176E+03  0.17567898419E+03  0.00000000000E+00 0. -1.
         -4    1    1    2    0  502 -0.16328133872E+02  0.11798313389E+02 -0.14799594284E+03  0.14936066166E+03  0.00000000000E+00 0.  1.
<mgrwt>
<rscale>  2 0.20144681E+02</rscale>
<asrwt>0</asrwt>
<pdfrwt beam="1">  1       21 0.19411622E-03 0.20144681E+02</pdfrwt>
<pdfrwt beam="2">  1       21 0.49811992E-01 0.20144681E+02</pdfrwt>
<totfact> 0.12420415E+08</totfact>
</mgrwt>
</event>
<event>
 4    1  0.7616518E+004  0.2595859E+02  0.7546771E-02  0.1647603E+00
         21   -1    0    0  503  502  0.00000000000E+00  0.00000000000E+00  0.68408787997E+02  0.68408787997E+02  0.00000000000E+00 0.  1.
         21   -1    0    0  501  503 -0.00000000000E+00 -0.00000000000E+00 -0.10925797572E+02  0.10925797572E+02  0.00000000000E+00 0.  1.
          5    1    1    2  501    0  0.12982045956E+02  0.22479204471E+02  0.41186857869E+02  0.48684755438E+02  0.00000000000E+00 0.  1.
         -5    1    1    2    0  502 -0.12982045956E+02 -0.22479204471E+02  0.16296132555E+02  0.30649830132E+02  0.00000000000E+00 0. -1.
<mgrwt>
<rscale>  2 0.25958585E+02</rscale>
<asrwt>0</asrwt>
<pdfrwt beam="1">  1       21 0.10524429E-01 0.25958585E+02</pdfrwt>
<pdfrwt beam="2">  1       21 0.16808920E-02 0.25958585E+02</pdfrwt>
<totfact> 0.86313582E+07</totfact>
</mgrwt>
</event>
<event>
 4    1  0.7616518E+004  0.2274950E+02  0.7546771E-02  0.1695603E+00
         21   -1    0    0  501  502  0.00000000000E+00  0.00000000000E+00  0.28410139081E+03  0.28410139081E+03  0.00000000000E+00 0. -1.
         21   -1    0    0  502  503 -0.00000000000E+00 -0.00000000000E+00 -0.20327957078E+01  0.20327957078E+01  0.00000000000E+00 0. -1.
          4    1    1    2  501    0  0.89030582527E+01  0.20935024084E+02  0.18714066580E+03  0.18851835050E+03  0.00000000000E+00 0.  1.
         -4    1    1    2    0  503 -0.89030582527E+01 -0.20935024084E+02  0.94927929305E+02  0.97615836019E+02  0.00000000000E+00 0. -1.
<mgrwt>
<rscale>  2 0.22749498E+02</rscale>
<asrwt>0</asrwt>
<pdfrwt beam="1">  1       21 0.43707875E-01 0.22749498E+02</pdfrwt>
<pdfrwt beam="2">  1       21 0.31273803E-03 0.22749498E+02</pdfrwt>
<totfact> 0.82702258E+07</totfact>
</mgrwt>
</event>
<event>
 4    1  0.7616518E+004  0.2024538E+02  0.7546771E-02  0.1740492E+00
         21   -1    0    0  503  502  0.00000000000E+00  0.00000000000E+00  0.66465780156E+02  0.66465780156E+02  0.00000000000E+00 0.  1.
         21   -1    0    0  501  503 -0.00000000000E+00 -0.00000000000E+00 -0.62720241346E+01  0.62720241346E+01  0.00000000000E+00 0.  1.
          2    1    1    2  501    0 -0.61170690236E+00  0.20236133350E+02  0.25384208771E+02  0.32468959533E+02  0.00000000000E+00 0. -1.
         -2    1    1    2    0  502  0.61170690236E+00 -0.20236133350E+02  0.34809547251E+02  0.40268844757E+02  0.00000000000E+00 0.  1.
<mgrwt>
<rscale>  2 0.20245377E+02</rscale>
<asrwt>0</asrwt>
<pdfrwt beam="1">  1       21 0.10225504E-01 0.20245377E+02</pdfrwt>
<pdfrwt beam="2">  1       21 0.96492683E-03 0.20245377E+02</pdfrwt>
<totfact> 0.19500640E+08</totfact>
</mgrwt>
</event>
<event>
 4    1  0.7616518E+004  0.3760133E+02  0.7546771E-02  0.1526643E+00
         21   -1    0    0  501  502  0.00000000000E+00  0.00000000000E+00  0.10300145675E+03  0.10300145675E+03  0.00000000000E+00 0. -1.
         21   -1    0    0  502  503 -0.00000000000E+00 -0.00000000000E+00 -0.15087817548E+02  0.15087817548E+02  0.00000000000E+00 0. -1.
          3    1    1    2  501    0 -0.27217869465E+02  0.25943158542E+02  0.61691806234E+02  0.72247760171E+02  0.00000000000E+00 0. -1.
         -3    1    1    2    0  503  0.27217869465E+02 -0.25943158542E+02  0.26221832967E+02  0.45841514127E+02  0.00000000000E+00 0.  1.
<mgrwt>
<rscale>  2 0.37601328E+02</rscale>
<asrwt>0</asrwt>
<pdfrwt beam="1">  1       21 0.15846378E-01 0.37601328E+02</pdfrwt>
<pdfrwt beam="2">  1       21 0.23212028E-02 0.37601328E+02</pdfrwt>
<totfact> 0.28211922E+07</totfact>
</mgrwt>
</event>
<event>
 4    1  0.7616518E+004  0.2001404E+02  0.7546771E-02  0.1745049E+00
         21   -1    0    0  501  502  0.00000000000E+00  0.00000000000E+00  0.29107506823E+02  0.29107506823E+02  0.00000000000E+00 0. -1.
         21   -1    0    0  502  503 -0.00000000000E+00 -0.00000000000E+00 -0.15178573126E+02  0.15178573126E+02  0.00000000000E+00 0. -1.
          1    1    1    2  501    0  0.19940997540E+02  0.17083698109E+01  0.19860069641E+00  0.20015028167E+02  0.00000000000E+00 0. -1.
         -1    1    1    2    0  503 -0.19940997540E+02 -0.17083698109E+01  0.13730333000E+02  0.24271051782E+02  0.00000000000E+00 0.  1.
<mgrwt>
<rscale>  2 0.20014043E+02</rscale>
<asrwt>0</asrwt>
<pdfrwt beam="1">  1       21 0.44780780E-02 0.20014043E+02</pdfrwt>
<pdfrwt beam="2">  1       21 0.23351651E-02 0.20014043E+02</pdfrwt>
<totfact> 0.19254184E+08</totfact>
</mgrwt>
</event>
<event>
 4    1  0.7616518E+004  0.2197680E+02  0.7546771E-02  0.1708654E+00
         21   -1    0    0  501  502  0.00000000000E+00  0.00000000000E+00  0.38806592787E+03  0.38806592787E+03  0.00000000000E+00 0. -1.
         21   -1    0    0  502  503 -0.00000000000E+00 -0.00000000000E+00 -0.12475093609E+01  0.12475093609E+01  0.00000000000E+00 0. -1.
          1    1    1    2  501    0 -0.23614982687E+01  0.21849556128E+02  0.20283902329E+03  0.20402609918E+03  0.00000000000E+00 0. -1.
         -1    1    1    2    0  503  0.23614982687E+01 -0.21849556128E+02  0.18397939522E+03  0.18528733806E+03  0.00000000000E+00 0.  1.
<mgrwt>
<rscale>  2 0.21976801E+02</rscale>
<asrwt>0</asrwt>
<pdfrwt beam="1">  1       21 0.59702354E-01 0.21976801E+02</pdfrwt>
<pdfrwt beam="2">  1       21 0.19192483E-03 0.21976801E+02</pdfrwt>
<totfact> 0.90594437E+07</totfact>
</mgrwt>
</event>
<event>
 4    1  0.7616518E+004  0.3034132E+02  0.7546771E-02  0.1594346E+00
         21   -1    0    0  503  502  0.00000000000E+00  0.00000000000E+00  0.18903456165E+01  0.18903456165E+01  0.00000000000E+00 0.  1.
         21   -1    0    0  501  503 -0.00000000000E+00 -0.00000000000E+00 -0.49244015078E+03  0.49244015078E+03  0.00000000000E+00 0.  1.
          5    1    1    2  501    0  0.17147317850E+01 -0.30292824093E+02 -0.21929271839E+03  0.22138177847E+03  0.00000000000E+00 0.  1.
         -5    1    1    2    0  502 -0.17147317850E+01  0.30292824093E+02 -0.27125708677E+03  0.27294871793E+03  0.00000000000E+00 0. -1.
<mgrwt>
<rscale>  2 0.30341317E+02</rscale>
<asrwt>0</asrwt>
<pdfrwt beam="1">  1       21 0.29082217E-03 0.30341317E+02</pdfrwt>
<pdfrwt beam="2">  1       21 0.75760083E-01 0.30341317E+02</pdfrwt>
<totfact> 0.32594851E+07</totfact>
</mgrwt>
</event>
<event>
 4    1  0.7616518E+004  0.2018147E+02  0.7546771E-02  0.1741743E+00
         21   -1    0    0  501  502  0.00000000000E+00  0.00000000000E+00  0.15048233374E+01  0.15048233374E+01  0.00000000000E+00 0.  1.
         21   -1    0    0  502  503 -0.00000000000E+00 -0.00000000000E+00 -0.27757931612E+03  0.27757931612E+03  0.00000000000E+00 0.  1.
          4    1    1    2  501    0 -0.98316463643E+01 -0.17624707792E+02 -0.16007281673E+03  0.16134000821E+03  0.00000000000E+00 0.  1.
         -4    1    1    2    0  503  0.98316463643E+01  0.17624707792E+02 -0.11600167605E+03  0.11774413124E+03  0.00000000000E+00 0. -1.
<mgrwt>
<rscale>  2 0.20181467E+02</rscale>
<asrwt>0</asrwt>
<pdfrwt beam="1">  1       21 0.23151148E-03 0.20181467E+02</pdfrwt>
<pdfrwt beam="2">  1       21 0.42704473E-01 0.20181467E+02</pdfrwt>
<totfact> 0.12941378E+08</totfact>
</mgrwt>
</event>
<event>
 4    1  0.7616518E+004  0.2411938E+02  0.7546771E-02  0.1673982E+00
         21   -1    0    0  501  502  0.00000000000E+00  0.00000000000E+00  0.45279871019E+02  0.45279871019E+02  0.00000000000E+00 0.  1.
         21   -1    0    0  502  503 -0.00000000000E+00 -0.00000000000E+00 -0.12940976592E+02  0.12940976592E+02  0.00000000000E+00 0.  1.
          3    1    1    2  501    0  0.17472318384E+02 -0.16627160899E+02  0.18640253475E+02  0.30482838432E+02  0.00000000000E+00 0. -1.
         -3    1    1    2    0  503 -0.17472318384E+02  0.16627160899E+02  0.13698640953E+02  0.27738009179E+02  0.00000000000E+00 0.  1.
<mgrwt>
<rscale>  2 0.24119378E+02</rscale>
<asrwt>0</asrwt>
<pdfrwt beam="1">  1       21 0.69661339E-02 0.24119378E+02</pdfrwt>
<pdfrwt beam="2">  1       21 0.19909195E-02 0.24119378E+02</pdfrwt>
<totfact> 0.12863481E+08</totfact>
</mgrwt>
</event>
<event>
 4    1  0.7616518E+004  0.2034035E+02  0.7546771E-02  0.1738643E+00
         21   -1    0    0  501  502  0.00000000000E+00  0.00000000000E+00  0.25514207583E+03  0.25514207583E+03  0.00000000000E+00 0. -1.
         21   -1    0    0  502  503 -0.00000000000E+00 -0.00000000000E+00 -0.16239496499E+01  0.16239496499E+01  0.00000000000E+00 0. -1.
          5    1    1    2  501    0 -0.16027223446E+02  0.12524289712E+02  0.12184048751E+03  0.12352665349E+03  0.00000000000E+00 0.  1.
         -5    1    1    2    0  503  0.16027223446E+02 -0.12524289712E+02  0.13167763867E+03  0.13323937199E+03  0.00000000000E+00 0. -1.
<mgrwt>
<rscale>  2 0.20340347E+02</rscale>
<asrwt>0</asrwt>
<pdfrwt beam="1">  1       21 0.39252595E-01 0.20340347E+02</pdfrwt>
<pdfrwt beam="2">  1       21 0.24983861E-03 0.20340347E+02</pdfrwt>
<totfact> 0.13614814E+08</totfact>
</mgrwt>
</event>
<event>
 4    1  0.7616518E+004  0.2404366E+02  0.7546771E-02  0.1675131E+00
         21   -1    0    0  501  502  0.00000000000E+00  0.00000000000E+00  0.12026130140E+01  0.12026130140E+01  0.00000000000E+00 0. -1.
         21   -1    0    0  502  503 -0.00000000000E+00 -0.00000000000E+00 -0.63448509729E+03  0.63448509729E+03  0.00000000000E+00 0. -1.
          4    1    1    2  501    0  0.20945659966E+02 -0.11805791026E+02 -0.16016128830E+03  0.16195596822E+03  0.00000000000E+00 0.  1.
         -4    1    1    2    0  503 -0.20945659966E+02  0.11805791026E+02 -0.47312119597E+03  0.47373174208E+03  0.00000000000E+00 0. -1.
<mgrwt>
<rscale>  2 0.24043656E+02</rscale>
<asrwt>0</asrwt>
<pdfrwt beam="1">  1       21 0.18501707E-03 0.24043656E+02</pdfrwt>
<pdfrwt beam="2">  1       21 0.97613260E-01 0.24043656E+02</pdfrwt>
<totfact> 0.35028261E+07</totfact>
</mgrwt>
</event>
<event>
 4    1  0.7616518E+004  0.2030222E+02  0.7546771E-02  0.1739384E+00
         21   -1    0    0  501  502  0.00000000000E+00  0.00000000000E+00  0.29265572957E+02  0.29265572957E+02  0.00000000000E+00 0.  1.
         21   -1    0    0  502  503 -0.00000000000E+00 -0.00000000000E+00 -0.15891182850E+02  0.15891182850E+02  0.00000000000E+00 0.  1.
          3    1    1    2  501    0  0.16307892949E+02 -0.12092668857E+02  0.14300979047E+02  0.24833405208E+02  0.00000000000E+00 0.  1.
         -3    1    1    2    0  503 -0.16307892949E+02  0.12092668857E+02 -0.92658893987E+00  0.20323350599E+02  0.00000000000E+00 0. -1.
<mgrwt>
<rscale>  2 0.20302217E+02</rscale>
<asrwt>0</asrwt>
<pdfrwt beam="1">  1       21 0.45023958E-02 0.20302217E+02</pdfrwt>
<pdfrwt beam="2">  1       21 0.24447974E-02 0.20302217E+02</pdfrwt>
<totfact> 0.17877326E+08</totfact>
</mgrwt>
</event>
<event>
 4    1  0.7616518E+004  0.2087284E+02  0.7546771E-02  0.1728508E+00
         21   -1    0    0  501  502  0.00000000000E+00  0.00000000000E+00  0.19603631419E+04  0.19603631419E+04  0.00000000000E+00 0. -1.
         21   -1    0    0  502  503 -0.00000000000E+00 -0.00000000000E+00 -0.23462297467E+00  0.23462297467E+00  0.00000000000E+00 0. -1.
          5    1    1    2  501    0 -0.15655294005E+02 -0.13805327109E+02  0.75487466635E+03  0.75516318579E+03  0.00000000000E+00 0.  1.
         -5    1    1    2    0  503  0.15655294005E+02  0.13805327109E+02  0.12052538526E+04  0.12054345791E+04  0.00000000000E+00 0. -1.
<mgrwt>
<rscale>  2 0.20872836E+02</rscale>
<asrwt>0</asrwt>
<pdfrwt beam="1">  1       21 0.30158121E+00 0.20872836E+02</pdfrwt>
<pdfrwt beam="2">  1       21 0.36097412E-04 0.20872836E+02</pdfrwt>
<totfact> 0.20028514E+07</totfact>
</mgrwt>
</event>
<event>
 4    1  0.7616518E+004  0.2457442E+02  0.7546771E-02  0.1667191E+00
         21   -1    0    0  503  502  0.00000000000E+00  0.00000000000E+00  0.34144330312E+02  0.34144330312E+02  0.00000000000E+00 0.  1.
         21   -1    0    0  501  503 -0.00000000000E+00 -0.00000000000E+00 -0.18805216158E+02  0.18805216158E+02  0.00000000000E+00 0.  1.
          4    1    1    2  501    0 -0.21397024100E+02  0.12085912305E+02  0.12129209233E+01  0.24604330793E+02  0.00000000000E+00 0. -1.
         -4    1    1    2    0  502  0.21397024100E+02 -0.12085912305E+02  0.14126193231E+02  0.28345215677E+02  0.00000000000E+00 0.  1.
<mgrwt>
<rscale>  2 0.24574416E+02</rscale>
<asrwt>0</asrwt>
<pdfrwt beam="1">  1       21 0.52529739E-02 0.24574416E+02</pdfrwt>
<pdfrwt beam="2">  1       21 0.28931102E-02 0.24574416E+02</pdfrwt>
<totfact> 0.11427348E+08</totfact>
</mgrwt>
</event>
<event>
 4    1  0.7616518E+004  0.3014279E+02  0.7546771E-02  0.1596516E+00
         21   -1    0    0  501  502  0.00000000000E+00  0.00000000000E+00  0.33154608806E+01  0.33154608806E+01  0.00000000000E+00 0. -1.
         21   -1    0    0  502  503 -0.00000000000E+00 -0.00000000000E+00 -0.29840531902E+03  0.29840531902E+03  0.00000000000E+00 0. -1.
          1    1    1    2  501    0  0.91123357706E+01  0.28732436779E+02 -0.10444190310E+03  0.10870463978E+03  0.00000000000E+00 0.  1.
         -1    1    1    2    0  503 -0.91123357706E+01 -0.28732436779E+02 -0.19064795504E+03  0.19301614013E+03  0.00000000000E+00 0. -1.
<mgrwt>
<rscale>  2 0.30142787E+02</rscale>
<asrwt>0</asrwt>
<pdfrwt beam="1">  1       21 0.51007091E-03 0.30142787E+02</pdfrwt>
<pdfrwt beam="2">  1       21 0.45908510E-01 0.30142787E+02</pdfrwt>
<totfact> 0.38989761E+07</totfact>
</mgrwt>
</event>
<event>
 4    1  0.7616518E+004  0.2013353E+02  0.7546771E-02  0.1742686E+00
         21   -1    0    0  501  502  0.00000000000E+00  0.00000000000E+00  0.29139779811E+03  0.29139779811E+03  0.00000000000E+00 0.  1.
         21   -1    0    0  502  503 -0.00000000000E+00 -0.00000000000E+00 -0.16527444567E+01  0.16527444567E+01  0.00000000000E+00 0.  1.
          3    1    1    2  501    0  0.20116286604E+02 -0.83316790366E+00  0.86571291602E+02  0.88881649878E+02  0.00000000000E+00 0.  1.
         -3    1    1    2    0  503 -0.20116286604E+02  0.83316790366E+00  0.20317376205E+03  0.20416889269E+03  0.00000000000E+00 0. -1.
<mgrwt>
<rscale>  2 0.20133533E+02</rscale>
<asrwt>0</asrwt>
<pdfrwt beam="1">  1       21 0.44830390E-01 0.20133533E+02</pdfrwt>
<pdfrwt beam="2">  1       21 0.25426861E-03 0.20133533E+02</pdfrwt>
<totfact> 0.10301198E+08</totfact>
</mgrwt>
</event>
<event>
 4    1  0.7616518E+004  0.3276498E+02  0.7546771E-02  0.1569394E+00
         21   -1    0    0  503  502  0.00000000000E+00  0.00000000000E+00  0.11710692716E+03  0.11710692716E+03  0.00000000000E+00 0.  1.
         21   -1    0    0  501  503 -0.00000000000E+00 -0.00000000000E+00 -0.92213958916E+01  0.92213958916E+01  0.00000000000E+00 0.  1.
          4    1    1    2  501    0  0.45264355644E+01  0.32450813539E+02  0.58784614735E+02  0.67299144481E+02  0.00000000000E+00 0.  1.
         -4    1    1    2    0  502 -0.45264355644E+01 -0.32450813539E+02  0.49100916529E+02  0.59029178567E+02  0.00000000000E+00 0. -1.
<mgrwt>
<rscale>  2 0.32764980E+02</rscale>
<asrwt>0</asrwt>
<pdfrwt beam="1">  1       21 0.18016449E-01 0.32764980E+02</pdfrwt>
<pdfrwt beam="2">  1       21 0.14186764E-02 0.32764980E+02</pdfrwt>
<totfact> 0.47152903E+07</totfact>
</mgrwt>
</event>
<event>
 4    1  0.7616518E+004  0.3231032E+02  0.7546771E-02  0.1573871E+00
         21   -1    0    0  503  502  0.00000000000E+00  0.00000000000E+00  0.94212768918E+01  0.94212768918E+01  0.00000000000E+00 0.  1.
         21   -1    0    0  501  503 -0.00000000000E+00 -0.00000000000E+00 -0.14739667233E+03  0.14739667233E+03  0.00000000000E+00 0.  1.
          4    1    1    2  501    0  0.26377879570E+02  0.18659157431E+02 -0.29922246634E+02  0.44037455993E+02  0.00000000000E+00 0. -1.
         -4    1    1    2    0  502 -0.26377879570E+02 -0.18659157431E+02 -0.10805314881E+03  0.11278049323E+03  0.00000000000E+00 0.  1.
<mgrwt>
<rscale>  2 0.32310319E+02</rscale>
<asrwt>0</asrwt>
<pdfrwt beam="1">  1       21 0.14494274E-02 0.32310319E+02</pdfrwt>
<pdfrwt beam="2">  1       21 0.22676409E-01 0.32310319E+02</pdfrwt>
<totfact> 0.30270275E+07</totfact>
</mgrwt>
</event>
<event>
 4    1  0.7616518E+004  0.2098407E+02  0.7546771E-02  0.1726438E+00
         21   -1    0    0  501  502  0.00000000000E+00  0.00000000000E+00  0.58679757631E+02  0.58679757631E+02  0.00000000000E+00 0. -1.
         21   -1    0    0  502  503 -0.00000000000E+00 -0.00000000000E+00 -0.91154224781E+01  0.91154224781E+01  0.00000000000E+00 0. -1.
          5    1    1    2  501    0 -0.61245759661E+01  0.20070399261E+02  0.39034589696E+02  0.44317384287E+02  0.00000000000E+00 0. -1.
         -5    1    1    2    0  503  0.61245759661E+01 -0.20070399261E+02  0.10529745456E+02  0.23477795822E+02  0.00000000000E+00 0.  1.
<mgrwt>
<rscale>  2 0.20984074E+02</rscale>
<asrwt>0</asrwt>
<pdfrwt beam="1">  1       21 0.90276548E-02 0.20984074E+02</pdfrwt>
<pdfrwt beam="2">  1       21 0.14023727E-02 0.20984074E+02</pdfrwt>
<totfact> 0.13797424E+08</totfact>
</mgrwt>
</event>
<event>
 4    1  0.7616518E+004  0.2536850E+02  0.7546771E-02  0.1655765E+00
         21   -1    0    0  503  502  0.00000000000E+00  0.00000000000E+00  0.11448126087E+03  0.11448126087E+03  0.00000000000E+00 0. -1.
         21   -1    0    0  501  503 -0.00000000000E+00 -0.00000000000E+00 -0.76215296457E+01  0.76215296457E+01  0.00000000000E+00 0. -1.
          1    1    1    2  501    0  0.24746572471E+02  0.55828053508E+01  0.22155479297E+02  0.33681238509E+02  0.00000000000E+00 0.  1.
         -1    1    1    2    0  502 -0.24746572471E+02 -0.55828053508E+01  0.84704251926E+02  0.88421552005E+02  0.00000000000E+00 0. -1.
<mgrwt>
<rscale>  2 0.25368496E+02</rscale>
<asrwt>0</asrwt>
<pdfrwt beam="1">  1       21 0.17612500E-01 0.25368496E+02</pdfrwt>
<pdfrwt beam="2">  1       21 0.11725431E-02 0.25368496E+02</pdfrwt>
<totfact> 0.61943670E+07</totfact>
</mgrwt>
</event>
<event>
 4    1  0.7616518E+004  0.2450227E+02  0.7546771E-02  0.1668256E+00
         21   -1    0    0  501  502  0.00000000000E+00  0.00000000000E+00  0.60779127839E+00  0.60779127839E+00  0.00000000000E+00 0. -1.
         21   -1    0    0  502  503 -0.00000000000E+00 -0.00000000000E+00 -0.10129187145E+04  0.10129187145E+04  0.00000000000E+00 0. -1.
          3    1    1    2  501    0  0.22486439029E+02  0.97324814842E+01 -0.58599739219E+03  0.58650942430E+03  0.00000000000E+00 0.  1.
         -3    1    1    2    0  503 -0.22486439029E+02 -0.97324814842E+01 -0.42631353107E+03  0.42701708152E+03  0.00000000000E+00 0. -1.
<mgrwt>
<rscale>  2 0.24502268E+02</rscale>
<asrwt>0</asrwt>
<pdfrwt beam="1">  1       21 0.93506674E-04 0.24502268E+02</pdfrwt>
<pdfrwt beam="2">  1       21 0.15583311E+00 0.24502268E+02</pdfrwt>
<totfact> 0.32099705E+07</totfact>
</mgrwt>
</event>
<event>
 4    1  0.7616518E+004  0.2031839E+02  0.7546771E-02  0.1739070E+00
         21   -1    0    0  501  502  0.00000000000E+00  0.00000000000E+00  0.32595715549E+03  0.32595715549E+03  0.00000000000E+00 0.  1.
         21   -1    0    0  502  503 -0.00000000000E+00 -0.00000000000E+00 -0.13132830566E+01  0.13132830566E+01  0.00000000000E+00 0.  1.
          4    1    1    2  501    0  0.20281440772E+02  0.12247830279E+01  0.13144969403E+03  0.13301074766E+03  0.00000000000E+00 0. -1.
         -4    1    1    2    0  503 -0.20281440772E+02 -0.12247830279E+01  0.19319417840E+03  0.19425969088E+03  0.00000000000E+00 0.  1.
<mgrwt>
<rscale>  2 0.20318389E+02</rscale>
<asrwt>0</asrwt>
<pdfrwt beam="1">  1       21 0.50147190E-01 0.20318389E+02</pdfrwt>
<pdfrwt beam="2">  1       21 0.20204381E-03 0.20318389E+02</pdfrwt>
<totfact> 0.11603252E+08</totfact>
</mgrwt>
</event>
<event>
 4    1  0.7616518E+004  0.2858676E+02  0.7546771E-02  0.1614257E+00
         21   -1    0    0  501  502  0.00000000000E+00  0.00000000000E+00  0.25901321913E+01  0.25901321913E+01  0.00000000000E+00 0.  1.
         21   -1    0    0  502  503 -0.00000000000E+00 -0.00000000000E+00 -0.36622209312E+03  0.36622209312E+03  0.00000000000E+00 0.  1.
          2    1    1    2  501    0  0.52884616834E+01  0.28093321911E+02 -0.25043988360E+03  0.25206613787E+03  0.00000000000E+00 0. -1.
         -2    1    1    2    0  503 -0.52884616834E+01 -0.28093321911E+02 -0.11319207733E+03  0.11674608745E+03  0.00000000000E+00 0.  1.
<mgrwt>
<rscale>  2 0.28586755E+02</rscale>
<asrwt>0</asrwt>
<pdfrwt beam="1">  1       21 0.39848163E-03 0.28586755E+02</pdfrwt>
<pdfrwt beam="2">  1       21 0.56341896E-01 0.28586755E+02</pdfrwt>
<totfact> 0.37181929E+07</totfact>
</mgrwt>
</event>
<event>
 4    1  0.7616518E+004  0.4795588E+02  0.7546771E-02  0.1456689E+00
         21   -1    0    0  503  502  0.00000000000E+00  0.00000000000E+00  0.46850961685E+01  0.46850961685E+01  0.00000000000E+00 0.  1.
         21   -1    0    0  501  503 -0.00000000000E+00 -0.00000000000E+00 -0.51859023242E+03  0.51859023242E+03  0.00000000000E+00 0.  1.
          3    1    1    2  501    0 -0.18068217290E+02  0.44421912321E+02 -0.19646067060E+03  0.20222898373E+03  0.00000000000E+00 0.  1.
         -3    1    1    2    0  502  0.18068217290E+02 -0.44421912321E+02 -0.31744446565E+03  0.32104634485E+03  0.00000000000E+00 0. -1.
<mgrwt>
<rscale>  2 0.47955884E+02</rscale>
<asrwt>0</asrwt>
<pdfrwt beam="1">  1       21 0.72078425E-03 0.47955884E+02</pdfrwt>
<pdfrwt beam="2">  1       21 0.79783088E-01 0.47955884E+02</pdfrwt>
<totfact> 0.79978491E+06</totfact>
</mgrwt>
</event>
<event>
 4    1  0.7616518E+004  0.3194839E+02  0.7546771E-02  0.1577499E+00
         21   -1    0    0  503  502  0.00000000000E+00  0.00000000000E+00  0.43838016452E+01  0.43838016452E+01  0.00000000000E+00 0.  1.
         21   -1    0    0  501  503 -0.00000000000E+00 -0.00000000000E+00 -0.32122160750E+03  0.32122160750E+03  0.00000000000E+00 0.  1.
          3    1    1    2  501    0 -0.22448572557E+02 -0.22732382425E+02 -0.73019652002E+02  0.79703006211E+02  0.00000000000E+00 0.  1.
         -3    1    1    2    0  502  0.22448572557E+02  0.22732382425E+02 -0.24381815385E+03  0.24590240293E+03  0.00000000000E+00 0. -1.
<mgrwt>
<rscale>  2 0.31948390E+02</rscale>
<asrwt>0</asrwt>
<pdfrwt beam="1">  1       21 0.67443111E-03 0.31948390E+02</pdfrwt>
<pdfrwt beam="2">  1       21 0.49418702E-01 0.31948390E+02</pdfrwt>
<totfact> 0.22468885E+07</totfact>
</mgrwt>
</event>
<event>
 4    1  0.7616518E+004  0.2924759E+02  0.7546771E-02  0.1606558E+00
         21   -1    0    0  501  502  0.00000000000E+00  0.00000000000E+00  0.14356545603E+02  0.14356545603E+02  0.00000000000E+00 0.  1.
         21   -1    0    0  502  503 -0.00000000000E+00 -0.00000000000E+00 -0.87804022242E+02  0.87804022242E+02  0.00000000000E+00 0.  1.
          4    1    1    2  501    0  0.19231274323E+02 -0.22035871590E+02 -0.65682111749E+02  0.71899661700E+02  0.00000000000E+00 0.  1.
         -4    1    1    2    0  503 -0.19231274323E+02  0.22035871590E+02 -0.77653648891E+01  0.30260906144E+02  0.00000000000E+00 0. -1.
<mgrwt>
<rscale>  2 0.29247590E+02</rscale>
<asrwt>0</asrwt>
<pdfrwt beam="1">  1       21 0.22086993E-02 0.29247590E+02</pdfrwt>
<pdfrwt beam="2">  1       21 0.13508311E-01 0.29247590E+02</pdfrwt>
<totfact> 0.38252805E+07</totfact>
</mgrwt>
</event>
<event>
 4    1  0.7616518E+004  0.3052294E+02  0.7546771E-02  0.1592379E+00
         21   -1    0    0  501  502  0.00000000000E+00  0.00000000000E+00  0.13807874176E+03  0.13807874176E+03  0.00000000000E+00 0. -1.
         21   -1    0    0  502  503 -0.00000000000E+00 -0.00000000000E+00 -0.12292724682E+02  0.12292724682E+02  0.00000000000E+00 0. -1.
          1    1    1    2  501    0 -0.15227188674E+02 -0.26453405609E+02  0.11339183075E+03  0.11742809384E+03  0.00000000000E+00 0.  1.
         -1    1    1    2    0  503  0.15227188674E+02  0.26453405609E+02  0.12394186324E+02  0.32943372594E+02  0.00000000000E+00 0. -1.
<mgrwt>
<rscale>  2 0.30522941E+02</rscale>
<asrwt>0</asrwt>
<pdfrwt beam="1">  1       21 0.21242882E-01 0.30522941E+02</pdfrwt>
<pdfrwt beam="2">  1       21 0.18911885E-02 0.30522941E+02</pdfrwt>
<totfact> 0.22329993E+07</totfact>
</mgrwt>
</event>
<event>
 4    1  0.7616518E+004  0.3613192E+02  0.7546771E-02  0.1538773E+00
         21   -1    0    0  501  502  0.00000000000E+00  0.00000000000E+00  0.46527123908E+02  0.46527123908E+02  0.00000000000E+00 0. -1.
         21   -1    0    0  502  503 -0.00000000000E+00 -0.00000000000E+00 -0.29920677416E+02  0.29920677416E+02  0.00000000000E+00 0. -1.
          5    1    1    2  501    0 -0.10058111767E+02  0.34703748520E+02 -0.12307387963E+01  0.36152876672E+02  0.00000000000E+00 0.  1.
         -5    1    1    2    0  503  0.10058111767E+02 -0.34703748520E+02  0.17837185288E+02  0.40294924651E+02  0.00000000000E+00 0. -1.
<mgrwt>
<rscale>  2 0.36131922E+02</rscale>
<asrwt>0</asrwt>
<pdfrwt beam="1">  1       21 0.71580191E-02 0.36131922E+02</pdfrwt>
<pdfrwt beam="2">  1       21 0.46031811E-02 0.36131922E+02</pdfrwt>
<totfact> 0.36226474E+07</totfact>
</mgrwt>
</event>
<event>
 4    1  0.7616518E+004  0.2010662E+02  0.7546771E-02  0.1743216E+00
         21   -1    0    0  501  502  0.00000000000E+00  0.00000000000E+00  0.23329002293E+01  0.23329002293E+01  0.00000000000E+00 0.  1.
         21   -1    0    0  502  503 -0.00000000000E+00 -0.00000000000E+00 -0.17384755526E+03  0.17384755526E+03  0.00000000000E+00 0.  1.
          1    1    1    2  501    0  0.10097382919E+02  0.17387325982E+02 -0.80783926760E+02  0.83248537941E+02  0.00000000000E+00 0.  1.
         -1    1    1    2    0  503 -0.10097382919E+02 -0.17387325982E+02 -0.90730728269E+02  0.92931917546E+02  0.00000000000E+00 0. -1.
<mgrwt>
<rscale>  2 0.20106622E+02</rscale>
<asrwt>0</asrwt>
<pdfrwt beam="1">  1       21 0.35890761E-03 0.20106622E+02</pdfrwt>
<pdfrwt beam="2">  1       21 0.26745786E-01 0.20106622E+02</pdfrwt>
<totfact> 0.16160439E+08</totfact>
</mgrwt>
</event>
<event>
 4    1  0.7616518E+004  0.2371236E+02  0.7546771E-02  0.1680217E+00
         21   -1    0    0  501  502  0.00000000000E+00  0.00000000000E+00  0.23719689607E+02  0.23719689607E+02  0.00000000000E+00 0. -1.
         21   -1    0    0  502  503 -0.00000000000E+00 -0.00000000000E+00 -0.25357066320E+02  0.25357066320E+02  0.00000000000E+00 0. -1.
          2    1    1    2  501    0 -0.48444220475E+01 -0.23212225499E+02  0.54446631781E+01  0.24329410077E+02  0.00000000000E+00 0. -1.
         -2    1    1    2    0  503  0.48444220475E+01  0.23212225499E+02 -0.70820398915E+01  0.24747345850E+02  0.00000000000E+00 0.  1.
<mgrwt>
<rscale>  2 0.23712356E+02</rscale>
<asrwt>0</asrwt>
<pdfrwt beam="1">  1       21 0.36491830E-02 0.23712356E+02</pdfrwt>
<pdfrwt beam="2">  1       21 0.39010871E-02 0.23712356E+02</pdfrwt>
<totfact> 0.12612282E+08</totfact>
</mgrwt>
</event>
<event>
 4    1  0.7616518E+004  0.4739455E+02  0.7546771E-02  0.1459924E+00
         21   -1    0    0  501  502  0.00000000000E+00  0.00000000000E+00  0.10564762651E+04  0.10564762651E+04  0.00000000000E+00 0. -1.
         21   -1    0    0  502  503 -0.00000000000E+00 -0.00000000000E+00 -0.25227988818E+01  0.25227988818E+01  0.00000000000E+00 0. -1.
          3    1    1    2  501    0 -0.28009384540E+02 -0.38232422875E+02  0.31702537296E+03  0.32054848445E+03  0.00000000000E+00 0.  1.
         -3    1    1    2    0  503  0.28009384540E+02  0.38232422875E+02  0.73692809322E+03  0.73845057950E+03  0.00000000000E+00 0. -1.
<mgrwt>
<rscale>  2 0.47394554E+02</rscale>
<asrwt>0</asrwt>
<pdfrwt beam="1">  1       21 0.16253446E+00 0.47394554E+02</pdfrwt>
<pdfrwt beam="2">  1       21 0.38812375E-03 0.47394554E+02</pdfrwt>
<totfact> 0.38880094E+06</totfact>
</mgrwt>
</event>
<event>
 4    1  0.7616518E+004  0.2577833E+02  0.7546771E-02  0.1650068E+00
         21   -1    0    0  503  502  0.00000000000E+00  0.00000000000E+00  0.86596336762E+01  0.86596336762E+01  0.00000000000E+00 0. -1.
         21   -1    0    0  501  503 -0.00000000000E+00 -0.00000000000E+00 -0.76809722163E+02  0.76809722163E+02  0.00000000000E+00 0. -1.
          4    1    1    2  501    0  0.24151272698E+02 -0.90132176004E+01 -0.35381862125E+02  0.43776685940E+02  0.00000000000E+00 0. -1.
         -4    1    1    2    0  502 -0.24151272698E+02  0.90132176004E+01 -0.32768226362E+02  0.41692669899E+02  0.00000000000E+00 0.  1.
<mgrwt>
<rscale>  2 0.25778325E+02</rscale>
<asrwt>0</asrwt>
<pdfrwt beam="1">  1       21 0.13322513E-02 0.25778325E+02</pdfrwt>
<pdfrwt beam="2">  1       21 0.11816880E-01 0.25778325E+02</pdfrwt>
<totfact> 0.10119957E+08</totfact>
</mgrwt>
</event>
<event>
 4    1  0.7616518E+004  0.2103289E+02  0.7546771E-02  0.1725535E+00
         21   -1    0    0  501  502  0.00000000000E+00  0.00000000000E+00  0.38236745824E+02  0.38236745824E+02  0.00000000000E+00 0. -1.
         21   -1    0    0  502  503 -0.00000000000E+00 -0.00000000000E+00 -0.12322154617E+02  0.12322154617E+02  0.00000000000E+00 0. -1.
          3    1    1    2  501    0 -0.21029716178E+02  0.36558928892E+00  0.19204743462E+02  0.28481657071E+02  0.00000000000E+00 0. -1.
         -3    1    1    2    0  503  0.21029716178E+02 -0.36558928892E+00  0.67098477447E+01  0.22077243370E+02  0.00000000000E+00 0.  1.
<mgrwt>
<rscale>  2 0.21032894E+02</rscale>
<asrwt>0</asrwt>
<pdfrwt beam="1">  1       21 0.58825762E-02 0.21032894E+02</pdfrwt>
<pdfrwt beam="2">  1       21 0.18957161E-02 0.21032894E+02</pdfrwt>
<totfact> 0.17461925E+08</totfact>
</mgrwt>
</event>
<event>
 4    1  0.7616518E+004  0.2149301E+02  0.7546771E-02  0.1717171E+00
         21   -1    0    0  503  502  0.00000000000E+00  0.00000000000E+00  0.45898447256E+03  0.45898447256E+03  0.00000000000E+00 0. -1.
         21   -1    0    0  501  503 -0.00000000000E+00 -0.00000000000E+00 -0.10090156557E+01  0.10090156557E+01  0.00000000000E+00 0. -1.
          5    1    1    2  501    0 -0.19099999497E+02 -0.98559308885E+01  0.21741187251E+03  0.21847167245E+03  0.00000000000E+00 0. -1.
         -5    1    1    2    0  502  0.19099999497E+02  0.98559308885E+01  0.24056358439E+03  0.24152181577E+03  0.00000000000E+00 0.  1.
<mgrwt>
<rscale>  2 0.21493007E+02</rscale>
<asrwt>0</asrwt>
<pdfrwt beam="1">  1       21 0.70612829E-01 0.21493007E+02</pdfrwt>
<pdfrwt beam="2">  1       21 0.15523354E-03 0.21493007E+02</pdfrwt>
<totfact> 0.87050497E+07</totfact>
</mgrwt>
</event>
<event>
 4    1  0.7616518E+004  0.2083652E+02  0.7546771E-02  0.1729187E+00
         21   -1    0    0  501  502  0.00000000000E+00  0.00000000000E+00  0.83115069316E+02  0.83115069316E+02  0.00000000000E+00 0.  1.
         21   -1    0    0  502  503 -0.00000000000E+00 -0.00000000000E+00 -0.52549766560E+01  0.52549766560E+01  0.00000000000E+00 0.  1.
          4    1    1    2  501    0  0.20831857764E+02 -0.44067925028E+00  0.35516220309E+02  0.41177207301E+02  0.00000000000E+00 0.  1.
         -4    1    1    2    0  503 -0.20831857764E+02  0.44067925028E+00  0.42343872351E+02  0.47192838671E+02  0.00000000000E+00 0. -1.
<mgrwt>
<rscale>  2 0.20836518E+02</rscale>
<asrwt>0</asrwt>
<pdfrwt beam="1">  1       21 0.12786933E-01 0.20836518E+02</pdfrwt>
<pdfrwt beam="2">  1       21 0.80845801E-03 0.20836518E+02</pdfrwt>
<totfact> 0.17671113E+08</totfact>
</mgrwt>
</event>
<event>
 4    1  0.7616518E+004  0.2110260E+02  0.7546771E-02  0.1724251E+00
         21   -1    0    0  501  502  0.00000000000E+00  0.00000000000E+00  0.54760224181E+02  0.54760224181E+02  0.00000000000E+00 0. -1.
         21   -1    0    0  502  503 -0.00000000000E+00 -0.00000000000E+00 -0.81880716875E+01  0.81880716875E+01  0.00000000000E+00 0. -1.
          2    1    1    2  501    0  0.19199502006E+02  0.87577886574E+01  0.25886566622E+02  0.33398114781E+02  0.00000000000E+00 0. -1.
         -2    1    1    2    0  503 -0.19199502006E+02 -0.87577886574E+01  0.20685585872E+02  0.29550181088E+02  0.00000000000E+00 0.  1.
<mgrwt>
<rscale>  2 0.21102600E+02</rscale>
<asrwt>0</asrwt>
<pdfrwt beam="1">  1       21 0.84246496E-02 0.21102600E+02</pdfrwt>
<pdfrwt beam="2">  1       21 0.12597034E-02 0.21102600E+02</pdfrwt>
<totfact> 0.18194432E+08</totfact>
</mgrwt>
</event>
<event>
 4    1  0.7616518E+004  0.2330254E+02  0.7546771E-02  0.1686653E+00
         21   -1    0    0  503  502  0.00000000000E+00  0.00000000000E+00  0.23054708243E+02  0.23054708243E+02  0.00000000000E+00 0. -1.
         21   -1    0    0  501  503 -0.00000000000E+00 -0.00000000000E+00 -0.24931330693E+02  0.24931330693E+02  0.00000000000E+00 0. -1.
          4    1    1    2  501    0  0.14259581440E+02  0.18430205714E+02  0.47030612451E+01  0.23772398503E+02  0.00000000000E+00 0. -1.
         -4    1    1    2    0  502 -0.14259581440E+02 -0.18430205714E+02 -0.65796836945E+01  0.24213640433E+02  0.00000000000E+00 0.  1.
<mgrwt>
<rscale>  2 0.23302535E+02</rscale>
<asrwt>0</asrwt>
<pdfrwt beam="1">  1       21 0.35468782E-02 0.23302535E+02</pdfrwt>
<pdfrwt beam="2">  1       21 0.38355893E-02 0.23302535E+02</pdfrwt>
<totfact> 0.13474294E+08</totfact>
</mgrwt>
</event>
<event>
 4    1  0.7616518E+004  0.2000261E+02  0.7546771E-02  0.1745276E+00
         21   -1    0    0  501  502  0.00000000000E+00  0.00000000000E+00  0.50192374748E+02  0.50192374748E+02  0.00000000000E+00 0.  1.
         21   -1    0    0  502  503 -0.00000000000E+00 -0.00000000000E+00 -0.10807335952E+02  0.10807335952E+02  0.00000000000E+00 0.  1.
          5    1    1    2  501    0 -0.55406850096E+01 -0.19219922322E+02  0.40687805182E+01  0.20412240919E+02  0.00000000000E+00 0.  1.
         -5    1    1    2    0  503  0.55406850096E+01  0.19219922322E+02  0.35316258278E+02  0.40587469781E+02  0.00000000000E+00 0. -1.
<mgrwt>
<rscale>  2 0.20002615E+02</rscale>
<asrwt>0</asrwt>
<pdfrwt beam="1">  1       21 0.77219037E-02 0.20002615E+02</pdfrwt>
<pdfrwt beam="2">  1       21 0.16626671E-02 0.20002615E+02</pdfrwt>
<totfact> 0.13546375E+08</totfact>
</mgrwt>
</event>
<event>
 4    1  0.7616518E+004  0.2062827E+02  0.7546771E-02  0.1733115E+00
         21   -1    0    0  503  502  0.00000000000E+00  0.00000000000E+00  0.60871185141E+00  0.60871185141E+00  0.00000000000E+00 0. -1.
         21   -1    0    0  501  503 -0.00000000000E+00 -0.00000000000E+00 -0.69908976974E+03  0.69908976974E+03  0.00000000000E+00 0. -1.
          2    1    1    2  501    0 -0.17921720518E+02 -0.10214570279E+02 -0.35156065657E+03  0.35216533157E+03  0.00000000000E+00 0. -1.
         -2    1    1    2    0  502  0.17921720518E+02  0.10214570279E+02 -0.34692040132E+03  0.34753315002E+03  0.00000000000E+00 0.  1.
<mgrwt>
<rscale>  2 0.20628270E+02</rscale>
<asrwt>0</asrwt>
<pdfrwt beam="1">  1       21 0.93648201E-04 0.20628270E+02</pdfrwt>
<pdfrwt beam="2">  1       21 0.10755202E+00 0.20628270E+02</pdfrwt>
<totfact> 0.72441455E+07</totfact>
</mgrwt>
</event>
<event>
 4    1  0.7616518E+004  0.3097657E+02  0.7546771E-02  0.1587538E+00
         21   -1    0    0  503  502  0.00000000000E+00  0.00000000000E+00  0.23079040882E+02  0.23079040882E+02  0.00000000000E+00 0. -1.
         21   -1    0    0  501  503 -0.00000000000E+00 -0.00000000000E+00 -0.53665997023E+02  0.53665997023E+02  0.00000000000E+00 0. -1.
          3    1    1    2  501    0 -0.29617295728E+02  0.90754590165E+01  0.29191635374E+01  0.31113818126E+02  0.00000000000E+00 0.  1.
         -3    1    1    2    0  502  0.29617295728E+02 -0.90754590165E+01 -0.33506119679E+02  0.45631219779E+02  0.00000000000E+00 0. -1.
<mgrwt>
<rscale>  2 0.30976574E+02</rscale>
<asrwt>0</asrwt>
<pdfrwt beam="1">  1       21 0.35506217E-02 0.30976574E+02</pdfrwt>
<pdfrwt beam="2">  1       21 0.82563072E-02 0.30976574E+02</pdfrwt>
<totfact> 0.42010330E+07</totfact>
</mgrwt>
</event>
<event>
 4    1  0.7616518E+004  0.2045191E+02  0.7546771E-02  0.1736488E+00
         21   -1    0    0  503  502  0.00000000000E+00  0.00000000000E+00  0.20916982904E+02  0.20916982904E+02  0.00000000000E+00 0. -1.
         21   -1    0    0  501  503 -0.00000000000E+00 -0.00000000000E+00 -0.21275451079E+02  0.21275451079E+02  0.00000000000E+00 0. -1.
          5    1    1    2  501    0 -0.10424409951E+02 -0.17595804492E+02 -0.53502608812E+01  0.21140150189E+02  0.00000000000E+00 0.  1.
         -5    1    1    2    0  502  0.10424409951E+02  0.17595804492E+02  0.49917927055E+01  0.21052283794E+02  0.00000000000E+00 0. -1.
<mgrwt>
<rscale>  2 0.20451911E+02</rscale>
<asrwt>0</asrwt>
<pdfrwt beam="1">  1       21 0.32179973E-02 0.20451911E+02</pdfrwt>
<pdfrwt beam="2">  1       21 0.32731463E-02 0.20451911E+02</pdfrwt>
<totfact> 0.19303058E+08</totfact>
</mgrwt>
</event>
<event>
 4    1  0.7616518E+004  0.2039775E+02  0.7546771E-02  0.1737532E+00
         21   -1    0    0  503  502  0.00000000000E+00  0.00000000000E+00  0.59899854584E+01  0.59899854584E+01  0.00000000000E+00 0. -1.
         21   -1    0    0  501  503 -0.00000000000E+00 -0.00000000000E+00 -0.72882806575E+02  0.72882806575E+02  0.00000000000E+00 0. -1.
          1    1    1    2  501    0  0.17125408304E+02 -0.11081010316E+02 -0.41991830049E+02  0.46683853633E+02  0.00000000000E+00 0.  1.
         -1    1    1    2    0  502 -0.17125408304E+02  0.11081010316E+02 -0.24900991068E+02  0.32188938401E+02  0.00000000000E+00 0. -1.
<mgrwt>
<rscale>  2 0.20397755E+02</rscale>
<asrwt>0</asrwt>
<pdfrwt beam="1">  1       21 0.92153625E-03 0.20397755E+02</pdfrwt>
<pdfrwt beam="2">  1       21 0.11212739E-01 0.20397755E+02</pdfrwt>
<totfact> 0.17978233E+08</totfact>
</mgrwt>
</event>
<event>
 4    1  0.7616518E+004  0.3096821E+02  0.7546771E-02  0.1587627E+00
         21   -1    0    0  501  502  0.00000000000E+00  0.00000000000E+00  0.26739043744E+03  0.26739043744E+03  0.00000000000E+00 0. -1.
         21   -1    0    0  502  503 -0.00000000000E+00 -0.00000000000E+00 -0.50163240909E+01  0.50163240909E+01  0.00000000000E+00 0. -1.
          5    1    1    2  501    0 -0.27418540778E+02 -0.14396309391E+02  0.20390086942E+03  0.20623916857E+03  0.00000000000E+00 0.  1.
         -5    1    1    2    0  503  0.27418540778E+02  0.14396309391E+02  0.58473243924E+02  0.66167592955E+02  0.00000000000E+00 0. -1.
<mgrwt>
<rscale>  2 0.30968211E+02</rscale>
<asrwt>0</asrwt>
<pdfrwt beam="1">  1       21 0.41136979E-01 0.30968211E+02</pdfrwt>
<pdfrwt beam="2">  1       21 0.77174238E-03 0.30968211E+02</pdfrwt>
<totfact> 0.26047035E+07</totfact>
</mgrwt>
</event>
<event>
 4    1  0.7616518E+004  0.2317401E+02  0.7546771E-02  0.1688705E+00
         21   -1    0    0  501  502  0.00000000000E+00  0.00000000000E+00  0.27930755600E+03  0.27930755600E+03  0.00000000000E+00 0. -1.
         21   -1    0    0  502  503 -0.00000000000E+00 -0.00000000000E+00 -0.30493791271E+01  0.30493791271E+01  0.00000000000E+00 0. -1.
          5    1    1    2  501    0 -0.19419690467E+02  0.12645562581E+02  0.52315516298E+02  0.57218422526E+02  0.00000000000E+00 0. -1.
         -5    1    1    2    0  503  0.19419690467E+02 -0.12645562581E+02  0.22394266058E+03  0.22513851260E+03  0.00000000000E+00 0.  1.
<mgrwt>
<rscale>  2 0.23174008E+02</rscale>
<asrwt>0</asrwt>
<pdfrwt beam="1">  1       21 0.42970373E-01 0.23174008E+02</pdfrwt>
<pdfrwt beam="2">  1       21 0.46913547E-03 0.23174008E+02</pdfrwt>
<totfact> 0.47369162E+07</totfact>
</mgrwt>
</event>
<event>
 4    1  0.7616518E+004  0.2548242E+02  0.7546771E-02  0.1654168E+00
         21   -1    0    0  503  502  0.00000000000E+00  0.00000000000E+00  0.54719367974E+02  0.54719367974E+02  0.00000000000E+00 0.  1.
         21   -1    0    0  501  503 -0.00000000000E+00 -0.00000000000E+00 -0.12158844714E+02  0.12158844714E+02  0.00000000000E+00 0.  1.
          1    1    1    2  501    0 -0.81788970291E+01  0.24134190939E+02  0.26461110051E+02  0.36736138529E+02  0.00000000000E+00 0.  1.
         -1    1    1    2    0  502  0.81788970291E+01 -0.24134190939E+02  0.16099413210E+02  0.30142074159E+02  0.00000000000E+00 0. -1.
<mgrwt>
<rscale>  2 0.25482416E+02</rscale>
<asrwt>0</asrwt>
<pdfrwt beam="1">  1       21 0.84183642E-02 0.25482416E+02</pdfrwt>
<pdfrwt beam="2">  1       21 0.18705915E-02 0.25482416E+02</pdfrwt>
<totfact> 0.10550218E+08</totfact>
</mgrwt>
</event>
<event>
 4    1  0.7616518E+004  0.3052563E+02  0.7546771E-02  0.1592350E+00
         21   -1    0    0  501  502  0.00000000000E+00  0.00000000000E+00  0.26571882883E+01  0.26571882883E+01  0.00000000000E+00 0. -1.
         21   -1    0    0  502  503 -0.00000000000E+00 -0.00000000000E+00 -0.36959197369E+03  0.36959197369E+03  0.00000000000E+00 0. -1.
          4    1    1    2  501    0  0.51481858488E+01  0.30088373312E+02 -0.22557385523E+03  0.22762991497E+03  0.00000000000E+00 0.  1.
         -4    1    1    2    0  503 -0.51481858488E+01 -0.30088373312E+02 -0.14136093017E+03  0.14461924701E+03  0.00000000000E+00 0. -1.
<mgrwt>
<rscale>  2 0.30525629E+02</rscale>
<asrwt>0</asrwt>
<pdfrwt beam="1">  1       21 0.40879839E-03 0.30525629E+02</pdfrwt>
<pdfrwt beam="2">  1       21 0.56860277E-01 0.30525629E+02</pdfrwt>
<totfact> 0.35595882E+07</totfact>
</mgrwt>
</event>
<event>
 4    1  0.7616518E+004  0.2366990E+02  0.7546771E-02  0.1680876E+00
         21   -1    0    0  503  502  0.00000000000E+00  0.00000000000E+00  0.20960581589E+02  0.20960581589E+02  0.00000000000E+00 0. -1.
         21   -1    0    0  501  503 -0.00000000000E+00 -0.00000000000E+00 -0.10937829649E+03  0.10937829649E+03  0.00000000000E+00 0. -1.
          3    1    1    2  501    0  0.13803676047E+02  0.19228175310E+02 -0.10085846181E+03  0.10359871388E+03  0.00000000000E+00 0. -1.
         -3    1    1    2    0  502 -0.13803676047E+02 -0.19228175310E+02  0.12440746906E+02  0.26740164205E+02  0.00000000000E+00 0.  1.
<mgrwt>
<rscale>  2 0.23669901E+02</rscale>
<asrwt>0</asrwt>
<pdfrwt beam="1">  1       21 0.32247048E-02 0.23669901E+02</pdfrwt>
<pdfrwt beam="2">  1       21 0.16827431E-01 0.23669901E+02</pdfrwt>
<totfact> 0.13934312E+07</totfact>
</mgrwt>
</event>
<event>
 4    1  0.7616518E+004  0.2198738E+02  0.7546771E-02  0.1708470E+00
         21   -1    0    0  501  502  0.00000000000E+00  0.00000000000E+00  0.22618971448E+02  0.22618971448E+02  0.00000000000E+00 0.  1.
         21   -1    0    0  502  503 -0.00000000000E+00 -0.00000000000E+00 -0.24193257329E+02  0.24193257329E+02  0.00000000000E+00 0.  1.
          4    1    1    2  501    0  0.19316614302E+02 -0.10503011745E+02  0.72037249372E+01  0.23137383101E+02  0.00000000000E+00 0. -1.
         -4    1    1    2    0  503 -0.19316614302E+02  0.10503011745E+02 -0.87780108181E+01  0.23674845675E+02  0.00000000000E+00 0.  1.
<mgrwt>
<rscale>  2 0.21987379E+02</rscale>
<asrwt>0</asrwt>
<pdfrwt beam="1">  1       21 0.34798418E-02 0.21987379E+02</pdfrwt>
<pdfrwt beam="2">  1       21 0.37220396E-02 0.21987379E+02</pdfrwt>
<totfact> 0.14300468E+08</totfact>
</mgrwt>
</event>
<event>
 4    1  0.7616518E+004  0.2033552E+02  0.7546771E-02  0.1738737E+00
         21   -1    0    0  501  502  0.00000000000E+00  0.00000000000E+00  0.53306817183E+01  0.53306817183E+01  0.00000000000E+00 0. -1.
         21   -1    0    0  502  503 -0.00000000000E+00 -0.00000000000E+00 -0.86748987457E+02  0.86748987457E+02  0.00000000000E+00 0. -1.
          3    1    1    2  501    0  0.47525101310E+01  0.19772383519E+02 -0.55680282126E+02  0.59277544823E+02  0.00000000000E+00 0. -1.
         -3    1    1    2    0  503 -0.47525101310E+01 -0.19772383519E+02 -0.25738023612E+02  0.32802124352E+02  0.00000000000E+00 0.  1.
<mgrwt>
<rscale>  2 0.20335523E+02</rscale>
<asrwt>0</asrwt>
<pdfrwt beam="1">  1       21 0.82010492E-03 0.20335523E+02</pdfrwt>
<pdfrwt beam="2">  1       21 0.13345997E-01 0.20335523E+02</pdfrwt>
<totfact> 0.15980821E+08</totfact>
</mgrwt>
</event>
<event>
 4    1  0.7616518E+004  0.3334108E+02  0.7546771E-02  0.1563846E+00
         21   -1    0    0  503  502  0.00000000000E+00  0.00000000000E+00  0.43829416355E+02  0.43829416355E+02  0.00000000000E+00 0. -1.
         21   -1    0    0  501  503 -0.00000000000E+00 -0.00000000000E+00 -0.28248284874E+02  0.28248284874E+02  0.00000000000E+00 0. -1.
          1    1    1    2  501    0  0.30672137821E+02  0.13070860189E+02  0.19309180460E+02  0.38528844710E+02  0.00000000000E+00 0. -1.
         -1    1    1    2    0  502 -0.30672137821E+02 -0.13070860189E+02 -0.37280489796E+01  0.33548856520E+02  0.00000000000E+00 0.  1.
<mgrwt>
<rscale>  2 0.33341077E+02</rscale>
<asrwt>0</asrwt>
<pdfrwt beam="1">  1       21 0.67429872E-02 0.33341077E+02</pdfrwt>
<pdfrwt beam="2">  1       21 0.43458899E-02 0.33341077E+02</pdfrwt>
<totfact> 0.43137070E+07</totfact>
</mgrwt>
</event>
<event>
 4    1  0.7616518E+004  0.2641870E+02  0.7546771E-02  0.1641423E+00
         21   -1    0    0  501  502  0.00000000000E+00  0.00000000000E+00  0.29631842020E+02  0.29631842020E+02  0.00000000000E+00 0.  1.
         21   -1    0    0  502  503 -0.00000000000E+00 -0.00000000000E+00 -0.28567550286E+02  0.28567550286E+02  0.00000000000E+00 0.  1.
          1    1    1    2  501    0 -0.80871415003E+01  0.25150460113E+02 -0.11658478939E+02  0.28876766313E+02  0.00000000000E+00 0. -1.
         -1    1    1    2    0  503  0.80871415003E+01 -0.25150460113E+02  0.12722770673E+02  0.29322625993E+02  0.00000000000E+00 0.  1.
<mgrwt>
<rscale>  2 0.26418696E+02</rscale>
<asrwt>0</asrwt>
<pdfrwt beam="1">  1       21 0.45587449E-02 0.26418696E+02</pdfrwt>
<pdfrwt beam="2">  1       21 0.43950077E-02 0.26418696E+02</pdfrwt>
<totfact> 0.75607863E+07</totfact>
</mgrwt>
</event>
<event>
 4    1  0.7616518E+004  0.2408145E+02  0.7546771E-02  0.1674557E+00
         21   -1    0    0  503  502  0.00000000000E+00  0.00000000000E+00  0.17442265379E+03  0.17442265379E+03  0.00000000000E+00 0. -1.
         21   -1    0    0  501  503 -0.00000000000E+00 -0.00000000000E+00 -0.36654885172E+01  0.36654885172E+01  0.00000000000E+00 0. -1.
          1    1    1    2  501    0  0.19714631347E+02 -0.13829304450E+02  0.11252626533E+03  0.11507422274E+03  0.00000000000E+00 0.  1.
         -1    1    1    2    0  502 -0.19714631347E+02  0.13829304450E+02  0.58230899943E+02  0.63013919565E+02  0.00000000000E+00 0. -1.
<mgrwt>
<rscale>  2 0.24081452E+02</rscale>
<asrwt>0</asrwt>
<pdfrwt beam="1">  1       21 0.26834248E-01 0.24081452E+02</pdfrwt>
<pdfrwt beam="2">  1       21 0.56392145E-03 0.24081452E+02</pdfrwt>
<totfact> 0.87034249E+07</totfact>
</mgrwt>
</event>
<event>
 4    1  0.7616518E+004  0.3534124E+02  0.7546771E-02  0.1545591E+00
         21   -1    0    0  503  502  0.00000000000E+00  0.00000000000E+00  0.23539397392E+03  0.23539397392E+03  0.00000000000E+00 0.  1.
         21   -1    0    0  501  503 -0.00000000000E+00 -0.00000000000E+00 -0.53095690585E+01  0.53095690585E+01  0.00000000000E+00 0.  1.
          3    1    1    2  501    0  0.29470634982E+02  0.19506025019E+02  0.11192729210E+03  0.11737428192E+03  0.00000000000E+00 0. -1.
         -3    1    1    2    0  502 -0.29470634982E+02 -0.19506025019E+02  0.11815711276E+03  0.12332926106E+03  0.00000000000E+00 0.  1.
<mgrwt>
<rscale>  2 0.35341241E+02</rscale>
<asrwt>0</asrwt>
<pdfrwt beam="1">  1       21 0.36214450E-01 0.35341241E+02</pdfrwt>
<pdfrwt beam="2">  1       21 0.81685696E-03 0.35341241E+02</pdfrwt>
<totfact> 0.31199056E+07</totfact>
</mgrwt>
</event>
<event>
 4    1  0.7616518E+004  0.2823004E+02  0.7546771E-02  0.1618520E+00
         21   -1    0    0  501  502  0.00000000000E+00  0.00000000000E+00  0.87744479327E+02  0.87744479327E+02  0.00000000000E+00 0. -1.
         21   -1    0    0  502  503 -0.00000000000E+00 -0.00000000000E+00 -0.98085808734E+01  0.98085808734E+01  0.00000000000E+00 0. -1.
          2    1    1    2  501    0  0.20559792154E+02 -0.19345025105E+02  0.25696615476E+02  0.38173958357E+02  0.00000000000E+00 0.  1.
         -2    1    1    2    0  503 -0.20559792154E+02  0.19345025105E+02  0.52239282977E+02  0.59379101843E+02  0.00000000000E+00 0. -1.
<mgrwt>
<rscale>  2 0.28230038E+02</rscale>
<asrwt>0</asrwt>
<pdfrwt beam="1">  1       21 0.13499150E-01 0.28230038E+02</pdfrwt>
<pdfrwt beam="2">  1       21 0.15090125E-02 0.28230038E+02</pdfrwt>
<totfact> 0.68348446E+07</totfact>
</mgrwt>
</event>
<event>
 4    1  0.7616518E+004  0.4034607E+02  0.7546771E-02  0.1505680E+00
         21   -1    0    0  501  502  0.00000000000E+00  0.00000000000E+00  0.19284411476E+03  0.19284411476E+03  0.00000000000E+00 0. -1.
         21   -1    0    0  502  503 -0.00000000000E+00 -0.00000000000E+00 -0.84686786974E+01  0.84686786974E+01  0.00000000000E+00 0. -1.
          2    1    1    2  501    0  0.21941446535E+02 -0.33858207642E+02  0.86437617280E+02  0.95390078005E+02  0.00000000000E+00 0. -1.
         -2    1    1    2    0  503 -0.21941446535E+02  0.33858207642E+02  0.97937818781E+02  0.10592271545E+03  0.00000000000E+00 0.  1.
<mgrwt>
<rscale>  2 0.40346069E+02</rscale>
<asrwt>0</asrwt>
<pdfrwt beam="1">  1       21 0.29668322E-01 0.40346069E+02</pdfrwt>
<pdfrwt beam="2">  1       21 0.13028738E-02 0.40346069E+02</pdfrwt>
<totfact> 0.22704621E+07</totfact>
</mgrwt>
</event>
<event>
 4    1  0.7616518E+004  0.2220477E+02  0.7546771E-02  0.1704735E+00
         21   -1    0    0  503  502  0.00000000000E+00  0.00000000000E+00  0.81779802679E+03  0.81779802679E+03  0.00000000000E+00 0.  1.
         21   -1    0    0  501  503 -0.00000000000E+00 -0.00000000000E+00 -0.65504404706E+00  0.65504404706E+00  0.00000000000E+00 0.  1.
          5    1    1    2  501    0  0.19932289172E+02 -0.97854778334E+01  0.52402956152E+03  0.52449979321E+03  0.00000000000E+00 0. -1.
         -5    1    1    2    0  502 -0.19932289172E+02  0.97854778334E+01  0.29311342122E+03  0.29395327763E+03  0.00000000000E+00 0.  1.
<mgrwt>
<rscale>  2 0.22204768E+02</rscale>
<asrwt>0</asrwt>
<pdfrwt beam="1">  1       21 0.12581426E+00 0.22204768E+02</pdfrwt>
<pdfrwt beam="2">  1       21 0.10077666E-03 0.22204768E+02</pdfrwt>
<totfact> 0.46696091E+07</totfact>
</mgrwt>
</event>
<event>
 4    1  0.7616518E+004  0.2255070E+02  0.7546771E-02  0.1698898E+00
         21   -1    0    0  503  502  0.00000000000E+00  0.00000000000E+00  0.14945471724E+02  0.14945471724E+02  0.00000000000E+00 0.  1.
         21   -1    0    0  501  503 -0.00000000000E+00 -0.00000000000E+00 -0.37081698795E+02  0.37081698795E+02  0.00000000000E+00 0.  1.
          1    1    1    2  501    0  0.12656654629E+02 -0.18663951755E+02 -0.18535671756E+02  0.29190839813E+02  0.00000000000E+00 0.  1.
         -1    1    1    2    0  502 -0.12656654629E+02  0.18663951755E+02 -0.36005553151E+01  0.22836330706E+02  0.00000000000E+00 0. -1.
<mgrwt>
<rscale>  2 0.22550698E+02</rscale>
<asrwt>0</asrwt>
<pdfrwt beam="1">  1       21 0.22993034E-02 0.22550698E+02</pdfrwt>
<pdfrwt beam="2">  1       21 0.57048767E-02 0.22550698E+02</pdfrwt>
<totfact> 0.13937765E+08</totfact>
</mgrwt>
</event>
<event>
 4    1  0.7616518E+004  0.2251272E+02  0.7546771E-02  0.1699533E+00
         21   -1    0    0  503  502  0.00000000000E+00  0.00000000000E+00  0.98418648044E+02  0.98418648044E+02  0.00000000000E+00 0.  1.
         21   -1    0    0  501  503 -0.00000000000E+00 -0.00000000000E+00 -0.76296025543E+01  0.76296025543E+01  0.00000000000E+00 0.  1.
          5    1    1    2  501    0 -0.22138564983E+02 -0.40873803633E+01  0.15164169552E+02  0.27143595486E+02  0.00000000000E+00 0.  1.
         -5    1    1    2    0  502  0.22138564983E+02  0.40873803633E+01  0.75624875938E+02  0.78904655113E+02  0.00000000000E+00 0. -1.
<mgrwt>
<rscale>  2 0.22512724E+02</rscale>
<asrwt>0</asrwt>
<pdfrwt beam="1">  1       21 0.15141330E-01 0.22512724E+02</pdfrwt>
<pdfrwt beam="2">  1       21 0.11737851E-02 0.22512724E+02</pdfrwt>
<totfact> 0.77730140E+07</totfact>
</mgrwt>
</event>
<event>
 4    1  0.7616518E+004  0.2854168E+02  0.7546771E-02  0.1614791E+00
         21   -1    0    0  501  502  0.00000000000E+00  0.00000000000E+00  0.13111091994E+02  0.13111091994E+02  0.00000000000E+00 0. -1.
         21   -1    0    0  502  503 -0.00000000000E+00 -0.00000000000E+00 -0.13834165464E+03  0.13834165464E+03  0.00000000000E+00 0. -1.
          3    1    1    2  501    0  0.27706307716E+02 -0.68547625728E+01 -0.11882012447E+03  0.12220003779E+03  0.00000000000E+00 0. -1.
         -3    1    1    2    0  503 -0.27706307716E+02  0.68547625728E+01 -0.64104381804E+01  0.29252708846E+02  0.00000000000E+00 0.  1.
<mgrwt>
<rscale>  2 0.28541676E+02</rscale>
<asrwt>0</asrwt>
<pdfrwt beam="1">  1       21 0.20170911E-02 0.28541676E+02</pdfrwt>
<pdfrwt beam="2">  1       21 0.21283331E-01 0.28541676E+02</pdfrwt>
<totfact> 0.19891516E+07</totfact>
</mgrwt>
</event>
<event>
 4    1  0.7616518E+004  0.2141115E+02  0.7546771E-02  0.1718639E+00
         21   -1    0    0  501  502  0.00000000000E+00  0.00000000000E+00  0.30695935452E+01  0.30695935452E+01  0.00000000000E+00 0. -1.
         21   -1    0    0  502  503 -0.00000000000E+00 -0.00000000000E+00 -0.16148692739E+03  0.16148692739E+03  0.00000000000E+00 0. -1.
          3    1    1    2  501    0  0.14289936059E+02 -0.15944747830E+02 -0.10176709887E+03  0.10399509445E+03  0.00000000000E+00 0. -1.
         -3    1    1    2    0  503 -0.14289936059E+02  0.15944747830E+02 -0.56650234972E+02  0.60561426488E+02  0.00000000000E+00 0.  1.
<mgrwt>
<rscale>  2 0.21411148E+02</rscale>
<asrwt>0</asrwt>
<pdfrwt beam="1">  1       21 0.47224522E-03 0.21411148E+02</pdfrwt>
<pdfrwt beam="2">  1       21 0.24844140E-01 0.21411148E+02</pdfrwt>
<totfact> 0.12565494E+08</totfact>
</mgrwt>
</event>
<event>
 4    1  0.7616518E+004  0.2483762E+02  0.7546771E-02  0.1663345E+00
         21   -1    0    0  503  502  0.00000000000E+00  0.00000000000E+00  0.21005242284E+03  0.21005242284E+03  0.00000000000E+00 0.  1.
         21   -1    0    0  501  503 -0.00000000000E+00 -0.00000000000E+00 -0.32433736032E+01  0.32433736032E+01  0.00000000000E+00 0.  1.
          5    1    1    2  501    0  0.23712485611E+02  0.73908989577E+01  0.70622520175E+02  0.74862859397E+02  0.00000000000E+00 0.  1.
         -5    1    1    2    0  502 -0.23712485611E+02 -0.73908989577E+01  0.13618652906E+03  0.13843293704E+03  0.00000000000E+00 0. -1.
<mgrwt>
<rscale>  2 0.24837620E+02</rscale>
<asrwt>0</asrwt>
<pdfrwt beam="1">  1       21 0.32315747E-01 0.24837620E+02</pdfrwt>
<pdfrwt beam="2">  1       21 0.49898072E-03 0.24837620E+02</pdfrwt>
<totfact> 0.74950384E+07</totfact>
</mgrwt>
</event>
<event>
 4    1  0.7616518E+004  0.2328540E+02  0.7546771E-02  0.1686925E+00
         21   -1    0    0  503  502  0.00000000000E+00  0.00000000000E+00  0.27942504326E+02  0.27942504326E+02  0.00000000000E+00 0. -1.
         21   -1    0    0  501  503 -0.00000000000E+00 -0.00000000000E+00 -0.20045308095E+02  0.20045308095E+02  0.00000000000E+00 0. -1.
          1    1    1    2  501    0 -0.12459264388E+01 -0.23252047807E+02  0.82386426559E+01  0.24699904710E+02  0.00000000000E+00 0.  1.
         -1    1    1    2    0  502  0.12459264388E+01  0.23252047807E+02 -0.34144642557E+00  0.23287907711E+02  0.00000000000E+00 0. -1.
<mgrwt>
<rscale>  2 0.23285404E+02</rscale>
<asrwt>0</asrwt>
<pdfrwt beam="1">  1       21 0.42988469E-02 0.23285404E+02</pdfrwt>
<pdfrwt beam="2">  1       21 0.30838935E-02 0.23285404E+02</pdfrwt>
<totfact> 0.14005697E+08</totfact>
</mgrwt>
</event>
<event>
 4    1  0.7616518E+004  0.2161797E+02  0.7546771E-02  0.1714944E+00
         21   -1    0    0  501  502  0.00000000000E+00  0.00000000000E+00  0.32394260331E+01  0.32394260331E+01  0.00000000000E+00 0. -1.
         21   -1    0    0  502  503 -0.00000000000E+00 -0.00000000000E+00 -0.14427388690E+03  0.14427388690E+03  0.00000000000E+00 0. -1.
          5    1    1    2  501    0 -0.21494841077E+02  0.23039948268E+01 -0.69946340275E+02  0.73210840065E+02  0.00000000000E+00 0.  1.
         -5    1    1    2    0  503  0.21494841077E+02 -0.23039948268E+01 -0.71088120589E+02  0.74302472865E+02  0.00000000000E+00 0. -1.
<mgrwt>
<rscale>  2 0.21617969E+02</rscale>
<asrwt>0</asrwt>
<pdfrwt beam="1">  1       21 0.49837330E-03 0.21617969E+02</pdfrwt>
<pdfrwt beam="2">  1       21 0.22195980E-01 0.21617969E+02</pdfrwt>
<totfact> 0.14205899E+08</totfact>
</mgrwt>
</event>
<event>
 4    1  0.7616518E+004  0.3803748E+02  0.7546771E-02  0.1523171E+00
         21   -1    0    0  501  502  0.00000000000E+00  0.00000000000E+00  0.32588464531E+03  0.32588464531E+03  0.00000000000E+00 0. -1.
         21   -1    0    0  502  503 -0.00000000000E+00 -0.00000000000E+00 -0.48119605816E+01  0.48119605816E+01  0.00000000000E+00 0. -1.
          1    1    1    2  501    0  0.21978337422E+02 -0.31045170392E+02  0.11455023125E+03  0.12070047805E+03  0.00000000000E+00 0. -1.
         -1    1    1    2    0  503 -0.21978337422E+02  0.31045170392E+02  0.20652245348E+03  0.20999612785E+03  0.00000000000E+00 0.  1.
<mgrwt>
<rscale>  2 0.38037480E+02</rscale>
<asrwt>0</asrwt>
<pdfrwt beam="1">  1       21 0.50136082E-01 0.38037480E+02</pdfrwt>
<pdfrwt beam="2">  1       21 0.74030188E-03 0.38037480E+02</pdfrwt>
<totfact> 0.19511705E+07</totfact>
</mgrwt>
</event>
<event>
 4    1  0.7616518E+004  0.2054341E+02  0.7546771E-02  0.1734733E+00
         21   -1    0    0  503  502  0.00000000000E+00  0.00000000000E+00  0.11255635852E+02  0.11255635852E+02  0.00000000000E+00 0. -1.
         21   -1    0    0  501  503 -0.00000000000E+00 -0.00000000000E+00 -0.60481115315E+02  0.60481115315E+02  0.00000000000E+00 0. -1.
          1    1    1    2  501    0 -0.11262499187E+02  0.17181029561E+02 -0.46725006338E+02  0.51041726871E+02  0.00000000000E+00 0.  1.
         -1    1    1    2    0  502  0.11262499187E+02 -0.17181029561E+02 -0.25004731251E+01  0.20695024295E+02  0.00000000000E+00 0. -1.
<mgrwt>
<rscale>  2 0.20543409E+02</rscale>
<asrwt>0</asrwt>
<pdfrwt beam="1">  1       21 0.17316362E-02 0.20543409E+02</pdfrwt>
<pdfrwt beam="2">  1       21 0.93047872E-02 0.20543409E+02</pdfrwt>
<totfact> 0.94772877E+07</totfact>
</mgrwt>
</event>
<event>
 4    1  0.7616518E+004  0.2600963E+02  0.7546771E-02  0.1646910E+00
         21   -1    0    0  501  502  0.00000000000E+00  0.00000000000E+00  0.73244355591E+00  0.73244355591E+00  0.00000000000E+00 0.  1.
         21   -1    0    0  502  503 -0.00000000000E+00 -0.00000000000E+00 -0.92820065548E+03  0.92820065548E+03  0.00000000000E+00 0.  1.
          1    1    1    2  501    0 -0.21572891702E+02  0.14529665035E+02 -0.49635627408E+03  0.49703727390E+03  0.00000000000E+00 0.  1.
         -1    1    1    2    0  503  0.21572891702E+02 -0.14529665035E+02 -0.43111193784E+03  0.43189582514E+03  0.00000000000E+00 0. -1.
<mgrwt>
<rscale>  2 0.26009629E+02</rscale>
<asrwt>0</asrwt>
<pdfrwt beam="1">  1       21 0.11268460E-03 0.26009629E+02</pdfrwt>
<pdfrwt beam="2">  1       21 0.14279886E+00 0.26009629E+02</pdfrwt>
<totfact> 0.30587869E+07</totfact>
</mgrwt>
</event>
<event>
 4    1  0.7616518E+004  0.2580648E+02  0.7546771E-02  0.1649681E+00
         21   -1    0    0  501  502  0.00000000000E+00  0.00000000000E+00  0.76346469885E+01  0.76346469885E+01  0.00000000000E+00 0.  1.
         21   -1    0    0  502  503 -0.00000000000E+00 -0.00000000000E+00 -0.90830374863E+02  0.90830374863E+02  0.00000000000E+00 0.  1.
          5    1    1    2  501    0 -0.21462272641E+02 -0.14329878899E+02 -0.51398994350E+02  0.57513747891E+02  0.00000000000E+00 0. -1.
         -5    1    1    2    0  503  0.21462272641E+02  0.14329878899E+02 -0.31796733524E+02  0.40951273961E+02  0.00000000000E+00 0.  1.
<mgrwt>
<rscale>  2 0.25806483E+02</rscale>
<asrwt>0</asrwt>
<pdfrwt beam="1">  1       21 0.11745611E-02 0.25806483E+02</pdfrwt>
<pdfrwt beam="2">  1       21 0.13973904E-01 0.25806483E+02</pdfrwt>
<totfact> 0.92304202E+07</totfact>
</mgrwt>
</event>
<event>
 4    1  0.7616518E+004  0.3492899E+02  0.7546771E-02  0.1549232E+00
         21   -1    0    0  501  502  0.00000000000E+00  0.00000000000E+00  0.87910478159E+00  0.87910478159E+00  0.00000000000E+00 0.  1.
         21   -1    0    0  502  503 -0.00000000000E+00 -0.00000000000E+00 -0.14455363178E+04  0.14455363178E+04  0.00000000000E+00 0.  1.
          3    1    1    2  501    0  0.32194100972E+02  0.13548964156E+02 -0.86684518489E+03  0.86754862062E+03  0.00000000000E+00 0.  1.
         -3    1    1    2    0  503 -0.32194100972E+02 -0.13548964156E+02 -0.57781202813E+03  0.57886680197E+03  0.00000000000E+00 0. -1.
<mgrwt>
<rscale>  2 0.34928993E+02</rscale>
<asrwt>0</asrwt>
<pdfrwt beam="1">  1       21 0.13524732E-03 0.34928993E+02</pdfrwt>
<pdfrwt beam="2">  1       21 0.22238950E+00 0.34928993E+02</pdfrwt>
<totfact> 0.78823573E+06</totfact>
</mgrwt>
</event>
<event>
 4    1  0.7616518E+004  0.2318668E+02  0.7546771E-02  0.1688502E+00
         21   -1    0    0  501  502  0.00000000000E+00  0.00000000000E+00  0.23195720827E+03  0.23195720827E+03  0.00000000000E+00 0.  1.
         21   -1    0    0  502  503 -0.00000000000E+00 -0.00000000000E+00 -0.33131823876E+01  0.33131823876E+01  0.00000000000E+00 0.  1.
          1    1    1    2  501    0 -0.81655907439E+01 -0.21701278253E+02  0.49843179866E+02  0.54972401522E+02  0.00000000000E+00 0.  1.
         -1    1    1    2    0  503  0.81655907439E+01  0.21701278253E+02  0.17880084601E+03  0.18029798913E+03  0.00000000000E+00 0. -1.
<mgrwt>
<rscale>  2 0.23186685E+02</rscale>
<asrwt>0</asrwt>
<pdfrwt beam="1">  1       21 0.35685712E-01 0.23186685E+02</pdfrwt>
<pdfrwt beam="2">  1       21 0.50972055E-03 0.23186685E+02</pdfrwt>
<totfact> 0.59438951E+07</totfact>
</mgrwt>
</event>
<event>
 4    1  0.7616518E+004  0.2383497E+02  0.7546771E-02  0.1678322E+00
         21   -1    0    0  501  502  0.00000000000E+00  0.00000000000E+00  0.53951519657E+00  0.53951519657E+00  0.00000000000E+00 0. -1.
         21   -1    0    0  502  503 -0.00000000000E+00 -0.00000000000E+00 -0.14779192566E+04  0.14779192566E+04  0.00000000000E+00 0. -1.
          1    1    1    2  501    0 -0.23755285316E+02  0.19473741606E+01 -0.11350687794E+04  0.11353190035E+04  0.00000000000E+00 0.  1.
         -1    1    1    2    0  503  0.23755285316E+02 -0.19473741606E+01 -0.34231096198E+03  0.34313976823E+03  0.00000000000E+00 0. -1.
<mgrwt>
<rscale>  2 0.23834971E+02</rscale>
<asrwt>0</asrwt>
<pdfrwt beam="1">  1       21 0.83003040E-04 0.23834971E+02</pdfrwt>
<pdfrwt beam="2">  1       21 0.22737027E+00 0.23834971E+02</pdfrwt>
<totfact> 0.14494973E+07</totfact>
</mgrwt>
</event>
<event>
 4    1  0.7616518E+004  0.2721003E+02  0.7546771E-02  0.1631148E+00
         21   -1    0    0  503  502  0.00000000000E+00  0.00000000000E+00  0.12258025116E+03  0.12258025116E+03  0.00000000000E+00 0.  1.
         21   -1    0    0  501  503 -0.00000000000E+00 -0.00000000000E+00 -0.90868923600E+01  0.90868923600E+01  0.00000000000E+00 0.  1.
          5    1    1    2  501    0 -0.22485913823E+02 -0.15322179166E+02  0.94867990606E+02  0.98693065290E+02  0.00000000000E+00 0. -1.
         -5    1    1    2    0  502  0.22485913823E+02  0.15322179166E+02  0.18625368199E+02  0.32974078234E+02  0.00000000000E+00 0.  1.
<mgrwt>
<rscale>  2 0.27210026E+02</rscale>
<asrwt>0</asrwt>
<pdfrwt beam="1">  1       21 0.18858499E-01 0.27210026E+02</pdfrwt>
<pdfrwt beam="2">  1       21 0.13979835E-02 0.27210026E+02</pdfrwt>
<totfact> 0.42789580E+07</totfact>
</mgrwt>
</event>
<event>
 4    1  0.7616518E+004  0.2620796E+02  0.7546771E-02  0.1644234E+00
         21   -1    0    0  501  502  0.00000000000E+00  0.00000000000E+00  0.27621577012E+01  0.27621577012E+01  0.00000000000E+00 0. -1.
         21   -1    0    0  502  503 -0.00000000000E+00 -0.00000000000E+00 -0.30007037413E+03  0.30007037413E+03  0.00000000000E+00 0. -1.
          1    1    1    2  501    0  0.21719088997E+02 -0.14667602996E+02 -0.85984513765E+02  0.89889899388E+02  0.00000000000E+00 0.  1.
         -1    1    1    2    0  503 -0.21719088997E+02  0.14667602996E+02 -0.21132370266E+03  0.21294263244E+03  0.00000000000E+00 0. -1.
<mgrwt>
<rscale>  2 0.26207965E+02</rscale>
<asrwt>0</asrwt>
<pdfrwt beam="1">  1       21 0.42494751E-03 0.26207965E+02</pdfrwt>
<pdfrwt beam="2">  1       21 0.46164655E-01 0.26207965E+02</pdfrwt>
<totfact> 0.49112543E+07</totfact>
</mgrwt>
</event>
<event>
 4    1  0.7616518E+004  0.2450173E+02  0.7546771E-02  0.1668264E+00
         21   -1    0    0  501  502  0.00000000000E+00  0.00000000000E+00  0.91561694633E+02  0.91561694633E+02  0.00000000000E+00 0.  1.
         21   -1    0    0  502  503 -0.00000000000E+00 -0.00000000000E+00 -0.67663080099E+01  0.67663080099E+01  0.00000000000E+00 0.  1.
          5    1    1    2  501    0 -0.24420387451E+02  0.19949150765E+01  0.51052566861E+02  0.56627728124E+02  0.00000000000E+00 0.  1.
         -5    1    1    2    0  503  0.24420387451E+02 -0.19949150765E+01  0.33742819763E+02  0.41700274519E+02  0.00000000000E+00 0. -1.
<mgrwt>
<rscale>  2 0.24501735E+02</rscale>
<asrwt>0</asrwt>
<pdfrwt beam="1">  1       21 0.14086414E-01 0.24501735E+02</pdfrwt>
<pdfrwt beam="2">  1       21 0.10409705E-02 0.24501735E+02</pdfrwt>
<totfact> 0.10781429E+08</totfact>
</mgrwt>
</event>
<event>
 4    1  0.7616518E+004  0.2831154E+02  0.7546771E-02  0.1617539E+00
         21   -1    0    0  501  502  0.00000000000E+00  0.00000000000E+00  0.18000623012E+02  0.18000623012E+02  0.00000000000E+00 0.  1.
         21   -1    0    0  502  503 -0.00000000000E+00 -0.00000000000E+00 -0.69791363201E+02  0.69791363201E+02  0.00000000000E+00 0.  1.
          5    1    1    2  501    0 -0.56250023586E+01 -0.27747118616E+02 -0.52305110306E+02  0.59475774960E+02  0.00000000000E+00 0.  1.
         -5    1    1    2    0  503  0.56250023586E+01  0.27747118616E+02  0.51437011687E+00  0.28316211252E+02  0.00000000000E+00 0. -1.
<mgrwt>
<rscale>  2 0.28311539E+02</rscale>
<asrwt>0</asrwt>
<pdfrwt beam="1">  1       21 0.27693266E-02 0.28311539E+02</pdfrwt>
<pdfrwt beam="2">  1       21 0.10737133E-01 0.28311539E+02</pdfrwt>
<totfact> 0.39351290E+07</totfact>
</mgrwt>
</event>
<event>
 4    1  0.7616518E+004  0.2302774E+02  0.7546771E-02  0.1691061E+00
         21   -1    0    0  501  502  0.00000000000E+00  0.00000000000E+00  0.83031117620E+02  0.83031117620E+02  0.00000000000E+00 0.  1.
         21   -1    0    0  502  503 -0.00000000000E+00 -0.00000000000E+00 -0.67443553186E+01  0.67443553186E+01  0.00000000000E+00 0.  1.
          4    1    1    2  501    0  0.23012016567E+02 -0.85075240931E+00  0.27803333866E+02  0.36101275050E+02  0.00000000000E+00 0.  1.
         -4    1    1    2    0  503 -0.23012016567E+02  0.85075240931E+00  0.48483428435E+02  0.53674197888E+02  0.00000000000E+00 0. -1.
<mgrwt>
<rscale>  2 0.23027737E+02</rscale>
<asrwt>0</asrwt>
<pdfrwt beam="1">  1       21 0.12774017E-01 0.23027737E+02</pdfrwt>
<pdfrwt beam="2">  1       21 0.10375932E-02 0.23027737E+02</pdfrwt>
<totfact> 0.12558577E+08</totfact>
</mgrwt>
</event>
<event>
 4    1  0.7616518E+004  0.2803192E+02  0.7546771E-02  0.1620921E+00
         21   -1    0    0  503  502  0.00000000000E+00  0.00000000000E+00  0.58530694326E+02  0.58530694326E+02  0.00000000000E+00 0.  1.
         21   -1    0    0  501  503 -0.00000000000E+00 -0.00000000000E+00 -0.14049596251E+02  0.14049596251E+02  0.00000000000E+00 0.  1.
          2    1    1    2  501    0  0.15488386130E+01 -0.27989098260E+02  0.29890763126E+02  0.40978607135E+02  0.00000000000E+00 0. -1.
         -2    1    1    2    0  502 -0.15488386130E+01  0.27989098260E+02  0.14590334950E+02  0.31601683443E+02  0.00000000000E+00 0.  1.
<mgrwt>
<rscale>  2 0.28031920E+02</rscale>
<asrwt>0</asrwt>
<pdfrwt beam="1">  1       21 0.90047221E-02 0.28031920E+02</pdfrwt>
<pdfrwt beam="2">  1       21 0.21614764E-02 0.28031920E+02</pdfrwt>
<totfact> 0.77412280E+07</totfact>
</mgrwt>
</event>
<event>
 4    1  0.7616518E+004  0.2051394E+02  0.7546771E-02  0.1735297E+00
         21   -1    0    0  503  502  0.00000000000E+00  0.00000000000E+00  0.39523386962E+03  0.39523386962E+03  0.00000000000E+00 0.  1.
         21   -1    0    0  501  503 -0.00000000000E+00 -0.00000000000E+00 -0.10715863509E+01  0.10715863509E+01  0.00000000000E+00 0.  1.
          3    1    1    2  501    0  0.10738006237E+02 -0.17479040488E+02  0.21291876633E+03  0.21390470469E+03  0.00000000000E+00 0. -1.
         -3    1    1    2    0  502 -0.10738006237E+02  0.17479040488E+02  0.18124351694E+03  0.18240075128E+03  0.00000000000E+00 0.  1.
<mgrwt>
<rscale>  2 0.20513938E+02</rscale>
<asrwt>0</asrwt>
<pdfrwt beam="1">  1       21 0.60805094E-01 0.20513938E+02</pdfrwt>
<pdfrwt beam="2">  1       21 0.16485975E-03 0.20513938E+02</pdfrwt>
<totfact> 0.10671085E+08</totfact>
</mgrwt>
</event>
<event>
 4    1  0.7616518E+004  0.2733021E+02  0.7546771E-02  0.1629625E+00
         21   -1    0    0  501  502  0.00000000000E+00  0.00000000000E+00  0.56364012547E+00  0.56364012547E+00  0.00000000000E+00 0.  1.
         21   -1    0    0  502  503 -0.00000000000E+00 -0.00000000000E+00 -0.13261595283E+04  0.13261595283E+04  0.00000000000E+00 0.  1.
          1    1    1    2  501    0  0.24783937545E+02 -0.11519415459E+02 -0.68056547571E+03  0.68111401925E+03  0.00000000000E+00 0. -1.
         -1    1    1    2    0  503 -0.24783937545E+02  0.11519415459E+02 -0.64503041245E+03  0.64560914916E+03  0.00000000000E+00 0.  1.
<mgrwt>
<rscale>  2 0.27330212E+02</rscale>
<asrwt>0</asrwt>
<pdfrwt beam="1">  1       21 0.86713496E-04 0.27330212E+02</pdfrwt>
<pdfrwt beam="2">  1       21 0.20402541E+00 0.27330212E+02</pdfrwt>
<totfact> 0.18477081E+07</totfact>
</mgrwt>
</event>
<event>
 4    1  0.7616518E+004  0.2141226E+02  0.7546771E-02  0.1718619E+00
         21   -1    0    0  503  502  0.00000000000E+00  0.00000000000E+00  0.95141063695E+03  0.95141063695E+03  0.00000000000E+00 0. -1.
         21   -1    0    0  501  503 -0.00000000000E+00 -0.00000000000E+00 -0.54072901397E+00  0.54072901397E+00  0.00000000000E+00 0. -1.
          5    1    1    2  501    0  0.13840191118E+02  0.16338114886E+02  0.31843832874E+03  0.31915741273E+03  0.00000000000E+00 0.  1.
         -5    1    1    2    0  502 -0.13840191118E+02 -0.16338114886E+02  0.63243157920E+03  0.63279395324E+03  0.00000000000E+00 0. -1.
<mgrwt>
<rscale>  2 0.21412260E+02</rscale>
<asrwt>0</asrwt>
<pdfrwt beam="1">  1       21 0.14636953E+00 0.21412260E+02</pdfrwt>
<pdfrwt beam="2">  1       21 0.83189841E-04 0.21412260E+02</pdfrwt>
<totfact> 0.42864928E+07</totfact>
</mgrwt>
</event>
<event>
 4    1  0.7616518E+004  0.2585959E+02  0.7546771E-02  0.1648954E+00
         21   -1    0    0  501  502  0.00000000000E+00  0.00000000000E+00  0.15753301197E+01  0.15753301197E+01  0.00000000000E+00 0.  1.
         21   -1    0    0  502  503 -0.00000000000E+00 -0.00000000000E+00 -0.42515739759E+03  0.42515739759E+03  0.00000000000E+00 0.  1.
          3    1    1    2  501    0  0.66601875603E+01 -0.24987204807E+02 -0.20336405632E+03  0.20500160464E+03  0.00000000000E+00 0.  1.
         -3    1    1    2    0  503 -0.66601875603E+01  0.24987204807E+02 -0.22021801115E+03  0.22173112307E+03  0.00000000000E+00 0. -1.
<mgrwt>
<rscale>  2 0.25859592E+02</rscale>
<asrwt>0</asrwt>
<pdfrwt beam="1">  1       21 0.24235851E-03 0.25859592E+02</pdfrwt>
<pdfrwt beam="2">  1       21 0.65408823E-01 0.25859592E+02</pdfrwt>
<totfact> 0.55876063E+07</totfact>
</mgrwt>
</event>
<event>
 4    1  0.7616518E+004  0.2175108E+02  0.7546771E-02  0.1712593E+00
         21   -1    0    0  501  502  0.00000000000E+00  0.00000000000E+00  0.24510589986E+01  0.24510589986E+01  0.00000000000E+00 0. -1.
         21   -1    0    0  502  503 -0.00000000000E+00 -0.00000000000E+00 -0.19431141700E+03  0.19431141700E+03  0.00000000000E+00 0. -1.
          2    1    1    2  501    0  0.29828844176E+01  0.21545581518E+02 -0.10394263222E+03  0.10619406987E+03  0.00000000000E+00 0.  1.
         -2    1    1    2    0  503 -0.29828844176E+01 -0.21545581518E+02 -0.87917725781E+02  0.90568406130E+02  0.00000000000E+00 0. -1.
<mgrwt>
<rscale>  2 0.21751085E+02</rscale>
<asrwt>0</asrwt>
<pdfrwt beam="1">  1       21 0.37708595E-03 0.21751085E+02</pdfrwt>
<pdfrwt beam="2">  1       21 0.29894068E-01 0.21751085E+02</pdfrwt>
<totfact> 0.12593266E+08</totfact>
</mgrwt>
</event>
<event>
 4    1  0.7616518E+004  0.2869962E+02  0.7546771E-02  0.1612924E+00
         21   -1    0    0  501  502  0.00000000000E+00  0.00000000000E+00  0.10979120093E+03  0.10979120093E+03  0.00000000000E+00 0. -1.
         21   -1    0    0  502  503 -0.00000000000E+00 -0.00000000000E+00 -0.91627439461E+01  0.91627439461E+01  0.00000000000E+00 0. -1.
          5    1    1    2  501    0  0.27884834535E+02  0.67900133895E+01  0.75634591198E+02  0.80896598597E+02  0.00000000000E+00 0.  1.
         -5    1    1    2    0  503 -0.27884834535E+02 -0.67900133895E+01  0.24993865784E+02  0.38057346277E+02  0.00000000000E+00 0. -1.
<mgrwt>
<rscale>  2 0.28699622E+02</rscale>
<asrwt>0</asrwt>
<pdfrwt beam="1">  1       21 0.16890953E-01 0.28699622E+02</pdfrwt>
<pdfrwt beam="2">  1       21 0.14096530E-02 0.28699622E+02</pdfrwt>
<totfact> 0.51804804E+07</totfact>
</mgrwt>
</event>
<event>
 4    1  0.7616518E+004  0.2207742E+02  0.7546771E-02  0.1706917E+00
         21   -1    0    0  501  502  0.00000000000E+00  0.00000000000E+00  0.13237466839E+02  0.13237466839E+02  0.00000000000E+00 0.  1.
         21   -1    0    0  502  503 -0.00000000000E+00 -0.00000000000E+00 -0.37073982699E+02  0.37073982699E+02  0.00000000000E+00 0.  1.
          1    1    1    2  501    0 -0.16222702953E+02 -0.14974520843E+02 -0.98388830152E+01  0.24170560286E+02  0.00000000000E+00 0.  1.
         -1    1    1    2    0  503  0.16222702953E+02  0.14974520843E+02 -0.13997632845E+02  0.26140889251E+02  0.00000000000E+00 0. -1.
<mgrwt>
<rscale>  2 0.22077418E+02</rscale>
<asrwt>0</asrwt>
<pdfrwt beam="1">  1       21 0.20365334E-02 0.22077418E+02</pdfrwt>
<pdfrwt beam="2">  1       21 0.57036896E-02 0.22077418E+02</pdfrwt>
<totfact> 0.16692364E+08</totfact>
</mgrwt>
</event>
<event>
 4    1  0.7616518E+004  0.2113802E+02  0.7546771E-02  0.1723600E+00
         21   -1    0    0  503  502  0.00000000000E+00  0.00000000000E+00  0.27846829364E+03  0.27846829364E+03  0.00000000000E+00 0.  1.
         21   -1    0    0  501  503 -0.00000000000E+00 -0.00000000000E+00 -0.16337835109E+01  0.16337835109E+01  0.00000000000E+00 0.  1.
          5    1    1    2  501    0 -0.20366287168E+02  0.56595241371E+01  0.11968279646E+03  0.12153512923E+03  0.00000000000E+00 0.  1.
         -5    1    1    2    0  502  0.20366287168E+02 -0.56595241371E+01  0.15715171366E+03  0.15856694792E+03  0.00000000000E+00 0. -1.
<mgrwt>
<rscale>  2 0.21138019E+02</rscale>
<asrwt>0</asrwt>
<pdfrwt beam="1">  1       21 0.42841238E-01 0.21138019E+02</pdfrwt>
<pdfrwt beam="2">  1       21 0.25135153E-03 0.21138019E+02</pdfrwt>
<totfact> 0.11571892E+08</totfact>
</mgrwt>
</event>
<event>
 4    1  0.7616518E+004  0.2034156E+02  0.7546771E-02  0.1738620E+00
         21   -1    0    0  501  502  0.00000000000E+00  0.00000000000E+00  0.38471164324E+02  0.38471164324E+02  0.00000000000E+00 0. -1.
         21   -1    0    0  502  503 -0.00000000000E+00 -0.00000000000E+00 -0.10820253498E+02  0.10820253498E+02  0.00000000000E+00 0. -1.
          1    1    1    2  501    0  0.17934165023E+02  0.95992077537E+01  0.11919819348E+02  0.23576707952E+02  0.00000000000E+00 0.  1.
         -1    1    1    2    0  503 -0.17934165023E+02 -0.95992077537E+01  0.15731091478E+02  0.25714709869E+02  0.00000000000E+00 0. -1.
<mgrwt>
<rscale>  2 0.20341560E+02</rscale>
<asrwt>0</asrwt>
<pdfrwt beam="1">  1       21 0.59186406E-02 0.20341560E+02</pdfrwt>
<pdfrwt beam="2">  1       21 0.16646544E-02 0.20341560E+02</pdfrwt>
<totfact> 0.20851649E+08</totfact>
</mgrwt>
</event>
<event>
 4    1  0.7616518E+004  0.2018443E+02  0.7546771E-02  0.1741685E+00
         21   -1    0    0  501  502  0.00000000000E+00  0.00000000000E+00  0.34315455588E+02  0.34315455588E+02  0.00000000000E+00 0. -1.
         21   -1    0    0  502  503 -0.00000000000E+00 -0.00000000000E+00 -0.16746963152E+02  0.16746963152E+02  0.00000000000E+00 0. -1.
          2    1    1    2  501    0 -0.20134098810E+02  0.14245056843E+01 -0.49899281324E+01  0.20792078638E+02  0.00000000000E+00 0. -1.
         -2    1    1    2    0  503  0.20134098810E+02 -0.14245056843E+01  0.22558420568E+02  0.30270340101E+02  0.00000000000E+00 0.  1.
<mgrwt>
<rscale>  2 0.20184428E+02</rscale>
<asrwt>0</asrwt>
<pdfrwt beam="1">  1       21 0.52793009E-02 0.20184428E+02</pdfrwt>
<pdfrwt beam="2">  1       21 0.25764559E-02 0.20184428E+02</pdfrwt>
<totfact> 0.12795935E+08</totfact>
</mgrwt>
</event>
<event>
 4    1  0.7616518E+004  0.3085125E+02  0.7546771E-02  0.1588865E+00
         21   -1    0    0  503  502  0.00000000000E+00  0.00000000000E+00  0.14865692616E+02  0.14865692616E+02  0.00000000000E+00 0. -1.
         21   -1    0    0  501  503 -0.00000000000E+00 -0.00000000000E+00 -0.66136736011E+02  0.66136736011E+02  0.00000000000E+00 0. -1.
          4    1    1    2  501    0 -0.62290321929E+01  0.30215866403E+02 -0.18401094071E+02  0.35922133672E+02  0.00000000000E+00 0. -1.
         -4    1    1    2    0  502  0.62290321929E+01 -0.30215866403E+02 -0.32869949324E+02  0.45080294954E+02  0.00000000000E+00 0.  1.
<mgrwt>
<rscale>  2 0.30851247E+02</rscale>
<asrwt>0</asrwt>
<pdfrwt beam="1">  1       21 0.22870297E-02 0.30851247E+02</pdfrwt>
<pdfrwt beam="2">  1       21 0.10174882E-01 0.30851247E+02</pdfrwt>
<totfact> 0.59167725E+07</totfact>
</mgrwt>
</event>
<event>
 4    1  0.7616518E+004  0.2644065E+02  0.7546771E-02  0.1641132E+00
         21   -1    0    0  503  502  0.00000000000E+00  0.00000000000E+00  0.68118463420E+02  0.68118463420E+02  0.00000000000E+00 0.  1.
         21   -1    0    0  501  503 -0.00000000000E+00 -0.00000000000E+00 -0.10688814758E+02  0.10688814758E+02  0.00000000000E+00 0.  1.
          2    1    1    2  501    0 -0.22975350491E+02  0.13085913001E+02  0.20851221505E+02  0.33673153809E+02  0.00000000000E+00 0.  1.
         -2    1    1    2    0  502  0.22975350491E+02 -0.13085913001E+02  0.36578427157E+02  0.45134124369E+02  0.00000000000E+00 0. -1.
<mgrwt>
<rscale>  2 0.26440648E+02</rscale>
<asrwt>0</asrwt>
<pdfrwt beam="1">  1       21 0.10479763E-01 0.26440648E+02</pdfrwt>
<pdfrwt beam="2">  1       21 0.16444331E-02 0.26440648E+02</pdfrwt>
<totfact> 0.90322900E+07</totfact>
</mgrwt>
</event>
<event>
 4    1  0.7616518E+004  0.8228457E+02  0.7546771E-02  0.1322690E+00
         21   -1    0    0  503  502  0.00000000000E+00  0.00000000000E+00  0.12466983667E+03  0.12466983667E+03  0.00000000000E+00 0. -1.
         21   -1    0    0  501  503 -0.00000000000E+00 -0.00000000000E+00 -0.66262945623E+02  0.66262945623E+02  0.00000000000E+00 0. -1.
          3    1    1    2  501    0  0.73074405237E+02  0.37827005493E+02 -0.11343905399E+02  0.83062839074E+02  0.00000000000E+00 0.  1.
         -3    1    1    2    0  502 -0.73074405237E+02 -0.37827005493E+02  0.69750796447E+02  0.10786994322E+03  0.00000000000E+00 0. -1.
<mgrwt>
<rscale>  2 0.82284574E+02</rscale>
<asrwt>0</asrwt>
<pdfrwt beam="1">  1       21 0.19179975E-01 0.82284574E+02</pdfrwt>
<pdfrwt beam="2">  1       21 0.10194299E-01 0.82284574E+02</pdfrwt>
<totfact> 0.19171657E+06</totfact>
</mgrwt>
</event>
<event>
 4    1  0.7616518E+004  0.2086991E+02  0.7546771E-02  0.1728562E+00
         21   -1    0    0  501  502  0.00000000000E+00  0.00000000000E+00  0.86359671014E+01  0.86359671014E+01  0.00000000000E+00 0. -1.
         21   -1    0    0  502  503 -0.00000000000E+00 -0.00000000000E+00 -0.52380394940E+02  0.52380394940E+02  0.00000000000E+00 0. -1.
          3    1    1    2  501    0 -0.15280236154E+02  0.14215044837E+02 -0.27751981677E+02  0.34723559778E+02  0.00000000000E+00 0.  1.
         -3    1    1    2    0  503  0.15280236154E+02 -0.14215044837E+02 -0.15992446162E+02  0.26292802264E+02  0.00000000000E+00 0. -1.
<mgrwt>
<rscale>  2 0.20869909E+02</rscale>
<asrwt>0</asrwt>
<pdfrwt beam="1">  1       21 0.13286103E-02 0.20869909E+02</pdfrwt>
<pdfrwt beam="2">  1       21 0.80585224E-02 0.20869909E+02</pdfrwt>
<totfact> 0.17987168E+08</totfact>
</mgrwt>
</event>
<event>
 4    1  0.7616518E+004  0.2342204E+02  0.7546771E-02  0.1684759E+00
         21   -1    0    0  501  502  0.00000000000E+00  0.00000000000E+00  0.45661974239E+00  0.45661974239E+00  0.00000000000E+00 0.  1.
         21   -1    0    0  502  503 -0.00000000000E+00 -0.00000000000E+00 -0.12897144332E+04  0.12897144332E+04  0.00000000000E+00 0.  1.
          4    1    1    2  501    0  0.11947209083E+02  0.20145874133E+02 -0.47584252528E+03  0.47641861940E+03  0.00000000000E+00 0. -1.
         -4    1    1    2    0  503 -0.11947209083E+02 -0.20145874133E+02 -0.81341528816E+03  0.81375243352E+03  0.00000000000E+00 0.  1.
<mgrwt>
<rscale>  2 0.23422042E+02</rscale>
<asrwt>0</asrwt>
<pdfrwt beam="1">  1       21 0.70249020E-04 0.23422042E+02</pdfrwt>
<pdfrwt beam="2">  1       21 0.19841809E+00 0.23422042E+02</pdfrwt>
<totfact> 0.26260596E+07</totfact>
</mgrwt>
</event>
<event>
 4    1  0.7616518E+004  0.2257417E+02  0.7546771E-02  0.1698507E+00
         21   -1    0    0  503  502  0.00000000000E+00  0.00000000000E+00  0.13663458263E+03  0.13663458263E+03  0.00000000000E+00 0. -1.
         21   -1    0    0  501  503 -0.00000000000E+00 -0.00000000000E+00 -0.38567551471E+01  0.38567551471E+01  0.00000000000E+00 0. -1.
          4    1    1    2  501    0  0.19122644220E+02  0.11996566349E+02  0.53634348581E+02  0.58191378002E+02  0.00000000000E+00 0.  1.
         -4    1    1    2    0  502 -0.19122644220E+02 -0.11996566349E+02  0.79143478898E+02  0.82299959770E+02  0.00000000000E+00 0. -1.
<mgrwt>
<rscale>  2 0.22574169E+02</rscale>
<asrwt>0</asrwt>
<pdfrwt beam="1">  1       21 0.21020701E-01 0.22574169E+02</pdfrwt>
<pdfrwt beam="2">  1       21 0.59334705E-03 0.22574169E+02</pdfrwt>
<totfact> 0.12232641E+08</totfact>
</mgrwt>
</event>
<event>
 4    1  0.7616518E+004  0.2248720E+02  0.7546771E-02  0.1699960E+00
         21   -1    0    0  503  502  0.00000000000E+00  0.00000000000E+00  0.28635104199E+02  0.28635104199E+02  0.00000000000E+00 0.  1.
         21   -1    0    0  501  503 -0.00000000000E+00 -0.00000000000E+00 -0.17668939505E+02  0.17668939505E+02  0.00000000000E+00 0.  1.
          3    1    1    2  501    0  0.40290489702E+01  0.22123309386E+02  0.60256515295E+01  0.23280518254E+02  0.00000000000E+00 0.  1.
         -3    1    1    2    0  502 -0.40290489702E+01 -0.22123309386E+02  0.49405131643E+01  0.23023525450E+02  0.00000000000E+00 0. -1.
<mgrwt>
<rscale>  2 0.22487198E+02</rscale>
<asrwt>0</asrwt>
<pdfrwt beam="1">  1       21 0.44054007E-02 0.22487198E+02</pdfrwt>
<pdfrwt beam="2">  1       21 0.27182984E-02 0.22487198E+02</pdfrwt>
<totfact> 0.16220763E+08</totfact>
</mgrwt>
</event>
<event>
 4    1  0.7616518E+004  0.3941332E+02  0.7546771E-02  0.1512574E+00
         21   -1    0    0  503  502  0.00000000000E+00  0.00000000000E+00  0.29834641528E+03  0.29834641528E+03  0.00000000000E+00 0. -1.
         21   -1    0    0  501  503 -0.00000000000E+00 -0.00000000000E+00 -0.52469645525E+01  0.52469645525E+01  0.00000000000E+00 0. -1.
          5    1    1    2  501    0  0.23791942427E+02 -0.31422180668E+02  0.13325759505E+03  0.13896401189E+03  0.00000000000E+00 0. -1.
         -5    1    1    2    0  502 -0.23791942427E+02  0.31422180668E+02  0.15984185568E+03  0.16462936794E+03  0.00000000000E+00 0.  1.
<mgrwt>
<rscale>  2 0.39413322E+02</rscale>
<asrwt>0</asrwt>
<pdfrwt beam="1">  1       21 0.45899435E-01 0.39413322E+02</pdfrwt>
<pdfrwt beam="2">  1       21 0.80722555E-03 0.39413322E+02</pdfrwt>
<totfact> 0.20476042E+07</totfact>
</mgrwt>
</event>
<event>
 4    1  0.7616518E+004  0.2049089E+02  0.7546771E-02  0.1735739E+00
         21   -1    0    0  503  502  0.00000000000E+00  0.00000000000E+00  0.43465946097E+03  0.43465946097E+03  0.00000000000E+00 0. -1.
         21   -1    0    0  501  503 -0.00000000000E+00 -0.00000000000E+00 -0.15118116440E+01  0.15118116440E+01  0.00000000000E+00 0. -1.
          5    1    1    2  501    0  0.50003473296E+00  0.20484792742E+02  0.34761371684E+03  0.34821713471E+03  0.00000000000E+00 0.  1.
         -5    1    1    2    0  502 -0.50003473296E+00 -0.20484792742E+02  0.85533932490E+02  0.87954137910E+02  0.00000000000E+00 0. -1.
<mgrwt>
<rscale>  2 0.20490895E+02</rscale>
<asrwt>0</asrwt>
<pdfrwt beam="1">  1       21 0.66870586E-01 0.20490895E+02</pdfrwt>
<pdfrwt beam="2">  1       21 0.23258675E-03 0.20490895E+02</pdfrwt>
<totfact> 0.53735144E+07</totfact>
</mgrwt>
</event>
<event>
 4    1  0.7616518E+004  0.2986613E+02  0.7546771E-02  0.1599573E+00
         21   -1    0    0  503  502  0.00000000000E+00  0.00000000000E+00  0.51276014405E+02  0.51276014405E+02  0.00000000000E+00 0. -1.
         21   -1    0    0  501  503 -0.00000000000E+00 -0.00000000000E+00 -0.17949041805E+02  0.17949041805E+02  0.00000000000E+00 0. -1.
          1    1    1    2  501    0 -0.53399961641E+01 -0.29384866051E+02  0.10586605173E+02  0.31686939280E+02  0.00000000000E+00 0. -1.
         -1    1    1    2    0  502  0.53399961641E+01  0.29384866051E+02  0.22740367427E+02  0.37538116929E+02  0.00000000000E+00 0.  1.
<mgrwt>
<rscale>  2 0.29866133E+02</rscale>
<asrwt>0</asrwt>
<pdfrwt beam="1">  1       21 0.78886175E-02 0.29866133E+02</pdfrwt>
<pdfrwt beam="2">  1       21 0.27613911E-02 0.29866133E+02</pdfrwt>
<totfact> 0.66778761E+07</totfact>
</mgrwt>
</event>
<event>
 4    1  0.7616518E+004  0.2086301E+02  0.7546771E-02  0.1728691E+00
         21   -1    0    0  501  502  0.00000000000E+00  0.00000000000E+00  0.38957473064E+02  0.38957473064E+02  0.00000000000E+00 0. -1.
         21   -1    0    0  502  503 -0.00000000000E+00 -0.00000000000E+00 -0.16026975936E+02  0.16026975936E+02  0.00000000000E+00 0. -1.
          4    1    1    2  501    0  0.17743929260E+02 -0.10973529039E+02  0.26595297801E+02  0.33802000389E+02  0.00000000000E+00 0. -1.
         -4    1    1    2    0  503 -0.17743929260E+02  0.10973529039E+02 -0.36648006733E+01  0.21182448611E+02  0.00000000000E+00 0.  1.
<mgrwt>
<rscale>  2 0.20863014E+02</rscale>
<asrwt>0</asrwt>
<pdfrwt beam="1">  1       21 0.59934574E-02 0.20863014E+02</pdfrwt>
<pdfrwt beam="2">  1       21 0.24656886E-02 0.20863014E+02</pdfrwt>
<totfact> 0.11298419E+08</totfact>
</mgrwt>
</event>
<event>
 4    1  0.7616518E+004  0.3851085E+02  0.7546771E-02  0.1519465E+00
         21   -1    0    0  503  502  0.00000000000E+00  0.00000000000E+00  0.13469180956E+02  0.13469180956E+02  0.00000000000E+00 0.  1.
         21   -1    0    0  501  503 -0.00000000000E+00 -0.00000000000E+00 -0.25677440754E+03  0.25677440754E+03  0.00000000000E+00 0.  1.
          1    1    1    2  501    0 -0.38157714750E+02  0.52033174073E+01 -0.19532205561E+02  0.43180930525E+02  0.00000000000E+00 0. -1.
         -1    1    1    2    0  502  0.38157714750E+02 -0.52033174073E+01 -0.22377302103E+03  0.22706265797E+03  0.00000000000E+00 0.  1.
<mgrwt>
<rscale>  2 0.38510852E+02</rscale>
<asrwt>0</asrwt>
<pdfrwt beam="1">  1       21 0.20721816E-02 0.38510852E+02</pdfrwt>
<pdfrwt beam="2">  1       21 0.39503756E-01 0.38510852E+02</pdfrwt>
<totfact> 0.63931813E+06</totfact>
</mgrwt>
</event>
<event>
 4    1  0.7616518E+004  0.2342362E+02  0.7546771E-02  0.1684734E+00
         21   -1    0    0  503  502  0.00000000000E+00  0.00000000000E+00  0.28655771305E+01  0.28655771305E+01  0.00000000000E+00 0.  1.
         21   -1    0    0  501  503 -0.00000000000E+00 -0.00000000000E+00 -0.19340271102E+03  0.19340271102E+03  0.00000000000E+00 0.  1.
          3    1    1    2  501    0  0.11940122339E+02 -0.20151906637E+02 -0.10508412303E+03  0.10766307991E+03  0.00000000000E+00 0. -1.
         -3    1    1    2    0  502 -0.11940122339E+02  0.20151906637E+02 -0.85453010860E+02  0.88605208241E+02  0.00000000000E+00 0.  1.
<mgrwt>
<rscale>  2 0.23423618E+02</rscale>
<asrwt>0</asrwt>
<pdfrwt beam="1">  1       21 0.44085815E-03 0.23423618E+02</pdfrwt>
<pdfrwt beam="2">  1       21 0.29754255E-01 0.23423618E+02</pdfrwt>
<totfact> 0.10308005E+08</totfact>
</mgrwt>
</event>
<event>
 4    1  0.7616518E+004  0.3361908E+02  0.7546771E-02  0.1561217E+00
         21   -1    0    0  503  502  0.00000000000E+00  0.00000000000E+00  0.96871363915E+03  0.96871363915E+03  0.00000000000E+00 0. -1.
         21   -1    0    0  501  503 -0.00000000000E+00 -0.00000000000E+00 -0.12520862784E+01  0.12520862784E+01  0.00000000000E+00 0. -1.
          5    1    1    2  501    0 -0.29091250038E+02 -0.16850560183E+02  0.61034653275E+03  0.61127173356E+03  0.00000000000E+00 0. -1.
         -5    1    1    2    0  502  0.29091250038E+02  0.16850560183E+02  0.35711502012E+03  0.35869399187E+03  0.00000000000E+00 0.  1.
<mgrwt>
<rscale>  2 0.33619075E+02</rscale>
<asrwt>0</asrwt>
<pdfrwt beam="1">  1       21 0.14903227E+00 0.33619075E+02</pdfrwt>
<pdfrwt beam="2">  1       21 0.19262943E-03 0.33619075E+02</pdfrwt>
<totfact> 0.13195883E+07</totfact>
</mgrwt>
</event>
<event>
 4    1  0.7616518E+004  0.2040160E+02  0.7546771E-02  0.1737458E+00
         21   -1    0    0  501  502  0.00000000000E+00  0.00000000000E+00  0.12988157043E+01  0.12988157043E+01  0.00000000000E+00 0. -1.
         21   -1    0    0  502  503 -0.00000000000E+00 -0.00000000000E+00 -0.37680769573E+03  0.37680769573E+03  0.00000000000E+00 0. -1.
          5    1    1    2  501    0 -0.20239987737E+02  0.25628369279E+01 -0.26085863723E+03  0.26165521943E+03  0.00000000000E+00 0. -1.
         -5    1    1    2    0  503  0.20239987737E+02 -0.25628369279E+01 -0.11465024280E+03  0.11645129201E+03  0.00000000000E+00 0.  1.
<mgrwt>
<rscale>  2 0.20401599E+02</rscale>
<asrwt>0</asrwt>
<pdfrwt beam="1">  1       21 0.19981768E-03 0.20401599E+02</pdfrwt>
<pdfrwt beam="2">  1       21 0.57970451E-01 0.20401599E+02</pdfrwt>
<totfact> 0.88895797E+07</totfact>
</mgrwt>
</event>
<event>
 4    1  0.7616518E+004  0.2023348E+02  0.7546771E-02  0.1740725E+00
         21   -1    0    0  503  502  0.00000000000E+00  0.00000000000E+00  0.20981914077E+02  0.20981914077E+02  0.00000000000E+00 0. -1.
         21   -1    0    0  501  503 -0.00000000000E+00 -0.00000000000E+00 -0.19511869317E+02  0.19511869317E+02  0.00000000000E+00 0. -1.
          2    1    1    2  501    0  0.12661502739E+02  0.15782265999E+02  0.68213101066E+00  0.20244971583E+02  0.00000000000E+00 0. -1.
         -2    1    1    2    0  502 -0.12661502739E+02 -0.15782265999E+02  0.78791374956E+00  0.20248811811E+02  0.00000000000E+00 0.  1.
<mgrwt>
<rscale>  2 0.20233477E+02</rscale>
<asrwt>0</asrwt>
<pdfrwt beam="1">  1       21 0.32279868E-02 0.20233477E+02</pdfrwt>
<pdfrwt beam="2">  1       21 0.30018260E-02 0.20233477E+02</pdfrwt>
<totfact> 0.21895782E+08</totfact>
</mgrwt>
</event>
<event>
 4    1  0.7616518E+004  0.2512062E+02  0.7546771E-02  0.1659275E+00
         21   -1    0    0  503  502  0.00000000000E+00  0.00000000000E+00  0.17742371819E+03  0.17742371819E+03  0.00000000000E+00 0.  1.
         21   -1    0    0  501  503 -0.00000000000E+00 -0.00000000000E+00 -0.40973686008E+01  0.40973686008E+01  0.00000000000E+00 0.  1.
          2    1    1    2  501    0 -0.45222747448E+01 -0.24710210900E+02  0.53694281814E+02  0.59280025229E+02  0.00000000000E+00 0. -1.
         -2    1    1    2    0  502  0.45222747448E+01  0.24710210900E+02  0.11963206777E+03  0.12224106156E+03  0.00000000000E+00 0.  1.
<mgrwt>
<rscale>  2 0.25120619E+02</rscale>
<asrwt>0</asrwt>
<pdfrwt beam="1">  1       21 0.27295951E-01 0.25120619E+02</pdfrwt>
<pdfrwt beam="2">  1       21 0.63036454E-03 0.25120619E+02</pdfrwt>
<totfact> 0.72293322E+07</totfact>
</mgrwt>
</event>
<event>
 4    1  0.7616518E+004  0.2467756E+02  0.7546771E-02  0.1665677E+00
         21   -1    0    0  503  502  0.00000000000E+00  0.00000000000E+00  0.46470966960E+01  0.46470966960E+01  0.00000000000E+00 0.  1.
         21   -1    0    0  501  503 -0.00000000000E+00 -0.00000000000E+00 -0.13691400224E+03  0.13691400224E+03  0.00000000000E+00 0.  1.
          1    1    1    2  501    0 -0.31482302212E+01  0.24475916771E+02 -0.80787166407E+02  0.84472173592E+02  0.00000000000E+00 0.  1.
         -1    1    1    2    0  502  0.31482302212E+01 -0.24475916771E+02 -0.51479739139E+02  0.57088925346E+02  0.00000000000E+00 0. -1.
<mgrwt>
<rscale>  2 0.24677558E+02</rscale>
<asrwt>0</asrwt>
<pdfrwt beam="1">  1       21 0.71493809E-03 0.24677558E+02</pdfrwt>
<pdfrwt beam="2">  1       21 0.21063689E-01 0.24677558E+02</pdfrwt>
<totfact> 0.94684731E+07</totfact>
</mgrwt>
</event>
<event>
 4    1  0.7616518E+004  0.2036059E+02  0.7546771E-02  0.1738251E+00
         21   -1    0    0  503  502  0.00000000000E+00  0.00000000000E+00  0.11363473980E+01  0.11363473980E+01  0.00000000000E+00 0.  1.
         21   -1    0    0  501  503 -0.00000000000E+00 -0.00000000000E+00 -0.36639598114E+03  0.36639598114E+03  0.00000000000E+00 0.  1.
          3    1    1    2  501    0  0.14588652358E+02 -0.14202991198E+02 -0.17054899528E+03  0.17176004637E+03  0.00000000000E+00 0. -1.
         -3    1    1    2    0  502 -0.14588652358E+02  0.14202991198E+02 -0.19471063846E+03  0.19577228217E+03  0.00000000000E+00 0.  1.
<mgrwt>
<rscale>  2 0.20360593E+02</rscale>
<asrwt>0</asrwt>
<pdfrwt beam="1">  1       21 0.17482274E-03 0.20360593E+02</pdfrwt>
<pdfrwt beam="2">  1       21 0.56368592E-01 0.20360593E+02</pdfrwt>
<totfact> 0.11375847E+08</totfact>
</mgrwt>
</event>
<event>
 4    1  0.7616518E+004  0.2614007E+02  0.7546771E-02  0.1645147E+00
         21   -1    0    0  501  502  0.00000000000E+00  0.00000000000E+00  0.16801851149E+01  0.16801851149E+01  0.00000000000E+00 0.  1.
         21   -1    0    0  502  503 -0.00000000000E+00 -0.00000000000E+00 -0.41029063826E+03  0.41029063826E+03  0.00000000000E+00 0.  1.
          1    1    1    2  501    0 -0.68165935319E+01  0.25235637609E+02 -0.18499089922E+03  0.18682862775E+03  0.00000000000E+00 0. -1.
         -1    1    1    2    0  503  0.68165935319E+01 -0.25235637609E+02 -0.22361955392E+03  0.22514219562E+03  0.00000000000E+00 0.  1.
<mgrwt>
<rscale>  2 0.26140072E+02</rscale>
<asrwt>0</asrwt>
<pdfrwt beam="1">  1       21 0.25848964E-03 0.26140072E+02</pdfrwt>
<pdfrwt beam="2">  1       21 0.63121729E-01 0.26140072E+02</pdfrwt>
<totfact> 0.54812045E+07</totfact>
</mgrwt>
</event>
<event>
 4    1  0.7616518E+004  0.2282425E+02  0.7546771E-02  0.1694375E+00
         21   -1    0    0  503  502  0.00000000000E+00  0.00000000000E+00  0.12260363335E+03  0.12260363335E+03  0.00000000000E+00 0. -1.
         21   -1    0    0  501  503 -0.00000000000E+00 -0.00000000000E+00 -0.42512158729E+01  0.42512158729E+01  0.00000000000E+00 0. -1.
          2    1    1    2  501    0 -0.12627796149E+02 -0.19012768361E+02  0.60614239062E+02  0.64769071118E+02  0.00000000000E+00 0.  1.
         -2    1    1    2    0  502  0.12627796149E+02  0.19012768361E+02  0.57738178418E+02  0.62085778109E+02  0.00000000000E+00 0. -1.
<mgrwt>
<rscale>  2 0.22824255E+02</rscale>
<asrwt>0</asrwt>
<pdfrwt beam="1">  1       21 0.18862095E-01 0.22824255E+02</pdfrwt>
<pdfrwt beam="2">  1       21 0.65403330E-03 0.22824255E+02</pdfrwt>
<totfact> 0.12830126E+08</totfact>
</mgrwt>
</event>
<event>
 4    1  0.7616518E+004  0.2337973E+02  0.7546771E-02  0.1685428E+00
         21   -1    0    0  503  502  0.00000000000E+00  0.00000000000E+00  0.55515931122E+02  0.55515931122E+02  0.00000000000E+00 0. -1.
         21   -1    0    0  501  503 -0.00000000000E+00 -0.00000000000E+00 -0.98460753923E+01  0.98460753923E+01  0.00000000000E+00 0. -1.
          1    1    1    2  501    0 -0.10519586216E+02  0.20879417856E+02  0.22768488256E+02  0.32634580457E+02  0.00000000000E+00 0. -1.
         -1    1    1    2    0  502  0.10519586216E+02 -0.20879417856E+02  0.22901367475E+02  0.32727426058E+02  0.00000000000E+00 0.  1.
<mgrwt>
<rscale>  2 0.23379730E+02</rscale>
<asrwt>0</asrwt>
<pdfrwt beam="1">  1       21 0.85409122E-02 0.23379730E+02</pdfrwt>
<pdfrwt beam="2">  1       21 0.15147809E-02 0.23379730E+02</pdfrwt>
<totfact> 0.13884746E+08</totfact>
</mgrwt>
</event>
<event>
 4    1  0.7616518E+004  0.2870041E+02  0.7546771E-02  0.1612915E+00
         21   -1    0    0  503  502  0.00000000000E+00  0.00000000000E+00  0.26401735662E+01  0.26401735662E+01  0.00000000000E+00 0.  1.
         21   -1    0    0  501  503 -0.00000000000E+00 -0.00000000000E+00 -0.32005879026E+03  0.32005879026E+03  0.00000000000E+00 0.  1.
          4    1    1    2  501    0 -0.73753015221E+01 -0.27736592030E+02 -0.18432447452E+03  0.18654550521E+03  0.00000000000E+00 0. -1.
         -4    1    1    2    0  502  0.73753015221E+01  0.27736592030E+02 -0.13309414218E+03  0.13615345861E+03  0.00000000000E+00 0.  1.
<mgrwt>
<rscale>  2 0.28700411E+02</rscale>
<asrwt>0</asrwt>
<pdfrwt beam="1">  1       21 0.40618103E-03 0.28700411E+02</pdfrwt>
<pdfrwt beam="2">  1       21 0.49239756E-01 0.28700411E+02</pdfrwt>
<totfact> 0.47215660E+07</totfact>
</mgrwt>
</event>
<event>
 4    1  0.7616518E+004  0.2021594E+02  0.7546771E-02  0.1741068E+00
         21   -1    0    0  503  502  0.00000000000E+00  0.00000000000E+00  0.23331359570E+02  0.23331359570E+02  0.00000000000E+00 0.  1.
         21   -1    0    0  501  503 -0.00000000000E+00 -0.00000000000E+00 -0.17555820154E+02  0.17555820154E+02  0.00000000000E+00 0.  1.
          4    1    1    2  501    0  0.62554824729E+01  0.19223765829E+02  0.38550270643E+01  0.20580220293E+02  0.00000000000E+00 0. -1.
         -4    1    1    2    0  502 -0.62554824729E+01 -0.19223765829E+02  0.19205123519E+01  0.20306959431E+02  0.00000000000E+00 0.  1.
<mgrwt>
<rscale>  2 0.20215940E+02</rscale>
<asrwt>0</asrwt>
<pdfrwt beam="1">  1       21 0.35894399E-02 0.20215940E+02</pdfrwt>
<pdfrwt beam="2">  1       21 0.27008954E-02 0.20215940E+02</pdfrwt>
<totfact> 0.21846794E+08</totfact>
</mgrwt>
</event>
<event>
 4    1  0.7616518E+004  0.3195288E+02  0.7546771E-02  0.1577454E+00
         21   -1    0    0  501  502  0.00000000000E+00  0.00000000000E+00  0.18526090717E+02  0.18526090717E+02  0.00000000000E+00 0.  1.
         21   -1    0    0  502  503 -0.00000000000E+00 -0.00000000000E+00 -0.55417960310E+02  0.55417960310E+02  0.00000000000E+00 0.  1.
          3    1    1    2  501    0 -0.76474959089E+01 -0.31024221610E+02 -0.21198735616E+02  0.38345441866E+02  0.00000000000E+00 0. -1.
         -3    1    1    2    0  503  0.76474959089E+01  0.31024221610E+02 -0.15693133977E+02  0.35598609161E+02  0.00000000000E+00 0.  1.
<mgrwt>
<rscale>  2 0.31952880E+02</rscale>
<asrwt>0</asrwt>
<pdfrwt beam="1">  1       21 0.28501678E-02 0.31952880E+02</pdfrwt>
<pdfrwt beam="2">  1       21 0.85258401E-02 0.31952880E+02</pdfrwt>
<totfact> 0.56729807E+07</totfact>
</mgrwt>
</event>
<event>
 4    1  0.7616518E+004  0.2112729E+02  0.7546771E-02  0.1723797E+00
         21   -1    0    0  503  502  0.00000000000E+00  0.00000000000E+00  0.11726832350E+02  0.11726832350E+02  0.00000000000E+00 0.  1.
         21   -1    0    0  501  503 -0.00000000000E+00 -0.00000000000E+00 -0.38066933082E+02  0.38066933082E+02  0.00000000000E+00 0.  1.
          4    1    1    2  501    0  0.10981205969E+02 -0.18049254394E+02 -0.13411755268E+02  0.25024740720E+02  0.00000000000E+00 0.  1.
         -4    1    1    2    0  502 -0.10981205969E+02  0.18049254394E+02 -0.12928345465E+02  0.24769024712E+02  0.00000000000E+00 0. -1.
<mgrwt>
<rscale>  2 0.21127292E+02</rscale>
<asrwt>0</asrwt>
<pdfrwt beam="1">  1       21 0.18041281E-02 0.21127292E+02</pdfrwt>
<pdfrwt beam="2">  1       21 0.58564512E-02 0.21127292E+02</pdfrwt>
<totfact> 0.18993259E+08</totfact>
</mgrwt>
</event>
<event>
 4    1  0.7616518E+004  0.2587999E+02  0.7546771E-02  0.1648675E+00
         21   -1    0    0  503  502  0.00000000000E+00  0.00000000000E+00  0.49551151344E+01  0.49551151344E+01  0.00000000000E+00 0.  1.
         21   -1    0    0  501  503 -0.00000000000E+00 -0.00000000000E+00 -0.13920353216E+03  0.13920353216E+03  0.00000000000E+00 0.  1.
          3    1    1    2  501    0  0.22188508988E+02 -0.13320810159E+02 -0.54851905260E+02  0.60650683633E+02  0.00000000000E+00 0.  1.
         -3    1    1    2    0  502 -0.22188508988E+02  0.13320810159E+02 -0.79396511762E+02  0.83507963658E+02  0.00000000000E+00 0. -1.
<mgrwt>
<rscale>  2 0.25879991E+02</rscale>
<asrwt>0</asrwt>
<pdfrwt beam="1">  1       21 0.76232544E-03 0.25879991E+02</pdfrwt>
<pdfrwt beam="2">  1       21 0.21415927E-01 0.25879991E+02</pdfrwt>
<totfact> 0.84552837E+07</totfact>
</mgrwt>
</event>
<event>
 4    1  0.7616518E+004  0.3314616E+02  0.7546771E-02  0.1565707E+00
         21   -1    0    0  503  502  0.00000000000E+00  0.00000000000E+00  0.32793901104E+01  0.32793901104E+01  0.00000000000E+00 0. -1.
         21   -1    0    0  501  503 -0.00000000000E+00 -0.00000000000E+00 -0.63802820197E+03  0.63802820197E+03  0.00000000000E+00 0. -1.
          4    1    1    2  501    0  0.16682562407E+02  0.28641926398E+02 -0.96399882422E+02  0.10193922291E+03  0.00000000000E+00 0. -1.
         -4    1    1    2    0  502 -0.16682562407E+02 -0.28641926398E+02 -0.53834892944E+03  0.53936836917E+03  0.00000000000E+00 0.  1.
<mgrwt>
<rscale>  2 0.33146159E+02</rscale>
<asrwt>0</asrwt>
<pdfrwt beam="1">  1       21 0.50452150E-03 0.33146159E+02</pdfrwt>
<pdfrwt beam="2">  1       21 0.98158196E-01 0.33146159E+02</pdfrwt>
<totfact> 0.83583198E+06</totfact>
</mgrwt>
</event>
<event>
 4    1  0.7616518E+004  0.2368312E+02  0.7546771E-02  0.1680670E+00
         21   -1    0    0  501  502  0.00000000000E+00  0.00000000000E+00  0.13614201215E+01  0.13614201215E+01  0.00000000000E+00 0.  1.
         21   -1    0    0  502  503 -0.00000000000E+00 -0.00000000000E+00 -0.42711127914E+03  0.42711127914E+03  0.00000000000E+00 0.  1.
          1    1    1    2  501    0  0.19384895667E+02  0.13605727774E+02 -0.25318674749E+03  0.25429199577E+03  0.00000000000E+00 0.  1.
         -1    1    1    2    0  503 -0.19384895667E+02 -0.13605727774E+02 -0.17256311153E+03  0.17418070349E+03  0.00000000000E+00 0. -1.
<mgrwt>
<rscale>  2 0.23683117E+02</rscale>
<asrwt>0</asrwt>
<pdfrwt beam="1">  1       21 0.20944912E-03 0.23683117E+02</pdfrwt>
<pdfrwt beam="2">  1       21 0.65709468E-01 0.23683117E+02</pdfrwt>
<totfact> 0.67072423E+07</totfact>
</mgrwt>
</event>
<event>
 4    1  0.7616518E+004  0.3416210E+02  0.7546771E-02  0.1556170E+00
         21   -1    0    0  503  502  0.00000000000E+00  0.00000000000E+00  0.30888526215E+03  0.30888526215E+03  0.00000000000E+00 0.  1.
         21   -1    0    0  501  503 -0.00000000000E+00 -0.00000000000E+00 -0.42201532155E+01  0.42201532155E+01  0.00000000000E+00 0.  1.
          3    1    1    2  501    0  0.32840689118E+02  0.94094671587E+01  0.20299136362E+03  0.20584591966E+03  0.00000000000E+00 0. -1.
         -3    1    1    2    0  502 -0.32840689118E+02 -0.94094671587E+01  0.10167374531E+03  0.10725949571E+03  0.00000000000E+00 0.  1.
<mgrwt>
<rscale>  2 0.34162098E+02</rscale>
<asrwt>0</asrwt>
<pdfrwt beam="1">  1       21 0.47520792E-01 0.34162098E+02</pdfrwt>
<pdfrwt beam="2">  1       21 0.64925458E-03 0.34162098E+02</pdfrwt>
<totfact> 0.25988521E+07</totfact>
</mgrwt>
</event>
<event>
 4    1  0.7616518E+004  0.2103291E+02  0.7546771E-02  0.1725535E+00
         21   -1    0    0  501  502  0.00000000000E+00  0.00000000000E+00  0.33314832148E+01  0.33314832148E+01  0.00000000000E+00 0.  1.
         21   -1    0    0  502  503 -0.00000000000E+00 -0.00000000000E+00 -0.16071470414E+03  0.16071470414E+03  0.00000000000E+00 0.  1.
          1    1    1    2  501    0 -0.10132150173E+02  0.18431570172E+02 -0.44500522324E+02  0.49220724631E+02  0.00000000000E+00 0.  1.
         -1    1    1    2    0  503  0.10132150173E+02 -0.18431570172E+02 -0.11288269860E+03  0.11482546273E+03  0.00000000000E+00 0. -1.
<mgrwt>
<rscale>  2 0.21032909E+02</rscale>
<asrwt>0</asrwt>
<pdfrwt beam="1">  1       21 0.51253590E-03 0.21032909E+02</pdfrwt>
<pdfrwt beam="2">  1       21 0.24725338E-01 0.21032909E+02</pdfrwt>
<totfact> 0.11178707E+08</totfact>
</mgrwt>
</event>
<event>
 4    1  0.7616518E+004  0.2360805E+02  0.7546771E-02  0.1681839E+00
         21   -1    0    0  501  502  0.00000000000E+00  0.00000000000E+00  0.73398128799E+01  0.73398128799E+01  0.00000000000E+00 0. -1.
         21   -1    0    0  502  503 -0.00000000000E+00 -0.00000000000E+00 -0.76365914648E+02  0.76365914648E+02  0.00000000000E+00 0. -1.
          5    1    1    2  501    0  0.83107369678E+01  0.22096873704E+02 -0.37661196575E+02  0.44448913416E+02  0.00000000000E+00 0. -1.
         -5    1    1    2    0  503 -0.83107369678E+01 -0.22096873704E+02 -0.31364905193E+02  0.39256814112E+02  0.00000000000E+00 0.  1.
<mgrwt>
<rscale>  2 0.23608053E+02</rscale>
<asrwt>0</asrwt>
<pdfrwt beam="1">  1       21 0.11292020E-02 0.23608053E+02</pdfrwt>
<pdfrwt beam="2">  1       21 0.11748602E-01 0.23608053E+02</pdfrwt>
<totfact> 0.12814845E+08</totfact>
</mgrwt>
</event>
<event>
 4    1  0.7616518E+004  0.3666161E+02  0.7546771E-02  0.1534321E+00
         21   -1    0    0  501  502  0.00000000000E+00  0.00000000000E+00  0.15216152295E+02  0.15216152295E+02  0.00000000000E+00 0. -1.
         21   -1    0    0  502  503 -0.00000000000E+00 -0.00000000000E+00 -0.93686218619E+02  0.93686218619E+02  0.00000000000E+00 0. -1.
          3    1    1    2  501    0  0.31621428816E+02 -0.18551521566E+02 -0.26217878265E+02  0.45071619158E+02  0.00000000000E+00 0. -1.
         -3    1    1    2    0  503 -0.31621428816E+02  0.18551521566E+02 -0.52252188060E+02  0.63830751756E+02  0.00000000000E+00 0.  1.
<mgrwt>
<rscale>  2 0.36661611E+02</rscale>
<asrwt>0</asrwt>
<pdfrwt beam="1">  1       21 0.23409466E-02 0.36661611E+02</pdfrwt>
<pdfrwt beam="2">  1       21 0.14413264E-01 0.36661611E+02</pdfrwt>
<totfact> 0.32674303E+07</totfact>
</mgrwt>
</event>
<event>
 4    1  0.7616518E+004  0.2023633E+02  0.7546771E-02  0.1740669E+00
         21   -1    0    0  501  502  0.00000000000E+00  0.00000000000E+00  0.31637319077E+02  0.31637319077E+02  0.00000000000E+00 0. -1.
         21   -1    0    0  502  503 -0.00000000000E+00 -0.00000000000E+00 -0.13355688996E+02  0.13355688996E+02  0.00000000000E+00 0. -1.
          3    1    1    2  501    0 -0.14193667599E+02  0.14423899459E+02  0.13091201364E+02  0.24101631245E+02  0.00000000000E+00 0. -1.
         -3    1    1    2    0  503  0.14193667599E+02 -0.14423899459E+02  0.51904287165E+01  0.20891376828E+02  0.00000000000E+00 0.  1.
<mgrwt>
<rscale>  2 0.20236331E+02</rscale>
<asrwt>0</asrwt>
<pdfrwt beam="1">  1       21 0.48672798E-02 0.20236331E+02</pdfrwt>
<pdfrwt beam="2">  1       21 0.20547214E-02 0.20236331E+02</pdfrwt>
<totfact> 0.20612936E+08</totfact>
</mgrwt>
</event>
<event>
 4    1  0.7616518E+004  0.2404847E+02  0.7546771E-02  0.1675058E+00
         21   -1    0    0  503  502  0.00000000000E+00  0.00000000000E+00  0.16909391937E+02  0.16909391937E+02  0.00000000000E+00 0. -1.
         21   -1    0    0  501  503 -0.00000000000E+00 -0.00000000000E+00 -0.42004284574E+02  0.42004284574E+02  0.00000000000E+00 0. -1.
          4    1    1    2  501    0  0.59849748589E+01  0.23291817871E+02  0.14836992180E+00  0.24048923415E+02  0.00000000000E+00 0.  1.
         -4    1    1    2    0  502 -0.59849748589E+01 -0.23291817871E+02 -0.25243262559E+02  0.34864753096E+02  0.00000000000E+00 0. -1.
<mgrwt>
<rscale>  2 0.24048466E+02</rscale>
<asrwt>0</asrwt>
<pdfrwt beam="1">  1       21 0.26014450E-02 0.24048466E+02</pdfrwt>
<pdfrwt beam="2">  1       21 0.64621975E-02 0.24048466E+02</pdfrwt>
<totfact> 0.96034905E+07</totfact>
</mgrwt>
</event>
<event>
 4    1  0.7616518E+004  0.2471054E+02  0.7546771E-02  0.1665195E+00
         21   -1    0    0  501  502  0.00000000000E+00  0.00000000000E+00  0.16435164065E+03  0.16435164065E+03  0.00000000000E+00 0.  1.
         21   -1    0    0  502  503 -0.00000000000E+00 -0.00000000000E+00 -0.45008081039E+01  0.45008081039E+01  0.00000000000E+00 0.  1.
          4    1    1    2  501    0  0.79852047732E+01  0.23384763189E+02  0.11519626204E+03  0.11781676211E+03  0.00000000000E+00 0.  1.
         -4    1    1    2    0  503 -0.79852047732E+01 -0.23384763189E+02  0.44654570501E+02  0.51035686645E+02  0.00000000000E+00 0. -1.
<mgrwt>
<rscale>  2 0.24710537E+02</rscale>
<asrwt>0</asrwt>
<pdfrwt beam="1">  1       21 0.25284863E-01 0.24710537E+02</pdfrwt>
<pdfrwt beam="2">  1       21 0.69243214E-03 0.24710537E+02</pdfrwt>
<totfact> 0.71845089E+07</totfact>
</mgrwt>
</event>
<event>
 4    1  0.7616518E+004  0.2214913E+02  0.7546771E-02  0.1705685E+00
         21   -1    0    0  503  502  0.00000000000E+00  0.00000000000E+00  0.71728190904E+01  0.71728190904E+01  0.00000000000E+00 0. -1.
         21   -1    0    0  501  503 -0.00000000000E+00 -0.00000000000E+00 -0.68471713848E+02  0.68471713848E+02  0.00000000000E+00 0. -1.
          5    1    1    2  501    0  0.14735675213E+02  0.16536142329E+02 -0.31916392884E+02  0.38848941579E+02  0.00000000000E+00 0.  1.
         -5    1    1    2    0  502 -0.14735675213E+02 -0.16536142329E+02 -0.29382501874E+02  0.36795591359E+02  0.00000000000E+00 0. -1.
<mgrwt>
<rscale>  2 0.22149134E+02</rscale>
<asrwt>0</asrwt>
<pdfrwt beam="1">  1       21 0.11035106E-02 0.22149134E+02</pdfrwt>
<pdfrwt beam="2">  1       21 0.10534110E-01 0.22149134E+02</pdfrwt>
<totfact> 0.15612295E+08</totfact>
</mgrwt>
</event>
<event>
 4    1  0.7616518E+004  0.2469912E+02  0.7546771E-02  0.1665361E+00
         21   -1    0    0  501  502  0.00000000000E+00  0.00000000000E+00  0.64766508307E+02  0.64766508307E+02  0.00000000000E+00 0. -1.
         21   -1    0    0  502  503 -0.00000000000E+00 -0.00000000000E+00 -0.10266572201E+02  0.10266572201E+02  0.00000000000E+00 0. -1.
          4    1    1    2  501    0  0.13749493822E+02 -0.20518236655E+02  0.38028394971E+02  0.45345401529E+02  0.00000000000E+00 0.  1.
         -4    1    1    2    0  503 -0.13749493822E+02  0.20518236655E+02  0.16471541135E+02  0.29687678979E+02  0.00000000000E+00 0. -1.
<mgrwt>
<rscale>  2 0.24699122E+02</rscale>
<asrwt>0</asrwt>
<pdfrwt beam="1">  1       21 0.99640780E-02 0.24699122E+02</pdfrwt>
<pdfrwt beam="2">  1       21 0.15794727E-02 0.24699122E+02</pdfrwt>
<totfact> 0.10264031E+08</totfact>
</mgrwt>
</event>
<event>
 4    1  0.7616518E+004  0.2273751E+02  0.7546771E-02  0.1695801E+00
         21   -1    0    0  503  502  0.00000000000E+00  0.00000000000E+00  0.11923403451E+01  0.11923403451E+01  0.00000000000E+00 0.  1.
         21   -1    0    0  501  503 -0.00000000000E+00 -0.00000000000E+00 -0.47627500892E+03  0.47627500892E+03  0.00000000000E+00 0.  1.
          5    1    1    2  501    0  0.37693386492E+01  0.22422901299E+02 -0.30900580635E+03  0.30984122188E+03  0.00000000000E+00 0.  1.
         -5    1    1    2    0  502 -0.37693386492E+01 -0.22422901299E+02 -0.16607686222E+03  0.16762612738E+03  0.00000000000E+00 0. -1.
<mgrwt>
<rscale>  2 0.22737511E+02</rscale>
<asrwt>0</asrwt>
<pdfrwt beam="1">  1       21 0.18343666E-03 0.22737511E+02</pdfrwt>
<pdfrwt beam="2">  1       21 0.73273204E-01 0.22737511E+02</pdfrwt>
<totfact> 0.64355478E+07</totfact>
</mgrwt>
</event>
<event>
 4    1  0.7616518E+004  0.5069041E+02  0.7546771E-02  0.1441653E+00
         21   -1    0    0  501  502  0.00000000000E+00  0.00000000000E+00  0.13615561530E+03  0.13615561530E+03  0.00000000000E+00 0.  1.
         21   -1    0    0  502  503 -0.00000000000E+00 -0.00000000000E+00 -0.24408431450E+02  0.24408431450E+02  0.00000000000E+00 0.  1.
          4    1    1    2  501    0 -0.98493971678E+00  0.50680838989E+02  0.17638109782E+02  0.53671411976E+02  0.00000000000E+00 0. -1.
         -4    1    1    2    0  503  0.98493971678E+00 -0.50680838989E+02  0.94109074071E+02  0.10689263478E+03  0.00000000000E+00 0.  1.
<mgrwt>
<rscale>  2 0.50690409E+02</rscale>
<asrwt>0</asrwt>
<pdfrwt beam="1">  1       21 0.20947017E-01 0.50690409E+02</pdfrwt>
<pdfrwt beam="2">  1       21 0.37551434E-02 0.50690409E+02</pdfrwt>
<totfact> 0.83450431E+06</totfact>
</mgrwt>
</event>
<event>
 4    1  0.7616518E+004  0.2297626E+02  0.7546771E-02  0.1691895E+00
         21   -1    0    0  503  502  0.00000000000E+00  0.00000000000E+00  0.17787596003E+01  0.17787596003E+01  0.00000000000E+00 0.  1.
         21   -1    0    0  501  503 -0.00000000000E+00 -0.00000000000E+00 -0.31394528546E+03  0.31394528546E+03  0.00000000000E+00 0.  1.
          2    1    1    2  501    0  0.78149859746E+01 -0.21606352608E+02 -0.19299103558E+03  0.19435392534E+03  0.00000000000E+00 0.  1.
         -2    1    1    2    0  502 -0.78149859746E+01  0.21606352608E+02 -0.11917549028E+03  0.12137011972E+03  0.00000000000E+00 0. -1.
<mgrwt>
<rscale>  2 0.22976259E+02</rscale>
<asrwt>0</asrwt>
<pdfrwt beam="1">  1       21 0.27365543E-03 0.22976259E+02</pdfrwt>
<pdfrwt beam="2">  1       21 0.48299256E-01 0.22976259E+02</pdfrwt>
<totfact> 0.83126782E+07</totfact>
</mgrwt>
</event>
<event>
 4    1  0.7616518E+004  0.2252405E+02  0.7546771E-02  0.1699343E+00
         21   -1    0    0  501  502  0.00000000000E+00  0.00000000000E+00  0.22264021642E+01  0.22264021642E+01  0.00000000000E+00 0. -1.
         21   -1    0    0  502  503 -0.00000000000E+00 -0.00000000000E+00 -0.27586616954E+03  0.27586616954E+03  0.00000000000E+00 0. -1.
          2    1    1    2  501    0  0.22516839275E+02  0.56976204200E+00 -0.78822481001E+02  0.81977534672E+02  0.00000000000E+00 0.  1.
         -2    1    1    2    0  503 -0.22516839275E+02 -0.56976204200E+00 -0.19481728638E+03  0.19611503703E+03  0.00000000000E+00 0. -1.
<mgrwt>
<rscale>  2 0.22524047E+02</rscale>
<asrwt>0</asrwt>
<pdfrwt beam="1">  1       21 0.34252361E-03 0.22524047E+02</pdfrwt>
<pdfrwt beam="2">  1       21 0.42440925E-01 0.22524047E+02</pdfrwt>
<totfact> 0.76392481E+07</totfact>
</mgrwt>
</event>
<event>
 4    1  0.7616518E+004  0.2254548E+02  0.7546771E-02  0.1698986E+00
         21   -1    0    0  501  502  0.00000000000E+00  0.00000000000E+00  0.82971386619E+01  0.82971386619E+01  0.00000000000E+00 0. -1.
         21   -1    0    0  502  503 -0.00000000000E+00 -0.00000000000E+00 -0.81648602800E+02  0.81648602800E+02  0.00000000000E+00 0. -1.
          1    1    1    2  501    0 -0.22079862398E+02  0.45583052480E+01 -0.59148146685E+02  0.63299302733E+02  0.00000000000E+00 0. -1.
         -1    1    1    2    0  503  0.22079862398E+02 -0.45583052480E+01 -0.14203317453E+02  0.26646438729E+02  0.00000000000E+00 0.  1.
<mgrwt>
<rscale>  2 0.22545476E+02</rscale>
<asrwt>0</asrwt>
<pdfrwt beam="1">  1       21 0.12764829E-02 0.22545476E+02</pdfrwt>
<pdfrwt beam="2">  1       21 0.12561324E-01 0.22545476E+02</pdfrwt>
<totfact> 0.93952162E+07</totfact>
</mgrwt>
</event>
<event>
 4    1  0.7616518E+004  0.2019582E+02  0.7546771E-02  0.1741462E+00
         21   -1    0    0  501  502  0.00000000000E+00  0.00000000000E+00  0.31183141780E+01  0.31183141780E+01  0.00000000000E+00 0.  1.
         21   -1    0    0  502  503 -0.00000000000E+00 -0.00000000000E+00 -0.14009843687E+03  0.14009843687E+03  0.00000000000E+00 0.  1.
          5    1    1    2  501    0  0.17200045076E+02  0.10584399806E+02 -0.50040532339E+02  0.53962264099E+02  0.00000000000E+00 0.  1.
         -5    1    1    2    0  503 -0.17200045076E+02 -0.10584399806E+02 -0.86939590353E+02  0.89254486949E+02  0.00000000000E+00 0. -1.
<mgrwt>
<rscale>  2 0.20195818E+02</rscale>
<asrwt>0</asrwt>
<pdfrwt beam="1">  1       21 0.47974051E-03 0.20195818E+02</pdfrwt>
<pdfrwt beam="2">  1       21 0.21553612E-01 0.20195818E+02</pdfrwt>
<totfact> 0.15501155E+08</totfact>
</mgrwt>
</event>
<event>
 4    1  0.7616518E+004  0.2122781E+02  0.7546771E-02  0.1721959E+00
         21   -1    0    0  501  502  0.00000000000E+00  0.00000000000E+00  0.12841830203E+02  0.12841830203E+02  0.00000000000E+00 0. -1.
         21   -1    0    0  502  503 -0.00000000000E+00 -0.00000000000E+00 -0.36544668330E+02  0.36544668330E+02  0.00000000000E+00 0. -1.
          4    1    1    2  501    0  0.19280441466E+02 -0.88816843144E+01 -0.69247977854E+01  0.22328738517E+02  0.00000000000E+00 0.  1.
         -4    1    1    2    0  503 -0.19280441466E+02  0.88816843144E+01 -0.16778040342E+02  0.27057760016E+02  0.00000000000E+00 0. -1.
<mgrwt>
<rscale>  2 0.21227806E+02</rscale>
<asrwt>0</asrwt>
<pdfrwt beam="1">  1       21 0.19756662E-02 0.21227806E+02</pdfrwt>
<pdfrwt beam="2">  1       21 0.56222566E-02 0.21227806E+02</pdfrwt>
<totfact> 0.17674332E+08</totfact>
</mgrwt>
</event>
<event>
 4    1  0.7616518E+004  0.2240219E+02  0.7546771E-02  0.1701388E+00
         21   -1    0    0  501  502  0.00000000000E+00  0.00000000000E+00  0.71725401169E+02  0.71725401169E+02  0.00000000000E+00 0.  1.
         21   -1    0    0  502  503 -0.00000000000E+00 -0.00000000000E+00 -0.72005210809E+01  0.72005210809E+01  0.00000000000E+00 0.  1.
          3    1    1    2  501    0  0.99047971309E+01 -0.20093608150E+02  0.25626844742E+02  0.34038114903E+02  0.00000000000E+00 0. -1.
         -3    1    1    2    0  503 -0.99047971309E+01  0.20093608150E+02  0.38898035346E+02  0.44887807347E+02  0.00000000000E+00 0.  1.
<mgrwt>
<rscale>  2 0.22402190E+02</rscale>
<asrwt>0</asrwt>
<pdfrwt beam="1">  1       21 0.11034677E-01 0.22402190E+02</pdfrwt>
<pdfrwt beam="2">  1       21 0.11077725E-02 0.22402190E+02</pdfrwt>
<totfact> 0.14419938E+08</totfact>
</mgrwt>
</event>
<event>
 4    1  0.7616518E+004  0.2471208E+02  0.7546771E-02  0.1665172E+00
         21   -1    0    0  503  502  0.00000000000E+00  0.00000000000E+00  0.42326313621E+02  0.42326313621E+02  0.00000000000E+00 0. -1.
         21   -1    0    0  501  503 -0.00000000000E+00 -0.00000000000E+00 -0.14429551592E+02  0.14429551592E+02  0.00000000000E+00 0. -1.
          2    1    1    2  501    0  0.14962090071E+02 -0.19667809907E+02  0.14236232239E+02  0.28519417845E+02  0.00000000000E+00 0. -1.
         -2    1    1    2    0  502 -0.14962090071E+02  0.19667809907E+02  0.13660529790E+02  0.28236447368E+02  0.00000000000E+00 0.  1.
<mgrwt>
<rscale>  2 0.24712080E+02</rscale>
<asrwt>0</asrwt>
<pdfrwt beam="1">  1       21 0.65117405E-02 0.24712080E+02</pdfrwt>
<pdfrwt beam="2">  1       21 0.22199310E-02 0.24712080E+02</pdfrwt>
<totfact> 0.12217164E+08</totfact>
</mgrwt>
</event>
<event>
 4    1  0.7616518E+004  0.2895084E+02  0.7546771E-02  0.1609984E+00
         21   -1    0    0  501  502  0.00000000000E+00  0.00000000000E+00  0.42365203383E+02  0.42365203383E+02  0.00000000000E+00 0. -1.
         21   -1    0    0  502  503 -0.00000000000E+00 -0.00000000000E+00 -0.20095757171E+02  0.20095757171E+02  0.00000000000E+00 0. -1.
          1    1    1    2  501    0  0.28611729620E+02 -0.44181770880E+01  0.72445881022E+01  0.29843515500E+02  0.00000000000E+00 0. -1.
         -1    1    1    2    0  503 -0.28611729620E+02  0.44181770880E+01  0.15024858110E+02  0.32617445054E+02  0.00000000000E+00 0.  1.
<mgrwt>
<rscale>  2 0.28950844E+02</rscale>
<asrwt>0</asrwt>
<pdfrwt beam="1">  1       21 0.65177236E-02 0.28950844E+02</pdfrwt>
<pdfrwt beam="2">  1       21 0.30916550E-02 0.28950844E+02</pdfrwt>
<totfact> 0.75883114E+07</totfact>
</mgrwt>
</event>
<event>
 4    1  0.7616518E+004  0.4049796E+02  0.7546771E-02  0.1504579E+00
         21   -1    0    0  503  502  0.00000000000E+00  0.00000000000E+00  0.99996714829E+01  0.99996714829E+01  0.00000000000E+00 0.  1.
         21   -1    0    0  501  503 -0.00000000000E+00 -0.00000000000E+00 -0.16590233582E+03  0.16590233582E+03  0.00000000000E+00 0.  1.
          5    1    1    2  501    0 -0.14375054942E+02 -0.37860832823E+02 -0.87334912182E+02  0.96267708773E+02  0.00000000000E+00 0. -1.
         -5    1    1    2    0  502  0.14375054942E+02  0.37860832823E+02 -0.68567752154E+02  0.79634298528E+02  0.00000000000E+00 0.  1.
<mgrwt>
<rscale>  2 0.40497961E+02</rscale>
<asrwt>0</asrwt>
<pdfrwt beam="1">  1       21 0.15384109E-02 0.40497961E+02</pdfrwt>
<pdfrwt beam="2">  1       21 0.25523437E-01 0.40497961E+02</pdfrwt>
<totfact> 0.23184115E+07</totfact>
</mgrwt>
</event>
<event>
 4    1  0.7616518E+004  0.9936753E+02  0.7546771E-02  0.1281632E+00
         21   -1    0    0  503  502  0.00000000000E+00  0.00000000000E+00  0.92585001886E+03  0.92585001886E+03  0.00000000000E+00 0. -1.
         21   -1    0    0  501  503 -0.00000000000E+00 -0.00000000000E+00 -0.10670373902E+02  0.10670373902E+02  0.00000000000E+00 0. -1.
          5    1    1    2  501    0 -0.71903293666E+02  0.68584410923E+02  0.44678410296E+03  0.45770070976E+03  0.00000000000E+00 0.  1.
         -5    1    1    2    0  502  0.71903293666E+02 -0.68584410923E+02  0.46839554200E+03  0.47881968300E+03  0.00000000000E+00 0. -1.
<mgrwt>
<rscale>  2 0.99367525E+02</rscale>
<asrwt>0</asrwt>
<pdfrwt beam="1">  1       21 0.14243840E+00 0.99367525E+02</pdfrwt>
<pdfrwt beam="2">  1       21 0.16415967E-02 0.99367525E+02</pdfrwt>
<totfact> 0.59246883E+05</totfact>
</mgrwt>
</event>
<event>
 4    1  0.7616518E+004  0.3172185E+02  0.7546771E-02  0.1579800E+00
         21   -1    0    0  501  502  0.00000000000E+00  0.00000000000E+00  0.25118143762E+01  0.25118143762E+01  0.00000000000E+00 0.  1.
         21   -1    0    0  502  503 -0.00000000000E+00 -0.00000000000E+00 -0.45797136746E+03  0.45797136746E+03  0.00000000000E+00 0.  1.
          5    1    1    2  501    0  0.16601354449E+02  0.27030921014E+02 -0.14625040328E+03  0.14965111466E+03  0.00000000000E+00 0.  1.
         -5    1    1    2    0  503 -0.16601354449E+02 -0.27030921014E+02 -0.30920914980E+03  0.31083206717E+03  0.00000000000E+00 0. -1.
<mgrwt>
<rscale>  2 0.31721848E+02</rscale>
<asrwt>0</asrwt>
<pdfrwt beam="1">  1       21 0.38643348E-03 0.31721848E+02</pdfrwt>
<pdfrwt beam="2">  1       21 0.70457042E-01 0.31721848E+02</pdfrwt>
<totfact> 0.25137768E+07</totfact>
</mgrwt>
</event>
<event>
 4    1  0.7616518E+004  0.2654404E+02  0.7546771E-02  0.1639766E+00
         21   -1    0    0  501  502  0.00000000000E+00  0.00000000000E+00  0.33249829650E+03  0.33249829650E+03  0.00000000000E+00 0.  1.
         21   -1    0    0  502  503 -0.00000000000E+00 -0.00000000000E+00 -0.21467140353E+01  0.21467140353E+01  0.00000000000E+00 0.  1.
          2    1    1    2  501    0 -0.22198696376E+01 -0.26451050768E+02  0.18416459822E+03  0.18606768969E+03  0.00000000000E+00 0.  1.
         -2    1    1    2    0  503  0.22198696376E+01  0.26451050768E+02  0.14618698424E+03  0.14857732085E+03  0.00000000000E+00 0. -1.
<mgrwt>
<rscale>  2 0.26544037E+02</rscale>
<asrwt>0</asrwt>
<pdfrwt beam="1">  1       21 0.51153543E-01 0.26544037E+02</pdfrwt>
<pdfrwt beam="2">  1       21 0.33026396E-03 0.26544037E+02</pdfrwt>
<totfact> 0.58438259E+07</totfact>
</mgrwt>
</event>
<event>
 4    1  0.7616518E+004  0.2407625E+02  0.7546771E-02  0.1674636E+00
         21   -1    0    0  503  502  0.00000000000E+00  0.00000000000E+00  0.52945172694E+01  0.52945172694E+01  0.00000000000E+00 0. -1.
         21   -1    0    0  501  503 -0.00000000000E+00 -0.00000000000E+00 -0.11087571273E+03  0.11087571273E+03  0.00000000000E+00 0. -1.
          5    1    1    2  501    0  0.23121791693E+01  0.23964966395E+02 -0.46283367812E+02  0.52171025702E+02  0.00000000000E+00 0.  1.
         -5    1    1    2    0  502 -0.23121791693E+01 -0.23964966395E+02 -0.59297827651E+02  0.63999204299E+02  0.00000000000E+00 0. -1.
<mgrwt>
<rscale>  2 0.24076249E+02</rscale>
<asrwt>0</asrwt>
<pdfrwt beam="1">  1       21 0.81454113E-03 0.24076249E+02</pdfrwt>
<pdfrwt beam="2">  1       21 0.17057802E-01 0.24076249E+02</pdfrwt>
<totfact> 0.11175513E+08</totfact>
</mgrwt>
</event>
<event>
 4    1  0.7616518E+004  0.4718048E+02  0.7546771E-02  0.1461171E+00
         21   -1    0    0  503  502  0.00000000000E+00  0.00000000000E+00  0.99151522724E+02  0.99151522724E+02  0.00000000000E+00 0. -1.
         21   -1    0    0  501  503 -0.00000000000E+00 -0.00000000000E+00 -0.23054552831E+02  0.23054552831E+02  0.00000000000E+00 0. -1.
          4    1    1    2  501    0 -0.14630405541E+02 -0.44854758579E+02  0.28157643245E+02  0.54944071623E+02  0.00000000000E+00 0.  1.
         -4    1    1    2    0  502  0.14630405541E+02  0.44854758579E+02  0.47939326648E+02  0.67262003932E+02  0.00000000000E+00 0. -1.
<mgrwt>
<rscale>  2 0.47180485E+02</rscale>
<asrwt>0</asrwt>
<pdfrwt beam="1">  1       21 0.15254080E-01 0.47180485E+02</pdfrwt>
<pdfrwt beam="2">  1       21 0.35468543E-02 0.47180485E+02</pdfrwt>
<totfact> 0.15934146E+07</totfact>
</mgrwt>
</event>
<event>
 4    1  0.7616518E+004  0.2318205E+02  0.7546771E-02  0.1688576E+00
         21   -1    0    0  503  502  0.00000000000E+00  0.00000000000E+00  0.71728007390E+02  0.71728007390E+02  0.00000000000E+00 0. -1.
         21   -1    0    0  501  503 -0.00000000000E+00 -0.00000000000E+00 -0.75350759320E+01  0.75350759320E+01  0.00000000000E+00 0. -1.
          5    1    1    2  501    0 -0.23027936004E+02  0.26686168256E+01  0.29110223618E+02  0.37213068557E+02  0.00000000000E+00 0. -1.
         -5    1    1    2    0  502  0.23027936004E+02 -0.26686168256E+01  0.35082707840E+02  0.42050014765E+02  0.00000000000E+00 0.  1.
<mgrwt>
<rscale>  2 0.23182048E+02</rscale>
<asrwt>0</asrwt>
<pdfrwt beam="1">  1       21 0.11035078E-01 0.23182048E+02</pdfrwt>
<pdfrwt beam="2">  1       21 0.11592425E-02 0.23182048E+02</pdfrwt>
<totfact> 0.13602754E+08</totfact>
</mgrwt>
</event>
<event>
 4    1  0.7616518E+004  0.2098237E+02  0.7546771E-02  0.1726470E+00
         21   -1    0    0  503  502  0.00000000000E+00  0.00000000000E+00  0.84390271146E+03  0.84390271146E+03  0.00000000000E+00 0.  1.
         21   -1    0    0  501  503 -0.00000000000E+00 -0.00000000000E+00 -0.99225108235E+00  0.99225108235E+00  0.00000000000E+00 0.  1.
          4    1    1    2  501    0 -0.14415728818E+02 -0.15246201112E+02  0.13053923726E+03  0.13221479626E+03  0.00000000000E+00 0.  1.
         -4    1    1    2    0  502  0.14415728818E+02  0.15246201112E+02  0.71237122312E+03  0.71268016628E+03  0.00000000000E+00 0. -1.
<mgrwt>
<rscale>  2 0.20982371E+02</rscale>
<asrwt>0</asrwt>
<pdfrwt beam="1">  1       21 0.12983061E+00 0.20982371E+02</pdfrwt>
<pdfrwt beam="2">  1       21 0.15265469E-03 0.20982371E+02</pdfrwt>
<totfact> 0.23757466E+07</totfact>
</mgrwt>
</event>
<event>
 4    1  0.7616518E+004  0.2114659E+02  0.7546771E-02  0.1723443E+00
         21   -1    0    0  503  502  0.00000000000E+00  0.00000000000E+00  0.26513885954E+01  0.26513885954E+01  0.00000000000E+00 0.  1.
         21   -1    0    0  501  503 -0.00000000000E+00 -0.00000000000E+00 -0.28348667515E+03  0.28348667515E+03  0.00000000000E+00 0.  1.
          3    1    1    2  501    0 -0.54468409098E+01  0.20433062741E+02 -0.49362532856E+02  0.53701375949E+02  0.00000000000E+00 0. -1.
         -3    1    1    2    0  502  0.54468409098E+01 -0.20433062741E+02 -0.23147275370E+03  0.23243668780E+03  0.00000000000E+00 0.  1.
<mgrwt>
<rscale>  2 0.21146587E+02</rscale>
<asrwt>0</asrwt>
<pdfrwt beam="1">  1       21 0.40790599E-03 0.21146587E+02</pdfrwt>
<pdfrwt beam="2">  1       21 0.43613329E-01 0.21146587E+02</pdfrwt>
<totfact> 0.55302534E+07</totfact>
</mgrwt>
</event>
<event>
 4    1  0.7616518E+004  0.2861666E+02  0.7546771E-02  0.1613903E+00
         21   -1    0    0  503  502  0.00000000000E+00  0.00000000000E+00  0.10376376767E+02  0.10376376767E+02  0.00000000000E+00 0.  1.
         21   -1    0    0  501  503 -0.00000000000E+00 -0.00000000000E+00 -0.11539689257E+03  0.11539689257E+03  0.00000000000E+00 0.  1.
          1    1    1    2  501    0  0.28507771732E+02  0.24940646813E+01 -0.17154136314E+02  0.33364319271E+02  0.00000000000E+00 0. -1.
         -1    1    1    2    0  502 -0.28507771732E+02 -0.24940646813E+01 -0.87866379484E+02  0.92408950061E+02  0.00000000000E+00 0.  1.
<mgrwt>
<rscale>  2 0.28616663E+02</rscale>
<asrwt>0</asrwt>
<pdfrwt beam="1">  1       21 0.15963656E-02 0.28616663E+02</pdfrwt>
<pdfrwt beam="2">  1       21 0.17753368E-01 0.28616663E+02</pdfrwt>
<totfact> 0.39241138E+07</totfact>
</mgrwt>
</event>
<event>
 4    1  0.7616518E+004  0.2423221E+02  0.7546771E-02  0.1672281E+00
         21   -1    0    0  503  502  0.00000000000E+00  0.00000000000E+00  0.31367146887E+01  0.31367146887E+01  0.00000000000E+00 0. -1.
         21   -1    0    0  501  503 -0.00000000000E+00 -0.00000000000E+00 -0.19177240147E+03  0.19177240147E+03  0.00000000000E+00 0. -1.
          1    1    1    2  501    0  0.24211428528E+02  0.10032475321E+01 -0.79273317863E+02  0.82894262178E+02  0.00000000000E+00 0. -1.
         -1    1    1    2    0  502 -0.24211428528E+02 -0.10032475321E+01 -0.10936236891E+03  0.11201485398E+03  0.00000000000E+00 0.  1.
<mgrwt>
<rscale>  2 0.24232205E+02</rscale>
<asrwt>0</asrwt>
<pdfrwt beam="1">  1       21 0.48257151E-03 0.24232205E+02</pdfrwt>
<pdfrwt beam="2">  1       21 0.29503445E-01 0.24232205E+02</pdfrwt>
<totfact> 0.92453277E+07</totfact>
</mgrwt>
</event>
<event>
 4    1  0.7616518E+004  0.2420025E+02  0.7546771E-02  0.1672762E+00
         21   -1    0    0  503  502  0.00000000000E+00  0.00000000000E+00  0.13491305420E+03  0.13491305420E+03  0.00000000000E+00 0.  1.
         21   -1    0    0  501  503 -0.00000000000E+00 -0.00000000000E+00 -0.50243777796E+01  0.50243777796E+01  0.00000000000E+00 0.  1.
          4    1    1    2  501    0 -0.23769464101E+02 -0.45458583502E+01  0.90749447876E+02  0.93920788655E+02  0.00000000000E+00 0.  1.
         -4    1    1    2    0  502  0.23769464101E+02  0.45458583502E+01  0.39139228542E+02  0.46016643322E+02  0.00000000000E+00 0. -1.
<mgrwt>
<rscale>  2 0.24200253E+02</rscale>
<asrwt>0</asrwt>
<pdfrwt beam="1">  1       21 0.20755852E-01 0.24200253E+02</pdfrwt>
<pdfrwt beam="2">  1       21 0.77298130E-03 0.24200253E+02</pdfrwt>
<totfact> 0.86038106E+07</totfact>
</mgrwt>
</event>
<event>
 4    1  0.7616518E+004  0.2235663E+02  0.7546771E-02  0.1702156E+00
         21   -1    0    0  501  502  0.00000000000E+00  0.00000000000E+00  0.54310745452E+03  0.54310745452E+03  0.00000000000E+00 0.  1.
         21   -1    0    0  502  503 -0.00000000000E+00 -0.00000000000E+00 -0.13985963295E+01  0.13985963295E+01  0.00000000000E+00 0.  1.
          3    1    1    2  501    0 -0.17965323676E+02 -0.13306624670E+02  0.11164188464E+03  0.11385837484E+03  0.00000000000E+00 0.  1.
         -3    1    1    2    0  503  0.17965323676E+02  0.13306624670E+02  0.43006697355E+03  0.43064767601E+03  0.00000000000E+00 0. -1.
<mgrwt>
<rscale>  2 0.22356635E+02</rscale>
<asrwt>0</asrwt>
<pdfrwt beam="1">  1       21 0.83554825E-01 0.22356635E+02</pdfrwt>
<pdfrwt beam="2">  1       21 0.21516910E-03 0.22356635E+02</pdfrwt>
<totfact> 0.38716127E+07</totfact>
</mgrwt>
</event>
<event>
 4    1  0.7616518E+004  0.4174387E+02  0.7546771E-02  0.1495757E+00
         21   -1    0    0  501  502  0.00000000000E+00  0.00000000000E+00  0.36269482378E+02  0.36269482378E+02  0.00000000000E+00 0. -1.
         21   -1    0    0  502  503 -0.00000000000E+00 -0.00000000000E+00 -0.61587431359E+02  0.61587431359E+02  0.00000000000E+00 0. -1.
          3    1    1    2  501    0 -0.40177284541E+02 -0.11328585423E+02 -0.35603071721E+02  0.54864649427E+02  0.00000000000E+00 0.  1.
         -3    1    1    2    0  503  0.40177284541E+02  0.11328585423E+02  0.10285122740E+02  0.42992264310E+02  0.00000000000E+00 0. -1.
<mgrwt>
<rscale>  2 0.41743874E+02</rscale>
<asrwt>0</asrwt>
<pdfrwt beam="1">  1       21 0.55799204E-02 0.41743874E+02</pdfrwt>
<pdfrwt beam="2">  1       21 0.94749894E-02 0.41743874E+02</pdfrwt>
<totfact> 0.17019032E+07</totfact>
</mgrwt>
</event>
<event>
 4    1  0.7616518E+004  0.2013173E+02  0.7546771E-02  0.1742721E+00
         21   -1    0    0  503  502  0.00000000000E+00  0.00000000000E+00  0.47052736451E+01  0.47052736451E+01  0.00000000000E+00 0.  1.
         21   -1    0    0  501  503 -0.00000000000E+00 -0.00000000000E+00 -0.95571625044E+02  0.95571625044E+02  0.00000000000E+00 0.  1.
          2    1    1    2  501    0 -0.19569752315E+02 -0.47235049477E+01 -0.29677945878E+02  0.35861778765E+02  0.00000000000E+00 0.  1.
         -2    1    1    2    0  502  0.19569752315E+02  0.47235049477E+01 -0.61188405521E+02  0.64415119924E+02  0.00000000000E+00 0. -1.
<mgrwt>
<rscale>  2 0.20131734E+02</rscale>
<asrwt>0</asrwt>
<pdfrwt beam="1">  1       21 0.72388825E-03 0.20131734E+02</pdfrwt>
<pdfrwt beam="2">  1       21 0.14703327E-01 0.20131734E+02</pdfrwt>
<totfact> 0.16286100E+08</totfact>
</mgrwt>
</event>
<event>
 4    1  0.7616518E+004  0.2284049E+02  0.7546771E-02  0.1694109E+00
         21   -1    0    0  501  502  0.00000000000E+00  0.00000000000E+00  0.66459390468E+02  0.66459390468E+02  0.00000000000E+00 0. -1.
         21   -1    0    0  502  503 -0.00000000000E+00 -0.00000000000E+00 -0.11968332497E+02  0.11968332497E+02  0.00000000000E+00 0. -1.
          1    1    1    2  501    0  0.81273922335E+01  0.21345578131E+02  0.50249233211E+02  0.55196681500E+02  0.00000000000E+00 0. -1.
         -1    1    1    2    0  503 -0.81273922335E+01 -0.21345578131E+02  0.42418247606E+01  0.23231041465E+02  0.00000000000E+00 0.  1.
<mgrwt>
<rscale>  2 0.22840495E+02</rscale>
<asrwt>0</asrwt>
<pdfrwt beam="1">  1       21 0.10224521E-01 0.22840495E+02</pdfrwt>
<pdfrwt beam="2">  1       21 0.18412820E-02 0.22840495E+02</pdfrwt>
<totfact> 0.76135264E+07</totfact>
</mgrwt>
</event>
<event>
 4    1  0.7616518E+004  0.2407178E+02  0.7546771E-02  0.1674704E+00
         21   -1    0    0  503  502  0.00000000000E+00  0.00000000000E+00  0.62104627748E+01  0.62104627748E+01  0.00000000000E+00 0. -1.
         21   -1    0    0  501  503 -0.00000000000E+00 -0.00000000000E+00 -0.10821148212E+03  0.10821148212E+03  0.00000000000E+00 0. -1.
          2    1    1    2  501    0  0.23621476501E+02 -0.46342470708E+01 -0.29764656467E+02  0.38280349693E+02  0.00000000000E+00 0. -1.
         -2    1    1    2    0  502 -0.23621476501E+02  0.46342470708E+01 -0.72236362874E+02  0.76141595198E+02  0.00000000000E+00 0.  1.
<mgrwt>
<rscale>  2 0.24071776E+02</rscale>
<asrwt>0</asrwt>
<pdfrwt beam="1">  1       21 0.95545582E-03 0.24071776E+02</pdfrwt>
<pdfrwt beam="2">  1       21 0.16647920E-01 0.24071776E+02</pdfrwt>
<totfact> 0.91739041E+07</totfact>
</mgrwt>
</event>
<event>
 4    1  0.7616518E+004  0.2767818E+02  0.7546771E-02  0.1625269E+00
         21   -1    0    0  503  502  0.00000000000E+00  0.00000000000E+00  0.18296067426E+04  0.18296067426E+04  0.00000000000E+00 0. -1.
         21   -1    0    0  501  503 -0.00000000000E+00 -0.00000000000E+00 -0.49104565409E+00  0.49104565409E+00  0.00000000000E+00 0. -1.
          1    1    1    2  501    0  0.19761181952E+02 -0.19379820668E+02  0.56336320348E+03  0.56404271185E+03  0.00000000000E+00 0.  1.
         -1    1    1    2    0  502 -0.19761181952E+02  0.19379820668E+02  0.12657524935E+04  0.12660550764E+04  0.00000000000E+00 0. -1.
<mgrwt>
<rscale>  2 0.27678182E+02</rscale>
<asrwt>0</asrwt>
<pdfrwt beam="1">  1       21 0.28147250E+00 0.27678182E+02</pdfrwt>
<pdfrwt beam="2">  1       21 0.75546950E-04 0.27678182E+02</pdfrwt>
<totfact> 0.89564787E+06</totfact>
</mgrwt>
</event>
<event>
 4    1  0.7616518E+004  0.2258504E+02  0.7546771E-02  0.1698326E+00
         21   -1    0    0  501  502  0.00000000000E+00  0.00000000000E+00  0.10451575029E+02  0.10451575029E+02  0.00000000000E+00 0.  1.
         21   -1    0    0  502  503 -0.00000000000E+00 -0.00000000000E+00 -0.59476007597E+02  0.59476007597E+02  0.00000000000E+00 0.  1.
          5    1    1    2  501    0 -0.21019136333E+02  0.82631812975E+01 -0.39322377835E+02  0.45346815278E+02  0.00000000000E+00 0. -1.
         -5    1    1    2    0  503  0.21019136333E+02 -0.82631812975E+01 -0.97020547338E+01  0.24580767347E+02  0.00000000000E+00 0.  1.
<mgrwt>
<rscale>  2 0.22585045E+02</rscale>
<asrwt>0</asrwt>
<pdfrwt beam="1">  1       21 0.16079347E-02 0.22585045E+02</pdfrwt>
<pdfrwt beam="2">  1       21 0.91501548E-02 0.22585045E+02</pdfrwt>
<totfact> 0.11208797E+08</totfact>
</mgrwt>
</event>
<event>
 4    1  0.7616518E+004  0.2152920E+02  0.7546771E-02  0.1716524E+00
         21   -1    0    0  501  502  0.00000000000E+00  0.00000000000E+00  0.53278687405E+01  0.53278687405E+01  0.00000000000E+00 0. -1.
         21   -1    0    0  502  503 -0.00000000000E+00 -0.00000000000E+00 -0.92094134823E+02  0.92094134823E+02  0.00000000000E+00 0. -1.
          1    1    1    2  501    0  0.95060096346E+01  0.19316887657E+02 -0.31922939367E+02  0.38504291004E+02  0.00000000000E+00 0. -1.
         -1    1    1    2    0  503 -0.95060096346E+01 -0.19316887657E+02 -0.54843326716E+02  0.58917712560E+02  0.00000000000E+00 0.  1.
<mgrwt>
<rscale>  2 0.21529198E+02</rscale>
<asrwt>0</asrwt>
<pdfrwt beam="1">  1       21 0.81967214E-03 0.21529198E+02</pdfrwt>
<pdfrwt beam="2">  1       21 0.14168328E-01 0.21529198E+02</pdfrwt>
<totfact> 0.14713384E+08</totfact>
</mgrwt>
</event>
<event>
 4    1  0.7616518E+004  0.2820838E+02  0.7546771E-02  0.1618781E+00
         21   -1    0    0  503  502  0.00000000000E+00  0.00000000000E+00  0.51897467038E+03  0.51897467038E+03  0.00000000000E+00 0.  1.
         21   -1    0    0  501  503 -0.00000000000E+00 -0.00000000000E+00 -0.20209107138E+01  0.20209107138E+01  0.00000000000E+00 0.  1.
          2    1    1    2  501    0  0.91858795484E+01 -0.26670818113E+02  0.38644260103E+03  0.38747076897E+03  0.00000000000E+00 0.  1.
         -2    1    1    2    0  502 -0.91858795484E+01  0.26670818113E+02  0.13051115864E+03  0.13352481212E+03  0.00000000000E+00 0. -1.
<mgrwt>
<rscale>  2 0.28208384E+02</rscale>
<asrwt>0</asrwt>
<pdfrwt beam="1">  1       21 0.79842151E-01 0.28208384E+02</pdfrwt>
<pdfrwt beam="2">  1       21 0.31090976E-03 0.28208384E+02</pdfrwt>
<totfact> 0.26110083E+07</totfact>
</mgrwt>
</event>
<event>
 4    1  0.7616518E+004  0.2232470E+02  0.7546771E-02  0.1702696E+00
         21   -1    0    0  501  502  0.00000000000E+00  0.00000000000E+00  0.45912419218E+02  0.45912419218E+02  0.00000000000E+00 0.  1.
         21   -1    0    0  502  503 -0.00000000000E+00 -0.00000000000E+00 -0.11120313821E+02  0.11120313821E+02  0.00000000000E+00 0.  1.
          1    1    1    2  501    0 -0.16760804651E+02 -0.14746778415E+02  0.12993663290E+02  0.25830743928E+02  0.00000000000E+00 0.  1.
         -1    1    1    2    0  503  0.16760804651E+02  0.14746778415E+02  0.21798442107E+02  0.31201989110E+02  0.00000000000E+00 0. -1.
<mgrwt>
<rscale>  2 0.22324696E+02</rscale>
<asrwt>0</asrwt>
<pdfrwt beam="1">  1       21 0.70634490E-02 0.22324696E+02</pdfrwt>
<pdfrwt beam="2">  1       21 0.17108175E-02 0.22324696E+02</pdfrwt>
<totfact> 0.15499650E+08</totfact>
</mgrwt>
</event>
<event>
 4    1  0.7616518E+004  0.2371478E+02  0.7546771E-02  0.1680179E+00
         21   -1    0    0  501  502  0.00000000000E+00  0.00000000000E+00  0.20375232001E+02  0.20375232001E+02  0.00000000000E+00 0. -1.
         21   -1    0    0  502  503 -0.00000000000E+00 -0.00000000000E+00 -0.32119641463E+02  0.32119641463E+02  0.00000000000E+00 0. -1.
          4    1    1    2  501    0  0.11150674807E+02 -0.20929718033E+02  0.39718220367E+01  0.24045082988E+02  0.00000000000E+00 0.  1.
         -4    1    1    2    0  503 -0.11150674807E+02  0.20929718033E+02 -0.15716231499E+02  0.28449790476E+02  0.00000000000E+00 0. -1.
<mgrwt>
<rscale>  2 0.23714777E+02</rscale>
<asrwt>0</asrwt>
<pdfrwt beam="1">  1       21 0.31346511E-02 0.23714777E+02</pdfrwt>
<pdfrwt beam="2">  1       21 0.49414833E-02 0.23714777E+02</pdfrwt>
<totfact> 0.11003853E+08</totfact>
</mgrwt>
</event>
<event>
 4    1  0.7616518E+004  0.2548951E+02  0.7546771E-02  0.1654069E+00
         21   -1    0    0  503  502  0.00000000000E+00  0.00000000000E+00  0.23993940701E+03  0.23993940701E+03  0.00000000000E+00 0.  1.
         21   -1    0    0  501  503 -0.00000000000E+00 -0.00000000000E+00 -0.27205190542E+01  0.27205190542E+01  0.00000000000E+00 0.  1.
          5    1    1    2  501    0 -0.25293597762E+02  0.31542432114E+01  0.12689538005E+03  0.12943010784E+03  0.00000000000E+00 0. -1.
         -5    1    1    2    0  502  0.25293597762E+02 -0.31542432114E+01  0.11032350791E+03  0.11322981823E+03  0.00000000000E+00 0.  1.
<mgrwt>
<rscale>  2 0.25489514E+02</rscale>
<asrwt>0</asrwt>
<pdfrwt beam="1">  1       21 0.36913738E-01 0.25489514E+02</pdfrwt>
<pdfrwt beam="2">  1       21 0.41854158E-03 0.25489514E+02</pdfrwt>
<totfact> 0.76365587E+07</totfact>
</mgrwt>
</event>
<event>
 4    1  0.7616518E+004  0.2039041E+02  0.7546771E-02  0.1737674E+00
         21   -1    0    0  503  502  0.00000000000E+00  0.00000000000E+00  0.94029085062E+01  0.94029085062E+01  0.00000000000E+00 0. -1.
         21   -1    0    0  501  503 -0.00000000000E+00 -0.00000000000E+00 -0.55809859619E+02  0.55809859619E+02  0.00000000000E+00 0. -1.
          2    1    1    2  501    0  0.10959385615E+02 -0.17194790934E+02 -0.38064246552E+02  0.43181660851E+02  0.00000000000E+00 0.  1.
         -2    1    1    2    0  502 -0.10959385615E+02  0.17194790934E+02 -0.83427045610E+01  0.22031107274E+02  0.00000000000E+00 0. -1.
<mgrwt>
<rscale>  2 0.20390414E+02</rscale>
<asrwt>0</asrwt>
<pdfrwt beam="1">  1       21 0.14466013E-02 0.20390414E+02</pdfrwt>
<pdfrwt beam="2">  1       21 0.85861320E-02 0.20390414E+02</pdfrwt>
<totfact> 0.14164025E+08</totfact>
</mgrwt>
</event>
<event>
 4    1  0.7616518E+004  0.2430666E+02  0.7546771E-02  0.1671165E+00
         21   -1    0    0  501  502  0.00000000000E+00  0.00000000000E+00  0.52898799807E+01  0.52898799807E+01  0.00000000000E+00 0. -1.
         21   -1    0    0  502  503 -0.00000000000E+00 -0.00000000000E+00 -0.12315416277E+03  0.12315416277E+03  0.00000000000E+00 0. -1.
          2    1    1    2  501    0  0.23522936779E+02  0.61225237143E+01 -0.39335728612E+02  0.46239738286E+02  0.00000000000E+00 0. -1.
         -2    1    1    2    0  503 -0.23522936779E+02 -0.61225237143E+01 -0.78528554177E+02  0.82204304464E+02  0.00000000000E+00 0.  1.
<mgrwt>
<rscale>  2 0.24306663E+02</rscale>
<asrwt>0</asrwt>
<pdfrwt beam="1">  1       21 0.81382774E-03 0.24306663E+02</pdfrwt>
<pdfrwt beam="2">  1       21 0.18946793E-01 0.24306663E+02</pdfrwt>
<totfact> 0.93536903E+07</totfact>
</mgrwt>
</event>
<event>
 4    1  0.7616518E+004  0.2909624E+02  0.7546771E-02  0.1608299E+00
         21   -1    0    0  503  502  0.00000000000E+00  0.00000000000E+00  0.24725593847E+03  0.24725593847E+03  0.00000000000E+00 0.  1.
         21   -1    0    0  501  503 -0.00000000000E+00 -0.00000000000E+00 -0.10834963617E+02  0.10834963617E+02  0.00000000000E+00 0.  1.
          4    1    1    2  501    0  0.27733085419E+02 -0.88015277646E+01  0.22493591456E+03  0.22680995696E+03  0.00000000000E+00 0. -1.
         -4    1    1    2    0  502 -0.27733085419E+02  0.88015277646E+01  0.11485060290E+02  0.31280945122E+02  0.00000000000E+00 0.  1.
<mgrwt>
<rscale>  2 0.29096235E+02</rscale>
<asrwt>0</asrwt>
<pdfrwt beam="1">  1       21 0.38039371E-01 0.29096235E+02</pdfrwt>
<pdfrwt beam="2">  1       21 0.16669177E-02 0.29096235E+02</pdfrwt>
<totfact> 0.92708298E+06</totfact>
</mgrwt>
</event>
<event>
 4    1  0.7616518E+004  0.3077920E+02  0.7546771E-02  0.1589632E+00
         21   -1    0    0  503  502  0.00000000000E+00  0.00000000000E+00  0.34066769117E+02  0.34066769117E+02  0.00000000000E+00 0.  1.
         21   -1    0    0  501  503 -0.00000000000E+00 -0.00000000000E+00 -0.40008914701E+02  0.40008914701E+02  0.00000000000E+00 0.  1.
          4    1    1    2  501    0  0.79732196332E+01 -0.29728551566E+02  0.17481486322E+02  0.35397194431E+02  0.00000000000E+00 0.  1.
         -4    1    1    2    0  502 -0.79732196332E+01  0.29728551566E+02 -0.23423631907E+02  0.38678489387E+02  0.00000000000E+00 0. -1.
<mgrwt>
<rscale>  2 0.30779198E+02</rscale>
<asrwt>0</asrwt>
<pdfrwt beam="1">  1       21 0.52410414E-02 0.30779198E+02</pdfrwt>
<pdfrwt beam="2">  1       21 0.61552176E-02 0.30779198E+02</pdfrwt>
<totfact> 0.36437764E+07</totfact>
</mgrwt>
</event>
<event>
 4    1  0.7616518E+004  0.2085981E+02  0.7546771E-02  0.1728751E+00
         21   -1    0    0  501  502  0.00000000000E+00  0.00000000000E+00  0.21765364780E+01  0.21765364780E+01  0.00000000000E+00 0. -1.
         21   -1    0    0  502  503 -0.00000000000E+00 -0.00000000000E+00 -0.26624862011E+03  0.26624862011E+03  0.00000000000E+00 0. -1.
          5    1    1    2  501    0  0.14862575097E+02 -0.14636784878E+02 -0.65047215582E+02  0.68310115393E+02  0.00000000000E+00 0.  1.
         -5    1    1    2    0  503 -0.14862575097E+02  0.14636784878E+02 -0.19902486805E+03  0.20011504120E+03  0.00000000000E+00 0. -1.
<mgrwt>
<rscale>  2 0.20859808E+02</rscale>
<asrwt>0</asrwt>
<pdfrwt beam="1">  1       21 0.33485183E-03 0.20859808E+02</pdfrwt>
<pdfrwt beam="2">  1       21 0.40961318E-01 0.20859808E+02</pdfrwt>
<totfact> 0.82763406E+07</totfact>
</mgrwt>
</event>
<event>
 4    1  0.7616518E+004  0.2140413E+02  0.7546771E-02  0.1718766E+00
         21   -1    0    0  503  502  0.00000000000E+00  0.00000000000E+00  0.35961255932E+03  0.35961255932E+03  0.00000000000E+00 0. -1.
         21   -1    0    0  501  503 -0.00000000000E+00 -0.00000000000E+00 -0.19801943989E+01  0.19801943989E+01  0.00000000000E+00 0. -1.
          1    1    1    2  501    0 -0.13071062735E+02 -0.16949457648E+02  0.28678694190E+03  0.28758457337E+03  0.00000000000E+00 0.  1.
         -1    1    1    2    0  502  0.13071062735E+02  0.16949457648E+02  0.70845423014E+02  0.74008180343E+02  0.00000000000E+00 0. -1.
<mgrwt>
<rscale>  2 0.21404130E+02</rscale>
<asrwt>0</asrwt>
<pdfrwt beam="1">  1       21 0.55324957E-01 0.21404130E+02</pdfrwt>
<pdfrwt beam="2">  1       21 0.30464558E-03 0.21404130E+02</pdfrwt>
<totfact> 0.53620722E+07</totfact>
</mgrwt>
</event>
<event>
 4    1  0.7616518E+004  0.3681386E+02  0.7546771E-02  0.1533059E+00
         21   -1    0    0  501  502  0.00000000000E+00  0.00000000000E+00  0.99191241030E+02  0.99191241030E+02  0.00000000000E+00 0.  1.
         21   -1    0    0  502  503 -0.00000000000E+00 -0.00000000000E+00 -0.13718760436E+02  0.13718760436E+02  0.00000000000E+00 0.  1.
          3    1    1    2  501    0 -0.26329089237E+00 -0.36812919068E+02  0.39140410518E+02  0.53732970027E+02  0.00000000000E+00 0. -1.
         -3    1    1    2    0  503  0.26329089237E+00  0.36812919068E+02  0.46332070076E+02  0.59177031439E+02  0.00000000000E+00 0.  1.
<mgrwt>
<rscale>  2 0.36813861E+02</rscale>
<asrwt>0</asrwt>
<pdfrwt beam="1">  1       21 0.15260190E-01 0.36813861E+02</pdfrwt>
<pdfrwt beam="2">  1       21 0.21105786E-02 0.36813861E+02</pdfrwt>
<totfact> 0.34832659E+07</totfact>
</mgrwt>
</event>
<event>
 4    1  0.7616518E+004  0.2435736E+02  0.7546771E-02  0.1670408E+00
         21   -1    0    0  503  502  0.00000000000E+00  0.00000000000E+00  0.45839502723E+02  0.45839502723E+02  0.00000000000E+00 0.  1.
         21   -1    0    0  501  503 -0.00000000000E+00 -0.00000000000E+00 -0.14158917599E+02  0.14158917599E+02  0.00000000000E+00 0.  1.
          3    1    1    2  501    0 -0.15110708388E+02 -0.19103594703E+02  0.24633031261E+02  0.34641984176E+02  0.00000000000E+00 0.  1.
         -3    1    1    2    0  502  0.15110708388E+02  0.19103594703E+02  0.70475538633E+01  0.25356436146E+02  0.00000000000E+00 0. -1.
<mgrwt>
<rscale>  2 0.24357357E+02</rscale>
<asrwt>0</asrwt>
<pdfrwt beam="1">  1       21 0.70522311E-02 0.24357357E+02</pdfrwt>
<pdfrwt beam="2">  1       21 0.21782950E-02 0.24357357E+02</pdfrwt>
<totfact> 0.11010349E+08</totfact>
</mgrwt>
</event>
<event>
 4    1  0.7616518E+004  0.2185981E+02  0.7546771E-02  0.1710688E+00
         21   -1    0    0  501  502  0.00000000000E+00  0.00000000000E+00  0.74182771936E+02  0.74182771936E+02  0.00000000000E+00 0. -1.
         21   -1    0    0  502  503 -0.00000000000E+00 -0.00000000000E+00 -0.79882601043E+01  0.79882601043E+01  0.00000000000E+00 0. -1.
          3    1    1    2  501    0 -0.20708178335E+02  0.70016079868E+01  0.51176020746E+02  0.55649225186E+02  0.00000000000E+00 0.  1.
         -3    1    1    2    0  503  0.20708178335E+02 -0.70016079868E+01  0.15018491085E+02  0.26521806854E+02  0.00000000000E+00 0. -1.
<mgrwt>
<rscale>  2 0.21859807E+02</rscale>
<asrwt>0</asrwt>
<pdfrwt beam="1">  1       21 0.11412734E-01 0.21859807E+02</pdfrwt>
<pdfrwt beam="2">  1       21 0.12289631E-02 0.21859807E+02</pdfrwt>
<totfact> 0.11575752E+08</totfact>
</mgrwt>
</event>
<event>
 4    1  0.7616518E+004  0.3493453E+02  0.7546771E-02  0.1549183E+00
         21   -1    0    0  501  502  0.00000000000E+00  0.00000000000E+00  0.70580299988E+01  0.70580299988E+01  0.00000000000E+00 0. -1.
         21   -1    0    0  502  503 -0.00000000000E+00 -0.00000000000E+00 -0.17313956590E+03  0.17313956590E+03  0.00000000000E+00 0. -1.
          3    1    1    2  501    0 -0.76337683241E+01  0.34090280086E+02 -0.79777923395E+02  0.87091553416E+02  0.00000000000E+00 0.  1.
         -3    1    1    2    0  503  0.76337683241E+01 -0.34090280086E+02 -0.86303612507E+02  0.93106042484E+02  0.00000000000E+00 0. -1.
<mgrwt>
<rscale>  2 0.34934533E+02</rscale>
<asrwt>0</asrwt>
<pdfrwt beam="1">  1       21 0.10858508E-02 0.34934533E+02</pdfrwt>
<pdfrwt beam="2">  1       21 0.26636856E-01 0.34934533E+02</pdfrwt>
<totfact> 0.35739282E+07</totfact>
</mgrwt>
</event>
<event>
 4    1  0.7616518E+004  0.2576085E+02  0.7546771E-02  0.1650308E+00
         21   -1    0    0  503  502  0.00000000000E+00  0.00000000000E+00  0.10062704805E+03  0.10062704805E+03  0.00000000000E+00 0. -1.
         21   -1    0    0  501  503 -0.00000000000E+00 -0.00000000000E+00 -0.66262020934E+01  0.66262020934E+01  0.00000000000E+00 0. -1.
          4    1    1    2  501    0 -0.20754403161E+02 -0.15260287829E+02  0.50688403692E+02  0.56858912266E+02  0.00000000000E+00 0. -1.
         -4    1    1    2    0  502  0.20754403161E+02  0.15260287829E+02  0.43312442261E+02  0.50394337874E+02  0.00000000000E+00 0.  1.
<mgrwt>
<rscale>  2 0.25760855E+02</rscale>
<asrwt>0</asrwt>
<pdfrwt beam="1">  1       21 0.15481083E-01 0.25760855E+02</pdfrwt>
<pdfrwt beam="2">  1       21 0.10194158E-02 0.25760855E+02</pdfrwt>
<totfact> 0.95951734E+07</totfact>
</mgrwt>
</event>
<event>
 4    1  0.7616518E+004  0.2435381E+02  0.7546771E-02  0.1670461E+00
         21   -1    0    0  503  502  0.00000000000E+00  0.00000000000E+00  0.61164173355E+02  0.61164173355E+02  0.00000000000E+00 0. -1.
         21   -1    0    0  501  503 -0.00000000000E+00 -0.00000000000E+00 -0.96970669256E+01  0.96970669256E+01  0.00000000000E+00 0. -1.
          4    1    1    2  501    0  0.24307904947E+02 -0.14945930176E+01  0.25836745871E+02  0.35505569822E+02  0.00000000000E+00 0.  1.
         -4    1    1    2    0  502 -0.24307904947E+02  0.14945930176E+01  0.25630360559E+02  0.35355670458E+02  0.00000000000E+00 0. -1.
<mgrwt>
<rscale>  2 0.24353810E+02</rscale>
<asrwt>0</asrwt>
<pdfrwt beam="1">  1       21 0.94098726E-02 0.24353810E+02</pdfrwt>
<pdfrwt beam="2">  1       21 0.14918565E-02 0.24353810E+02</pdfrwt>
<totfact> 0.12262671E+08</totfact>
</mgrwt>
</event>
<event>
 4    1  0.7616518E+004  0.2189860E+02  0.7546771E-02  0.1710012E+00
         21   -1    0    0  501  502  0.00000000000E+00  0.00000000000E+00  0.41119532578E+03  0.41119532578E+03  0.00000000000E+00 0. -1.
         21   -1    0    0  502  503 -0.00000000000E+00 -0.00000000000E+00 -0.11669489340E+01  0.11669489340E+01  0.00000000000E+00 0. -1.
          2    1    1    2  501    0 -0.66865251025E+01  0.20852795612E+02  0.19989984740E+03  0.20109574260E+03  0.00000000000E+00 0. -1.
         -2    1    1    2    0  503  0.66865251025E+01 -0.20852795612E+02  0.21012852945E+03  0.21126653211E+03  0.00000000000E+00 0.  1.
<mgrwt>
<rscale>  2 0.21898600E+02</rscale>
<asrwt>0</asrwt>
<pdfrwt beam="1">  1       21 0.63260704E-01 0.21898600E+02</pdfrwt>
<pdfrwt beam="2">  1       21 0.17953093E-03 0.21898600E+02</pdfrwt>
<totfact> 0.88731574E+07</totfact>
</mgrwt>
</event>
<event>
 4    1  0.7616518E+004  0.2784006E+02  0.7546771E-02  0.1623269E+00
         21   -1    0    0  503  502  0.00000000000E+00  0.00000000000E+00  0.48783336524E+02  0.48783336524E+02  0.00000000000E+00 0. -1.
         21   -1    0    0  501  503 -0.00000000000E+00 -0.00000000000E+00 -0.16501580019E+02  0.16501580019E+02  0.00000000000E+00 0. -1.
          3    1    1    2  501    0 -0.19003550766E+02  0.20345372311E+02  0.22435354141E+02  0.35754918985E+02  0.00000000000E+00 0. -1.
         -3    1    1    2    0  502  0.19003550766E+02 -0.20345372311E+02  0.98464023639E+01  0.29529997557E+02  0.00000000000E+00 0.  1.
<mgrwt>
<rscale>  2 0.27840063E+02</rscale>
<asrwt>0</asrwt>
<pdfrwt beam="1">  1       21 0.75051286E-02 0.27840063E+02</pdfrwt>
<pdfrwt beam="2">  1       21 0.25387046E-02 0.27840063E+02</pdfrwt>
<totfact> 0.81245323E+07</totfact>
</mgrwt>
</event>
<event>
 4    1  0.7616518E+004  0.2929898E+02  0.7546771E-02  0.1605969E+00
         21   -1    0    0  501  502  0.00000000000E+00  0.00000000000E+00  0.22228721620E+02  0.22228721620E+02  0.00000000000E+00 0.  1.
         21   -1    0    0  502  503 -0.00000000000E+00 -0.00000000000E+00 -0.40696710517E+02  0.40696710517E+02  0.00000000000E+00 0.  1.
          5    1    1    2  501    0 -0.18575138186E+02 -0.22658209823E+02 -0.16344601928E+02  0.33549608689E+02  0.00000000000E+00 0.  1.
         -5    1    1    2    0  503  0.18575138186E+02  0.22658209823E+02 -0.21233869691E+01  0.29375823447E+02  0.00000000000E+00 0. -1.
<mgrwt>
<rscale>  2 0.29298980E+02</rscale>
<asrwt>0</asrwt>
<pdfrwt beam="1">  1       21 0.34198034E-02 0.29298980E+02</pdfrwt>
<pdfrwt beam="2">  1       21 0.62610323E-02 0.29298980E+02</pdfrwt>
<totfact> 0.69304859E+07</totfact>
</mgrwt>
</event>
<event>
 4    1  0.7616518E+004  0.2022491E+02  0.7546771E-02  0.1740892E+00
         21   -1    0    0  501  502  0.00000000000E+00  0.00000000000E+00  0.27869625020E+03  0.27869625020E+03  0.00000000000E+00 0.  1.
         21   -1    0    0  502  503 -0.00000000000E+00 -0.00000000000E+00 -0.14685649585E+01  0.14685649585E+01  0.00000000000E+00 0.  1.
          1    1    1    2  501    0  0.20015482946E+02 -0.29029798311E+01  0.14198258985E+03  0.14341583828E+03  0.00000000000E+00 0. -1.
         -1    1    1    2    0  503 -0.20015482946E+02  0.29029798311E+01  0.13524509539E+03  0.13674897688E+03  0.00000000000E+00 0.  1.
<mgrwt>
<rscale>  2 0.20224907E+02</rscale>
<asrwt>0</asrwt>
<pdfrwt beam="1">  1       21 0.42876304E-01 0.20224907E+02</pdfrwt>
<pdfrwt beam="2">  1       21 0.22593329E-03 0.20224907E+02</pdfrwt>
<totfact> 0.13311593E+08</totfact>
</mgrwt>
</event>
<event>
 4    1  0.7616518E+004  0.2749267E+02  0.7546771E-02  0.1627581E+00
         21   -1    0    0  503  502  0.00000000000E+00  0.00000000000E+00  0.32698811638E+02  0.32698811638E+02  0.00000000000E+00 0.  1.
         21   -1    0    0  501  503 -0.00000000000E+00 -0.00000000000E+00 -0.24582360476E+02  0.24582360476E+02  0.00000000000E+00 0.  1.
          1    1    1    2  501    0 -0.33561561711E+01  0.27287050691E+02  0.11054642039E+02  0.29631942735E+02  0.00000000000E+00 0.  1.
         -1    1    1    2    0  502  0.33561561711E+01 -0.27287050691E+02 -0.29381908764E+01  0.27649229379E+02  0.00000000000E+00 0. -1.
<mgrwt>
<rscale>  2 0.27492670E+02</rscale>
<asrwt>0</asrwt>
<pdfrwt beam="1">  1       21 0.50305864E-02 0.27492670E+02</pdfrwt>
<pdfrwt beam="2">  1       21 0.37819016E-02 0.27492670E+02</pdfrwt>
<totfact> 0.82816931E+07</totfact>
</mgrwt>
</event>
<event>
 4    1  0.7616518E+004  0.2107044E+02  0.7546771E-02  0.1724842E+00
         21   -1    0    0  501  502  0.00000000000E+00  0.00000000000E+00  0.12937980273E+03  0.12937980273E+03  0.00000000000E+00 0. -1.
         21   -1    0    0  502  503 -0.00000000000E+00 -0.00000000000E+00 -0.38633363876E+01  0.38633363876E+01  0.00000000000E+00 0. -1.
          5    1    1    2  501    0 -0.28515076548E+01  0.20876597364E+02  0.40483815964E+02  0.45638829613E+02  0.00000000000E+00 0.  1.
         -5    1    1    2    0  503  0.28515076548E+01 -0.20876597364E+02  0.85032650375E+02  0.87604309502E+02  0.00000000000E+00 0. -1.
<mgrwt>
<rscale>  2 0.21070439E+02</rscale>
<asrwt>0</asrwt>
<pdfrwt beam="1">  1       21 0.19904582E-01 0.21070439E+02</pdfrwt>
<pdfrwt beam="2">  1       21 0.59435954E-03 0.21070439E+02</pdfrwt>
<totfact> 0.13156253E+08</totfact>
</mgrwt>
</event>
<event>
 4    1  0.7616518E+004  0.2876927E+02  0.7546771E-02  0.1612105E+00
         21   -1    0    0  501  502  0.00000000000E+00  0.00000000000E+00  0.34771586046E+02  0.34771586046E+02  0.00000000000E+00 0.  1.
         21   -1    0    0  502  503 -0.00000000000E+00 -0.00000000000E+00 -0.23891725310E+02  0.23891725310E+02  0.00000000000E+00 0.  1.
          3    1    1    2  501    0 -0.28333798920E+02 -0.49866789948E+01  0.72265029972E+01  0.29662998402E+02  0.00000000000E+00 0.  1.
         -3    1    1    2    0  503  0.28333798920E+02  0.49866789948E+01  0.36533577390E+01  0.29000312954E+02  0.00000000000E+00 0. -1.
<mgrwt>
<rscale>  2 0.28769274E+02</rscale>
<asrwt>0</asrwt>
<pdfrwt beam="1">  1       21 0.53494747E-02 0.28769274E+02</pdfrwt>
<pdfrwt beam="2">  1       21 0.36756501E-02 0.28769274E+02</pdfrwt>
<totfact> 0.79396045E+07</totfact>
</mgrwt>
</event>
<event>
 4    1  0.7616518E+004  0.3226293E+02  0.7546771E-02  0.1574343E+00
         21   -1    0    0  501  502  0.00000000000E+00  0.00000000000E+00  0.13296988923E+04  0.13296988923E+04  0.00000000000E+00 0. -1.
         21   -1    0    0  502  503 -0.00000000000E+00 -0.00000000000E+00 -0.20122219992E+01  0.20122219992E+01  0.00000000000E+00 0. -1.
          5    1    1    2  501    0  0.25315341816E+02 -0.20000751523E+02  0.11843082636E+04  0.11847476355E+04  0.00000000000E+00 0.  1.
         -5    1    1    2    0  503 -0.25315341816E+02  0.20000751523E+02  0.14337840673E+03  0.14696347883E+03  0.00000000000E+00 0. -1.
<mgrwt>
<rscale>  2 0.32262929E+02</rscale>
<asrwt>0</asrwt>
<pdfrwt beam="1">  1       21 0.20456836E+00 0.32262929E+02</pdfrwt>
<pdfrwt beam="2">  1       21 0.30957368E-03 0.32262929E+02</pdfrwt>
<totfact> 0.29383091E+06</totfact>
</mgrwt>
</event>
<event>
 4    1  0.7616518E+004  0.2892182E+02  0.7546771E-02  0.1610322E+00
         21   -1    0    0  501  502  0.00000000000E+00  0.00000000000E+00  0.14590800413E+02  0.14590800413E+02  0.00000000000E+00 0.  1.
         21   -1    0    0  502  503 -0.00000000000E+00 -0.00000000000E+00 -0.59141734201E+02  0.59141734201E+02  0.00000000000E+00 0.  1.
          1    1    1    2  501    0  0.14439241308E+02 -0.25059523412E+02 -0.28730328200E+02  0.40766446518E+02  0.00000000000E+00 0. -1.
         -1    1    1    2    0  503 -0.14439241308E+02  0.25059523412E+02 -0.15820605588E+02  0.32966088096E+02  0.00000000000E+00 0.  1.
<mgrwt>
<rscale>  2 0.28921815E+02</rscale>
<asrwt>0</asrwt>
<pdfrwt beam="1">  1       21 0.22447385E-02 0.28921815E+02</pdfrwt>
<pdfrwt beam="2">  1       21 0.90987286E-02 0.28921815E+02</pdfrwt>
<totfact> 0.72313794E+07</totfact>
</mgrwt>
</event>
<event>
 4    1  0.7616518E+004  0.2005927E+02  0.7546771E-02  0.1744152E+00
         21   -1    0    0  501  502  0.00000000000E+00  0.00000000000E+00  0.19703929820E+00  0.19703929820E+00  0.00000000000E+00 0. -1.
         21   -1    0    0  502  503 -0.00000000000E+00 -0.00000000000E+00 -0.21055525578E+04  0.21055525578E+04  0.00000000000E+00 0. -1.
          4    1    1    2  501    0  0.17092638628E+02  0.10498374632E+02 -0.12354518078E+04  0.12356146420E+04  0.00000000000E+00 0.  1.
         -4    1    1    2    0  503 -0.17092638628E+02 -0.10498374632E+02 -0.86990371072E+03  0.87013495510E+03  0.00000000000E+00 0. -1.
<mgrwt>
<rscale>  2 0.20059266E+02</rscale>
<asrwt>0</asrwt>
<pdfrwt beam="1">  1       21 0.30313093E-04 0.20059266E+02</pdfrwt>
<pdfrwt beam="2">  1       21 0.32393806E+00 0.20059266E+02</pdfrwt>
<totfact> 0.19941414E+07</totfact>
</mgrwt>
</event>
<event>
 4    1  0.7616518E+004  0.4718347E+02  0.7546771E-02  0.1461154E+00
         21   -1    0    0  503  502  0.00000000000E+00  0.00000000000E+00  0.82262294699E+01  0.82262294699E+01  0.00000000000E+00 0.  1.
         21   -1    0    0  501  503 -0.00000000000E+00 -0.00000000000E+00 -0.27692605930E+03  0.27692605930E+03  0.00000000000E+00 0.  1.
          2    1    1    2  501    0 -0.39107688431E+02  0.26398259062E+02 -0.15584488784E+03  0.16283091980E+03  0.00000000000E+00 0. -1.
         -2    1    1    2    0  502  0.39107688431E+02 -0.26398259062E+02 -0.11285494199E+03  0.12232136897E+03  0.00000000000E+00 0.  1.
<mgrwt>
<rscale>  2 0.47183465E+02</rscale>
<asrwt>0</asrwt>
<pdfrwt beam="1">  1       21 0.12655737E-02 0.47183465E+02</pdfrwt>
<pdfrwt beam="2">  1       21 0.42604010E-01 0.47183465E+02</pdfrwt>
<totfact> 0.12182401E+07</totfact>
</mgrwt>
</event>
<event>
 4    1  0.7616518E+004  0.2372332E+02  0.7546771E-02  0.1680047E+00
         21   -1    0    0  503  502  0.00000000000E+00  0.00000000000E+00  0.36628492397E+03  0.36628492397E+03  0.00000000000E+00 0. -1.
         21   -1    0    0  501  503 -0.00000000000E+00 -0.00000000000E+00 -0.15401573291E+01  0.15401573291E+01  0.00000000000E+00 0. -1.
          4    1    1    2  501    0  0.20006525741E+02 -0.12748911733E+02  0.19133772571E+03  0.19280280367E+03  0.00000000000E+00 0.  1.
         -4    1    1    2    0  502 -0.20006525741E+02  0.12748911733E+02  0.17340704094E+03  0.17502227764E+03  0.00000000000E+00 0. -1.
<mgrwt>
<rscale>  2 0.23723318E+02</rscale>
<asrwt>0</asrwt>
<pdfrwt beam="1">  1       21 0.56351457E-01 0.23723318E+02</pdfrwt>
<pdfrwt beam="2">  1       21 0.23694757E-03 0.23723318E+02</pdfrwt>
<totfact> 0.76380850E+07</totfact>
</mgrwt>
</event>
<event>
 4    1  0.7616518E+004  0.2746195E+02  0.7546771E-02  0.1627966E+00
         21   -1    0    0  503  502  0.00000000000E+00  0.00000000000E+00  0.20604354008E+03  0.20604354008E+03  0.00000000000E+00 0. -1.
         21   -1    0    0  501  503 -0.00000000000E+00 -0.00000000000E+00 -0.37322405343E+01  0.37322405343E+01  0.00000000000E+00 0. -1.
          1    1    1    2  501    0  0.19828496015E+02  0.18999718571E+02  0.86582335346E+02  0.90833140175E+02  0.00000000000E+00 0.  1.
         -1    1    1    2    0  502 -0.19828496015E+02 -0.18999718571E+02  0.11572896420E+03  0.11894264044E+03  0.00000000000E+00 0. -1.
<mgrwt>
<rscale>  2 0.27461947E+02</rscale>
<asrwt>0</asrwt>
<pdfrwt beam="1">  1       21 0.31698997E-01 0.27461947E+02</pdfrwt>
<pdfrwt beam="2">  1       21 0.57419101E-03 0.27461947E+02</pdfrwt>
<totfact> 0.64561972E+07</totfact>
</mgrwt>
</event>
<event>
 4    1  0.7616518E+004  0.2280270E+02  0.7546771E-02  0.1694728E+00
         21   -1    0    0  501  502  0.00000000000E+00  0.00000000000E+00  0.34755073181E+03  0.34755073181E+03  0.00000000000E+00 0.  1.
         21   -1    0    0  502  503 -0.00000000000E+00 -0.00000000000E+00 -0.16831582843E+01  0.16831582843E+01  0.00000000000E+00 0.  1.
          3    1    1    2  501    0  0.13010461348E+02  0.18726747735E+02  0.23114910969E+03  0.23227112196E+03  0.00000000000E+00 0.  1.
         -3    1    1    2    0  503 -0.13010461348E+02 -0.18726747735E+02  0.11471846383E+03  0.11696276813E+03  0.00000000000E+00 0. -1.
<mgrwt>
<rscale>  2 0.22802701E+02</rscale>
<asrwt>0</asrwt>
<pdfrwt beam="1">  1       21 0.53469286E-01 0.22802701E+02</pdfrwt>
<pdfrwt beam="2">  1       21 0.25894770E-03 0.22802701E+02</pdfrwt>
<totfact> 0.73747091E+07</totfact>
</mgrwt>
</event>
<event>
 4    1  0.7616518E+004  0.4591403E+02  0.7546771E-02  0.1468715E+00
         21   -1    0    0  503  502  0.00000000000E+00  0.00000000000E+00  0.18452684846E+01  0.18452684846E+01  0.00000000000E+00 0. -1.
         21   -1    0    0  501  503 -0.00000000000E+00 -0.00000000000E+00 -0.11859350837E+04  0.11859350837E+04  0.00000000000E+00 0. -1.
          3    1    1    2  501    0  0.93756764817E+01  0.44946574587E+02 -0.70578788245E+03  0.70727974161E+03  0.00000000000E+00 0.  1.
         -3    1    1    2    0  502 -0.93756764817E+01 -0.44946574587E+02 -0.47830193272E+03  0.48050061053E+03  0.00000000000E+00 0. -1.
<mgrwt>
<rscale>  2 0.45914027E+02</rscale>
<asrwt>0</asrwt>
<pdfrwt beam="1">  1       21 0.28388680E-03 0.45914027E+02</pdfrwt>
<pdfrwt beam="2">  1       21 0.18245197E+00 0.45914027E+02</pdfrwt>
<totfact> 0.45964200E+06</totfact>
</mgrwt>
</event>
<event>
 4    1  0.7616518E+004  0.2353759E+02  0.7546771E-02  0.1682941E+00
         21   -1    0    0  503  502  0.00000000000E+00  0.00000000000E+00  0.64453914815E+02  0.64453914815E+02  0.00000000000E+00 0.  1.
         21   -1    0    0  501  503 -0.00000000000E+00 -0.00000000000E+00 -0.91479292622E+01  0.91479292622E+01  0.00000000000E+00 0.  1.
          4    1    1    2  501    0  0.20889428954E+02  0.10846659869E+02  0.36695883719E+02  0.43595941947E+02  0.00000000000E+00 0.  1.
         -4    1    1    2    0  502 -0.20889428954E+02 -0.10846659869E+02  0.18610101834E+02  0.30005902130E+02  0.00000000000E+00 0. -1.
<mgrwt>
<rscale>  2 0.23537593E+02</rscale>
<asrwt>0</asrwt>
<pdfrwt beam="1">  1       21 0.99159866E-02 0.23537593E+02</pdfrwt>
<pdfrwt beam="2">  1       21 0.14073738E-02 0.23537593E+02</pdfrwt>
<totfact> 0.12166682E+08</totfact>
</mgrwt>
</event>
<event>
 4    1  0.7616518E+004  0.4969640E+02  0.7546771E-02  0.1446986E+00
         21   -1    0    0  501  502  0.00000000000E+00  0.00000000000E+00  0.14033277031E+02  0.14033277031E+02  0.00000000000E+00 0.  1.
         21   -1    0    0  502  503 -0.00000000000E+00 -0.00000000000E+00 -0.17682378153E+03  0.17682378153E+03  0.00000000000E+00 0.  1.
          2    1    1    2  501    0  0.46178030941E+02  0.18366308701E+02 -0.74846662036E+02  0.89842944380E+02  0.00000000000E+00 0. -1.
         -2    1    1    2    0  503 -0.46178030941E+02 -0.18366308701E+02 -0.87943842465E+02  0.10101411418E+03  0.00000000000E+00 0.  1.
<mgrwt>
<rscale>  2 0.49696397E+02</rscale>
<asrwt>0</asrwt>
<pdfrwt beam="1">  1       21 0.21589655E-02 0.49696397E+02</pdfrwt>
<pdfrwt beam="2">  1       21 0.27203661E-01 0.49696397E+02</pdfrwt>
<totfact> 0.12488017E+07</totfact>
</mgrwt>
</event>
<event>
 4    1  0.7616518E+004  0.2002471E+02  0.7546771E-02  0.1744837E+00
         21   -1    0    0  501  502  0.00000000000E+00  0.00000000000E+00  0.11013106418E+03  0.11013106418E+03  0.00000000000E+00 0.  1.
         21   -1    0    0  502  503 -0.00000000000E+00 -0.00000000000E+00 -0.37145633411E+01  0.37145633411E+01  0.00000000000E+00 0.  1.
          3    1    1    2  501    0 -0.75838453544E+01  0.18533056506E+02  0.61217981212E+02  0.64409860406E+02  0.00000000000E+00 0.  1.
         -3    1    1    2    0  503  0.75838453544E+01 -0.18533056506E+02  0.45198519628E+02  0.49435767116E+02  0.00000000000E+00 0. -1.
<mgrwt>
<rscale>  2 0.20024707E+02</rscale>
<asrwt>0</asrwt>
<pdfrwt beam="1">  1       21 0.16943238E-01 0.20024707E+02</pdfrwt>
<pdfrwt beam="2">  1       21 0.57147137E-03 0.20024707E+02</pdfrwt>
<totfact> 0.18116629E+08</totfact>
</mgrwt>
</event>
<event>
 4    1  0.7616518E+004  0.2109382E+02  0.7546771E-02  0.1724412E+00
         21   -1    0    0  503  502  0.00000000000E+00  0.00000000000E+00  0.14636716488E+03  0.14636716488E+03  0.00000000000E+00 0.  1.
         21   -1    0    0  501  503 -0.00000000000E+00 -0.00000000000E+00 -0.31851618684E+01  0.31851618684E+01  0.00000000000E+00 0.  1.
          2    1    1    2  501    0 -0.20935262353E+02  0.25814522041E+01  0.87556997090E+02  0.90062072176E+02  0.00000000000E+00 0. -1.
         -2    1    1    2    0  502  0.20935262353E+02 -0.25814522041E+01  0.55625005920E+02  0.59490254570E+02  0.00000000000E+00 0.  1.
<mgrwt>
<rscale>  2 0.21093817E+02</rscale>
<asrwt>0</asrwt>
<pdfrwt beam="1">  1       21 0.22518020E-01 0.21093817E+02</pdfrwt>
<pdfrwt beam="2">  1       21 0.49002502E-03 0.21093817E+02</pdfrwt>
<totfact> 0.14097685E+08</totfact>
</mgrwt>
</event>
<event>
 4    1  0.7616518E+004  0.3076683E+02  0.7546771E-02  0.1589764E+00
         21   -1    0    0  503  502  0.00000000000E+00  0.00000000000E+00  0.13683435073E+03  0.13683435073E+03  0.00000000000E+00 0.  1.
         21   -1    0    0  501  503 -0.00000000000E+00 -0.00000000000E+00 -0.70424595855E+01  0.70424595855E+01  0.00000000000E+00 0.  1.
          5    1    1    2  501    0  0.94647825069E+00  0.30752269372E+02  0.74465572067E+02  0.80571206494E+02  0.00000000000E+00 0.  1.
         -5    1    1    2    0  502 -0.94647825069E+00 -0.30752269372E+02  0.55326319077E+02  0.63305603822E+02  0.00000000000E+00 0. -1.
<mgrwt>
<rscale>  2 0.30766831E+02</rscale>
<asrwt>0</asrwt>
<pdfrwt beam="1">  1       21 0.21051437E-01 0.30766831E+02</pdfrwt>
<pdfrwt beam="2">  1       21 0.10834554E-02 0.30766831E+02</pdfrwt>
<totfact> 0.53390559E+07</totfact>
</mgrwt>
</event>
<event>
 4    1  0.7616518E+004  0.2357866E+02  0.7546771E-02  0.1682298E+00
         21   -1    0    0  503  502  0.00000000000E+00  0.00000000000E+00  0.20302121528E+03  0.20302121528E+03  0.00000000000E+00 0. -1.
         21   -1    0    0  501  503 -0.00000000000E+00 -0.00000000000E+00 -0.32093172645E+01  0.32093172645E+01  0.00000000000E+00 0. -1.
          4    1    1    2  501    0 -0.19833704074E+02 -0.12750576265E+02  0.60406631505E+02  0.64845309330E+02  0.00000000000E+00 0.  1.
         -4    1    1    2    0  502  0.19833704074E+02  0.12750576265E+02  0.13940526651E+03  0.14138522321E+03  0.00000000000E+00 0. -1.
<mgrwt>
<rscale>  2 0.23578656E+02</rscale>
<asrwt>0</asrwt>
<pdfrwt beam="1">  1       21 0.31234023E-01 0.23578656E+02</pdfrwt>
<pdfrwt beam="2">  1       21 0.49374128E-03 0.23578656E+02</pdfrwt>
<totfact> 0.79981031E+07</totfact>
</mgrwt>
</event>
<event>
 4    1  0.7616518E+004  0.2498761E+02  0.7546771E-02  0.1661180E+00
         21   -1    0    0  503  502  0.00000000000E+00  0.00000000000E+00  0.60624685734E+02  0.60624685734E+02  0.00000000000E+00 0. -1.
         21   -1    0    0  501  503 -0.00000000000E+00 -0.00000000000E+00 -0.10861723644E+02  0.10861723644E+02  0.00000000000E+00 0. -1.
          3    1    1    2  501    0  0.93002794925E+01 -0.23192359134E+02  0.16746686104E+02  0.30080429124E+02  0.00000000000E+00 0.  1.
         -3    1    1    2    0  502 -0.93002794925E+01  0.23192359134E+02  0.33016275986E+02  0.41405980254E+02  0.00000000000E+00 0. -1.
<mgrwt>
<rscale>  2 0.24987611E+02</rscale>
<asrwt>0</asrwt>
<pdfrwt beam="1">  1       21 0.93268745E-02 0.24987611E+02</pdfrwt>
<pdfrwt beam="2">  1       21 0.16710345E-02 0.24987611E+02</pdfrwt>
<totfact> 0.10538390E+08</totfact>
</mgrwt>
</event>
<event>
 4    1  0.7616518E+004  0.2286486E+02  0.7546771E-02  0.1693710E+00
         21   -1    0    0  503  502  0.00000000000E+00  0.00000000000E+00  0.32750615750E+02  0.32750615750E+02  0.00000000000E+00 0.  1.
         21   -1    0    0  501  503 -0.00000000000E+00 -0.00000000000E+00 -0.17369151987E+02  0.17369151987E+02  0.00000000000E+00 0.  1.
          1    1    1    2  501    0 -0.11733824769E+02 -0.19624459254E+02  0.56077046208E+00  0.22871740385E+02  0.00000000000E+00 0. -1.
         -1    1    1    2    0  502  0.11733824769E+02  0.19624459254E+02  0.14820693300E+02  0.27248027353E+02  0.00000000000E+00 0.  1.
<mgrwt>
<rscale>  2 0.22864865E+02</rscale>
<asrwt>0</asrwt>
<pdfrwt beam="1">  1       21 0.50385563E-02 0.22864865E+02</pdfrwt>
<pdfrwt beam="2">  1       21 0.26721772E-02 0.22864865E+02</pdfrwt>
<totfact> 0.13528747E+08</totfact>
</mgrwt>
</event>
<event>
 4    1  0.7616518E+004  0.2864944E+02  0.7546771E-02  0.1613516E+00
         21   -1    0    0  503  502  0.00000000000E+00  0.00000000000E+00  0.24986406538E+02  0.24986406538E+02  0.00000000000E+00 0.  1.
         21   -1    0    0  501  503 -0.00000000000E+00 -0.00000000000E+00 -0.37246810939E+02  0.37246810939E+02  0.00000000000E+00 0.  1.
          2    1    1    2  501    0  0.11635778381E+02 -0.26180129415E+02 -0.16821789416E+02  0.33222930543E+02  0.00000000000E+00 0. -1.
         -2    1    1    2    0  502 -0.11635778381E+02  0.26180129415E+02  0.45613850152E+01  0.29010286934E+02  0.00000000000E+00 0.  1.
<mgrwt>
<rscale>  2 0.28649442E+02</rscale>
<asrwt>0</asrwt>
<pdfrwt beam="1">  1       21 0.38440625E-02 0.28649442E+02</pdfrwt>
<pdfrwt beam="2">  1       21 0.57302786E-02 0.28649442E+02</pdfrwt>
<totfact> 0.66119411E+07</totfact>
</mgrwt>
</event>
<event>
 4    1  0.7616518E+004  0.2071695E+02  0.7546771E-02  0.1731435E+00
         21   -1    0    0  501  502  0.00000000000E+00  0.00000000000E+00  0.42187353202E+01  0.42187353202E+01  0.00000000000E+00 0. -1.
         21   -1    0    0  502  503 -0.00000000000E+00 -0.00000000000E+00 -0.10409324164E+03  0.10409324164E+03  0.00000000000E+00 0. -1.
          5    1    1    2  501    0 -0.80177141801E+01  0.19102568687E+02 -0.58089077931E+02  0.61672788538E+02  0.00000000000E+00 0. -1.
         -5    1    1    2    0  503  0.80177141801E+01 -0.19102568687E+02 -0.41785428389E+02  0.46639188423E+02  0.00000000000E+00 0.  1.
<mgrwt>
<rscale>  2 0.20716946E+02</rscale>
<asrwt>0</asrwt>
<pdfrwt beam="1">  1       21 0.64903627E-03 0.20716946E+02</pdfrwt>
<pdfrwt beam="2">  1       21 0.16014343E-01 0.20716946E+02</pdfrwt>
<totfact> 0.16707206E+08</totfact>
</mgrwt>
</event>
<event>
 4    1  0.7616518E+004  0.2507960E+02  0.7546771E-02  0.1659861E+00
         21   -1    0    0  501  502  0.00000000000E+00  0.00000000000E+00  0.65090710385E+03  0.65090710385E+03  0.00000000000E+00 0.  1.
         21   -1    0    0  502  503 -0.00000000000E+00 -0.00000000000E+00 -0.96990685426E+00  0.96990685426E+00  0.00000000000E+00 0.  1.
          2    1    1    2  501    0  0.19899978909E+02 -0.15263597720E+02  0.34478109719E+03  0.34569204728E+03  0.00000000000E+00 0.  1.
         -2    1    1    2    0  503 -0.19899978909E+02  0.15263597720E+02  0.30515609980E+03  0.30618496342E+03  0.00000000000E+00 0. -1.
<mgrwt>
<rscale>  2 0.25079605E+02</rscale>
<asrwt>0</asrwt>
<pdfrwt beam="1">  1       21 0.10013921E+00 0.25079605E+02</pdfrwt>
<pdfrwt beam="2">  1       21 0.14921696E-03 0.25079605E+02</pdfrwt>
<totfact> 0.45546192E+07</totfact>
</mgrwt>
</event>
<event>
 4    1  0.7616518E+004  0.2889991E+02  0.7546771E-02  0.1610577E+00
         21   -1    0    0  501  502  0.00000000000E+00  0.00000000000E+00  0.23605213724E+02  0.23605213724E+02  0.00000000000E+00 0. -1.
         21   -1    0    0  502  503 -0.00000000000E+00 -0.00000000000E+00 -0.42623005542E+02  0.42623005542E+02  0.00000000000E+00 0. -1.
          3    1    1    2  501    0  0.10146875808E+01  0.28882095210E+02 -0.23157357424E+02  0.37033339270E+02  0.00000000000E+00 0. -1.
         -3    1    1    2    0  503 -0.10146875808E+01 -0.28882095210E+02  0.41395656063E+01  0.29194879996E+02  0.00000000000E+00 0.  1.
<mgrwt>
<rscale>  2 0.28899914E+02</rscale>
<asrwt>0</asrwt>
<pdfrwt beam="1">  1       21 0.36315713E-02 0.28899914E+02</pdfrwt>
<pdfrwt beam="2">  1       21 0.65573855E-02 0.28899914E+02</pdfrwt>
<totfact> 0.58262081E+07</totfact>
</mgrwt>
</event>
<event>
 4    1  0.7616518E+004  0.3163497E+02  0.7546771E-02  0.1580689E+00
         21   -1    0    0  501  502  0.00000000000E+00  0.00000000000E+00  0.46750713361E+01  0.46750713361E+01  0.00000000000E+00 0.  1.
         21   -1    0    0  502  503 -0.00000000000E+00 -0.00000000000E+00 -0.22147595513E+03  0.22147595513E+03  0.00000000000E+00 0.  1.
          4    1    1    2  501    0 -0.31634898108E+02 -0.67281945285E-01 -0.12908417057E+03  0.13290407968E+03  0.00000000000E+00 0.  1.
         -4    1    1    2    0  503  0.31634898108E+02  0.67281945285E-01 -0.87716713222E+02  0.93246946780E+02  0.00000000000E+00 0. -1.
<mgrwt>
<rscale>  2 0.31634970E+02</rscale>
<asrwt>0</asrwt>
<pdfrwt beam="1">  1       21 0.71924171E-03 0.31634970E+02</pdfrwt>
<pdfrwt beam="2">  1       21 0.34073225E-01 0.31634970E+02</pdfrwt>
<totfact> 0.41529596E+07</totfact>
</mgrwt>
</event>
<event>
 4    1  0.7616518E+004  0.2934487E+02  0.7546771E-02  0.1605445E+00
         21   -1    0    0  503  502  0.00000000000E+00  0.00000000000E+00  0.67034340564E+00  0.67034340564E+00  0.00000000000E+00 0. -1.
         21   -1    0    0  501  503 -0.00000000000E+00 -0.00000000000E+00 -0.13002489725E+04  0.13002489725E+04  0.00000000000E+00 0. -1.
          2    1    1    2  501    0  0.38609645516E+01 -0.29089758752E+02 -0.57842321135E+03  0.57916710243E+03  0.00000000000E+00 0. -1.
         -2    1    1    2    0  502 -0.38609645516E+01  0.29089758752E+02 -0.72115541778E+03  0.72175221351E+03  0.00000000000E+00 0.  1.
<mgrwt>
<rscale>  2 0.29344865E+02</rscale>
<asrwt>0</asrwt>
<pdfrwt beam="1">  1       21 0.10312938E-03 0.29344865E+02</pdfrwt>
<pdfrwt beam="2">  1       21 0.20003902E+00 0.29344865E+02</pdfrwt>
<totfact> 0.15301866E+07</totfact>
</mgrwt>
</event>
<event>
 4    1  0.7616518E+004  0.2778609E+02  0.7546771E-02  0.1623934E+00
         21   -1    0    0  503  502  0.00000000000E+00  0.00000000000E+00  0.10448643823E+02  0.10448643823E+02  0.00000000000E+00 0. -1.
         21   -1    0    0  501  503 -0.00000000000E+00 -0.00000000000E+00 -0.75816061588E+02  0.75816061588E+02  0.00000000000E+00 0. -1.
          5    1    1    2  501    0 -0.27719520200E+02 -0.19222164870E+01 -0.25811753492E+02  0.37925101644E+02  0.00000000000E+00 0. -1.
         -5    1    1    2    0  502  0.27719520200E+02  0.19222164870E+01 -0.39555664272E+02  0.48339603767E+02  0.00000000000E+00 0.  1.
<mgrwt>
<rscale>  2 0.27786089E+02</rscale>
<asrwt>0</asrwt>
<pdfrwt beam="1">  1       21 0.16074837E-02 0.27786089E+02</pdfrwt>
<pdfrwt beam="2">  1       21 0.11664010E-01 0.27786089E+02</pdfrwt>
<totfact> 0.79145914E+07</totfact>
</mgrwt>
</event>
<event>
 4    1  0.7616518E+004  0.2034962E+02  0.7546771E-02  0.1738463E+00
         21   -1    0    0  501  502  0.00000000000E+00  0.00000000000E+00  0.52422952306E+02  0.52422952306E+02  0.00000000000E+00 0. -1.
         21   -1    0    0  502  503 -0.00000000000E+00 -0.00000000000E+00 -0.10321856865E+02  0.10321856865E+02  0.00000000000E+00 0. -1.
          4    1    1    2  501    0 -0.45940674137E+01 -0.19824271078E+02  0.58520200881E+01  0.21174355204E+02  0.00000000000E+00 0.  1.
         -4    1    1    2    0  503  0.45940674137E+01  0.19824271078E+02  0.36249075353E+02  0.41570453968E+02  0.00000000000E+00 0. -1.
<mgrwt>
<rscale>  2 0.20349624E+02</rscale>
<asrwt>0</asrwt>
<pdfrwt beam="1">  1       21 0.80650694E-02 0.20349624E+02</pdfrwt>
<pdfrwt beam="2">  1       21 0.15879780E-02 0.20349624E+02</pdfrwt>
<totfact> 0.13610054E+08</totfact>
</mgrwt>
</event>
<event>
 4    1  0.7616518E+004  0.2329201E+02  0.7546771E-02  0.1686820E+00
         21   -1    0    0  501  502  0.00000000000E+00  0.00000000000E+00  0.28401034214E+02  0.28401034214E+02  0.00000000000E+00 0.  1.
         21   -1    0    0  502  503 -0.00000000000E+00 -0.00000000000E+00 -0.31504503990E+02  0.31504503990E+02  0.00000000000E+00 0.  1.
          3    1    1    2  501    0 -0.93991857887E+00  0.23273040556E+02  0.17241629599E+02  0.28979158975E+02  0.00000000000E+00 0. -1.
         -3    1    1    2    0  503  0.93991857887E+00 -0.23273040556E+02 -0.20345099376E+02  0.30926379229E+02  0.00000000000E+00 0.  1.
<mgrwt>
<rscale>  2 0.23292013E+02</rscale>
<asrwt>0</asrwt>
<pdfrwt beam="1">  1       21 0.43693899E-02 0.23292013E+02</pdfrwt>
<pdfrwt beam="2">  1       21 0.48468468E-02 0.23292013E+02</pdfrwt>
<totfact> 0.66984804E+07</totfact>
</mgrwt>
</event>
<event>
 4    1  0.7616518E+004  0.3279759E+02  0.7546771E-02  0.1569076E+00
         21   -1    0    0  503  502  0.00000000000E+00  0.00000000000E+00  0.98541031419E+03  0.98541031419E+03  0.00000000000E+00 0. -1.
         21   -1    0    0  501  503 -0.00000000000E+00 -0.00000000000E+00 -0.15434003196E+01  0.15434003196E+01  0.00000000000E+00 0. -1.
          4    1    1    2  501    0 -0.29016853744E+02  0.15287385066E+02  0.75892459134E+03  0.75963294905E+03  0.00000000000E+00 0.  1.
         -4    1    1    2    0  502  0.29016853744E+02 -0.15287385066E+02  0.22494232253E+03  0.22732076546E+03  0.00000000000E+00 0. -1.
<mgrwt>
<rscale>  2 0.32797591E+02</rscale>
<asrwt>0</asrwt>
<pdfrwt beam="1">  1       21 0.15160108E+00 0.32797591E+02</pdfrwt>
<pdfrwt beam="2">  1       21 0.23744699E-03 0.32797591E+02</pdfrwt>
<totfact> 0.92978464E+06</totfact>
</mgrwt>
</event>
<event>
 4    1  0.7616518E+004  0.2187490E+02  0.7546771E-02  0.1710425E+00
         21   -1    0    0  501  502  0.00000000000E+00  0.00000000000E+00  0.65120857453E+01  0.65120857453E+01  0.00000000000E+00 0. -1.
         21   -1    0    0  502  503 -0.00000000000E+00 -0.00000000000E+00 -0.75717191275E+02  0.75717191275E+02  0.00000000000E+00 0. -1.
          2    1    1    2  501    0 -0.81763508934E+01 -0.20289367608E+02 -0.27536047187E+02  0.35167386121E+02  0.00000000000E+00 0.  1.
         -2    1    1    2    0  503  0.81763508934E+01  0.20289367608E+02 -0.41669058342E+02  0.47061890899E+02  0.00000000000E+00 0. -1.
<mgrwt>
<rscale>  2 0.21874898E+02</rscale>
<asrwt>0</asrwt>
<pdfrwt beam="1">  1       21 0.10018593E-02 0.21874898E+02</pdfrwt>
<pdfrwt beam="2">  1       21 0.11648799E-01 0.21874898E+02</pdfrwt>
<totfact> 0.15214173E+08</totfact>
</mgrwt>
</event>
<event>
 4    1  0.7616518E+004  0.2062798E+02  0.7546771E-02  0.1733121E+00
         21   -1    0    0  503  502  0.00000000000E+00  0.00000000000E+00  0.56324898921E+02  0.56324898921E+02  0.00000000000E+00 0.  1.
         21   -1    0    0  501  503 -0.00000000000E+00 -0.00000000000E+00 -0.81093647642E+01  0.81093647642E+01  0.00000000000E+00 0.  1.
          3    1    1    2  501    0  0.10528288944E+02 -0.17738897677E+02  0.15681426410E+02  0.25911782901E+02  0.00000000000E+00 0. -1.
         -3    1    1    2    0  502 -0.10528288944E+02  0.17738897677E+02  0.32534107747E+02  0.38522480784E+02  0.00000000000E+00 0.  1.
<mgrwt>
<rscale>  2 0.20627975E+02</rscale>
<asrwt>0</asrwt>
<pdfrwt beam="1">  1       21 0.86653688E-02 0.20627975E+02</pdfrwt>
<pdfrwt beam="2">  1       21 0.12475946E-02 0.20627975E+02</pdfrwt>
<totfact> 0.17506473E+08</totfact>
</mgrwt>
</event>
<event>
 4    1  0.7616518E+004  0.2636082E+02  0.7546771E-02  0.1642192E+00
         21   -1    0    0  503  502  0.00000000000E+00  0.00000000000E+00  0.77351668443E+02  0.77351668443E+02  0.00000000000E+00 0.  1.
         21   -1    0    0  501  503 -0.00000000000E+00 -0.00000000000E+00 -0.10772991558E+02  0.10772991558E+02  0.00000000000E+00 0.  1.
          3    1    1    2  501    0  0.48553188934E+01 -0.25909820249E+02  0.51247321082E+02  0.57629687011E+02  0.00000000000E+00 0.  1.
         -3    1    1    2    0  502 -0.48553188934E+01  0.25909820249E+02  0.15331355803E+02  0.30494972990E+02  0.00000000000E+00 0. -1.
<mgrwt>
<rscale>  2 0.26360821E+02</rscale>
<asrwt>0</asrwt>
<pdfrwt beam="1">  1       21 0.11900256E-01 0.26360821E+02</pdfrwt>
<pdfrwt beam="2">  1       21 0.16573834E-02 0.26360821E+02</pdfrwt>
<totfact> 0.72068180E+07</totfact>
</mgrwt>
</event>
<event>
 4    1  0.7616518E+004  0.2575832E+02  0.7546771E-02  0.1650343E+00
         21   -1    0    0  501  502  0.00000000000E+00  0.00000000000E+00  0.87352163781E+02  0.87352163781E+02  0.00000000000E+00 0.  1.
         21   -1    0    0  502  503 -0.00000000000E+00 -0.00000000000E+00 -0.10062727838E+02  0.10062727838E+02  0.00000000000E+00 0.  1.
          5    1    1    2  501    0 -0.30489843291E-01  0.25758303562E+02  0.62762329196E+02  0.67842472672E+02  0.00000000000E+00 0.  1.
         -5    1    1    2    0  503  0.30489843291E-01 -0.25758303562E+02  0.14527106747E+02  0.29572418948E+02  0.00000000000E+00 0. -1.
<mgrwt>
<rscale>  2 0.25758322E+02</rscale>
<asrwt>0</asrwt>
<pdfrwt beam="1">  1       21 0.13438794E-01 0.25758322E+02</pdfrwt>
<pdfrwt beam="2">  1       21 0.15481120E-02 0.25758322E+02</pdfrwt>
<totfact> 0.64772183E+07</totfact>
</mgrwt>
</event>
<event>
 4    1  0.7616518E+004  0.2161918E+02  0.7546771E-02  0.1714923E+00
         21   -1    0    0  501  502  0.00000000000E+00  0.00000000000E+00  0.47178211410E+02  0.47178211410E+02  0.00000000000E+00 0. -1.
         21   -1    0    0  502  503 -0.00000000000E+00 -0.00000000000E+00 -0.10160932983E+02  0.10160932983E+02  0.00000000000E+00 0. -1.
          3    1    1    2  501    0 -0.28954356171E+01 -0.21424410529E+02  0.23041954621E+02  0.31596211588E+02  0.00000000000E+00 0.  1.
         -3    1    1    2    0  503  0.28954356171E+01  0.21424410529E+02  0.13975323806E+02  0.25742932805E+02  0.00000000000E+00 0. -1.
<mgrwt>
<rscale>  2 0.21619179E+02</rscale>
<asrwt>0</asrwt>
<pdfrwt beam="1">  1       21 0.72581863E-02 0.21619179E+02</pdfrwt>
<pdfrwt beam="2">  1       21 0.15632205E-02 0.21619179E+02</pdfrwt>
<totfact> 0.16847398E+08</totfact>
</mgrwt>
</event>
<event>
 4    1  0.7616518E+004  0.2301989E+02  0.7546771E-02  0.1691188E+00
         21   -1    0    0  501  502  0.00000000000E+00  0.00000000000E+00  0.47087119773E+03  0.47087119773E+03  0.00000000000E+00 0.  1.
         21   -1    0    0  502  503 -0.00000000000E+00 -0.00000000000E+00 -0.11404099295E+01  0.11404099295E+01  0.00000000000E+00 0.  1.
          2    1    1    2  501    0 -0.11593369907E+02 -0.19887413293E+02  0.20778381042E+03  0.20905508199E+03  0.00000000000E+00 0.  1.
         -2    1    1    2    0  503  0.11593369907E+02  0.19887413293E+02  0.26194697738E+03  0.26295652567E+03  0.00000000000E+00 0. -1.
<mgrwt>
<rscale>  2 0.23019892E+02</rscale>
<asrwt>0</asrwt>
<pdfrwt beam="1">  1       21 0.72441568E-01 0.23019892E+02</pdfrwt>
<pdfrwt beam="2">  1       21 0.17544806E-03 0.23019892E+02</pdfrwt>
<totfact> 0.70459626E+07</totfact>
</mgrwt>
</event>
<event>
 4    1  0.7616518E+004  0.2542562E+02  0.7546771E-02  0.1654963E+00
         21   -1    0    0  501  502  0.00000000000E+00  0.00000000000E+00  0.12498547406E+02  0.12498547406E+02  0.00000000000E+00 0. -1.
         21   -1    0    0  502  503 -0.00000000000E+00 -0.00000000000E+00 -0.52586235259E+02  0.52586235259E+02  0.00000000000E+00 0. -1.
          2    1    1    2  501    0 -0.48925462253E+01 -0.24950456546E+02 -0.15874386343E+02  0.29974296192E+02  0.00000000000E+00 0.  1.
         -2    1    1    2    0  503  0.48925462253E+01  0.24950456546E+02 -0.24213301509E+02  0.35110486473E+02  0.00000000000E+00 0. -1.
<mgrwt>
<rscale>  2 0.25425623E+02</rscale>
<asrwt>0</asrwt>
<pdfrwt beam="1">  1       21 0.19228534E-02 0.25425623E+02</pdfrwt>
<pdfrwt beam="2">  1       21 0.80901901E-02 0.25425623E+02</pdfrwt>
<totfact> 0.10788251E+08</totfact>
</mgrwt>
</event>
<event>
 4    1  0.7616518E+004  0.2012614E+02  0.7546771E-02  0.1742831E+00
         21   -1    0    0  501  502  0.00000000000E+00  0.00000000000E+00  0.23598791959E+02  0.23598791959E+02  0.00000000000E+00 0.  1.
         21   -1    0    0  502  503 -0.00000000000E+00 -0.00000000000E+00 -0.18990748931E+02  0.18990748931E+02  0.00000000000E+00 0.  1.
          4    1    1    2  501    0  0.17055181306E+02  0.10685620567E+02  0.89076211756E+01  0.22009257400E+02  0.00000000000E+00 0.  1.
         -4    1    1    2    0  503 -0.17055181306E+02 -0.10685620567E+02 -0.42995781469E+01  0.20580283490E+02  0.00000000000E+00 0. -1.
<mgrwt>
<rscale>  2 0.20126145E+02</rscale>
<asrwt>0</asrwt>
<pdfrwt beam="1">  1       21 0.36305834E-02 0.20126145E+02</pdfrwt>
<pdfrwt beam="2">  1       21 0.29216537E-02 0.20126145E+02</pdfrwt>
<totfact> 0.18978866E+08</totfact>
</mgrwt>
</event>
<event>
 4    1  0.7616518E+004  0.3623948E+02  0.7546771E-02  0.1537861E+00
         21   -1    0    0  503  502  0.00000000000E+00  0.00000000000E+00  0.11162578934E+02  0.11162578934E+02  0.00000000000E+00 0.  1.
         21   -1    0    0  501  503 -0.00000000000E+00 -0.00000000000E+00 -0.11948292002E+03  0.11948292002E+03  0.00000000000E+00 0.  1.
          1    1    1    2  501    0  0.36014355915E+02 -0.40330922000E+01 -0.46073923693E+02  0.58618308651E+02  0.00000000000E+00 0.  1.
         -1    1    1    2    0  502 -0.36014355915E+02  0.40330922000E+01 -0.62246417397E+02  0.72027190306E+02  0.00000000000E+00 0. -1.
<mgrwt>
<rscale>  2 0.36239477E+02</rscale>
<asrwt>0</asrwt>
<pdfrwt beam="1">  1       21 0.17173198E-02 0.36239477E+02</pdfrwt>
<pdfrwt beam="2">  1       21 0.18381988E-01 0.36239477E+02</pdfrwt>
<totfact> 0.34571153E+07</totfact>
</mgrwt>
</event>
<event>
 4    1  0.7616518E+004  0.2097655E+02  0.7546771E-02  0.1726578E+00
         21   -1    0    0  503  502  0.00000000000E+00  0.00000000000E+00  0.32856444278E+02  0.32856444278E+02  0.00000000000E+00 0. -1.
         21   -1    0    0  501  503 -0.00000000000E+00 -0.00000000000E+00 -0.13522493805E+02  0.13522493805E+02  0.00000000000E+00 0. -1.
          3    1    1    2  501    0  0.19377811019E+02 -0.80321780748E+01  0.11944478159E+02  0.24138889846E+02  0.00000000000E+00 0.  1.
         -3    1    1    2    0  502 -0.19377811019E+02  0.80321780748E+01  0.73894723139E+01  0.22240048237E+02  0.00000000000E+00 0. -1.
<mgrwt>
<rscale>  2 0.20976545E+02</rscale>
<asrwt>0</asrwt>
<pdfrwt beam="1">  1       21 0.50548376E-02 0.20976545E+02</pdfrwt>
<pdfrwt beam="2">  1       21 0.20803837E-02 0.20976545E+02</pdfrwt>
<totfact> 0.19270963E+08</totfact>
</mgrwt>
</event>
<event>
 4    1  0.7616518E+004  0.2032070E+02  0.7546771E-02  0.1739025E+00
         21   -1    0    0  501  502  0.00000000000E+00  0.00000000000E+00  0.38890461831E+03  0.38890461831E+03  0.00000000000E+00 0. -1.
         21   -1    0    0  502  503 -0.00000000000E+00 -0.00000000000E+00 -0.11781572873E+01  0.11781572873E+01  0.00000000000E+00 0. -1.
          3    1    1    2  501    0  0.16819175217E+02  0.11403771419E+02  0.13256307192E+03  0.13411151589E+03  0.00000000000E+00 0. -1.
         -3    1    1    2    0  503 -0.16819175217E+02 -0.11403771419E+02  0.25516338911E+03  0.25597125971E+03  0.00000000000E+00 0.  1.
<mgrwt>
<rscale>  2 0.20320695E+02</rscale>
<asrwt>0</asrwt>
<pdfrwt beam="1">  1       21 0.59831377E-01 0.20320695E+02</pdfrwt>
<pdfrwt beam="2">  1       21 0.18125528E-03 0.20320695E+02</pdfrwt>
<totfact> 0.95947271E+07</totfact>
</mgrwt>
</event>
<event>
 4    1  0.7616518E+004  0.3107375E+02  0.7546771E-02  0.1586514E+00
         21   -1    0    0  503  502  0.00000000000E+00  0.00000000000E+00  0.79519193135E+01  0.79519193135E+01  0.00000000000E+00 0. -1.
         21   -1    0    0  501  503 -0.00000000000E+00 -0.00000000000E+00 -0.12689965625E+03  0.12689965625E+03  0.00000000000E+00 0. -1.
          3    1    1    2  501    0  0.11704681873E+02  0.28785036035E+02 -0.45471740604E+02  0.55075013126E+02  0.00000000000E+00 0. -1.
         -3    1    1    2    0  502 -0.11704681873E+02 -0.28785036035E+02 -0.73475996331E+02  0.79776562436E+02  0.00000000000E+00 0.  1.
<mgrwt>
<rscale>  2 0.31073749E+02</rscale>
<asrwt>0</asrwt>
<pdfrwt beam="1">  1       21 0.12233723E-02 0.31073749E+02</pdfrwt>
<pdfrwt beam="2">  1       21 0.19523023E-01 0.31073749E+02</pdfrwt>
<totfact> 0.50805463E+07</totfact>
</mgrwt>
</event>
<event>
 4    1  0.7616518E+004  0.3669670E+02  0.7546771E-02  0.1534030E+00
         21   -1    0    0  503  502  0.00000000000E+00  0.00000000000E+00  0.57171920297E+01  0.57171920297E+01  0.00000000000E+00 0. -1.
         21   -1    0    0  501  503 -0.00000000000E+00 -0.00000000000E+00 -0.26278033325E+03  0.26278033325E+03  0.00000000000E+00 0. -1.
          4    1    1    2  501    0 -0.22023667356E+02 -0.29353119077E+02 -0.85310847861E+02  0.92868661486E+02  0.00000000000E+00 0.  1.
         -4    1    1    2    0  502  0.22023667356E+02  0.29353119077E+02 -0.17175229336E+03  0.17562886380E+03  0.00000000000E+00 0. -1.
<mgrwt>
<rscale>  2 0.36696696E+02</rscale>
<asrwt>0</asrwt>
<pdfrwt beam="1">  1       21 0.87956775E-03 0.36696696E+02</pdfrwt>
<pdfrwt beam="2">  1       21 0.40427755E-01 0.36696696E+02</pdfrwt>
<totfact> 0.22747450E+07</totfact>
</mgrwt>
</event>
<event>
 4    1  0.7616518E+004  0.2922640E+02  0.7546771E-02  0.1606801E+00
         21   -1    0    0  501  502  0.00000000000E+00  0.00000000000E+00  0.46759362070E+01  0.46759362070E+01  0.00000000000E+00 0. -1.
         21   -1    0    0  502  503 -0.00000000000E+00 -0.00000000000E+00 -0.18760188651E+03  0.18760188651E+03  0.00000000000E+00 0. -1.
          5    1    1    2  501    0  0.16817122427E+02  0.23903283898E+02 -0.10704094545E+03  0.11095921138E+03  0.00000000000E+00 0. -1.
         -5    1    1    2    0  503 -0.16817122427E+02 -0.23903283898E+02 -0.75885004856E+02  0.81318611337E+02  0.00000000000E+00 0.  1.
<mgrwt>
<rscale>  2 0.29226402E+02</rscale>
<asrwt>0</asrwt>
<pdfrwt beam="1">  1       21 0.71937493E-03 0.29226402E+02</pdfrwt>
<pdfrwt beam="2">  1       21 0.28861823E-01 0.29226402E+02</pdfrwt>
<totfact> 0.55534775E+07</totfact>
</mgrwt>
</event>
<event>
 4    1  0.7616518E+004  0.3117148E+02  0.7546771E-02  0.1585489E+00
         21   -1    0    0  503  502  0.00000000000E+00  0.00000000000E+00  0.14987197343E+01  0.14987197343E+01  0.00000000000E+00 0. -1.
         21   -1    0    0  501  503 -0.00000000000E+00 -0.00000000000E+00 -0.65202452329E+03  0.65202452329E+03  0.00000000000E+00 0. -1.
          3    1    1    2  501    0 -0.22398758792E+02  0.21678489414E+02 -0.34986782586E+03  0.35125369304E+03  0.00000000000E+00 0.  1.
         -3    1    1    2    0  502  0.22398758792E+02 -0.21678489414E+02 -0.30065797769E+03  0.30226954998E+03  0.00000000000E+00 0. -1.
<mgrwt>
<rscale>  2 0.31171482E+02</rscale>
<asrwt>0</asrwt>
<pdfrwt beam="1">  1       21 0.23057277E-03 0.31171482E+02</pdfrwt>
<pdfrwt beam="2">  1       21 0.10031125E+00 0.31171482E+02</pdfrwt>
<totfact> 0.25108168E+07</totfact>
</mgrwt>
</event>
<event>
 4    1  0.7616518E+004  0.2388214E+02  0.7546771E-02  0.1677597E+00
         21   -1    0    0  501  502  0.00000000000E+00  0.00000000000E+00  0.14768477768E+03  0.14768477768E+03  0.00000000000E+00 0.  1.
         21   -1    0    0  502  503 -0.00000000000E+00 -0.00000000000E+00 -0.41054766956E+01  0.41054766956E+01  0.00000000000E+00 0.  1.
          2    1    1    2  501    0 -0.21327188329E+02 -0.10747443097E+02  0.53306603125E+02  0.58411903170E+02  0.00000000000E+00 0.  1.
         -2    1    1    2    0  503  0.21327188329E+02  0.10747443097E+02  0.90272697860E+02  0.93378351206E+02  0.00000000000E+00 0. -1.
<mgrwt>
<rscale>  2 0.23882138E+02</rscale>
<asrwt>0</asrwt>
<pdfrwt beam="1">  1       21 0.22720731E-01 0.23882138E+02</pdfrwt>
<pdfrwt beam="2">  1       21 0.63161191E-03 0.23882138E+02</pdfrwt>
<totfact> 0.98767578E+07</totfact>
</mgrwt>
</event>
<event>
 4    1  0.7616518E+004  0.2302328E+02  0.7546771E-02  0.1691133E+00
         21   -1    0    0  501  502  0.00000000000E+00  0.00000000000E+00  0.34380350418E+03  0.34380350418E+03  0.00000000000E+00 0.  1.
         21   -1    0    0  502  503 -0.00000000000E+00 -0.00000000000E+00 -0.24980053483E+01  0.24980053483E+01  0.00000000000E+00 0.  1.
          4    1    1    2  501    0  0.20867856772E+02 -0.97264568604E+01  0.63523889302E+02  0.67567417602E+02  0.00000000000E+00 0. -1.
         -4    1    1    2    0  503 -0.20867856772E+02  0.97264568604E+01  0.27778160953E+03  0.27873409193E+03  0.00000000000E+00 0.  1.
<mgrwt>
<rscale>  2 0.23023280E+02</rscale>
<asrwt>0</asrwt>
<pdfrwt beam="1">  1       21 0.52892809E-01 0.23023280E+02</pdfrwt>
<pdfrwt beam="2">  1       21 0.38430879E-03 0.23023280E+02</pdfrwt>
<totfact> 0.42448877E+07</totfact>
</mgrwt>
</event>
<event>
 4    1  0.7616518E+004  0.2106521E+02  0.7546771E-02  0.1724939E+00
         21   -1    0    0  503  502  0.00000000000E+00  0.00000000000E+00  0.47462007095E+01  0.47462007095E+01  0.00000000000E+00 0.  1.
         21   -1    0    0  501  503 -0.00000000000E+00 -0.00000000000E+00 -0.13898390502E+03  0.13898390502E+03  0.00000000000E+00 0.  1.
          4    1    1    2  501    0  0.18571786014E+02 -0.99414161819E+01 -0.10823300039E+03  0.11026388967E+03  0.00000000000E+00 0.  1.
         -4    1    1    2    0  502 -0.18571786014E+02  0.99414161819E+01 -0.26004703922E+02  0.33466216062E+02  0.00000000000E+00 0. -1.
<mgrwt>
<rscale>  2 0.21065208E+02</rscale>
<asrwt>0</asrwt>
<pdfrwt beam="1">  1       21 0.73018477E-03 0.21065208E+02</pdfrwt>
<pdfrwt beam="2">  1       21 0.21382138E-01 0.21065208E+02</pdfrwt>
<totfact> 0.85614551E+07</totfact>
</mgrwt>
</event>
<event>
 4    1  0.7616518E+004  0.2539509E+02  0.7546771E-02  0.1655391E+00
         21   -1    0    0  501  502  0.00000000000E+00  0.00000000000E+00  0.89932188128E+03  0.89932188128E+03  0.00000000000E+00 0. -1.
         21   -1    0    0  502  503 -0.00000000000E+00 -0.00000000000E+00 -0.71926405913E+00  0.71926405913E+00  0.00000000000E+00 0. -1.
          5    1    1    2  501    0 -0.25393278535E+02  0.30299759701E+00  0.47394331148E+03  0.47462319043E+03  0.00000000000E+00 0.  1.
         -5    1    1    2    0  503  0.25393278535E+02 -0.30299759701E+00  0.42465930574E+03  0.42541795490E+03  0.00000000000E+00 0. -1.
<mgrwt>
<rscale>  2 0.25395086E+02</rscale>
<asrwt>0</asrwt>
<pdfrwt beam="1">  1       21 0.13835631E+00 0.25395086E+02</pdfrwt>
<pdfrwt beam="2">  1       21 0.11065673E-03 0.25395086E+02</pdfrwt>
<totfact> 0.33678685E+07</totfact>
</mgrwt>
</event>
<event>
 4    1  0.7616518E+004  0.2251477E+02  0.7546771E-02  0.1699498E+00
         21   -1    0    0  503  502  0.00000000000E+00  0.00000000000E+00  0.42894939642E+00  0.42894939642E+00  0.00000000000E+00 0.  1.
         21   -1    0    0  501  503 -0.00000000000E+00 -0.00000000000E+00 -0.13178777539E+04  0.13178777539E+04  0.00000000000E+00 0.  1.
          3    1    1    2  501    0 -0.22257278010E+02  0.33953397165E+01 -0.44688434616E+03  0.44745115219E+03  0.00000000000E+00 0.  1.
         -3    1    1    2    0  502  0.22257278010E+02 -0.33953397165E+01 -0.87056445830E+03  0.87085555106E+03  0.00000000000E+00 0. -1.
<mgrwt>
<rscale>  2 0.22514768E+02</rscale>
<asrwt>0</asrwt>
<pdfrwt beam="1">  1       21 0.65992261E-04 0.22514768E+02</pdfrwt>
<pdfrwt beam="2">  1       21 0.20275028E+00 0.22514768E+02</pdfrwt>
<totfact> 0.26976204E+07</totfact>
</mgrwt>
</event>
<event>
 4    1  0.7616518E+004  0.2095101E+02  0.7546771E-02  0.1727052E+00
         21   -1    0    0  503  502  0.00000000000E+00  0.00000000000E+00  0.73987704892E+02  0.73987704892E+02  0.00000000000E+00 0. -1.
         21   -1    0    0  501  503 -0.00000000000E+00 -0.00000000000E+00 -0.61163757419E+01  0.61163757419E+01  0.00000000000E+00 0. -1.
          5    1    1    2  501    0  0.12624856513E+01  0.20912941426E+02  0.26994484541E+02  0.34170852853E+02  0.00000000000E+00 0.  1.
         -5    1    1    2    0  502 -0.12624856513E+01 -0.20912941426E+02  0.40876844610E+02  0.45933227781E+02  0.00000000000E+00 0. -1.
<mgrwt>
<rscale>  2 0.20951014E+02</rscale>
<asrwt>0</asrwt>
<pdfrwt beam="1">  1       21 0.11382723E-01 0.20951014E+02</pdfrwt>
<pdfrwt beam="2">  1       21 0.94098094E-03 0.20951014E+02</pdfrwt>
<totfact> 0.17138728E+08</totfact>
</mgrwt>
</event>
<event>
 4    1  0.7616518E+004  0.3251735E+02  0.7546771E-02  0.1571821E+00
         21   -1    0    0  503  502  0.00000000000E+00  0.00000000000E+00  0.12451449176E+03  0.12451449176E+03  0.00000000000E+00 0.  1.
         21   -1    0    0  501  503 -0.00000000000E+00 -0.00000000000E+00 -0.89444724642E+01  0.89444724642E+01  0.00000000000E+00 0.  1.
          2    1    1    2  501    0  0.30492793152E+02  0.11294571551E+02  0.72793385726E+02  0.79726123612E+02  0.00000000000E+00 0.  1.
         -2    1    1    2    0  502 -0.30492793152E+02 -0.11294571551E+02  0.42776633570E+02  0.53732840612E+02  0.00000000000E+00 0. -1.
<mgrwt>
<rscale>  2 0.32517346E+02</rscale>
<asrwt>0</asrwt>
<pdfrwt beam="1">  1       21 0.19156074E-01 0.32517346E+02</pdfrwt>
<pdfrwt beam="2">  1       21 0.13760728E-02 0.32517346E+02</pdfrwt>
<totfact> 0.44293367E+07</totfact>
</mgrwt>
</event>
<event>
 4    1  0.7616518E+004  0.2141729E+02  0.7546771E-02  0.1718529E+00
         21   -1    0    0  501  502  0.00000000000E+00  0.00000000000E+00  0.19938677405E+02  0.19938677405E+02  0.00000000000E+00 0. -1.
         21   -1    0    0  502  503 -0.00000000000E+00 -0.00000000000E+00 -0.28390426217E+02  0.28390426217E+02  0.00000000000E+00 0. -1.
          2    1    1    2  501    0 -0.21180199718E+02  0.31779638123E+01 -0.14749866197E+02  0.26004977733E+02  0.00000000000E+00 0. -1.
         -2    1    1    2    0  503  0.21180199718E+02 -0.31779638123E+01  0.62981173852E+01  0.22324125888E+02  0.00000000000E+00 0.  1.
<mgrwt>
<rscale>  2 0.21417290E+02</rscale>
<asrwt>0</asrwt>
<pdfrwt beam="1">  1       21 0.30674889E-02 0.21417290E+02</pdfrwt>
<pdfrwt beam="2">  1       21 0.43677578E-02 0.21417290E+02</pdfrwt>
<totfact> 0.13427688E+08</totfact>
</mgrwt>
</event>
<event>
 4    1  0.7616518E+004  0.2046895E+02  0.7546771E-02  0.1736160E+00
         21   -1    0    0  501  502  0.00000000000E+00  0.00000000000E+00  0.28878831146E+02  0.28878831146E+02  0.00000000000E+00 0.  1.
         21   -1    0    0  502  503 -0.00000000000E+00 -0.00000000000E+00 -0.14584191471E+02  0.14584191471E+02  0.00000000000E+00 0.  1.
          5    1    1    2  501    0  0.64951763348E+01  0.19411099052E+02  0.87166229683E+01  0.22247642527E+02  0.00000000000E+00 0. -1.
         -5    1    1    2    0  503 -0.64951763348E+01 -0.19411099052E+02  0.55780167062E+01  0.21215380091E+02  0.00000000000E+00 0.  1.
<mgrwt>
<rscale>  2 0.20468954E+02</rscale>
<asrwt>0</asrwt>
<pdfrwt beam="1">  1       21 0.44428971E-02 0.20468954E+02</pdfrwt>
<pdfrwt beam="2">  1       21 0.22437218E-02 0.20468954E+02</pdfrwt>
<totfact> 0.20883044E+08</totfact>
</mgrwt>
</event>
<event>
 4    1  0.7616518E+004  0.2904597E+02  0.7546771E-02  0.1608880E+00
         21   -1    0    0  501  502  0.00000000000E+00  0.00000000000E+00  0.11048537000E+02  0.11048537000E+02  0.00000000000E+00 0.  1.
         21   -1    0    0  502  503 -0.00000000000E+00 -0.00000000000E+00 -0.76408110018E+02  0.76408110018E+02  0.00000000000E+00 0.  1.
          3    1    1    2  501    0 -0.90721968988E+00  0.29031795094E+02 -0.31584474282E+02  0.42909756345E+02  0.00000000000E+00 0.  1.
         -3    1    1    2    0  503  0.90721968988E+00 -0.29031795094E+02 -0.33775098736E+02  0.44546890672E+02  0.00000000000E+00 0. -1.
<mgrwt>
<rscale>  2 0.29045967E+02</rscale>
<asrwt>0</asrwt>
<pdfrwt beam="1">  1       21 0.16997749E-02 0.29045967E+02</pdfrwt>
<pdfrwt beam="2">  1       21 0.11755094E-01 0.29045967E+02</pdfrwt>
<totfact> 0.72481151E+07</totfact>
</mgrwt>
</event>
<event>
 4    1  0.7616518E+004  0.3499848E+02  0.7546771E-02  0.1548614E+00
         21   -1    0    0  503  502  0.00000000000E+00  0.00000000000E+00  0.70678496983E+03  0.70678496983E+03  0.00000000000E+00 0. -1.
         21   -1    0    0  501  503 -0.00000000000E+00 -0.00000000000E+00 -0.17365449671E+01  0.17365449671E+01  0.00000000000E+00 0. -1.
          2    1    1    2  501    0  0.15519749384E+01 -0.34964051400E+02  0.33663080552E+03  0.33844525812E+03  0.00000000000E+00 0. -1.
         -2    1    1    2    0  502 -0.15519749384E+01  0.34964051400E+02  0.36841761934E+03  0.37007625668E+03  0.00000000000E+00 0.  1.
<mgrwt>
<rscale>  2 0.34998479E+02</rscale>
<asrwt>0</asrwt>
<pdfrwt beam="1">  1       21 0.10873592E+00 0.34998479E+02</pdfrwt>
<pdfrwt beam="2">  1       21 0.26716133E-03 0.34998479E+02</pdfrwt>
<totfact> 0.17168929E+07</totfact>
</mgrwt>
</event>
<event>
 4    1  0.7616518E+004  0.3073017E+02  0.7546771E-02  0.1590155E+00
         21   -1    0    0  503  502  0.00000000000E+00  0.00000000000E+00  0.69915834693E+00  0.69915834693E+00  0.00000000000E+00 0. -1.
         21   -1    0    0  501  503 -0.00000000000E+00 -0.00000000000E+00 -0.13917113321E+04  0.13917113321E+04  0.00000000000E+00 0. -1.
          1    1    1    2  501    0 -0.11928782617E+02  0.28320444098E+02 -0.81503930952E+03  0.81561842762E+03  0.00000000000E+00 0.  1.
         -1    1    1    2    0  502  0.11928782617E+02 -0.28320444098E+02 -0.57597286425E+03  0.57679206284E+03  0.00000000000E+00 0. -1.
<mgrwt>
<rscale>  2 0.30730171E+02</rscale>
<asrwt>0</asrwt>
<pdfrwt beam="1">  1       21 0.10756276E-03 0.30730171E+02</pdfrwt>
<pdfrwt beam="2">  1       21 0.21410956E+00 0.30730171E+02</pdfrwt>
<totfact> 0.12069759E+07</totfact>
</mgrwt>
</event>
<event>
 4    1  0.7616518E+004  0.2054494E+02  0.7546771E-02  0.1734704E+00
         21   -1    0    0  501  502  0.00000000000E+00  0.00000000000E+00  0.36339547011E+03  0.36339547011E+03  0.00000000000E+00 0. -1.
         21   -1    0    0  502  503 -0.00000000000E+00 -0.00000000000E+00 -0.11636872152E+01  0.11636872152E+01  0.00000000000E+00 0. -1.
          4    1    1    2  501    0 -0.20190403385E+02  0.38002726914E+01  0.17326635725E+03  0.17448015651E+03  0.00000000000E+00 0.  1.
         -4    1    1    2    0  503  0.20190403385E+02 -0.38002726914E+01  0.18896542564E+03  0.19007900081E+03  0.00000000000E+00 0. -1.
<mgrwt>
<rscale>  2 0.20544938E+02</rscale>
<asrwt>0</asrwt>
<pdfrwt beam="1">  1       21 0.55906905E-01 0.20544938E+02</pdfrwt>
<pdfrwt beam="2">  1       21 0.17902909E-03 0.20544938E+02</pdfrwt>
<totfact> 0.11201361E+08</totfact>
</mgrwt>
</event>
<event>
 4    1  0.7616518E+004  0.2278018E+02  0.7546771E-02  0.1695098E+00
         21   -1    0    0  503  502  0.00000000000E+00  0.00000000000E+00  0.11600312436E+04  0.11600312436E+04  0.00000000000E+00 0. -1.
         21   -1    0    0  501  503 -0.00000000000E+00 -0.00000000000E+00 -0.76228506858E+00  0.76228506858E+00  0.00000000000E+00 0. -1.
          3    1    1    2  501    0  0.22756492692E+02 -0.10386811279E+01  0.20657449724E+03  0.20782675412E+03  0.00000000000E+00 0. -1.
         -3    1    1    2    0  502 -0.22756492692E+02  0.10386811279E+01  0.95269446133E+03  0.95296677459E+03  0.00000000000E+00 0.  1.
<mgrwt>
<rscale>  2 0.22780185E+02</rscale>
<asrwt>0</asrwt>
<pdfrwt beam="1">  1       21 0.17846493E+00 0.22780185E+02</pdfrwt>
<pdfrwt beam="2">  1       21 0.11727555E-03 0.22780185E+02</pdfrwt>
<totfact> 0.16496274E+07</totfact>
</mgrwt>
</event>
<event>
 4    1  0.7616518E+004  0.4471750E+02  0.7546771E-02  0.1476113E+00
         21   -1    0    0  503  502  0.00000000000E+00  0.00000000000E+00  0.79359942257E+03  0.79359942257E+03  0.00000000000E+00 0.  1.
         21   -1    0    0  501  503 -0.00000000000E+00 -0.00000000000E+00 -0.27982560437E+01  0.27982560437E+01  0.00000000000E+00 0.  1.
          1    1    1    2  501    0 -0.44016011921E+02 -0.78895838012E+01  0.26977138752E+03  0.27345247551E+03  0.00000000000E+00 0. -1.
         -1    1    1    2    0  502  0.44016011921E+02  0.78895838012E+01  0.52102977900E+03  0.52294520310E+03  0.00000000000E+00 0.  1.
<mgrwt>
<rscale>  2 0.44717500E+02</rscale>
<asrwt>0</asrwt>
<pdfrwt beam="1">  1       21 0.12209204E+00 0.44717500E+02</pdfrwt>
<pdfrwt beam="2">  1       21 0.43050156E-03 0.44717500E+02</pdfrwt>
<totfact> 0.66480318E+06</totfact>
</mgrwt>
</event>
<event>
 4    1  0.7616518E+004  0.2818572E+02  0.7546771E-02  0.1619055E+00
         21   -1    0    0  503  502  0.00000000000E+00  0.00000000000E+00  0.10619975438E+01  0.10619975438E+01  0.00000000000E+00 0. -1.
         21   -1    0    0  501  503 -0.00000000000E+00 -0.00000000000E+00 -0.78101206066E+03  0.78101206066E+03  0.00000000000E+00 0. -1.
          1    1    1    2  501    0 -0.27613756250E+02  0.56493835832E+01 -0.47029948167E+03  0.47114333013E+03  0.00000000000E+00 0.  1.
         -1    1    1    2    0  502  0.27613756250E+02 -0.56493835832E+01 -0.30965058145E+03  0.31093072808E+03  0.00000000000E+00 0. -1.
<mgrwt>
<rscale>  2 0.28185725E+02</rscale>
<asrwt>0</asrwt>
<pdfrwt beam="1">  1       21 0.16338341E-03 0.28185725E+02</pdfrwt>
<pdfrwt beam="2">  1       21 0.12015631E+00 0.28185725E+02</pdfrwt>
<totfact> 0.27137503E+07</totfact>
</mgrwt>
</event>
<event>
 4    1  0.7616518E+004  0.2438347E+02  0.7546771E-02  0.1670019E+00
         21   -1    0    0  503  502  0.00000000000E+00  0.00000000000E+00  0.16669566621E+02  0.16669566621E+02  0.00000000000E+00 0. -1.
         21   -1    0    0  501  503 -0.00000000000E+00 -0.00000000000E+00 -0.43080572004E+02  0.43080572004E+02  0.00000000000E+00 0. -1.
          4    1    1    2  501    0 -0.24381151236E+02  0.33633415356E+00 -0.81235705941E+00  0.24396999411E+02  0.00000000000E+00 0.  1.
         -4    1    1    2    0  502  0.24381151236E+02 -0.33633415356E+00 -0.25598648324E+02  0.35353139214E+02  0.00000000000E+00 0. -1.
<mgrwt>
<rscale>  2 0.24383471E+02</rscale>
<asrwt>0</asrwt>
<pdfrwt beam="1">  1       21 0.25645487E-02 0.24383471E+02</pdfrwt>
<pdfrwt beam="2">  1       21 0.66277802E-02 0.24383471E+02</pdfrwt>
<totfact> 0.94620768E+07</totfact>
</mgrwt>
</event>
<event>
 4    1  0.7616518E+004  0.2560261E+02  0.7546771E-02  0.1652494E+00
         21   -1    0    0  503  502  0.00000000000E+00  0.00000000000E+00  0.61223231985E+03  0.61223231985E+03  0.00000000000E+00 0.  1.
         21   -1    0    0  501  503 -0.00000000000E+00 -0.00000000000E+00 -0.12926314728E+01  0.12926314728E+01  0.00000000000E+00 0.  1.
          4    1    1    2  501    0  0.14882242455E+02 -0.20832964568E+02  0.17835039027E+03  0.18017867594E+03  0.00000000000E+00 0.  1.
         -4    1    1    2    0  502 -0.14882242455E+02  0.20832964568E+02  0.43258929811E+03  0.43334627538E+03  0.00000000000E+00 0. -1.
<mgrwt>
<rscale>  2 0.25602608E+02</rscale>
<asrwt>0</asrwt>
<pdfrwt beam="1">  1       21 0.94189356E-01 0.25602608E+02</pdfrwt>
<pdfrwt beam="2">  1       21 0.19886687E-03 0.25602608E+02</pdfrwt>
<totfact> 0.34529519E+07</totfact>
</mgrwt>
</event>
<event>
 4    1  0.7616518E+004  0.2651275E+02  0.7546771E-02  0.1640178E+00
         21   -1    0    0  503  502  0.00000000000E+00  0.00000000000E+00  0.12406866787E+02  0.12406866787E+02  0.00000000000E+00 0.  1.
         21   -1    0    0  501  503 -0.00000000000E+00 -0.00000000000E+00 -0.56738467516E+02  0.56738467516E+02  0.00000000000E+00 0.  1.
          3    1    1    2  501    0 -0.25388494727E+02  0.76387332254E+01 -0.23482272689E+02  0.35416705669E+02  0.00000000000E+00 0.  1.
         -3    1    1    2    0  502  0.25388494727E+02 -0.76387332254E+01 -0.20849328040E+02  0.33728628634E+02  0.00000000000E+00 0. -1.
<mgrwt>
<rscale>  2 0.26512750E+02</rscale>
<asrwt>0</asrwt>
<pdfrwt beam="1">  1       21 0.19087487E-02 0.26512750E+02</pdfrwt>
<pdfrwt beam="2">  1       21 0.87289949E-02 0.26512750E+02</pdfrwt>
<totfact> 0.97361281E+07</totfact>
</mgrwt>
</event>
<event>
 4    1  0.7616518E+004  0.2055304E+02  0.7546771E-02  0.1734549E+00
         21   -1    0    0  501  502  0.00000000000E+00  0.00000000000E+00  0.96486528303E+03  0.96486528303E+03  0.00000000000E+00 0. -1.
         21   -1    0    0  502  503 -0.00000000000E+00 -0.00000000000E+00 -0.43969642255E+00  0.43969642255E+00  0.00000000000E+00 0. -1.
          3    1    1    2  501    0  0.19794774256E+02 -0.55312176020E+01  0.45059707527E+03  0.45106557361E+03  0.00000000000E+00 0. -1.
         -3    1    1    2    0  503 -0.19794774256E+02  0.55312176020E+01  0.51382851134E+03  0.51423940584E+03  0.00000000000E+00 0.  1.
<mgrwt>
<rscale>  2 0.20553040E+02</rscale>
<asrwt>0</asrwt>
<pdfrwt beam="1">  1       21 0.14843912E+00 0.20553040E+02</pdfrwt>
<pdfrwt beam="2">  1       21 0.67646376E-04 0.20553040E+02</pdfrwt>
<totfact> 0.55067022E+07</totfact>
</mgrwt>
</event>
<event>
 4    1  0.7616518E+004  0.2513999E+02  0.7546771E-02  0.1658999E+00
         21   -1    0    0  503  502  0.00000000000E+00  0.00000000000E+00  0.42197240759E+02  0.42197240759E+02  0.00000000000E+00 0. -1.
         21   -1    0    0  501  503 -0.00000000000E+00 -0.00000000000E+00 -0.31018321691E+02  0.31018321691E+02  0.00000000000E+00 0. -1.
          1    1    1    2  501    0  0.10443723964E+02  0.22868055712E+02 -0.20735899495E+02  0.32588293452E+02  0.00000000000E+00 0. -1.
         -1    1    1    2    0  502 -0.10443723964E+02 -0.22868055712E+02  0.31914818563E+02  0.40627268998E+02  0.00000000000E+00 0.  1.
<mgrwt>
<rscale>  2 0.25139995E+02</rscale>
<asrwt>0</asrwt>
<pdfrwt beam="1">  1       21 0.64918832E-02 0.25139995E+02</pdfrwt>
<pdfrwt beam="2">  1       21 0.47720495E-02 0.25139995E+02</pdfrwt>
<totfact> 0.37147544E+07</totfact>
</mgrwt>
</event>
<event>
 4    1  0.7616518E+004  0.2083744E+02  0.7546771E-02  0.1729170E+00
         21   -1    0    0  501  502  0.00000000000E+00  0.00000000000E+00  0.74488775554E+02  0.74488775554E+02  0.00000000000E+00 0.  1.
         21   -1    0    0  502  503 -0.00000000000E+00 -0.00000000000E+00 -0.65036915294E+01  0.65036915294E+01  0.00000000000E+00 0.  1.
          3    1    1    2  501    0  0.84820091964E+01  0.19032987911E+02  0.20949771457E+02  0.29548130785E+02  0.00000000000E+00 0.  1.
         -3    1    1    2    0  503 -0.84820091964E+01 -0.19032987911E+02  0.47035312567E+02  0.51444336298E+02  0.00000000000E+00 0. -1.
<mgrwt>
<rscale>  2 0.20837445E+02</rscale>
<asrwt>0</asrwt>
<pdfrwt beam="1">  1       21 0.11459811E-01 0.20837445E+02</pdfrwt>
<pdfrwt beam="2">  1       21 0.10005680E-02 0.20837445E+02</pdfrwt>
<totfact> 0.15434834E+08</totfact>
</mgrwt>
</event>
<event>
 4    1  0.7616518E+004  0.2078841E+02  0.7546771E-02  0.1730089E+00
         21   -1    0    0  501  502  0.00000000000E+00  0.00000000000E+00  0.41309510954E+01  0.41309510954E+01  0.00000000000E+00 0.  1.
         21   -1    0    0  502  503 -0.00000000000E+00 -0.00000000000E+00 -0.16223892609E+03  0.16223892609E+03  0.00000000000E+00 0.  1.
          1    1    1    2  501    0 -0.18225232923E+02 -0.99999529049E+01 -0.12862979022E+03  0.13029881467E+03  0.00000000000E+00 0.  1.
         -1    1    1    2    0  503  0.18225232923E+02  0.99999529049E+01 -0.29478184777E+02  0.36071062514E+02  0.00000000000E+00 0. -1.
<mgrwt>
<rscale>  2 0.20788414E+02</rscale>
<asrwt>0</asrwt>
<pdfrwt beam="1">  1       21 0.63553109E-03 0.20788414E+02</pdfrwt>
<pdfrwt beam="2">  1       21 0.24959829E-01 0.20788414E+02</pdfrwt>
<totfact> 0.79788158E+07</totfact>
</mgrwt>
</event>
<event>
 4    1  0.7616518E+004  0.3242758E+02  0.7546771E-02  0.1572708E+00
         21   -1    0    0  501  502  0.00000000000E+00  0.00000000000E+00  0.10438584927E+03  0.10438584927E+03  0.00000000000E+00 0.  1.
         21   -1    0    0  502  503 -0.00000000000E+00 -0.00000000000E+00 -0.10133387881E+02  0.10133387881E+02  0.00000000000E+00 0.  1.
          1    1    1    2  501    0  0.19011722059E+02  0.26269796840E+02  0.51522163645E+02  0.60877591513E+02  0.00000000000E+00 0. -1.
         -1    1    1    2    0  503 -0.19011722059E+02 -0.26269796840E+02  0.42730297744E+02  0.53641645640E+02  0.00000000000E+00 0.  1.
<mgrwt>
<rscale>  2 0.32427578E+02</rscale>
<asrwt>0</asrwt>
<pdfrwt beam="1">  1       21 0.16059361E-01 0.32427578E+02</pdfrwt>
<pdfrwt beam="2">  1       21 0.15589828E-02 0.32427578E+02</pdfrwt>
<totfact> 0.49738603E+07</totfact>
</mgrwt>
</event>
<event>
 4    1  0.7616518E+004  0.2650828E+02  0.7546771E-02  0.1640237E+00
         21   -1    0    0  501  502  0.00000000000E+00  0.00000000000E+00  0.14805841341E+02  0.14805841341E+02  0.00000000000E+00 0.  1.
         21   -1    0    0  502  503 -0.00000000000E+00 -0.00000000000E+00 -0.50562358273E+02  0.50562358273E+02  0.00000000000E+00 0.  1.
          3    1    1    2  501    0  0.60690621199E+01 -0.25804176376E+02 -0.97826245477E+01  0.28255774215E+02  0.00000000000E+00 0.  1.
         -3    1    1    2    0  503 -0.60690621199E+01  0.25804176376E+02 -0.25973892385E+02  0.37112425400E+02  0.00000000000E+00 0. -1.
<mgrwt>
<rscale>  2 0.26508282E+02</rscale>
<asrwt>0</asrwt>
<pdfrwt beam="1">  1       21 0.22778218E-02 0.26508282E+02</pdfrwt>
<pdfrwt beam="2">  1       21 0.77788242E-02 0.26508282E+02</pdfrwt>
<totfact> 0.89548365E+07</totfact>
</mgrwt>
</event>
<event>
 4    1  0.7616518E+004  0.2662028E+02  0.7546771E-02  0.1638764E+00
         21   -1    0    0  503  502  0.00000000000E+00  0.00000000000E+00  0.19661113042E+02  0.19661113042E+02  0.00000000000E+00 0. -1.
         21   -1    0    0  501  503 -0.00000000000E+00 -0.00000000000E+00 -0.36163031335E+02  0.36163031335E+02  0.00000000000E+00 0. -1.
          1    1    1    2  501    0 -0.14202928050E+02  0.22514797514E+02 -0.98611561699E+01  0.28388055117E+02  0.00000000000E+00 0.  1.
         -1    1    1    2    0  502  0.14202928050E+02 -0.22514797514E+02 -0.66407621230E+01  0.27436089260E+02  0.00000000000E+00 0. -1.
<mgrwt>
<rscale>  2 0.26620279E+02</rscale>
<asrwt>0</asrwt>
<pdfrwt beam="1">  1       21 0.30247867E-02 0.26620279E+02</pdfrwt>
<pdfrwt beam="2">  1       21 0.55635432E-02 0.26620279E+02</pdfrwt>
<totfact> 0.99309195E+07</totfact>
</mgrwt>
</event>
<event>
 4    1  0.7616518E+004  0.2331835E+02  0.7546771E-02  0.1686401E+00
         21   -1    0    0  501  502  0.00000000000E+00  0.00000000000E+00  0.34951295240E+03  0.34951295240E+03  0.00000000000E+00 0. -1.
         21   -1    0    0  502  503 -0.00000000000E+00 -0.00000000000E+00 -0.32196674953E+01  0.32196674953E+01  0.00000000000E+00 0. -1.
          4    1    1    2  501    0  0.22772970678E+02 -0.50136896205E+01  0.46358231875E+02  0.51892494059E+02  0.00000000000E+00 0.  1.
         -4    1    1    2    0  503 -0.22772970678E+02  0.50136896205E+01  0.29993505303E+03  0.30084012583E+03  0.00000000000E+00 0. -1.
<mgrwt>
<rscale>  2 0.23318346E+02</rscale>
<asrwt>0</asrwt>
<pdfrwt beam="1">  1       21 0.53771193E-01 0.23318346E+02</pdfrwt>
<pdfrwt beam="2">  1       21 0.49533374E-03 0.23318346E+02</pdfrwt>
<totfact> 0.28378722E+07</totfact>
</mgrwt>
</event>
<event>
 4    1  0.7616518E+004  0.2413771E+02  0.7546771E-02  0.1673705E+00
         21   -1    0    0  501  502  0.00000000000E+00  0.00000000000E+00  0.81452267962E+02  0.81452267962E+02  0.00000000000E+00 0. -1.
         21   -1    0    0  502  503 -0.00000000000E+00 -0.00000000000E+00 -0.73044544440E+01  0.73044544440E+01  0.00000000000E+00 0. -1.
          4    1    1    2  501    0  0.61308100962E+01 -0.23346143959E+02  0.43463854406E+02  0.49716555693E+02  0.00000000000E+00 0. -1.
         -4    1    1    2    0  503 -0.61308100962E+01  0.23346143959E+02  0.30683959112E+02  0.39040166712E+02  0.00000000000E+00 0.  1.
<mgrwt>
<rscale>  2 0.24137715E+02</rscale>
<asrwt>0</asrwt>
<pdfrwt beam="1">  1       21 0.12531118E-01 0.24137715E+02</pdfrwt>
<pdfrwt beam="2">  1       21 0.11237623E-02 0.24137715E+02</pdfrwt>
<totfact> 0.11658802E+08</totfact>
</mgrwt>
</event>
<event>
 4    1  0.7616518E+004  0.2143355E+02  0.7546771E-02  0.1718237E+00
         21   -1    0    0  501  502  0.00000000000E+00  0.00000000000E+00  0.37725771281E+02  0.37725771281E+02  0.00000000000E+00 0. -1.
         21   -1    0    0  502  503 -0.00000000000E+00 -0.00000000000E+00 -0.12631620299E+02  0.12631620299E+02  0.00000000000E+00 0. -1.
          1    1    1    2  501    0  0.17757428738E+02  0.12002944942E+02  0.17322350089E+02  0.27558315901E+02  0.00000000000E+00 0. -1.
         -1    1    1    2    0  503 -0.17757428738E+02 -0.12002944942E+02  0.77718008929E+01  0.22799075678E+02  0.00000000000E+00 0.  1.
<mgrwt>
<rscale>  2 0.21433548E+02</rscale>
<asrwt>0</asrwt>
<pdfrwt beam="1">  1       21 0.58039648E-02 0.21433548E+02</pdfrwt>
<pdfrwt beam="2">  1       21 0.19433262E-02 0.21433548E+02</pdfrwt>
<totfact> 0.17280343E+08</totfact>
</mgrwt>
</event>
<event>
 4    1  0.7616518E+004  0.3117422E+02  0.7546771E-02  0.1585460E+00
         21   -1    0    0  501  502  0.00000000000E+00  0.00000000000E+00  0.10775476668E+03  0.10775476668E+03  0.00000000000E+00 0.  1.
         21   -1    0    0  502  503 -0.00000000000E+00 -0.00000000000E+00 -0.10214854830E+02  0.10214854830E+02  0.00000000000E+00 0.  1.
          2    1    1    2  501    0  0.23426740547E+02  0.20567438696E+02  0.28587328569E+02  0.42297364715E+02  0.00000000000E+00 0.  1.
         -2    1    1    2    0  503 -0.23426740547E+02 -0.20567438696E+02  0.68952583279E+02  0.75672256792E+02  0.00000000000E+00 0. -1.
<mgrwt>
<rscale>  2 0.31174215E+02</rscale>
<asrwt>0</asrwt>
<pdfrwt beam="1">  1       21 0.16577656E-01 0.31174215E+02</pdfrwt>
<pdfrwt beam="2">  1       21 0.15715162E-02 0.31174215E+02</pdfrwt>
<totfact> 0.46112936E+07</totfact>
</mgrwt>
</event>
<event>
 4    1  0.7616518E+004  0.3823489E+02  0.7546771E-02  0.1521618E+00
         21   -1    0    0  503  502  0.00000000000E+00  0.00000000000E+00  0.40062660814E+03  0.40062660814E+03  0.00000000000E+00 0. -1.
         21   -1    0    0  501  503 -0.00000000000E+00 -0.00000000000E+00 -0.37645022990E+01  0.37645022990E+01  0.00000000000E+00 0. -1.
          4    1    1    2  501    0 -0.27684575647E+02 -0.26371782353E+02  0.16302165004E+03  0.16744540906E+03  0.00000000000E+00 0.  1.
         -4    1    1    2    0  502  0.27684575647E+02  0.26371782353E+02  0.23384045580E+03  0.23694570138E+03  0.00000000000E+00 0. -1.
<mgrwt>
<rscale>  2 0.38234888E+02</rscale>
<asrwt>0</asrwt>
<pdfrwt beam="1">  1       21 0.61634829E-01 0.38234888E+02</pdfrwt>
<pdfrwt beam="2">  1       21 0.57915452E-03 0.38234888E+02</pdfrwt>
<totfact> 0.18651163E+07</totfact>
</mgrwt>
</event>
<event>
 4    1  0.7616518E+004  0.2170871E+02  0.7546771E-02  0.1713339E+00
         21   -1    0    0  501  502  0.00000000000E+00  0.00000000000E+00  0.61322707776E+02  0.61322707776E+02  0.00000000000E+00 0.  1.
         21   -1    0    0  502  503 -0.00000000000E+00 -0.00000000000E+00 -0.82486343423E+01  0.82486343423E+01  0.00000000000E+00 0.  1.
          1    1    1    2  501    0 -0.89617629848E+00  0.21690207370E+02  0.17444441401E+02  0.27849178866E+02  0.00000000000E+00 0.  1.
         -1    1    1    2    0  503  0.89617629848E+00 -0.21690207370E+02  0.35629632032E+02  0.41722163252E+02  0.00000000000E+00 0. -1.
<mgrwt>
<rscale>  2 0.21708713E+02</rscale>
<asrwt>0</asrwt>
<pdfrwt beam="1">  1       21 0.94342624E-02 0.21708713E+02</pdfrwt>
<pdfrwt beam="2">  1       21 0.12690207E-02 0.21708713E+02</pdfrwt>
<totfact> 0.15080886E+08</totfact>
</mgrwt>
</event>
<event>
 4    1  0.7616518E+004  0.2374911E+02  0.7546771E-02  0.1679647E+00
         21   -1    0    0  503  502  0.00000000000E+00  0.00000000000E+00  0.11458920098E+02  0.11458920098E+02  0.00000000000E+00 0. -1.
         21   -1    0    0  501  503 -0.00000000000E+00 -0.00000000000E+00 -0.50024542513E+02  0.50024542513E+02  0.00000000000E+00 0. -1.
          3    1    1    2  501    0  0.44756347281E+01  0.23323574266E+02 -0.15386805621E+02  0.28297954166E+02  0.00000000000E+00 0. -1.
         -3    1    1    2    0  502 -0.44756347281E+01 -0.23323574266E+02 -0.23178816795E+02  0.33185508445E+02  0.00000000000E+00 0.  1.
<mgrwt>
<rscale>  2 0.23749114E+02</rscale>
<asrwt>0</asrwt>
<pdfrwt beam="1">  1       21 0.17629108E-02 0.23749114E+02</pdfrwt>
<pdfrwt beam="2">  1       21 0.76960836E-02 0.23749114E+02</pdfrwt>
<totfact> 0.13121620E+08</totfact>
</mgrwt>
</event>
<event>
 4    1  0.7616518E+004  0.2083711E+02  0.7546771E-02  0.1729176E+00
         21   -1    0    0  501  502  0.00000000000E+00  0.00000000000E+00  0.89834885522E+03  0.89834885522E+03  0.00000000000E+00 0.  1.
         21   -1    0    0  502  503 -0.00000000000E+00 -0.00000000000E+00 -0.48446760269E+00  0.48446760269E+00  0.00000000000E+00 0.  1.
          1    1    1    2  501    0  0.15291165204E+02  0.14155049309E+02  0.47085642072E+03  0.47131725418E+03  0.00000000000E+00 0.  1.
         -1    1    1    2    0  503 -0.15291165204E+02 -0.14155049309E+02  0.42700796690E+03  0.42751606865E+03  0.00000000000E+00 0. -1.
<mgrwt>
<rscale>  2 0.20837110E+02</rscale>
<asrwt>0</asrwt>
<pdfrwt beam="1">  1       21 0.13820618E+00 0.20837110E+02</pdfrwt>
<pdfrwt beam="2">  1       21 0.74534196E-04 0.20837110E+02</pdfrwt>
<totfact> 0.56911827E+07</totfact>
</mgrwt>
</event>
<event>
 4    1  0.7616518E+004  0.2188631E+02  0.7546771E-02  0.1710226E+00
         21   -1    0    0  501  502  0.00000000000E+00  0.00000000000E+00  0.44577974153E+01  0.44577974153E+01  0.00000000000E+00 0. -1.
         21   -1    0    0  502  503 -0.00000000000E+00 -0.00000000000E+00 -0.10839694179E+03  0.10839694179E+03  0.00000000000E+00 0. -1.
          5    1    1    2  501    0  0.21877427925E+02 -0.62343044170E+00 -0.57230981142E+02  0.61273123967E+02  0.00000000000E+00 0.  1.
         -5    1    1    2    0  503 -0.21877427925E+02  0.62343044170E+00 -0.46708163237E+02  0.51581615243E+02  0.00000000000E+00 0. -1.
<mgrwt>
<rscale>  2 0.21886309E+02</rscale>
<asrwt>0</asrwt>
<pdfrwt beam="1">  1       21 0.68581498E-03 0.21886309E+02</pdfrwt>
<pdfrwt beam="2">  1       21 0.16676453E-01 0.21886309E+02</pdfrwt>
<totfact> 0.14606362E+08</totfact>
</mgrwt>
</event>
<event>
 4    1  0.7616518E+004  0.2053733E+02  0.7546771E-02  0.1734849E+00
         21   -1    0    0  501  502  0.00000000000E+00  0.00000000000E+00  0.69929251472E+02  0.69929251472E+02  0.00000000000E+00 0. -1.
         21   -1    0    0  502  503 -0.00000000000E+00 -0.00000000000E+00 -0.79504506697E+01  0.79504506697E+01  0.00000000000E+00 0. -1.
          4    1    1    2  501    0  0.32606975290E+00  0.20534743837E+02  0.50119809459E+02  0.54164354756E+02  0.00000000000E+00 0.  1.
         -4    1    1    2    0  503 -0.32606975290E+00 -0.20534743837E+02  0.11858991344E+02  0.23715347386E+02  0.00000000000E+00 0. -1.
<mgrwt>
<rscale>  2 0.20537332E+02</rscale>
<asrwt>0</asrwt>
<pdfrwt beam="1">  1       21 0.10758346E-01 0.20537332E+02</pdfrwt>
<pdfrwt beam="2">  1       21 0.12231463E-02 0.20537332E+02</pdfrwt>
<totfact> 0.12623712E+08</totfact>
</mgrwt>
</event>
<event>
 4    1  0.7616518E+004  0.2692476E+02  0.7546771E-02  0.1634802E+00
         21   -1    0    0  503  502  0.00000000000E+00  0.00000000000E+00  0.12881166388E+04  0.12881166388E+04  0.00000000000E+00 0. -1.
         21   -1    0    0  501  503 -0.00000000000E+00 -0.00000000000E+00 -0.62412493620E+00  0.62412493620E+00  0.00000000000E+00 0. -1.
          4    1    1    2  501    0  0.19575044092E+02  0.18486754338E+02  0.84574318407E+03  0.84617165861E+03  0.00000000000E+00 0.  1.
         -4    1    1    2    0  502 -0.19575044092E+02 -0.18486754338E+02  0.44174932976E+03  0.44256910509E+03  0.00000000000E+00 0. -1.
<mgrwt>
<rscale>  2 0.26924755E+02</rscale>
<asrwt>0</asrwt>
<pdfrwt beam="1">  1       21 0.19816966E+00 0.26924755E+02</pdfrwt>
<pdfrwt beam="2">  1       21 0.96020252E-04 0.26924755E+02</pdfrwt>
<totfact> 0.17206885E+07</totfact>
</mgrwt>
</event>
<event>
 4    1  0.7616518E+004  0.2452712E+02  0.7546771E-02  0.1667888E+00
         21   -1    0    0  503  502  0.00000000000E+00  0.00000000000E+00  0.21588074145E+01  0.21588074145E+01  0.00000000000E+00 0.  1.
         21   -1    0    0  501  503 -0.00000000000E+00 -0.00000000000E+00 -0.31469974296E+03  0.31469974296E+03  0.00000000000E+00 0.  1.
          2    1    1    2  501    0 -0.15913214545E+01  0.24475442859E+02 -0.10265866544E+03  0.10554800423E+03  0.00000000000E+00 0.  1.
         -2    1    1    2    0  502  0.15913214545E+01 -0.24475442859E+02 -0.20988227011E+03  0.21131054614E+03  0.00000000000E+00 0. -1.
<mgrwt>
<rscale>  2 0.24527120E+02</rscale>
<asrwt>0</asrwt>
<pdfrwt beam="1">  1       21 0.33212417E-03 0.24527120E+02</pdfrwt>
<pdfrwt beam="2">  1       21 0.48415352E-01 0.24527120E+02</pdfrwt>
<totfact> 0.63389214E+07</totfact>
</mgrwt>
</event>
<event>
 4    1  0.7616518E+004  0.3820241E+02  0.7546771E-02  0.1521872E+00
         21   -1    0    0  501  502  0.00000000000E+00  0.00000000000E+00  0.54293130990E+02  0.54293130990E+02  0.00000000000E+00 0. -1.
         21   -1    0    0  502  503 -0.00000000000E+00 -0.00000000000E+00 -0.30384521957E+02  0.30384521957E+02  0.00000000000E+00 0. -1.
          5    1    1    2  501    0  0.37534717880E+02 -0.71112065354E+01 -0.24236973660E+01  0.38279219083E+02  0.00000000000E+00 0. -1.
         -5    1    1    2    0  503 -0.37534717880E+02  0.71112065354E+01  0.26332306400E+02  0.46398433864E+02  0.00000000000E+00 0.  1.
<mgrwt>
<rscale>  2 0.38202412E+02</rscale>
<asrwt>0</asrwt>
<pdfrwt beam="1">  1       21 0.83527894E-02 0.38202412E+02</pdfrwt>
<pdfrwt beam="2">  1       21 0.46745418E-02 0.38202412E+02</pdfrwt>
<totfact> 0.27631414E+07</totfact>
</mgrwt>
</event>
<event>
 4    1  0.7616518E+004  0.7906619E+02  0.7546771E-02  0.1331723E+00
         21   -1    0    0  501  502  0.00000000000E+00  0.00000000000E+00  0.16202960886E+02  0.16202960886E+02  0.00000000000E+00 0.  1.
         21   -1    0    0  502  503 -0.00000000000E+00 -0.00000000000E+00 -0.54738713248E+03  0.54738713248E+03  0.00000000000E+00 0.  1.
          3    1    1    2  501    0 -0.44731112576E+02 -0.65196554330E+02 -0.11249760923E+03  0.13750336436E+03  0.00000000000E+00 0. -1.
         -3    1    1    2    0  503  0.44731112576E+02  0.65196554330E+02 -0.41868656236E+03  0.42608672900E+03  0.00000000000E+00 0.  1.
<mgrwt>
<rscale>  2 0.79066195E+02</rscale>
<asrwt>0</asrwt>
<pdfrwt beam="1">  1       21 0.24927631E-02 0.79066195E+02</pdfrwt>
<pdfrwt beam="2">  1       21 0.84213408E-01 0.79066195E+02</pdfrwt>
<totfact> 0.10505366E+06</totfact>
</mgrwt>
</event>
<event>
 4    1  0.7616518E+004  0.2363409E+02  0.7546771E-02  0.1681433E+00
         21   -1    0    0  503  502  0.00000000000E+00  0.00000000000E+00  0.42762491009E+02  0.42762491009E+02  0.00000000000E+00 0. -1.
         21   -1    0    0  501  503 -0.00000000000E+00 -0.00000000000E+00 -0.13097518748E+02  0.13097518748E+02  0.00000000000E+00 0. -1.
          1    1    1    2  501    0 -0.18583030533E+02  0.14602778066E+02  0.13381126679E+02  0.27159247085E+02  0.00000000000E+00 0. -1.
         -1    1    1    2    0  502  0.18583030533E+02 -0.14602778066E+02  0.16283845582E+02  0.28700762672E+02  0.00000000000E+00 0.  1.
<mgrwt>
<rscale>  2 0.23634089E+02</rscale>
<asrwt>0</asrwt>
<pdfrwt beam="1">  1       21 0.65788447E-02 0.23634089E+02</pdfrwt>
<pdfrwt beam="2">  1       21 0.20150029E-02 0.23634089E+02</pdfrwt>
<totfact> 0.13770262E+08</totfact>
</mgrwt>
</event>
<event>
 4    1  0.7616518E+004  0.2916732E+02  0.7546771E-02  0.1607479E+00
         21   -1    0    0  503  502  0.00000000000E+00  0.00000000000E+00  0.72515585806E+02  0.72515585806E+02  0.00000000000E+00 0.  1.
         21   -1    0    0  501  503 -0.00000000000E+00 -0.00000000000E+00 -0.11903767068E+02  0.11903767068E+02  0.00000000000E+00 0.  1.
          1    1    1    2  501    0 -0.48495969795E+01  0.28761324859E+02  0.25231376641E+02  0.38566238677E+02  0.00000000000E+00 0. -1.
         -1    1    1    2    0  502  0.48495969795E+01 -0.28761324859E+02  0.35380442097E+02  0.45853114196E+02  0.00000000000E+00 0.  1.
<mgrwt>
<rscale>  2 0.29167317E+02</rscale>
<asrwt>0</asrwt>
<pdfrwt beam="1">  1       21 0.11156244E-01 0.29167317E+02</pdfrwt>
<pdfrwt beam="2">  1       21 0.18313488E-02 0.29167317E+02</pdfrwt>
<totfact> 0.70638069E+07</totfact>
</mgrwt>
</event>
<event>
 4    1  0.7616518E+004  0.3859194E+02  0.7546771E-02  0.1518836E+00
         21   -1    0    0  501  502  0.00000000000E+00  0.00000000000E+00  0.86769950820E+03  0.86769950820E+03  0.00000000000E+00 0. -1.
         21   -1    0    0  502  503 -0.00000000000E+00 -0.00000000000E+00 -0.17750678301E+01  0.17750678301E+01  0.00000000000E+00 0. -1.
          4    1    1    2  501    0  0.38538023745E+02 -0.20392466977E+01  0.51198295677E+03  0.51343537648E+03  0.00000000000E+00 0.  1.
         -4    1    1    2    0  503 -0.38538023745E+02  0.20392466977E+01  0.35394148361E+03  0.35603919955E+03  0.00000000000E+00 0. -1.
<mgrwt>
<rscale>  2 0.38591940E+02</rscale>
<asrwt>0</asrwt>
<pdfrwt beam="1">  1       21 0.13349189E+00 0.38591940E+02</pdfrwt>
<pdfrwt beam="2">  1       21 0.27308805E-03 0.38591940E+02</pdfrwt>
<totfact> 0.10452699E+07</totfact>
</mgrwt>
</event>
<event>
 4    1  0.7616518E+004  0.2147882E+02  0.7546771E-02  0.1717425E+00
         21   -1    0    0  501  502  0.00000000000E+00  0.00000000000E+00  0.80458922285E+01  0.80458922285E+01  0.00000000000E+00 0. -1.
         21   -1    0    0  502  503 -0.00000000000E+00 -0.00000000000E+00 -0.60381947772E+02  0.60381947772E+02  0.00000000000E+00 0. -1.
          3    1    1    2  501    0 -0.67510713600E+00  0.21468204464E+02 -0.18486800804E+02  0.28339043324E+02  0.00000000000E+00 0.  1.
         -3    1    1    2    0  503  0.67510713600E+00 -0.21468204464E+02 -0.33849254740E+02  0.40088796677E+02  0.00000000000E+00 0. -1.
<mgrwt>
<rscale>  2 0.21478817E+02</rscale>
<asrwt>0</asrwt>
<pdfrwt beam="1">  1       21 0.12378296E-02 0.21478817E+02</pdfrwt>
<pdfrwt beam="2">  1       21 0.92895299E-02 0.21478817E+02</pdfrwt>
<totfact> 0.16008333E+08</totfact>
</mgrwt>
</event>
<event>
 4    1  0.7616518E+004  0.2115021E+02  0.7546771E-02  0.1723377E+00
         21   -1    0    0  503  502  0.00000000000E+00  0.00000000000E+00  0.92724737555E+02  0.92724737555E+02  0.00000000000E+00 0. -1.
         21   -1    0    0  501  503 -0.00000000000E+00 -0.00000000000E+00 -0.49007490312E+01  0.49007490312E+01  0.00000000000E+00 0. -1.
          4    1    1    2  501    0 -0.12520407090E+02  0.17046136623E+02  0.37815139299E+02  0.43328006274E+02  0.00000000000E+00 0. -1.
         -4    1    1    2    0  502  0.12520407090E+02 -0.17046136623E+02  0.50008849225E+02  0.54297480313E+02  0.00000000000E+00 0.  1.
<mgrwt>
<rscale>  2 0.21150210E+02</rscale>
<asrwt>0</asrwt>
<pdfrwt beam="1">  1       21 0.14265343E-01 0.21150210E+02</pdfrwt>
<pdfrwt beam="2">  1       21 0.75396146E-03 0.21150210E+02</pdfrwt>
<totfact> 0.16382500E+08</totfact>
</mgrwt>
</event>
<event>
 4    1  0.7616518E+004  0.3633235E+02  0.7546771E-02  0.1537078E+00
         21   -1    0    0  501  502  0.00000000000E+00  0.00000000000E+00  0.12816425004E+01  0.12816425004E+01  0.00000000000E+00 0. -1.
         21   -1    0    0  502  503 -0.00000000000E+00 -0.00000000000E+00 -0.11379248420E+04  0.11379248420E+04  0.00000000000E+00 0. -1.
          1    1    1    2  501    0  0.45177239784E+01 -0.36050380480E+02 -0.74377347419E+03  0.74466033913E+03  0.00000000000E+00 0. -1.
         -1    1    1    2    0  503 -0.45177239784E+01  0.36050380480E+02 -0.39286972530E+03  0.39454614536E+03  0.00000000000E+00 0.  1.
<mgrwt>
<rscale>  2 0.36332351E+02</rscale>
<asrwt>0</asrwt>
<pdfrwt beam="1">  1       21 0.19717565E-03 0.36332351E+02</pdfrwt>
<pdfrwt beam="2">  1       21 0.17506546E+00 0.36332351E+02</pdfrwt>
<totfact> 0.86211333E+06</totfact>
</mgrwt>
</event>
<event>
 4    1  0.7616518E+004  0.2060546E+02  0.7546771E-02  0.1733549E+00
         21   -1    0    0  501  502  0.00000000000E+00  0.00000000000E+00  0.32503576955E+02  0.32503576955E+02  0.00000000000E+00 0.  1.
         21   -1    0    0  502  503 -0.00000000000E+00 -0.00000000000E+00 -0.13204681205E+02  0.13204681205E+02  0.00000000000E+00 0.  1.
          2    1    1    2  501    0 -0.16466218817E+02  0.12387433325E+02  0.12019171553E+02  0.23854671478E+02  0.00000000000E+00 0.  1.
         -2    1    1    2    0  503  0.16466218817E+02 -0.12387433325E+02  0.72797241966E+01  0.21853586682E+02  0.00000000000E+00 0. -1.
<mgrwt>
<rscale>  2 0.20605457E+02</rscale>
<asrwt>0</asrwt>
<pdfrwt beam="1">  1       21 0.50005503E-02 0.20605457E+02</pdfrwt>
<pdfrwt beam="2">  1       21 0.20314894E-02 0.20605457E+02</pdfrwt>
<totfact> 0.20214123E+08</totfact>
</mgrwt>
</event>
<event>
 4    1  0.7616518E+004  0.2000941E+02  0.7546771E-02  0.1745141E+00
         21   -1    0    0  501  502  0.00000000000E+00  0.00000000000E+00  0.30798057966E+03  0.30798057966E+03  0.00000000000E+00 0. -1.
         21   -1    0    0  502  503 -0.00000000000E+00 -0.00000000000E+00 -0.34897072232E+01  0.34897072232E+01  0.00000000000E+00 0. -1.
          3    1    1    2  501    0  0.16811629369E+02 -0.10851065756E+02  0.27560834212E+03  0.27633373800E+03  0.00000000000E+00 0. -1.
         -3    1    1    2    0  503 -0.16811629369E+02  0.10851065756E+02  0.28882530321E+02  0.35136548888E+02  0.00000000000E+00 0.  1.
<mgrwt>
<rscale>  2 0.20009411E+02</rscale>
<asrwt>0</asrwt>
<pdfrwt beam="1">  1       21 0.47381606E-01 0.20009411E+02</pdfrwt>
<pdfrwt beam="2">  1       21 0.53687828E-03 0.20009411E+02</pdfrwt>
<totfact> 0.31133232E+07</totfact>
</mgrwt>
</event>
<event>
 4    1  0.7616518E+004  0.3579976E+02  0.7546771E-02  0.1541611E+00
         21   -1    0    0  503  502  0.00000000000E+00  0.00000000000E+00  0.19310657500E+02  0.19310657500E+02  0.00000000000E+00 0.  1.
         21   -1    0    0  501  503 -0.00000000000E+00 -0.00000000000E+00 -0.69306206644E+02  0.69306206644E+02  0.00000000000E+00 0.  1.
          5    1    1    2  501    0 -0.17785691002E+02  0.31069146050E+02 -0.34119815554E+02  0.49454872905E+02  0.00000000000E+00 0.  1.
         -5    1    1    2    0  502  0.17785691002E+02 -0.31069146050E+02 -0.15875733591E+02  0.39161991238E+02  0.00000000000E+00 0. -1.
<mgrwt>
<rscale>  2 0.35799758E+02</rscale>
<asrwt>0</asrwt>
<pdfrwt beam="1">  1       21 0.29708704E-02 0.35799758E+02</pdfrwt>
<pdfrwt beam="2">  1       21 0.10662493E-01 0.35799758E+02</pdfrwt>
<totfact> 0.37414994E+07</totfact>
</mgrwt>
</event>
<event>
 4    1  0.7616518E+004  0.2866015E+02  0.7546771E-02  0.1613389E+00
         21   -1    0    0  503  502  0.00000000000E+00  0.00000000000E+00  0.24547686260E+02  0.24547686260E+02  0.00000000000E+00 0. -1.
         21   -1    0    0  501  503 -0.00000000000E+00 -0.00000000000E+00 -0.33480590805E+02  0.33480590805E+02  0.00000000000E+00 0. -1.
          1    1    1    2  501    0 -0.72429396894E+01 -0.27729836219E+02 -0.37747996124E+01  0.28907665146E+02  0.00000000000E+00 0. -1.
         -1    1    1    2    0  502  0.72429396894E+01  0.27729836219E+02 -0.51581049322E+01  0.29120611919E+02  0.00000000000E+00 0.  1.
<mgrwt>
<rscale>  2 0.28660146E+02</rscale>
<asrwt>0</asrwt>
<pdfrwt beam="1">  1       21 0.37765671E-02 0.28660146E+02</pdfrwt>
<pdfrwt beam="2">  1       21 0.51508601E-02 0.28660146E+02</pdfrwt>
<totfact> 0.80759295E+07</totfact>
</mgrwt>
</event>
<event>
 4    1  0.7616518E+004  0.2933724E+02  0.7546771E-02  0.1605532E+00
         21   -1    0    0  503  502  0.00000000000E+00  0.00000000000E+00  0.35663690386E+02  0.35663690386E+02  0.00000000000E+00 0. -1.
         21   -1    0    0  501  503 -0.00000000000E+00 -0.00000000000E+00 -0.24134151232E+02  0.24134151232E+02  0.00000000000E+00 0. -1.
          1    1    1    2  501    0  0.22952316014E+02  0.18271963794E+02  0.59671262491E+01  0.29937936919E+02  0.00000000000E+00 0.  1.
         -1    1    1    2    0  502 -0.22952316014E+02 -0.18271963794E+02  0.55624129047E+01  0.29859904699E+02  0.00000000000E+00 0. -1.
<mgrwt>
<rscale>  2 0.29337237E+02</rscale>
<asrwt>0</asrwt>
<pdfrwt beam="1">  1       21 0.54867217E-02 0.29337237E+02</pdfrwt>
<pdfrwt beam="2">  1       21 0.37129463E-02 0.29337237E+02</pdfrwt>
<totfact> 0.75376186E+07</totfact>
</mgrwt>
</event>
<event>
 4    1  0.7616518E+004  0.3628711E+02  0.7546771E-02  0.1537459E+00
         21   -1    0    0  501  502  0.00000000000E+00  0.00000000000E+00  0.41102999330E+02  0.41102999330E+02  0.00000000000E+00 0. -1.
         21   -1    0    0  502  503 -0.00000000000E+00 -0.00000000000E+00 -0.10349322156E+03  0.10349322156E+03  0.00000000000E+00 0. -1.
          2    1    1    2  501    0 -0.12284346506E+02  0.34144532874E+02 -0.91270368249E+02  0.98219317929E+02  0.00000000000E+00 0.  1.
         -2    1    1    2    0  503  0.12284346506E+02 -0.34144532874E+02  0.28880146018E+02  0.46376902961E+02  0.00000000000E+00 0. -1.
<mgrwt>
<rscale>  2 0.36287109E+02</rscale>
<asrwt>0</asrwt>
<pdfrwt beam="1">  1       21 0.63235384E-02 0.36287109E+02</pdfrwt>
<pdfrwt beam="2">  1       21 0.15922034E-01 0.36287109E+02</pdfrwt>
<totfact> 0.55923784E+06</totfact>
</mgrwt>
</event>
<event>
 4    1  0.7616518E+004  0.2189398E+02  0.7546771E-02  0.1710092E+00
         21   -1    0    0  503  502  0.00000000000E+00  0.00000000000E+00  0.93526137440E+01  0.93526137440E+01  0.00000000000E+00 0. -1.
         21   -1    0    0  501  503 -0.00000000000E+00 -0.00000000000E+00 -0.52069579029E+02  0.52069579029E+02  0.00000000000E+00 0. -1.
          5    1    1    2  501    0 -0.16354094111E+02  0.14556436654E+02 -0.17511720311E+02  0.28035809075E+02  0.00000000000E+00 0. -1.
         -5    1    1    2    0  502  0.16354094111E+02 -0.14556436654E+02 -0.25205244973E+02  0.33386383697E+02  0.00000000000E+00 0.  1.
<mgrwt>
<rscale>  2 0.21893977E+02</rscale>
<asrwt>0</asrwt>
<pdfrwt beam="1">  1       21 0.14388637E-02 0.21893977E+02</pdfrwt>
<pdfrwt beam="2">  1       21 0.80107044E-02 0.21893977E+02</pdfrwt>
<totfact> 0.16341373E+08</totfact>
</mgrwt>
</event>
<event>
 4    1  0.7616518E+004  0.2270283E+02  0.7546771E-02  0.1696373E+00
         21   -1    0    0  501  502  0.00000000000E+00  0.00000000000E+00  0.10783094005E+03  0.10783094005E+03  0.00000000000E+00 0. -1.
         21   -1    0    0  502  503 -0.00000000000E+00 -0.00000000000E+00 -0.51772867026E+01  0.51772867026E+01  0.00000000000E+00 0. -1.
          5    1    1    2  501    0 -0.88965821030E+01  0.20887063882E+02  0.66981654249E+02  0.70724540413E+02  0.00000000000E+00 0.  1.
         -5    1    1    2    0  503  0.88965821030E+01 -0.20887063882E+02  0.35671999096E+02  0.42283686337E+02  0.00000000000E+00 0. -1.
<mgrwt>
<rscale>  2 0.22702833E+02</rscale>
<asrwt>0</asrwt>
<pdfrwt beam="1">  1       21 0.16589374E-01 0.22702833E+02</pdfrwt>
<pdfrwt beam="2">  1       21 0.79650573E-03 0.22702833E+02</pdfrwt>
<totfact> 0.11922656E+08</totfact>
</mgrwt>
</event>
<event>
 4    1  0.7616518E+004  0.2924815E+02  0.7546771E-02  0.1606551E+00
         21   -1    0    0  501  502  0.00000000000E+00  0.00000000000E+00  0.21128841839E+01  0.21128841839E+01  0.00000000000E+00 0. -1.
         21   -1    0    0  502  503 -0.00000000000E+00 -0.00000000000E+00 -0.43987155440E+03  0.43987155440E+03  0.00000000000E+00 0. -1.
          1    1    1    2  501    0  0.11049126831E+02 -0.27080826775E+02 -0.28121340990E+03  0.28273032432E+03  0.00000000000E+00 0.  1.
         -1    1    1    2    0  503 -0.11049126831E+02  0.27080826775E+02 -0.15654526031E+03  0.15925411426E+03  0.00000000000E+00 0. -1.
<mgrwt>
<rscale>  2 0.29248152E+02</rscale>
<asrwt>0</asrwt>
<pdfrwt beam="1">  1       21 0.32505927E-03 0.29248152E+02</pdfrwt>
<pdfrwt beam="2">  1       21 0.67672512E-01 0.29248152E+02</pdfrwt>
<totfact> 0.34772188E+07</totfact>
</mgrwt>
</event>
<event>
 4    1  0.7616518E+004  0.2112525E+02  0.7546771E-02  0.1723835E+00
         21   -1    0    0  503  502  0.00000000000E+00  0.00000000000E+00  0.11525132969E+03  0.11525132969E+03  0.00000000000E+00 0.  1.
         21   -1    0    0  501  503 -0.00000000000E+00 -0.00000000000E+00 -0.38848252878E+01  0.38848252878E+01  0.00000000000E+00 0.  1.
          5    1    1    2  501    0 -0.14531329353E+02 -0.15333508142E+02  0.52287175856E+02  0.56393481571E+02  0.00000000000E+00 0.  1.
         -5    1    1    2    0  502  0.14531329353E+02  0.15333508142E+02  0.59079328542E+02  0.62742673402E+02  0.00000000000E+00 0. -1.
<mgrwt>
<rscale>  2 0.21125246E+02</rscale>
<asrwt>0</asrwt>
<pdfrwt beam="1">  1       21 0.17730971E-01 0.21125246E+02</pdfrwt>
<pdfrwt beam="2">  1       21 0.59766552E-03 0.21125246E+02</pdfrwt>
<totfact> 0.15948231E+08</totfact>
</mgrwt>
</event>
<event>
 4    1  0.7616518E+004  0.2713565E+02  0.7546771E-02  0.1632095E+00
         21   -1    0    0  501  502  0.00000000000E+00  0.00000000000E+00  0.22767554955E+01  0.22767554955E+01  0.00000000000E+00 0.  1.
         21   -1    0    0  502  503 -0.00000000000E+00 -0.00000000000E+00 -0.44931056501E+03  0.44931056501E+03  0.00000000000E+00 0.  1.
          2    1    1    2  501    0  0.11625246498E+01  0.27110736607E+02 -0.10399744385E+03  0.10747935537E+03  0.00000000000E+00 0.  1.
         -2    1    1    2    0  503 -0.11625246498E+01 -0.27110736607E+02 -0.34303636566E+03  0.34410796513E+03  0.00000000000E+00 0. -1.
<mgrwt>
<rscale>  2 0.27135650E+02</rscale>
<asrwt>0</asrwt>
<pdfrwt beam="1">  1       21 0.35027033E-03 0.27135650E+02</pdfrwt>
<pdfrwt beam="2">  1       21 0.69124652E-01 0.27135650E+02</pdfrwt>
<totfact> 0.29398620E+07</totfact>
</mgrwt>
</event>
<event>
 4    1  0.7616518E+004  0.2038895E+02  0.7546771E-02  0.1737702E+00
         21   -1    0    0  501  502  0.00000000000E+00  0.00000000000E+00  0.67017089192E+00  0.67017089192E+00  0.00000000000E+00 0.  1.
         21   -1    0    0  502  503 -0.00000000000E+00 -0.00000000000E+00 -0.70254345399E+03  0.70254345399E+03  0.00000000000E+00 0.  1.
          3    1    1    2  501    0  0.20093899008E+02 -0.34561057994E+01 -0.47123556506E+03  0.47167644337E+03  0.00000000000E+00 0.  1.
         -3    1    1    2    0  503 -0.20093899008E+02  0.34561057994E+01 -0.23063771803E+03  0.23153718151E+03  0.00000000000E+00 0. -1.
<mgrwt>
<rscale>  2 0.20388954E+02</rscale>
<asrwt>0</asrwt>
<pdfrwt beam="1">  1       21 0.10310339E-03 0.20388954E+02</pdfrwt>
<pdfrwt beam="2">  1       21 0.10808342E+00 0.20388954E+02</pdfrwt>
<totfact> 0.62346935E+07</totfact>
</mgrwt>
</event>
<event>
 4    1  0.7616518E+004  0.3918689E+02  0.7546771E-02  0.1514282E+00
         21   -1    0    0  503  502  0.00000000000E+00  0.00000000000E+00  0.15859269217E+02  0.15859269217E+02  0.00000000000E+00 0. -1.
         21   -1    0    0  501  503 -0.00000000000E+00 -0.00000000000E+00 -0.14724192643E+03  0.14724192643E+03  0.00000000000E+00 0. -1.
          5    1    1    2  501    0 -0.31052620850E+02 -0.23902860048E+02 -0.17972562884E+02  0.43111773296E+02  0.00000000000E+00 0. -1.
         -5    1    1    2    0  502  0.31052620850E+02  0.23902860048E+02 -0.11341009433E+03  0.11998942235E+03  0.00000000000E+00 0.  1.
<mgrwt>
<rscale>  2 0.39186885E+02</rscale>
<asrwt>0</asrwt>
<pdfrwt beam="1">  1       21 0.24398876E-02 0.39186885E+02</pdfrwt>
<pdfrwt beam="2">  1       21 0.22652603E-01 0.39186885E+02</pdfrwt>
<totfact> 0.13938677E+07</totfact>
</mgrwt>
</event>
<event>
 4    1  0.7616518E+004  0.2749076E+02  0.7546771E-02  0.1627605E+00
         21   -1    0    0  501  502  0.00000000000E+00  0.00000000000E+00  0.25169419102E+03  0.25169419102E+03  0.00000000000E+00 0. -1.
         21   -1    0    0  502  503 -0.00000000000E+00 -0.00000000000E+00 -0.30072273214E+01  0.30072273214E+01  0.00000000000E+00 0. -1.
          2    1    1    2  501    0 -0.35559299891E+01  0.27259813992E+02  0.11935892505E+03  0.12248385643E+03  0.00000000000E+00 0. -1.
         -2    1    1    2    0  503  0.35559299891E+01 -0.27259813992E+02  0.12932803865E+03  0.13221756192E+03  0.00000000000E+00 0.  1.
<mgrwt>
<rscale>  2 0.27490764E+02</rscale>
<asrwt>0</asrwt>
<pdfrwt beam="1">  1       21 0.38722167E-01 0.27490764E+02</pdfrwt>
<pdfrwt beam="2">  1       21 0.46265055E-03 0.27490764E+02</pdfrwt>
<totfact> 0.61251818E+07</totfact>
</mgrwt>
</event>
<event>
 4    1  0.7616518E+004  0.2414110E+02  0.7546771E-02  0.1673654E+00
         21   -1    0    0  501  502  0.00000000000E+00  0.00000000000E+00  0.15237349821E+02  0.15237349821E+02  0.00000000000E+00 0. -1.
         21   -1    0    0  502  503 -0.00000000000E+00 -0.00000000000E+00 -0.42050999685E+02  0.42050999685E+02  0.00000000000E+00 0. -1.
          3    1    1    2  501    0  0.11073560949E+02  0.21451544163E+02 -0.47922769556E+01  0.24612159952E+02  0.00000000000E+00 0.  1.
         -3    1    1    2    0  503 -0.11073560949E+02 -0.21451544163E+02 -0.22021372908E+02  0.32676189555E+02  0.00000000000E+00 0. -1.
<mgrwt>
<rscale>  2 0.24141096E+02</rscale>
<asrwt>0</asrwt>
<pdfrwt beam="1">  1       21 0.23442077E-02 0.24141096E+02</pdfrwt>
<pdfrwt beam="2">  1       21 0.64693844E-02 0.24141096E+02</pdfrwt>
<totfact> 0.11275855E+08</totfact>
</mgrwt>
</event>
<event>
 4    1  0.7616518E+004  0.2812122E+02  0.7546771E-02  0.1619836E+00
         21   -1    0    0  503  502  0.00000000000E+00  0.00000000000E+00  0.88085692800E+03  0.88085692800E+03  0.00000000000E+00 0. -1.
         21   -1    0    0  501  503 -0.00000000000E+00 -0.00000000000E+00 -0.95808530424E+00  0.95808530424E+00  0.00000000000E+00 0. -1.
          5    1    1    2  501    0 -0.27636740743E+02 -0.51974505901E+01  0.55058007623E+03  0.55129776281E+03  0.00000000000E+00 0. -1.
         -5    1    1    2    0  502  0.27636740743E+02  0.51974505901E+01  0.32931876646E+03  0.33051725050E+03  0.00000000000E+00 0.  1.
<mgrwt>
<rscale>  2 0.28121219E+02</rscale>
<asrwt>0</asrwt>
<pdfrwt beam="1">  1       21 0.13551580E+00 0.28121219E+02</pdfrwt>
<pdfrwt beam="2">  1       21 0.14739844E-03 0.28121219E+02</pdfrwt>
<totfact> 0.23821882E+07</totfact>
</mgrwt>
</event>
<event>
 4    1  0.7616518E+004  0.2343055E+02  0.7546771E-02  0.1684625E+00
         21   -1    0    0  503  502  0.00000000000E+00  0.00000000000E+00  0.25717124249E+03  0.25717124249E+03  0.00000000000E+00 0. -1.
         21   -1    0    0  501  503 -0.00000000000E+00 -0.00000000000E+00 -0.27727058902E+01  0.27727058902E+01  0.00000000000E+00 0. -1.
          4    1    1    2  501    0  0.48761645299E+01  0.22917537273E+02  0.18954415426E+03  0.19098685010E+03  0.00000000000E+00 0.  1.
         -4    1    1    2    0  502 -0.48761645299E+01 -0.22917537273E+02  0.64854382339E+02  0.68957098284E+02  0.00000000000E+00 0. -1.
<mgrwt>
<rscale>  2 0.23430546E+02</rscale>
<asrwt>0</asrwt>
<pdfrwt beam="1">  1       21 0.39564788E-01 0.23430546E+02</pdfrwt>
<pdfrwt beam="2">  1       21 0.42657034E-03 0.23430546E+02</pdfrwt>
<totfact> 0.63875048E+07</totfact>
</mgrwt>
</event>
<event>
 4    1  0.7616518E+004  0.2415794E+02  0.7546771E-02  0.1673400E+00
         21   -1    0    0  503  502  0.00000000000E+00  0.00000000000E+00  0.24654414559E+02  0.24654414559E+02  0.00000000000E+00 0. -1.
         21   -1    0    0  501  503 -0.00000000000E+00 -0.00000000000E+00 -0.23745699579E+02  0.23745699579E+02  0.00000000000E+00 0. -1.
          1    1    1    2  501    0  0.16525284086E+02  0.17621602004E+02  0.18075372842E+01  0.24225463099E+02  0.00000000000E+00 0.  1.
         -1    1    1    2    0  502 -0.16525284086E+02 -0.17621602004E+02 -0.89882230335E+00  0.24174651039E+02  0.00000000000E+00 0. -1.
<mgrwt>
<rscale>  2 0.24157936E+02</rscale>
<asrwt>0</asrwt>
<pdfrwt beam="1">  1       21 0.37929868E-02 0.24157936E+02</pdfrwt>
<pdfrwt beam="2">  1       21 0.36531846E-02 0.24157936E+02</pdfrwt>
<totfact> 0.13233441E+08</totfact>
</mgrwt>
</event>
<event>
 4    1  0.7616518E+004  0.2483728E+02  0.7546771E-02  0.1663350E+00
         21   -1    0    0  503  502  0.00000000000E+00  0.00000000000E+00  0.22070378380E+02  0.22070378380E+02  0.00000000000E+00 0. -1.
         21   -1    0    0  501  503 -0.00000000000E+00 -0.00000000000E+00 -0.27978358861E+02  0.27978358861E+02  0.00000000000E+00 0. -1.
          5    1    1    2  501    0  0.14766369624E+02  0.19971100029E+02 -0.37356371248E+01  0.25116637772E+02  0.00000000000E+00 0.  1.
         -5    1    1    2    0  502 -0.14766369624E+02 -0.19971100029E+02 -0.21723433561E+01  0.24932099468E+02  0.00000000000E+00 0. -1.
<mgrwt>
<rscale>  2 0.24837281E+02</rscale>
<asrwt>0</asrwt>
<pdfrwt beam="1">  1       21 0.33954428E-02 0.24837281E+02</pdfrwt>
<pdfrwt beam="2">  1       21 0.43043629E-02 0.24837281E+02</pdfrwt>
<totfact> 0.12252022E+08</totfact>
</mgrwt>
</event>
<event>
 4    1  0.7616518E+004  0.3608149E+02  0.7546771E-02  0.1539201E+00
         21   -1    0    0  501  502  0.00000000000E+00  0.00000000000E+00  0.44817208238E+03  0.44817208238E+03  0.00000000000E+00 0.  1.
         21   -1    0    0  502  503 -0.00000000000E+00 -0.00000000000E+00 -0.32252996078E+01  0.32252996078E+01  0.00000000000E+00 0.  1.
          3    1    1    2  501    0  0.25302872475E+02 -0.25722341058E+02  0.15133212444E+03  0.15557405334E+03  0.00000000000E+00 0.  1.
         -3    1    1    2    0  503 -0.25302872475E+02  0.25722341058E+02  0.29361465834E+03  0.29582332865E+03  0.00000000000E+00 0. -1.
<mgrwt>
<rscale>  2 0.36081494E+02</rscale>
<asrwt>0</asrwt>
<pdfrwt beam="1">  1       21 0.68949502E-01 0.36081494E+02</pdfrwt>
<pdfrwt beam="2">  1       21 0.49620029E-03 0.36081494E+02</pdfrwt>
<totfact> 0.18498338E+07</totfact>
</mgrwt>
</event>
<event>
 4    1  0.7616518E+004  0.2972773E+02  0.7546771E-02  0.1601118E+00
         21   -1    0    0  501  502  0.00000000000E+00  0.00000000000E+00  0.24147694563E+03  0.24147694563E+03  0.00000000000E+00 0. -1.
         21   -1    0    0  502  503 -0.00000000000E+00 -0.00000000000E+00 -0.37885037732E+01  0.37885037732E+01  0.00000000000E+00 0. -1.
          5    1    1    2  501    0 -0.28297701776E+02  0.91092291562E+01  0.96234080027E+02  0.10072108091E+03  0.00000000000E+00 0. -1.
         -5    1    1    2    0  503  0.28297701776E+02 -0.91092291562E+01  0.14145436183E+03  0.14454436849E+03  0.00000000000E+00 0.  1.
<mgrwt>
<rscale>  2 0.29727731E+02</rscale>
<asrwt>0</asrwt>
<pdfrwt beam="1">  1       21 0.37150287E-01 0.29727731E+02</pdfrwt>
<pdfrwt beam="2">  1       21 0.58284692E-03 0.29727731E+02</pdfrwt>
<totfact> 0.47789263E+07</totfact>
</mgrwt>
</event>
<event>
 4    1  0.7616518E+004  0.2090803E+02  0.7546771E-02  0.1727851E+00
         21   -1    0    0  501  502  0.00000000000E+00  0.00000000000E+00  0.17675944298E+03  0.17675944298E+03  0.00000000000E+00 0. -1.
         21   -1    0    0  502  503 -0.00000000000E+00 -0.00000000000E+00 -0.38352895096E+01  0.38352895096E+01  0.00000000000E+00 0. -1.
          4    1    1    2  501    0 -0.20375732555E+02  0.46877756501E+01  0.32648355626E+02  0.38769328635E+02  0.00000000000E+00 0.  1.
         -4    1    1    2    0  503  0.20375732555E+02 -0.46877756501E+01  0.14027579784E+03  0.14182540385E+03  0.00000000000E+00 0. -1.
<mgrwt>
<rscale>  2 0.20908030E+02</rscale>
<asrwt>0</asrwt>
<pdfrwt beam="1">  1       21 0.27193754E-01 0.20908030E+02</pdfrwt>
<pdfrwt beam="2">  1       21 0.59004468E-03 0.20908030E+02</pdfrwt>
<totfact> 0.76539976E+07</totfact>
</mgrwt>
</event>
<event>
 4    1  0.7616518E+004  0.2521261E+02  0.7546771E-02  0.1657967E+00
         21   -1    0    0  501  502  0.00000000000E+00  0.00000000000E+00  0.40148671134E+02  0.40148671134E+02  0.00000000000E+00 0. -1.
         21   -1    0    0  502  503 -0.00000000000E+00 -0.00000000000E+00 -0.17542960454E+02  0.17542960454E+02  0.00000000000E+00 0. -1.
          5    1    1    2  501    0 -0.19769467995E+02  0.15647480977E+02  0.20308593310E+02  0.32374596337E+02  0.00000000000E+00 0. -1.
         -5    1    1    2    0  503  0.19769467995E+02 -0.15647480977E+02  0.22971173691E+01  0.25317035252E+02  0.00000000000E+00 0.  1.
<mgrwt>
<rscale>  2 0.25212606E+02</rscale>
<asrwt>0</asrwt>
<pdfrwt beam="1">  1       21 0.61767186E-02 0.25212606E+02</pdfrwt>
<pdfrwt beam="2">  1       21 0.26989170E-02 0.25212606E+02</pdfrwt>
<totfact> 0.98825252E+07</totfact>
</mgrwt>
</event>
<event>
 4    1  0.7616518E+004  0.2393080E+02  0.7546771E-02  0.1676852E+00
         21   -1    0    0  503  502  0.00000000000E+00  0.00000000000E+00  0.11747383468E+02  0.11747383468E+02  0.00000000000E+00 0.  1.
         21   -1    0    0  501  503 -0.00000000000E+00 -0.00000000000E+00 -0.51606688507E+02  0.51606688507E+02  0.00000000000E+00 0.  1.
          3    1    1    2  501    0 -0.22410120159E+02  0.83946098129E+01 -0.12476571765E+02  0.26987919565E+02  0.00000000000E+00 0. -1.
         -3    1    1    2    0  502  0.22410120159E+02 -0.83946098129E+01 -0.27382733274E+02  0.36366152409E+02  0.00000000000E+00 0.  1.
<mgrwt>
<rscale>  2 0.23930795E+02</rscale>
<asrwt>0</asrwt>
<pdfrwt beam="1">  1       21 0.18072897E-02 0.23930795E+02</pdfrwt>
<pdfrwt beam="2">  1       21 0.79394908E-02 0.23930795E+02</pdfrwt>
<totfact> 0.12032752E+08</totfact>
</mgrwt>
</event>
<event>
 4    1  0.7616518E+004  0.3442494E+02  0.7546771E-02  0.1553767E+00
         21   -1    0    0  501  502  0.00000000000E+00  0.00000000000E+00  0.38124705652E+01  0.38124705652E+01  0.00000000000E+00 0. -1.
         21   -1    0    0  502  503 -0.00000000000E+00 -0.00000000000E+00 -0.31091573559E+03  0.31091573559E+03  0.00000000000E+00 0. -1.
          3    1    1    2  501    0  0.29312006925E+02  0.18052228915E+02 -0.15113145114E+03  0.15500255560E+03  0.00000000000E+00 0.  1.
         -3    1    1    2    0  503 -0.29312006925E+02 -0.18052228915E+02 -0.15597181388E+03  0.15972565055E+03  0.00000000000E+00 0. -1.
<mgrwt>
<rscale>  2 0.34424943E+02</rscale>
<asrwt>0</asrwt>
<pdfrwt beam="1">  1       21 0.58653389E-03 0.34424943E+02</pdfrwt>
<pdfrwt beam="2">  1       21 0.47833194E-01 0.34424943E+02</pdfrwt>
<totfact> 0.29925336E+07</totfact>
</mgrwt>
</event>
<event>
 4    1  0.7616518E+004  0.3279687E+02  0.7546771E-02  0.1569083E+00
         21   -1    0    0  501  502  0.00000000000E+00  0.00000000000E+00  0.34716576104E+02  0.34716576104E+02  0.00000000000E+00 0.  1.
         21   -1    0    0  502  503 -0.00000000000E+00 -0.00000000000E+00 -0.34069414863E+02  0.34069414863E+02  0.00000000000E+00 0.  1.
          3    1    1    2  501    0 -0.22449940256E+02 -0.23908892689E+02 -0.10027648833E+02  0.34295607710E+02  0.00000000000E+00 0. -1.
         -3    1    1    2    0  503  0.22449940256E+02  0.23908892689E+02  0.10674810075E+02  0.34490383257E+02  0.00000000000E+00 0.  1.
<mgrwt>
<rscale>  2 0.32796874E+02</rscale>
<asrwt>0</asrwt>
<pdfrwt beam="1">  1       21 0.53410117E-02 0.32796874E+02</pdfrwt>
<pdfrwt beam="2">  1       21 0.52414484E-02 0.32796874E+02</pdfrwt>
<totfact> 0.46472159E+07</totfact>
</mgrwt>
</event>
<event>
 4    1  0.7616518E+004  0.2195876E+02  0.7546771E-02  0.1708966E+00
         21   -1    0    0  503  502  0.00000000000E+00  0.00000000000E+00  0.57831843990E+02  0.57831843990E+02  0.00000000000E+00 0.  1.
         21   -1    0    0  501  503 -0.00000000000E+00 -0.00000000000E+00 -0.94951854852E+01  0.94951854852E+01  0.00000000000E+00 0.  1.
          2    1    1    2  501    0 -0.95770714358E+01 -0.19760237031E+02  0.12415112323E+02  0.25225429209E+02  0.00000000000E+00 0. -1.
         -2    1    1    2    0  502  0.95770714358E+01  0.19760237031E+02  0.35921546182E+02  0.42101600266E+02  0.00000000000E+00 0.  1.
<mgrwt>
<rscale>  2 0.21958763E+02</rscale>
<asrwt>0</asrwt>
<pdfrwt beam="1">  1       21 0.88972065E-02 0.21958763E+02</pdfrwt>
<pdfrwt beam="2">  1       21 0.14607978E-02 0.21958763E+02</pdfrwt>
<totfact> 0.13466640E+08</totfact>
</mgrwt>
</event>
<event>
 4    1  0.7616518E+004  0.2012931E+02  0.7546771E-02  0.1742769E+00
         21   -1    0    0  501  502  0.00000000000E+00  0.00000000000E+00  0.57525179614E+01  0.57525179614E+01  0.00000000000E+00 0. -1.
         21   -1    0    0  502  503 -0.00000000000E+00 -0.00000000000E+00 -0.71218298509E+02  0.71218298509E+02  0.00000000000E+00 0. -1.
          1    1    1    2  501    0  0.12360405352E+02 -0.15887397974E+02 -0.28701446337E+02  0.35056555117E+02  0.00000000000E+00 0.  1.
         -1    1    1    2    0  503 -0.12360405352E+02  0.15887397974E+02 -0.36764334211E+02  0.41914261353E+02  0.00000000000E+00 0. -1.
<mgrwt>
<rscale>  2 0.20129308E+02</rscale>
<asrwt>0</asrwt>
<pdfrwt beam="1">  1       21 0.88500275E-03 0.20129308E+02</pdfrwt>
<pdfrwt beam="2">  1       21 0.10956662E-01 0.20129308E+02</pdfrwt>
<totfact> 0.19755964E+08</totfact>
</mgrwt>
</event>
<event>
 4    1  0.7616518E+004  0.2855100E+02  0.7546771E-02  0.1614681E+00
         21   -1    0    0  501  502  0.00000000000E+00  0.00000000000E+00  0.42318911140E+02  0.42318911140E+02  0.00000000000E+00 0. -1.
         21   -1    0    0  502  503 -0.00000000000E+00 -0.00000000000E+00 -0.28113319026E+02  0.28113319026E+02  0.00000000000E+00 0. -1.
          4    1    1    2  501    0  0.66532921061E+01 -0.27764968513E+02  0.26862566695E+02  0.39201495658E+02  0.00000000000E+00 0. -1.
         -4    1    1    2    0  503 -0.66532921061E+01  0.27764968513E+02 -0.12656974581E+02  0.31230734509E+02  0.00000000000E+00 0.  1.
<mgrwt>
<rscale>  2 0.28551003E+02</rscale>
<asrwt>0</asrwt>
<pdfrwt beam="1">  1       21 0.65106017E-02 0.28551003E+02</pdfrwt>
<pdfrwt beam="2">  1       21 0.43251260E-02 0.28551003E+02</pdfrwt>
<totfact> 0.44528523E+07</totfact>
</mgrwt>
</event>
<event>
 4    1  0.7616518E+004  0.2079132E+02  0.7546771E-02  0.1730035E+00
         21   -1    0    0  501  502  0.00000000000E+00  0.00000000000E+00  0.70352778906E+02  0.70352778906E+02  0.00000000000E+00 0.  1.
         21   -1    0    0  502  503 -0.00000000000E+00 -0.00000000000E+00 -0.85765731427E+01  0.85765731427E+01  0.00000000000E+00 0.  1.
          4    1    1    2  501    0 -0.20774467895E+02  0.83704449101E+00  0.98723772777E+01  0.23016146352E+02  0.00000000000E+00 0. -1.
         -4    1    1    2    0  503  0.20774467895E+02 -0.83704449101E+00  0.51903828486E+02  0.55913205697E+02  0.00000000000E+00 0.  1.
<mgrwt>
<rscale>  2 0.20791324E+02</rscale>
<asrwt>0</asrwt>
<pdfrwt beam="1">  1       21 0.10823504E-01 0.20791324E+02</pdfrwt>
<pdfrwt beam="2">  1       21 0.13194728E-02 0.20791324E+02</pdfrwt>
<totfact> 0.11190293E+08</totfact>
</mgrwt>
</event>
<event>
 4    1  0.7616518E+004  0.2019455E+02  0.7546771E-02  0.1741487E+00
         21   -1    0    0  503  502  0.00000000000E+00  0.00000000000E+00  0.91524600799E+02  0.91524600799E+02  0.00000000000E+00 0.  1.
         21   -1    0    0  501  503 -0.00000000000E+00 -0.00000000000E+00 -0.44605159352E+01  0.44605159352E+01  0.00000000000E+00 0.  1.
          2    1    1    2  501    0 -0.36258599249E+01 -0.19866380047E+02  0.41979875025E+02  0.46584652231E+02  0.00000000000E+00 0. -1.
         -2    1    1    2    0  502  0.36258599249E+01  0.19866380047E+02  0.45084209839E+02  0.49400464503E+02  0.00000000000E+00 0.  1.
<mgrwt>
<rscale>  2 0.20194552E+02</rscale>
<asrwt>0</asrwt>
<pdfrwt beam="1">  1       21 0.14080706E-01 0.20194552E+02</pdfrwt>
<pdfrwt beam="2">  1       21 0.68623329E-03 0.20194552E+02</pdfrwt>
<totfact> 0.18981330E+08</totfact>
</mgrwt>
</event>
<event>
 4    1  0.7616518E+004  0.2527931E+02  0.7546771E-02  0.1657022E+00
         21   -1    0    0  503  502  0.00000000000E+00  0.00000000000E+00  0.51599260841E+03  0.51599260841E+03  0.00000000000E+00 0. -1.
         21   -1    0    0  501  503 -0.00000000000E+00 -0.00000000000E+00 -0.36499909261E+01  0.36499909261E+01  0.00000000000E+00 0. -1.
          4    1    1    2  501    0  0.19940537090E+01 -0.25200543197E+02  0.44981001902E+02  0.51597811579E+02  0.00000000000E+00 0. -1.
         -4    1    1    2    0  502 -0.19940537090E+01  0.25200543197E+02  0.46736161558E+03  0.46804478775E+03  0.00000000000E+00 0.  1.
<mgrwt>
<rscale>  2 0.25279312E+02</rscale>
<asrwt>0</asrwt>
<pdfrwt beam="1">  1       21 0.79383421E-01 0.25279312E+02</pdfrwt>
<pdfrwt beam="2">  1       21 0.56153747E-03 0.25279312E+02</pdfrwt>
<totfact> 0.10841042E+07</totfact>
</mgrwt>
</event>
<event>
 4    1  0.7616518E+004  0.2180207E+02  0.7546771E-02  0.1711698E+00
         21   -1    0    0  501  502  0.00000000000E+00  0.00000000000E+00  0.83316484415E+01  0.83316484415E+01  0.00000000000E+00 0.  1.
         21   -1    0    0  502  503 -0.00000000000E+00 -0.00000000000E+00 -0.57795632015E+02  0.57795632015E+02  0.00000000000E+00 0.  1.
          2    1    1    2  501    0 -0.99793584237E+01 -0.19384085408E+02 -0.20979480759E+02  0.30256717842E+02  0.00000000000E+00 0. -1.
         -2    1    1    2    0  503  0.99793584237E+01  0.19384085408E+02 -0.28484502814E+02  0.35870562614E+02  0.00000000000E+00 0.  1.
<mgrwt>
<rscale>  2 0.21802072E+02</rscale>
<asrwt>0</asrwt>
<pdfrwt beam="1">  1       21 0.12817921E-02 0.21802072E+02</pdfrwt>
<pdfrwt beam="2">  1       21 0.88916358E-02 0.21802072E+02</pdfrwt>
<totfact> 0.16392950E+08</totfact>
</mgrwt>
</event>
<event>
 4    1  0.7616518E+004  0.2168011E+02  0.7546771E-02  0.1713844E+00
         21   -1    0    0  501  502  0.00000000000E+00  0.00000000000E+00  0.33645735613E+01  0.33645735613E+01  0.00000000000E+00 0. -1.
         21   -1    0    0  502  503 -0.00000000000E+00 -0.00000000000E+00 -0.16797773865E+03  0.16797773865E+03  0.00000000000E+00 0. -1.
          2    1    1    2  501    0 -0.11447645888E+02 -0.18411372706E+02 -0.11745773039E+03  0.11944180872E+03  0.00000000000E+00 0.  1.
         -2    1    1    2    0  503  0.11447645888E+02  0.18411372706E+02 -0.47155434698E+02  0.51900503493E+02  0.00000000000E+00 0. -1.
<mgrwt>
<rscale>  2 0.21680112E+02</rscale>
<asrwt>0</asrwt>
<pdfrwt beam="1">  1       21 0.51762657E-03 0.21680112E+02</pdfrwt>
<pdfrwt beam="2">  1       21 0.25842736E-01 0.21680112E+02</pdfrwt>
<totfact> 0.10271051E+08</totfact>
</mgrwt>
</event>
<event>
 4    1  0.7616518E+004  0.2072634E+02  0.7546771E-02  0.1731258E+00
         21   -1    0    0  503  502  0.00000000000E+00  0.00000000000E+00  0.93366605436E+02  0.93366605436E+02  0.00000000000E+00 0. -1.
         21   -1    0    0  501  503 -0.00000000000E+00 -0.00000000000E+00 -0.59733982615E+01  0.59733982615E+01  0.00000000000E+00 0. -1.
          4    1    1    2  501    0  0.20465146013E+02  0.32800683666E+01  0.67504516219E+02  0.70614734721E+02  0.00000000000E+00 0. -1.
         -4    1    1    2    0  502 -0.20465146013E+02 -0.32800683666E+01  0.19888690955E+02  0.28725268976E+02  0.00000000000E+00 0.  1.
<mgrwt>
<rscale>  2 0.20726337E+02</rscale>
<asrwt>0</asrwt>
<pdfrwt beam="1">  1       21 0.14364092E-01 0.20726337E+02</pdfrwt>
<pdfrwt beam="2">  1       21 0.91898442E-03 0.20726337E+02</pdfrwt>
<totfact> 0.11985636E+08</totfact>
</mgrwt>
</event>
<event>
 4    1  0.7616518E+004  0.2182505E+02  0.7546771E-02  0.1711295E+00
         21   -1    0    0  501  502  0.00000000000E+00  0.00000000000E+00  0.61443994626E+00  0.61443994626E+00  0.00000000000E+00 0. -1.
         21   -1    0    0  502  503 -0.00000000000E+00 -0.00000000000E+00 -0.79288957529E+03  0.79288957529E+03  0.00000000000E+00 0. -1.
          4    1    1    2  501    0  0.11438430910E+02  0.18587497776E+02 -0.45534728480E+03  0.45587002814E+03  0.00000000000E+00 0. -1.
         -4    1    1    2    0  503 -0.11438430910E+02 -0.18587497776E+02 -0.33692785054E+03  0.33763398710E+03  0.00000000000E+00 0.  1.
<mgrwt>
<rscale>  2 0.21825049E+02</rscale>
<asrwt>0</asrwt>
<pdfrwt beam="1">  1       21 0.94529585E-04 0.21825049E+02</pdfrwt>
<pdfrwt beam="2">  1       21 0.12198254E+00 0.21825049E+02</pdfrwt>
<totfact> 0.54668923E+07</totfact>
</mgrwt>
</event>
<event>
 4    1  0.7616518E+004  0.3186208E+02  0.7546771E-02  0.1578373E+00
         21   -1    0    0  501  502  0.00000000000E+00  0.00000000000E+00  0.47990908465E+02  0.47990908465E+02  0.00000000000E+00 0. -1.
         21   -1    0    0  502  503 -0.00000000000E+00 -0.00000000000E+00 -0.29222990229E+02  0.29222990229E+02  0.00000000000E+00 0. -1.
          2    1    1    2  501    0  0.30359040590E+02  0.96706257233E+01  0.29670914059E+02  0.43537977543E+02  0.00000000000E+00 0.  1.
         -2    1    1    2    0  503 -0.30359040590E+02 -0.96706257233E+01 -0.10902995823E+02  0.33675921151E+02  0.00000000000E+00 0. -1.
<mgrwt>
<rscale>  2 0.31862083E+02</rscale>
<asrwt>0</asrwt>
<pdfrwt beam="1">  1       21 0.73832167E-02 0.31862083E+02</pdfrwt>
<pdfrwt beam="2">  1       21 0.44958447E-02 0.31862083E+02</pdfrwt>
<totfact> 0.34874123E+07</totfact>
</mgrwt>
</event>
<event>
 4    1  0.7616518E+004  0.2081620E+02  0.7546771E-02  0.1729568E+00
         21   -1    0    0  501  502  0.00000000000E+00  0.00000000000E+00  0.13007493656E+03  0.13007493656E+03  0.00000000000E+00 0.  1.
         21   -1    0    0  502  503 -0.00000000000E+00 -0.00000000000E+00 -0.34939058573E+01  0.34939058573E+01  0.00000000000E+00 0.  1.
          1    1    1    2  501    0 -0.10566886433E+02  0.17934746570E+02  0.48881544627E+02  0.53129272803E+02  0.00000000000E+00 0. -1.
         -1    1    1    2    0  503  0.10566886433E+02 -0.17934746570E+02  0.77699486079E+02  0.80439569618E+02  0.00000000000E+00 0.  1.
<mgrwt>
<rscale>  2 0.20816201E+02</rscale>
<asrwt>0</asrwt>
<pdfrwt beam="1">  1       21 0.20011525E-01 0.20816201E+02</pdfrwt>
<pdfrwt beam="2">  1       21 0.53752408E-03 0.20816201E+02</pdfrwt>
<totfact> 0.15062522E+08</totfact>
</mgrwt>
</event>
<event>
 4    1  0.7616518E+004  0.2177355E+02  0.7546771E-02  0.1712198E+00
         21   -1    0    0  501  502  0.00000000000E+00  0.00000000000E+00  0.11396442769E+02  0.11396442769E+02  0.00000000000E+00 0. -1.
         21   -1    0    0  502  503 -0.00000000000E+00 -0.00000000000E+00 -0.48652982834E+02  0.48652982834E+02  0.00000000000E+00 0. -1.
          1    1    1    2  501    0  0.13076973770E+02 -0.17409195974E+02 -0.30060294894E+02  0.37117498253E+02  0.00000000000E+00 0.  1.
         -1    1    1    2    0  503 -0.13076973770E+02  0.17409195974E+02 -0.71962451712E+01  0.22931927350E+02  0.00000000000E+00 0. -1.
<mgrwt>
<rscale>  2 0.21773547E+02</rscale>
<asrwt>0</asrwt>
<pdfrwt beam="1">  1       21 0.17532989E-02 0.21773547E+02</pdfrwt>
<pdfrwt beam="2">  1       21 0.74850741E-02 0.21773547E+02</pdfrwt>
<totfact> 0.13489427E+08</totfact>
</mgrwt>
</event>
<event>
 4    1  0.7616518E+004  0.2204171E+02  0.7546771E-02  0.1707532E+00
         21   -1    0    0  501  502  0.00000000000E+00  0.00000000000E+00  0.95671901598E+03  0.95671901598E+03  0.00000000000E+00 0.  1.
         21   -1    0    0  502  503 -0.00000000000E+00 -0.00000000000E+00 -0.52529914573E+00  0.52529914573E+00  0.00000000000E+00 0.  1.
          4    1    1    2  501    0  0.65029447606E+01  0.21060595145E+02  0.56541463878E+03  0.56584410460E+03  0.00000000000E+00 0.  1.
         -4    1    1    2    0  503 -0.65029447606E+01 -0.21060595145E+02  0.39077907805E+03  0.39140021053E+03  0.00000000000E+00 0. -1.
<mgrwt>
<rscale>  2 0.22041710E+02</rscale>
<asrwt>0</asrwt>
<pdfrwt beam="1">  1       21 0.14718615E+00 0.22041710E+02</pdfrwt>
<pdfrwt beam="2">  1       21 0.80816019E-04 0.22041710E+02</pdfrwt>
<totfact> 0.44339799E+07</totfact>
</mgrwt>
</event>
<event>
 4    1  0.7616518E+004  0.2216231E+02  0.7546771E-02  0.1705460E+00
         21   -1    0    0  501  502  0.00000000000E+00  0.00000000000E+00  0.95046791197E+02  0.95046791197E+02  0.00000000000E+00 0.  1.
         21   -1    0    0  502  503 -0.00000000000E+00 -0.00000000000E+00 -0.52050986247E+01  0.52050986247E+01  0.00000000000E+00 0.  1.
          2    1    1    2  501    0 -0.79656068721E+01  0.20681322555E+02  0.40668781357E+02  0.46315416144E+02  0.00000000000E+00 0.  1.
         -2    1    1    2    0  503  0.79656068721E+01 -0.20681322555E+02  0.49172911215E+02  0.53936473679E+02  0.00000000000E+00 0. -1.
<mgrwt>
<rscale>  2 0.22162310E+02</rscale>
<asrwt>0</asrwt>
<pdfrwt beam="1">  1       21 0.14622582E-01 0.22162310E+02</pdfrwt>
<pdfrwt beam="2">  1       21 0.80078448E-03 0.22162310E+02</pdfrwt>
<totfact> 0.14566167E+08</totfact>
</mgrwt>
</event>
<event>
 4    1  0.7616518E+004  0.2484131E+02  0.7546771E-02  0.1663292E+00
         21   -1    0    0  503  502  0.00000000000E+00  0.00000000000E+00  0.51984386551E+02  0.51984386551E+02  0.00000000000E+00 0.  1.
         21   -1    0    0  501  503 -0.00000000000E+00 -0.00000000000E+00 -0.14380616047E+02  0.14380616047E+02  0.00000000000E+00 0.  1.
          4    1    1    2  501    0 -0.22723437771E+02 -0.10036746571E+02  0.49391086594E+01  0.25327567988E+02  0.00000000000E+00 0.  1.
         -4    1    1    2    0  502  0.22723437771E+02  0.10036746571E+02  0.32664661845E+02  0.41037434609E+02  0.00000000000E+00 0. -1.
<mgrwt>
<rscale>  2 0.24841314E+02</rscale>
<asrwt>0</asrwt>
<pdfrwt beam="1">  1       21 0.79975978E-02 0.24841314E+02</pdfrwt>
<pdfrwt beam="2">  1       21 0.22124025E-02 0.24841314E+02</pdfrwt>
<totfact> 0.88024794E+07</totfact>
</mgrwt>
</event>
<event>
 4    1  0.7616518E+004  0.2133825E+02  0.7546771E-02  0.1719954E+00
         21   -1    0    0  503  502  0.00000000000E+00  0.00000000000E+00  0.11563654158E+02  0.11563654158E+02  0.00000000000E+00 0.  1.
         21   -1    0    0  501  503 -0.00000000000E+00 -0.00000000000E+00 -0.42439111968E+02  0.42439111968E+02  0.00000000000E+00 0.  1.
          1    1    1    2  501    0 -0.16733846738E+02  0.13240058302E+02 -0.22692832377E+02  0.31149404678E+02  0.00000000000E+00 0.  1.
         -1    1    1    2    0  502  0.16733846738E+02 -0.13240058302E+02 -0.81826254332E+01  0.22853361448E+02  0.00000000000E+00 0. -1.
<mgrwt>
<rscale>  2 0.21338247E+02</rscale>
<asrwt>0</asrwt>
<pdfrwt beam="1">  1       21 0.17790237E-02 0.21338247E+02</pdfrwt>
<pdfrwt beam="2">  1       21 0.65290941E-02 0.21338247E+02</pdfrwt>
<totfact> 0.16349806E+08</totfact>
</mgrwt>
</event>
<event>
 4    1  0.7616518E+004  0.2143318E+02  0.7546771E-02  0.1718243E+00
         21   -1    0    0  501  502  0.00000000000E+00  0.00000000000E+00  0.34573525909E+01  0.34573525909E+01  0.00000000000E+00 0. -1.
         21   -1    0    0  502  503 -0.00000000000E+00 -0.00000000000E+00 -0.13840929362E+03  0.13840929362E+03  0.00000000000E+00 0. -1.
          3    1    1    2  501    0  0.16803301013E+02  0.13305270131E+02 -0.53286562946E+02  0.57435519749E+02  0.00000000000E+00 0. -1.
         -3    1    1    2    0  503 -0.16803301013E+02 -0.13305270131E+02 -0.81665378081E+02  0.84431126460E+02  0.00000000000E+00 0.  1.
<mgrwt>
<rscale>  2 0.21433178E+02</rscale>
<asrwt>0</asrwt>
<pdfrwt beam="1">  1       21 0.53190034E-03 0.21433178E+02</pdfrwt>
<pdfrwt beam="2">  1       21 0.21293740E-01 0.21433178E+02</pdfrwt>
<totfact> 0.13846605E+08</totfact>
</mgrwt>
</event>
<event>
 4    1  0.7616518E+004  0.2268541E+02  0.7546771E-02  0.1696661E+00
         21   -1    0    0  501  502  0.00000000000E+00  0.00000000000E+00  0.22519974128E+02  0.22519974128E+02  0.00000000000E+00 0.  1.
         21   -1    0    0  502  503 -0.00000000000E+00 -0.00000000000E+00 -0.23877371367E+02  0.23877371367E+02  0.00000000000E+00 0.  1.
          2    1    1    2  501    0  0.22119672149E+02  0.50346527269E+01  0.41285814185E+01  0.23058031325E+02  0.00000000000E+00 0. -1.
         -2    1    1    2    0  503 -0.22119672149E+02 -0.50346527269E+01 -0.54859786581E+01  0.23339314170E+02  0.00000000000E+00 0.  1.
<mgrwt>
<rscale>  2 0.22685406E+02</rscale>
<asrwt>0</asrwt>
<pdfrwt beam="1">  1       21 0.34646114E-02 0.22685406E+02</pdfrwt>
<pdfrwt beam="2">  1       21 0.36734417E-02 0.22685406E+02</pdfrwt>
<totfact> 0.14839839E+08</totfact>
</mgrwt>
</event>
<event>
 4    1  0.7616518E+004  0.2055383E+02  0.7546771E-02  0.1734534E+00
         21   -1    0    0  501  502  0.00000000000E+00  0.00000000000E+00  0.39281532511E+02  0.39281532511E+02  0.00000000000E+00 0.  1.
         21   -1    0    0  502  503 -0.00000000000E+00 -0.00000000000E+00 -0.10959926793E+02  0.10959926793E+02  0.00000000000E+00 0.  1.
          2    1    1    2  501    0 -0.38586985230E+01 -0.20188374188E+02  0.17598557198E+02  0.27058625651E+02  0.00000000000E+00 0.  1.
         -2    1    1    2    0  503  0.38586985230E+01  0.20188374188E+02  0.10723048520E+02  0.23182833653E+02  0.00000000000E+00 0. -1.
<mgrwt>
<rscale>  2 0.20553832E+02</rscale>
<asrwt>0</asrwt>
<pdfrwt beam="1">  1       21 0.60433126E-02 0.20553832E+02</pdfrwt>
<pdfrwt beam="2">  1       21 0.16861426E-02 0.20553832E+02</pdfrwt>
<totfact> 0.19845737E+08</totfact>
</mgrwt>
</event>
<event>
 4    1  0.7616518E+004  0.2034303E+02  0.7546771E-02  0.1738591E+00
         21   -1    0    0  501  502  0.00000000000E+00  0.00000000000E+00  0.78323129146E+02  0.78323129146E+02  0.00000000000E+00 0. -1.
         21   -1    0    0  502  503 -0.00000000000E+00 -0.00000000000E+00 -0.59622703807E+01  0.59622703807E+01  0.00000000000E+00 0. -1.
          3    1    1    2  501    0  0.20341242446E+02 -0.26962095992E+00  0.21963623605E+02  0.29937261090E+02  0.00000000000E+00 0.  1.
         -3    1    1    2    0  503 -0.20341242446E+02  0.26962095992E+00  0.50397235161E+02  0.54348138437E+02  0.00000000000E+00 0. -1.
<mgrwt>
<rscale>  2 0.20343029E+02</rscale>
<asrwt>0</asrwt>
<pdfrwt beam="1">  1       21 0.12049711E-01 0.20343029E+02</pdfrwt>
<pdfrwt beam="2">  1       21 0.91727242E-03 0.20343029E+02</pdfrwt>
<totfact> 0.16048153E+08</totfact>
</mgrwt>
</event>
<event>
 4    1  0.7616518E+004  0.2306560E+02  0.7546771E-02  0.1690449E+00
         21   -1    0    0  503  502  0.00000000000E+00  0.00000000000E+00  0.62844500758E+03  0.62844500758E+03  0.00000000000E+00 0. -1.
         21   -1    0    0  501  503 -0.00000000000E+00 -0.00000000000E+00 -0.11257967652E+01  0.11257967652E+01  0.00000000000E+00 0. -1.
          4    1    1    2  501    0 -0.13968960561E+02 -0.18354567684E+02  0.47042996162E+03  0.47099508575E+03  0.00000000000E+00 0. -1.
         -4    1    1    2    0  502  0.13968960561E+02  0.18354567684E+02  0.15688924920E+03  0.15857571859E+03  0.00000000000E+00 0.  1.
<mgrwt>
<rscale>  2 0.23065602E+02</rscale>
<asrwt>0</asrwt>
<pdfrwt beam="1">  1       21 0.96683567E-01 0.23065602E+02</pdfrwt>
<pdfrwt beam="2">  1       21 0.17320001E-03 0.23065602E+02</pdfrwt>
<totfact> 0.38998662E+07</totfact>
</mgrwt>
</event>
<event>
 4    1  0.7616518E+004  0.2091374E+02  0.7546771E-02  0.1727745E+00
         21   -1    0    0  503  502  0.00000000000E+00  0.00000000000E+00  0.15937946256E+02  0.15937946256E+02  0.00000000000E+00 0.  1.
         21   -1    0    0  501  503 -0.00000000000E+00 -0.00000000000E+00 -0.27444158834E+02  0.27444158834E+02  0.00000000000E+00 0.  1.
          3    1    1    2  501    0 -0.14098746941E+02  0.15446996840E+02 -0.56095756134E+01  0.21652983980E+02  0.00000000000E+00 0. -1.
         -3    1    1    2    0  502  0.14098746941E+02 -0.15446996840E+02 -0.58966369641E+01  0.21729121109E+02  0.00000000000E+00 0.  1.
<mgrwt>
<rscale>  2 0.20913737E+02</rscale>
<asrwt>0</asrwt>
<pdfrwt beam="1">  1       21 0.24519917E-02 0.20913737E+02</pdfrwt>
<pdfrwt beam="2">  1       21 0.42221783E-02 0.20913737E+02</pdfrwt>
<totfact> 0.19880168E+08</totfact>
</mgrwt>
</event>
<event>
 4    1  0.7616518E+004  0.2085585E+02  0.7546771E-02  0.1728825E+00
         21   -1    0    0  503  502  0.00000000000E+00  0.00000000000E+00  0.16568013879E+02  0.16568013879E+02  0.00000000000E+00 0.  1.
         21   -1    0    0  501  503 -0.00000000000E+00 -0.00000000000E+00 -0.31738769404E+02  0.31738769404E+02  0.00000000000E+00 0.  1.
          5    1    1    2  501    0 -0.91410142523E+01 -0.18745889724E+02  0.24558411024E+01  0.20999944730E+02  0.00000000000E+00 0.  1.
         -5    1    1    2    0  502  0.91410142523E+01  0.18745889724E+02 -0.17626596628E+02  0.27306838554E+02  0.00000000000E+00 0. -1.
<mgrwt>
<rscale>  2 0.20855851E+02</rscale>
<asrwt>0</asrwt>
<pdfrwt beam="1">  1       21 0.25489253E-02 0.20855851E+02</pdfrwt>
<pdfrwt beam="2">  1       21 0.48828875E-02 0.20855851E+02</pdfrwt>
<totfact> 0.14873509E+08</totfact>
</mgrwt>
</event>
<event>
 4    1  0.7616518E+004  0.2246981E+02  0.7546771E-02  0.1700251E+00
         21   -1    0    0  501  502  0.00000000000E+00  0.00000000000E+00  0.28529466610E+02  0.28529466610E+02  0.00000000000E+00 0.  1.
         21   -1    0    0  502  503 -0.00000000000E+00 -0.00000000000E+00 -0.17865305892E+02  0.17865305892E+02  0.00000000000E+00 0.  1.
          1    1    1    2  501    0  0.21890205613E+02 -0.50706292716E+01  0.75821362283E+01  0.23714577221E+02  0.00000000000E+00 0. -1.
         -1    1    1    2    0  503 -0.21890205613E+02  0.50706292716E+01  0.30820244894E+01  0.22680195280E+02  0.00000000000E+00 0.  1.
<mgrwt>
<rscale>  2 0.22469810E+02</rscale>
<asrwt>0</asrwt>
<pdfrwt beam="1">  1       21 0.43891487E-02 0.22469810E+02</pdfrwt>
<pdfrwt beam="2">  1       21 0.27485086E-02 0.22469810E+02</pdfrwt>
<totfact> 0.16034839E+08</totfact>
</mgrwt>
</event>
<event>
 4    1  0.7616518E+004  0.2442867E+02  0.7546771E-02  0.1669346E+00
         21   -1    0    0  501  502  0.00000000000E+00  0.00000000000E+00  0.37163536488E+02  0.37163536488E+02  0.00000000000E+00 0. -1.
         21   -1    0    0  502  503 -0.00000000000E+00 -0.00000000000E+00 -0.19820935903E+02  0.19820935903E+02  0.00000000000E+00 0. -1.
          1    1    1    2  501    0  0.22480832915E+02  0.95588691530E+01 -0.37437040085E+01  0.24713865495E+02  0.00000000000E+00 0. -1.
         -1    1    1    2    0  503 -0.22480832915E+02 -0.95588691530E+01  0.21086304593E+02  0.32270606896E+02  0.00000000000E+00 0.  1.
<mgrwt>
<rscale>  2 0.24428668E+02</rscale>
<asrwt>0</asrwt>
<pdfrwt beam="1">  1       21 0.57174672E-02 0.24428668E+02</pdfrwt>
<pdfrwt beam="2">  1       21 0.30493748E-02 0.24428668E+02</pdfrwt>
<totfact> 0.91752266E+07</totfact>
</mgrwt>
</event>
<event>
 4    1  0.7616518E+004  0.2496014E+02  0.7546771E-02  0.1661575E+00
         21   -1    0    0  501  502  0.00000000000E+00  0.00000000000E+00  0.18168613494E+01  0.18168613494E+01  0.00000000000E+00 0.  1.
         21   -1    0    0  502  503 -0.00000000000E+00 -0.00000000000E+00 -0.34335243349E+03  0.34335243349E+03  0.00000000000E+00 0.  1.
          5    1    1    2  501    0  0.24547619255E+02  0.45191864298E+01 -0.16452930404E+03  0.16641184016E+03  0.00000000000E+00 0.  1.
         -5    1    1    2    0  503 -0.24547619255E+02 -0.45191864298E+01 -0.17700626809E+03  0.17875745467E+03  0.00000000000E+00 0. -1.
<mgrwt>
<rscale>  2 0.24960141E+02</rscale>
<asrwt>0</asrwt>
<pdfrwt beam="1">  1       21 0.27951731E-03 0.24960141E+02</pdfrwt>
<pdfrwt beam="2">  1       21 0.52823417E-01 0.24960141E+02</pdfrwt>
<totfact> 0.69067582E+07</totfact>
</mgrwt>
</event>
<event>
 4    1  0.7616518E+004  0.3943819E+02  0.7546771E-02  0.1512387E+00
         21   -1    0    0  503  502  0.00000000000E+00  0.00000000000E+00  0.19784990350E+02  0.19784990350E+02  0.00000000000E+00 0. -1.
         21   -1    0    0  501  503 -0.00000000000E+00 -0.00000000000E+00 -0.21161500798E+03  0.21161500798E+03  0.00000000000E+00 0. -1.
          4    1    1    2  501    0 -0.36983745159E+02  0.13695754886E+02 -0.41899297520E+01  0.39660138921E+02  0.00000000000E+00 0. -1.
         -4    1    1    2    0  502  0.36983745159E+02 -0.13695754886E+02 -0.18764008788E+03  0.19173985941E+03  0.00000000000E+00 0.  1.
<mgrwt>
<rscale>  2 0.39438194E+02</rscale>
<asrwt>0</asrwt>
<pdfrwt beam="1">  1       21 0.30438446E-02 0.39438194E+02</pdfrwt>
<pdfrwt beam="2">  1       21 0.32556156E-01 0.39438194E+02</pdfrwt>
<totfact> 0.50486674E+06</totfact>
</mgrwt>
</event>
<event>
 4    1  0.7616518E+004  0.2453280E+02  0.7546771E-02  0.1667805E+00
         21   -1    0    0  503  502  0.00000000000E+00  0.00000000000E+00  0.35811659433E+02  0.35811659433E+02  0.00000000000E+00 0.  1.
         21   -1    0    0  501  503 -0.00000000000E+00 -0.00000000000E+00 -0.26291029811E+02  0.26291029811E+02  0.00000000000E+00 0.  1.
          4    1    1    2  501    0  0.20473158490E+02 -0.13516953530E+02  0.23410844305E+02  0.33910557093E+02  0.00000000000E+00 0.  1.
         -4    1    1    2    0  502 -0.20473158490E+02  0.13516953530E+02 -0.13890214683E+02  0.28192132151E+02  0.00000000000E+00 0. -1.
<mgrwt>
<rscale>  2 0.24532799E+02</rscale>
<asrwt>0</asrwt>
<pdfrwt beam="1">  1       21 0.55094861E-02 0.24532799E+02</pdfrwt>
<pdfrwt beam="2">  1       21 0.40447738E-02 0.24532799E+02</pdfrwt>
<totfact> 0.62543014E+07</totfact>
</mgrwt>
</event>
<event>
 4    1  0.7616518E+004  0.2546985E+02  0.7546771E-02  0.1654344E+00
         21   -1    0    0  503  502  0.00000000000E+00  0.00000000000E+00  0.77966710690E+01  0.77966710690E+01  0.00000000000E+00 0. -1.
         21   -1    0    0  501  503 -0.00000000000E+00 -0.00000000000E+00 -0.85814475423E+02  0.85814475423E+02  0.00000000000E+00 0. -1.
          5    1    1    2  501    0  0.41627887499E+01  0.25127361762E+02 -0.47172636001E+02  0.53609427404E+02  0.00000000000E+00 0. -1.
         -5    1    1    2    0  502 -0.41627887499E+01 -0.25127361762E+02 -0.30845168353E+02  0.40001719088E+02  0.00000000000E+00 0.  1.
<mgrwt>
<rscale>  2 0.25469847E+02</rscale>
<asrwt>0</asrwt>
<pdfrwt beam="1">  1       21 0.11994879E-02 0.25469847E+02</pdfrwt>
<pdfrwt beam="2">  1       21 0.13202226E-01 0.25469847E+02</pdfrwt>
<totfact> 0.98132634E+07</totfact>
</mgrwt>
</event>
<event>
 4    1  0.7616518E+004  0.2641061E+02  0.7546771E-02  0.1641530E+00
         21   -1    0    0  501  502  0.00000000000E+00  0.00000000000E+00  0.12059599556E+04  0.12059599556E+04  0.00000000000E+00 0.  1.
         21   -1    0    0  502  503 -0.00000000000E+00 -0.00000000000E+00 -0.59336937794E+00  0.59336937794E+00  0.00000000000E+00 0.  1.
          2    1    1    2  501    0 -0.41802700376E+01 -0.26077681360E+02  0.50684448329E+03  0.50753211757E+03  0.00000000000E+00 0.  1.
         -2    1    1    2    0  503  0.41802700376E+01  0.26077681360E+02  0.69852210294E+03  0.69902120742E+03  0.00000000000E+00 0. -1.
<mgrwt>
<rscale>  2 0.26410606E+02</rscale>
<asrwt>0</asrwt>
<pdfrwt beam="1">  1       21 0.18553034E+00 0.26410606E+02</pdfrwt>
<pdfrwt beam="2">  1       21 0.91288562E-04 0.26410606E+02</pdfrwt>
<totfact> 0.21853565E+07</totfact>
</mgrwt>
</event>
<event>
 4    1  0.7616518E+004  0.2431625E+02  0.7546771E-02  0.1671022E+00
         21   -1    0    0  501  502  0.00000000000E+00  0.00000000000E+00  0.20352351450E+01  0.20352351450E+01  0.00000000000E+00 0. -1.
         21   -1    0    0  502  503 -0.00000000000E+00 -0.00000000000E+00 -0.31370503412E+03  0.31370503412E+03  0.00000000000E+00 0. -1.
          3    1    1    2  501    0 -0.16084646076E+01  0.24262995431E+02 -0.19875162491E+03  0.20023358487E+03  0.00000000000E+00 0.  1.
         -3    1    1    2    0  503  0.16084646076E+01 -0.24262995431E+02 -0.11291817406E+03  0.11550668439E+03  0.00000000000E+00 0. -1.
<mgrwt>
<rscale>  2 0.24316252E+02</rscale>
<asrwt>0</asrwt>
<pdfrwt beam="1">  1       21 0.31311346E-03 0.24316252E+02</pdfrwt>
<pdfrwt beam="2">  1       21 0.48262257E-01 0.24316252E+02</pdfrwt>
<totfact> 0.69379779E+07</totfact>
</mgrwt>
</event>
<event>
 4    1  0.7616518E+004  0.2494168E+02  0.7546771E-02  0.1661841E+00
         21   -1    0    0  503  502  0.00000000000E+00  0.00000000000E+00  0.25033954514E+02  0.25033954514E+02  0.00000000000E+00 0. -1.
         21   -1    0    0  501  503 -0.00000000000E+00 -0.00000000000E+00 -0.25677883064E+02  0.25677883064E+02  0.00000000000E+00 0. -1.
          4    1    1    2  501    0  0.21855564465E+02  0.12017555562E+02  0.42316013649E+01  0.25298098543E+02  0.00000000000E+00 0.  1.
         -4    1    1    2    0  502 -0.21855564465E+02 -0.12017555562E+02 -0.48755299144E+01  0.25413739035E+02  0.00000000000E+00 0. -1.
<mgrwt>
<rscale>  2 0.24941679E+02</rscale>
<asrwt>0</asrwt>
<pdfrwt beam="1">  1       21 0.38513776E-02 0.24941679E+02</pdfrwt>
<pdfrwt beam="2">  1       21 0.39504435E-02 0.24941679E+02</pdfrwt>
<totfact> 0.11522913E+08</totfact>
</mgrwt>
</event>
<event>
 4    1  0.7616518E+004  0.2199947E+02  0.7546771E-02  0.1708261E+00
         21   -1    0    0  501  502  0.00000000000E+00  0.00000000000E+00  0.36345974525E+03  0.36345974525E+03  0.00000000000E+00 0. -1.
         21   -1    0    0  502  503 -0.00000000000E+00 -0.00000000000E+00 -0.16888917016E+01  0.16888917016E+01  0.00000000000E+00 0. -1.
          2    1    1    2  501    0 -0.12293451349E+02  0.18244118048E+02  0.96908373491E+02  0.99374089390E+02  0.00000000000E+00 0.  1.
         -2    1    1    2    0  503  0.12293451349E+02 -0.18244118048E+02  0.26486248005E+03  0.26577454756E+03  0.00000000000E+00 0. -1.
<mgrwt>
<rscale>  2 0.21999472E+02</rscale>
<asrwt>0</asrwt>
<pdfrwt beam="1">  1       21 0.55916822E-01 0.21999472E+02</pdfrwt>
<pdfrwt beam="2">  1       21 0.25982978E-03 0.21999472E+02</pdfrwt>
<totfact> 0.66603928E+07</totfact>
</mgrwt>
</event>
<event>
 4    1  0.7616518E+004  0.2483803E+02  0.7546771E-02  0.1663339E+00
         21   -1    0    0  503  502  0.00000000000E+00  0.00000000000E+00  0.17346978720E+02  0.17346978720E+02  0.00000000000E+00 0.  1.
         21   -1    0    0  501  503 -0.00000000000E+00 -0.00000000000E+00 -0.46644764294E+02  0.46644764294E+02  0.00000000000E+00 0.  1.
          1    1    1    2  501    0 -0.10809246080E+02  0.22362646844E+02  0.94582609691E+00  0.24856032702E+02  0.00000000000E+00 0.  1.
         -1    1    1    2    0  502  0.10809246080E+02 -0.22362646844E+02 -0.30243611672E+02  0.39135710312E+02  0.00000000000E+00 0. -1.
<mgrwt>
<rscale>  2 0.24838031E+02</rscale>
<asrwt>0</asrwt>
<pdfrwt beam="1">  1       21 0.26687660E-02 0.24838031E+02</pdfrwt>
<pdfrwt beam="2">  1       21 0.71761175E-02 0.24838031E+02</pdfrwt>
<totfact> 0.78560321E+07</totfact>
</mgrwt>
</event>
<event>
 4    1  0.7616518E+004  0.2617094E+02  0.7546771E-02  0.1644731E+00
         21   -1    0    0  501  502  0.00000000000E+00  0.00000000000E+00  0.20673092721E+02  0.20673092721E+02  0.00000000000E+00 0.  1.
         21   -1    0    0  502  503 -0.00000000000E+00 -0.00000000000E+00 -0.33424589856E+02  0.33424589856E+02  0.00000000000E+00 0.  1.
          1    1    1    2  501    0 -0.19695815722E+02 -0.17233480900E+02 -0.89112586608E+01  0.27646492577E+02  0.00000000000E+00 0.  1.
         -1    1    1    2    0  503  0.19695815722E+02  0.17233480900E+02 -0.38402384742E+01  0.26451190000E+02  0.00000000000E+00 0. -1.
<mgrwt>
<rscale>  2 0.26170938E+02</rscale>
<asrwt>0</asrwt>
<pdfrwt beam="1">  1       21 0.31804758E-02 0.26170938E+02</pdfrwt>
<pdfrwt beam="2">  1       21 0.51422445E-02 0.26170938E+02</pdfrwt>
<totfact> 0.10370110E+08</totfact>
</mgrwt>
</event>
<event>
 4    1  0.7616518E+004  0.2635861E+02  0.7546771E-02  0.1642221E+00
         21   -1    0    0  503  502  0.00000000000E+00  0.00000000000E+00  0.23192249096E+02  0.23192249096E+02  0.00000000000E+00 0. -1.
         21   -1    0    0  501  503 -0.00000000000E+00 -0.00000000000E+00 -0.49823880661E+02  0.49823880661E+02  0.00000000000E+00 0. -1.
          1    1    1    2  501    0 -0.24479385992E+02 -0.97742434588E+01 -0.36369060868E+02  0.44916419738E+02  0.00000000000E+00 0. -1.
         -1    1    1    2    0  502  0.24479385992E+02  0.97742434588E+01  0.97374293026E+01  0.28099710019E+02  0.00000000000E+00 0.  1.
<mgrwt>
<rscale>  2 0.26358607E+02</rscale>
<asrwt>0</asrwt>
<pdfrwt beam="1">  1       21 0.35680383E-02 0.26358607E+02</pdfrwt>
<pdfrwt beam="2">  1       21 0.76652124E-02 0.26358607E+02</pdfrwt>
<totfact> 0.45433394E+07</totfact>
</mgrwt>
</event>
<event>
 4    1  0.7616518E+004  0.5562261E+02  0.7546771E-02  0.1417177E+00
         21   -1    0    0  503  502  0.00000000000E+00  0.00000000000E+00  0.45218092085E+02  0.45218092085E+02  0.00000000000E+00 0. -1.
         21   -1    0    0  501  503 -0.00000000000E+00 -0.00000000000E+00 -0.72624500182E+02  0.72624500182E+02  0.00000000000E+00 0. -1.
          2    1    1    2  501    0  0.55246709629E+02  0.64556700000E+01 -0.27878353811E+02  0.62217981413E+02  0.00000000000E+00 0.  1.
         -2    1    1    2    0  502 -0.55246709629E+02 -0.64556700000E+01  0.47194571345E+00  0.55624610854E+02  0.00000000000E+00 0. -1.
<mgrwt>
<rscale>  2 0.55622609E+02</rscale>
<asrwt>0</asrwt>
<pdfrwt beam="1">  1       21 0.69566296E-02 0.55622609E+02</pdfrwt>
<pdfrwt beam="2">  1       21 0.11173000E-01 0.55622609E+02</pdfrwt>
<totfact> 0.92649511E+06</totfact>
</mgrwt>
</event>
<event>
 4    1  0.7616518E+004  0.2294964E+02  0.7546771E-02  0.1692328E+00
         21   -1    0    0  501  502  0.00000000000E+00  0.00000000000E+00  0.40317276049E+01  0.40317276049E+01  0.00000000000E+00 0. -1.
         21   -1    0    0  502  503 -0.00000000000E+00 -0.00000000000E+00 -0.13368222479E+03  0.13368222479E+03  0.00000000000E+00 0. -1.
          3    1    1    2  501    0  0.86435865838E+01  0.21259694532E+02 -0.54429938079E+02  0.59070334009E+02  0.00000000000E+00 0. -1.
         -3    1    1    2    0  503 -0.86435865838E+01 -0.21259694532E+02 -0.75220559106E+02  0.78643618386E+02  0.00000000000E+00 0.  1.
<mgrwt>
<rscale>  2 0.22949645E+02</rscale>
<asrwt>0</asrwt>
<pdfrwt beam="1">  1       21 0.62026578E-03 0.22949645E+02</pdfrwt>
<pdfrwt beam="2">  1       21 0.20566496E-01 0.22949645E+02</pdfrwt>
<totfact> 0.11956598E+08</totfact>
</mgrwt>
</event>
<event>
 4    1  0.7616518E+004  0.2834210E+02  0.7546771E-02  0.1617172E+00
         21   -1    0    0  503  502  0.00000000000E+00  0.00000000000E+00  0.10229751289E+04  0.10229751289E+04  0.00000000000E+00 0. -1.
         21   -1    0    0  501  503 -0.00000000000E+00 -0.00000000000E+00 -0.92723991169E+00  0.92723991169E+00  0.00000000000E+00 0. -1.
          1    1    1    2  501    0  0.18329264298E+02 -0.21617422181E+02  0.71137225173E+03  0.71193662317E+03  0.00000000000E+00 0.  1.
         -1    1    1    2    0  502 -0.18329264298E+02  0.21617422181E+02  0.31067563730E+03  0.31196574569E+03  0.00000000000E+00 0. -1.
<mgrwt>
<rscale>  2 0.28342104E+02</rscale>
<asrwt>0</asrwt>
<pdfrwt beam="1">  1       21 0.15737989E+00 0.28342104E+02</pdfrwt>
<pdfrwt beam="2">  1       21 0.14265311E-03 0.28342104E+02</pdfrwt>
<totfact> 0.17496622E+07</totfact>
</mgrwt>
</event>
<event>
 4    1  0.7616518E+004  0.2067810E+02  0.7546771E-02  0.1732170E+00
         21   -1    0    0  503  502  0.00000000000E+00  0.00000000000E+00  0.17491013456E+03  0.17491013456E+03  0.00000000000E+00 0. -1.
         21   -1    0    0  501  503 -0.00000000000E+00 -0.00000000000E+00 -0.41498234932E+01  0.41498234932E+01  0.00000000000E+00 0. -1.
          4    1    1    2  501    0  0.79155291776E+01 -0.19103098087E+02  0.27988954768E+02  0.34798930266E+02  0.00000000000E+00 0.  1.
         -4    1    1    2    0  502 -0.79155291776E+01  0.19103098087E+02  0.14277135630E+03  0.14426102778E+03  0.00000000000E+00 0. -1.
<mgrwt>
<rscale>  2 0.20678103E+02</rscale>
<asrwt>0</asrwt>
<pdfrwt beam="1">  1       21 0.26909246E-01 0.20678103E+02</pdfrwt>
<pdfrwt beam="2">  1       21 0.63843452E-03 0.20678103E+02</pdfrwt>
<totfact> 0.69216524E+07</totfact>
</mgrwt>
</event>
<event>
 4    1  0.7616518E+004  0.2019203E+02  0.7546771E-02  0.1741536E+00
         21   -1    0    0  501  502  0.00000000000E+00  0.00000000000E+00  0.13954607607E+03  0.13954607607E+03  0.00000000000E+00 0. -1.
         21   -1    0    0  502  503 -0.00000000000E+00 -0.00000000000E+00 -0.39363790119E+01  0.39363790119E+01  0.00000000000E+00 0. -1.
          4    1    1    2  501    0  0.46140904317E+01  0.19657777225E+02  0.10422779532E+03  0.10616567879E+03  0.00000000000E+00 0.  1.
         -4    1    1    2    0  503 -0.46140904317E+01 -0.19657777225E+02  0.31381901732E+02  0.37316776284E+02  0.00000000000E+00 0. -1.
<mgrwt>
<rscale>  2 0.20192029E+02</rscale>
<asrwt>0</asrwt>
<pdfrwt beam="1">  1       21 0.21468623E-01 0.20192029E+02</pdfrwt>
<pdfrwt beam="2">  1       21 0.60559688E-03 0.20192029E+02</pdfrwt>
<totfact> 0.11079327E+08</totfact>
</mgrwt>
</event>
<event>
 4    1  0.7616518E+004  0.3972960E+02  0.7546771E-02  0.1510211E+00
         21   -1    0    0  503  502  0.00000000000E+00  0.00000000000E+00  0.12100385344E+04  0.12100385344E+04  0.00000000000E+00 0.  1.
         21   -1    0    0  501  503 -0.00000000000E+00 -0.00000000000E+00 -0.13452904166E+01  0.13452904166E+01  0.00000000000E+00 0.  1.
          2    1    1    2  501    0  0.13569216801E+01  0.39706416166E+02  0.70987339659E+03  0.71098430356E+03  0.00000000000E+00 0.  1.
         -2    1    1    2    0  502 -0.13569216801E+01 -0.39706416166E+02  0.49881984737E+03  0.50039952123E+03  0.00000000000E+00 0. -1.
<mgrwt>
<rscale>  2 0.39729595E+02</rscale>
<asrwt>0</asrwt>
<pdfrwt beam="1">  1       21 0.18615890E+00 0.39729595E+02</pdfrwt>
<pdfrwt beam="2">  1       21 0.20696872E-03 0.39729595E+02</pdfrwt>
<totfact> 0.68981530E+06</totfact>
</mgrwt>
</event>
<event>
 4    1  0.7616518E+004  0.2459455E+02  0.7546771E-02  0.1666895E+00
         21   -1    0    0  503  502  0.00000000000E+00  0.00000000000E+00  0.52138661139E+01  0.52138661139E+01  0.00000000000E+00 0. -1.
         21   -1    0    0  501  503 -0.00000000000E+00 -0.00000000000E+00 -0.39170117743E+03  0.39170117743E+03  0.00000000000E+00 0. -1.
          3    1    1    2  501    0 -0.16945901993E+02  0.17824937801E+02 -0.26750334438E+02  0.36338304784E+02  0.00000000000E+00 0. -1.
         -3    1    1    2    0  502  0.16945901993E+02 -0.17824937801E+02 -0.35973697687E+03  0.36057673876E+03  0.00000000000E+00 0.  1.
<mgrwt>
<rscale>  2 0.24594552E+02</rscale>
<asrwt>0</asrwt>
<pdfrwt beam="1">  1       21 0.80213308E-03 0.24594552E+02</pdfrwt>
<pdfrwt beam="2">  1       21 0.60261732E-01 0.24594552E+02</pdfrwt>
<totfact> 0.11173728E+07</totfact>
</mgrwt>
</event>
<event>
 4    1  0.7616518E+004  0.2780105E+02  0.7546771E-02  0.1623750E+00
         21   -1    0    0  501  502  0.00000000000E+00  0.00000000000E+00  0.24805287708E+01  0.24805287708E+01  0.00000000000E+00 0.  1.
         21   -1    0    0  502  503 -0.00000000000E+00 -0.00000000000E+00 -0.40602015623E+03  0.40602015623E+03  0.00000000000E+00 0.  1.
          4    1    1    2  501    0 -0.11653595796E+02 -0.25240683921E+02 -0.30027366127E+03  0.30155790500E+03  0.00000000000E+00 0.  1.
         -4    1    1    2    0  503  0.11653595796E+02  0.25240683921E+02 -0.10326596619E+03  0.10694277999E+03  0.00000000000E+00 0. -1.
<mgrwt>
<rscale>  2 0.27801051E+02</rscale>
<asrwt>0</asrwt>
<pdfrwt beam="1">  1       21 0.38161995E-03 0.27801051E+02</pdfrwt>
<pdfrwt beam="2">  1       21 0.62464617E-01 0.27801051E+02</pdfrwt>
<totfact> 0.32024765E+07</totfact>
</mgrwt>
</event>
<event>
 4    1  0.7616518E+004  0.2329650E+02  0.7546771E-02  0.1686749E+00
         21   -1    0    0  503  502  0.00000000000E+00  0.00000000000E+00  0.60112570170E+02  0.60112570170E+02  0.00000000000E+00 0. -1.
         21   -1    0    0  501  503 -0.00000000000E+00 -0.00000000000E+00 -0.95298254511E+01  0.95298254511E+01  0.00000000000E+00 0. -1.
          1    1    1    2  501    0 -0.20702714934E+02 -0.10682910236E+02  0.17304871914E+02  0.29020433641E+02  0.00000000000E+00 0. -1.
         -1    1    1    2    0  502  0.20702714934E+02  0.10682910236E+02  0.33277872805E+02  0.40621961980E+02  0.00000000000E+00 0.  1.
<mgrwt>
<rscale>  2 0.23296501E+02</rscale>
<asrwt>0</asrwt>
<pdfrwt beam="1">  1       21 0.92480875E-02 0.23296501E+02</pdfrwt>
<pdfrwt beam="2">  1       21 0.14661270E-02 0.23296501E+02</pdfrwt>
<totfact> 0.12790282E+08</totfact>
</mgrwt>
</event>
<event>
 4    1  0.7616518E+004  0.3289235E+02  0.7546771E-02  0.1568155E+00
         21   -1    0    0  501  502  0.00000000000E+00  0.00000000000E+00  0.17562526061E+03  0.17562526061E+03  0.00000000000E+00 0.  1.
         21   -1    0    0  502  503 -0.00000000000E+00 -0.00000000000E+00 -0.68543930962E+01  0.68543930962E+01  0.00000000000E+00 0.  1.
          3    1    1    2  501    0 -0.50422158869E-01 -0.32892309046E+02  0.55351571374E+02  0.64387133733E+02  0.00000000000E+00 0.  1.
         -3    1    1    2    0  503  0.50422158869E-01  0.32892309046E+02  0.11341929614E+03  0.11809251998E+03  0.00000000000E+00 0. -1.
<mgrwt>
<rscale>  2 0.32892348E+02</rscale>
<asrwt>0</asrwt>
<pdfrwt beam="1">  1       21 0.27019267E-01 0.32892348E+02</pdfrwt>
<pdfrwt beam="2">  1       21 0.10545221E-02 0.32892348E+02</pdfrwt>
<totfact> 0.35995435E+07</totfact>
</mgrwt>
</event>
<event>
 4    1  0.7616518E+004  0.2061058E+02  0.7546771E-02  0.1733452E+00
         21   -1    0    0  503  502  0.00000000000E+00  0.00000000000E+00  0.55326202790E+02  0.55326202790E+02  0.00000000000E+00 0.  1.
         21   -1    0    0  501  503 -0.00000000000E+00 -0.00000000000E+00 -0.10719067074E+02  0.10719067074E+02  0.00000000000E+00 0.  1.
          3    1    1    2  501    0 -0.16427174860E+02  0.12447649233E+02  0.47144384557E+01  0.21142894203E+02  0.00000000000E+00 0. -1.
         -3    1    1    2    0  502  0.16427174860E+02 -0.12447649233E+02  0.39892697261E+02  0.44902375661E+02  0.00000000000E+00 0.  1.
<mgrwt>
<rscale>  2 0.20610581E+02</rscale>
<asrwt>0</asrwt>
<pdfrwt beam="1">  1       21 0.85117233E-02 0.20610581E+02</pdfrwt>
<pdfrwt beam="2">  1       21 0.16490873E-02 0.20610581E+02</pdfrwt>
<totfact> 0.11818622E+08</totfact>
</mgrwt>
</event>
<event>
 4    1  0.7616518E+004  0.2552293E+02  0.7546771E-02  0.1653603E+00
         21   -1    0    0  503  502  0.00000000000E+00  0.00000000000E+00  0.46384562122E+01  0.46384562122E+01  0.00000000000E+00 0. -1.
         21   -1    0    0  501  503 -0.00000000000E+00 -0.00000000000E+00 -0.16691749282E+03  0.16691749282E+03  0.00000000000E+00 0. -1.
          4    1    1    2  501    0  0.10689114756E+02  0.23176766961E+02 -0.11530379955E+03  0.11809481738E+03  0.00000000000E+00 0.  1.
         -4    1    1    2    0  502 -0.10689114756E+02 -0.23176766961E+02 -0.46975237057E+02  0.53461131652E+02  0.00000000000E+00 0. -1.
<mgrwt>
<rscale>  2 0.25522925E+02</rscale>
<asrwt>0</asrwt>
<pdfrwt beam="1">  1       21 0.71360876E-03 0.25522925E+02</pdfrwt>
<pdfrwt beam="2">  1       21 0.25679610E-01 0.25522925E+02</pdfrwt>
<totfact> 0.67327376E+07</totfact>
</mgrwt>
</event>
<event>
 4    1  0.7616518E+004  0.2083496E+02  0.7546771E-02  0.1729216E+00
         21   -1    0    0  501  502  0.00000000000E+00  0.00000000000E+00  0.16418731928E+01  0.16418731928E+01  0.00000000000E+00 0. -1.
         21   -1    0    0  502  503 -0.00000000000E+00 -0.00000000000E+00 -0.33680302504E+03  0.33680302504E+03  0.00000000000E+00 0. -1.
          5    1    1    2  501    0  0.19853231795E+02  0.63201945584E+01 -0.89115421330E+02  0.91518599152E+02  0.00000000000E+00 0. -1.
         -5    1    1    2    0  503 -0.19853231795E+02 -0.63201945584E+01 -0.24604573052E+03  0.24692629908E+03  0.00000000000E+00 0.  1.
<mgrwt>
<rscale>  2 0.20834963E+02</rscale>
<asrwt>0</asrwt>
<pdfrwt beam="1">  1       21 0.25259611E-03 0.20834963E+02</pdfrwt>
<pdfrwt beam="2">  1       21 0.51815803E-01 0.20834963E+02</pdfrwt>
<totfact> 0.79443957E+07</totfact>
</mgrwt>
</event>
<event>
 4    1  0.7616518E+004  0.2290466E+02  0.7546771E-02  0.1693060E+00
         21   -1    0    0  503  502  0.00000000000E+00  0.00000000000E+00  0.32540009276E+02  0.32540009276E+02  0.00000000000E+00 0.  1.
         21   -1    0    0  501  503 -0.00000000000E+00 -0.00000000000E+00 -0.16234523079E+02  0.16234523079E+02  0.00000000000E+00 0.  1.
          4    1    1    2  501    0  0.13205213135E+02 -0.18714854238E+02  0.10179344728E+02  0.25064765752E+02  0.00000000000E+00 0. -1.
         -4    1    1    2    0  502 -0.13205213135E+02  0.18714854238E+02  0.61261414684E+01  0.23709766603E+02  0.00000000000E+00 0.  1.
<mgrwt>
<rscale>  2 0.22904659E+02</rscale>
<asrwt>0</asrwt>
<pdfrwt beam="1">  1       21 0.50061553E-02 0.22904659E+02</pdfrwt>
<pdfrwt beam="2">  1       21 0.24976189E-02 0.22904659E+02</pdfrwt>
<totfact> 0.15183249E+08</totfact>
</mgrwt>
</event>
<event>
 4    1  0.7616518E+004  0.2724482E+02  0.7546771E-02  0.1630706E+00
         21   -1    0    0  503  502  0.00000000000E+00  0.00000000000E+00  0.13634515342E+02  0.13634515342E+02  0.00000000000E+00 0. -1.
         21   -1    0    0  501  503 -0.00000000000E+00 -0.00000000000E+00 -0.60960687284E+02  0.60960687284E+02  0.00000000000E+00 0. -1.
          5    1    1    2  501    0  0.60157357466E+01  0.26572374053E+02 -0.35860305289E+02  0.45036003762E+02  0.00000000000E+00 0. -1.
         -5    1    1    2    0  502 -0.60157357466E+01 -0.26572374053E+02 -0.11465866652E+02  0.29559198864E+02  0.00000000000E+00 0.  1.
<mgrwt>
<rscale>  2 0.27244819E+02</rscale>
<asrwt>0</asrwt>
<pdfrwt beam="1">  1       21 0.20976178E-02 0.27244819E+02</pdfrwt>
<pdfrwt beam="2">  1       21 0.93785672E-02 0.27244819E+02</pdfrwt>
<totfact> 0.75266694E+07</totfact>
</mgrwt>
</event>
<event>
 4    1  0.7616518E+004  0.2351107E+02  0.7546771E-02  0.1683357E+00
         21   -1    0    0  501  502  0.00000000000E+00  0.00000000000E+00  0.42561625197E+02  0.42561625197E+02  0.00000000000E+00 0.  1.
         21   -1    0    0  502  503 -0.00000000000E+00 -0.00000000000E+00 -0.17012681976E+02  0.17012681976E+02  0.00000000000E+00 0.  1.
          3    1    1    2  501    0  0.22234173965E+02  0.76427785358E+01  0.27263308945E+02  0.36000813467E+02  0.00000000000E+00 0.  1.
         -3    1    1    2    0  503 -0.22234173965E+02 -0.76427785358E+01 -0.17143657234E+01  0.23573493706E+02  0.00000000000E+00 0. -1.
<mgrwt>
<rscale>  2 0.23511073E+02</rscale>
<asrwt>0</asrwt>
<pdfrwt beam="1">  1       21 0.65479423E-02 0.23511073E+02</pdfrwt>
<pdfrwt beam="2">  1       21 0.26173357E-02 0.23511073E+02</pdfrwt>
<totfact> 0.92532421E+07</totfact>
</mgrwt>
</event>
<event>
 4    1  0.7616518E+004  0.2552899E+02  0.7546771E-02  0.1653518E+00
         21   -1    0    0  503  502  0.00000000000E+00  0.00000000000E+00  0.27835132873E+01  0.27835132873E+01  0.00000000000E+00 0. -1.
         21   -1    0    0  501  503 -0.00000000000E+00 -0.00000000000E+00 -0.23588034754E+03  0.23588034754E+03  0.00000000000E+00 0. -1.
          1    1    1    2  501    0  0.98027275840E+01  0.23571933454E+02 -0.12680095155E+03  0.12934531623E+03  0.00000000000E+00 0. -1.
         -1    1    1    2    0  502 -0.98027275840E+01 -0.23571933454E+02 -0.10629588270E+03  0.10931854460E+03  0.00000000000E+00 0.  1.
<mgrwt>
<rscale>  2 0.25528994E+02</rscale>
<asrwt>0</asrwt>
<pdfrwt beam="1">  1       21 0.42823288E-03 0.25528994E+02</pdfrwt>
<pdfrwt beam="2">  1       21 0.36289278E-01 0.25528994E+02</pdfrwt>
<totfact> 0.76254536E+07</totfact>
</mgrwt>
</event>
<event>
 4    1  0.7616518E+004  0.2289564E+02  0.7546771E-02  0.1693207E+00
         21   -1    0    0  501  502  0.00000000000E+00  0.00000000000E+00  0.10154160169E+03  0.10154160169E+03  0.00000000000E+00 0.  1.
         21   -1    0    0  502  503 -0.00000000000E+00 -0.00000000000E+00 -0.51641804095E+01  0.51641804095E+01  0.00000000000E+00 0.  1.
          4    1    1    2  501    0 -0.64641882169E+01 -0.21964166367E+02  0.49145999411E+02  0.54217521075E+02  0.00000000000E+00 0.  1.
         -4    1    1    2    0  503  0.64641882169E+01  0.21964166367E+02  0.47231421872E+02  0.52488261026E+02  0.00000000000E+00 0. -1.
<mgrwt>
<rscale>  2 0.22895640E+02</rscale>
<asrwt>0</asrwt>
<pdfrwt beam="1">  1       21 0.15621783E-01 0.22895640E+02</pdfrwt>
<pdfrwt beam="2">  1       21 0.79448937E-03 0.22895640E+02</pdfrwt>
<totfact> 0.13296709E+08</totfact>
</mgrwt>
</event>
<event>
 4    1  0.7616518E+004  0.2120059E+02  0.7546771E-02  0.1722456E+00
         21   -1    0    0  501  502  0.00000000000E+00  0.00000000000E+00  0.97111155653E+00  0.97111155653E+00  0.00000000000E+00 0. -1.
         21   -1    0    0  502  503 -0.00000000000E+00 -0.00000000000E+00 -0.46311237184E+03  0.46311237184E+03  0.00000000000E+00 0. -1.
          1    1    1    2  501    0 -0.20939091990E+02 -0.33195397157E+01 -0.23674412456E+03  0.23769149213E+03  0.00000000000E+00 0.  1.
         -1    1    1    2    0  503  0.20939091990E+02  0.33195397157E+01 -0.22539713572E+03  0.22639199127E+03  0.00000000000E+00 0. -1.
<mgrwt>
<rscale>  2 0.21200588E+02</rscale>
<asrwt>0</asrwt>
<pdfrwt beam="1">  1       21 0.14940127E-03 0.21200588E+02</pdfrwt>
<pdfrwt beam="2">  1       21 0.71248300E-01 0.21200588E+02</pdfrwt>
<totfact> 0.89970269E+07</totfact>
</mgrwt>
</event>
<event>
 4    1  0.7616518E+004  0.2049456E+02  0.7546771E-02  0.1735668E+00
         21   -1    0    0  503  502  0.00000000000E+00  0.00000000000E+00  0.42274400833E+02  0.42274400833E+02  0.00000000000E+00 0. -1.
         21   -1    0    0  501  503 -0.00000000000E+00 -0.00000000000E+00 -0.10494191792E+02  0.10494191792E+02  0.00000000000E+00 0. -1.
          3    1    1    2  501    0  0.55067588305E+01  0.19740890119E+02  0.98036160544E+01  0.22718671248E+02  0.00000000000E+00 0.  1.
         -3    1    1    2    0  502 -0.55067588305E+01 -0.19740890119E+02  0.21976592986E+02  0.30049921377E+02  0.00000000000E+00 0. -1.
<mgrwt>
<rscale>  2 0.20494564E+02</rscale>
<asrwt>0</asrwt>
<pdfrwt beam="1">  1       21 0.65037539E-02 0.20494564E+02</pdfrwt>
<pdfrwt beam="2">  1       21 0.16144911E-02 0.20494564E+02</pdfrwt>
<totfact> 0.18827539E+08</totfact>
</mgrwt>
</event>
<event>
 4    1  0.7616518E+004  0.2153451E+02  0.7546771E-02  0.1716429E+00
         21   -1    0    0  501  502  0.00000000000E+00  0.00000000000E+00  0.53443854719E+02  0.53443854719E+02  0.00000000000E+00 0.  1.
         21   -1    0    0  502  503 -0.00000000000E+00 -0.00000000000E+00 -0.12058773666E+02  0.12058773666E+02  0.00000000000E+00 0.  1.
          5    1    1    2  501    0 -0.80591724597E+00 -0.21519424719E+02  0.38036411968E+02  0.43709309972E+02  0.00000000000E+00 0. -1.
         -5    1    1    2    0  503  0.80591724597E+00  0.21519424719E+02  0.33486690851E+01  0.21793318414E+02  0.00000000000E+00 0.  1.
<mgrwt>
<rscale>  2 0.21534511E+02</rscale>
<asrwt>0</asrwt>
<pdfrwt beam="1">  1       21 0.82221314E-02 0.21534511E+02</pdfrwt>
<pdfrwt beam="2">  1       21 0.18551960E-02 0.21534511E+02</pdfrwt>
<totfact> 0.10588413E+08</totfact>
</mgrwt>
</event>
<event>
 4    1  0.7616518E+004  0.2859546E+02  0.7546771E-02  0.1614154E+00
         21   -1    0    0  501  502  0.00000000000E+00  0.00000000000E+00  0.59906067370E+02  0.59906067370E+02  0.00000000000E+00 0.  1.
         21   -1    0    0  502  503 -0.00000000000E+00 -0.00000000000E+00 -0.19870150157E+02  0.19870150157E+02  0.00000000000E+00 0.  1.
          1    1    1    2  501    0  0.28330122393E+02 -0.38864408823E+01 -0.22999522897E+01  0.28687802949E+02  0.00000000000E+00 0. -1.
         -1    1    1    2    0  503 -0.28330122393E+02  0.38864408823E+01  0.42335869503E+02  0.51088414578E+02  0.00000000000E+00 0.  1.
<mgrwt>
<rscale>  2 0.28595459E+02</rscale>
<asrwt>0</asrwt>
<pdfrwt beam="1">  1       21 0.92163180E-02 0.28595459E+02</pdfrwt>
<pdfrwt beam="2">  1       21 0.30569462E-02 0.28595459E+02</pdfrwt>
<totfact> 0.43581127E+07</totfact>
</mgrwt>
</event>
<event>
 4    1  0.7616518E+004  0.3507587E+02  0.7546771E-02  0.1547928E+00
         21   -1    0    0  501  502  0.00000000000E+00  0.00000000000E+00  0.28272368708E+03  0.28272368708E+03  0.00000000000E+00 0.  1.
         21   -1    0    0  502  503 -0.00000000000E+00 -0.00000000000E+00 -0.53448952928E+01  0.53448952928E+01  0.00000000000E+00 0.  1.
          1    1    1    2  501    0  0.35012900142E+02 -0.21008052550E+01  0.20077958604E+03  0.20382040803E+03  0.00000000000E+00 0.  1.
         -1    1    1    2    0  503 -0.35012900142E+02  0.21008052550E+01  0.76599205750E+02  0.84248174346E+02  0.00000000000E+00 0. -1.
<mgrwt>
<rscale>  2 0.35075869E+02</rscale>
<asrwt>0</asrwt>
<pdfrwt beam="1">  1       21 0.43495940E-01 0.35075869E+02</pdfrwt>
<pdfrwt beam="2">  1       21 0.82229181E-03 0.35075869E+02</pdfrwt>
<totfact> 0.21717295E+07</totfact>
</mgrwt>
</event>
<event>
 4    1  0.7616518E+004  0.2281535E+02  0.7546771E-02  0.1694521E+00
         21   -1    0    0  503  502  0.00000000000E+00  0.00000000000E+00  0.27265206045E+01  0.27265206045E+01  0.00000000000E+00 0. -1.
         21   -1    0    0  501  503 -0.00000000000E+00 -0.00000000000E+00 -0.21571435846E+03  0.21571435846E+03  0.00000000000E+00 0. -1.
          2    1    1    2  501    0 -0.22150252047E+02 -0.54686803654E+01 -0.69463050013E+02  0.73113989413E+02  0.00000000000E+00 0. -1.
         -2    1    1    2    0  502  0.22150252047E+02  0.54686803654E+01 -0.14352478784E+03  0.14532688965E+03  0.00000000000E+00 0.  1.
<mgrwt>
<rscale>  2 0.22815349E+02</rscale>
<asrwt>0</asrwt>
<pdfrwt beam="1">  1       21 0.41946480E-03 0.22815349E+02</pdfrwt>
<pdfrwt beam="2">  1       21 0.33186817E-01 0.22815349E+02</pdfrwt>
<totfact> 0.90187025E+07</totfact>
</mgrwt>
</event>
<event>
 4    1  0.7616518E+004  0.3538535E+02  0.7546771E-02  0.1545205E+00
         21   -1    0    0  503  502  0.00000000000E+00  0.00000000000E+00  0.75748514969E+03  0.75748514969E+03  0.00000000000E+00 0. -1.
         21   -1    0    0  501  503 -0.00000000000E+00 -0.00000000000E+00 -0.17906704642E+01  0.17906704642E+01  0.00000000000E+00 0. -1.
          3    1    1    2  501    0  0.24076495946E+02  0.25931556054E+02  0.27258284571E+03  0.27487002571E+03  0.00000000000E+00 0.  1.
         -3    1    1    2    0  502 -0.24076495946E+02 -0.25931556054E+02  0.48311163352E+03  0.48440579445E+03  0.00000000000E+00 0. -1.
<mgrwt>
<rscale>  2 0.35385354E+02</rscale>
<asrwt>0</asrwt>
<pdfrwt beam="1">  1       21 0.11653592E+00 0.35385354E+02</pdfrwt>
<pdfrwt beam="2">  1       21 0.27548837E-03 0.35385354E+02</pdfrwt>
<totfact> 0.14033963E+07</totfact>
</mgrwt>
</event>
<event>
 4    1  0.7616518E+004  0.3508849E+02  0.7546771E-02  0.1547816E+00
         21   -1    0    0  501  502  0.00000000000E+00  0.00000000000E+00  0.22087378635E+01  0.22087378635E+01  0.00000000000E+00 0. -1.
         21   -1    0    0  502  503 -0.00000000000E+00 -0.00000000000E+00 -0.55754154881E+03  0.55754154881E+03  0.00000000000E+00 0. -1.
          5    1    1    2  501    0 -0.19578052759E+02  0.29118761285E+02 -0.28173872063E+03  0.28391532031E+03  0.00000000000E+00 0.  1.
         -5    1    1    2    0  503  0.19578052759E+02 -0.29118761285E+02 -0.27359409032E+03  0.27583496636E+03  0.00000000000E+00 0. -1.
<mgrwt>
<rscale>  2 0.35088494E+02</rscale>
<asrwt>0</asrwt>
<pdfrwt beam="1">  1       21 0.33980608E-03 0.35088494E+02</pdfrwt>
<pdfrwt beam="2">  1       21 0.85775558E-01 0.35088494E+02</pdfrwt>
<totfact> 0.20359646E+07</totfact>
</mgrwt>
</event>
<event>
 4    1  0.7616518E+004  0.2075232E+02  0.7546771E-02  0.1730768E+00
         21   -1    0    0  503  502  0.00000000000E+00  0.00000000000E+00  0.21804373832E+02  0.21804373832E+02  0.00000000000E+00 0.  1.
         21   -1    0    0  501  503 -0.00000000000E+00 -0.00000000000E+00 -0.20096995660E+02  0.20096995660E+02  0.00000000000E+00 0.  1.
          1    1    1    2  501    0 -0.68023082097E+01  0.19605795932E+02  0.36025654792E+01  0.21062694726E+02  0.00000000000E+00 0.  1.
         -1    1    1    2    0  502  0.68023082097E+01 -0.19605795932E+02 -0.18951873073E+01  0.20838674767E+02  0.00000000000E+00 0. -1.
<mgrwt>
<rscale>  2 0.20752316E+02</rscale>
<asrwt>0</asrwt>
<pdfrwt beam="1">  1       21 0.33545191E-02 0.20752316E+02</pdfrwt>
<pdfrwt beam="2">  1       21 0.30918455E-02 0.20752316E+02</pdfrwt>
<totfact> 0.19863145E+08</totfact>
</mgrwt>
</event>
<event>
 4    1  0.7616518E+004  0.2018725E+02  0.7546771E-02  0.1741630E+00
         21   -1    0    0  503  502  0.00000000000E+00  0.00000000000E+00  0.23684385772E+01  0.23684385772E+01  0.00000000000E+00 0.  1.
         21   -1    0    0  501  503 -0.00000000000E+00 -0.00000000000E+00 -0.18713047354E+03  0.18713047354E+03  0.00000000000E+00 0.  1.
          2    1    1    2  501    0 -0.52567801073E+01 -0.19490804668E+02 -0.65496827443E+02  0.68537286267E+02  0.00000000000E+00 0.  1.
         -2    1    1    2    0  502  0.52567801073E+01  0.19490804668E+02 -0.11926520752E+03  0.12096162585E+03  0.00000000000E+00 0. -1.
<mgrwt>
<rscale>  2 0.20187253E+02</rscale>
<asrwt>0</asrwt>
<pdfrwt beam="1">  1       21 0.36437516E-03 0.20187253E+02</pdfrwt>
<pdfrwt beam="2">  1       21 0.28789304E-01 0.20187253E+02</pdfrwt>
<totfact> 0.13870857E+08</totfact>
</mgrwt>
</event>
<event>
 4    1  0.7616518E+004  0.2168541E+02  0.7546771E-02  0.1713750E+00
         21   -1    0    0  503  502  0.00000000000E+00  0.00000000000E+00  0.73273477217E+02  0.73273477217E+02  0.00000000000E+00 0. -1.
         21   -1    0    0  501  503 -0.00000000000E+00 -0.00000000000E+00 -0.75021664363E+01  0.75021664363E+01  0.00000000000E+00 0. -1.
          5    1    1    2  501    0  0.21593196433E+02  0.19976754215E+01  0.48240265203E+02  0.52890264002E+02  0.00000000000E+00 0.  1.
         -5    1    1    2    0  502 -0.21593196433E+02 -0.19976754215E+01  0.17531045577E+02  0.27885379651E+02  0.00000000000E+00 0. -1.
<mgrwt>
<rscale>  2 0.21685406E+02</rscale>
<asrwt>0</asrwt>
<pdfrwt beam="1">  1       21 0.11272842E-01 0.21685406E+02</pdfrwt>
<pdfrwt beam="2">  1       21 0.11541795E-02 0.21685406E+02</pdfrwt>
<totfact> 0.12957236E+08</totfact>
</mgrwt>
</event>
<event>
 4    1  0.7616518E+004  0.2200975E+02  0.7546771E-02  0.1708083E+00
         21   -1    0    0  501  502  0.00000000000E+00  0.00000000000E+00  0.70034025137E+02  0.70034025137E+02  0.00000000000E+00 0.  1.
         21   -1    0    0  502  503 -0.00000000000E+00 -0.00000000000E+00 -0.70598365753E+01  0.70598365753E+01  0.00000000000E+00 0.  1.
          5    1    1    2  501    0 -0.14607731492E+02 -0.16463392827E+02  0.36968984384E+02  0.43024817595E+02  0.00000000000E+00 0. -1.
         -5    1    1    2    0  503  0.14607731492E+02  0.16463392827E+02  0.26005204178E+02  0.34069044117E+02  0.00000000000E+00 0.  1.
<mgrwt>
<rscale>  2 0.22009751E+02</rscale>
<asrwt>0</asrwt>
<pdfrwt beam="1">  1       21 0.10774465E-01 0.22009751E+02</pdfrwt>
<pdfrwt beam="2">  1       21 0.10861288E-02 0.22009751E+02</pdfrwt>
<totfact> 0.15372993E+08</totfact>
</mgrwt>
</event>
<event>
 4    1  0.7616518E+004  0.3908857E+02  0.7546771E-02  0.1515028E+00
         21   -1    0    0  503  502  0.00000000000E+00  0.00000000000E+00  0.38861647035E+01  0.38861647035E+01  0.00000000000E+00 0.  1.
         21   -1    0    0  501  503 -0.00000000000E+00 -0.00000000000E+00 -0.40467894524E+03  0.40467894524E+03  0.00000000000E+00 0.  1.
          5    1    1    2  501    0  0.30274600555E+02  0.24725788663E+02 -0.23484956439E+03  0.23808030989E+03  0.00000000000E+00 0.  1.
         -5    1    1    2    0  502 -0.30274600555E+02 -0.24725788663E+02 -0.16594321615E+03  0.17048480005E+03  0.00000000000E+00 0. -1.
<mgrwt>
<rscale>  2 0.39088567E+02</rscale>
<asrwt>0</asrwt>
<pdfrwt beam="1">  1       21 0.59787125E-03 0.39088567E+02</pdfrwt>
<pdfrwt beam="2">  1       21 0.62258324E-01 0.39088567E+02</pdfrwt>
<totfact> 0.17470358E+07</totfact>
</mgrwt>
</event>
<event>
 4    1  0.7616518E+004  0.2158131E+02  0.7546771E-02  0.1715595E+00
         21   -1    0    0  501  502  0.00000000000E+00  0.00000000000E+00  0.38829458116E+02  0.38829458116E+02  0.00000000000E+00 0.  1.
         21   -1    0    0  502  503 -0.00000000000E+00 -0.00000000000E+00 -0.12212676565E+02  0.12212676565E+02  0.00000000000E+00 0.  1.
          4    1    1    2  501    0 -0.21511153298E+02 -0.17386906280E+01  0.16716931212E+02  0.27298508209E+02  0.00000000000E+00 0. -1.
         -4    1    1    2    0  503  0.21511153298E+02  0.17386906280E+01  0.98998503390E+01  0.23743626472E+02  0.00000000000E+00 0.  1.
<mgrwt>
<rscale>  2 0.21581306E+02</rscale>
<asrwt>0</asrwt>
<pdfrwt beam="1">  1       21 0.59737627E-02 0.21581306E+02</pdfrwt>
<pdfrwt beam="2">  1       21 0.18788733E-02 0.21581306E+02</pdfrwt>
<totfact> 0.17411247E+08</totfact>
</mgrwt>
</event>
<event>
 4    1  0.7616518E+004  0.2755898E+02  0.7546771E-02  0.1626752E+00
         21   -1    0    0  503  502  0.00000000000E+00  0.00000000000E+00  0.63320664198E+01  0.63320664198E+01  0.00000000000E+00 0.  1.
         21   -1    0    0  501  503 -0.00000000000E+00 -0.00000000000E+00 -0.13568126098E+03  0.13568126098E+03  0.00000000000E+00 0.  1.
          2    1    1    2  501    0  0.24964314340E+02 -0.11673909444E+02 -0.40492413708E+02  0.48980942417E+02  0.00000000000E+00 0.  1.
         -2    1    1    2    0  502 -0.24964314340E+02  0.11673909444E+02 -0.88856780849E+02  0.93032384980E+02  0.00000000000E+00 0. -1.
<mgrwt>
<rscale>  2 0.27558976E+02</rscale>
<asrwt>0</asrwt>
<pdfrwt beam="1">  1       21 0.97416404E-03 0.27558976E+02</pdfrwt>
<pdfrwt beam="2">  1       21 0.20874041E-01 0.27558976E+02</pdfrwt>
<totfact> 0.62122145E+07</totfact>
</mgrwt>
</event>
<event>
 4    1  0.7616518E+004  0.2186501E+02  0.7546771E-02  0.1710597E+00
         21   -1    0    0  501  502  0.00000000000E+00  0.00000000000E+00  0.10816185173E+02  0.10816185173E+02  0.00000000000E+00 0.  1.
         21   -1    0    0  502  503 -0.00000000000E+00 -0.00000000000E+00 -0.44487218298E+02  0.44487218298E+02  0.00000000000E+00 0.  1.
          1    1    1    2  501    0 -0.31854212911E+01  0.21631730343E+02 -0.14614863174E+02  0.26299674751E+02  0.00000000000E+00 0.  1.
         -1    1    1    2    0  503  0.31854212911E+01 -0.21631730343E+02 -0.19056169951E+02  0.29003728720E+02  0.00000000000E+00 0. -1.
<mgrwt>
<rscale>  2 0.21865010E+02</rscale>
<asrwt>0</asrwt>
<pdfrwt beam="1">  1       21 0.16640285E-02 0.21865010E+02</pdfrwt>
<pdfrwt beam="2">  1       21 0.68441874E-02 0.21865010E+02</pdfrwt>
<totfact> 0.16905235E+08</totfact>
</mgrwt>
</event>
<event>
 4    1  0.7616518E+004  0.3231587E+02  0.7546771E-02  0.1573816E+00
         21   -1    0    0  501  502  0.00000000000E+00  0.00000000000E+00  0.25806400141E+02  0.25806400141E+02  0.00000000000E+00 0.  1.
         21   -1    0    0  502  503 -0.00000000000E+00 -0.00000000000E+00 -0.40931397730E+02  0.40931397730E+02  0.00000000000E+00 0.  1.
          1    1    1    2  501    0  0.32280708357E+02 -0.15070288548E+01 -0.40092996204E+01  0.32563626202E+02  0.00000000000E+00 0. -1.
         -1    1    1    2    0  503 -0.32280708357E+02  0.15070288548E+01 -0.11115697968E+02  0.34174171669E+02  0.00000000000E+00 0.  1.
<mgrwt>
<rscale>  2 0.32315867E+02</rscale>
<asrwt>0</asrwt>
<pdfrwt beam="1">  1       21 0.39702154E-02 0.32315867E+02</pdfrwt>
<pdfrwt beam="2">  1       21 0.62971381E-02 0.32315867E+02</pdfrwt>
<totfact> 0.55380172E+07</totfact>
</mgrwt>
</event>
<event>
 4    1  0.7616518E+004  0.2158089E+02  0.7546771E-02  0.1715603E+00
         21   -1    0    0  503  502  0.00000000000E+00  0.00000000000E+00  0.64693335026E+01  0.64693335026E+01  0.00000000000E+00 0.  1.
         21   -1    0    0  501  503 -0.00000000000E+00 -0.00000000000E+00 -0.83302555929E+02  0.83302555929E+02  0.00000000000E+00 0.  1.
          3    1    1    2  501    0  0.17956182380E+02  0.11971226382E+02 -0.54956764723E+02  0.59042194535E+02  0.00000000000E+00 0. -1.
         -3    1    1    2    0  502 -0.17956182380E+02 -0.11971226382E+02 -0.21876457704E+02  0.30729694896E+02  0.00000000000E+00 0.  1.
<mgrwt>
<rscale>  2 0.21580888E+02</rscale>
<asrwt>0</asrwt>
<pdfrwt beam="1">  1       21 0.99528209E-03 0.21580888E+02</pdfrwt>
<pdfrwt beam="2">  1       21 0.12815778E-01 0.21580888E+02</pdfrwt>
<totfact> 0.13044686E+08</totfact>
</mgrwt>
</event>
<event>
 4    1  0.7616518E+004  0.2348679E+02  0.7546771E-02  0.1683739E+00
         21   -1    0    0  501  502  0.00000000000E+00  0.00000000000E+00  0.27002745795E+03  0.27002745795E+03  0.00000000000E+00 0.  1.
         21   -1    0    0  502  503 -0.00000000000E+00 -0.00000000000E+00 -0.22271050122E+01  0.22271050122E+01  0.00000000000E+00 0.  1.
          5    1    1    2  501    0  0.85674817170E+01 -0.21868414120E+02  0.94746874982E+02  0.97614546037E+02  0.00000000000E+00 0.  1.
         -5    1    1    2    0  503 -0.85674817170E+01  0.21868414120E+02  0.17305347795E+03  0.17464001692E+03  0.00000000000E+00 0. -1.
<mgrwt>
<rscale>  2 0.23486789E+02</rscale>
<asrwt>0</asrwt>
<pdfrwt beam="1">  1       21 0.41542660E-01 0.23486789E+02</pdfrwt>
<pdfrwt beam="2">  1       21 0.34263175E-03 0.23486789E+02</pdfrwt>
<totfact> 0.80371308E+07</totfact>
</mgrwt>
</event>
<event>
 4    1  0.7616518E+004  0.2494835E+02  0.7546771E-02  0.1661745E+00
         21   -1    0    0  503  502  0.00000000000E+00  0.00000000000E+00  0.36300764988E+01  0.36300764988E+01  0.00000000000E+00 0.  1.
         21   -1    0    0  501  503 -0.00000000000E+00 -0.00000000000E+00 -0.19236053917E+03  0.19236053917E+03  0.00000000000E+00 0.  1.
          3    1    1    2  501    0  0.21428668181E+02  0.12776234094E+02 -0.62064985848E+02  0.66891572309E+02  0.00000000000E+00 0. -1.
         -3    1    1    2    0  502 -0.21428668181E+02 -0.12776234094E+02 -0.12666547682E+03  0.12909904336E+03  0.00000000000E+00 0.  1.
<mgrwt>
<rscale>  2 0.24948346E+02</rscale>
<asrwt>0</asrwt>
<pdfrwt beam="1">  1       21 0.55847349E-03 0.24948346E+02</pdfrwt>
<pdfrwt beam="2">  1       21 0.29593919E-01 0.24948346E+02</pdfrwt>
<totfact> 0.74608609E+07</totfact>
</mgrwt>
</event>
<event>
 4    1  0.7616518E+004  0.2005145E+02  0.7546771E-02  0.1744307E+00
         21   -1    0    0  501  502  0.00000000000E+00  0.00000000000E+00  0.81861255604E+01  0.81861255604E+01  0.00000000000E+00 0.  1.
         21   -1    0    0  502  503 -0.00000000000E+00 -0.00000000000E+00 -0.61460214609E+02  0.61460214609E+02  0.00000000000E+00 0.  1.
          4    1    1    2  501    0  0.12386518778E+02  0.15768152043E+02 -0.42244170406E+02  0.46761419991E+02  0.00000000000E+00 0. -1.
         -4    1    1    2    0  503 -0.12386518778E+02 -0.15768152043E+02 -0.11029918642E+02  0.22884920178E+02  0.00000000000E+00 0.  1.
<mgrwt>
<rscale>  2 0.20051445E+02</rscale>
<asrwt>0</asrwt>
<pdfrwt beam="1">  1       21 0.12594040E-02 0.20051445E+02</pdfrwt>
<pdfrwt beam="2">  1       21 0.94554175E-02 0.20051445E+02</pdfrwt>
<totfact> 0.14830811E+08</totfact>
</mgrwt>
</event>
<event>
 4    1  0.7616518E+004  0.8243009E+02  0.7546771E-02  0.1322293E+00
         21   -1    0    0  503  502  0.00000000000E+00  0.00000000000E+00  0.14759667371E+03  0.14759667371E+03  0.00000000000E+00 0. -1.
         21   -1    0    0  501  503 -0.00000000000E+00 -0.00000000000E+00 -0.48246557530E+02  0.48246557530E+02  0.00000000000E+00 0. -1.
          1    1    1    2  501    0  0.46185822093E+02 -0.68275839077E+02  0.70636589437E+02  0.10855527685E+03  0.00000000000E+00 0. -1.
         -1    1    1    2    0  502 -0.46185822093E+02  0.68275839077E+02  0.28713526743E+02  0.87287954393E+02  0.00000000000E+00 0.  1.
<mgrwt>
<rscale>  2 0.82430094E+02</rscale>
<asrwt>0</asrwt>
<pdfrwt beam="1">  1       21 0.22707180E-01 0.82430094E+02</pdfrwt>
<pdfrwt beam="2">  1       21 0.74225474E-02 0.82430094E+02</pdfrwt>
<totfact> 0.24228052E+06</totfact>
</mgrwt>
</event>
<event>
 4    1  0.7616518E+004  0.2147804E+02  0.7546771E-02  0.1717439E+00
         21   -1    0    0  501  502  0.00000000000E+00  0.00000000000E+00  0.79897897713E+01  0.79897897713E+01  0.00000000000E+00 0.  1.
         21   -1    0    0  502  503 -0.00000000000E+00 -0.00000000000E+00 -0.58505722958E+02  0.58505722958E+02  0.00000000000E+00 0.  1.
          4    1    1    2  501    0 -0.79776502117E+01 -0.19941494042E+02 -0.21446760850E+02  0.30352423931E+02  0.00000000000E+00 0.  1.
         -4    1    1    2    0  503  0.79776502117E+01  0.19941494042E+02 -0.29069172337E+02  0.36143088798E+02  0.00000000000E+00 0. -1.
<mgrwt>
<rscale>  2 0.21478037E+02</rscale>
<asrwt>0</asrwt>
<pdfrwt beam="1">  1       21 0.12291984E-02 0.21478037E+02</pdfrwt>
<pdfrwt beam="2">  1       21 0.90008804E-02 0.21478037E+02</pdfrwt>
<totfact> 0.17037562E+08</totfact>
</mgrwt>
</event>
<event>
 4    1  0.7616518E+004  0.2435846E+02  0.7546771E-02  0.1670391E+00
         21   -1    0    0  501  502  0.00000000000E+00  0.00000000000E+00  0.11706200837E+02  0.11706200837E+02  0.00000000000E+00 0.  1.
         21   -1    0    0  502  503 -0.00000000000E+00 -0.00000000000E+00 -0.50765026983E+02  0.50765026983E+02  0.00000000000E+00 0.  1.
          5    1    1    2  501    0 -0.76588996117E+01  0.23123056942E+02 -0.20765807177E+02  0.32008643415E+02  0.00000000000E+00 0. -1.
         -5    1    1    2    0  503  0.76588996117E+01 -0.23123056942E+02 -0.18293018969E+02  0.30462584404E+02  0.00000000000E+00 0.  1.
<mgrwt>
<rscale>  2 0.24358459E+02</rscale>
<asrwt>0</asrwt>
<pdfrwt beam="1">  1       21 0.18009540E-02 0.24358459E+02</pdfrwt>
<pdfrwt beam="2">  1       21 0.78100041E-02 0.24358459E+02</pdfrwt>
<totfact> 0.12491326E+08</totfact>
</mgrwt>
</event>
<event>
 4    1  0.7616518E+004  0.2404360E+02  0.7546771E-02  0.1675131E+00
         21   -1    0    0  503  502  0.00000000000E+00  0.00000000000E+00  0.11182782762E+01  0.11182782762E+01  0.00000000000E+00 0.  1.
         21   -1    0    0  501  503 -0.00000000000E+00 -0.00000000000E+00 -0.55051181871E+03  0.55051181871E+03  0.00000000000E+00 0.  1.
          3    1    1    2  501    0  0.57175122368E+01  0.23353905662E+02 -0.20659597789E+03  0.20799036741E+03  0.00000000000E+00 0.  1.
         -3    1    1    2    0  502 -0.57175122368E+01 -0.23353905662E+02 -0.34279756254E+03  0.34363972958E+03  0.00000000000E+00 0. -1.
<mgrwt>
<rscale>  2 0.24043603E+02</rscale>
<asrwt>0</asrwt>
<pdfrwt beam="1">  1       21 0.17204268E-03 0.24043603E+02</pdfrwt>
<pdfrwt beam="2">  1       21 0.84694190E-01 0.24043603E+02</pdfrwt>
<totfact> 0.52790104E+07</totfact>
</mgrwt>
</event>
<event>
 4    1  0.7616518E+004  0.2677220E+02  0.7546771E-02  0.1636779E+00
         21   -1    0    0  501  502  0.00000000000E+00  0.00000000000E+00  0.18073878123E+03  0.18073878123E+03  0.00000000000E+00 0.  1.
         21   -1    0    0  502  503 -0.00000000000E+00 -0.00000000000E+00 -0.43605701721E+01  0.43605701721E+01  0.00000000000E+00 0.  1.
          4    1    1    2  501    0  0.89031892260E+01 -0.25248445390E+02  0.60337792522E+02  0.66010605053E+02  0.00000000000E+00 0.  1.
         -4    1    1    2    0  503 -0.89031892260E+01  0.25248445390E+02  0.11604041853E+03  0.11908874634E+03  0.00000000000E+00 0. -1.
<mgrwt>
<rscale>  2 0.26772201E+02</rscale>
<asrwt>0</asrwt>
<pdfrwt beam="1">  1       21 0.27805961E-01 0.26772201E+02</pdfrwt>
<pdfrwt beam="2">  1       21 0.67085709E-03 0.26772201E+02</pdfrwt>
<totfact> 0.64682388E+07</totfact>
</mgrwt>
</event>
<event>
 4    1  0.7616518E+004  0.2068594E+02  0.7546771E-02  0.1732022E+00
         21   -1    0    0  503  502  0.00000000000E+00  0.00000000000E+00  0.23032190797E+00  0.23032190797E+00  0.00000000000E+00 0. -1.
         21   -1    0    0  501  503 -0.00000000000E+00 -0.00000000000E+00 -0.18637565926E+04  0.18637565926E+04  0.00000000000E+00 0. -1.
          2    1    1    2  501    0  0.49139862878E+01 -0.20093801830E+02 -0.87938439487E+03  0.87962766104E+03  0.00000000000E+00 0. -1.
         -2    1    1    2    0  502 -0.49139862878E+01  0.20093801830E+02 -0.98414187582E+03  0.98435925346E+03  0.00000000000E+00 0.  1.
<mgrwt>
<rscale>  2 0.20685940E+02</rscale>
<asrwt>0</asrwt>
<pdfrwt beam="1">  1       21 0.35434190E-04 0.20685940E+02</pdfrwt>
<pdfrwt beam="2">  1       21 0.28673138E+00 0.20685940E+02</pdfrwt>
<totfact> 0.24174666E+07</totfact>
</mgrwt>
</event>
<event>
 4    1  0.7616518E+004  0.2199482E+02  0.7546771E-02  0.1708342E+00
         21   -1    0    0  501  502  0.00000000000E+00  0.00000000000E+00  0.18782248152E+03  0.18782248152E+03  0.00000000000E+00 0. -1.
         21   -1    0    0  502  503 -0.00000000000E+00 -0.00000000000E+00 -0.26423384060E+01  0.26423384060E+01  0.00000000000E+00 0. -1.
          2    1    1    2  501    0 -0.21673279531E+02 -0.37471240785E+01  0.77465114045E+02  0.80527112692E+02  0.00000000000E+00 0.  1.
         -2    1    1    2    0  503  0.21673279531E+02  0.37471240785E+01  0.10771502906E+03  0.10993770723E+03  0.00000000000E+00 0. -1.
<mgrwt>
<rscale>  2 0.21994817E+02</rscale>
<asrwt>0</asrwt>
<pdfrwt beam="1">  1       21 0.28895756E-01 0.21994817E+02</pdfrwt>
<pdfrwt beam="2">  1       21 0.40651375E-03 0.21994817E+02</pdfrwt>
<totfact> 0.12034901E+08</totfact>
</mgrwt>
</event>
<event>
 4    1  0.7616518E+004  0.2109851E+02  0.7546771E-02  0.1724326E+00
         21   -1    0    0  501  502  0.00000000000E+00  0.00000000000E+00  0.59508420697E+02  0.59508420697E+02  0.00000000000E+00 0.  1.
         21   -1    0    0  502  503 -0.00000000000E+00 -0.00000000000E+00 -0.74868647898E+01  0.74868647898E+01  0.00000000000E+00 0.  1.
          3    1    1    2  501    0 -0.38269808794E+01  0.20748522276E+02  0.25026662679E+02  0.32733481393E+02  0.00000000000E+00 0.  1.
         -3    1    1    2    0  503  0.38269808794E+01 -0.20748522276E+02  0.26994893229E+02  0.34261804093E+02  0.00000000000E+00 0. -1.
<mgrwt>
<rscale>  2 0.21098506E+02</rscale>
<asrwt>0</asrwt>
<pdfrwt beam="1">  1       21 0.91551413E-02 0.21098506E+02</pdfrwt>
<pdfrwt beam="2">  1       21 0.11518254E-02 0.21098506E+02</pdfrwt>
<totfact> 0.18171892E+08</totfact>
</mgrwt>
</event>
<event>
 4    1  0.7616518E+004  0.2079093E+02  0.7546771E-02  0.1730042E+00
         21   -1    0    0  501  502  0.00000000000E+00  0.00000000000E+00  0.31873088746E+03  0.31873088746E+03  0.00000000000E+00 0. -1.
         21   -1    0    0  502  503 -0.00000000000E+00 -0.00000000000E+00 -0.15422688746E+01  0.15422688746E+01  0.00000000000E+00 0. -1.
          1    1    1    2  501    0  0.93214269428E+00  0.20770019003E+02  0.21421652420E+03  0.21522309778E+03  0.00000000000E+00 0. -1.
         -1    1    1    2    0  503 -0.93214269428E+00 -0.20770019003E+02  0.10297209439E+03  0.10505005855E+03  0.00000000000E+00 0.  1.
<mgrwt>
<rscale>  2 0.20790925E+02</rscale>
<asrwt>0</asrwt>
<pdfrwt beam="1">  1       21 0.49035469E-01 0.20790925E+02</pdfrwt>
<pdfrwt beam="2">  1       21 0.23727239E-03 0.20790925E+02</pdfrwt>
<totfact> 0.96718604E+07</totfact>
</mgrwt>
</event>
<event>
 4    1  0.7616518E+004  0.2098383E+02  0.7546771E-02  0.1726443E+00
         21   -1    0    0  501  502  0.00000000000E+00  0.00000000000E+00  0.24845861579E+01  0.24845861579E+01  0.00000000000E+00 0. -1.
         21   -1    0    0  502  503 -0.00000000000E+00 -0.00000000000E+00 -0.20522437519E+03  0.20522437519E+03  0.00000000000E+00 0. -1.
          2    1    1    2  501    0  0.20539169491E+02  0.42969302218E+01 -0.13973312571E+03  0.14129992043E+03  0.00000000000E+00 0. -1.
         -2    1    1    2    0  503 -0.20539169491E+02 -0.42969302218E+01 -0.63006663318E+02  0.66409040915E+02  0.00000000000E+00 0.  1.
<mgrwt>
<rscale>  2 0.20983829E+02</rscale>
<asrwt>0</asrwt>
<pdfrwt beam="1">  1       21 0.38224400E-03 0.20983829E+02</pdfrwt>
<pdfrwt beam="2">  1       21 0.31572983E-01 0.20983829E+02</pdfrwt>
<totfact> 0.11066054E+08</totfact>
</mgrwt>
</event>
<event>
 4    1  0.7616518E+004  0.3061844E+02  0.7546771E-02  0.1591352E+00
         21   -1    0    0  501  502  0.00000000000E+00  0.00000000000E+00  0.24947140814E+02  0.24947140814E+02  0.00000000000E+00 0.  1.
         21   -1    0    0  502  503 -0.00000000000E+00 -0.00000000000E+00 -0.37657770384E+02  0.37657770384E+02  0.00000000000E+00 0.  1.
          1    1    1    2  501    0 -0.24357829736E+02  0.18552216957E+02 -0.77869438477E+01  0.31593118206E+02  0.00000000000E+00 0.  1.
         -1    1    1    2    0  503  0.24357829736E+02 -0.18552216957E+02 -0.49236857228E+01  0.31011792992E+02  0.00000000000E+00 0. -1.
<mgrwt>
<rscale>  2 0.30618436E+02</rscale>
<asrwt>0</asrwt>
<pdfrwt beam="1">  1       21 0.38380217E-02 0.30618436E+02</pdfrwt>
<pdfrwt beam="2">  1       21 0.57935031E-02 0.30618436E+02</pdfrwt>
<totfact> 0.66138279E+07</totfact>
</mgrwt>
</event>
<event>
 4    1  0.7616518E+004  0.3583122E+02  0.7546771E-02  0.1541341E+00
         21   -1    0    0  501  502  0.00000000000E+00  0.00000000000E+00  0.12039404515E+02  0.12039404515E+02  0.00000000000E+00 0.  1.
         21   -1    0    0  502  503 -0.00000000000E+00 -0.00000000000E+00 -0.10731198689E+03  0.10731198689E+03  0.00000000000E+00 0.  1.
          1    1    1    2  501    0 -0.27807751712E+01 -0.35723148640E+02 -0.42912227118E+02  0.55904698331E+02  0.00000000000E+00 0.  1.
         -1    1    1    2    0  503  0.27807751712E+01  0.35723148640E+02 -0.52360355260E+02  0.63446693076E+02  0.00000000000E+00 0. -1.
<mgrwt>
<rscale>  2 0.35831216E+02</rscale>
<asrwt>0</asrwt>
<pdfrwt beam="1">  1       21 0.18522161E-02 0.35831216E+02</pdfrwt>
<pdfrwt beam="2">  1       21 0.16509536E-01 0.35831216E+02</pdfrwt>
<totfact> 0.37043252E+07</totfact>
</mgrwt>
</event>
<event>
 4    1  0.7616518E+004  0.2452702E+02  0.7546771E-02  0.1667890E+00
         21   -1    0    0  501  502  0.00000000000E+00  0.00000000000E+00  0.20535885656E+02  0.20535885656E+02  0.00000000000E+00 0.  1.
         21   -1    0    0  502  503 -0.00000000000E+00 -0.00000000000E+00 -0.29686712463E+02  0.29686712463E+02  0.00000000000E+00 0.  1.
          4    1    1    2  501    0  0.10077395374E+02 -0.22361140434E+02 -0.74642702624E+01  0.25637664277E+02  0.00000000000E+00 0. -1.
         -4    1    1    2    0  503 -0.10077395374E+02  0.22361140434E+02 -0.16865565451E+01  0.24584933842E+02  0.00000000000E+00 0.  1.
<mgrwt>
<rscale>  2 0.24527016E+02</rscale>
<asrwt>0</asrwt>
<pdfrwt beam="1">  1       21 0.31593670E-02 0.24527016E+02</pdfrwt>
<pdfrwt beam="2">  1       21 0.45671865E-02 0.24527016E+02</pdfrwt>
<totfact> 0.12441837E+08</totfact>
</mgrwt>
</event>
<event>
 4    1  0.7616518E+004  0.2135961E+02  0.7546771E-02  0.1719568E+00
         21   -1    0    0  501  502  0.00000000000E+00  0.00000000000E+00  0.54345827540E+02  0.54345827540E+02  0.00000000000E+00 0. -1.
         21   -1    0    0  502  503 -0.00000000000E+00 -0.00000000000E+00 -0.11176072448E+02  0.11176072448E+02  0.00000000000E+00 0. -1.
          1    1    1    2  501    0 -0.21128455569E+02 -0.31339002969E+01  0.52423809847E+01  0.21993533690E+02  0.00000000000E+00 0. -1.
         -1    1    1    2    0  503  0.21128455569E+02  0.31339002969E+01  0.37927374108E+02  0.43528366297E+02  0.00000000000E+00 0.  1.
<mgrwt>
<rscale>  2 0.21359611E+02</rscale>
<asrwt>0</asrwt>
<pdfrwt beam="1">  1       21 0.83608964E-02 0.21359611E+02</pdfrwt>
<pdfrwt beam="2">  1       21 0.17193958E-02 0.21359611E+02</pdfrwt>
<totfact> 0.11541717E+08</totfact>
</mgrwt>
</event>
<event>
 4    1  0.7616518E+004  0.4483677E+02  0.7546771E-02  0.1475363E+00
         21   -1    0    0  501  502  0.00000000000E+00  0.00000000000E+00  0.27936865954E+02  0.27936865954E+02  0.00000000000E+00 0.  1.
         21   -1    0    0  502  503 -0.00000000000E+00 -0.00000000000E+00 -0.74097436339E+02  0.74097436339E+02  0.00000000000E+00 0.  1.
          1    1    1    2  501    0  0.33950380050E+02 -0.29286648918E+02 -0.31745193749E+02  0.54937177180E+02  0.00000000000E+00 0.  1.
         -1    1    1    2    0  503 -0.33950380050E+02  0.29286648918E+02 -0.14415376636E+02  0.47097125113E+02  0.00000000000E+00 0. -1.
<mgrwt>
<rscale>  2 0.44836772E+02</rscale>
<asrwt>0</asrwt>
<pdfrwt beam="1">  1       21 0.42979795E-02 0.44836772E+02</pdfrwt>
<pdfrwt beam="2">  1       21 0.11399605E-01 0.44836772E+02</pdfrwt>
<totfact> 0.19213881E+07</totfact>
</mgrwt>
</event>
<event>
 4    1  0.7616518E+004  0.2639103E+02  0.7546771E-02  0.1641790E+00
         21   -1    0    0  503  502  0.00000000000E+00  0.00000000000E+00  0.28402613066E+02  0.28402613066E+02  0.00000000000E+00 0.  1.
         21   -1    0    0  501  503 -0.00000000000E+00 -0.00000000000E+00 -0.25738653725E+02  0.25738653725E+02  0.00000000000E+00 0.  1.
          5    1    1    2  501    0 -0.16537849946E+01 -0.26339160295E+02 -0.45538102460E+01  0.26781029809E+02  0.00000000000E+00 0. -1.
         -5    1    1    2    0  502  0.16537849946E+01  0.26339160295E+02  0.72177695874E+01  0.27360236982E+02  0.00000000000E+00 0.  1.
<mgrwt>
<rscale>  2 0.26391028E+02</rscale>
<asrwt>0</asrwt>
<pdfrwt beam="1">  1       21 0.43696328E-02 0.26391028E+02</pdfrwt>
<pdfrwt beam="2">  1       21 0.39597929E-02 0.26391028E+02</pdfrwt>
<totfact> 0.95416283E+07</totfact>
</mgrwt>
</event>
<event>
 4    1  0.7616518E+004  0.2930759E+02  0.7546771E-02  0.1605871E+00
         21   -1    0    0  503  502  0.00000000000E+00  0.00000000000E+00  0.10391178375E+02  0.10391178375E+02  0.00000000000E+00 0. -1.
         21   -1    0    0  501  503 -0.00000000000E+00 -0.00000000000E+00 -0.86123948479E+02  0.86123948479E+02  0.00000000000E+00 0. -1.
          4    1    1    2  501    0  0.43444995788E+01  0.28983794725E+02 -0.28188337410E+02  0.40663465164E+02  0.00000000000E+00 0.  1.
         -4    1    1    2    0  502 -0.43444995788E+01 -0.28983794725E+02 -0.47544432695E+02  0.55851661690E+02  0.00000000000E+00 0. -1.
<mgrwt>
<rscale>  2 0.29307593E+02</rscale>
<asrwt>0</asrwt>
<pdfrwt beam="1">  1       21 0.15986428E-02 0.29307593E+02</pdfrwt>
<pdfrwt beam="2">  1       21 0.13249838E-01 0.29307593E+02</pdfrwt>
<totfact> 0.65160743E+07</totfact>
</mgrwt>
</event>
<event>
 4    1  0.7616518E+004  0.2462249E+02  0.7546771E-02  0.1666484E+00
         21   -1    0    0  501  502  0.00000000000E+00  0.00000000000E+00  0.24107604415E+02  0.24107604415E+02  0.00000000000E+00 0.  1.
         21   -1    0    0  502  503 -0.00000000000E+00 -0.00000000000E+00 -0.27115053411E+02  0.27115053411E+02  0.00000000000E+00 0.  1.
          5    1    1    2  501    0 -0.20112819450E+02  0.14203579184E+02  0.53937981767E+01  0.25206352902E+02  0.00000000000E+00 0. -1.
         -5    1    1    2    0  503  0.20112819450E+02 -0.14203579184E+02 -0.84012471729E+01  0.26016304924E+02  0.00000000000E+00 0.  1.
<mgrwt>
<rscale>  2 0.24622493E+02</rscale>
<asrwt>0</asrwt>
<pdfrwt beam="1">  1       21 0.37088622E-02 0.24622493E+02</pdfrwt>
<pdfrwt beam="2">  1       21 0.41715467E-02 0.24622493E+02</pdfrwt>
<totfact> 0.11180464E+08</totfact>
</mgrwt>
</event>
<event>
 4    1  0.7616518E+004  0.2817724E+02  0.7546771E-02  0.1619157E+00
         21   -1    0    0  501  502  0.00000000000E+00  0.00000000000E+00  0.15006353486E+03  0.15006353486E+03  0.00000000000E+00 0. -1.
         21   -1    0    0  502  503 -0.00000000000E+00 -0.00000000000E+00 -0.53302144186E+01  0.53302144186E+01  0.00000000000E+00 0. -1.
          1    1    1    2  501    0  0.12185680231E+02  0.25406028556E+02  0.79047395744E+02  0.83919293751E+02  0.00000000000E+00 0.  1.
         -1    1    1    2    0  503 -0.12185680231E+02 -0.25406028556E+02  0.65685924702E+02  0.71474455532E+02  0.00000000000E+00 0. -1.
<mgrwt>
<rscale>  2 0.28177244E+02</rscale>
<asrwt>0</asrwt>
<pdfrwt beam="1">  1       21 0.23086694E-01 0.28177244E+02</pdfrwt>
<pdfrwt beam="2">  1       21 0.82003310E-03 0.28177244E+02</pdfrwt>
<totfact> 0.67700847E+07</totfact>
</mgrwt>
</event>
<event>
 4    1  0.7616518E+004  0.2336590E+02  0.7546771E-02  0.1685647E+00
         21   -1    0    0  501  502  0.00000000000E+00  0.00000000000E+00  0.66924110120E+02  0.66924110120E+02  0.00000000000E+00 0. -1.
         21   -1    0    0  502  503 -0.00000000000E+00 -0.00000000000E+00 -0.13088278395E+02  0.13088278395E+02  0.00000000000E+00 0. -1.
          5    1    1    2  501    0  0.40309122473E+01  0.23015585631E+02  0.51471938751E+02  0.56527213926E+02  0.00000000000E+00 0.  1.
         -5    1    1    2    0  503 -0.40309122473E+01 -0.23015585631E+02  0.23638929733E+01  0.23485174589E+02  0.00000000000E+00 0. -1.
<mgrwt>
<rscale>  2 0.23365903E+02</rscale>
<asrwt>0</asrwt>
<pdfrwt beam="1">  1       21 0.10296017E-01 0.23365903E+02</pdfrwt>
<pdfrwt beam="2">  1       21 0.20135813E-02 0.23365903E+02</pdfrwt>
<totfact> 0.66026385E+07</totfact>
</mgrwt>
</event>
<event>
 4    1  0.7616518E+004  0.2175390E+02  0.7546771E-02  0.1712543E+00
         21   -1    0    0  503  502  0.00000000000E+00  0.00000000000E+00  0.31711244618E+02  0.31711244618E+02  0.00000000000E+00 0. -1.
         21   -1    0    0  501  503 -0.00000000000E+00 -0.00000000000E+00 -0.18479289569E+02  0.18479289569E+02  0.00000000000E+00 0. -1.
          1    1    1    2  501    0 -0.17487679238E+02 -0.12938827293E+02  0.17624716910E+02  0.27997550304E+02  0.00000000000E+00 0. -1.
         -1    1    1    2    0  502  0.17487679238E+02  0.12938827293E+02 -0.43927618617E+01  0.22192983883E+02  0.00000000000E+00 0.  1.
<mgrwt>
<rscale>  2 0.21753900E+02</rscale>
<asrwt>0</asrwt>
<pdfrwt beam="1">  1       21 0.48786530E-02 0.21753900E+02</pdfrwt>
<pdfrwt beam="2">  1       21 0.28429676E-02 0.21753900E+02</pdfrwt>
<totfact> 0.12743745E+08</totfact>
</mgrwt>
</event>
<event>
 4    1  0.7616518E+004  0.2269927E+02  0.7546771E-02  0.1696432E+00
         21   -1    0    0  503  502  0.00000000000E+00  0.00000000000E+00  0.92141430436E+01  0.92141430436E+01  0.00000000000E+00 0. -1.
         21   -1    0    0  501  503 -0.00000000000E+00 -0.00000000000E+00 -0.10754880507E+03  0.10754880507E+03  0.00000000000E+00 0. -1.
          3    1    1    2  501    0  0.21170088993E+02  0.81905005576E+01 -0.89617221019E+02  0.92447299964E+02  0.00000000000E+00 0.  1.
         -3    1    1    2    0  502 -0.21170088993E+02 -0.81905005576E+01 -0.87174410116E+01  0.24315648154E+02  0.00000000000E+00 0. -1.
<mgrwt>
<rscale>  2 0.22699272E+02</rscale>
<asrwt>0</asrwt>
<pdfrwt beam="1">  1       21 0.14175605E-02 0.22699272E+02</pdfrwt>
<pdfrwt beam="2">  1       21 0.16545969E-01 0.22699272E+02</pdfrwt>
<totfact> 0.50325267E+07</totfact>
</mgrwt>
</event>
<event>
 4    1  0.7616518E+004  0.2506423E+02  0.7546771E-02  0.1660081E+00
         21   -1    0    0  503  502  0.00000000000E+00  0.00000000000E+00  0.99551748239E+01  0.99551748239E+01  0.00000000000E+00 0.  1.
         21   -1    0    0  501  503 -0.00000000000E+00 -0.00000000000E+00 -0.73862263721E+02  0.73862263721E+02  0.00000000000E+00 0.  1.
          1    1    1    2  501    0 -0.25039999705E+02  0.11017867201E+01 -0.15959594736E+02  0.29714040172E+02  0.00000000000E+00 0. -1.
         -1    1    1    2    0  502  0.25039999705E+02 -0.11017867201E+01 -0.47947494161E+02  0.54103398373E+02  0.00000000000E+00 0.  1.
<mgrwt>
<rscale>  2 0.25064228E+02</rscale>
<asrwt>0</asrwt>
<pdfrwt beam="1">  1       21 0.15315654E-02 0.25064228E+02</pdfrwt>
<pdfrwt beam="2">  1       21 0.11363425E-01 0.25064228E+02</pdfrwt>
<totfact> 0.86754983E+07</totfact>
</mgrwt>
</event>
<event>
 4    1  0.7616518E+004  0.2461662E+02  0.7546771E-02  0.1666570E+00
         21   -1    0    0  501  502  0.00000000000E+00  0.00000000000E+00  0.18042444799E+02  0.18042444799E+02  0.00000000000E+00 0.  1.
         21   -1    0    0  502  503 -0.00000000000E+00 -0.00000000000E+00 -0.39492938719E+02  0.39492938719E+02  0.00000000000E+00 0.  1.
          2    1    1    2  501    0 -0.29515634770E+01  0.24439036124E+02  0.40018862208E+00  0.24619877428E+02  0.00000000000E+00 0.  1.
         -2    1    1    2    0  503  0.29515634770E+01 -0.24439036124E+02 -0.21850682542E+02  0.32915506090E+02  0.00000000000E+00 0. -1.
<mgrwt>
<rscale>  2 0.24616625E+02</rscale>
<asrwt>0</asrwt>
<pdfrwt beam="1">  1       21 0.27757608E-02 0.24616625E+02</pdfrwt>
<pdfrwt beam="2">  1       21 0.60758366E-02 0.24616625E+02</pdfrwt>
<totfact> 0.96533489E+07</totfact>
</mgrwt>
</event>
<event>
 4    1  0.7616518E+004  0.2170586E+02  0.7546771E-02  0.1713389E+00
         21   -1    0    0  501  502  0.00000000000E+00  0.00000000000E+00  0.35656405027E+01  0.35656405027E+01  0.00000000000E+00 0. -1.
         21   -1    0    0  502  503 -0.00000000000E+00 -0.00000000000E+00 -0.14065376944E+03  0.14065376944E+03  0.00000000000E+00 0. -1.
          3    1    1    2  501    0 -0.11913048483E+02 -0.18144523977E+02 -0.50797401177E+02  0.55240568796E+02  0.00000000000E+00 0.  1.
         -3    1    1    2    0  503  0.11913048483E+02  0.18144523977E+02 -0.86290727762E+02  0.88978841149E+02  0.00000000000E+00 0. -1.
<mgrwt>
<rscale>  2 0.21705863E+02</rscale>
<asrwt>0</asrwt>
<pdfrwt beam="1">  1       21 0.54856006E-03 0.21705863E+02</pdfrwt>
<pdfrwt beam="2">  1       21 0.21639042E-01 0.21705863E+02</pdfrwt>
<totfact> 0.12910758E+08</totfact>
</mgrwt>
</event>
<event>
 4    1  0.7616518E+004  0.2067602E+02  0.7546771E-02  0.1732209E+00
         21   -1    0    0  503  502  0.00000000000E+00  0.00000000000E+00  0.22456601288E+03  0.22456601288E+03  0.00000000000E+00 0. -1.
         21   -1    0    0  501  503 -0.00000000000E+00 -0.00000000000E+00 -0.22928730186E+01  0.22928730186E+01  0.00000000000E+00 0. -1.
          2    1    1    2  501    0  0.20112960332E+02 -0.47923315738E+01  0.15787012107E+03  0.15921831786E+03  0.00000000000E+00 0. -1.
         -2    1    1    2    0  502 -0.20112960332E+02  0.47923315738E+01  0.64403018792E+02  0.67640568040E+02  0.00000000000E+00 0.  1.
<mgrwt>
<rscale>  2 0.20676015E+02</rscale>
<asrwt>0</asrwt>
<pdfrwt beam="1">  1       21 0.34548600E-01 0.20676015E+02</pdfrwt>
<pdfrwt beam="2">  1       21 0.35274987E-03 0.20676015E+02</pdfrwt>
<totfact> 0.10506348E+08</totfact>
</mgrwt>
</event>
<event>
 4    1  0.7616518E+004  0.2462010E+02  0.7546771E-02  0.1666519E+00
         21   -1    0    0  503  502  0.00000000000E+00  0.00000000000E+00  0.52324331992E+01  0.52324331992E+01  0.00000000000E+00 0.  1.
         21   -1    0    0  501  503 -0.00000000000E+00 -0.00000000000E+00 -0.13243142631E+03  0.13243142631E+03  0.00000000000E+00 0.  1.
          5    1    1    2  501    0  0.23945539147E+02  0.57236558423E+01 -0.39239557907E+02  0.46323773443E+02  0.00000000000E+00 0.  1.
         -5    1    1    2    0  502 -0.23945539147E+02 -0.57236558423E+01 -0.87959435201E+02  0.91340086064E+02  0.00000000000E+00 0. -1.
<mgrwt>
<rscale>  2 0.24620095E+02</rscale>
<asrwt>0</asrwt>
<pdfrwt beam="1">  1       21 0.80498977E-03 0.24620095E+02</pdfrwt>
<pdfrwt beam="2">  1       21 0.20374064E-01 0.24620095E+02</pdfrwt>
<totfact> 0.84027801E+07</totfact>
</mgrwt>
</event>
<event>
 4    1  0.7616518E+004  0.2678939E+02  0.7546771E-02  0.1636555E+00
         21   -1    0    0  503  502  0.00000000000E+00  0.00000000000E+00  0.97176669283E+01  0.97176669283E+01  0.00000000000E+00 0.  1.
         21   -1    0    0  501  503 -0.00000000000E+00 -0.00000000000E+00 -0.91128911929E+02  0.91128911929E+02  0.00000000000E+00 0.  1.
          4    1    1    2  501    0 -0.24172428361E+02  0.11548379917E+02 -0.62660612946E+02  0.68147074672E+02  0.00000000000E+00 0. -1.
         -4    1    1    2    0  502  0.24172428361E+02 -0.11548379917E+02 -0.18750632055E+02  0.32699504186E+02  0.00000000000E+00 0.  1.
<mgrwt>
<rscale>  2 0.26789389E+02</rscale>
<asrwt>0</asrwt>
<pdfrwt beam="1">  1       21 0.14950257E-02 0.26789389E+02</pdfrwt>
<pdfrwt beam="2">  1       21 0.14019832E-01 0.26789389E+02</pdfrwt>
<totfact> 0.64182827E+07</totfact>
</mgrwt>
</event>
<event>
 4    1  0.7616518E+004  0.3024502E+02  0.7546771E-02  0.1595396E+00
         21   -1    0    0  501  502  0.00000000000E+00  0.00000000000E+00  0.18594962920E+03  0.18594962920E+03  0.00000000000E+00 0. -1.
         21   -1    0    0  502  503 -0.00000000000E+00 -0.00000000000E+00 -0.50889715926E+01  0.50889715926E+01  0.00000000000E+00 0. -1.
          4    1    1    2  501    0 -0.26611371251E+02  0.14373445817E+02  0.10786644627E+03  0.11202647569E+03  0.00000000000E+00 0.  1.
         -4    1    1    2    0  503  0.26611371251E+02 -0.14373445817E+02  0.72994211335E+02  0.79012125101E+02  0.00000000000E+00 0. -1.
<mgrwt>
<rscale>  2 0.30245017E+02</rscale>
<asrwt>0</asrwt>
<pdfrwt beam="1">  1       21 0.28607630E-01 0.30245017E+02</pdfrwt>
<pdfrwt beam="2">  1       21 0.78291885E-03 0.30245017E+02</pdfrwt>
<totfact> 0.50058624E+07</totfact>
</mgrwt>
</event>
<event>
 4    1  0.7616518E+004  0.3006040E+02  0.7546771E-02  0.1597422E+00
         21   -1    0    0  503  502  0.00000000000E+00  0.00000000000E+00  0.51054765414E+02  0.51054765414E+02  0.00000000000E+00 0. -1.
         21   -1    0    0  501  503 -0.00000000000E+00 -0.00000000000E+00 -0.21434157697E+02  0.21434157697E+02  0.00000000000E+00 0. -1.
          3    1    1    2  501    0 -0.12270425948E+02 -0.27442020697E+02 -0.31945571034E+00  0.30062100805E+02  0.00000000000E+00 0. -1.
         -3    1    1    2    0  502  0.12270425948E+02  0.27442020697E+02  0.29940063428E+02  0.42426822305E+02  0.00000000000E+00 0.  1.
<mgrwt>
<rscale>  2 0.30060403E+02</rscale>
<asrwt>0</asrwt>
<pdfrwt beam="1">  1       21 0.78545792E-02 0.30060403E+02</pdfrwt>
<pdfrwt beam="2">  1       21 0.32975627E-02 0.30060403E+02</pdfrwt>
<totfact> 0.50949411E+07</totfact>
</mgrwt>
</event>
<event>
 4    1  0.7616518E+004  0.3638676E+02  0.7546771E-02  0.1536620E+00
         21   -1    0    0  501  502  0.00000000000E+00  0.00000000000E+00  0.34973642362E+02  0.34973642362E+02  0.00000000000E+00 0. -1.
         21   -1    0    0  502  503 -0.00000000000E+00 -0.00000000000E+00 -0.40218785422E+02  0.40218785422E+02  0.00000000000E+00 0. -1.
          2    1    1    2  501    0 -0.10966630754E+02  0.34694806146E+02  0.64881227278E+01  0.36960685872E+02  0.00000000000E+00 0. -1.
         -2    1    1    2    0  503  0.10966630754E+02 -0.34694806146E+02 -0.11733265787E+02  0.38231741912E+02  0.00000000000E+00 0.  1.
<mgrwt>
<rscale>  2 0.36386764E+02</rscale>
<asrwt>0</asrwt>
<pdfrwt beam="1">  1       21 0.53805604E-02 0.36386764E+02</pdfrwt>
<pdfrwt beam="2">  1       21 0.61875054E-02 0.36386764E+02</pdfrwt>
<totfact> 0.35798867E+07</totfact>
</mgrwt>
</event>
<event>
 4    1  0.7616518E+004  0.2142012E+02  0.7546771E-02  0.1718478E+00
         21   -1    0    0  501  502  0.00000000000E+00  0.00000000000E+00  0.59313685630E+01  0.59313685630E+01  0.00000000000E+00 0. -1.
         21   -1    0    0  502  503 -0.00000000000E+00 -0.00000000000E+00 -0.85450924808E+02  0.85450924808E+02  0.00000000000E+00 0. -1.
          4    1    1    2  501    0 -0.11051833750E+02  0.18348799772E+02 -0.25695909706E+02  0.33452970838E+02  0.00000000000E+00 0.  1.
         -4    1    1    2    0  503  0.11051833750E+02 -0.18348799772E+02 -0.53823646539E+02  0.57929322533E+02  0.00000000000E+00 0. -1.
<mgrwt>
<rscale>  2 0.21420119E+02</rscale>
<asrwt>0</asrwt>
<pdfrwt beam="1">  1       21 0.91251825E-03 0.21420119E+02</pdfrwt>
<pdfrwt beam="2">  1       21 0.13146296E-01 0.21420119E+02</pdfrwt>
<totfact> 0.14200868E+08</totfact>
</mgrwt>
</event>
<event>
 4    1  0.7616518E+004  0.2120745E+02  0.7546771E-02  0.1722330E+00
         21   -1    0    0  503  502  0.00000000000E+00  0.00000000000E+00  0.10195323183E+03  0.10195323183E+03  0.00000000000E+00 0. -1.
         21   -1    0    0  501  503 -0.00000000000E+00 -0.00000000000E+00 -0.47144284093E+01  0.47144284093E+01  0.00000000000E+00 0. -1.
          5    1    1    2  501    0  0.20334754501E+02 -0.60211158866E+01  0.62141148657E+02  0.65660326176E+02  0.00000000000E+00 0.  1.
         -5    1    1    2    0  502 -0.20334754501E+02  0.60211158866E+01  0.35097654767E+02  0.41007334067E+02  0.00000000000E+00 0. -1.
<mgrwt>
<rscale>  2 0.21207453E+02</rscale>
<asrwt>0</asrwt>
<pdfrwt beam="1">  1       21 0.15685111E-01 0.21207453E+02</pdfrwt>
<pdfrwt beam="2">  1       21 0.72529675E-03 0.21207453E+02</pdfrwt>
<totfact> 0.14785785E+08</totfact>
</mgrwt>
</event>
<event>
 4    1  0.7616518E+004  0.3519811E+02  0.7546771E-02  0.1546848E+00
         21   -1    0    0  503  502  0.00000000000E+00  0.00000000000E+00  0.99099413117E+01  0.99099413117E+01  0.00000000000E+00 0.  1.
         21   -1    0    0  501  503 -0.00000000000E+00 -0.00000000000E+00 -0.24313481320E+03  0.24313481320E+03  0.00000000000E+00 0.  1.
          3    1    1    2  501    0 -0.80392424604E+01  0.34267736199E+02 -0.28425915943E+02  0.45243119485E+02  0.00000000000E+00 0.  1.
         -3    1    1    2    0  502  0.80392424604E+01 -0.34267736199E+02 -0.20479895595E+03  0.20780163503E+03  0.00000000000E+00 0. -1.
<mgrwt>
<rscale>  2 0.35198113E+02</rscale>
<asrwt>0</asrwt>
<pdfrwt beam="1">  1       21 0.15246064E-02 0.35198113E+02</pdfrwt>
<pdfrwt beam="2">  1       21 0.37405356E-01 0.35198113E+02</pdfrwt>
<totfact> 0.11297316E+07</totfact>
</mgrwt>
</event>
<event>
 4    1  0.7616518E+004  0.2080713E+02  0.7546771E-02  0.1729738E+00
         21   -1    0    0  501  502  0.00000000000E+00  0.00000000000E+00  0.29436027112E+03  0.29436027112E+03  0.00000000000E+00 0.  1.
         21   -1    0    0  502  503 -0.00000000000E+00 -0.00000000000E+00 -0.14716363882E+01  0.14716363882E+01  0.00000000000E+00 0.  1.
          4    1    1    2  501    0 -0.10824642632E+02 -0.17769744551E+02  0.14285853058E+03  0.14436584246E+03  0.00000000000E+00 0.  1.
         -4    1    1    2    0  503  0.10824642632E+02  0.17769744551E+02  0.15003010415E+03  0.15146606504E+03  0.00000000000E+00 0. -1.
<mgrwt>
<rscale>  2 0.20807131E+02</rscale>
<asrwt>0</asrwt>
<pdfrwt beam="1">  1       21 0.45286149E-01 0.20807131E+02</pdfrwt>
<pdfrwt beam="2">  1       21 0.22640583E-03 0.20807131E+02</pdfrwt>
<totfact> 0.12058045E+08</totfact>
</mgrwt>
</event>
<event>
 4    1  0.7616518E+004  0.2164889E+02  0.7546771E-02  0.1714396E+00
         21   -1    0    0  501  502  0.00000000000E+00  0.00000000000E+00  0.53054056771E+01  0.53054056771E+01  0.00000000000E+00 0. -1.
         21   -1    0    0  502  503 -0.00000000000E+00 -0.00000000000E+00 -0.91989269180E+02  0.91989269180E+02  0.00000000000E+00 0. -1.
          3    1    1    2  501    0  0.17508739948E+02  0.12732570081E+02 -0.33651301966E+02  0.40013553197E+02  0.00000000000E+00 0.  1.
         -3    1    1    2    0  503 -0.17508739948E+02 -0.12732570081E+02 -0.53032561537E+02  0.57281121660E+02  0.00000000000E+00 0. -1.
<mgrwt>
<rscale>  2 0.21648887E+02</rscale>
<asrwt>0</asrwt>
<pdfrwt beam="1">  1       21 0.81621636E-03 0.21648887E+02</pdfrwt>
<pdfrwt beam="2">  1       21 0.14152193E-01 0.21648887E+02</pdfrwt>
<totfact> 0.14859512E+08</totfact>
</mgrwt>
</event>
<event>
 4    1  0.7616518E+004  0.2262890E+02  0.7546771E-02  0.1697597E+00
         21   -1    0    0  503  502  0.00000000000E+00  0.00000000000E+00  0.78910790403E+01  0.78910790403E+01  0.00000000000E+00 0.  1.
         21   -1    0    0  501  503 -0.00000000000E+00 -0.00000000000E+00 -0.13076375581E+03  0.13076375581E+03  0.00000000000E+00 0.  1.
          4    1    1    2  501    0  0.18476763612E+02 -0.13064309699E+02 -0.12231100782E+02  0.25722884905E+02  0.00000000000E+00 0.  1.
         -4    1    1    2    0  502 -0.18476763612E+02  0.13064309699E+02 -0.11064157599E+03  0.11293194995E+03  0.00000000000E+00 0. -1.
<mgrwt>
<rscale>  2 0.22628897E+02</rscale>
<asrwt>0</asrwt>
<pdfrwt beam="1">  1       21 0.12140122E-02 0.22628897E+02</pdfrwt>
<pdfrwt beam="2">  1       21 0.20117501E-01 0.22628897E+02</pdfrwt>
<totfact> 0.45341948E+07</totfact>
</mgrwt>
</event>
<event>
 4    1  0.7616518E+004  0.2459777E+02  0.7546771E-02  0.1666847E+00
         21   -1    0    0  501  502  0.00000000000E+00  0.00000000000E+00  0.32228971435E+02  0.32228971435E+02  0.00000000000E+00 0.  1.
         21   -1    0    0  502  503 -0.00000000000E+00 -0.00000000000E+00 -0.18820256799E+02  0.18820256799E+02  0.00000000000E+00 0.  1.
          4    1    1    2  501    0 -0.24404058907E+02  0.30809581049E+01  0.54320330869E+01  0.25190422336E+02  0.00000000000E+00 0. -1.
         -4    1    1    2    0  503  0.24404058907E+02 -0.30809581049E+01  0.79766815491E+01  0.25858805899E+02  0.00000000000E+00 0.  1.
<mgrwt>
<rscale>  2 0.24597772E+02</rscale>
<asrwt>0</asrwt>
<pdfrwt beam="1">  1       21 0.49583033E-02 0.24597772E+02</pdfrwt>
<pdfrwt beam="2">  1       21 0.28954241E-02 0.24597772E+02</pdfrwt>
<totfact> 0.12519153E+08</totfact>
</mgrwt>
</event>
<event>
 4    1  0.7616518E+004  0.2602067E+02  0.7546771E-02  0.1646760E+00
         21   -1    0    0  503  502  0.00000000000E+00  0.00000000000E+00  0.20630006553E+01  0.20630006553E+01  0.00000000000E+00 0.  1.
         21   -1    0    0  501  503 -0.00000000000E+00 -0.00000000000E+00 -0.34346966097E+03  0.34346966097E+03  0.00000000000E+00 0.  1.
          3    1    1    2  501    0 -0.21636028843E+02  0.14455358600E+02 -0.20713182171E+03  0.20875983019E+03  0.00000000000E+00 0.  1.
         -3    1    1    2    0  502  0.21636028843E+02 -0.14455358600E+02 -0.13427483861E+03  0.13677283144E+03  0.00000000000E+00 0. -1.
<mgrwt>
<rscale>  2 0.26020667E+02</rscale>
<asrwt>0</asrwt>
<pdfrwt beam="1">  1       21 0.31738507E-03 0.26020667E+02</pdfrwt>
<pdfrwt beam="2">  1       21 0.52841427E-01 0.26020667E+02</pdfrwt>
<totfact> 0.57862833E+07</totfact>
</mgrwt>
</event>
<event>
 4    1  0.7616518E+004  0.2446576E+02  0.7546771E-02  0.1668796E+00
         21   -1    0    0  503  502  0.00000000000E+00  0.00000000000E+00  0.12677385434E+02  0.12677385434E+02  0.00000000000E+00 0.  1.
         21   -1    0    0  501  503 -0.00000000000E+00 -0.00000000000E+00 -0.50064716377E+02  0.50064716377E+02  0.00000000000E+00 0.  1.
          4    1    1    2  501    0  0.24415596954E+02  0.15659356983E+01 -0.26177070062E+02  0.35830329698E+02  0.00000000000E+00 0. -1.
         -4    1    1    2    0  502 -0.24415596954E+02 -0.15659356983E+01 -0.11210260880E+02  0.26911772113E+02  0.00000000000E+00 0.  1.
<mgrwt>
<rscale>  2 0.24465762E+02</rscale>
<asrwt>0</asrwt>
<pdfrwt beam="1">  1       21 0.19503670E-02 0.24465762E+02</pdfrwt>
<pdfrwt beam="2">  1       21 0.77022640E-02 0.24465762E+02</pdfrwt>
<totfact> 0.11321157E+08</totfact>
</mgrwt>
</event>
<event>
 4    1  0.7616518E+004  0.2423928E+02  0.7546771E-02  0.1672175E+00
         21   -1    0    0  501  502  0.00000000000E+00  0.00000000000E+00  0.31856448818E+03  0.31856448818E+03  0.00000000000E+00 0.  1.
         21   -1    0    0  502  503 -0.00000000000E+00 -0.00000000000E+00 -0.18526033400E+01  0.18526033400E+01  0.00000000000E+00 0.  1.
          1    1    1    2  501    0  0.23219399290E+02 -0.69571835412E+01  0.14765963690E+03  0.14963592910E+03  0.00000000000E+00 0.  1.
         -1    1    1    2    0  503 -0.23219399290E+02  0.69571835412E+01  0.16905224794E+03  0.17078116243E+03  0.00000000000E+00 0. -1.
<mgrwt>
<rscale>  2 0.24239284E+02</rscale>
<asrwt>0</asrwt>
<pdfrwt beam="1">  1       21 0.49009878E-01 0.24239284E+02</pdfrwt>
<pdfrwt beam="2">  1       21 0.28501615E-03 0.24239284E+02</pdfrwt>
<totfact> 0.77185489E+07</totfact>
</mgrwt>
</event>
<event>
 4    1  0.7616518E+004  0.2088113E+02  0.7546771E-02  0.1728353E+00
         21   -1    0    0  503  502  0.00000000000E+00  0.00000000000E+00  0.18502849166E+03  0.18502849166E+03  0.00000000000E+00 0.  1.
         21   -1    0    0  501  503 -0.00000000000E+00 -0.00000000000E+00 -0.24822580285E+01  0.24822580285E+01  0.00000000000E+00 0.  1.
          5    1    1    2  501    0  0.12650142706E+02  0.16613117861E+02  0.11237496341E+03  0.11429853104E+03  0.00000000000E+00 0. -1.
         -5    1    1    2    0  502 -0.12650142706E+02 -0.16613117861E+02  0.70171270222E+02  0.73212218653E+02  0.00000000000E+00 0.  1.
<mgrwt>
<rscale>  2 0.20881135E+02</rscale>
<asrwt>0</asrwt>
<pdfrwt beam="1">  1       21 0.28465911E-01 0.20881135E+02</pdfrwt>
<pdfrwt beam="2">  1       21 0.38188600E-03 0.20881135E+02</pdfrwt>
<totfact> 0.13349873E+08</totfact>
</mgrwt>
</event>
<event>
 4    1  0.7616518E+004  0.2005856E+02  0.7546771E-02  0.1744166E+00
         21   -1    0    0  501  502  0.00000000000E+00  0.00000000000E+00  0.31776553337E+02  0.31776553337E+02  0.00000000000E+00 0.  1.
         21   -1    0    0  502  503 -0.00000000000E+00 -0.00000000000E+00 -0.13870768803E+02  0.13870768803E+02  0.00000000000E+00 0.  1.
          4    1    1    2  501    0 -0.16467697690E+02 -0.11452550951E+02  0.15691280048E+02  0.25466885559E+02  0.00000000000E+00 0. -1.
         -4    1    1    2    0  503  0.16467697690E+02  0.11452550951E+02  0.22145044852E+01  0.20180436582E+02  0.00000000000E+00 0.  1.
<mgrwt>
<rscale>  2 0.20058564E+02</rscale>
<asrwt>0</asrwt>
<pdfrwt beam="1">  1       21 0.48887005E-02 0.20058564E+02</pdfrwt>
<pdfrwt beam="2">  1       21 0.21339644E-02 0.20058564E+02</pdfrwt>
<totfact> 0.19260895E+08</totfact>
</mgrwt>
</event>
<event>
 4    1  0.7616518E+004  0.2062455E+02  0.7546771E-02  0.1733186E+00
         21   -1    0    0  503  502  0.00000000000E+00  0.00000000000E+00  0.83057653465E+02  0.83057653465E+02  0.00000000000E+00 0. -1.
         21   -1    0    0  501  503 -0.00000000000E+00 -0.00000000000E+00 -0.66624354137E+01  0.66624354137E+01  0.00000000000E+00 0. -1.
          2    1    1    2  501    0  0.50370736794E+01  0.20000000879E+02  0.16622730981E+02  0.26489381489E+02  0.00000000000E+00 0.  1.
         -2    1    1    2    0  502 -0.50370736794E+01 -0.20000000879E+02  0.59772487070E+02  0.63230707390E+02  0.00000000000E+00 0. -1.
<mgrwt>
<rscale>  2 0.20624552E+02</rscale>
<asrwt>0</asrwt>
<pdfrwt beam="1">  1       21 0.12778100E-01 0.20624552E+02</pdfrwt>
<pdfrwt beam="2">  1       21 0.10249901E-02 0.20624552E+02</pdfrwt>
<totfact> 0.12376703E+08</totfact>
</mgrwt>
</event>
<event>
 4    1  0.7616518E+004  0.3715521E+02  0.7546771E-02  0.1530254E+00
         21   -1    0    0  501  502  0.00000000000E+00  0.00000000000E+00  0.11717020410E+03  0.11717020410E+03  0.00000000000E+00 0. -1.
         21   -1    0    0  502  503 -0.00000000000E+00 -0.00000000000E+00 -0.12122622198E+02  0.12122622198E+02  0.00000000000E+00 0. -1.
          3    1    1    2  501    0  0.16595550433E+02  0.33243008824E+02  0.63358693815E+02  0.73449533775E+02  0.00000000000E+00 0.  1.
         -3    1    1    2    0  503 -0.16595550433E+02 -0.33243008824E+02  0.41688888088E+02  0.55843292523E+02  0.00000000000E+00 0. -1.
<mgrwt>
<rscale>  2 0.37155214E+02</rscale>
<asrwt>0</asrwt>
<pdfrwt beam="1">  1       21 0.18026185E-01 0.37155214E+02</pdfrwt>
<pdfrwt beam="2">  1       21 0.18650189E-02 0.37155214E+02</pdfrwt>
<totfact> 0.31617953E+07</totfact>
</mgrwt>
</event>
<event>
 4    1  0.7616518E+004  0.2863159E+02  0.7546771E-02  0.1613727E+00
         21   -1    0    0  503  502  0.00000000000E+00  0.00000000000E+00  0.37888887749E+02  0.37888887749E+02  0.00000000000E+00 0. -1.
         21   -1    0    0  501  503 -0.00000000000E+00 -0.00000000000E+00 -0.23487191243E+02  0.23487191243E+02  0.00000000000E+00 0. -1.
          4    1    1    2  501    0 -0.23256866401E+02 -0.16699882333E+02  0.15816082306E+02  0.32709576033E+02  0.00000000000E+00 0. -1.
         -4    1    1    2    0  502  0.23256866401E+02  0.16699882333E+02 -0.14143858000E+01  0.28666502959E+02  0.00000000000E+00 0.  1.
<mgrwt>
<rscale>  2 0.28631589E+02</rscale>
<asrwt>0</asrwt>
<pdfrwt beam="1">  1       21 0.58290596E-02 0.28631589E+02</pdfrwt>
<pdfrwt beam="2">  1       21 0.36134140E-02 0.28631589E+02</pdfrwt>
<totfact> 0.70929735E+07</totfact>
</mgrwt>
</event>
<event>
 4    1  0.7616518E+004  0.2722454E+02  0.7546771E-02  0.1630963E+00
         21   -1    0    0  501  502  0.00000000000E+00  0.00000000000E+00  0.20370209798E+02  0.20370209798E+02  0.00000000000E+00 0. -1.
         21   -1    0    0  502  503 -0.00000000000E+00 -0.00000000000E+00 -0.41726659382E+02  0.41726659382E+02  0.00000000000E+00 0. -1.
          1    1    1    2  501    0 -0.21337833330E+02 -0.16907766872E+02  0.43038632393E+00  0.27227944179E+02  0.00000000000E+00 0. -1.
         -1    1    1    2    0  503  0.21337833330E+02  0.16907766872E+02 -0.21786835908E+02  0.34868925001E+02  0.00000000000E+00 0.  1.
<mgrwt>
<rscale>  2 0.27224542E+02</rscale>
<asrwt>0</asrwt>
<pdfrwt beam="1">  1       21 0.31338784E-02 0.27224542E+02</pdfrwt>
<pdfrwt beam="2">  1       21 0.64194860E-02 0.27224542E+02</pdfrwt>
<totfact> 0.74978220E+07</totfact>
</mgrwt>
</event>
<event>
 4    1  0.7616518E+004  0.3802278E+02  0.7546771E-02  0.1523287E+00
         21   -1    0    0  503  502  0.00000000000E+00  0.00000000000E+00  0.33185104817E+02  0.33185104817E+02  0.00000000000E+00 0.  1.
         21   -1    0    0  501  503 -0.00000000000E+00 -0.00000000000E+00 -0.60887582459E+02  0.60887582459E+02  0.00000000000E+00 0.  1.
          5    1    1    2  501    0  0.19582284027E+02  0.32592419041E+02 -0.38939293937E+02  0.54424261492E+02  0.00000000000E+00 0.  1.
         -5    1    1    2    0  502 -0.19582284027E+02 -0.32592419041E+02  0.11236816295E+02  0.39648425783E+02  0.00000000000E+00 0. -1.
<mgrwt>
<rscale>  2 0.38022778E+02</rscale>
<asrwt>0</asrwt>
<pdfrwt beam="1">  1       21 0.51054008E-02 0.38022778E+02</pdfrwt>
<pdfrwt beam="2">  1       21 0.93673203E-02 0.38022778E+02</pdfrwt>
<totfact> 0.19757114E+07</totfact>
</mgrwt>
</event>
<event>
 4    1  0.7616518E+004  0.2859946E+02  0.7546771E-02  0.1614107E+00
         21   -1    0    0  503  502  0.00000000000E+00  0.00000000000E+00  0.42060224278E+03  0.42060224278E+03  0.00000000000E+00 0. -1.
         21   -1    0    0  501  503 -0.00000000000E+00 -0.00000000000E+00 -0.30040141010E+01  0.30040141010E+01  0.00000000000E+00 0. -1.
          3    1    1    2  501    0  0.11027345297E+02  0.26388002054E+02  0.33457623592E+03  0.33579634697E+03  0.00000000000E+00 0.  1.
         -3    1    1    2    0  502 -0.11027345297E+02 -0.26388002054E+02  0.83021992757E+02  0.87809909908E+02  0.00000000000E+00 0. -1.
<mgrwt>
<rscale>  2 0.28599458E+02</rscale>
<asrwt>0</asrwt>
<pdfrwt beam="1">  1       21 0.64707991E-01 0.28599458E+02</pdfrwt>
<pdfrwt beam="2">  1       21 0.46215635E-03 0.28599458E+02</pdfrwt>
<totfact> 0.22575874E+07</totfact>
</mgrwt>
</event>
<event>
 4    1  0.7616518E+004  0.3718504E+02  0.7546771E-02  0.1530011E+00
         21   -1    0    0  503  502  0.00000000000E+00  0.00000000000E+00  0.21683739620E+02  0.21683739620E+02  0.00000000000E+00 0. -1.
         21   -1    0    0  501  503 -0.00000000000E+00 -0.00000000000E+00 -0.73619076287E+02  0.73619076287E+02  0.00000000000E+00 0. -1.
          1    1    1    2  501    0  0.30988867522E+02 -0.20552785185E+02 -0.43398746302E+02  0.57150486173E+02  0.00000000000E+00 0.  1.
         -1    1    1    2    0  502 -0.30988867522E+02  0.20552785185E+02 -0.85365903648E+01  0.38152329735E+02  0.00000000000E+00 0. -1.
<mgrwt>
<rscale>  2 0.37185036E+02</rscale>
<asrwt>0</asrwt>
<pdfrwt beam="1">  1       21 0.33359600E-02 0.37185036E+02</pdfrwt>
<pdfrwt beam="2">  1       21 0.11326012E-01 0.37185036E+02</pdfrwt>
<totfact> 0.28296413E+07</totfact>
</mgrwt>
</event>
<event>
 4    1  0.7616518E+004  0.2891074E+02  0.7546771E-02  0.1610451E+00
         21   -1    0    0  503  502  0.00000000000E+00  0.00000000000E+00  0.50483395268E+01  0.50483395268E+01  0.00000000000E+00 0.  1.
         21   -1    0    0  501  503 -0.00000000000E+00 -0.00000000000E+00 -0.16962655449E+03  0.16962655449E+03  0.00000000000E+00 0.  1.
          5    1    1    2  501    0 -0.10981642996E+02 -0.26743867602E+02 -0.95802741142E+02  0.10006995627E+03  0.00000000000E+00 0. -1.
         -5    1    1    2    0  502  0.10981642996E+02  0.26743867602E+02 -0.68775473826E+02  0.74604937753E+02  0.00000000000E+00 0.  1.
<mgrwt>
<rscale>  2 0.28910741E+02</rscale>
<asrwt>0</asrwt>
<pdfrwt beam="1">  1       21 0.77666770E-03 0.28910741E+02</pdfrwt>
<pdfrwt beam="2">  1       21 0.26096390E-01 0.28910741E+02</pdfrwt>
<totfact> 0.59303417E+07</totfact>
</mgrwt>
</event>
<event>
 4    1  0.7616518E+004  0.3716155E+02  0.7546771E-02  0.1530203E+00
         21   -1    0    0  501  502  0.00000000000E+00  0.00000000000E+00  0.76759858131E+03  0.76759858131E+03  0.00000000000E+00 0.  1.
         21   -1    0    0  502  503 -0.00000000000E+00 -0.00000000000E+00 -0.51877248354E+01  0.51877248354E+01  0.00000000000E+00 0.  1.
          4    1    1    2  501    0  0.42982094873E+01  0.36912137185E+02  0.69349192980E+03  0.69448688769E+03  0.00000000000E+00 0. -1.
         -4    1    1    2    0  503 -0.42982094873E+01 -0.36912137185E+02  0.68918926675E+02  0.78299418455E+02  0.00000000000E+00 0.  1.
<mgrwt>
<rscale>  2 0.37161546E+02</rscale>
<asrwt>0</asrwt>
<pdfrwt beam="1">  1       21 0.11809200E+00 0.37161546E+02</pdfrwt>
<pdfrwt beam="2">  1       21 0.79811212E-03 0.37161546E+02</pdfrwt>
<totfact> 0.27913043E+06</totfact>
</mgrwt>
</event>
<event>
 4    1  0.7616518E+004  0.2005628E+02  0.7546771E-02  0.1744211E+00
         21   -1    0    0  503  502  0.00000000000E+00  0.00000000000E+00  0.18569968792E+01  0.18569968792E+01  0.00000000000E+00 0.  1.
         21   -1    0    0  501  503 -0.00000000000E+00 -0.00000000000E+00 -0.31717504987E+03  0.31717504987E+03  0.00000000000E+00 0.  1.
          5    1    1    2  501    0  0.14857896434E+02  0.13472089191E+02 -0.67840380105E+02  0.70742995741E+02  0.00000000000E+00 0.  1.
         -5    1    1    2    0  502 -0.14857896434E+02 -0.13472089191E+02 -0.24747767289E+03  0.24828905101E+03  0.00000000000E+00 0. -1.
<mgrwt>
<rscale>  2 0.20056278E+02</rscale>
<asrwt>0</asrwt>
<pdfrwt beam="1">  1       21 0.28569185E-03 0.20056278E+02</pdfrwt>
<pdfrwt beam="2">  1       21 0.48796158E-01 0.20056278E+02</pdfrwt>
<totfact> 0.73918948E+07</totfact>
</mgrwt>
</event>
<event>
 4    1  0.7616518E+004  0.2466245E+02  0.7546771E-02  0.1665898E+00
         21   -1    0    0  503  502  0.00000000000E+00  0.00000000000E+00  0.33065116875E+03  0.33065116875E+03  0.00000000000E+00 0.  1.
         21   -1    0    0  501  503 -0.00000000000E+00 -0.00000000000E+00 -0.22849639581E+01  0.22849639581E+01  0.00000000000E+00 0.  1.
          2    1    1    2  501    0 -0.23172736852E+02 -0.84415986270E+01  0.90682247552E+02  0.93976094522E+02  0.00000000000E+00 0. -1.
         -2    1    1    2    0  502  0.23172736852E+02  0.84415986270E+01  0.23768395724E+03  0.23896003819E+03  0.00000000000E+00 0.  1.
<mgrwt>
<rscale>  2 0.24662448E+02</rscale>
<asrwt>0</asrwt>
<pdfrwt beam="1">  1       21 0.50869373E-01 0.24662448E+02</pdfrwt>
<pdfrwt beam="2">  1       21 0.35153318E-03 0.24662448E+02</pdfrwt>
<totfact> 0.53041195E+07</totfact>
</mgrwt>
</event>
<event>
 4    1  0.7616518E+004  0.2015802E+02  0.7546771E-02  0.1742204E+00
         21   -1    0    0  501  502  0.00000000000E+00  0.00000000000E+00  0.11055242728E+01  0.11055242728E+01  0.00000000000E+00 0. -1.
         21   -1    0    0  502  503 -0.00000000000E+00 -0.00000000000E+00 -0.49082057879E+03  0.49082057879E+03  0.00000000000E+00 0. -1.
          2    1    1    2  501    0  0.31763229391E+01  0.19906200655E+02 -0.12159767932E+03  0.12325721670E+03  0.00000000000E+00 0.  1.
         -2    1    1    2    0  503 -0.31763229391E+01 -0.19906200655E+02 -0.36811737519E+03  0.36866888636E+03  0.00000000000E+00 0. -1.
<mgrwt>
<rscale>  2 0.20158022E+02</rscale>
<asrwt>0</asrwt>
<pdfrwt beam="1">  1       21 0.17007989E-03 0.20158022E+02</pdfrwt>
<pdfrwt beam="2">  1       21 0.75511199E-01 0.20158022E+02</pdfrwt>
<totfact> 0.65467625E+07</totfact>
</mgrwt>
</event>
<event>
 4    1  0.7616518E+004  0.2556224E+02  0.7546771E-02  0.1653055E+00
         21   -1    0    0  501  502  0.00000000000E+00  0.00000000000E+00  0.35027145544E+02  0.35027145544E+02  0.00000000000E+00 0. -1.
         21   -1    0    0  502  503 -0.00000000000E+00 -0.00000000000E+00 -0.19450560341E+02  0.19450560341E+02  0.00000000000E+00 0. -1.
          5    1    1    2  501    0 -0.24703228285E+02 -0.65710343456E+01  0.22791252120E+01  0.25663639489E+02  0.00000000000E+00 0.  1.
         -5    1    1    2    0  503  0.24703228285E+02  0.65710343456E+01  0.13297459992E+02  0.28814066396E+02  0.00000000000E+00 0. -1.
<mgrwt>
<rscale>  2 0.25562237E+02</rscale>
<asrwt>0</asrwt>
<pdfrwt beam="1">  1       21 0.53887916E-02 0.25562237E+02</pdfrwt>
<pdfrwt beam="2">  1       21 0.29923939E-02 0.25562237E+02</pdfrwt>
<totfact> 0.10517560E+08</totfact>
</mgrwt>
</event>
<event>
 4    1  0.7616518E+004  0.2067706E+02  0.7546771E-02  0.1732190E+00
         21   -1    0    0  501  502  0.00000000000E+00  0.00000000000E+00  0.11170093678E+03  0.11170093678E+03  0.00000000000E+00 0.  1.
         21   -1    0    0  502  503 -0.00000000000E+00 -0.00000000000E+00 -0.38456725431E+01  0.38456725431E+01  0.00000000000E+00 0.  1.
          4    1    1    2  501    0  0.62639174759E+01  0.19705435683E+02  0.57893674820E+02  0.61475348245E+02  0.00000000000E+00 0.  1.
         -4    1    1    2    0  503 -0.62639174759E+01 -0.19705435683E+02  0.49961589414E+02  0.54071261076E+02  0.00000000000E+00 0. -1.
<mgrwt>
<rscale>  2 0.20677061E+02</rscale>
<asrwt>0</asrwt>
<pdfrwt beam="1">  1       21 0.17184757E-01 0.20677061E+02</pdfrwt>
<pdfrwt beam="2">  1       21 0.59164202E-03 0.20677061E+02</pdfrwt>
<totfact> 0.16971136E+08</totfact>
</mgrwt>
</event>
<event>
 4    1  0.7616518E+004  0.2778469E+02  0.7546771E-02  0.1623951E+00
         21   -1    0    0  503  502  0.00000000000E+00  0.00000000000E+00  0.15421608784E+02  0.15421608784E+02  0.00000000000E+00 0. -1.
         21   -1    0    0  501  503 -0.00000000000E+00 -0.00000000000E+00 -0.50980193670E+02  0.50980193670E+02  0.00000000000E+00 0. -1.
          1    1    1    2  501    0 -0.19427138216E+02 -0.19863919182E+02 -0.22242477837E+02  0.35590965214E+02  0.00000000000E+00 0. -1.
         -1    1    1    2    0  502  0.19427138216E+02  0.19863919182E+02 -0.13316107049E+02  0.30810837240E+02  0.00000000000E+00 0.  1.
<mgrwt>
<rscale>  2 0.27784690E+02</rscale>
<asrwt>0</asrwt>
<pdfrwt beam="1">  1       21 0.23725552E-02 0.27784690E+02</pdfrwt>
<pdfrwt beam="2">  1       21 0.78431067E-02 0.27784690E+02</pdfrwt>
<totfact> 0.83936926E+07</totfact>
</mgrwt>
</event>
<event>
 4    1  0.7616518E+004  0.1115102E+03  0.7546771E-02  0.1257799E+00
         21   -1    0    0  503  502  0.00000000000E+00  0.00000000000E+00  0.44202658570E+02  0.44202658570E+02  0.00000000000E+00 0.  1.
         21   -1    0    0  501  503 -0.00000000000E+00 -0.00000000000E+00 -0.28553879496E+03  0.28553879496E+03  0.00000000000E+00 0.  1.
          2    1    1    2  501    0  0.41495555228E+02  0.10350190156E+03 -0.14073886638E+03  0.17956044454E+03  0.00000000000E+00 0.  1.
         -2    1    1    2    0  502 -0.41495555228E+02 -0.10350190156E+03 -0.10059727001E+03  0.15018100900E+03  0.00000000000E+00 0. -1.
<mgrwt>
<rscale>  2 0.11151020E+03</rscale>
<asrwt>0</asrwt>
<pdfrwt beam="1">  1       21 0.68004089E-02 0.11151020E+03</pdfrwt>
<pdfrwt beam="2">  1       21 0.43929046E-01 0.11151020E+03</pdfrwt>
<totfact> 0.79456019E+05</totfact>
</mgrwt>
</event>
<event>
 4    1  0.7616518E+004  0.3010835E+02  0.7546771E-02  0.1596894E+00
         21   -1    0    0  503  502  0.00000000000E+00  0.00000000000E+00  0.18871743115E+02  0.18871743115E+02  0.00000000000E+00 0. -1.
         21   -1    0    0  501  503 -0.00000000000E+00 -0.00000000000E+00 -0.48085908481E+02  0.48085908481E+02  0.00000000000E+00 0. -1.
          1    1    1    2  501    0  0.30096404760E+02  0.84795220127E+00 -0.13522545524E+02  0.33005633457E+02  0.00000000000E+00 0. -1.
         -1    1    1    2    0  502 -0.30096404760E+02 -0.84795220127E+00 -0.15691619843E+02  0.33952018139E+02  0.00000000000E+00 0.  1.
<mgrwt>
<rscale>  2 0.30108348E+02</rscale>
<asrwt>0</asrwt>
<pdfrwt beam="1">  1       21 0.29033451E-02 0.30108348E+02</pdfrwt>
<pdfrwt beam="2">  1       21 0.73978321E-02 0.30108348E+02</pdfrwt>
<totfact> 0.68730943E+07</totfact>
</mgrwt>
</event>
<event>
 4    1  0.7616518E+004  0.2096200E+02  0.7546771E-02  0.1726848E+00
         21   -1    0    0  501  502  0.00000000000E+00  0.00000000000E+00  0.18466289244E+02  0.18466289244E+02  0.00000000000E+00 0.  1.
         21   -1    0    0  502  503 -0.00000000000E+00 -0.00000000000E+00 -0.24286806049E+02  0.24286806049E+02  0.00000000000E+00 0.  1.
          5    1    1    2  501    0 -0.18014016830E+02  0.10719164282E+02 -0.59522002487E+01  0.21790685465E+02  0.00000000000E+00 0. -1.
         -5    1    1    2    0  503  0.18014016830E+02 -0.10719164282E+02  0.13168344362E+00  0.20962409828E+02  0.00000000000E+00 0.  1.
<mgrwt>
<rscale>  2 0.20961996E+02</rscale>
<asrwt>0</asrwt>
<pdfrwt beam="1">  1       21 0.28409676E-02 0.20961996E+02</pdfrwt>
<pdfrwt beam="2">  1       21 0.37364317E-02 0.20961996E+02</pdfrwt>
<totfact> 0.19200454E+08</totfact>
</mgrwt>
</event>
<event>
 4    1  0.7616518E+004  0.2176968E+02  0.7546771E-02  0.1712266E+00
         21   -1    0    0  503  502  0.00000000000E+00  0.00000000000E+00  0.59653645140E+02  0.59653645140E+02  0.00000000000E+00 0. -1.
         21   -1    0    0  501  503 -0.00000000000E+00 -0.00000000000E+00 -0.83329339233E+01  0.83329339233E+01  0.00000000000E+00 0. -1.
          5    1    1    2  501    0  0.21745225180E+02  0.10316644594E+01  0.32999503217E+02  0.39533357589E+02  0.00000000000E+00 0.  1.
         -5    1    1    2    0  502 -0.21745225180E+02 -0.10316644594E+01  0.18321208000E+02  0.28453221474E+02  0.00000000000E+00 0. -1.
<mgrwt>
<rscale>  2 0.21769684E+02</rscale>
<asrwt>0</asrwt>
<pdfrwt beam="1">  1       21 0.91774836E-02 0.21769684E+02</pdfrwt>
<pdfrwt beam="2">  1       21 0.12819899E-02 0.21769684E+02</pdfrwt>
<totfact> 0.15553252E+08</totfact>
</mgrwt>
</event>
<event>
 4    1  0.7616518E+004  0.2300628E+02  0.7546771E-02  0.1691408E+00
         21   -1    0    0  501  502  0.00000000000E+00  0.00000000000E+00  0.28145159799E+03  0.28145159799E+03  0.00000000000E+00 0. -1.
         21   -1    0    0  502  503 -0.00000000000E+00 -0.00000000000E+00 -0.20859815414E+01  0.20859815414E+01  0.00000000000E+00 0. -1.
          1    1    1    2  501    0  0.22485718173E+02  0.48663629579E+01  0.18417045205E+03  0.18560184379E+03  0.00000000000E+00 0. -1.
         -1    1    1    2    0  503 -0.22485718173E+02 -0.48663629579E+01  0.95195164394E+02  0.97935735736E+02  0.00000000000E+00 0.  1.
<mgrwt>
<rscale>  2 0.23006282E+02</rscale>
<asrwt>0</asrwt>
<pdfrwt beam="1">  1       21 0.43300216E-01 0.23006282E+02</pdfrwt>
<pdfrwt beam="2">  1       21 0.32092046E-03 0.23006282E+02</pdfrwt>
<totfact> 0.81312483E+07</totfact>
</mgrwt>
</event>
<event>
 4    1  0.7616518E+004  0.3016973E+02  0.7546771E-02  0.1596220E+00
         21   -1    0    0  503  502  0.00000000000E+00  0.00000000000E+00  0.51122354792E+01  0.51122354792E+01  0.00000000000E+00 0.  1.
         21   -1    0    0  501  503 -0.00000000000E+00 -0.00000000000E+00 -0.17823490771E+03  0.17823490771E+03  0.00000000000E+00 0.  1.
          2    1    1    2  501    0  0.30169660095E+02 -0.63849448893E-01 -0.89546787293E+02  0.94492537174E+02  0.00000000000E+00 0.  1.
         -2    1    1    2    0  502 -0.30169660095E+02  0.63849448893E-01 -0.83575884935E+02  0.88854606013E+02  0.00000000000E+00 0. -1.
<mgrwt>
<rscale>  2 0.30169728E+02</rscale>
<asrwt>0</asrwt>
<pdfrwt beam="1">  1       21 0.78649776E-03 0.30169728E+02</pdfrwt>
<pdfrwt beam="2">  1       21 0.27420755E-01 0.30169728E+02</pdfrwt>
<totfact> 0.53687283E+07</totfact>
</mgrwt>
</event>
<event>
 4    1  0.7616518E+004  0.2044780E+02  0.7546771E-02  0.1736567E+00
         21   -1    0    0  503  502  0.00000000000E+00  0.00000000000E+00  0.13467266613E+03  0.13467266613E+03  0.00000000000E+00 0. -1.
         21   -1    0    0  501  503 -0.00000000000E+00 -0.00000000000E+00 -0.31122217287E+01  0.31122217287E+01  0.00000000000E+00 0. -1.
          1    1    1    2  501    0 -0.83714606683E+01 -0.18655594283E+02  0.62383905006E+02  0.65649555639E+02  0.00000000000E+00 0. -1.
         -1    1    1    2    0  502  0.83714606683E+01  0.18655594283E+02  0.69176539391E+02  0.72135332216E+02  0.00000000000E+00 0.  1.
<mgrwt>
<rscale>  2 0.20447801E+02</rscale>
<asrwt>0</asrwt>
<pdfrwt beam="1">  1       21 0.20718867E-01 0.20447801E+02</pdfrwt>
<pdfrwt beam="2">  1       21 0.47880345E-03 0.20447801E+02</pdfrwt>
<totfact> 0.16717488E+08</totfact>
</mgrwt>
</event>
<event>
 4    1  0.7616518E+004  0.2277525E+02  0.7546771E-02  0.1695179E+00
         21   -1    0    0  503  502  0.00000000000E+00  0.00000000000E+00  0.21575013342E+02  0.21575013342E+02  0.00000000000E+00 0. -1.
         21   -1    0    0  501  503 -0.00000000000E+00 -0.00000000000E+00 -0.37316298091E+02  0.37316298091E+02  0.00000000000E+00 0. -1.
          2    1    1    2  501    0  0.37899680646E+01 -0.22457693646E+02 -0.25432629261E+02  0.34139866621E+02  0.00000000000E+00 0.  1.
         -2    1    1    2    0  502 -0.37899680646E+01  0.22457693646E+02  0.96913445114E+01  0.24751444811E+02  0.00000000000E+00 0. -1.
<mgrwt>
<rscale>  2 0.22775247E+02</rscale>
<asrwt>0</asrwt>
<pdfrwt beam="1">  1       21 0.33192329E-02 0.22775247E+02</pdfrwt>
<pdfrwt beam="2">  1       21 0.57409689E-02 0.22775247E+02</pdfrwt>
<totfact> 0.78284889E+07</totfact>
</mgrwt>
</event>
<event>
 4    1  0.7616518E+004  0.2283831E+02  0.7546771E-02  0.1694145E+00
         21   -1    0    0  503  502  0.00000000000E+00  0.00000000000E+00  0.20737153049E+02  0.20737153049E+02  0.00000000000E+00 0. -1.
         21   -1    0    0  501  503 -0.00000000000E+00 -0.00000000000E+00 -0.33795091568E+02  0.33795091568E+02  0.00000000000E+00 0. -1.
          5    1    1    2  501    0 -0.21623523818E+02 -0.73492534624E+01 -0.20317630865E+02  0.30567866015E+02  0.00000000000E+00 0.  1.
         -5    1    1    2    0  502  0.21623523818E+02  0.73492534624E+01  0.72596923456E+01  0.23964378601E+02  0.00000000000E+00 0. -1.
<mgrwt>
<rscale>  2 0.22838308E+02</rscale>
<asrwt>0</asrwt>
<pdfrwt beam="1">  1       21 0.31903313E-02 0.22838308E+02</pdfrwt>
<pdfrwt beam="2">  1       21 0.51992448E-02 0.22838308E+02</pdfrwt>
<totfact> 0.97651398E+07</totfact>
</mgrwt>
</event>
<event>
 4    1  0.7616518E+004  0.2830141E+02  0.7546771E-02  0.1617661E+00
         21   -1    0    0  503  502  0.00000000000E+00  0.00000000000E+00  0.14996825726E+01  0.14996825726E+01  0.00000000000E+00 0.  1.
         21   -1    0    0  501  503 -0.00000000000E+00 -0.00000000000E+00 -0.57970669544E+03  0.57970669544E+03  0.00000000000E+00 0.  1.
          1    1    1    2  501    0  0.19861836959E+02 -0.20161286252E+02 -0.37061965191E+03  0.37169866345E+03  0.00000000000E+00 0. -1.
         -1    1    1    2    0  502 -0.19861836959E+02  0.20161286252E+02 -0.20758736095E+03  0.20950771455E+03  0.00000000000E+00 0.  1.
<mgrwt>
<rscale>  2 0.28301414E+02</rscale>
<asrwt>0</asrwt>
<pdfrwt beam="1">  1       21 0.23072055E-03 0.28301414E+02</pdfrwt>
<pdfrwt beam="2">  1       21 0.89185585E-01 0.28301414E+02</pdfrwt>
<totfact> 0.31908409E+07</totfact>
</mgrwt>
</event>
<event>
 4    1  0.7616518E+004  0.2011328E+02  0.7546771E-02  0.1743085E+00
         21   -1    0    0  501  502  0.00000000000E+00  0.00000000000E+00  0.49080757998E+02  0.49080757998E+02  0.00000000000E+00 0. -1.
         21   -1    0    0  502  503 -0.00000000000E+00 -0.00000000000E+00 -0.82437813727E+01  0.82437813727E+01  0.00000000000E+00 0. -1.
          2    1    1    2  501    0  0.24616625709E+01 -0.19962072325E+02  0.20787112618E+02  0.28924871048E+02  0.00000000000E+00 0.  1.
         -2    1    1    2    0  503 -0.24616625709E+01  0.19962072325E+02  0.20049864007E+02  0.28399668323E+02  0.00000000000E+00 0. -1.
<mgrwt>
<rscale>  2 0.20113282E+02</rscale>
<asrwt>0</asrwt>
<pdfrwt beam="1">  1       21 0.75508856E-02 0.20113282E+02</pdfrwt>
<pdfrwt beam="2">  1       21 0.12682741E-02 0.20113282E+02</pdfrwt>
<totfact> 0.21184820E+08</totfact>
</mgrwt>
</event>
<event>
 4    1  0.7616518E+004  0.2140034E+02  0.7546771E-02  0.1718834E+00
         21   -1    0    0  501  502  0.00000000000E+00  0.00000000000E+00  0.61670106440E+02  0.61670106440E+02  0.00000000000E+00 0. -1.
         21   -1    0    0  502  503 -0.00000000000E+00 -0.00000000000E+00 -0.76057068332E+01  0.76057068332E+01  0.00000000000E+00 0. -1.
          4    1    1    2  501    0 -0.21043260256E+02 -0.38930131539E+01  0.21710797630E+02  0.30484964939E+02  0.00000000000E+00 0.  1.
         -4    1    1    2    0  503  0.21043260256E+02  0.38930131539E+01  0.32353601977E+02  0.38790848334E+02  0.00000000000E+00 0. -1.
<mgrwt>
<rscale>  2 0.21400335E+02</rscale>
<asrwt>0</asrwt>
<pdfrwt beam="1">  1       21 0.94877083E-02 0.21400335E+02</pdfrwt>
<pdfrwt beam="2">  1       21 0.11701088E-02 0.21400335E+02</pdfrwt>
<totfact> 0.16811104E+08</totfact>
</mgrwt>
</event>
<event>
 4    1  0.7616518E+004  0.3698445E+02  0.7546771E-02  0.1531653E+00
         21   -1    0    0  501  502  0.00000000000E+00  0.00000000000E+00  0.97716969421E+00  0.97716969421E+00  0.00000000000E+00 0. -1.
         21   -1    0    0  502  503 -0.00000000000E+00 -0.00000000000E+00 -0.17077231040E+04  0.17077231040E+04  0.00000000000E+00 0. -1.
          3    1    1    2  501    0  0.28706109688E+02 -0.23319714504E+02 -0.49059344722E+03  0.49198554885E+03  0.00000000000E+00 0.  1.
         -3    1    1    2    0  503 -0.28706109688E+02  0.23319714504E+02 -0.12161524871E+04  0.12167147248E+04  0.00000000000E+00 0. -1.
<mgrwt>
<rscale>  2 0.36984454E+02</rscale>
<asrwt>0</asrwt>
<pdfrwt beam="1">  1       21 0.15033352E-03 0.36984454E+02</pdfrwt>
<pdfrwt beam="2">  1       21 0.26272711E+00 0.36984454E+02</pdfrwt>
<totfact> 0.41520411E+06</totfact>
</mgrwt>
</event>
<event>
 4    1  0.7616518E+004  0.4933438E+02  0.7546771E-02  0.1448965E+00
         21   -1    0    0  503  502  0.00000000000E+00  0.00000000000E+00  0.32982469501E+03  0.32982469501E+03  0.00000000000E+00 0.  1.
         21   -1    0    0  501  503 -0.00000000000E+00 -0.00000000000E+00 -0.75600594528E+01  0.75600594528E+01  0.00000000000E+00 0.  1.
          1    1    1    2  501    0  0.36070734897E+02 -0.33656842161E+02  0.13504898516E+03  0.14377798626E+03  0.00000000000E+00 0.  1.
         -1    1    1    2    0  502 -0.36070734897E+02  0.33656842161E+02  0.18721565040E+03  0.19360676820E+03  0.00000000000E+00 0. -1.
<mgrwt>
<rscale>  2 0.49334379E+02</rscale>
<asrwt>0</asrwt>
<pdfrwt beam="1">  1       21 0.50742250E-01 0.49334379E+02</pdfrwt>
<pdfrwt beam="2">  1       21 0.11630863E-02 0.49334379E+02</pdfrwt>
<totfact> 0.98710357E+06</totfact>
</mgrwt>
</event>
<event>
 4    1  0.7616518E+004  0.2360358E+02  0.7546771E-02  0.1681909E+00
         21   -1    0    0  503  502  0.00000000000E+00  0.00000000000E+00  0.74752312017E+02  0.74752312017E+02  0.00000000000E+00 0. -1.
         21   -1    0    0  501  503 -0.00000000000E+00 -0.00000000000E+00 -0.75054793577E+01  0.75054793577E+01  0.00000000000E+00 0. -1.
          5    1    1    2  501    0 -0.23564049226E+02  0.13655696301E+01  0.37062479822E+02  0.43940375589E+02  0.00000000000E+00 0. -1.
         -5    1    1    2    0  502  0.23564049226E+02 -0.13655696301E+01  0.30184352838E+02  0.38317415786E+02  0.00000000000E+00 0.  1.
<mgrwt>
<rscale>  2 0.23603584E+02</rscale>
<asrwt>0</asrwt>
<pdfrwt beam="1">  1       21 0.11500355E-01 0.23603584E+02</pdfrwt>
<pdfrwt beam="2">  1       21 0.11546892E-02 0.23603584E+02</pdfrwt>
<totfact> 0.12840276E+08</totfact>
</mgrwt>
</event>
<event>
 4    1  0.7616518E+004  0.5204502E+02  0.7546771E-02  0.1434613E+00
         21   -1    0    0  501  502  0.00000000000E+00  0.00000000000E+00  0.32312479341E+02  0.32312479341E+02  0.00000000000E+00 0.  1.
         21   -1    0    0  502  503 -0.00000000000E+00 -0.00000000000E+00 -0.89162337225E+02  0.89162337225E+02  0.00000000000E+00 0.  1.
          1    1    1    2  501    0 -0.48023709629E+02 -0.20060102509E+02 -0.43281325264E+02  0.67690158190E+02  0.00000000000E+00 0.  1.
         -1    1    1    2    0  503  0.48023709629E+02  0.20060102509E+02 -0.13568532619E+02  0.53784658376E+02  0.00000000000E+00 0. -1.
<mgrwt>
<rscale>  2 0.52045023E+02</rscale>
<asrwt>0</asrwt>
<pdfrwt beam="1">  1       21 0.49711507E-02 0.52045023E+02</pdfrwt>
<pdfrwt beam="2">  1       21 0.13717283E-01 0.52045023E+02</pdfrwt>
<totfact> 0.11237500E+07</totfact>
</mgrwt>
</event>
<event>
 4    1  0.7616518E+004  0.2451352E+02  0.7546771E-02  0.1668089E+00
         21   -1    0    0  501  502  0.00000000000E+00  0.00000000000E+00  0.18323072885E+03  0.18323072885E+03  0.00000000000E+00 0.  1.
         21   -1    0    0  502  503 -0.00000000000E+00 -0.00000000000E+00 -0.33666176200E+01  0.33666176200E+01  0.00000000000E+00 0.  1.
          3    1    1    2  501    0 -0.18048658818E+02  0.16587904938E+02  0.10493683180E+03  0.10776201253E+03  0.00000000000E+00 0. -1.
         -3    1    1    2    0  503  0.18048658818E+02 -0.16587904938E+02  0.74927279433E+02  0.78835333947E+02  0.00000000000E+00 0.  1.
<mgrwt>
<rscale>  2 0.24513520E+02</rscale>
<asrwt>0</asrwt>
<pdfrwt beam="1">  1       21 0.28189335E-01 0.24513520E+02</pdfrwt>
<pdfrwt beam="2">  1       21 0.51794131E-03 0.24513520E+02</pdfrwt>
<totfact> 0.90729951E+07</totfact>
</mgrwt>
</event>
<event>
 4    1  0.7616518E+004  0.2121283E+02  0.7546771E-02  0.1722232E+00
         21   -1    0    0  503  502  0.00000000000E+00  0.00000000000E+00  0.43556250832E+01  0.43556250832E+01  0.00000000000E+00 0.  1.
         21   -1    0    0  501  503 -0.00000000000E+00 -0.00000000000E+00 -0.10794561499E+03  0.10794561499E+03  0.00000000000E+00 0.  1.
          3    1    1    2  501    0 -0.48460469622E+01  0.20651874978E+02 -0.63429756972E+02  0.66882869113E+02  0.00000000000E+00 0.  1.
         -3    1    1    2    0  502  0.48460469622E+01 -0.20651874978E+02 -0.40160232934E+02  0.45418370959E+02  0.00000000000E+00 0. -1.
<mgrwt>
<rscale>  2 0.21212829E+02</rscale>
<asrwt>0</asrwt>
<pdfrwt beam="1">  1       21 0.67009622E-03 0.21212829E+02</pdfrwt>
<pdfrwt beam="2">  1       21 0.16607016E-01 0.21212829E+02</pdfrwt>
<totfact> 0.15084726E+08</totfact>
</mgrwt>
</event>
<event>
 4    1  0.7616518E+004  0.2539853E+02  0.7546771E-02  0.1655343E+00
         21   -1    0    0  503  502  0.00000000000E+00  0.00000000000E+00  0.68414009937E+02  0.68414009937E+02  0.00000000000E+00 0.  1.
         21   -1    0    0  501  503 -0.00000000000E+00 -0.00000000000E+00 -0.95526602331E+01  0.95526602331E+01  0.00000000000E+00 0.  1.
          1    1    1    2  501    0  0.53310910924E+01 -0.24832736913E+02  0.33863533604E+02  0.42329945228E+02  0.00000000000E+00 0. -1.
         -1    1    1    2    0  502 -0.53310910924E+01  0.24832736913E+02  0.24997816100E+02  0.35636724942E+02  0.00000000000E+00 0.  1.
<mgrwt>
<rscale>  2 0.25398531E+02</rscale>
<asrwt>0</asrwt>
<pdfrwt beam="1">  1       21 0.10525232E-01 0.25398531E+02</pdfrwt>
<pdfrwt beam="2">  1       21 0.14696401E-02 0.25398531E+02</pdfrwt>
<totfact> 0.10536881E+08</totfact>
</mgrwt>
</event>
<event>
 4    1  0.7616518E+004  0.2850526E+02  0.7546771E-02  0.1615224E+00
         21   -1    0    0  503  502  0.00000000000E+00  0.00000000000E+00  0.32245430311E+01  0.32245430311E+01  0.00000000000E+00 0.  1.
         21   -1    0    0  501  503 -0.00000000000E+00 -0.00000000000E+00 -0.25272522128E+03  0.25272522128E+03  0.00000000000E+00 0.  1.
          1    1    1    2  501    0 -0.18614906986E+02  0.21587839788E+02 -0.13165726775E+03  0.13470777906E+03  0.00000000000E+00 0. -1.
         -1    1    1    2    0  502  0.18614906986E+02 -0.21587839788E+02 -0.11784341050E+03  0.12124198524E+03  0.00000000000E+00 0.  1.
<mgrwt>
<rscale>  2 0.28505255E+02</rscale>
<asrwt>0</asrwt>
<pdfrwt beam="1">  1       21 0.49608325E-03 0.28505255E+02</pdfrwt>
<pdfrwt beam="2">  1       21 0.38880826E-01 0.28505255E+02</pdfrwt>
<totfact> 0.55246677E+07</totfact>
</mgrwt>
</event>
<event>
 4    1  0.7616518E+004  0.5787014E+02  0.7546771E-02  0.1406993E+00
         21   -1    0    0  503  502  0.00000000000E+00  0.00000000000E+00  0.23271922625E+02  0.23271922625E+02  0.00000000000E+00 0.  1.
         21   -1    0    0  501  503 -0.00000000000E+00 -0.00000000000E+00 -0.15463812469E+03  0.15463812469E+03  0.00000000000E+00 0.  1.
          5    1    1    2  501    0 -0.48010941392E+02  0.32309490143E+02 -0.42247901584E+02  0.71650811823E+02  0.00000000000E+00 0.  1.
         -5    1    1    2    0  502  0.48010941392E+02 -0.32309490143E+02 -0.89118300477E+02  0.10625923549E+03  0.00000000000E+00 0. -1.
<mgrwt>
<rscale>  2 0.57870145E+02</rscale>
<asrwt>0</asrwt>
<pdfrwt beam="1">  1       21 0.35802958E-02 0.57870145E+02</pdfrwt>
<pdfrwt beam="2">  1       21 0.23790481E-01 0.57870145E+02</pdfrwt>
<totfact> 0.72467737E+06</totfact>
</mgrwt>
</event>
<event>
 4    1  0.7616518E+004  0.3467170E+02  0.7546771E-02  0.1551535E+00
         21   -1    0    0  501  502  0.00000000000E+00  0.00000000000E+00  0.51727165728E+01  0.51727165728E+01  0.00000000000E+00 0. -1.
         21   -1    0    0  502  503 -0.00000000000E+00 -0.00000000000E+00 -0.27289753190E+03  0.27289753190E+03  0.00000000000E+00 0. -1.
          2    1    1    2  501    0 -0.34031151732E+02  0.66338343707E+01 -0.80301030203E+02  0.87466464992E+02  0.00000000000E+00 0. -1.
         -2    1    1    2    0  503  0.34031151732E+02 -0.66338343707E+01 -0.18742378512E+03  0.19060378348E+03  0.00000000000E+00 0.  1.
<mgrwt>
<rscale>  2 0.34671704E+02</rscale>
<asrwt>0</asrwt>
<pdfrwt beam="1">  1       21 0.79580269E-03 0.34671704E+02</pdfrwt>
<pdfrwt beam="2">  1       21 0.41984228E-01 0.34671704E+02</pdfrwt>
<totfact> 0.24388897E+07</totfact>
</mgrwt>
</event>
<event>
 4    1  0.7616518E+004  0.4818885E+02  0.7546771E-02  0.1455363E+00
         21   -1    0    0  503  502  0.00000000000E+00  0.00000000000E+00  0.95926662448E+03  0.95926662448E+03  0.00000000000E+00 0. -1.
         21   -1    0    0  501  503 -0.00000000000E+00 -0.00000000000E+00 -0.27942778355E+01  0.27942778355E+01  0.00000000000E+00 0. -1.
          1    1    1    2  501    0 -0.34152548825E+02  0.33996598005E+02  0.65410415783E+03  0.65587682880E+03  0.00000000000E+00 0. -1.
         -1    1    1    2    0  502  0.34152548825E+02 -0.33996598005E+02  0.30236818881E+03  0.30618407351E+03  0.00000000000E+00 0.  1.
<mgrwt>
<rscale>  2 0.48188850E+02</rscale>
<asrwt>0</asrwt>
<pdfrwt beam="1">  1       21 0.14757922E+00 0.48188850E+02</pdfrwt>
<pdfrwt beam="2">  1       21 0.42988966E-03 0.48188850E+02</pdfrwt>
<totfact> 0.42473531E+06</totfact>
</mgrwt>
</event>
<event>
 4    1  0.7616518E+004  0.2810357E+02  0.7546771E-02  0.1620050E+00
         21   -1    0    0  503  502  0.00000000000E+00  0.00000000000E+00  0.34554438042E+03  0.34554438042E+03  0.00000000000E+00 0.  1.
         21   -1    0    0  501  503 -0.00000000000E+00 -0.00000000000E+00 -0.27523291561E+01  0.27523291561E+01  0.00000000000E+00 0.  1.
          4    1    1    2  501    0 -0.25236423570E+02  0.12366627446E+02  0.24310201810E+03  0.24472106929E+03  0.00000000000E+00 0. -1.
         -4    1    1    2    0  502  0.25236423570E+02 -0.12366627446E+02  0.99690033165E+02  0.10357564029E+03  0.00000000000E+00 0.  1.
<mgrwt>
<rscale>  2 0.28103568E+02</rscale>
<asrwt>0</asrwt>
<pdfrwt beam="1">  1       21 0.53160640E-01 0.28103568E+02</pdfrwt>
<pdfrwt beam="2">  1       21 0.42343553E-03 0.28103568E+02</pdfrwt>
<totfact> 0.38021859E+07</totfact>
</mgrwt>
</event>
<event>
 4    1  0.7616518E+004  0.2246707E+02  0.7546771E-02  0.1700297E+00
         21   -1    0    0  501  502  0.00000000000E+00  0.00000000000E+00  0.20951166208E+02  0.20951166208E+02  0.00000000000E+00 0. -1.
         21   -1    0    0  502  503 -0.00000000000E+00 -0.00000000000E+00 -0.24132207155E+02  0.24132207155E+02  0.00000000000E+00 0. -1.
          5    1    1    2  501    0 -0.21912125888E+02 -0.49626629085E+01 -0.67797190696E+00  0.22477298102E+02  0.00000000000E+00 0.  1.
         -5    1    1    2    0  503  0.21912125888E+02  0.49626629085E+01 -0.25030690399E+01  0.22606075261E+02  0.00000000000E+00 0. -1.
<mgrwt>
<rscale>  2 0.22467071E+02</rscale>
<asrwt>0</asrwt>
<pdfrwt beam="1">  1       21 0.32232563E-02 0.22467071E+02</pdfrwt>
<pdfrwt beam="2">  1       21 0.37126473E-02 0.22467071E+02</pdfrwt>
<totfact> 0.16289766E+08</totfact>
</mgrwt>
</event>
<event>
 4    1  0.7616518E+004  0.2076366E+02  0.7546771E-02  0.1730555E+00
         21   -1    0    0  501  502  0.00000000000E+00  0.00000000000E+00  0.14641238856E+03  0.14641238856E+03  0.00000000000E+00 0.  1.
         21   -1    0    0  502  503 -0.00000000000E+00 -0.00000000000E+00 -0.12582062438E+02  0.12582062438E+02  0.00000000000E+00 0.  1.
          5    1    1    2  501    0  0.12454708414E+01  0.20726271113E+02  0.13649074542E+03  0.13806104844E+03  0.00000000000E+00 0.  1.
         -5    1    1    2    0  503 -0.12454708414E+01 -0.20726271113E+02 -0.26604192946E+01  0.20933402559E+02  0.00000000000E+00 0. -1.
<mgrwt>
<rscale>  2 0.20763658E+02</rscale>
<asrwt>0</asrwt>
<pdfrwt beam="1">  1       21 0.22524982E-01 0.20763658E+02</pdfrwt>
<pdfrwt beam="2">  1       21 0.19357020E-02 0.20763658E+02</pdfrwt>
<totfact> 0.17959018E+07</totfact>
</mgrwt>
</event>
<event>
 4    1  0.7616518E+004  0.2278722E+02  0.7546771E-02  0.1694983E+00
         21   -1    0    0  503  502  0.00000000000E+00  0.00000000000E+00  0.79932309359E+03  0.79932309359E+03  0.00000000000E+00 0. -1.
         21   -1    0    0  501  503 -0.00000000000E+00 -0.00000000000E+00 -0.76624138441E+00  0.76624138441E+00  0.00000000000E+00 0. -1.
          3    1    1    2  501    0 -0.11250300853E+02  0.19816357579E+02  0.24321095866E+03  0.24427613005E+03  0.00000000000E+00 0.  1.
         -3    1    1    2    0  502  0.11250300853E+02 -0.19816357579E+02  0.55534589354E+03  0.55581320492E+03  0.00000000000E+00 0. -1.
<mgrwt>
<rscale>  2 0.22787218E+02</rscale>
<asrwt>0</asrwt>
<pdfrwt beam="1">  1       21 0.12297212E+00 0.22787218E+02</pdfrwt>
<pdfrwt beam="2">  1       21 0.11788393E-03 0.22787218E+02</pdfrwt>
<totfact> 0.39556092E+07</totfact>
</mgrwt>
</event>
<event>
 4    1  0.7616518E+004  0.3132895E+02  0.7546771E-02  0.1583847E+00
         21   -1    0    0  503  502  0.00000000000E+00  0.00000000000E+00  0.23571916491E+03  0.23571916491E+03  0.00000000000E+00 0. -1.
         21   -1    0    0  501  503 -0.00000000000E+00 -0.00000000000E+00 -0.41950147948E+01  0.41950147948E+01  0.00000000000E+00 0. -1.
          4    1    1    2  501    0 -0.25579178043E+01 -0.31224356941E+02  0.10542570242E+03  0.10998219011E+03  0.00000000000E+00 0. -1.
         -4    1    1    2    0  502  0.25579178043E+01  0.31224356941E+02  0.12609844769E+03  0.12993198959E+03  0.00000000000E+00 0.  1.
<mgrwt>
<rscale>  2 0.31328955E+02</rscale>
<asrwt>0</asrwt>
<pdfrwt beam="1">  1       21 0.36264477E-01 0.31328955E+02</pdfrwt>
<pdfrwt beam="2">  1       21 0.64538707E-03 0.31328955E+02</pdfrwt>
<totfact> 0.43389782E+07</totfact>
</mgrwt>
</event>
<event>
 4    1  0.7616518E+004  0.2779535E+02  0.7546771E-02  0.1623820E+00
         21   -1    0    0  503  502  0.00000000000E+00  0.00000000000E+00  0.60363690168E+01  0.60363690168E+01  0.00000000000E+00 0.  1.
         21   -1    0    0  501  503 -0.00000000000E+00 -0.00000000000E+00 -0.15983330850E+03  0.15983330850E+03  0.00000000000E+00 0.  1.
          2    1    1    2  501    0  0.25839806366E+02  0.10241378740E+02 -0.39879218235E+02  0.48610014180E+02  0.00000000000E+00 0.  1.
         -2    1    1    2    0  502 -0.25839806366E+02 -0.10241378740E+02 -0.11391772125E+03  0.11725966333E+03  0.00000000000E+00 0. -1.
<mgrwt>
<rscale>  2 0.27795349E+02</rscale>
<asrwt>0</asrwt>
<pdfrwt beam="1">  1       21 0.92867213E-03 0.27795349E+02</pdfrwt>
<pdfrwt beam="2">  1       21 0.24589741E-01 0.27795349E+02</pdfrwt>
<totfact> 0.49986101E+07</totfact>
</mgrwt>
</event>
<event>
 4    1  0.7616518E+004  0.3824751E+02  0.7546771E-02  0.1521519E+00
         21   -1    0    0  501  502  0.00000000000E+00  0.00000000000E+00  0.14116477571E+03  0.14116477571E+03  0.00000000000E+00 0. -1.
         21   -1    0    0  502  503 -0.00000000000E+00 -0.00000000000E+00 -0.10372484614E+02  0.10372484614E+02  0.00000000000E+00 0. -1.
          3    1    1    2  501    0 -0.31036882530E+02 -0.22351368625E+02  0.63088931039E+02  0.73777265985E+02  0.00000000000E+00 0.  1.
         -3    1    1    2    0  503  0.31036882530E+02  0.22351368625E+02  0.67703360060E+02  0.77759994342E+02  0.00000000000E+00 0. -1.
<mgrwt>
<rscale>  2 0.38247507E+02</rscale>
<asrwt>0</asrwt>
<pdfrwt beam="1">  1       21 0.21717656E-01 0.38247507E+02</pdfrwt>
<pdfrwt beam="2">  1       21 0.15957670E-02 0.38247507E+02</pdfrwt>
<totfact> 0.29067571E+07</totfact>
</mgrwt>
</event>
<event>
 4    1  0.7616518E+004  0.2103078E+02  0.7546771E-02  0.1725574E+00
         21   -1    0    0  501  502  0.00000000000E+00  0.00000000000E+00  0.94239078837E+00  0.94239078837E+00  0.00000000000E+00 0. -1.
         21   -1    0    0  502  503 -0.00000000000E+00 -0.00000000000E+00 -0.56179683111E+03  0.56179683111E+03  0.00000000000E+00 0. -1.
          1    1    1    2  501    0 -0.34157997410E+01 -0.20751527363E+02 -0.16627686224E+03  0.16760157664E+03  0.00000000000E+00 0. -1.
         -1    1    1    2    0  503  0.34157997410E+01  0.20751527363E+02 -0.39457757808E+03  0.39513764526E+03  0.00000000000E+00 0.  1.
<mgrwt>
<rscale>  2 0.21030777E+02</rscale>
<asrwt>0</asrwt>
<pdfrwt beam="1">  1       21 0.14498338E-03 0.21030777E+02</pdfrwt>
<pdfrwt beam="2">  1       21 0.86430172E-01 0.21030777E+02</pdfrwt>
<totfact> 0.62684450E+07</totfact>
</mgrwt>
</event>
<event>
 4    1  0.7616518E+004  0.2054749E+02  0.7546771E-02  0.1734655E+00
         21   -1    0    0  503  502  0.00000000000E+00  0.00000000000E+00  0.34181036399E+01  0.34181036399E+01  0.00000000000E+00 0. -1.
         21   -1    0    0  501  503 -0.00000000000E+00 -0.00000000000E+00 -0.12486281595E+03  0.12486281595E+03  0.00000000000E+00 0. -1.
          4    1    1    2  501    0 -0.65986959303E+00 -0.20536892237E+02 -0.67377390371E+02  0.70440841164E+02  0.00000000000E+00 0.  1.
         -4    1    1    2    0  502  0.65986959303E+00  0.20536892237E+02 -0.54067321936E+02  0.57840078424E+02  0.00000000000E+00 0. -1.
<mgrwt>
<rscale>  2 0.20547491E+02</rscale>
<asrwt>0</asrwt>
<pdfrwt beam="1">  1       21 0.52586225E-03 0.20547491E+02</pdfrwt>
<pdfrwt beam="2">  1       21 0.19209658E-01 0.20547491E+02</pdfrwt>
<totfact> 0.16634565E+08</totfact>
</mgrwt>
</event>
<event>
 4    1  0.7616518E+004  0.2494037E+02  0.7546771E-02  0.1661860E+00
         21   -1    0    0  501  502  0.00000000000E+00  0.00000000000E+00  0.87216787605E+01  0.87216787605E+01  0.00000000000E+00 0. -1.
         21   -1    0    0  502  503 -0.00000000000E+00 -0.00000000000E+00 -0.72762800483E+02  0.72762800483E+02  0.00000000000E+00 0. -1.
          3    1    1    2  501    0 -0.24912933408E+02  0.11695501260E+01 -0.26281618389E+02  0.36231830807E+02  0.00000000000E+00 0.  1.
         -3    1    1    2    0  503  0.24912933408E+02 -0.11695501260E+01 -0.37759503334E+02  0.45252648436E+02  0.00000000000E+00 0. -1.
<mgrwt>
<rscale>  2 0.24940371E+02</rscale>
<asrwt>0</asrwt>
<pdfrwt beam="1">  1       21 0.13417967E-02 0.24940371E+02</pdfrwt>
<pdfrwt beam="2">  1       21 0.11194277E-01 0.24940371E+02</pdfrwt>
<totfact> 0.10866644E+08</totfact>
</mgrwt>
</event>
<event>
 4    1  0.7616518E+004  0.2040070E+02  0.7546771E-02  0.1737475E+00
         21   -1    0    0  503  502  0.00000000000E+00  0.00000000000E+00  0.12316130621E+02  0.12316130621E+02  0.00000000000E+00 0.  1.
         21   -1    0    0  501  503 -0.00000000000E+00 -0.00000000000E+00 -0.42379118928E+02  0.42379118928E+02  0.00000000000E+00 0.  1.
          2    1    1    2  501    0 -0.15728230580E+02  0.12992744602E+02 -0.27213437793E+01  0.20581408150E+02  0.00000000000E+00 0. -1.
         -2    1    1    2    0  502  0.15728230580E+02 -0.12992744602E+02 -0.27341644528E+02  0.34113841398E+02  0.00000000000E+00 0.  1.
<mgrwt>
<rscale>  2 0.20400702E+02</rscale>
<asrwt>0</asrwt>
<pdfrwt beam="1">  1       21 0.18947894E-02 0.20400702E+02</pdfrwt>
<pdfrwt beam="2">  1       21 0.65198643E-02 0.20400702E+02</pdfrwt>
<totfact> 0.14679531E+08</totfact>
</mgrwt>
</event>
<event>
 4    1  0.7616518E+004  0.2600828E+02  0.7546771E-02  0.1646928E+00
         21   -1    0    0  503  502  0.00000000000E+00  0.00000000000E+00  0.92481601432E+02  0.92481601432E+02  0.00000000000E+00 0.  1.
         21   -1    0    0  501  503 -0.00000000000E+00 -0.00000000000E+00 -0.75224136517E+01  0.75224136517E+01  0.00000000000E+00 0.  1.
          3    1    1    2  501    0  0.20971490853E+02 -0.15382696704E+02  0.50798045430E+02  0.57069012660E+02  0.00000000000E+00 0.  1.
         -3    1    1    2    0  502 -0.20971490853E+02  0.15382696704E+02  0.34161142350E+02  0.42935002424E+02  0.00000000000E+00 0. -1.
<mgrwt>
<rscale>  2 0.26008283E+02</rscale>
<asrwt>0</asrwt>
<pdfrwt beam="1">  1       21 0.14227938E-01 0.26008283E+02</pdfrwt>
<pdfrwt beam="2">  1       21 0.11572945E-02 0.26008283E+02</pdfrwt>
<totfact> 0.91728418E+07</totfact>
</mgrwt>
</event>
<event>
 4    1  0.7616518E+004  0.2229071E+02  0.7546771E-02  0.1703272E+00
         21   -1    0    0  503  502  0.00000000000E+00  0.00000000000E+00  0.42248954364E+02  0.42248954364E+02  0.00000000000E+00 0. -1.
         21   -1    0    0  501  503 -0.00000000000E+00 -0.00000000000E+00 -0.15745871082E+02  0.15745871082E+02  0.00000000000E+00 0. -1.
          2    1    1    2  501    0  0.68278324286E+01 -0.21219243479E+02  0.27839736863E+02  0.35664079101E+02  0.00000000000E+00 0. -1.
         -2    1    1    2    0  502 -0.68278324286E+01  0.21219243479E+02 -0.13366535818E+01  0.22330746345E+02  0.00000000000E+00 0.  1.
<mgrwt>
<rscale>  2 0.22290706E+02</rscale>
<asrwt>0</asrwt>
<pdfrwt beam="1">  1       21 0.64998391E-02 0.22290706E+02</pdfrwt>
<pdfrwt beam="2">  1       21 0.24224417E-02 0.22290706E+02</pdfrwt>
<totfact> 0.10394018E+08</totfact>
</mgrwt>
</event>
<event>
 4    1  0.7616518E+004  0.2709173E+02  0.7546771E-02  0.1632656E+00
         21   -1    0    0  503  502  0.00000000000E+00  0.00000000000E+00  0.66922119481E+01  0.66922119481E+01  0.00000000000E+00 0. -1.
         21   -1    0    0  501  503 -0.00000000000E+00 -0.00000000000E+00 -0.11569883710E+03  0.11569883710E+03  0.00000000000E+00 0. -1.
          4    1    1    2  501    0 -0.26179562220E+02  0.69708275693E+01 -0.68467845324E+02  0.73632925776E+02  0.00000000000E+00 0. -1.
         -4    1    1    2    0  502  0.26179562220E+02 -0.69708275693E+01 -0.40538779825E+02  0.48758123269E+02  0.00000000000E+00 0.  1.
<mgrwt>
<rscale>  2 0.27091731E+02</rscale>
<asrwt>0</asrwt>
<pdfrwt beam="1">  1       21 0.10295711E-02 0.27091731E+02</pdfrwt>
<pdfrwt beam="2">  1       21 0.17799820E-01 0.27091731E+02</pdfrwt>
<totfact> 0.75225993E+07</totfact>
</mgrwt>
</event>
<event>
 4    1  0.7616518E+004  0.2644898E+02  0.7546771E-02  0.1641021E+00
         21   -1    0    0  501  502  0.00000000000E+00  0.00000000000E+00  0.10873048760E+03  0.10873048760E+03  0.00000000000E+00 0. -1.
         21   -1    0    0  502  503 -0.00000000000E+00 -0.00000000000E+00 -0.74833204963E+01  0.74833204963E+01  0.00000000000E+00 0. -1.
          5    1    1    2  501    0 -0.10864367838E+02 -0.24114604200E+02  0.72384593413E+02  0.77065413694E+02  0.00000000000E+00 0. -1.
         -5    1    1    2    0  503  0.10864367838E+02  0.24114604200E+02  0.28862573692E+02  0.39148394404E+02  0.00000000000E+00 0.  1.
<mgrwt>
<rscale>  2 0.26448982E+02</rscale>
<asrwt>0</asrwt>
<pdfrwt beam="1">  1       21 0.16727766E-01 0.26448982E+02</pdfrwt>
<pdfrwt beam="2">  1       21 0.11512802E-02 0.26448982E+02</pdfrwt>
<totfact> 0.70329014E+07</totfact>
</mgrwt>
</event>
<event>
 4    1  0.7616518E+004  0.2183060E+02  0.7546771E-02  0.1711198E+00
         21   -1    0    0  503  502  0.00000000000E+00  0.00000000000E+00  0.33023764057E+01  0.33023764057E+01  0.00000000000E+00 0. -1.
         21   -1    0    0  501  503 -0.00000000000E+00 -0.00000000000E+00 -0.14715818441E+03  0.14715818441E+03  0.00000000000E+00 0. -1.
          2    1    1    2  501    0  0.21275250462E+02  0.48927198309E+01 -0.61466849184E+02  0.65228433510E+02  0.00000000000E+00 0.  1.
         -2    1    1    2    0  502 -0.21275250462E+02 -0.48927198309E+01 -0.82388958816E+02  0.85232127302E+02  0.00000000000E+00 0. -1.
<mgrwt>
<rscale>  2 0.21830598E+02</rscale>
<asrwt>0</asrwt>
<pdfrwt beam="1">  1       21 0.50805787E-03 0.21830598E+02</pdfrwt>
<pdfrwt beam="2">  1       21 0.22639722E-01 0.21830598E+02</pdfrwt>
<totfact> 0.13374312E+08</totfact>
</mgrwt>
</event>
<event>
 4    1  0.7616518E+004  0.2045183E+02  0.7546771E-02  0.1736489E+00
         21   -1    0    0  501  502  0.00000000000E+00  0.00000000000E+00  0.38058795284E+01  0.38058795284E+01  0.00000000000E+00 0. -1.
         21   -1    0    0  502  503 -0.00000000000E+00 -0.00000000000E+00 -0.11591145083E+03  0.11591145083E+03  0.00000000000E+00 0. -1.
          5    1    1    2  501    0  0.17368232810E+02  0.10799157781E+02 -0.69681270128E+02  0.72620635678E+02  0.00000000000E+00 0.  1.
         -5    1    1    2    0  503 -0.17368232810E+02 -0.10799157781E+02 -0.42424301178E+02  0.47096694684E+02  0.00000000000E+00 0. -1.
<mgrwt>
<rscale>  2 0.20451829E+02</rscale>
<asrwt>0</asrwt>
<pdfrwt beam="1">  1       21 0.58551992E-03 0.20451829E+02</pdfrwt>
<pdfrwt beam="2">  1       21 0.17832531E-01 0.20451829E+02</pdfrwt>
<totfact> 0.16119660E+08</totfact>
</mgrwt>
</event>
<event>
 4    1  0.7616518E+004  0.2047202E+02  0.7546771E-02  0.1736101E+00
         21   -1    0    0  501  502  0.00000000000E+00  0.00000000000E+00  0.22678351359E+03  0.22678351359E+03  0.00000000000E+00 0.  1.
         21   -1    0    0  502  503 -0.00000000000E+00 -0.00000000000E+00 -0.19628282834E+01  0.19628282834E+01  0.00000000000E+00 0.  1.
          5    1    1    2  501    0  0.11053634152E+02 -0.17231391699E+02  0.14006974368E+03  0.14155789198E+03  0.00000000000E+00 0. -1.
         -5    1    1    2    0  503 -0.11053634152E+02  0.17231391699E+02  0.84750941624E+02  0.87188449889E+02  0.00000000000E+00 0.  1.
<mgrwt>
<rscale>  2 0.20472022E+02</rscale>
<asrwt>0</asrwt>
<pdfrwt beam="1">  1       21 0.34889751E-01 0.20472022E+02</pdfrwt>
<pdfrwt beam="2">  1       21 0.30197376E-03 0.20472022E+02</pdfrwt>
<totfact> 0.12898764E+08</totfact>
</mgrwt>
</event>
<event>
 4    1  0.7616518E+004  0.2035542E+02  0.7546771E-02  0.1738351E+00
         21   -1    0    0  503  502  0.00000000000E+00  0.00000000000E+00  0.10532918595E+02  0.10532918595E+02  0.00000000000E+00 0.  1.
         21   -1    0    0  501  503 -0.00000000000E+00 -0.00000000000E+00 -0.40174067971E+02  0.40174067971E+02  0.00000000000E+00 0.  1.
          3    1    1    2  501    0  0.14694384780E+02  0.14086096191E+02 -0.11162875985E+02  0.23215358068E+02  0.00000000000E+00 0. -1.
         -3    1    1    2    0  502 -0.14694384780E+02 -0.14086096191E+02 -0.18478273390E+02  0.27491628498E+02  0.00000000000E+00 0.  1.
<mgrwt>
<rscale>  2 0.20355418E+02</rscale>
<asrwt>0</asrwt>
<pdfrwt beam="1">  1       21 0.16204490E-02 0.20355418E+02</pdfrwt>
<pdfrwt beam="2">  1       21 0.61806257E-02 0.20355418E+02</pdfrwt>
<totfact> 0.20272104E+08</totfact>
</mgrwt>
</event>
<event>
 4    1  0.7616518E+004  0.2151679E+02  0.7546771E-02  0.1716745E+00
         21   -1    0    0  501  502  0.00000000000E+00  0.00000000000E+00  0.28715279349E+02  0.28715279349E+02  0.00000000000E+00 0. -1.
         21   -1    0    0  502  503 -0.00000000000E+00 -0.00000000000E+00 -0.19276206564E+02  0.19276206564E+02  0.00000000000E+00 0. -1.
          5    1    1    2  501    0 -0.21503897564E+02  0.74480229048E+00 -0.49857750871E+01  0.22086880588E+02  0.00000000000E+00 0. -1.
         -5    1    1    2    0  503  0.21503897564E+02 -0.74480229048E+00  0.14424847872E+02  0.25904605324E+02  0.00000000000E+00 0.  1.
<mgrwt>
<rscale>  2 0.21516792E+02</rscale>
<asrwt>0</asrwt>
<pdfrwt beam="1">  1       21 0.44177353E-02 0.21516792E+02</pdfrwt>
<pdfrwt beam="2">  1       21 0.29655702E-02 0.21516792E+02</pdfrwt>
<totfact> 0.13919209E+08</totfact>
</mgrwt>
</event>
<event>
 4    1  0.7616518E+004  0.2207976E+02  0.7546771E-02  0.1706876E+00
         21   -1    0    0  501  502  0.00000000000E+00  0.00000000000E+00  0.14069177345E+02  0.14069177345E+02  0.00000000000E+00 0.  1.
         21   -1    0    0  502  503 -0.00000000000E+00 -0.00000000000E+00 -0.39869769843E+02  0.39869769843E+02  0.00000000000E+00 0.  1.
          2    1    1    2  501    0  0.19750197252E+02 -0.98714444681E+01 -0.31431920044E+01  0.22302362282E+02  0.00000000000E+00 0.  1.
         -2    1    1    2    0  503 -0.19750197252E+02  0.98714444681E+01 -0.22657400494E+02  0.31636584906E+02  0.00000000000E+00 0. -1.
<mgrwt>
<rscale>  2 0.22079758E+02</rscale>
<asrwt>0</asrwt>
<pdfrwt beam="1">  1       21 0.21644888E-02 0.22079758E+02</pdfrwt>
<pdfrwt beam="2">  1       21 0.61338107E-02 0.22079758E+02</pdfrwt>
<totfact> 0.13530885E+08</totfact>
</mgrwt>
</event>
<event>
 4    1  0.7616518E+004  0.2250864E+02  0.7546771E-02  0.1699601E+00
         21   -1    0    0  503  502  0.00000000000E+00  0.00000000000E+00  0.19203653955E+01  0.19203653955E+01  0.00000000000E+00 0. -1.
         21   -1    0    0  501  503 -0.00000000000E+00 -0.00000000000E+00 -0.26385985595E+03  0.26385985595E+03  0.00000000000E+00 0. -1.
          5    1    1    2  501    0  0.20068071008E+02  0.10193700238E+02 -0.13251302821E+03  0.13441109197E+03  0.00000000000E+00 0. -1.
         -5    1    1    2    0  502 -0.20068071008E+02 -0.10193700238E+02 -0.12942646234E+03  0.13136912937E+03  0.00000000000E+00 0.  1.
<mgrwt>
<rscale>  2 0.22508643E+02</rscale>
<asrwt>0</asrwt>
<pdfrwt beam="1">  1       21 0.29544101E-03 0.22508643E+02</pdfrwt>
<pdfrwt beam="2">  1       21 0.40593799E-01 0.22508643E+02</pdfrwt>
<totfact> 0.10307957E+08</totfact>
</mgrwt>
</event>
<event>
 4    1  0.7616518E+004  0.2288114E+02  0.7546771E-02  0.1693444E+00
         21   -1    0    0  501  502  0.00000000000E+00  0.00000000000E+00  0.18952697838E+01  0.18952697838E+01  0.00000000000E+00 0.  1.
         21   -1    0    0  502  503 -0.00000000000E+00 -0.00000000000E+00 -0.27973243262E+03  0.27973243262E+03  0.00000000000E+00 0.  1.
          4    1    1    2  501    0  0.22637283216E+02  0.33316967447E+01 -0.15465554657E+03  0.15633900626E+03  0.00000000000E+00 0.  1.
         -4    1    1    2    0  503 -0.22637283216E+02 -0.33316967447E+01 -0.12318161627E+03  0.12528869614E+03  0.00000000000E+00 0. -1.
<mgrwt>
<rscale>  2 0.22881145E+02</rscale>
<asrwt>0</asrwt>
<pdfrwt beam="1">  1       21 0.29158009E-03 0.22881145E+02</pdfrwt>
<pdfrwt beam="2">  1       21 0.43035741E-01 0.22881145E+02</pdfrwt>
<totfact> 0.94472561E+07</totfact>
</mgrwt>
</event>
<event>
 4    1  0.7616518E+004  0.4022950E+02  0.7546771E-02  0.1506529E+00
         21   -1    0    0  501  502  0.00000000000E+00  0.00000000000E+00  0.61190120089E+02  0.61190120089E+02  0.00000000000E+00 0. -1.
         21   -1    0    0  502  503 -0.00000000000E+00 -0.00000000000E+00 -0.26781594196E+02  0.26781594196E+02  0.00000000000E+00 0. -1.
          1    1    1    2  501    0  0.92224324608E+01 -0.39158134117E+02  0.12301928414E+02  0.42068398718E+02  0.00000000000E+00 0. -1.
         -1    1    1    2    0  503 -0.92224324608E+01  0.39158134117E+02  0.22106597479E+02  0.45903315567E+02  0.00000000000E+00 0.  1.
<mgrwt>
<rscale>  2 0.40229501E+02</rscale>
<asrwt>0</asrwt>
<pdfrwt beam="1">  1       21 0.94138646E-02 0.40229501E+02</pdfrwt>
<pdfrwt beam="2">  1       21 0.41202453E-02 0.40229501E+02</pdfrwt>
<totfact> 0.27972239E+07</totfact>
</mgrwt>
</event>
<event>
 4    1  0.7616518E+004  0.2003372E+02  0.7546771E-02  0.1744658E+00
         21   -1    0    0  501  502  0.00000000000E+00  0.00000000000E+00  0.38717161797E+02  0.38717161797E+02  0.00000000000E+00 0.  1.
         21   -1    0    0  502  503 -0.00000000000E+00 -0.00000000000E+00 -0.12229557451E+02  0.12229557451E+02  0.00000000000E+00 0.  1.
          1    1    1    2  501    0  0.75294812371E+01  0.18564935659E+02  0.23187059964E+02  0.30642938395E+02  0.00000000000E+00 0.  1.
         -1    1    1    2    0  503 -0.75294812371E+01 -0.18564935659E+02  0.33005443821E+01  0.20303780853E+02  0.00000000000E+00 0. -1.
<mgrwt>
<rscale>  2 0.20033720E+02</rscale>
<asrwt>0</asrwt>
<pdfrwt beam="1">  1       21 0.59564864E-02 0.20033720E+02</pdfrwt>
<pdfrwt beam="2">  1       21 0.18814704E-02 0.20033720E+02</pdfrwt>
<totfact> 0.17047385E+08</totfact>
</mgrwt>
</event>
<event>
 4    1  0.7616518E+004  0.2366261E+02  0.7546771E-02  0.1680989E+00
         21   -1    0    0  501  502  0.00000000000E+00  0.00000000000E+00  0.33829186800E+03  0.33829186800E+03  0.00000000000E+00 0. -1.
         21   -1    0    0  502  503 -0.00000000000E+00 -0.00000000000E+00 -0.16917698421E+01  0.16917698421E+01  0.00000000000E+00 0. -1.
          4    1    1    2  501    0 -0.20219445145E+02  0.12292003051E+02  0.14328541210E+03  0.14522612927E+03  0.00000000000E+00 0. -1.
         -4    1    1    2    0  503  0.20219445145E+02 -0.12292003051E+02  0.19331468605E+03  0.19475750857E+03  0.00000000000E+00 0.  1.
<mgrwt>
<rscale>  2 0.23662614E+02</rscale>
<asrwt>0</asrwt>
<pdfrwt beam="1">  1       21 0.52044849E-01 0.23662614E+02</pdfrwt>
<pdfrwt beam="2">  1       21 0.26027255E-03 0.23662614E+02</pdfrwt>
<totfact> 0.77891702E+07</totfact>
</mgrwt>
</event>
<event>
 4    1  0.7616518E+004  0.3506446E+02  0.7546771E-02  0.1548029E+00
         21   -1    0    0  501  502  0.00000000000E+00  0.00000000000E+00  0.22228753967E+02  0.22228753967E+02  0.00000000000E+00 0.  1.
         21   -1    0    0  502  503 -0.00000000000E+00 -0.00000000000E+00 -0.62413467692E+02  0.62413467692E+02  0.00000000000E+00 0.  1.
          5    1    1    2  501    0 -0.33723699005E+02  0.96035723325E+01 -0.58168196786E+01  0.35543661422E+02  0.00000000000E+00 0. -1.
         -5    1    1    2    0  503  0.33723699005E+02 -0.96035723325E+01 -0.34367894047E+02  0.49098560237E+02  0.00000000000E+00 0.  1.
<mgrwt>
<rscale>  2 0.35064462E+02</rscale>
<asrwt>0</asrwt>
<pdfrwt beam="1">  1       21 0.34198083E-02 0.35064462E+02</pdfrwt>
<pdfrwt beam="2">  1       21 0.96020719E-02 0.35064462E+02</pdfrwt>
<totfact> 0.35561314E+07</totfact>
</mgrwt>
</event>
<event>
 4    1  0.7616518E+004  0.5072112E+02  0.7546771E-02  0.1441490E+00
         21   -1    0    0  501  502  0.00000000000E+00  0.00000000000E+00  0.26921100494E+02  0.26921100494E+02  0.00000000000E+00 0.  1.
         21   -1    0    0  502  503 -0.00000000000E+00 -0.00000000000E+00 -0.10275176720E+03  0.10275176720E+03  0.00000000000E+00 0.  1.
          5    1    1    2  501    0 -0.50192607036E+02  0.73029963258E+01 -0.55066152036E+02  0.74865964606E+02  0.00000000000E+00 0.  1.
         -5    1    1    2    0  503  0.50192607036E+02 -0.73029963258E+01 -0.20764514666E+02  0.54806903084E+02  0.00000000000E+00 0. -1.
<mgrwt>
<rscale>  2 0.50721115E+02</rscale>
<asrwt>0</asrwt>
<pdfrwt beam="1">  1       21 0.41417078E-02 0.50721115E+02</pdfrwt>
<pdfrwt beam="2">  1       21 0.15807964E-01 0.50721115E+02</pdfrwt>
<totfact> 0.11763768E+07</totfact>
</mgrwt>
</event>
<event>
 4    1  0.7616518E+004  0.2038669E+02  0.7546771E-02  0.1737746E+00
         21   -1    0    0  503  502  0.00000000000E+00  0.00000000000E+00  0.23247971656E+02  0.23247971656E+02  0.00000000000E+00 0.  1.
         21   -1    0    0  501  503 -0.00000000000E+00 -0.00000000000E+00 -0.18647645522E+02  0.18647645522E+02  0.00000000000E+00 0.  1.
          1    1    1    2  501    0 -0.53460017080E+01 -0.19673262963E+02 -0.19567624608E+01  0.20480379128E+02  0.00000000000E+00 0.  1.
         -1    1    1    2    0  502  0.53460017080E+01  0.19673262963E+02  0.65570885951E+01  0.21415238050E+02  0.00000000000E+00 0. -1.
<mgrwt>
<rscale>  2 0.20386687E+02</rscale>
<asrwt>0</asrwt>
<pdfrwt beam="1">  1       21 0.35766110E-02 0.20386687E+02</pdfrwt>
<pdfrwt beam="2">  1       21 0.28688686E-02 0.20386687E+02</pdfrwt>
<totfact> 0.20069094E+08</totfact>
</mgrwt>
</event>
<event>
 4    1  0.7616518E+004  0.2334554E+02  0.7546771E-02  0.1685970E+00
         21   -1    0    0  503  502  0.00000000000E+00  0.00000000000E+00  0.34367144274E+01  0.34367144274E+01  0.00000000000E+00 0.  1.
         21   -1    0    0  501  503 -0.00000000000E+00 -0.00000000000E+00 -0.16234571731E+03  0.16234571731E+03  0.00000000000E+00 0.  1.
          1    1    1    2  501    0  0.23096583934E+02  0.34002672385E+01 -0.92069259379E+02  0.94982959152E+02  0.00000000000E+00 0.  1.
         -1    1    1    2    0  502 -0.23096583934E+02 -0.34002672385E+01 -0.66839743499E+02  0.70799472581E+02  0.00000000000E+00 0. -1.
<mgrwt>
<rscale>  2 0.23345535E+02</rscale>
<asrwt>0</asrwt>
<pdfrwt beam="1">  1       21 0.52872533E-03 0.23345535E+02</pdfrwt>
<pdfrwt beam="2">  1       21 0.24976262E-01 0.23345535E+02</pdfrwt>
<totfact> 0.10797222E+08</totfact>
</mgrwt>
</event>
<event>
 4    1  0.7616518E+004  0.2077521E+02  0.7546771E-02  0.1730337E+00
         21   -1    0    0  503  502  0.00000000000E+00  0.00000000000E+00  0.32662115242E+02  0.32662115242E+02  0.00000000000E+00 0.  1.
         21   -1    0    0  501  503 -0.00000000000E+00 -0.00000000000E+00 -0.13319424316E+02  0.13319424316E+02  0.00000000000E+00 0.  1.
          1    1    1    2  501    0  0.10380710341E+02 -0.17995837751E+02  0.76295383513E+01  0.22131858915E+02  0.00000000000E+00 0.  1.
         -1    1    1    2    0  502 -0.10380710341E+02  0.17995837751E+02  0.11713152575E+02  0.23849680644E+02  0.00000000000E+00 0. -1.
<mgrwt>
<rscale>  2 0.20775209E+02</rscale>
<asrwt>0</asrwt>
<pdfrwt beam="1">  1       21 0.50249408E-02 0.20775209E+02</pdfrwt>
<pdfrwt beam="2">  1       21 0.20491422E-02 0.20775209E+02</pdfrwt>
<totfact> 0.19847484E+08</totfact>
</mgrwt>
</event>
<event>
 4    1  0.7616518E+004  0.2051489E+02  0.7546771E-02  0.1735278E+00
         21   -1    0    0  501  502  0.00000000000E+00  0.00000000000E+00  0.16306996614E+03  0.16306996614E+03  0.00000000000E+00 0.  1.
         21   -1    0    0  502  503 -0.00000000000E+00 -0.00000000000E+00 -0.35734430439E+01  0.35734430439E+01  0.00000000000E+00 0.  1.
          3    1    1    2  501    0 -0.14584997631E+02 -0.14427011315E+02  0.12366176243E+03  0.12535187393E+03  0.00000000000E+00 0.  1.
         -3    1    1    2    0  503  0.14584997631E+02  0.14427011315E+02  0.35834760672E+02  0.41291535256E+02  0.00000000000E+00 0. -1.
<mgrwt>
<rscale>  2 0.20514892E+02</rscale>
<asrwt>0</asrwt>
<pdfrwt beam="1">  1       21 0.25087681E-01 0.20514892E+02</pdfrwt>
<pdfrwt beam="2">  1       21 0.54976059E-03 0.20514892E+02</pdfrwt>
<totfact> 0.97568423E+07</totfact>
</mgrwt>
</event>
<event>
 4    1  0.7616518E+004  0.2372833E+02  0.7546771E-02  0.1679969E+00
         21   -1    0    0  501  502  0.00000000000E+00  0.00000000000E+00  0.51587865250E+03  0.51587865250E+03  0.00000000000E+00 0. -1.
         21   -1    0    0  502  503 -0.00000000000E+00 -0.00000000000E+00 -0.11353183932E+01  0.11353183932E+01  0.00000000000E+00 0. -1.
          2    1    1    2  501    0  0.68094593171E+01 -0.22730259601E+02  0.30821141003E+03  0.30912344898E+03  0.00000000000E+00 0. -1.
         -2    1    1    2    0  503 -0.68094593171E+01  0.22730259601E+02  0.20653192408E+03  0.20789052191E+03  0.00000000000E+00 0.  1.
<mgrwt>
<rscale>  2 0.23728326E+02</rscale>
<asrwt>0</asrwt>
<pdfrwt beam="1">  1       21 0.79365759E-01 0.23728326E+02</pdfrwt>
<pdfrwt beam="2">  1       21 0.17466478E-03 0.23728326E+02</pdfrwt>
<totfact> 0.59068009E+07</totfact>
</mgrwt>
</event>
<event>
 4    1  0.7616518E+004  0.2459119E+02  0.7546771E-02  0.1666944E+00
         21   -1    0    0  503  502  0.00000000000E+00  0.00000000000E+00  0.18157945646E+01  0.18157945646E+01  0.00000000000E+00 0.  1.
         21   -1    0    0  501  503 -0.00000000000E+00 -0.00000000000E+00 -0.34779372499E+03  0.34779372499E+03  0.00000000000E+00 0.  1.
          2    1    1    2  501    0 -0.14370514555E+02  0.19955319457E+02 -0.13698171997E+03  0.13917154188E+03  0.00000000000E+00 0.  1.
         -2    1    1    2    0  502  0.14370514555E+02 -0.19955319457E+02 -0.20899621046E+03  0.21043797768E+03  0.00000000000E+00 0. -1.
<mgrwt>
<rscale>  2 0.24591187E+02</rscale>
<asrwt>0</asrwt>
<pdfrwt beam="1">  1       21 0.27935337E-03 0.24591187E+02</pdfrwt>
<pdfrwt beam="2">  1       21 0.53506658E-01 0.24591187E+02</pdfrwt>
<totfact> 0.67170033E+07</totfact>
</mgrwt>
</event>
<event>
 4    1  0.7616518E+004  0.2473427E+02  0.7546771E-02  0.1664848E+00
         21   -1    0    0  501  502  0.00000000000E+00  0.00000000000E+00  0.29872291257E+01  0.29872291257E+01  0.00000000000E+00 0. -1.
         21   -1    0    0  502  503 -0.00000000000E+00 -0.00000000000E+00 -0.32250906639E+03  0.32250906639E+03  0.00000000000E+00 0. -1.
          5    1    1    2  501    0  0.24188964803E+02  0.51650865495E+01 -0.61439012952E+02  0.66230932726E+02  0.00000000000E+00 0.  1.
         -5    1    1    2    0  503 -0.24188964803E+02 -0.51650865495E+01 -0.25808282431E+03  0.25926536278E+03  0.00000000000E+00 0. -1.
<mgrwt>
<rscale>  2 0.24734271E+02</rscale>
<asrwt>0</asrwt>
<pdfrwt beam="1">  1       21 0.45957366E-03 0.24734271E+02</pdfrwt>
<pdfrwt beam="2">  1       21 0.49616785E-01 0.24734271E+02</pdfrwt>
<totfact> 0.37571347E+07</totfact>
</mgrwt>
</event>
<event>
 4    1  0.7616518E+004  0.2848394E+02  0.7546771E-02  0.1615478E+00
         21   -1    0    0  503  502  0.00000000000E+00  0.00000000000E+00  0.51268038981E+00  0.51268038981E+00  0.00000000000E+00 0. -1.
         21   -1    0    0  501  503 -0.00000000000E+00 -0.00000000000E+00 -0.16445658876E+04  0.16445658876E+04  0.00000000000E+00 0. -1.
          3    1    1    2  501    0 -0.25401224007E+02 -0.12888477056E+02 -0.98177354133E+03  0.98218665307E+03  0.00000000000E+00 0. -1.
         -3    1    1    2    0  502  0.25401224007E+02  0.12888477056E+02 -0.66227966588E+03  0.66289191492E+03  0.00000000000E+00 0.  1.
<mgrwt>
<rscale>  2 0.28483943E+02</rscale>
<asrwt>0</asrwt>
<pdfrwt beam="1">  1       21 0.78875520E-04 0.28483943E+02</pdfrwt>
<pdfrwt beam="2">  1       21 0.25300496E+00 0.28483943E+02</pdfrwt>
<totfact> 0.11695467E+07</totfact>
</mgrwt>
</event>
<event>
 4    1  0.7616518E+004  0.2197274E+02  0.7546771E-02  0.1708724E+00
         21   -1    0    0  503  502  0.00000000000E+00  0.00000000000E+00  0.15727656378E+03  0.15727656378E+03  0.00000000000E+00 0. -1.
         21   -1    0    0  501  503 -0.00000000000E+00 -0.00000000000E+00 -0.36740293530E+01  0.36740293530E+01  0.00000000000E+00 0. -1.
          3    1    1    2  501    0  0.19795347653E+02  0.95365303468E+01  0.44164525210E+02  0.49328556504E+02  0.00000000000E+00 0.  1.
         -3    1    1    2    0  502 -0.19795347653E+02 -0.95365303468E+01  0.10943800922E+03  0.11162203663E+03  0.00000000000E+00 0. -1.
<mgrwt>
<rscale>  2 0.21972738E+02</rscale>
<asrwt>0</asrwt>
<pdfrwt beam="1">  1       21 0.24196389E-01 0.21972738E+02</pdfrwt>
<pdfrwt beam="2">  1       21 0.56523541E-03 0.21972738E+02</pdfrwt>
<totfact> 0.10179236E+08</totfact>
</mgrwt>
</event>
<event>
 4    1  0.7616518E+004  0.4596344E+02  0.7546771E-02  0.1468415E+00
         21   -1    0    0  503  502  0.00000000000E+00  0.00000000000E+00  0.22376428205E+02  0.22376428205E+02  0.00000000000E+00 0. -1.
         21   -1    0    0  501  503 -0.00000000000E+00 -0.00000000000E+00 -0.95364181661E+02  0.95364181661E+02  0.00000000000E+00 0. -1.
          5    1    1    2  501    0  0.34866361971E+02 -0.29949540619E+02 -0.30616166457E+02  0.55226694894E+02  0.00000000000E+00 0. -1.
         -5    1    1    2    0  502 -0.34866361971E+02  0.29949540619E+02 -0.42371586999E+02  0.62513914972E+02  0.00000000000E+00 0.  1.
<mgrwt>
<rscale>  2 0.45963444E+02</rscale>
<asrwt>0</asrwt>
<pdfrwt beam="1">  1       21 0.34425274E-02 0.45963444E+02</pdfrwt>
<pdfrwt beam="2">  1       21 0.14671413E-01 0.45963444E+02</pdfrwt>
<totfact> 0.17829541E+07</totfact>
</mgrwt>
</event>
<event>
 4    1  0.7616518E+004  0.2712825E+02  0.7546771E-02  0.1632189E+00
         21   -1    0    0  501  502  0.00000000000E+00  0.00000000000E+00  0.32885446170E+02  0.32885446170E+02  0.00000000000E+00 0. -1.
         21   -1    0    0  502  503 -0.00000000000E+00 -0.00000000000E+00 -0.23840582404E+02  0.23840582404E+02  0.00000000000E+00 0. -1.
          2    1    1    2  501    0 -0.16823350524E+02 -0.21281848371E+02 -0.25003803766E+01  0.27243239436E+02  0.00000000000E+00 0.  1.
         -2    1    1    2    0  503  0.16823350524E+02  0.21281848371E+02  0.11545244143E+02  0.29482789137E+02  0.00000000000E+00 0. -1.
<mgrwt>
<rscale>  2 0.27128255E+02</rscale>
<asrwt>0</asrwt>
<pdfrwt beam="1">  1       21 0.50592994E-02 0.27128255E+02</pdfrwt>
<pdfrwt beam="2">  1       21 0.36677819E-02 0.27128255E+02</pdfrwt>
<totfact> 0.85845033E+07</totfact>
</mgrwt>
</event>
<event>
 4    1  0.7616518E+004  0.2185988E+02  0.7546771E-02  0.1710687E+00
         21   -1    0    0  503  502  0.00000000000E+00  0.00000000000E+00  0.31005432323E+01  0.31005432323E+01  0.00000000000E+00 0. -1.
         21   -1    0    0  501  503 -0.00000000000E+00 -0.00000000000E+00 -0.16561668915E+03  0.16561668915E+03  0.00000000000E+00 0. -1.
          3    1    1    2  501    0  0.21805316338E+02  0.15435704738E+01 -0.10348460296E+03  0.10576822529E+03  0.00000000000E+00 0. -1.
         -3    1    1    2    0  502 -0.21805316338E+02 -0.15435704738E+01 -0.59031542953E+02  0.62949007091E+02  0.00000000000E+00 0.  1.
<mgrwt>
<rscale>  2 0.21859882E+02</rscale>
<asrwt>0</asrwt>
<pdfrwt beam="1">  1       21 0.47700662E-03 0.21859882E+02</pdfrwt>
<pdfrwt beam="2">  1       21 0.25479492E-01 0.21859882E+02</pdfrwt>
<totfact> 0.11907587E+08</totfact>
</mgrwt>
</event>
<event>
 4    1  0.7616518E+004  0.2219937E+02  0.7546771E-02  0.1704827E+00
         21   -1    0    0  503  502  0.00000000000E+00  0.00000000000E+00  0.17460867300E+03  0.17460867300E+03  0.00000000000E+00 0.  1.
         21   -1    0    0  501  503 -0.00000000000E+00 -0.00000000000E+00 -0.45282088319E+01  0.45282088319E+01  0.00000000000E+00 0.  1.
          2    1    1    2  501    0  0.19124553666E+02 -0.11272250415E+02  0.14001449342E+03  0.14176343164E+03  0.00000000000E+00 0.  1.
         -2    1    1    2    0  502 -0.19124553666E+02  0.11272250415E+02  0.30065970750E+02  0.37373450195E+02  0.00000000000E+00 0. -1.
<mgrwt>
<rscale>  2 0.22199373E+02</rscale>
<asrwt>0</asrwt>
<pdfrwt beam="1">  1       21 0.26862868E-01 0.22199373E+02</pdfrwt>
<pdfrwt beam="2">  1       21 0.69664765E-03 0.22199373E+02</pdfrwt>
<totfact> 0.62154026E+07</totfact>
</mgrwt>
</event>
<event>
 4    1  0.7616518E+004  0.2122529E+02  0.7546771E-02  0.1722005E+00
         21   -1    0    0  503  502  0.00000000000E+00  0.00000000000E+00  0.36070820610E+01  0.36070820610E+01  0.00000000000E+00 0. -1.
         21   -1    0    0  501  503 -0.00000000000E+00 -0.00000000000E+00 -0.13925875176E+03  0.13925875176E+03  0.00000000000E+00 0. -1.
          2    1    1    2  501    0 -0.45538720571E+01 -0.20731021295E+02 -0.44885808196E+02  0.49651271606E+02  0.00000000000E+00 0.  1.
         -2    1    1    2    0  502  0.45538720571E+01  0.20731021295E+02 -0.90765861504E+02  0.93214562216E+02  0.00000000000E+00 0. -1.
<mgrwt>
<rscale>  2 0.21225291E+02</rscale>
<asrwt>0</asrwt>
<pdfrwt beam="1">  1       21 0.55493571E-03 0.21225291E+02</pdfrwt>
<pdfrwt beam="2">  1       21 0.21424423E-01 0.21225291E+02</pdfrwt>
<totfact> 0.12832780E+08</totfact>
</mgrwt>
</event>
<event>
 4    1  0.7616518E+004  0.2134182E+02  0.7546771E-02  0.1719890E+00
         21   -1    0    0  503  502  0.00000000000E+00  0.00000000000E+00  0.38947786961E+02  0.38947786961E+02  0.00000000000E+00 0.  1.
         21   -1    0    0  501  503 -0.00000000000E+00 -0.00000000000E+00 -0.12488424639E+02  0.12488424639E+02  0.00000000000E+00 0.  1.
          2    1    1    2  501    0  0.39186601561E+01  0.20978974241E+02  0.19714327354E+02  0.29053880302E+02  0.00000000000E+00 0. -1.
         -2    1    1    2    0  502 -0.39186601561E+01 -0.20978974241E+02  0.67450349676E+01  0.22382331298E+02  0.00000000000E+00 0.  1.
<mgrwt>
<rscale>  2 0.21341819E+02</rscale>
<asrwt>0</asrwt>
<pdfrwt beam="1">  1       21 0.59919672E-02 0.21341819E+02</pdfrwt>
<pdfrwt beam="2">  1       21 0.19212961E-02 0.21341819E+02</pdfrwt>
<totfact> 0.16687284E+08</totfact>
</mgrwt>
</event>
<event>
 4    1  0.7616518E+004  0.2073846E+02  0.7546771E-02  0.1731029E+00
         21   -1    0    0  503  502  0.00000000000E+00  0.00000000000E+00  0.16453297288E+01  0.16453297288E+01  0.00000000000E+00 0.  1.
         21   -1    0    0  501  503 -0.00000000000E+00 -0.00000000000E+00 -0.26142322715E+03  0.26142322715E+03  0.00000000000E+00 0.  1.
          2    1    1    2  501    0 -0.19531962158E+02 -0.69703775931E+01 -0.12856317145E+03  0.13022508500E+03  0.00000000000E+00 0. -1.
         -2    1    1    2    0  502  0.19531962158E+02  0.69703775931E+01 -0.13121472597E+03  0.13284347188E+03  0.00000000000E+00 0.  1.
<mgrwt>
<rscale>  2 0.20738460E+02</rscale>
<asrwt>0</asrwt>
<pdfrwt beam="1">  1       21 0.25312769E-03 0.20738460E+02</pdfrwt>
<pdfrwt beam="2">  1       21 0.40218951E-01 0.20738460E+02</pdfrwt>
<totfact> 0.12835302E+08</totfact>
</mgrwt>
</event>
<event>
 4    1  0.7616518E+004  0.2102984E+02  0.7546771E-02  0.1725591E+00
         21   -1    0    0  503  502  0.00000000000E+00  0.00000000000E+00  0.39700547116E+03  0.39700547116E+03  0.00000000000E+00 0.  1.
         21   -1    0    0  501  503 -0.00000000000E+00 -0.00000000000E+00 -0.11154479214E+01  0.11154479214E+01  0.00000000000E+00 0.  1.
          3    1    1    2  501    0 -0.12180329804E+02 -0.17143332819E+02  0.19071225447E+03  0.19186823160E+03  0.00000000000E+00 0. -1.
         -3    1    1    2    0  502  0.12180329804E+02  0.17143332819E+02  0.20517776877E+03  0.20625268748E+03  0.00000000000E+00 0.  1.
<mgrwt>
<rscale>  2 0.21029843E+02</rscale>
<asrwt>0</asrwt>
<pdfrwt beam="1">  1       21 0.61077652E-01 0.21029843E+02</pdfrwt>
<pdfrwt beam="2">  1       21 0.17160769E-03 0.21029843E+02</pdfrwt>
<totfact> 0.10051693E+08</totfact>
</mgrwt>
</event>
<event>
 4    1  0.7616518E+004  0.2625102E+02  0.7546771E-02  0.1643657E+00
         21   -1    0    0  503  502  0.00000000000E+00  0.00000000000E+00  0.46013647383E+01  0.46013647383E+01  0.00000000000E+00 0.  1.
         21   -1    0    0  501  503 -0.00000000000E+00 -0.00000000000E+00 -0.14981177328E+03  0.14981177328E+03  0.00000000000E+00 0.  1.
          2    1    1    2  501    0 -0.21634236685E+02 -0.14868624583E+02 -0.73992030196E+02  0.78510742745E+02  0.00000000000E+00 0. -1.
         -2    1    1    2    0  502  0.21634236685E+02  0.14868624583E+02 -0.71218378345E+02  0.75902395272E+02  0.00000000000E+00 0.  1.
<mgrwt>
<rscale>  2 0.26251023E+02</rscale>
<asrwt>0</asrwt>
<pdfrwt beam="1">  1       21 0.70790228E-03 0.26251023E+02</pdfrwt>
<pdfrwt beam="2">  1       21 0.23047965E-01 0.26251023E+02</pdfrwt>
<totfact> 0.83226702E+07</totfact>
</mgrwt>
</event>
<event>
 4    1  0.7616518E+004  0.3882091E+02  0.7546771E-02  0.1517072E+00
         21   -1    0    0  501  502  0.00000000000E+00  0.00000000000E+00  0.20856430623E+03  0.20856430623E+03  0.00000000000E+00 0.  1.
         21   -1    0    0  502  503 -0.00000000000E+00 -0.00000000000E+00 -0.72417483171E+01  0.72417483171E+01  0.00000000000E+00 0.  1.
          5    1    1    2  501    0 -0.19988656785E+02  0.33279374429E+02  0.10571036050E+03  0.11261324735E+03  0.00000000000E+00 0.  1.
         -5    1    1    2    0  503  0.19988656785E+02 -0.33279374429E+02  0.95612197418E+02  0.10319280720E+03  0.00000000000E+00 0. -1.
<mgrwt>
<rscale>  2 0.38820911E+02</rscale>
<asrwt>0</asrwt>
<pdfrwt beam="1">  1       21 0.32086812E-01 0.38820911E+02</pdfrwt>
<pdfrwt beam="2">  1       21 0.11141153E-02 0.38820911E+02</pdfrwt>
<totfact> 0.24801253E+07</totfact>
</mgrwt>
</event>
<event>
 4    1  0.7616518E+004  0.2608077E+02  0.7546771E-02  0.1645947E+00
         21   -1    0    0  503  502  0.00000000000E+00  0.00000000000E+00  0.25493740047E+03  0.25493740047E+03  0.00000000000E+00 0. -1.
         21   -1    0    0  501  503 -0.00000000000E+00 -0.00000000000E+00 -0.37462744139E+01  0.37462744139E+01  0.00000000000E+00 0. -1.
          4    1    1    2  501    0 -0.16146217974E+01 -0.26030741786E+02  0.19498244778E+03  0.19671899112E+03  0.00000000000E+00 0. -1.
         -4    1    1    2    0  502  0.16146217974E+01  0.26030741786E+02  0.56208678274E+02  0.61964683771E+02  0.00000000000E+00 0.  1.
<mgrwt>
<rscale>  2 0.26080769E+02</rscale>
<asrwt>0</asrwt>
<pdfrwt beam="1">  1       21 0.39221125E-01 0.26080769E+02</pdfrwt>
<pdfrwt beam="2">  1       21 0.57635011E-03 0.26080769E+02</pdfrwt>
<totfact> 0.42658074E+07</totfact>
</mgrwt>
</event>
<event>
 4    1  0.7616518E+004  0.2332110E+02  0.7546771E-02  0.1686357E+00
         21   -1    0    0  503  502  0.00000000000E+00  0.00000000000E+00  0.55047707447E+03  0.55047707447E+03  0.00000000000E+00 0.  1.
         21   -1    0    0  501  503 -0.00000000000E+00 -0.00000000000E+00 -0.11313980237E+01  0.11313980237E+01  0.00000000000E+00 0.  1.
          3    1    1    2  501    0 -0.21280581805E+00 -0.23320125861E+02  0.37286091115E+03  0.37358952424E+03  0.00000000000E+00 0. -1.
         -3    1    1    2    0  502  0.21280581805E+00  0.23320125861E+02  0.17648476530E+03  0.17801894826E+03  0.00000000000E+00 0.  1.
<mgrwt>
<rscale>  2 0.23321097E+02</rscale>
<asrwt>0</asrwt>
<pdfrwt beam="1">  1       21 0.84688567E-01 0.23321097E+02</pdfrwt>
<pdfrwt beam="2">  1       21 0.17406167E-03 0.23321097E+02</pdfrwt>
<totfact> 0.51567641E+07</totfact>
</mgrwt>
</event>
<event>
 4    1  0.7616518E+004  0.2164789E+02  0.7546771E-02  0.1714414E+00
         21   -1    0    0  503  502  0.00000000000E+00  0.00000000000E+00  0.10190916479E+01  0.10190916479E+01  0.00000000000E+00 0. -1.
         21   -1    0    0  501  503 -0.00000000000E+00 -0.00000000000E+00 -0.57371679310E+03  0.57371679310E+03  0.00000000000E+00 0. -1.
          2    1    1    2  501    0  0.21054659220E+02 -0.50331316112E+01 -0.15832681638E+03  0.15979991200E+03  0.00000000000E+00 0.  1.
         -2    1    1    2    0  502 -0.21054659220E+02  0.50331316112E+01 -0.41437088507E+03  0.41493597275E+03  0.00000000000E+00 0. -1.
<mgrwt>
<rscale>  2 0.21647889E+02</rscale>
<asrwt>0</asrwt>
<pdfrwt beam="1">  1       21 0.15678365E-03 0.21647889E+02</pdfrwt>
<pdfrwt beam="2">  1       21 0.88263944E-01 0.21647889E+02</pdfrwt>
<totfact> 0.53966665E+07</totfact>
</mgrwt>
</event>
<event>
 4    1  0.7616518E+004  0.2147617E+02  0.7546771E-02  0.1717472E+00
         21   -1    0    0  501  502  0.00000000000E+00  0.00000000000E+00  0.15370183992E+02  0.15370183992E+02  0.00000000000E+00 0. -1.
         21   -1    0    0  502  503 -0.00000000000E+00 -0.00000000000E+00 -0.43061543216E+02  0.43061543216E+02  0.00000000000E+00 0. -1.
          3    1    1    2  501    0 -0.10419786932E+02 -0.18779082518E+02 -0.29931415466E+02  0.36839049007E+02  0.00000000000E+00 0.  1.
         -3    1    1    2    0  503  0.10419786932E+02  0.18779082518E+02  0.22400562428E+01  0.21592678201E+02  0.00000000000E+00 0. -1.
<mgrwt>
<rscale>  2 0.21476171E+02</rscale>
<asrwt>0</asrwt>
<pdfrwt beam="1">  1       21 0.23646437E-02 0.21476171E+02</pdfrwt>
<pdfrwt beam="2">  1       21 0.66248528E-02 0.21476171E+02</pdfrwt>
<totfact> 0.10349046E+08</totfact>
</mgrwt>
</event>
<event>
 4    1  0.7616518E+004  0.4987958E+02  0.7546771E-02  0.1445992E+00
         21   -1    0    0  501  502  0.00000000000E+00  0.00000000000E+00  0.86547845799E+01  0.86547845799E+01  0.00000000000E+00 0.  1.
         21   -1    0    0  502  503 -0.00000000000E+00 -0.00000000000E+00 -0.32605514192E+03  0.32605514192E+03  0.00000000000E+00 0.  1.
          2    1    1    2  501    0 -0.12737882412E+02  0.48225704848E+02 -0.21627270123E+03  0.22195011501E+03  0.00000000000E+00 0. -1.
         -2    1    1    2    0  503  0.12737882412E+02 -0.48225704848E+02 -0.10112765611E+03  0.11275981149E+03  0.00000000000E+00 0.  1.
<mgrwt>
<rscale>  2 0.49879578E+02</rscale>
<asrwt>0</asrwt>
<pdfrwt beam="1">  1       21 0.13315052E-02 0.49879578E+02</pdfrwt>
<pdfrwt beam="2">  1       21 0.50162334E-01 0.49879578E+02</pdfrwt>
<totfact> 0.82019601E+06</totfact>
</mgrwt>
</event>
<event>
 4    1  0.7616518E+004  0.3172097E+02  0.7546771E-02  0.1579809E+00
         21   -1    0    0  501  502  0.00000000000E+00  0.00000000000E+00  0.93059999871E+01  0.93059999871E+01  0.00000000000E+00 0.  1.
         21   -1    0    0  502  503 -0.00000000000E+00 -0.00000000000E+00 -0.10889301892E+03  0.10889301892E+03  0.00000000000E+00 0.  1.
          4    1    1    2  501    0  0.25700192748E+02  0.18593548643E+02 -0.44833242716E+02  0.54920302356E+02  0.00000000000E+00 0.  1.
         -4    1    1    2    0  503 -0.25700192748E+02 -0.18593548643E+02 -0.54753776222E+02  0.63278716556E+02  0.00000000000E+00 0. -1.
<mgrwt>
<rscale>  2 0.31720970E+02</rscale>
<asrwt>0</asrwt>
<pdfrwt beam="1">  1       21 0.14316923E-02 0.31720970E+02</pdfrwt>
<pdfrwt beam="2">  1       21 0.16752772E-01 0.31720970E+02</pdfrwt>
<totfact> 0.52439093E+07</totfact>
</mgrwt>
</event>
<event>
 4    1  0.7616518E+004  0.2035521E+02  0.7546771E-02  0.1738355E+00
         21   -1    0    0  503  502  0.00000000000E+00  0.00000000000E+00  0.25917711748E+02  0.25917711748E+02  0.00000000000E+00 0. -1.
         21   -1    0    0  501  503 -0.00000000000E+00 -0.00000000000E+00 -0.27517405426E+02  0.27517405426E+02  0.00000000000E+00 0. -1.
          2    1    1    2  501    0  0.53782271802E+01 -0.19631841813E+02 -0.18094982675E+02  0.27235325197E+02  0.00000000000E+00 0.  1.
         -2    1    1    2    0  502 -0.53782271802E+01  0.19631841813E+02  0.16495288997E+02  0.26199791977E+02  0.00000000000E+00 0. -1.
<mgrwt>
<rscale>  2 0.20355209E+02</rscale>
<asrwt>0</asrwt>
<pdfrwt beam="1">  1       21 0.39873403E-02 0.20355209E+02</pdfrwt>
<pdfrwt beam="2">  1       21 0.42334470E-02 0.20355209E+02</pdfrwt>
<totfact> 0.92252345E+07</totfact>
</mgrwt>
</event>
<event>
 4    1  0.7616518E+004  0.2101762E+02  0.7546771E-02  0.1725817E+00
         21   -1    0    0  503  502  0.00000000000E+00  0.00000000000E+00  0.46277713860E+01  0.46277713860E+01  0.00000000000E+00 0.  1.
         21   -1    0    0  501  503 -0.00000000000E+00 -0.00000000000E+00 -0.11895426938E+03  0.11895426938E+03  0.00000000000E+00 0.  1.
          4    1    1    2  501    0  0.16119215807E+02  0.13487444712E+02 -0.84627628218E+02  0.87198484740E+02  0.00000000000E+00 0. -1.
         -4    1    1    2    0  502 -0.16119215807E+02 -0.13487444712E+02 -0.29698869774E+02  0.36383556024E+02  0.00000000000E+00 0.  1.
<mgrwt>
<rscale>  2 0.21017618E+02</rscale>
<asrwt>0</asrwt>
<pdfrwt beam="1">  1       21 0.71196473E-03 0.21017618E+02</pdfrwt>
<pdfrwt beam="2">  1       21 0.18300659E-01 0.21017618E+02</pdfrwt>
<totfact> 0.11638931E+08</totfact>
</mgrwt>
</event>
<event>
 4    1  0.7616518E+004  0.4514978E+02  0.7546771E-02  0.1473409E+00
         21   -1    0    0  503  502  0.00000000000E+00  0.00000000000E+00  0.14061109588E+02  0.14061109588E+02  0.00000000000E+00 0.  1.
         21   -1    0    0  501  503 -0.00000000000E+00 -0.00000000000E+00 -0.16051275406E+03  0.16051275406E+03  0.00000000000E+00 0.  1.
          3    1    1    2  501    0  0.34160426039E+02  0.29522321796E+02 -0.46067952319E+02  0.64503941137E+02  0.00000000000E+00 0.  1.
         -3    1    1    2    0  502 -0.34160426039E+02 -0.29522321796E+02 -0.10038369215E+03  0.11006992251E+03  0.00000000000E+00 0. -1.
<mgrwt>
<rscale>  2 0.45149775E+02</rscale>
<asrwt>0</asrwt>
<pdfrwt beam="1">  1       21 0.21632476E-02 0.45149775E+02</pdfrwt>
<pdfrwt beam="2">  1       21 0.24694270E-01 0.45149775E+02</pdfrwt>
<totfact> 0.14693067E+07</totfact>
</mgrwt>
</event>
<event>
 4    1  0.7616518E+004  0.2131491E+02  0.7546771E-02  0.1720377E+00
         21   -1    0    0  503  502  0.00000000000E+00  0.00000000000E+00  0.12417783775E+03  0.12417783775E+03  0.00000000000E+00 0. -1.
         21   -1    0    0  501  503 -0.00000000000E+00 -0.00000000000E+00 -0.36614805580E+01  0.36614805580E+01  0.00000000000E+00 0. -1.
          5    1    1    2  501    0  0.14214270527E+01 -0.21267465511E+02  0.58486774089E+02  0.62249725200E+02  0.00000000000E+00 0. -1.
         -5    1    1    2    0  502 -0.14214270527E+01  0.21267465511E+02  0.62029583104E+02  0.65589593109E+02  0.00000000000E+00 0.  1.
<mgrwt>
<rscale>  2 0.21314914E+02</rscale>
<asrwt>0</asrwt>
<pdfrwt beam="1">  1       21 0.19104280E-01 0.21314914E+02</pdfrwt>
<pdfrwt beam="2">  1       21 0.56330479E-03 0.21314914E+02</pdfrwt>
<totfact> 0.15343639E+08</totfact>
</mgrwt>
</event>
<event>
 4    1  0.7616518E+004  0.2305882E+02  0.7546771E-02  0.1690558E+00
         21   -1    0    0  501  502  0.00000000000E+00  0.00000000000E+00  0.73373798162E+02  0.73373798162E+02  0.00000000000E+00 0. -1.
         21   -1    0    0  502  503 -0.00000000000E+00 -0.00000000000E+00 -0.79258309888E+01  0.79258309888E+01  0.00000000000E+00 0. -1.
          5    1    1    2  501    0 -0.20207173802E+02  0.11107627316E+02  0.44624083578E+02  0.50229653521E+02  0.00000000000E+00 0. -1.
         -5    1    1    2    0  503  0.20207173802E+02 -0.11107627316E+02  0.20823883595E+02  0.31069975630E+02  0.00000000000E+00 0.  1.
<mgrwt>
<rscale>  2 0.23058822E+02</rscale>
<asrwt>0</asrwt>
<pdfrwt beam="1">  1       21 0.11288276E-01 0.23058822E+02</pdfrwt>
<pdfrwt beam="2">  1       21 0.12193587E-02 0.23058822E+02</pdfrwt>
<totfact> 0.12116668E+08</totfact>
</mgrwt>
</event>
<event>
 4    1  0.7616518E+004  0.2267136E+02  0.7546771E-02  0.1696893E+00
         21   -1    0    0  501  502  0.00000000000E+00  0.00000000000E+00  0.14398567237E+02  0.14398567237E+02  0.00000000000E+00 0.  1.
         21   -1    0    0  502  503 -0.00000000000E+00 -0.00000000000E+00 -0.35896431643E+02  0.35896431643E+02  0.00000000000E+00 0.  1.
          5    1    1    2  501    0  0.14655871115E+02  0.17297282971E+02 -0.88761157395E+01  0.24346991332E+02  0.00000000000E+00 0.  1.
         -5    1    1    2    0  503 -0.14655871115E+02 -0.17297282971E+02 -0.12621748666E+02  0.25948007548E+02  0.00000000000E+00 0. -1.
<mgrwt>
<rscale>  2 0.22671360E+02</rscale>
<asrwt>0</asrwt>
<pdfrwt beam="1">  1       21 0.22151642E-02 0.22671360E+02</pdfrwt>
<pdfrwt beam="2">  1       21 0.55225278E-02 0.22671360E+02</pdfrwt>
<totfact> 0.15573940E+08</totfact>
</mgrwt>
</event>
<event>
 4    1  0.7616518E+004  0.3144751E+02  0.7546771E-02  0.1582618E+00
         21   -1    0    0  501  502  0.00000000000E+00  0.00000000000E+00  0.14780262542E+04  0.14780262542E+04  0.00000000000E+00 0. -1.
         21   -1    0    0  502  503 -0.00000000000E+00 -0.00000000000E+00 -0.78780906478E+00  0.78780906478E+00  0.00000000000E+00 0. -1.
          4    1    1    2  501    0  0.11214055233E+02 -0.29380112301E+02  0.10256422105E+04  0.10261242078E+04  0.00000000000E+00 0.  1.
         -4    1    1    2    0  503 -0.11214055233E+02  0.29380112301E+02  0.45159623468E+03  0.45268985543E+03  0.00000000000E+00 0. -1.
<mgrwt>
<rscale>  2 0.31447512E+02</rscale>
<asrwt>0</asrwt>
<pdfrwt beam="1">  1       21 0.22738644E+00 0.31447512E+02</pdfrwt>
<pdfrwt beam="2">  1       21 0.12120258E-03 0.31447512E+02</pdfrwt>
<totfact> 0.86285342E+06</totfact>
</mgrwt>
</event>
<event>
 4    1  0.7616518E+004  0.2305552E+02  0.7546771E-02  0.1690612E+00
         21   -1    0    0  503  502  0.00000000000E+00  0.00000000000E+00  0.13054301646E+01  0.13054301646E+01  0.00000000000E+00 0.  1.
         21   -1    0    0  501  503 -0.00000000000E+00 -0.00000000000E+00 -0.42755927127E+03  0.42755927127E+03  0.00000000000E+00 0.  1.
          1    1    1    2  501    0  0.22861779777E+02 -0.29826538635E+01 -0.16632245176E+03  0.16791282011E+03  0.00000000000E+00 0.  1.
         -1    1    1    2    0  502 -0.22861779777E+02  0.29826538635E+01 -0.25993138934E+03  0.26095188132E+03  0.00000000000E+00 0. -1.
<mgrwt>
<rscale>  2 0.23055524E+02</rscale>
<asrwt>0</asrwt>
<pdfrwt beam="1">  1       21 0.20083510E-03 0.23055524E+02</pdfrwt>
<pdfrwt beam="2">  1       21 0.65778451E-01 0.23055524E+02</pdfrwt>
<totfact> 0.70663340E+07</totfact>
</mgrwt>
</event>
<event>
 4    1  0.7616518E+004  0.3105635E+02  0.7546771E-02  0.1586697E+00
         21   -1    0    0  501  502  0.00000000000E+00  0.00000000000E+00  0.13202871287E+02  0.13202871287E+02  0.00000000000E+00 0.  1.
         21   -1    0    0  502  503 -0.00000000000E+00 -0.00000000000E+00 -0.73059878399E+02  0.73059878399E+02  0.00000000000E+00 0.  1.
          3    1    1    2  501    0  0.60436022260E+01  0.30462633187E+02 -0.29482759951E+02  0.42822077050E+02  0.00000000000E+00 0.  1.
         -3    1    1    2    0  503 -0.60436022260E+01 -0.30462633187E+02 -0.30374247160E+02  0.43440672636E+02  0.00000000000E+00 0. -1.
<mgrwt>
<rscale>  2 0.31056354E+02</rscale>
<asrwt>0</asrwt>
<pdfrwt beam="1">  1       21 0.20312109E-02 0.31056354E+02</pdfrwt>
<pdfrwt beam="2">  1       21 0.11239981E-01 0.31056354E+02</pdfrwt>
<totfact> 0.60273853E+07</totfact>
</mgrwt>
</event>
<event>
 4    1  0.7616518E+004  0.3061420E+02  0.7546771E-02  0.1591397E+00
         21   -1    0    0  503  502  0.00000000000E+00  0.00000000000E+00  0.82122452276E+02  0.82122452276E+02  0.00000000000E+00 0.  1.
         21   -1    0    0  501  503 -0.00000000000E+00 -0.00000000000E+00 -0.11700093532E+02  0.11700093532E+02  0.00000000000E+00 0.  1.
          1    1    1    2  501    0 -0.15046546510E+01 -0.30577205891E+02  0.42564907389E+02  0.52430914991E+02  0.00000000000E+00 0. -1.
         -1    1    1    2    0  502  0.15046546510E+01  0.30577205891E+02  0.27857451354E+02  0.41391630817E+02  0.00000000000E+00 0.  1.
<mgrwt>
<rscale>  2 0.30614204E+02</rscale>
<asrwt>0</asrwt>
<pdfrwt beam="1">  1       21 0.12634223E-01 0.30614204E+02</pdfrwt>
<pdfrwt beam="2">  1       21 0.18000144E-02 0.30614204E+02</pdfrwt>
<totfact> 0.59430086E+07</totfact>
</mgrwt>
</event>
<event>
 4    1  0.7616518E+004  0.2175670E+02  0.7546771E-02  0.1712494E+00
         21   -1    0    0  501  502  0.00000000000E+00  0.00000000000E+00  0.16510942800E+03  0.16510942800E+03  0.00000000000E+00 0. -1.
         21   -1    0    0  502  503 -0.00000000000E+00 -0.00000000000E+00 -0.29074023025E+01  0.29074023025E+01  0.00000000000E+00 0. -1.
          1    1    1    2  501    0  0.14552529025E+02  0.16173366748E+02  0.71186857422E+02  0.74437373426E+02  0.00000000000E+00 0. -1.
         -1    1    1    2    0  503 -0.14552529025E+02 -0.16173366748E+02  0.91015168273E+02  0.93579456874E+02  0.00000000000E+00 0.  1.
<mgrwt>
<rscale>  2 0.21756698E+02</rscale>
<asrwt>0</asrwt>
<pdfrwt beam="1">  1       21 0.25401443E-01 0.21756698E+02</pdfrwt>
<pdfrwt beam="2">  1       21 0.44729279E-03 0.21756698E+02</pdfrwt>
<totfact> 0.13141873E+08</totfact>
</mgrwt>
</event>
<event>
 4    1  0.7616518E+004  0.2361460E+02  0.7546771E-02  0.1681737E+00
         21   -1    0    0  501  502  0.00000000000E+00  0.00000000000E+00  0.98193092938E+00  0.98193092938E+00  0.00000000000E+00 0. -1.
         21   -1    0    0  502  503 -0.00000000000E+00 -0.00000000000E+00 -0.11055414109E+04  0.11055414109E+04  0.00000000000E+00 0. -1.
          5    1    1    2  501    0 -0.21980154485E+02 -0.86326228352E+01 -0.16645951223E+03  0.16812619838E+03  0.00000000000E+00 0. -1.
         -5    1    1    2    0  503  0.21980154485E+02  0.86326228352E+01 -0.93809996778E+03  0.93839714349E+03  0.00000000000E+00 0.  1.
<mgrwt>
<rscale>  2 0.23614601E+02</rscale>
<asrwt>0</asrwt>
<pdfrwt beam="1">  1       21 0.15106523E-03 0.23614601E+02</pdfrwt>
<pdfrwt beam="2">  1       21 0.17008449E+00 0.23614601E+02</pdfrwt>
<totfact> 0.12993347E+07</totfact>
</mgrwt>
</event>
<event>
 4    1  0.7616518E+004  0.2420982E+02  0.7546771E-02  0.1672618E+00
         21   -1    0    0  503  502  0.00000000000E+00  0.00000000000E+00  0.24561478181E+03  0.24561478181E+03  0.00000000000E+00 0.  1.
         21   -1    0    0  501  503 -0.00000000000E+00 -0.00000000000E+00 -0.23931333681E+01  0.23931333681E+01  0.00000000000E+00 0.  1.
          1    1    1    2  501    0  0.98152151779E+01 -0.22130909312E+02  0.11499450919E+03  0.11751532981E+03  0.00000000000E+00 0.  1.
         -1    1    1    2    0  502 -0.98152151779E+01  0.22130909312E+02  0.12822713925E+03  0.13049258537E+03  0.00000000000E+00 0. -1.
<mgrwt>
<rscale>  2 0.24209824E+02</rscale>
<asrwt>0</asrwt>
<pdfrwt beam="1">  1       21 0.37786870E-01 0.24209824E+02</pdfrwt>
<pdfrwt beam="2">  1       21 0.36817456E-03 0.24209824E+02</pdfrwt>
<totfact> 0.87155401E+07</totfact>
</mgrwt>
</event>
<event>
 4    1  0.7616518E+004  0.2962104E+02  0.7546771E-02  0.1602316E+00
         21   -1    0    0  503  502  0.00000000000E+00  0.00000000000E+00  0.27103317768E+03  0.27103317768E+03  0.00000000000E+00 0.  1.
         21   -1    0    0  501  503 -0.00000000000E+00 -0.00000000000E+00 -0.34914885717E+01  0.34914885717E+01  0.00000000000E+00 0.  1.
          4    1    1    2  501    0  0.29619610654E+02  0.29108421282E+00  0.96732253357E+02  0.10116587816E+03  0.00000000000E+00 0. -1.
         -4    1    1    2    0  502 -0.29619610654E+02 -0.29108421282E+00  0.17080943575E+03  0.17335878809E+03  0.00000000000E+00 0.  1.
<mgrwt>
<rscale>  2 0.29621041E+02</rscale>
<asrwt>0</asrwt>
<pdfrwt beam="1">  1       21 0.41697395E-01 0.29621041E+02</pdfrwt>
<pdfrwt beam="2">  1       21 0.53715230E-03 0.29621041E+02</pdfrwt>
<totfact> 0.43311055E+07</totfact>
</mgrwt>
</event>
<event>
 4    1  0.7616518E+004  0.2624024E+02  0.7546771E-02  0.1643801E+00
         21   -1    0    0  503  502  0.00000000000E+00  0.00000000000E+00  0.20059173733E+02  0.20059173733E+02  0.00000000000E+00 0. -1.
         21   -1    0    0  501  503 -0.00000000000E+00 -0.00000000000E+00 -0.35134247638E+02  0.35134247638E+02  0.00000000000E+00 0. -1.
          5    1    1    2  501    0  0.24580171161E+02 -0.91850519059E+01 -0.33517188827E+01  0.26453431012E+02  0.00000000000E+00 0.  1.
         -5    1    1    2    0  502 -0.24580171161E+02  0.91850519059E+01 -0.11723355022E+02  0.28739990359E+02  0.00000000000E+00 0. -1.
<mgrwt>
<rscale>  2 0.26240236E+02</rscale>
<asrwt>0</asrwt>
<pdfrwt beam="1">  1       21 0.30860267E-02 0.26240236E+02</pdfrwt>
<pdfrwt beam="2">  1       21 0.54052688E-02 0.26240236E+02</pdfrwt>
<totfact> 0.10042907E+08</totfact>
</mgrwt>
</event>
<event>
 4    1  0.7616518E+004  0.2060324E+02  0.7546771E-02  0.1733591E+00
         21   -1    0    0  501  502  0.00000000000E+00  0.00000000000E+00  0.17875547640E+02  0.17875547640E+02  0.00000000000E+00 0.  1.
         21   -1    0    0  502  503 -0.00000000000E+00 -0.00000000000E+00 -0.23933804715E+02  0.23933804715E+02  0.00000000000E+00 0.  1.
          1    1    1    2  501    0  0.19701866008E+02  0.60274498235E+01 -0.48751355084E+01  0.21172166205E+02  0.00000000000E+00 0. -1.
         -1    1    1    2    0  503 -0.19701866008E+02 -0.60274498235E+01 -0.11831215669E+01  0.20637186151E+02  0.00000000000E+00 0.  1.
<mgrwt>
<rscale>  2 0.20603244E+02</rscale>
<asrwt>0</asrwt>
<pdfrwt beam="1">  1       21 0.27500842E-02 0.20603244E+02</pdfrwt>
<pdfrwt beam="2">  1       21 0.36821238E-02 0.20603244E+02</pdfrwt>
<totfact> 0.20543999E+08</totfact>
</mgrwt>
</event>
<event>
 4    1  0.7616518E+004  0.2120336E+02  0.7546771E-02  0.1722405E+00
         21   -1    0    0  501  502  0.00000000000E+00  0.00000000000E+00  0.41483957571E+02  0.41483957571E+02  0.00000000000E+00 0. -1.
         21   -1    0    0  502  503 -0.00000000000E+00 -0.00000000000E+00 -0.10838312451E+02  0.10838312451E+02  0.00000000000E+00 0. -1.
          3    1    1    2  501    0  0.21199987313E+02  0.37793599809E+00  0.15096008729E+02  0.26028288020E+02  0.00000000000E+00 0. -1.
         -3    1    1    2    0  503 -0.21199987313E+02 -0.37793599809E+00  0.15549636390E+02  0.26293982002E+02  0.00000000000E+00 0.  1.
<mgrwt>
<rscale>  2 0.21203356E+02</rscale>
<asrwt>0</asrwt>
<pdfrwt beam="1">  1       21 0.63821472E-02 0.21203356E+02</pdfrwt>
<pdfrwt beam="2">  1       21 0.16674327E-02 0.21203356E+02</pdfrwt>
<totfact> 0.18679556E+08</totfact>
</mgrwt>
</event>
<event>
 4    1  0.7616518E+004  0.3437192E+02  0.7546771E-02  0.1554250E+00
         21   -1    0    0  503  502  0.00000000000E+00  0.00000000000E+00  0.99531439563E+03  0.99531439563E+03  0.00000000000E+00 0. -1.
         21   -1    0    0  501  503 -0.00000000000E+00 -0.00000000000E+00 -0.24973195788E+01  0.24973195788E+01  0.00000000000E+00 0. -1.
          1    1    1    2  501    0  0.32773736629E+02 -0.10359107327E+02  0.85779485136E+03  0.85848321821E+03  0.00000000000E+00 0.  1.
         -1    1    1    2    0  502 -0.32773736629E+02  0.10359107327E+02  0.13502222469E+03  0.13932849700E+03  0.00000000000E+00 0. -1.
<mgrwt>
<rscale>  2 0.34371920E+02</rscale>
<asrwt>0</asrwt>
<pdfrwt beam="1">  1       21 0.15312498E+00 0.34371920E+02</pdfrwt>
<pdfrwt beam="2">  1       21 0.38420381E-03 0.34371920E+02</pdfrwt>
<totfact> 0.44824613E+06</totfact>
</mgrwt>
</event>
<event>
 4    1  0.7616518E+004  0.5583776E+02  0.7546771E-02  0.1416178E+00
         21   -1    0    0  501  502  0.00000000000E+00  0.00000000000E+00  0.76068275855E+02  0.76068275855E+02  0.00000000000E+00 0. -1.
         21   -1    0    0  502  503 -0.00000000000E+00 -0.00000000000E+00 -0.42529628845E+02  0.42529628845E+02  0.00000000000E+00 0. -1.
          1    1    1    2  501    0 -0.33751236154E+02 -0.44482681574E+02  0.54778759065E+01  0.56105810986E+02  0.00000000000E+00 0. -1.
         -1    1    1    2    0  503  0.33751236154E+02  0.44482681574E+02  0.28060771104E+02  0.62492093715E+02  0.00000000000E+00 0.  1.
<mgrwt>
<rscale>  2 0.55837755E+02</rscale>
<asrwt>0</asrwt>
<pdfrwt beam="1">  1       21 0.11702812E-01 0.55837755E+02</pdfrwt>
<pdfrwt beam="2">  1       21 0.65430198E-02 0.55837755E+02</pdfrwt>
<totfact> 0.94785919E+06</totfact>
</mgrwt>
</event>
<event>
 4    1  0.7616518E+004  0.2225981E+02  0.7546771E-02  0.1703797E+00
         21   -1    0    0  501  502  0.00000000000E+00  0.00000000000E+00  0.16059181316E+03  0.16059181316E+03  0.00000000000E+00 0.  1.
         21   -1    0    0  502  503 -0.00000000000E+00 -0.00000000000E+00 -0.31936604746E+01  0.31936604746E+01  0.00000000000E+00 0.  1.
          4    1    1    2  501    0  0.64554339223E+00  0.22250449445E+02  0.63625355841E+02  0.67406862653E+02  0.00000000000E+00 0.  1.
         -4    1    1    2    0  503 -0.64554339223E+00 -0.22250449445E+02  0.93772796846E+02  0.96378610983E+02  0.00000000000E+00 0. -1.
<mgrwt>
<rscale>  2 0.22259812E+02</rscale>
<asrwt>0</asrwt>
<pdfrwt beam="1">  1       21 0.24706427E-01 0.22259812E+02</pdfrwt>
<pdfrwt beam="2">  1       21 0.49133250E-03 0.22259812E+02</pdfrwt>
<totfact> 0.12104696E+08</totfact>
</mgrwt>
</event>
<event>
 4    1  0.7616518E+004  0.2908513E+02  0.7546771E-02  0.1608427E+00
         21   -1    0    0  503  502  0.00000000000E+00  0.00000000000E+00  0.59207644962E+03  0.59207644962E+03  0.00000000000E+00 0.  1.
         21   -1    0    0  501  503 -0.00000000000E+00 -0.00000000000E+00 -0.14812007672E+01  0.14812007672E+01  0.00000000000E+00 0.  1.
          4    1    1    2  501    0 -0.19999601819E+02 -0.21117786463E+02  0.35113072003E+03  0.35233326203E+03  0.00000000000E+00 0.  1.
         -4    1    1    2    0  502  0.19999601819E+02  0.21117786463E+02  0.23946452882E+03  0.24122438836E+03  0.00000000000E+00 0. -1.
<mgrwt>
<rscale>  2 0.29085133E+02</rscale>
<asrwt>0</asrwt>
<pdfrwt beam="1">  1       21 0.91088496E-01 0.29085133E+02</pdfrwt>
<pdfrwt beam="2">  1       21 0.22787751E-03 0.29085133E+02</pdfrwt>
<totfact> 0.31193702E+07</totfact>
</mgrwt>
</event>
<event>
 4    1  0.7616518E+004  0.2489169E+02  0.7546771E-02  0.1662562E+00
         21   -1    0    0  503  502  0.00000000000E+00  0.00000000000E+00  0.14918686109E+03  0.14918686109E+03  0.00000000000E+00 0. -1.
         21   -1    0    0  501  503 -0.00000000000E+00 -0.00000000000E+00 -0.41532277570E+01  0.41532277570E+01  0.00000000000E+00 0. -1.
          3    1    1    2  501    0 -0.10943734280E+02  0.22356903331E+02  0.72200209206E+02  0.76370587636E+02  0.00000000000E+00 0.  1.
         -3    1    1    2    0  502  0.10943734280E+02 -0.22356903331E+02  0.72833424128E+02  0.76969501212E+02  0.00000000000E+00 0. -1.
<mgrwt>
<rscale>  2 0.24891694E+02</rscale>
<asrwt>0</asrwt>
<pdfrwt beam="1">  1       21 0.22951821E-01 0.24891694E+02</pdfrwt>
<pdfrwt beam="2">  1       21 0.63895823E-03 0.24891694E+02</pdfrwt>
<totfact> 0.96403234E+07</totfact>
</mgrwt>
</event>
<event>
 4    1  0.7616518E+004  0.3955394E+02  0.7546771E-02  0.1511520E+00
         21   -1    0    0  503  502  0.00000000000E+00  0.00000000000E+00  0.67809767318E+02  0.67809767318E+02  0.00000000000E+00 0.  1.
         21   -1    0    0  501  503 -0.00000000000E+00 -0.00000000000E+00 -0.23076830030E+02  0.23076830030E+02  0.00000000000E+00 0.  1.
          5    1    1    2  501    0 -0.39126346887E+02  0.58002752445E+01  0.21716357320E+02  0.45123324223E+02  0.00000000000E+00 0.  1.
         -5    1    1    2    0  502  0.39126346887E+02 -0.58002752445E+01  0.23016579969E+02  0.45763273125E+02  0.00000000000E+00 0. -1.
<mgrwt>
<rscale>  2 0.39553941E+02</rscale>
<asrwt>0</asrwt>
<pdfrwt beam="1">  1       21 0.10432272E-01 0.39553941E+02</pdfrwt>
<pdfrwt beam="2">  1       21 0.35502816E-02 0.39553941E+02</pdfrwt>
<totfact> 0.29774637E+07</totfact>
</mgrwt>
</event>
<event>
 4    1  0.7616518E+004  0.2839966E+02  0.7546771E-02  0.1616483E+00
         21   -1    0    0  501  502  0.00000000000E+00  0.00000000000E+00  0.85236806650E+03  0.85236806650E+03  0.00000000000E+00 0. -1.
         21   -1    0    0  502  503 -0.00000000000E+00 -0.00000000000E+00 -0.94642592355E+00  0.94642592355E+00  0.00000000000E+00 0. -1.
          4    1    1    2  501    0  0.27983443312E+02 -0.48443402565E+01  0.43176635048E+03  0.43269934381E+03  0.00000000000E+00 0.  1.
         -4    1    1    2    0  503 -0.27983443312E+02  0.48443402565E+01  0.41965529010E+03  0.42061514861E+03  0.00000000000E+00 0. -1.
<mgrwt>
<rscale>  2 0.28399661E+02</rscale>
<asrwt>0</asrwt>
<pdfrwt beam="1">  1       21 0.13113293E+00 0.28399661E+02</pdfrwt>
<pdfrwt beam="2">  1       21 0.14560467E-03 0.28399661E+02</pdfrwt>
<totfact> 0.26221889E+07</totfact>
</mgrwt>
</event>
<event>
 4    1  0.7616518E+004  0.2929691E+02  0.7546771E-02  0.1605993E+00
         21   -1    0    0  501  502  0.00000000000E+00  0.00000000000E+00  0.75404053265E+03  0.75404053265E+03  0.00000000000E+00 0.  1.
         21   -1    0    0  502  503 -0.00000000000E+00 -0.00000000000E+00 -0.14548807263E+01  0.14548807263E+01  0.00000000000E+00 0.  1.
          1    1    1    2  501    0 -0.17496054090E+02  0.23498878721E+02  0.55250833870E+03  0.55328453218E+03  0.00000000000E+00 0.  1.
         -1    1    1    2    0  503  0.17496054090E+02 -0.23498878721E+02  0.20007731322E+03  0.20221088120E+03  0.00000000000E+00 0. -1.
<mgrwt>
<rscale>  2 0.29296915E+02</rscale>
<asrwt>0</asrwt>
<pdfrwt beam="1">  1       21 0.11600592E+00 0.29296915E+02</pdfrwt>
<pdfrwt beam="2">  1       21 0.22382841E-03 0.29296915E+02</pdfrwt>
<totfact> 0.18727813E+07</totfact>
</mgrwt>
</event>
<event>
 4    1  0.7616518E+004  0.3309430E+02  0.7546771E-02  0.1566205E+00
         21   -1    0    0  501  502  0.00000000000E+00  0.00000000000E+00  0.14709413632E+03  0.14709413632E+03  0.00000000000E+00 0. -1.
         21   -1    0    0  502  503 -0.00000000000E+00 -0.00000000000E+00 -0.87921873981E+01  0.87921873981E+01  0.00000000000E+00 0. -1.
          1    1    1    2  501    0 -0.32734144970E+02 -0.48691584428E+01  0.99652052877E+02  0.10500364086E+03  0.00000000000E+00 0.  1.
         -1    1    1    2    0  503  0.32734144970E+02  0.48691584428E+01  0.38649896049E+02  0.50882682864E+02  0.00000000000E+00 0. -1.
<mgrwt>
<rscale>  2 0.33094304E+02</rscale>
<asrwt>0</asrwt>
<pdfrwt beam="1">  1       21 0.22629865E-01 0.33094304E+02</pdfrwt>
<pdfrwt beam="2">  1       21 0.13526443E-02 0.33094304E+02</pdfrwt>
<totfact> 0.33937175E+07</totfact>
</mgrwt>
</event>
<event>
 4    1  0.7616518E+004  0.2204243E+02  0.7546771E-02  0.1707519E+00
         21   -1    0    0  501  502  0.00000000000E+00  0.00000000000E+00  0.93980400514E+00  0.93980400514E+00  0.00000000000E+00 0. -1.
         21   -1    0    0  502  503 -0.00000000000E+00 -0.00000000000E+00 -0.56688220408E+03  0.56688220408E+03  0.00000000000E+00 0. -1.
          2    1    1    2  501    0 -0.96900578940E+01  0.19798274639E+02 -0.36719869441E+03  0.36785968803E+03  0.00000000000E+00 0. -1.
         -2    1    1    2    0  503  0.96900578940E+01 -0.19798274639E+02 -0.19874370566E+03  0.19996232005E+03  0.00000000000E+00 0.  1.
<mgrwt>
<rscale>  2 0.22042434E+02</rscale>
<asrwt>0</asrwt>
<pdfrwt beam="1">  1       21 0.14458530E-03 0.22042434E+02</pdfrwt>
<pdfrwt beam="2">  1       21 0.87212603E-01 0.22042434E+02</pdfrwt>
<totfact> 0.62434001E+07</totfact>
</mgrwt>
</event>
<event>
 4    1  0.7616518E+004  0.2433958E+02  0.7546771E-02  0.1670673E+00
         21   -1    0    0  503  502  0.00000000000E+00  0.00000000000E+00  0.45256363168E+02  0.45256363168E+02  0.00000000000E+00 0. -1.
         21   -1    0    0  501  503 -0.00000000000E+00 -0.00000000000E+00 -0.13091163094E+02  0.13091163094E+02  0.00000000000E+00 0. -1.
          3    1    1    2  501    0  0.12924482181E+02  0.20624572689E+02  0.15833501940E+02  0.29036442997E+02  0.00000000000E+00 0. -1.
         -3    1    1    2    0  502 -0.12924482181E+02 -0.20624572689E+02  0.16331698134E+02  0.29311083265E+02  0.00000000000E+00 0.  1.
<mgrwt>
<rscale>  2 0.24339582E+02</rscale>
<asrwt>0</asrwt>
<pdfrwt beam="1">  1       21 0.69625173E-02 0.24339582E+02</pdfrwt>
<pdfrwt beam="2">  1       21 0.20140251E-02 0.24339582E+02</pdfrwt>
<totfact> 0.12681772E+08</totfact>
</mgrwt>
</event>
<event>
 4    1  0.7616518E+004  0.2315749E+02  0.7546771E-02  0.1688970E+00
         21   -1    0    0  501  502  0.00000000000E+00  0.00000000000E+00  0.51969777845E+03  0.51969777845E+03  0.00000000000E+00 0. -1.
         21   -1    0    0  502  503 -0.00000000000E+00 -0.00000000000E+00 -0.10745103406E+01  0.10745103406E+01  0.00000000000E+00 0. -1.
          1    1    1    2  501    0  0.93096516148E+00 -0.23138768372E+02  0.31117218581E+03  0.31203268822E+03  0.00000000000E+00 0.  1.
         -1    1    1    2    0  503 -0.93096516148E+00  0.23138768372E+02  0.20745108230E+03  0.20873960057E+03  0.00000000000E+00 0. -1.
<mgrwt>
<rscale>  2 0.23157489E+02</rscale>
<asrwt>0</asrwt>
<pdfrwt beam="1">  1       21 0.79953304E-01 0.23157489E+02</pdfrwt>
<pdfrwt beam="2">  1       21 0.16530970E-03 0.23157489E+02</pdfrwt>
<totfact> 0.62607323E+07</totfact>
</mgrwt>
</event>
<event>
 4    1  0.7616518E+004  0.2005067E+02  0.7546771E-02  0.1744322E+00
         21   -1    0    0  503  502  0.00000000000E+00  0.00000000000E+00  0.14258389301E+01  0.14258389301E+01  0.00000000000E+00 0.  1.
         21   -1    0    0  501  503 -0.00000000000E+00 -0.00000000000E+00 -0.28905147757E+03  0.28905147757E+03  0.00000000000E+00 0.  1.
          2    1    1    2  501    0  0.17224748541E+02 -0.10263399118E+02 -0.12106353474E+03  0.12271270825E+03  0.00000000000E+00 0. -1.
         -2    1    1    2    0  502 -0.17224748541E+02  0.10263399118E+02 -0.16656210390E+03  0.16776460825E+03  0.00000000000E+00 0.  1.
<mgrwt>
<rscale>  2 0.20050669E+02</rscale>
<asrwt>0</asrwt>
<pdfrwt beam="1">  1       21 0.21935984E-03 0.20050669E+02</pdfrwt>
<pdfrwt beam="2">  1       21 0.44469457E-01 0.20050669E+02</pdfrwt>
<totfact> 0.12928962E+08</totfact>
</mgrwt>
</event>
<event>
 4    1  0.7616518E+004  0.2588574E+02  0.7546771E-02  0.1648596E+00
         21   -1    0    0  503  502  0.00000000000E+00  0.00000000000E+00  0.23126583761E+03  0.23126583761E+03  0.00000000000E+00 0. -1.
         21   -1    0    0  501  503 -0.00000000000E+00 -0.00000000000E+00 -0.35879526701E+01  0.35879526701E+01  0.00000000000E+00 0. -1.
          2    1    1    2  501    0  0.18393028865E+02  0.18214501926E+02  0.16535468615E+03  0.16736858672E+03  0.00000000000E+00 0. -1.
         -2    1    1    2    0  502 -0.18393028865E+02 -0.18214501926E+02  0.62323198795E+02  0.67485203558E+02  0.00000000000E+00 0.  1.
<mgrwt>
<rscale>  2 0.25885741E+02</rscale>
<asrwt>0</asrwt>
<pdfrwt beam="1">  1       21 0.35579348E-01 0.25885741E+02</pdfrwt>
<pdfrwt beam="2">  1       21 0.55199290E-03 0.25885741E+02</pdfrwt>
<totfact> 0.54522403E+07</totfact>
</mgrwt>
</event>
<event>
 4    1  0.7616518E+004  0.3459068E+02  0.7546771E-02  0.1552266E+00
         21   -1    0    0  503  502  0.00000000000E+00  0.00000000000E+00  0.16274631762E+01  0.16274631762E+01  0.00000000000E+00 0.  1.
         21   -1    0    0  501  503 -0.00000000000E+00 -0.00000000000E+00 -0.74751568588E+03  0.74751568588E+03  0.00000000000E+00 0.  1.
          4    1    1    2  501    0  0.34579704303E+02 -0.87122485743E+00 -0.42101808540E+03  0.42243667361E+03  0.00000000000E+00 0. -1.
         -4    1    1    2    0  502 -0.34579704303E+02  0.87122485743E+00 -0.32487013731E+03  0.32670647544E+03  0.00000000000E+00 0.  1.
<mgrwt>
<rscale>  2 0.34590678E+02</rscale>
<asrwt>0</asrwt>
<pdfrwt beam="1">  1       21 0.25037928E-03 0.34590678E+02</pdfrwt>
<pdfrwt beam="2">  1       21 0.11500226E+00 0.34590678E+02</pdfrwt>
<totfact> 0.16600974E+07</totfact>
</mgrwt>
</event>
<event>
 4    1  0.7616518E+004  0.2356748E+02  0.7546771E-02  0.1682473E+00
         21   -1    0    0  501  502  0.00000000000E+00  0.00000000000E+00  0.38010687348E+01  0.38010687348E+01  0.00000000000E+00 0.  1.
         21   -1    0    0  502  503 -0.00000000000E+00 -0.00000000000E+00 -0.14614132047E+03  0.14614132047E+03  0.00000000000E+00 0.  1.
          3    1    1    2  501    0  0.11116164437E+02  0.20781165328E+02 -0.71995086381E+02  0.75754329296E+02  0.00000000000E+00 0. -1.
         -3    1    1    2    0  503 -0.11116164437E+02 -0.20781165328E+02 -0.70345165349E+02  0.74188059903E+02  0.00000000000E+00 0.  1.
<mgrwt>
<rscale>  2 0.23567476E+02</rscale>
<asrwt>0</asrwt>
<pdfrwt beam="1">  1       21 0.58477984E-03 0.23567476E+02</pdfrwt>
<pdfrwt beam="2">  1       21 0.22483279E-01 0.23567476E+02</pdfrwt>
<totfact> 0.11239303E+08</totfact>
</mgrwt>
</event>
<event>
 4    1  0.7616518E+004  0.2665619E+02  0.7546771E-02  0.1638293E+00
         21   -1    0    0  503  502  0.00000000000E+00  0.00000000000E+00  0.26210715382E+02  0.26210715382E+02  0.00000000000E+00 0. -1.
         21   -1    0    0  501  503 -0.00000000000E+00 -0.00000000000E+00 -0.28269622606E+02  0.28269622606E+02  0.00000000000E+00 0. -1.
          2    1    1    2  501    0  0.22835281900E+02  0.13751445198E+02 -0.65483473860E+01  0.27448737639E+02  0.00000000000E+00 0. -1.
         -2    1    1    2    0  502 -0.22835281900E+02 -0.13751445198E+02  0.44894401618E+01  0.27031600349E+02  0.00000000000E+00 0.  1.
<mgrwt>
<rscale>  2 0.26656188E+02</rscale>
<asrwt>0</asrwt>
<pdfrwt beam="1">  1       21 0.40324178E-02 0.26656188E+02</pdfrwt>
<pdfrwt beam="2">  1       21 0.43491727E-02 0.26656188E+02</pdfrwt>
<totfact> 0.93647228E+07</totfact>
</mgrwt>
</event>
<event>
 4    1  0.7616518E+004  0.2055539E+02  0.7546771E-02  0.1734504E+00
         21   -1    0    0  503  502  0.00000000000E+00  0.00000000000E+00  0.40049032310E+02  0.40049032310E+02  0.00000000000E+00 0.  1.
         21   -1    0    0  501  503 -0.00000000000E+00 -0.00000000000E+00 -0.12988267555E+02  0.12988267555E+02  0.00000000000E+00 0.  1.
          2    1    1    2  501    0 -0.20495343826E+02 -0.15699727177E+01  0.20408671128E+01  0.20656453506E+02  0.00000000000E+00 0.  1.
         -2    1    1    2    0  502  0.20495343826E+02  0.15699727177E+01  0.25019897642E+02  0.32380846359E+02  0.00000000000E+00 0. -1.
<mgrwt>
<rscale>  2 0.20555387E+02</rscale>
<asrwt>0</asrwt>
<pdfrwt beam="1">  1       21 0.61613896E-02 0.20555387E+02</pdfrwt>
<pdfrwt beam="2">  1       21 0.19981950E-02 0.20555387E+02</pdfrwt>
<totfact> 0.14855534E+08</totfact>
</mgrwt>
</event>
<event>
 4    1  0.7616518E+004  0.2607243E+02  0.7546771E-02  0.1646059E+00
         21   -1    0    0  501  502  0.00000000000E+00  0.00000000000E+00  0.71637842682E+00  0.71637842682E+00  0.00000000000E+00 0.  1.
         21   -1    0    0  502  503 -0.00000000000E+00 -0.00000000000E+00 -0.12221276929E+04  0.12221276929E+04  0.00000000000E+00 0.  1.
          3    1    1    2  501    0 -0.13761724402E+01 -0.26036086375E+02 -0.89980358558E+03  0.90018123967E+03  0.00000000000E+00 0. -1.
         -3    1    1    2    0  503  0.13761724402E+01  0.26036086375E+02 -0.32160772890E+03  0.32266283166E+03  0.00000000000E+00 0.  1.
<mgrwt>
<rscale>  2 0.26072431E+02</rscale>
<asrwt>0</asrwt>
<pdfrwt beam="1">  1       21 0.11021294E-03 0.26072431E+02</pdfrwt>
<pdfrwt beam="2">  1       21 0.18801816E+00 0.26072431E+02</pdfrwt>
<totfact> 0.16109924E+07</totfact>
</mgrwt>
</event>
<event>
 4    1  0.7616518E+004  0.2430864E+02  0.7546771E-02  0.1671135E+00
         21   -1    0    0  501  502  0.00000000000E+00  0.00000000000E+00  0.30123559053E+03  0.30123559053E+03  0.00000000000E+00 0. -1.
         21   -1    0    0  502  503 -0.00000000000E+00 -0.00000000000E+00 -0.19805106759E+01  0.19805106759E+01  0.00000000000E+00 0. -1.
          1    1    1    2  501    0  0.21587308542E+02 -0.11175788803E+02  0.16443370799E+03  0.16622080035E+03  0.00000000000E+00 0.  1.
         -1    1    1    2    0  503 -0.21587308542E+02  0.11175788803E+02  0.13482137186E+03  0.13699530085E+03  0.00000000000E+00 0. -1.
<mgrwt>
<rscale>  2 0.24308643E+02</rscale>
<asrwt>0</asrwt>
<pdfrwt beam="1">  1       21 0.46343901E-01 0.24308643E+02</pdfrwt>
<pdfrwt beam="2">  1       21 0.30469419E-03 0.24308643E+02</pdfrwt>
<totfact> 0.78079757E+07</totfact>
</mgrwt>
</event>
<event>
 4    1  0.7616518E+004  0.2028732E+02  0.7546771E-02  0.1739674E+00
         21   -1    0    0  501  502  0.00000000000E+00  0.00000000000E+00  0.16365683539E+03  0.16365683539E+03  0.00000000000E+00 0. -1.
         21   -1    0    0  502  503 -0.00000000000E+00 -0.00000000000E+00 -0.26864735144E+01  0.26864735144E+01  0.00000000000E+00 0. -1.
          3    1    1    2  501    0  0.16366703781E+02 -0.11987755560E+02  0.59464336401E+02  0.62829790543E+02  0.00000000000E+00 0.  1.
         -3    1    1    2    0  503 -0.16366703781E+02  0.11987755560E+02  0.10150602548E+03  0.10351351837E+03  0.00000000000E+00 0. -1.
<mgrwt>
<rscale>  2 0.20287318E+02</rscale>
<asrwt>0</asrwt>
<pdfrwt beam="1">  1       21 0.25177967E-01 0.20287318E+02</pdfrwt>
<pdfrwt beam="2">  1       21 0.41330375E-03 0.20287318E+02</pdfrwt>
<totfact> 0.14686403E+08</totfact>
</mgrwt>
</event>
<event>
 4    1  0.7616518E+004  0.4357827E+02  0.7546771E-02  0.1483418E+00
         21   -1    0    0  501  502  0.00000000000E+00  0.00000000000E+00  0.66495869772E+02  0.66495869772E+02  0.00000000000E+00 0. -1.
         21   -1    0    0  502  503 -0.00000000000E+00 -0.00000000000E+00 -0.28831264349E+02  0.28831264349E+02  0.00000000000E+00 0. -1.
          5    1    1    2  501    0 -0.41681097227E+02 -0.12718152437E+02  0.14201743522E+02  0.45833991606E+02  0.00000000000E+00 0.  1.
         -5    1    1    2    0  503  0.41681097227E+02  0.12718152437E+02  0.23462861901E+02  0.49493142516E+02  0.00000000000E+00 0. -1.
<mgrwt>
<rscale>  2 0.43578266E+02</rscale>
<asrwt>0</asrwt>
<pdfrwt beam="1">  1       21 0.10230134E-01 0.43578266E+02</pdfrwt>
<pdfrwt beam="2">  1       21 0.44355791E-02 0.43578266E+02</pdfrwt>
<totfact> 0.21863694E+07</totfact>
</mgrwt>
</event>
<event>
 4    1  0.7616518E+004  0.3422951E+02  0.7546771E-02  0.1555551E+00
         21   -1    0    0  503  502  0.00000000000E+00  0.00000000000E+00  0.29700363377E+02  0.29700363377E+02  0.00000000000E+00 0. -1.
         21   -1    0    0  501  503 -0.00000000000E+00 -0.00000000000E+00 -0.40092572053E+02  0.40092572053E+02  0.00000000000E+00 0. -1.
          2    1    1    2  501    0 -0.15709730878E+02 -0.30411576800E+02 -0.77598171023E+00  0.34238308885E+02  0.00000000000E+00 0.  1.
         -2    1    1    2    0  502  0.15709730878E+02  0.30411576800E+02 -0.96162269658E+01  0.35554626545E+02  0.00000000000E+00 0. -1.
<mgrwt>
<rscale>  2 0.34229514E+02</rscale>
<asrwt>0</asrwt>
<pdfrwt beam="1">  1       21 0.45692867E-02 0.34229514E+02</pdfrwt>
<pdfrwt beam="2">  1       21 0.61680880E-02 0.34229514E+02</pdfrwt>
<totfact> 0.46301126E+07</totfact>
</mgrwt>
</event>
<event>
 4    1  0.7616518E+004  0.3645228E+02  0.7546771E-02  0.1536070E+00
         21   -1    0    0  501  502  0.00000000000E+00  0.00000000000E+00  0.94960287426E+02  0.94960287426E+02  0.00000000000E+00 0. -1.
         21   -1    0    0  502  503 -0.00000000000E+00 -0.00000000000E+00 -0.14022397271E+02  0.14022397271E+02  0.00000000000E+00 0. -1.
          3    1    1    2  501    0  0.90255678052E+01 -0.35317244796E+02  0.37969195184E+02  0.52634859524E+02  0.00000000000E+00 0.  1.
         -3    1    1    2    0  503 -0.90255678052E+01  0.35317244796E+02  0.42968694971E+02  0.56347825173E+02  0.00000000000E+00 0. -1.
<mgrwt>
<rscale>  2 0.36452279E+02</rscale>
<asrwt>0</asrwt>
<pdfrwt beam="1">  1       21 0.14609275E-01 0.36452279E+02</pdfrwt>
<pdfrwt beam="2">  1       21 0.21572920E-02 0.36452279E+02</pdfrwt>
<totfact> 0.36238514E+07</totfact>
</mgrwt>
</event>
<event>
 4    1  0.7616518E+004  0.2331536E+02  0.7546771E-02  0.1686449E+00
         21   -1    0    0  503  502  0.00000000000E+00  0.00000000000E+00  0.15506780893E+03  0.15506780893E+03  0.00000000000E+00 0.  1.
         21   -1    0    0  501  503 -0.00000000000E+00 -0.00000000000E+00 -0.35549259046E+01  0.35549259046E+01  0.00000000000E+00 0.  1.
          1    1    1    2  501    0 -0.58188700105E+01  0.22577573163E+02  0.66414270023E+02  0.70387934483E+02  0.00000000000E+00 0.  1.
         -1    1    1    2    0  502  0.58188700105E+01 -0.22577573163E+02  0.85098613007E+02  0.88234800356E+02  0.00000000000E+00 0. -1.
<mgrwt>
<rscale>  2 0.23315361E+02</rscale>
<asrwt>0</asrwt>
<pdfrwt beam="1">  1       21 0.23856581E-01 0.23315361E+02</pdfrwt>
<pdfrwt beam="2">  1       21 0.54691180E-03 0.23315361E+02</pdfrwt>
<totfact> 0.11140256E+08</totfact>
</mgrwt>
</event>
<event>
 4    1  0.7616518E+004  0.2010017E+02  0.7546771E-02  0.1743343E+00
         21   -1    0    0  501  502  0.00000000000E+00  0.00000000000E+00  0.33292495353E+03  0.33292495353E+03  0.00000000000E+00 0. -1.
         21   -1    0    0  502  503 -0.00000000000E+00 -0.00000000000E+00 -0.12440435504E+01  0.12440435504E+01  0.00000000000E+00 0. -1.
          4    1    1    2  501    0  0.16590173403E+02  0.11348254194E+02  0.19200513331E+03  0.19305436525E+03  0.00000000000E+00 0. -1.
         -4    1    1    2    0  503 -0.16590173403E+02 -0.11348254194E+02  0.13967577667E+03  0.14111463182E+03  0.00000000000E+00 0.  1.
<mgrwt>
<rscale>  2 0.20100167E+02</rscale>
<asrwt>0</asrwt>
<pdfrwt beam="1">  1       21 0.51219153E-01 0.20100167E+02</pdfrwt>
<pdfrwt beam="2">  1       21 0.19139158E-03 0.20100167E+02</pdfrwt>
<totfact> 0.12002289E+08</totfact>
</mgrwt>
</event>
<event>
 4    1  0.7616518E+004  0.2055993E+02  0.7546771E-02  0.1734417E+00
         21   -1    0    0  503  502  0.00000000000E+00  0.00000000000E+00  0.11794976076E+03  0.11794976076E+03  0.00000000000E+00 0. -1.
         21   -1    0    0  501  503 -0.00000000000E+00 -0.00000000000E+00 -0.57067627905E+01  0.57067627905E+01  0.00000000000E+00 0. -1.
          2    1    1    2  501    0  0.16000739726E+01 -0.20497572668E+02  0.18411088222E+02  0.27598530604E+02  0.00000000000E+00 0.  1.
         -2    1    1    2    0  502 -0.16000739726E+01  0.20497572668E+02  0.93831909752E+02  0.96057992950E+02  0.00000000000E+00 0. -1.
<mgrwt>
<rscale>  2 0.20559930E+02</rscale>
<asrwt>0</asrwt>
<pdfrwt beam="1">  1       21 0.18146115E-01 0.20559930E+02</pdfrwt>
<pdfrwt beam="2">  1       21 0.87796359E-03 0.20559930E+02</pdfrwt>
<totfact> 0.85939859E+07</totfact>
</mgrwt>
</event>
<event>
 4    1  0.7616518E+004  0.2270272E+02  0.7546771E-02  0.1696375E+00
         21   -1    0    0  503  502  0.00000000000E+00  0.00000000000E+00  0.14903411607E+02  0.14903411607E+02  0.00000000000E+00 0. -1.
         21   -1    0    0  501  503 -0.00000000000E+00 -0.00000000000E+00 -0.35681235063E+02  0.35681235063E+02  0.00000000000E+00 0. -1.
          5    1    1    2  501    0  0.15495790451E+02  0.16591988511E+02 -0.14824978282E+02  0.27114453443E+02  0.00000000000E+00 0.  1.
         -5    1    1    2    0  502 -0.15495790451E+02 -0.16591988511E+02 -0.59528451739E+01  0.23470193227E+02  0.00000000000E+00 0. -1.
<mgrwt>
<rscale>  2 0.22702722E+02</rscale>
<asrwt>0</asrwt>
<pdfrwt beam="1">  1       21 0.22928326E-02 0.22702722E+02</pdfrwt>
<pdfrwt beam="2">  1       21 0.54894207E-02 0.22702722E+02</pdfrwt>
<totfact> 0.14917896E+08</totfact>
</mgrwt>
</event>
<event>
 4    1  0.7616518E+004  0.2857176E+02  0.7546771E-02  0.1614435E+00
         21   -1    0    0  503  502  0.00000000000E+00  0.00000000000E+00  0.22229996473E+03  0.22229996473E+03  0.00000000000E+00 0.  1.
         21   -1    0    0  501  503 -0.00000000000E+00 -0.00000000000E+00 -0.12066772382E+02  0.12066772382E+02  0.00000000000E+00 0.  1.
          4    1    1    2  501    0 -0.58825993549E+01  0.27959621606E+02  0.20285559925E+03  0.20485785209E+03  0.00000000000E+00 0. -1.
         -4    1    1    2    0  502  0.58825993549E+01 -0.27959621606E+02  0.73775931014E+01  0.29508885026E+02  0.00000000000E+00 0.  1.
<mgrwt>
<rscale>  2 0.28571759E+02</rscale>
<asrwt>0</asrwt>
<pdfrwt beam="1">  1       21 0.34199992E-01 0.28571759E+02</pdfrwt>
<pdfrwt beam="2">  1       21 0.18564267E-02 0.28571759E+02</pdfrwt>
<totfact> 0.95619840E+06</totfact>
</mgrwt>
</event>
<event>
 4    1  0.7616518E+004  0.2698331E+02  0.7546771E-02  0.1634047E+00
         21   -1    0    0  501  502  0.00000000000E+00  0.00000000000E+00  0.13344811477E+01  0.13344811477E+01  0.00000000000E+00 0.  1.
         21   -1    0    0  502  503 -0.00000000000E+00 -0.00000000000E+00 -0.11855415533E+04  0.11855415533E+04  0.00000000000E+00 0.  1.
          2    1    1    2  501    0  0.22436242070E+02 -0.14990473880E+02 -0.15610451394E+03  0.15841943863E+03  0.00000000000E+00 0. -1.
         -2    1    1    2    0  503 -0.22436242070E+02  0.14990473880E+02 -0.10281025583E+04  0.10284565959E+04  0.00000000000E+00 0.  1.
<mgrwt>
<rscale>  2 0.26983315E+02</rscale>
<asrwt>0</asrwt>
<pdfrwt beam="1">  1       21 0.20530511E-03 0.26983315E+02</pdfrwt>
<pdfrwt beam="2">  1       21 0.18239072E+00 0.26983315E+02</pdfrwt>
<totfact> 0.71246419E+06</totfact>
</mgrwt>
</event>
<event>
 4    1  0.7616518E+004  0.3048130E+02  0.7546771E-02  0.1592829E+00
         21   -1    0    0  501  502  0.00000000000E+00  0.00000000000E+00  0.23532574808E+02  0.23532574808E+02  0.00000000000E+00 0. -1.
         21   -1    0    0  502  503 -0.00000000000E+00 -0.00000000000E+00 -0.11651264665E+03  0.11651264665E+03  0.00000000000E+00 0. -1.
          2    1    1    2  501    0  0.28302527088E+02  0.11317082474E+02  0.10445574742E+02  0.32221412554E+02  0.00000000000E+00 0. -1.
         -2    1    1    2    0  503 -0.28302527088E+02 -0.11317082474E+02 -0.10342564659E+03  0.10782380891E+03  0.00000000000E+00 0.  1.
<mgrwt>
<rscale>  2 0.30481296E+02</rscale>
<asrwt>0</asrwt>
<pdfrwt beam="1">  1       21 0.36203961E-02 0.30481296E+02</pdfrwt>
<pdfrwt beam="2">  1       21 0.17925022E-01 0.30481296E+02</pdfrwt>
<totfact> 0.10894069E+07</totfact>
</mgrwt>
</event>
<event>
 4    1  0.7616518E+004  0.2399420E+02  0.7546771E-02  0.1675883E+00
         21   -1    0    0  501  502  0.00000000000E+00  0.00000000000E+00  0.42225550244E+00  0.42225550244E+00  0.00000000000E+00 0.  1.
         21   -1    0    0  502  503 -0.00000000000E+00 -0.00000000000E+00 -0.18928295114E+04  0.18928295114E+04  0.00000000000E+00 0.  1.
          2    1    1    2  501    0  0.70874486405E+01 -0.22923560844E+02 -0.14468243336E+04  0.14470232804E+04  0.00000000000E+00 0. -1.
         -2    1    1    2    0  503 -0.70874486405E+01  0.22923560844E+02 -0.44558292227E+03  0.44622848652E+03  0.00000000000E+00 0.  1.
<mgrwt>
<rscale>  2 0.23994199E+02</rscale>
<asrwt>0</asrwt>
<pdfrwt beam="1">  1       21 0.64960633E-04 0.23994199E+02</pdfrwt>
<pdfrwt beam="2">  1       21 0.29121239E+00 0.23994199E+02</pdfrwt>
<totfact> 0.98949744E+06</totfact>
</mgrwt>
</event>
<event>
 4    1  0.7616518E+004  0.2173224E+02  0.7546771E-02  0.1712924E+00
         21   -1    0    0  503  502  0.00000000000E+00  0.00000000000E+00  0.34742003777E+01  0.34742003777E+01  0.00000000000E+00 0.  1.
         21   -1    0    0  501  503 -0.00000000000E+00 -0.00000000000E+00 -0.14076356151E+03  0.14076356151E+03  0.00000000000E+00 0.  1.
          3    1    1    2  501    0 -0.21541343290E+02  0.28741746955E+01 -0.55297489033E+02  0.59414666912E+02  0.00000000000E+00 0.  1.
         -3    1    1    2    0  502  0.21541343290E+02 -0.28741746955E+01 -0.81991872095E+02  0.84823094971E+02  0.00000000000E+00 0. -1.
<mgrwt>
<rscale>  2 0.21732242E+02</rscale>
<asrwt>0</asrwt>
<pdfrwt beam="1">  1       21 0.53449239E-03 0.21732242E+02</pdfrwt>
<pdfrwt beam="2">  1       21 0.21655932E-01 0.21732242E+02</pdfrwt>
<totfact> 0.13401416E+08</totfact>
</mgrwt>
</event>
<event>
 4    1  0.7616518E+004  0.2715174E+02  0.7546771E-02  0.1631890E+00
         21   -1    0    0  503  502  0.00000000000E+00  0.00000000000E+00  0.27697594946E+03  0.27697594946E+03  0.00000000000E+00 0. -1.
         21   -1    0    0  501  503 -0.00000000000E+00 -0.00000000000E+00 -0.39295994912E+01  0.39295994912E+01  0.00000000000E+00 0. -1.
          5    1    1    2  501    0  0.42412190739E+01  0.26818448478E+02  0.56741227923E+02  0.62902973413E+02  0.00000000000E+00 0. -1.
         -5    1    1    2    0  502 -0.42412190739E+01 -0.26818448478E+02  0.21630512205E+03  0.21800257554E+03  0.00000000000E+00 0.  1.
<mgrwt>
<rscale>  2 0.27151742E+02</rscale>
<asrwt>0</asrwt>
<pdfrwt beam="1">  1       21 0.42611669E-01 0.27151742E+02</pdfrwt>
<pdfrwt beam="2">  1       21 0.60455398E-03 0.27151742E+02</pdfrwt>
<totfact> 0.34222806E+07</totfact>
</mgrwt>
</event>
<event>
 4    1  0.7616518E+004  0.3378666E+02  0.7546771E-02  0.1559647E+00
         21   -1    0    0  501  502  0.00000000000E+00  0.00000000000E+00  0.66535963761E+02  0.66535963761E+02  0.00000000000E+00 0.  1.
         21   -1    0    0  502  503 -0.00000000000E+00 -0.00000000000E+00 -0.17159081500E+02  0.17159081500E+02  0.00000000000E+00 0.  1.
          4    1    1    2  501    0  0.13555237678E+02 -0.30948251217E+02  0.25179646276E+02  0.42137314918E+02  0.00000000000E+00 0. -1.
         -4    1    1    2    0  503 -0.13555237678E+02  0.30948251217E+02  0.24197235985E+02  0.41557730343E+02  0.00000000000E+00 0.  1.
<mgrwt>
<rscale>  2 0.33786665E+02</rscale>
<asrwt>0</asrwt>
<pdfrwt beam="1">  1       21 0.10236302E-01 0.33786665E+02</pdfrwt>
<pdfrwt beam="2">  1       21 0.26398587E-02 0.33786665E+02</pdfrwt>
<totfact> 0.47718037E+07</totfact>
</mgrwt>
</event>
<event>
 4    1  0.7616518E+004  0.2552194E+02  0.7546771E-02  0.1653616E+00
         21   -1    0    0  501  502  0.00000000000E+00  0.00000000000E+00  0.15856415680E+02  0.15856415680E+02  0.00000000000E+00 0.  1.
         21   -1    0    0  502  503 -0.00000000000E+00 -0.00000000000E+00 -0.42883071235E+02  0.42883071235E+02  0.00000000000E+00 0.  1.
          1    1    1    2  501    0  0.87340726474E-01  0.25521787288E+02 -0.74897147301E+01  0.26598215758E+02  0.00000000000E+00 0.  1.
         -1    1    1    2    0  503 -0.87340726474E-01 -0.25521787288E+02 -0.19536940825E+02  0.32141271157E+02  0.00000000000E+00 0. -1.
<mgrwt>
<rscale>  2 0.25521937E+02</rscale>
<asrwt>0</asrwt>
<pdfrwt beam="1">  1       21 0.24394486E-02 0.25521937E+02</pdfrwt>
<pdfrwt beam="2">  1       21 0.65973955E-02 0.25521937E+02</pdfrwt>
<totfact> 0.10427411E+08</totfact>
</mgrwt>
</event>
<event>
 4    1  0.7616518E+004  0.2628725E+02  0.7546771E-02  0.1643172E+00
         21   -1    0    0  503  502  0.00000000000E+00  0.00000000000E+00  0.10335636271E+02  0.10335636271E+02  0.00000000000E+00 0. -1.
         21   -1    0    0  501  503 -0.00000000000E+00 -0.00000000000E+00 -0.67114254381E+02  0.67114254381E+02  0.00000000000E+00 0. -1.
          5    1    1    2  501    0 -0.25418543366E+02 -0.67020395971E+01 -0.30782309095E+02  0.40479256846E+02  0.00000000000E+00 0. -1.
         -5    1    1    2    0  502  0.25418543366E+02  0.67020395971E+01 -0.25996309015E+02  0.36970633806E+02  0.00000000000E+00 0.  1.
<mgrwt>
<rscale>  2 0.26287253E+02</rscale>
<asrwt>0</asrwt>
<pdfrwt beam="1">  1       21 0.15900978E-02 0.26287253E+02</pdfrwt>
<pdfrwt beam="2">  1       21 0.10325270E-01 0.26287253E+02</pdfrwt>
<totfact> 0.97329842E+07</totfact>
</mgrwt>
</event>
<event>
 4    1  0.7616518E+004  0.2523355E+02  0.7546771E-02  0.1657670E+00
         21   -1    0    0  503  502  0.00000000000E+00  0.00000000000E+00  0.34945623724E+02  0.34945623724E+02  0.00000000000E+00 0. -1.
         21   -1    0    0  501  503 -0.00000000000E+00 -0.00000000000E+00 -0.18999263796E+02  0.18999263796E+02  0.00000000000E+00 0. -1.
          4    1    1    2  501    0 -0.21698992191E+02  0.12879659217E+02  0.13433444926E+02  0.28586523507E+02  0.00000000000E+00 0. -1.
         -4    1    1    2    0  502  0.21698992191E+02 -0.12879659217E+02  0.25129150018E+01  0.25358364013E+02  0.00000000000E+00 0.  1.
<mgrwt>
<rscale>  2 0.25233547E+02</rscale>
<asrwt>0</asrwt>
<pdfrwt beam="1">  1       21 0.53762498E-02 0.25233547E+02</pdfrwt>
<pdfrwt beam="2">  1       21 0.29229637E-02 0.25233547E+02</pdfrwt>
<totfact> 0.10913444E+08</totfact>
</mgrwt>
</event>
<event>
 4    1  0.7616518E+004  0.5499600E+02  0.7546771E-02  0.1420118E+00
         21   -1    0    0  503  502  0.00000000000E+00  0.00000000000E+00  0.28696098753E+01  0.28696098753E+01  0.00000000000E+00 0.  1.
         21   -1    0    0  501  503 -0.00000000000E+00 -0.00000000000E+00 -0.25047985782E+04  0.25047985782E+04  0.00000000000E+00 0.  1.
          3    1    1    2  501    0 -0.44856486008E+02  0.31819113991E+02 -0.29672436296E+03  0.30177791160E+03  0.00000000000E+00 0. -1.
         -3    1    1    2    0  502  0.44856486008E+02 -0.31819113991E+02 -0.22052046054E+04  0.22058902765E+04  0.00000000000E+00 0.  1.
<mgrwt>
<rscale>  2 0.54996003E+02</rscale>
<asrwt>0</asrwt>
<pdfrwt beam="1">  1       21 0.44147880E-03 0.54996003E+02</pdfrwt>
<pdfrwt beam="2">  1       21 0.38535331E+00 0.54996003E+02</pdfrwt>
<totfact> 0.18196372E+05</totfact>
</mgrwt>
</event>
<event>
 4    1  0.7616518E+004  0.2231858E+02  0.7546771E-02  0.1702800E+00
         21   -1    0    0  501  502  0.00000000000E+00  0.00000000000E+00  0.36013642959E+01  0.36013642959E+01  0.00000000000E+00 0.  1.
         21   -1    0    0  502  503 -0.00000000000E+00 -0.00000000000E+00 -0.14061571522E+03  0.14061571522E+03  0.00000000000E+00 0.  1.
          5    1    1    2  501    0  0.10245831695E+02 -0.19827804811E+02 -0.59281449393E+02  0.63343580203E+02  0.00000000000E+00 0. -1.
         -5    1    1    2    0  503 -0.10245831695E+02  0.19827804811E+02 -0.77732901530E+02  0.80873499312E+02  0.00000000000E+00 0.  1.
<mgrwt>
<rscale>  2 0.22318578E+02</rscale>
<asrwt>0</asrwt>
<pdfrwt beam="1">  1       21 0.55405599E-03 0.22318578E+02</pdfrwt>
<pdfrwt beam="2">  1       21 0.21633189E-01 0.22318578E+02</pdfrwt>
<totfact> 0.12830325E+08</totfact>
</mgrwt>
</event>
<event>
 4    1  0.7616518E+004  0.4353431E+02  0.7546771E-02  0.1483705E+00
         21   -1    0    0  501  502  0.00000000000E+00  0.00000000000E+00  0.42484523764E+03  0.42484523764E+03  0.00000000000E+00 0.  1.
         21   -1    0    0  502  503 -0.00000000000E+00 -0.00000000000E+00 -0.45622757251E+01  0.45622757251E+01  0.00000000000E+00 0.  1.
          5    1    1    2  501    0 -0.41530132290E+02 -0.13056960972E+02  0.24212998459E+03  0.24601253130E+03  0.00000000000E+00 0. -1.
         -5    1    1    2    0  503  0.41530132290E+02  0.13056960972E+02  0.17815297733E+03  0.18339498207E+03  0.00000000000E+00 0.  1.
<mgrwt>
<rscale>  2 0.43534310E+02</rscale>
<asrwt>0</asrwt>
<pdfrwt beam="1">  1       21 0.65360775E-01 0.43534310E+02</pdfrwt>
<pdfrwt beam="2">  1       21 0.70188891E-03 0.43534310E+02</pdfrwt>
<totfact> 0.12574015E+07</totfact>
</mgrwt>
</event>
<event>
 4    1  0.7616518E+004  0.2983268E+02  0.7546771E-02  0.1599946E+00
         21   -1    0    0  501  502  0.00000000000E+00  0.00000000000E+00  0.30593014157E+01  0.30593014157E+01  0.00000000000E+00 0. -1.
         21   -1    0    0  502  503 -0.00000000000E+00 -0.00000000000E+00 -0.29156885143E+03  0.29156885143E+03  0.00000000000E+00 0. -1.
          1    1    1    2  501    0 -0.24137470710E+02 -0.17532000422E+02 -0.13726448647E+03  0.14046895663E+03  0.00000000000E+00 0. -1.
         -1    1    1    2    0  503  0.24137470710E+02  0.17532000422E+02 -0.15124506354E+03  0.15415919621E+03  0.00000000000E+00 0.  1.
<mgrwt>
<rscale>  2 0.29832676E+02</rscale>
<asrwt>0</asrwt>
<pdfrwt beam="1">  1       21 0.47066175E-03 0.29832676E+02</pdfrwt>
<pdfrwt beam="2">  1       21 0.44856747E-01 0.29832676E+02</pdfrwt>
<totfact> 0.45868629E+07</totfact>
</mgrwt>
</event>
<event>
 4    1  0.7616518E+004  0.3987451E+02  0.7546771E-02  0.1509137E+00
         21   -1    0    0  501  502  0.00000000000E+00  0.00000000000E+00  0.20544122793E+02  0.20544122793E+02  0.00000000000E+00 0. -1.
         21   -1    0    0  502  503 -0.00000000000E+00 -0.00000000000E+00 -0.77460064151E+02  0.77460064151E+02  0.00000000000E+00 0. -1.
          2    1    1    2  501    0 -0.37035565413E+02  0.14776445366E+02 -0.29897127352E+02  0.49837883853E+02  0.00000000000E+00 0. -1.
         -2    1    1    2    0  503  0.37035565413E+02 -0.14776445366E+02 -0.27018814006E+02  0.48166303091E+02  0.00000000000E+00 0.  1.
<mgrwt>
<rscale>  2 0.39874509E+02</rscale>
<asrwt>0</asrwt>
<pdfrwt beam="1">  1       21 0.31606343E-02 0.39874509E+02</pdfrwt>
<pdfrwt beam="2">  1       21 0.11916933E-01 0.39874509E+02</pdfrwt>
<totfact> 0.28619724E+07</totfact>
</mgrwt>
</event>
<event>
 4    1  0.7616518E+004  0.2286933E+02  0.7546771E-02  0.1693637E+00
         21   -1    0    0  503  502  0.00000000000E+00  0.00000000000E+00  0.12009173593E+03  0.12009173593E+03  0.00000000000E+00 0.  1.
         21   -1    0    0  501  503 -0.00000000000E+00 -0.00000000000E+00 -0.48595165659E+01  0.48595165659E+01  0.00000000000E+00 0.  1.
          5    1    1    2  501    0 -0.19443174427E+02  0.12040308633E+02  0.77745392890E+02  0.81039201497E+02  0.00000000000E+00 0. -1.
         -5    1    1    2    0  502  0.19443174427E+02 -0.12040308633E+02  0.37486826476E+02  0.43912051000E+02  0.00000000000E+00 0.  1.
<mgrwt>
<rscale>  2 0.22869326E+02</rscale>
<asrwt>0</asrwt>
<pdfrwt beam="1">  1       21 0.18475649E-01 0.22869326E+02</pdfrwt>
<pdfrwt beam="2">  1       21 0.74761802E-03 0.22869326E+02</pdfrwt>
<totfact> 0.10906412E+08</totfact>
</mgrwt>
</event>
<event>
 4    1  0.7616518E+004  0.2087393E+02  0.7546771E-02  0.1728487E+00
         21   -1    0    0  503  502  0.00000000000E+00  0.00000000000E+00  0.10050639036E+02  0.10050639036E+02  0.00000000000E+00 0. -1.
         21   -1    0    0  501  503 -0.00000000000E+00 -0.00000000000E+00 -0.58314250566E+02  0.58314250566E+02  0.00000000000E+00 0. -1.
          2    1    1    2  501    0 -0.11655155755E+02  0.17316997090E+02 -0.41446145880E+02  0.46405862261E+02  0.00000000000E+00 0. -1.
         -2    1    1    2    0  502  0.11655155755E+02 -0.17316997090E+02 -0.68174656507E+01  0.21959027341E+02  0.00000000000E+00 0.  1.
<mgrwt>
<rscale>  2 0.20873932E+02</rscale>
<asrwt>0</asrwt>
<pdfrwt beam="1">  1       21 0.15462522E-02 0.20873932E+02</pdfrwt>
<pdfrwt beam="2">  1       21 0.89714230E-02 0.20873932E+02</pdfrwt>
<totfact> 0.12004261E+08</totfact>
</mgrwt>
</event>
<event>
 4    1  0.7616518E+004  0.2216336E+02  0.7546771E-02  0.1705442E+00
         21   -1    0    0  503  502  0.00000000000E+00  0.00000000000E+00  0.10037278747E+04  0.10037278747E+04  0.00000000000E+00 0.  1.
         21   -1    0    0  501  503 -0.00000000000E+00 -0.00000000000E+00 -0.50545125881E+00  0.50545125881E+00  0.00000000000E+00 0.  1.
          3    1    1    2  501    0 -0.20816160697E+02  0.76093485663E+01  0.59111679081E+03  0.59153214208E+03  0.00000000000E+00 0.  1.
         -3    1    1    2    0  502  0.20816160697E+02 -0.76093485663E+01  0.41210563268E+03  0.41270118393E+03  0.00000000000E+00 0. -1.
<mgrwt>
<rscale>  2 0.22163365E+02</rscale>
<asrwt>0</asrwt>
<pdfrwt beam="1">  1       21 0.15441808E+00 0.22163365E+02</pdfrwt>
<pdfrwt beam="2">  1       21 0.77762535E-04 0.22163365E+02</pdfrwt>
<totfact> 0.41850100E+07</totfact>
</mgrwt>
</event>
<event>
 4    1  0.7616518E+004  0.2300425E+02  0.7546771E-02  0.1691441E+00
         21   -1    0    0  501  502  0.00000000000E+00  0.00000000000E+00  0.12779203742E+01  0.12779203742E+01  0.00000000000E+00 0.  1.
         21   -1    0    0  502  503 -0.00000000000E+00 -0.00000000000E+00 -0.41483025324E+03  0.41483025324E+03  0.00000000000E+00 0.  1.
          1    1    1    2  501    0 -0.13788440624E+01  0.22962889400E+02 -0.21546477217E+03  0.21668932495E+03  0.00000000000E+00 0. -1.
         -1    1    1    2    0  503  0.13788440624E+01 -0.22962889400E+02 -0.19808756070E+03  0.19941884867E+03  0.00000000000E+00 0.  1.
<mgrwt>
<rscale>  2 0.23004250E+02</rscale>
<asrwt>0</asrwt>
<pdfrwt beam="1">  1       21 0.19660330E-03 0.23004250E+02</pdfrwt>
<pdfrwt beam="2">  1       21 0.63819985E-01 0.23004250E+02</pdfrwt>
<totfact> 0.77425442E+07</totfact>
</mgrwt>
</event>
<event>
 4    1  0.7616518E+004  0.2547572E+02  0.7546771E-02  0.1654261E+00
         21   -1    0    0  501  502  0.00000000000E+00  0.00000000000E+00  0.19545819125E+03  0.19545819125E+03  0.00000000000E+00 0. -1.
         21   -1    0    0  502  503 -0.00000000000E+00 -0.00000000000E+00 -0.34166045904E+01  0.34166045904E+01  0.00000000000E+00 0. -1.
          4    1    1    2  501    0  0.17167735932E+02  0.18822363379E+02  0.11270088650E+03  0.11554437389E+03  0.00000000000E+00 0.  1.
         -4    1    1    2    0  503 -0.17167735932E+02 -0.18822363379E+02  0.79340700155E+02  0.83330421943E+02  0.00000000000E+00 0. -1.
<mgrwt>
<rscale>  2 0.25475724E+02</rscale>
<asrwt>0</asrwt>
<pdfrwt beam="1">  1       21 0.30070482E-01 0.25475724E+02</pdfrwt>
<pdfrwt beam="2">  1       21 0.52563163E-03 0.25475724E+02</pdfrwt>
<totfact> 0.79678395E+07</totfact>
</mgrwt>
</event>
<event>
 4    1  0.7616518E+004  0.2237328E+02  0.7546771E-02  0.1701875E+00
         21   -1    0    0  501  502  0.00000000000E+00  0.00000000000E+00  0.10682060504E+02  0.10682060504E+02  0.00000000000E+00 0. -1.
         21   -1    0    0  502  503 -0.00000000000E+00 -0.00000000000E+00 -0.71736502644E+02  0.71736502644E+02  0.00000000000E+00 0. -1.
          1    1    1    2  501    0 -0.18833204040E+02 -0.12077839728E+02 -0.62601356993E+01  0.23232586724E+02  0.00000000000E+00 0.  1.
         -1    1    1    2    0  503  0.18833204040E+02  0.12077839728E+02 -0.54794306440E+02  0.59185976423E+02  0.00000000000E+00 0. -1.
<mgrwt>
<rscale>  2 0.22373283E+02</rscale>
<asrwt>0</asrwt>
<pdfrwt beam="1">  1       21 0.16433939E-02 0.22373283E+02</pdfrwt>
<pdfrwt beam="2">  1       21 0.11036385E-01 0.22373283E+02</pdfrwt>
<totfact> 0.79323948E+07</totfact>
</mgrwt>
</event>
<event>
 4    1  0.7616518E+004  0.2059942E+02  0.7546771E-02  0.1733664E+00
         21   -1    0    0  503  502  0.00000000000E+00  0.00000000000E+00  0.53871139103E+03  0.53871139103E+03  0.00000000000E+00 0.  1.
         21   -1    0    0  501  503 -0.00000000000E+00 -0.00000000000E+00 -0.92479911413E+00  0.92479911413E+00  0.00000000000E+00 0.  1.
          4    1    1    2  501    0  0.20549445666E+02  0.14339795625E+01  0.37278601700E+03  0.37335472474E+03  0.00000000000E+00 0. -1.
         -4    1    1    2    0  502 -0.20549445666E+02 -0.14339795625E+01  0.16500057491E+03  0.16628146540E+03  0.00000000000E+00 0.  1.
<mgrwt>
<rscale>  2 0.20599418E+02</rscale>
<asrwt>0</asrwt>
<pdfrwt beam="1">  1       21 0.82878425E-01 0.20599418E+02</pdfrwt>
<pdfrwt beam="2">  1       21 0.14227722E-03 0.20599418E+02</pdfrwt>
<totfact> 0.69995463E+07</totfact>
</mgrwt>
</event>
<event>
 4    1  0.7616518E+004  0.2929866E+02  0.7546771E-02  0.1605973E+00
         21   -1    0    0  501  502  0.00000000000E+00  0.00000000000E+00  0.14979520978E+03  0.14979520978E+03  0.00000000000E+00 0.  1.
         21   -1    0    0  502  503 -0.00000000000E+00 -0.00000000000E+00 -0.61151463303E+01  0.61151463303E+01  0.00000000000E+00 0.  1.
          3    1    1    2  501    0  0.53367483623E+01  0.28808515763E+02  0.91389484022E+02  0.95971085507E+02  0.00000000000E+00 0. -1.
         -3    1    1    2    0  503 -0.53367483623E+01 -0.28808515763E+02  0.52290579425E+02  0.59939270601E+02  0.00000000000E+00 0.  1.
<mgrwt>
<rscale>  2 0.29298660E+02</rscale>
<asrwt>0</asrwt>
<pdfrwt beam="1">  1       21 0.23045414E-01 0.29298660E+02</pdfrwt>
<pdfrwt beam="2">  1       21 0.94079186E-03 0.29298660E+02</pdfrwt>
<totfact> 0.55708950E+07</totfact>
</mgrwt>
</event>
<event>
 4    1  0.7616518E+004  0.2303523E+02  0.7546771E-02  0.1690940E+00
         21   -1    0    0  501  502  0.00000000000E+00  0.00000000000E+00  0.27078286375E+01  0.27078286375E+01  0.00000000000E+00 0.  1.
         21   -1    0    0  502  503 -0.00000000000E+00 -0.00000000000E+00 -0.20173713646E+03  0.20173713646E+03  0.00000000000E+00 0.  1.
          1    1    1    2  501    0 -0.22639304535E+02 -0.42525008645E+01 -0.82213762942E+02  0.85379884577E+02  0.00000000000E+00 0.  1.
         -1    1    1    2    0  503  0.22639304535E+02  0.42525008645E+01 -0.11681554488E+03  0.11906508052E+03  0.00000000000E+00 0. -1.
<mgrwt>
<rscale>  2 0.23035231E+02</rscale>
<asrwt>0</asrwt>
<pdfrwt beam="1">  1       21 0.41658892E-03 0.23035231E+02</pdfrwt>
<pdfrwt beam="2">  1       21 0.31036490E-01 0.23035231E+02</pdfrwt>
<totfact> 0.10326865E+08</totfact>
</mgrwt>
</event>
<event>
 4    1  0.7616518E+004  0.2266018E+02  0.7546771E-02  0.1697078E+00
         21   -1    0    0  501  502  0.00000000000E+00  0.00000000000E+00  0.18941846877E+03  0.18941846877E+03  0.00000000000E+00 0.  1.
         21   -1    0    0  502  503 -0.00000000000E+00 -0.00000000000E+00 -0.34314183412E+01  0.34314183412E+01  0.00000000000E+00 0.  1.
          5    1    1    2  501    0 -0.17275035372E+02  0.14664813766E+02  0.48806735658E+02  0.53810603560E+02  0.00000000000E+00 0.  1.
         -5    1    1    2    0  503  0.17275035372E+02 -0.14664813766E+02  0.13718031477E+03  0.13903928355E+03  0.00000000000E+00 0. -1.
<mgrwt>
<rscale>  2 0.22660177E+02</rscale>
<asrwt>0</asrwt>
<pdfrwt beam="1">  1       21 0.29141295E-01 0.22660177E+02</pdfrwt>
<pdfrwt beam="2">  1       21 0.52791066E-03 0.22660177E+02</pdfrwt>
<totfact> 0.81360631E+07</totfact>
</mgrwt>
</event>
<event>
 4    1  0.7616518E+004  0.2240352E+02  0.7546771E-02  0.1701365E+00
         21   -1    0    0  501  502  0.00000000000E+00  0.00000000000E+00  0.11494941933E+03  0.11494941933E+03  0.00000000000E+00 0. -1.
         21   -1    0    0  502  503 -0.00000000000E+00 -0.00000000000E+00 -0.45165935228E+01  0.45165935228E+01  0.00000000000E+00 0. -1.
          3    1    1    2  501    0  0.22044708973E+02 -0.39935722664E+01  0.66108244167E+02  0.69801273341E+02  0.00000000000E+00 0. -1.
         -3    1    1    2    0  503 -0.22044708973E+02  0.39935722664E+01  0.44324581636E+02  0.49664739508E+02  0.00000000000E+00 0.  1.
<mgrwt>
<rscale>  2 0.22403522E+02</rscale>
<asrwt>0</asrwt>
<pdfrwt beam="1">  1       21 0.17684524E-01 0.22403522E+02</pdfrwt>
<pdfrwt beam="2">  1       21 0.69486063E-03 0.22403522E+02</pdfrwt>
<totfact> 0.13039341E+08</totfact>
</mgrwt>
</event>
<event>
 4    1  0.7616518E+004  0.2562261E+02  0.7546771E-02  0.1652217E+00
         21   -1    0    0  501  502  0.00000000000E+00  0.00000000000E+00  0.20080213791E+01  0.20080213791E+01  0.00000000000E+00 0. -1.
         21   -1    0    0  502  503 -0.00000000000E+00 -0.00000000000E+00 -0.33486431748E+03  0.33486431748E+03  0.00000000000E+00 0. -1.
          5    1    1    2  501    0  0.73660642252E+01  0.24540969677E+02 -0.14052997880E+03  0.14284674668E+03  0.00000000000E+00 0.  1.
         -5    1    1    2    0  503 -0.73660642252E+01 -0.24540969677E+02 -0.19232631730E+03  0.19402559218E+03  0.00000000000E+00 0. -1.
<mgrwt>
<rscale>  2 0.25622609E+02</rscale>
<asrwt>0</asrwt>
<pdfrwt beam="1">  1       21 0.30892651E-03 0.25622609E+02</pdfrwt>
<pdfrwt beam="2">  1       21 0.51517563E-01 0.25622609E+02</pdfrwt>
<totfact> 0.63058187E+07</totfact>
</mgrwt>
</event>
<event>
 4    1  0.7616518E+004  0.3666805E+02  0.7546771E-02  0.1534268E+00
         21   -1    0    0  501  502  0.00000000000E+00  0.00000000000E+00  0.56331554359E+02  0.56331554359E+02  0.00000000000E+00 0. -1.
         21   -1    0    0  502  503 -0.00000000000E+00 -0.00000000000E+00 -0.25443592658E+02  0.25443592658E+02  0.00000000000E+00 0. -1.
          5    1    1    2  501    0  0.32559248527E+02  0.16865378863E+02  0.52706058658E+01  0.37044904576E+02  0.00000000000E+00 0.  1.
         -5    1    1    2    0  503 -0.32559248527E+02 -0.16865378863E+02  0.25617355835E+02  0.44730242441E+02  0.00000000000E+00 0. -1.
<mgrwt>
<rscale>  2 0.36668047E+02</rscale>
<asrwt>0</asrwt>
<pdfrwt beam="1">  1       21 0.86663929E-02 0.36668047E+02</pdfrwt>
<pdfrwt beam="2">  1       21 0.39143989E-02 0.36668047E+02</pdfrwt>
<totfact> 0.34318860E+07</totfact>
</mgrwt>
</event>
<event>
 4    1  0.7616518E+004  0.2164231E+02  0.7546771E-02  0.1714512E+00
         21   -1    0    0  503  502  0.00000000000E+00  0.00000000000E+00  0.53110235612E+02  0.53110235612E+02  0.00000000000E+00 0. -1.
         21   -1    0    0  501  503 -0.00000000000E+00 -0.00000000000E+00 -0.88966356309E+01  0.88966356309E+01  0.00000000000E+00 0. -1.
          1    1    1    2  501    0 -0.13664329004E+02 -0.16783200889E+02  0.19214315264E+02  0.28940968026E+02  0.00000000000E+00 0.  1.
         -1    1    1    2    0  502  0.13664329004E+02  0.16783200889E+02  0.24999284717E+02  0.33065903217E+02  0.00000000000E+00 0. -1.
<mgrwt>
<rscale>  2 0.21642313E+02</rscale>
<asrwt>0</asrwt>
<pdfrwt beam="1">  1       21 0.81708053E-02 0.21642313E+02</pdfrwt>
<pdfrwt beam="2">  1       21 0.13687132E-02 0.21642313E+02</pdfrwt>
<totfact> 0.17005952E+08</totfact>
</mgrwt>
</event>
<event>
 4    1  0.7616518E+004  0.2443137E+02  0.7546771E-02  0.1669306E+00
         21   -1    0    0  503  502  0.00000000000E+00  0.00000000000E+00  0.35674798483E+01  0.35674798483E+01  0.00000000000E+00 0.  1.
         21   -1    0    0  501  503 -0.00000000000E+00 -0.00000000000E+00 -0.17641400050E+03  0.17641400050E+03  0.00000000000E+00 0.  1.
          4    1    1    2  501    0  0.11668066100E+02 -0.21465041391E+02 -0.65985389386E+02  0.70363082514E+02  0.00000000000E+00 0. -1.
         -4    1    1    2    0  502 -0.11668066100E+02  0.21465041391E+02 -0.10686113126E+03  0.10961839783E+03  0.00000000000E+00 0.  1.
<mgrwt>
<rscale>  2 0.24431369E+02</rscale>
<asrwt>0</asrwt>
<pdfrwt beam="1">  1       21 0.54884314E-03 0.24431369E+02</pdfrwt>
<pdfrwt beam="2">  1       21 0.27140611E-01 0.24431369E+02</pdfrwt>
<totfact> 0.89103050E+07</totfact>
</mgrwt>
</event>
<event>
 4    1  0.7616518E+004  0.2040453E+02  0.7546771E-02  0.1737401E+00
         21   -1    0    0  501  502  0.00000000000E+00  0.00000000000E+00  0.16113385157E+01  0.16113385157E+01  0.00000000000E+00 0. -1.
         21   -1    0    0  502  503 -0.00000000000E+00 -0.00000000000E+00 -0.27056178319E+03  0.27056178319E+03  0.00000000000E+00 0. -1.
          5    1    1    2  501    0  0.84161247755E+01 -0.18587994342E+02 -0.16334606794E+03  0.16461556002E+03  0.00000000000E+00 0. -1.
         -5    1    1    2    0  503 -0.84161247755E+01  0.18587994342E+02 -0.10560437673E+03  0.10755756168E+03  0.00000000000E+00 0.  1.
<mgrwt>
<rscale>  2 0.20404526E+02</rscale>
<asrwt>0</asrwt>
<pdfrwt beam="1">  1       21 0.24789838E-03 0.20404526E+02</pdfrwt>
<pdfrwt beam="2">  1       21 0.41624865E-01 0.20404526E+02</pdfrwt>
<totfact> 0.12344042E+08</totfact>
</mgrwt>
</event>
<event>
 4    1  0.7616518E+004  0.2588894E+02  0.7546771E-02  0.1648553E+00
         21   -1    0    0  501  502  0.00000000000E+00  0.00000000000E+00  0.36057475849E+03  0.36057475849E+03  0.00000000000E+00 0.  1.
         21   -1    0    0  502  503 -0.00000000000E+00 -0.00000000000E+00 -0.18772850483E+01  0.18772850483E+01  0.00000000000E+00 0.  1.
          1    1    1    2  501    0  0.22154367516E+02 -0.13394820965E+02  0.19733071517E+03  0.19902172841E+03  0.00000000000E+00 0. -1.
         -1    1    1    2    0  503 -0.22154367516E+02  0.13394820965E+02  0.16136675828E+03  0.16343031513E+03  0.00000000000E+00 0.  1.
<mgrwt>
<rscale>  2 0.25888940E+02</rscale>
<asrwt>0</asrwt>
<pdfrwt beam="1">  1       21 0.55472985E-01 0.25888940E+02</pdfrwt>
<pdfrwt beam="2">  1       21 0.28881337E-03 0.25888940E+02</pdfrwt>
<totfact> 0.60273911E+07</totfact>
</mgrwt>
</event>
<event>
 4    1  0.7616518E+004  0.2018040E+02  0.7546771E-02  0.1741764E+00
         21   -1    0    0  501  502  0.00000000000E+00  0.00000000000E+00  0.16631783777E+03  0.16631783777E+03  0.00000000000E+00 0. -1.
         21   -1    0    0  502  503 -0.00000000000E+00 -0.00000000000E+00 -0.27082630110E+01  0.27082630110E+01  0.00000000000E+00 0. -1.
          1    1    1    2  501    0  0.19334563410E+02  0.57812793279E+01  0.55636822394E+02  0.59183650943E+02  0.00000000000E+00 0.  1.
         -1    1    1    2    0  503 -0.19334563410E+02 -0.57812793279E+01  0.10797275236E+03  0.10984244983E+03  0.00000000000E+00 0. -1.
<mgrwt>
<rscale>  2 0.20180400E+02</rscale>
<asrwt>0</asrwt>
<pdfrwt beam="1">  1       21 0.25587352E-01 0.20180400E+02</pdfrwt>
<pdfrwt beam="2">  1       21 0.41665598E-03 0.20180400E+02</pdfrwt>
<totfact> 0.14081700E+08</totfact>
</mgrwt>
</event>
<event>
 4    1  0.7616518E+004  0.2674097E+02  0.7546771E-02  0.1637185E+00
         21   -1    0    0  503  502  0.00000000000E+00  0.00000000000E+00  0.33005861778E+02  0.33005861778E+02  0.00000000000E+00 0. -1.
         21   -1    0    0  501  503 -0.00000000000E+00 -0.00000000000E+00 -0.33483485660E+02  0.33483485660E+02  0.00000000000E+00 0. -1.
          1    1    1    2  501    0  0.21957345269E+02  0.15262842409E+02 -0.19989560268E+02  0.33386552523E+02  0.00000000000E+00 0.  1.
         -1    1    1    2    0  502 -0.21957345269E+02 -0.15262842409E+02  0.19511936386E+02  0.33102794915E+02  0.00000000000E+00 0. -1.
<mgrwt>
<rscale>  2 0.26740968E+02</rscale>
<asrwt>0</asrwt>
<pdfrwt beam="1">  1       21 0.50778249E-02 0.26740968E+02</pdfrwt>
<pdfrwt beam="2">  1       21 0.51513054E-02 0.26740968E+02</pdfrwt>
<totfact> 0.49530422E+07</totfact>
</mgrwt>
</event>
<event>
 4    1  0.7616518E+004  0.2147124E+02  0.7546771E-02  0.1717560E+00
         21   -1    0    0  503  502  0.00000000000E+00  0.00000000000E+00  0.49074482136E+02  0.49074482136E+02  0.00000000000E+00 0.  1.
         21   -1    0    0  501  503 -0.00000000000E+00 -0.00000000000E+00 -0.12827521014E+02  0.12827521014E+02  0.00000000000E+00 0.  1.
          2    1    1    2  501    0 -0.71180234215E+01  0.20257049286E+02  0.21108719568E+01  0.21574755703E+02  0.00000000000E+00 0. -1.
         -2    1    1    2    0  502  0.71180234215E+01 -0.20257049286E+02  0.34136089165E+02  0.40327247448E+02  0.00000000000E+00 0.  1.
<mgrwt>
<rscale>  2 0.21471244E+02</rscale>
<asrwt>0</asrwt>
<pdfrwt beam="1">  1       21 0.75499202E-02 0.21471244E+02</pdfrwt>
<pdfrwt beam="2">  1       21 0.19734648E-02 0.21471244E+02</pdfrwt>
<totfact> 0.11057562E+08</totfact>
</mgrwt>
</event>
<event>
 4    1  0.7616518E+004  0.2263919E+02  0.7546771E-02  0.1697426E+00
         21   -1    0    0  501  502  0.00000000000E+00  0.00000000000E+00  0.87395851670E+02  0.87395851670E+02  0.00000000000E+00 0.  1.
         21   -1    0    0  502  503 -0.00000000000E+00 -0.00000000000E+00 -0.69089339225E+01  0.69089339225E+01  0.00000000000E+00 0.  1.
          2    1    1    2  501    0  0.10655476990E+02  0.19974824029E+02  0.58576695621E+02  0.62799379414E+02  0.00000000000E+00 0. -1.
         -2    1    1    2    0  503 -0.10655476990E+02 -0.19974824029E+02  0.21910222126E+02  0.31505406179E+02  0.00000000000E+00 0.  1.
<mgrwt>
<rscale>  2 0.22639187E+02</rscale>
<asrwt>0</asrwt>
<pdfrwt beam="1">  1       21 0.13445515E-01 0.22639187E+02</pdfrwt>
<pdfrwt beam="2">  1       21 0.10629130E-02 0.22639187E+02</pdfrwt>
<totfact> 0.11055505E+08</totfact>
</mgrwt>
</event>
<event>
 4    1  0.7616518E+004  0.2440077E+02  0.7546771E-02  0.1669761E+00
         21   -1    0    0  503  502  0.00000000000E+00  0.00000000000E+00  0.14706902013E+01  0.14706902013E+01  0.00000000000E+00 0. -1.
         21   -1    0    0  501  503 -0.00000000000E+00 -0.00000000000E+00 -0.41106062296E+03  0.41106062296E+03  0.00000000000E+00 0. -1.
          3    1    1    2  501    0 -0.23449753831E+02  0.67458440962E+01 -0.23016471916E+03  0.23145452104E+03  0.00000000000E+00 0. -1.
         -3    1    1    2    0  502  0.23449753831E+02 -0.67458440962E+01 -0.17942521360E+03  0.18107679212E+03  0.00000000000E+00 0.  1.
<mgrwt>
<rscale>  2 0.24400766E+02</rscale>
<asrwt>0</asrwt>
<pdfrwt beam="1">  1       21 0.22626007E-03 0.24400766E+02</pdfrwt>
<pdfrwt beam="2">  1       21 0.63240084E-01 0.24400766E+02</pdfrwt>
<totfact> 0.65272812E+07</totfact>
</mgrwt>
</event>
<event>
 4    1  0.7616518E+004  0.2627673E+02  0.7546771E-02  0.1643313E+00
         21   -1    0    0  503  502  0.00000000000E+00  0.00000000000E+00  0.95309628240E+01  0.95309628240E+01  0.00000000000E+00 0. -1.
         21   -1    0    0  501  503 -0.00000000000E+00 -0.00000000000E+00 -0.87055336176E+02  0.87055336176E+02  0.00000000000E+00 0. -1.
          2    1    1    2  501    0 -0.22349529929E+02 -0.13819001424E+02 -0.58546667654E+02  0.64173036252E+02  0.00000000000E+00 0.  1.
         -2    1    1    2    0  502  0.22349529929E+02  0.13819001424E+02 -0.18977705698E+02  0.32413262748E+02  0.00000000000E+00 0. -1.
<mgrwt>
<rscale>  2 0.26276725E+02</rscale>
<asrwt>0</asrwt>
<pdfrwt beam="1">  1       21 0.14663019E-02 0.26276725E+02</pdfrwt>
<pdfrwt beam="2">  1       21 0.13393129E-01 0.26276725E+02</pdfrwt>
<totfact> 0.71125188E+07</totfact>
</mgrwt>
</event>
<event>
 4    1  0.7616518E+004  0.2302206E+02  0.7546771E-02  0.1691153E+00
         21   -1    0    0  501  502  0.00000000000E+00  0.00000000000E+00  0.32695169952E+02  0.32695169952E+02  0.00000000000E+00 0. -1.
         21   -1    0    0  502  503 -0.00000000000E+00 -0.00000000000E+00 -0.22377658029E+02  0.22377658029E+02  0.00000000000E+00 0. -1.
          5    1    1    2  501    0 -0.21593975509E+02  0.79821936721E+01  0.19614208179E+02  0.30244542592E+02  0.00000000000E+00 0. -1.
         -5    1    1    2    0  503  0.21593975509E+02 -0.79821936721E+01 -0.92966962566E+01  0.24828285390E+02  0.00000000000E+00 0.  1.
<mgrwt>
<rscale>  2 0.23022059E+02</rscale>
<asrwt>0</asrwt>
<pdfrwt beam="1">  1       21 0.50300262E-02 0.23022059E+02</pdfrwt>
<pdfrwt beam="2">  1       21 0.34427166E-02 0.23022059E+02</pdfrwt>
<totfact> 0.91597286E+07</totfact>
</mgrwt>
</event>
<event>
 4    1  0.7616518E+004  0.2825885E+02  0.7546771E-02  0.1618173E+00
         21   -1    0    0  503  502  0.00000000000E+00  0.00000000000E+00  0.18340795230E+02  0.18340795230E+02  0.00000000000E+00 0. -1.
         21   -1    0    0  501  503 -0.00000000000E+00 -0.00000000000E+00 -0.44727737522E+02  0.44727737522E+02  0.00000000000E+00 0. -1.
          3    1    1    2  501    0 -0.24816341663E+02 -0.13517091022E+02 -0.80552682562E+01  0.29384518202E+02  0.00000000000E+00 0.  1.
         -3    1    1    2    0  502  0.24816341663E+02  0.13517091022E+02 -0.18331674036E+02  0.33684014551E+02  0.00000000000E+00 0. -1.
<mgrwt>
<rscale>  2 0.28258849E+02</rscale>
<asrwt>0</asrwt>
<pdfrwt beam="1">  1       21 0.28216608E-02 0.28258849E+02</pdfrwt>
<pdfrwt beam="2">  1       21 0.68811904E-02 0.28258849E+02</pdfrwt>
<totfact> 0.79684965E+07</totfact>
</mgrwt>
</event>
<event>
 4    1  0.7616518E+004  0.2166691E+02  0.7546771E-02  0.1714077E+00
         21   -1    0    0  501  502  0.00000000000E+00  0.00000000000E+00  0.88550448085E+02  0.88550448085E+02  0.00000000000E+00 0.  1.
         21   -1    0    0  502  503 -0.00000000000E+00 -0.00000000000E+00 -0.53098533487E+01  0.53098533487E+01  0.00000000000E+00 0.  1.
          1    1    1    2  501    0  0.20129232550E+02 -0.80167975656E+01  0.43475595818E+02  0.48575533739E+02  0.00000000000E+00 0. -1.
         -1    1    1    2    0  503 -0.20129232550E+02  0.80167975656E+01  0.39764998918E+02  0.45284767695E+02  0.00000000000E+00 0.  1.
<mgrwt>
<rscale>  2 0.21666911E+02</rscale>
<asrwt>0</asrwt>
<pdfrwt beam="1">  1       21 0.13623145E-01 0.21666911E+02</pdfrwt>
<pdfrwt beam="2">  1       21 0.81690058E-03 0.21666911E+02</pdfrwt>
<totfact> 0.15830884E+08</totfact>
</mgrwt>
</event>
<event>
 4    1  0.7616518E+004  0.5505944E+02  0.7546771E-02  0.1419818E+00
         21   -1    0    0  501  502  0.00000000000E+00  0.00000000000E+00  0.44163083136E+03  0.44163083136E+03  0.00000000000E+00 0. -1.
         21   -1    0    0  502  503 -0.00000000000E+00 -0.00000000000E+00 -0.68934098004E+01  0.68934098004E+01  0.00000000000E+00 0. -1.
          1    1    1    2  501    0 -0.81975576979E+01  0.54445769115E+02  0.20282671847E+03  0.21016712267E+03  0.00000000000E+00 0.  1.
         -1    1    1    2    0  503  0.81975576979E+01 -0.54445769115E+02  0.23191070309E+03  0.23835711849E+03  0.00000000000E+00 0. -1.
<mgrwt>
<rscale>  2 0.55059438E+02</rscale>
<asrwt>0</asrwt>
<pdfrwt beam="1">  1       21 0.67943183E-01 0.55059438E+02</pdfrwt>
<pdfrwt beam="2">  1       21 0.10605249E-02 0.55059438E+02</pdfrwt>
<totfact> 0.63117030E+06</totfact>
</mgrwt>
</event>
<event>
 4    1  0.7616518E+004  0.2311640E+02  0.7546771E-02  0.1689630E+00
         21   -1    0    0  503  502  0.00000000000E+00  0.00000000000E+00  0.55902590061E+03  0.55902590061E+03  0.00000000000E+00 0.  1.
         21   -1    0    0  501  503 -0.00000000000E+00 -0.00000000000E+00 -0.17192618603E+01  0.17192618603E+01  0.00000000000E+00 0.  1.
          3    1    1    2  501    0 -0.21114291942E+02  0.94103470479E+01  0.46547713984E+03  0.46605078657E+03  0.00000000000E+00 0.  1.
         -3    1    1    2    0  502  0.21114291942E+02 -0.94103470479E+01  0.91829498910E+02  0.94694375893E+02  0.00000000000E+00 0. -1.
<mgrwt>
<rscale>  2 0.23116400E+02</rscale>
<asrwt>0</asrwt>
<pdfrwt beam="1">  1       21 0.86003840E-01 0.23116400E+02</pdfrwt>
<pdfrwt beam="2">  1       21 0.26450227E-03 0.23116400E+02</pdfrwt>
<totfact> 0.27194214E+07</totfact>
</mgrwt>
</event>
<event>
 4    1  0.7616518E+004  0.2697012E+02  0.7546771E-02  0.1634217E+00
         21   -1    0    0  503  502  0.00000000000E+00  0.00000000000E+00  0.18755428389E+01  0.18755428389E+01  0.00000000000E+00 0.  1.
         21   -1    0    0  501  503 -0.00000000000E+00 -0.00000000000E+00 -0.42520425444E+03  0.42520425444E+03  0.00000000000E+00 0.  1.
          5    1    1    2  501    0  0.26268354142E+02 -0.61123796542E+01 -0.27497538915E+03  0.27629486469E+03  0.00000000000E+00 0.  1.
         -5    1    1    2    0  502 -0.26268354142E+02  0.61123796542E+01 -0.14835332246E+03  0.15078493260E+03  0.00000000000E+00 0. -1.
<mgrwt>
<rscale>  2 0.26970124E+02</rscale>
<asrwt>0</asrwt>
<pdfrwt beam="1">  1       21 0.28854522E-03 0.26970124E+02</pdfrwt>
<pdfrwt beam="2">  1       21 0.65416001E-01 0.26970124E+02</pdfrwt>
<totfact> 0.43692487E+07</totfact>
</mgrwt>
</event>
<event>
 4    1  0.7616518E+004  0.2040361E+02  0.7546771E-02  0.1737419E+00
         21   -1    0    0  503  502  0.00000000000E+00  0.00000000000E+00  0.15454291549E+02  0.15454291549E+02  0.00000000000E+00 0. -1.
         21   -1    0    0  501  503 -0.00000000000E+00 -0.00000000000E+00 -0.27020328510E+02  0.27020328510E+02  0.00000000000E+00 0. -1.
          5    1    1    2  501    0  0.46469100557E+01 -0.19867398340E+02 -0.46105523970E+01  0.20918042052E+02  0.00000000000E+00 0. -1.
         -5    1    1    2    0  502 -0.46469100557E+01  0.19867398340E+02 -0.69554845638E+01  0.21556578007E+02  0.00000000000E+00 0.  1.
<mgrwt>
<rscale>  2 0.20403610E+02</rscale>
<asrwt>0</asrwt>
<pdfrwt beam="1">  1       21 0.23775834E-02 0.20403610E+02</pdfrwt>
<pdfrwt beam="2">  1       21 0.41569735E-02 0.20403610E+02</pdfrwt>
<totfact> 0.21191530E+08</totfact>
</mgrwt>
</event>
<event>
 4    1  0.7616518E+004  0.2458268E+02  0.7546771E-02  0.1667069E+00
         21   -1    0    0  503  502  0.00000000000E+00  0.00000000000E+00  0.31550671254E+02  0.31550671254E+02  0.00000000000E+00 0. -1.
         21   -1    0    0  501  503 -0.00000000000E+00 -0.00000000000E+00 -0.19158477572E+02  0.19158477572E+02  0.00000000000E+00 0. -1.
          4    1    1    2  501    0  0.56620967846E+01  0.23921718209E+02  0.57902362002E+01  0.25255391055E+02  0.00000000000E+00 0. -1.
         -4    1    1    2    0  502 -0.56620967846E+01 -0.23921718209E+02  0.66019574818E+01  0.25453757771E+02  0.00000000000E+00 0.  1.
<mgrwt>
<rscale>  2 0.24582676E+02</rscale>
<asrwt>0</asrwt>
<pdfrwt beam="1">  1       21 0.48539494E-02 0.24582676E+02</pdfrwt>
<pdfrwt beam="2">  1       21 0.29474581E-02 0.24582676E+02</pdfrwt>
<totfact> 0.12594164E+08</totfact>
</mgrwt>
</event>
<event>
 4    1  0.7616518E+004  0.4519361E+02  0.7546771E-02  0.1473137E+00
         21   -1    0    0  503  502  0.00000000000E+00  0.00000000000E+00  0.20135623305E+02  0.20135623305E+02  0.00000000000E+00 0. -1.
         21   -1    0    0  501  503 -0.00000000000E+00 -0.00000000000E+00 -0.12377586434E+03  0.12377586434E+03  0.00000000000E+00 0. -1.
          2    1    1    2  501    0 -0.87215864912E+01  0.44344068001E+02 -0.82390076947E+02  0.93971204191E+02  0.00000000000E+00 0. -1.
         -2    1    1    2    0  502  0.87215864912E+01 -0.44344068001E+02 -0.21250164090E+02  0.49940283456E+02  0.00000000000E+00 0.  1.
<mgrwt>
<rscale>  2 0.45193611E+02</rscale>
<asrwt>0</asrwt>
<pdfrwt beam="1">  1       21 0.30977882E-02 0.45193611E+02</pdfrwt>
<pdfrwt beam="2">  1       21 0.19042441E-01 0.45193611E+02</pdfrwt>
<totfact> 0.13297520E+07</totfact>
</mgrwt>
</event>
<event>
 4    1  0.7616518E+004  0.2147179E+02  0.7546771E-02  0.1717550E+00
         21   -1    0    0  501  502  0.00000000000E+00  0.00000000000E+00  0.22789157498E+01  0.22789157498E+01  0.00000000000E+00 0. -1.
         21   -1    0    0  502  503 -0.00000000000E+00 -0.00000000000E+00 -0.23222267018E+03  0.23222267018E+03  0.00000000000E+00 0. -1.
          5    1    1    2  501    0  0.21332510081E+02  0.24416825085E+01 -0.72887413657E+02  0.75984293570E+02  0.00000000000E+00 0. -1.
         -5    1    1    2    0  503 -0.21332510081E+02 -0.24416825085E+01 -0.15705634077E+03  0.15851729236E+03  0.00000000000E+00 0.  1.
<mgrwt>
<rscale>  2 0.21471791E+02</rscale>
<asrwt>0</asrwt>
<pdfrwt beam="1">  1       21 0.35060245E-03 0.21471791E+02</pdfrwt>
<pdfrwt beam="2">  1       21 0.35726562E-01 0.21471791E+02</pdfrwt>
<totfact> 0.10068188E+08</totfact>
</mgrwt>
</event>
<event>
 4    1  0.7616518E+004  0.3254717E+02  0.7546771E-02  0.1571527E+00
         21   -1    0    0  503  502  0.00000000000E+00  0.00000000000E+00  0.15506109653E+02  0.15506109653E+02  0.00000000000E+00 0.  1.
         21   -1    0    0  501  503 -0.00000000000E+00 -0.00000000000E+00 -0.71618155134E+02  0.71618155134E+02  0.00000000000E+00 0.  1.
          3    1    1    2  501    0 -0.30342370402E+02 -0.11775359913E+02 -0.37409711590E+02  0.49586339489E+02  0.00000000000E+00 0.  1.
         -3    1    1    2    0  502  0.30342370402E+02  0.11775359913E+02 -0.18702333891E+02  0.37537925298E+02  0.00000000000E+00 0. -1.
<mgrwt>
<rscale>  2 0.32547174E+02</rscale>
<asrwt>0</asrwt>
<pdfrwt beam="1">  1       21 0.23855554E-02 0.32547174E+02</pdfrwt>
<pdfrwt beam="2">  1       21 0.11018178E-01 0.32547174E+02</pdfrwt>
<totfact> 0.49017819E+07</totfact>
</mgrwt>
</event>
<event>
 4    1  0.7616518E+004  0.2346451E+02  0.7546771E-02  0.1684089E+00
         21   -1    0    0  503  502  0.00000000000E+00  0.00000000000E+00  0.73599757954E+03  0.73599757954E+03  0.00000000000E+00 0. -1.
         21   -1    0    0  501  503 -0.00000000000E+00 -0.00000000000E+00 -0.75476062852E+00  0.75476062852E+00  0.00000000000E+00 0. -1.
          3    1    1    2  501    0 -0.23356861794E+02 -0.22450075429E+01  0.40228588674E+03  0.40296962382E+03  0.00000000000E+00 0.  1.
         -3    1    1    2    0  502  0.23356861794E+02  0.22450075429E+01  0.33295693217E+03  0.33378271635E+03  0.00000000000E+00 0. -1.
<mgrwt>
<rscale>  2 0.23464506E+02</rscale>
<asrwt>0</asrwt>
<pdfrwt beam="1">  1       21 0.11322982E+00 0.23464506E+02</pdfrwt>
<pdfrwt beam="2">  1       21 0.11611761E-03 0.23464506E+02</pdfrwt>
<totfact> 0.48990297E+07</totfact>
</mgrwt>
</event>
<event>
 4    1  0.7616518E+004  0.2396221E+02  0.7546771E-02  0.1676372E+00
         21   -1    0    0  501  502  0.00000000000E+00  0.00000000000E+00  0.11797069648E+03  0.11797069648E+03  0.00000000000E+00 0. -1.
         21   -1    0    0  502  503 -0.00000000000E+00 -0.00000000000E+00 -0.48857886438E+01  0.48857886438E+01  0.00000000000E+00 0. -1.
          4    1    1    2  501    0  0.27412070052E+01  0.23804899605E+02  0.52753874776E+02  0.57940993821E+02  0.00000000000E+00 0.  1.
         -4    1    1    2    0  503 -0.27412070052E+01 -0.23804899605E+02  0.60331033061E+02  0.64915491304E+02  0.00000000000E+00 0. -1.
<mgrwt>
<rscale>  2 0.23962209E+02</rscale>
<asrwt>0</asrwt>
<pdfrwt beam="1">  1       21 0.18149336E-01 0.23962209E+02</pdfrwt>
<pdfrwt beam="2">  1       21 0.75165988E-03 0.23962209E+02</pdfrwt>
<totfact> 0.11305095E+08</totfact>
</mgrwt>
</event>
<event>
 4    1  0.7616518E+004  0.2218711E+02  0.7546771E-02  0.1705036E+00
         21   -1    0    0  501  502  0.00000000000E+00  0.00000000000E+00  0.16527241416E+02  0.16527241416E+02  0.00000000000E+00 0. -1.
         21   -1    0    0  502  503 -0.00000000000E+00 -0.00000000000E+00 -0.50915924425E+02  0.50915924425E+02  0.00000000000E+00 0. -1.
          4    1    1    2  501    0  0.12279951980E+01 -0.22153102411E+02  0.45295625842E+01  0.22644753384E+02  0.00000000000E+00 0.  1.
         -4    1    1    2    0  503 -0.12279951980E+01  0.22153102411E+02 -0.38918245593E+02  0.44798412457E+02  0.00000000000E+00 0. -1.
<mgrwt>
<rscale>  2 0.22187112E+02</rscale>
<asrwt>0</asrwt>
<pdfrwt beam="1">  1       21 0.25426526E-02 0.22187112E+02</pdfrwt>
<pdfrwt beam="2">  1       21 0.78332190E-02 0.22187112E+02</pdfrwt>
<totfact> 0.71207918E+07</totfact>
</mgrwt>
</event>
<event>
 4    1  0.7616518E+004  0.2650415E+02  0.7546771E-02  0.1640292E+00
         21   -1    0    0  501  502  0.00000000000E+00  0.00000000000E+00  0.34400956308E+02  0.34400956308E+02  0.00000000000E+00 0.  1.
         21   -1    0    0  502  503 -0.00000000000E+00 -0.00000000000E+00 -0.20467704141E+02  0.20467704141E+02  0.00000000000E+00 0.  1.
          2    1    1    2  501    0  0.24960950649E+02  0.89118328541E+01  0.82901568374E+01  0.27770425321E+02  0.00000000000E+00 0. -1.
         -2    1    1    2    0  503 -0.24960950649E+02 -0.89118328541E+01  0.56430953293E+01  0.27098235128E+02  0.00000000000E+00 0.  1.
<mgrwt>
<rscale>  2 0.26504147E+02</rscale>
<asrwt>0</asrwt>
<pdfrwt beam="1">  1       21 0.52924548E-02 0.26504147E+02</pdfrwt>
<pdfrwt beam="2">  1       21 0.31488776E-02 0.26504147E+02</pdfrwt>
<totfact> 0.10092200E+08</totfact>
</mgrwt>
</event>
<event>
 4    1  0.7616518E+004  0.2307944E+02  0.7546771E-02  0.1690226E+00
         21   -1    0    0  501  502  0.00000000000E+00  0.00000000000E+00  0.41870532027E+01  0.41870532027E+01  0.00000000000E+00 0. -1.
         21   -1    0    0  502  503 -0.00000000000E+00 -0.00000000000E+00 -0.15076020940E+03  0.15076020940E+03  0.00000000000E+00 0. -1.
          4    1    1    2  501    0 -0.23077806075E+02  0.27499366002E+00 -0.10390277856E+03  0.10643518284E+03  0.00000000000E+00 0.  1.
         -4    1    1    2    0  503  0.23077806075E+02 -0.27499366002E+00 -0.42670377640E+02  0.48512079760E+02  0.00000000000E+00 0. -1.
<mgrwt>
<rscale>  2 0.23079444E+02</rscale>
<asrwt>0</asrwt>
<pdfrwt beam="1">  1       21 0.64416206E-03 0.23079444E+02</pdfrwt>
<pdfrwt beam="2">  1       21 0.23193877E-01 0.23079444E+02</pdfrwt>
<totfact> 0.91635760E+07</totfact>
</mgrwt>
</event>
<event>
 4    1  0.7616518E+004  0.3314429E+02  0.7546771E-02  0.1565725E+00
         21   -1    0    0  503  502  0.00000000000E+00  0.00000000000E+00  0.89820877399E+01  0.89820877399E+01  0.00000000000E+00 0. -1.
         21   -1    0    0  501  503 -0.00000000000E+00 -0.00000000000E+00 -0.12298590906E+03  0.12298590906E+03  0.00000000000E+00 0. -1.
          3    1    1    2  501    0  0.12824748109E+02 -0.30562550072E+02 -0.61915873740E+02  0.70229047067E+02  0.00000000000E+00 0. -1.
         -3    1    1    2    0  502 -0.12824748109E+02  0.30562550072E+02 -0.52087947579E+02  0.61738949731E+02  0.00000000000E+00 0.  1.
<mgrwt>
<rscale>  2 0.33144285E+02</rscale>
<asrwt>0</asrwt>
<pdfrwt beam="1">  1       21 0.13818597E-02 0.33144285E+02</pdfrwt>
<pdfrwt beam="2">  1       21 0.18920908E-01 0.33144285E+02</pdfrwt>
<totfact> 0.45152401E+07</totfact>
</mgrwt>
</event>
<event>
 4    1  0.7616518E+004  0.2025573E+02  0.7546771E-02  0.1740290E+00
         21   -1    0    0  501  502  0.00000000000E+00  0.00000000000E+00  0.38859377284E+02  0.38859377284E+02  0.00000000000E+00 0. -1.
         21   -1    0    0  502  503 -0.00000000000E+00 -0.00000000000E+00 -0.10916978484E+02  0.10916978484E+02  0.00000000000E+00 0. -1.
          4    1    1    2  501    0  0.20250592132E+02 -0.45621236183E+00  0.94608880473E+01  0.22356274602E+02  0.00000000000E+00 0. -1.
         -4    1    1    2    0  503 -0.20250592132E+02  0.45621236183E+00  0.18481510753E+02  0.27420081166E+02  0.00000000000E+00 0.  1.
<mgrwt>
<rscale>  2 0.20255730E+02</rscale>
<asrwt>0</asrwt>
<pdfrwt beam="1">  1       21 0.59783657E-02 0.20255730E+02</pdfrwt>
<pdfrwt beam="2">  1       21 0.16795352E-02 0.20255730E+02</pdfrwt>
<totfact> 0.20216885E+08</totfact>
</mgrwt>
</event>
<event>
 4    1  0.7616518E+004  0.2759140E+02  0.7546771E-02  0.1626348E+00
         21   -1    0    0  503  502  0.00000000000E+00  0.00000000000E+00  0.11824177235E+02  0.11824177235E+02  0.00000000000E+00 0.  1.
         21   -1    0    0  501  503 -0.00000000000E+00 -0.00000000000E+00 -0.64627981677E+02  0.64627981677E+02  0.00000000000E+00 0.  1.
          4    1    1    2  501    0  0.25435999273E+02 -0.10690894789E+02 -0.28751637435E+02  0.39848989267E+02  0.00000000000E+00 0. -1.
         -4    1    1    2    0  502 -0.25435999273E+02  0.10690894789E+02 -0.24052167007E+02  0.36603169646E+02  0.00000000000E+00 0.  1.
<mgrwt>
<rscale>  2 0.27591399E+02</rscale>
<asrwt>0</asrwt>
<pdfrwt beam="1">  1       21 0.18191042E-02 0.27591399E+02</pdfrwt>
<pdfrwt beam="2">  1       21 0.99427664E-02 0.27591399E+02</pdfrwt>
<totfact> 0.85361768E+07</totfact>
</mgrwt>
</event>
<event>
 4    1  0.7616518E+004  0.2298154E+02  0.7546771E-02  0.1691809E+00
         21   -1    0    0  501  502  0.00000000000E+00  0.00000000000E+00  0.11062430789E+02  0.11062430789E+02  0.00000000000E+00 0.  1.
         21   -1    0    0  502  503 -0.00000000000E+00 -0.00000000000E+00 -0.48247229717E+02  0.48247229717E+02  0.00000000000E+00 0.  1.
          4    1    1    2  501    0 -0.15900970375E+02 -0.16592481768E+02 -0.21624641662E+02  0.31555925546E+02  0.00000000000E+00 0.  1.
         -4    1    1    2    0  503  0.15900970375E+02  0.16592481768E+02 -0.15560157266E+02  0.27753734960E+02  0.00000000000E+00 0. -1.
<mgrwt>
<rscale>  2 0.22981543E+02</rscale>
<asrwt>0</asrwt>
<pdfrwt beam="1">  1       21 0.17019124E-02 0.22981543E+02</pdfrwt>
<pdfrwt beam="2">  1       21 0.74226508E-02 0.22981543E+02</pdfrwt>
<totfact> 0.14543477E+08</totfact>
</mgrwt>
</event>
<event>
 4    1  0.7616518E+004  0.5555705E+02  0.7546771E-02  0.1417483E+00
         21   -1    0    0  501  502  0.00000000000E+00  0.00000000000E+00  0.50084558193E+03  0.50084558193E+03  0.00000000000E+00 0. -1.
         21   -1    0    0  502  503 -0.00000000000E+00 -0.00000000000E+00 -0.90918603153E+01  0.90918603153E+01  0.00000000000E+00 0. -1.
          2    1    1    2  501    0  0.24855532084E+02 -0.49686897658E+02  0.39059684823E+03  0.39452817786E+03  0.00000000000E+00 0. -1.
         -2    1    1    2    0  503 -0.24855532084E+02  0.49686897658E+02  0.10115687338E+03  0.11540926438E+03  0.00000000000E+00 0.  1.
<mgrwt>
<rscale>  2 0.55557045E+02</rscale>
<asrwt>0</asrwt>
<pdfrwt beam="1">  1       21 0.77053145E-01 0.55557045E+02</pdfrwt>
<pdfrwt beam="2">  1       21 0.13987481E-02 0.55557045E+02</pdfrwt>
<totfact> 0.31414269E+06</totfact>
</mgrwt>
</event>
<event>
 4    1  0.7616518E+004  0.3393758E+02  0.7546771E-02  0.1558243E+00
         21   -1    0    0  503  502  0.00000000000E+00  0.00000000000E+00  0.88970089306E+02  0.88970089306E+02  0.00000000000E+00 0. -1.
         21   -1    0    0  501  503 -0.00000000000E+00 -0.00000000000E+00 -0.13244528731E+02  0.13244528731E+02  0.00000000000E+00 0. -1.
          4    1    1    2  501    0 -0.21676787221E+02 -0.26112765253E+02  0.30183101195E+02  0.45417829221E+02  0.00000000000E+00 0. -1.
         -4    1    1    2    0  502  0.21676787221E+02  0.26112765253E+02  0.45542459380E+02  0.56796788816E+02  0.00000000000E+00 0.  1.
<mgrwt>
<rscale>  2 0.33937584E+02</rscale>
<asrwt>0</asrwt>
<pdfrwt beam="1">  1       21 0.13687706E-01 0.33937584E+02</pdfrwt>
<pdfrwt beam="2">  1       21 0.20376199E-02 0.33937584E+02</pdfrwt>
<totfact> 0.43707755E+07</totfact>
</mgrwt>
</event>
<event>
 4    1  0.7616518E+004  0.3759807E+02  0.7546771E-02  0.1526670E+00
         21   -1    0    0  503  502  0.00000000000E+00  0.00000000000E+00  0.65766373667E+02  0.65766373667E+02  0.00000000000E+00 0. -1.
         21   -1    0    0  501  503 -0.00000000000E+00 -0.00000000000E+00 -0.22909337611E+02  0.22909337611E+02  0.00000000000E+00 0. -1.
          2    1    1    2  501    0 -0.36995007990E+02 -0.67070259447E+01  0.32447028703E+02  0.49663109899E+02  0.00000000000E+00 0. -1.
         -2    1    1    2    0  502  0.36995007990E+02  0.67070259447E+01  0.10410007353E+02  0.39012601379E+02  0.00000000000E+00 0.  1.
<mgrwt>
<rscale>  2 0.37598069E+02</rscale>
<asrwt>0</asrwt>
<pdfrwt beam="1">  1       21 0.10117904E-01 0.37598069E+02</pdfrwt>
<pdfrwt beam="2">  1       21 0.35245135E-02 0.37598069E+02</pdfrwt>
<totfact> 0.31439077E+07</totfact>
</mgrwt>
</event>
<event>
 4    1  0.7616518E+004  0.2975371E+02  0.7546771E-02  0.1600827E+00
         21   -1    0    0  501  502  0.00000000000E+00  0.00000000000E+00  0.75443011286E+02  0.75443011286E+02  0.00000000000E+00 0. -1.
         21   -1    0    0  502  503 -0.00000000000E+00 -0.00000000000E+00 -0.11735464272E+02  0.11735464272E+02  0.00000000000E+00 0. -1.
          4    1    1    2  501    0  0.25909477975E+02 -0.14628122610E+02  0.31450599626E+02  0.43294609790E+02  0.00000000000E+00 0. -1.
         -4    1    1    2    0  503 -0.25909477975E+02  0.14628122610E+02  0.32256947387E+02  0.43883865768E+02  0.00000000000E+00 0.  1.
<mgrwt>
<rscale>  2 0.29753706E+02</rscale>
<asrwt>0</asrwt>
<pdfrwt beam="1">  1       21 0.11606617E-01 0.29753706E+02</pdfrwt>
<pdfrwt beam="2">  1       21 0.18054561E-02 0.29753706E+02</pdfrwt>
<totfact> 0.67864558E+07</totfact>
</mgrwt>
</event>
<event>
 4    1  0.7616518E+004  0.2034392E+02  0.7546771E-02  0.1738574E+00
         21   -1    0    0  503  502  0.00000000000E+00  0.00000000000E+00  0.42042976294E+03  0.42042976294E+03  0.00000000000E+00 0.  1.
         21   -1    0    0  501  503 -0.00000000000E+00 -0.00000000000E+00 -0.15042222213E+01  0.15042222213E+01  0.00000000000E+00 0.  1.
          2    1    1    2  501    0  0.12630722914E+02 -0.15948032147E+02  0.33348002829E+03  0.33409999126E+03  0.00000000000E+00 0. -1.
         -2    1    1    2    0  502 -0.12630722914E+02  0.15948032147E+02  0.85445512432E+02  0.87833993906E+02  0.00000000000E+00 0.  1.
<mgrwt>
<rscale>  2 0.20343915E+02</rscale>
<asrwt>0</asrwt>
<pdfrwt beam="1">  1       21 0.64681408E-01 0.20343915E+02</pdfrwt>
<pdfrwt beam="2">  1       21 0.23141914E-03 0.20343915E+02</pdfrwt>
<totfact> 0.57785702E+07</totfact>
</mgrwt>
</event>
<event>
 4    1  0.7616518E+004  0.2309772E+02  0.7546771E-02  0.1689931E+00
         21   -1    0    0  503  502  0.00000000000E+00  0.00000000000E+00  0.17041209756E+02  0.17041209756E+02  0.00000000000E+00 0.  1.
         21   -1    0    0  501  503 -0.00000000000E+00 -0.00000000000E+00 -0.47996707095E+02  0.47996707095E+02  0.00000000000E+00 0.  1.
          2    1    1    2  501    0 -0.22127371487E+02 -0.66245075998E+01  0.36982807040E+01  0.23391920615E+02  0.00000000000E+00 0. -1.
         -2    1    1    2    0  502  0.22127371487E+02  0.66245075998E+01 -0.34653778043E+02  0.41645996236E+02  0.00000000000E+00 0.  1.
<mgrwt>
<rscale>  2 0.23097720E+02</rscale>
<asrwt>0</asrwt>
<pdfrwt beam="1">  1       21 0.26217246E-02 0.23097720E+02</pdfrwt>
<pdfrwt beam="2">  1       21 0.73841087E-02 0.23097720E+02</pdfrwt>
<totfact> 0.75589836E+07</totfact>
</mgrwt>
</event>
<event>
 4    1  0.7616518E+004  0.2648690E+02  0.7546771E-02  0.1640520E+00
         21   -1    0    0  503  502  0.00000000000E+00  0.00000000000E+00  0.13956462832E+02  0.13956462832E+02  0.00000000000E+00 0.  1.
         21   -1    0    0  501  503 -0.00000000000E+00 -0.00000000000E+00 -0.77063657876E+02  0.77063657876E+02  0.00000000000E+00 0.  1.
          2    1    1    2  501    0  0.25174908737E+02 -0.82328597177E+01 -0.47175131780E+01  0.26903734678E+02  0.00000000000E+00 0. -1.
         -2    1    1    2    0  502 -0.25174908737E+02  0.82328597177E+01 -0.58389681867E+02  0.64116386030E+02  0.00000000000E+00 0.  1.
<mgrwt>
<rscale>  2 0.26486903E+02</rscale>
<asrwt>0</asrwt>
<pdfrwt beam="1">  1       21 0.21471481E-02 0.26486903E+02</pdfrwt>
<pdfrwt beam="2">  1       21 0.11855947E-01 0.26486903E+02</pdfrwt>
<totfact> 0.48743118E+07</totfact>
</mgrwt>
</event>
<event>
 4    1  0.7616518E+004  0.2578139E+02  0.7546771E-02  0.1650026E+00
         21   -1    0    0  503  502  0.00000000000E+00  0.00000000000E+00  0.96851370723E+01  0.96851370723E+01  0.00000000000E+00 0.  1.
         21   -1    0    0  501  503 -0.00000000000E+00 -0.00000000000E+00 -0.69830909884E+02  0.69830909884E+02  0.00000000000E+00 0.  1.
          3    1    1    2  501    0  0.23254937429E+02  0.11130490073E+02 -0.24856592726E+02  0.35812429770E+02  0.00000000000E+00 0. -1.
         -3    1    1    2    0  502 -0.23254937429E+02 -0.11130490073E+02 -0.35289180085E+02  0.43703617186E+02  0.00000000000E+00 0.  1.
<mgrwt>
<rscale>  2 0.25781387E+02</rscale>
<asrwt>0</asrwt>
<pdfrwt beam="1">  1       21 0.14900211E-02 0.25781387E+02</pdfrwt>
<pdfrwt beam="2">  1       21 0.10743217E-01 0.25781387E+02</pdfrwt>
<totfact> 0.10010210E+08</totfact>
</mgrwt>
</event>
<event>
 4    1  0.7616518E+004  0.2142095E+02  0.7546771E-02  0.1718463E+00
         21   -1    0    0  501  502  0.00000000000E+00  0.00000000000E+00  0.25975015953E+01  0.25975015953E+01  0.00000000000E+00 0.  1.
         21   -1    0    0  502  503 -0.00000000000E+00 -0.00000000000E+00 -0.20347668446E+03  0.20347668446E+03  0.00000000000E+00 0.  1.
          1    1    1    2  501    0  0.20333698381E+02  0.67377895085E+01 -0.13785008754E+03  0.13950449359E+03  0.00000000000E+00 0.  1.
         -1    1    1    2    0  503 -0.20333698381E+02 -0.67377895085E+01 -0.63029095324E+02  0.66569692463E+02  0.00000000000E+00 0. -1.
<mgrwt>
<rscale>  2 0.21420950E+02</rscale>
<asrwt>0</asrwt>
<pdfrwt beam="1">  1       21 0.39961549E-03 0.21420950E+02</pdfrwt>
<pdfrwt beam="2">  1       21 0.31304116E-01 0.21420950E+02</pdfrwt>
<totfact> 0.10593300E+08</totfact>
</mgrwt>
</event>
<event>
 4    1  0.7616518E+004  0.2136511E+02  0.7546771E-02  0.1719469E+00
         21   -1    0    0  501  502  0.00000000000E+00  0.00000000000E+00  0.52380440079E+03  0.52380440079E+03  0.00000000000E+00 0. -1.
         21   -1    0    0  502  503 -0.00000000000E+00 -0.00000000000E+00 -0.87856895962E+00  0.87856895962E+00  0.00000000000E+00 0. -1.
          2    1    1    2  501    0 -0.34896956124E+01 -0.21078185480E+02  0.28508252416E+03  0.28588199219E+03  0.00000000000E+00 0. -1.
         -2    1    1    2    0  503  0.34896956124E+01  0.21078185480E+02  0.23784330767E+03  0.23880097756E+03  0.00000000000E+00 0.  1.
<mgrwt>
<rscale>  2 0.21365109E+02</rscale>
<asrwt>0</asrwt>
<pdfrwt beam="1">  1       21 0.80585043E-01 0.21365109E+02</pdfrwt>
<pdfrwt beam="2">  1       21 0.13516487E-03 0.21365109E+02</pdfrwt>
<totfact> 0.80607566E+07</totfact>
</mgrwt>
</event>
<event>
 4    1  0.7616518E+004  0.3626575E+02  0.7546771E-02  0.1537639E+00
         21   -1    0    0  501  502  0.00000000000E+00  0.00000000000E+00  0.32407261713E+02  0.32407261713E+02  0.00000000000E+00 0.  1.
         21   -1    0    0  502  503 -0.00000000000E+00 -0.00000000000E+00 -0.64321051433E+02  0.64321051433E+02  0.00000000000E+00 0.  1.
          3    1    1    2  501    0  0.30917969523E+01  0.36133715406E+02 -0.45337703352E+02  0.58057832742E+02  0.00000000000E+00 0.  1.
         -3    1    1    2    0  503 -0.30917969523E+01 -0.36133715406E+02  0.13423913632E+02  0.38670480404E+02  0.00000000000E+00 0. -1.
<mgrwt>
<rscale>  2 0.36265750E+02</rscale>
<asrwt>0</asrwt>
<pdfrwt beam="1">  1       21 0.49857326E-02 0.36265750E+02</pdfrwt>
<pdfrwt beam="2">  1       21 0.98955463E-02 0.36265750E+02</pdfrwt>
<totfact> 0.18580060E+07</totfact>
</mgrwt>
</event>
<event>
 4    1  0.7616518E+004  0.3411917E+02  0.7546771E-02  0.1556565E+00
         21   -1    0    0  503  502  0.00000000000E+00  0.00000000000E+00  0.25731313205E+02  0.25731313205E+02  0.00000000000E+00 0.  1.
         21   -1    0    0  501  503 -0.00000000000E+00 -0.00000000000E+00 -0.53110647828E+02  0.53110647828E+02  0.00000000000E+00 0.  1.
          5    1    1    2  501    0 -0.10025221498E+02  0.32613073003E+02  0.14845566807E+01  0.34151449535E+02  0.00000000000E+00 0.  1.
         -5    1    1    2    0  502  0.10025221498E+02 -0.32613073003E+02 -0.28863891304E+02  0.44690511498E+02  0.00000000000E+00 0. -1.
<mgrwt>
<rscale>  2 0.34119168E+02</rscale>
<asrwt>0</asrwt>
<pdfrwt beam="1">  1       21 0.39586636E-02 0.34119168E+02</pdfrwt>
<pdfrwt beam="2">  1       21 0.81708688E-02 0.34119168E+02</pdfrwt>
<totfact> 0.36663583E+07</totfact>
</mgrwt>
</event>
<event>
 4    1  0.7616518E+004  0.2976739E+02  0.7546771E-02  0.1600674E+00
         21   -1    0    0  501  502  0.00000000000E+00  0.00000000000E+00  0.80158552476E+03  0.80158552476E+03  0.00000000000E+00 0. -1.
         21   -1    0    0  502  503 -0.00000000000E+00 -0.00000000000E+00 -0.11055104143E+01  0.11055104143E+01  0.00000000000E+00 0. -1.
          2    1    1    2  501    0  0.25006255689E+02  0.16148827541E+02  0.39683748357E+03  0.39795236627E+03  0.00000000000E+00 0. -1.
         -2    1    1    2    0  503 -0.25006255689E+02 -0.16148827541E+02  0.40364253078E+03  0.40473866890E+03  0.00000000000E+00 0.  1.
<mgrwt>
<rscale>  2 0.29767389E+02</rscale>
<asrwt>0</asrwt>
<pdfrwt beam="1">  1       21 0.12332039E+00 0.29767389E+02</pdfrwt>
<pdfrwt beam="2">  1       21 0.17007917E-03 0.29767389E+02</pdfrwt>
<totfact> 0.24330618E+07</totfact>
</mgrwt>
</event>
<event>
 4    1  0.7616518E+004  0.5973144E+02  0.7546771E-02  0.1398962E+00
         21   -1    0    0  501  502  0.00000000000E+00  0.00000000000E+00  0.64290523202E+03  0.64290523202E+03  0.00000000000E+00 0.  1.
         21   -1    0    0  502  503 -0.00000000000E+00 -0.00000000000E+00 -0.61328150237E+01  0.61328150237E+01  0.00000000000E+00 0.  1.
          3    1    1    2  501    0 -0.45674189135E+02  0.38493023286E+02  0.41846397355E+03  0.42270550215E+03  0.00000000000E+00 0.  1.
         -3    1    1    2    0  503  0.45674189135E+02 -0.38493023286E+02  0.21830844345E+03  0.22633254489E+03  0.00000000000E+00 0. -1.
<mgrwt>
<rscale>  2 0.59731436E+02</rscale>
<asrwt>0</asrwt>
<pdfrwt beam="1">  1       21 0.98908444E-01 0.59731436E+02</pdfrwt>
<pdfrwt beam="2">  1       21 0.94351051E-03 0.59731436E+02</pdfrwt>
<totfact> 0.33452614E+06</totfact>
</mgrwt>
</event>
<event>
 4    1  0.7616518E+004  0.2865721E+02  0.7546771E-02  0.1613424E+00
         21   -1    0    0  503  502  0.00000000000E+00  0.00000000000E+00  0.18941224350E+02  0.18941224350E+02  0.00000000000E+00 0.  1.
         21   -1    0    0  501  503 -0.00000000000E+00 -0.00000000000E+00 -0.45785540982E+02  0.45785540982E+02  0.00000000000E+00 0.  1.
          3    1    1    2  501    0 -0.26162159497E+02 -0.11695165281E+02 -0.20875629862E+02  0.35454582252E+02  0.00000000000E+00 0. -1.
         -3    1    1    2    0  502  0.26162159497E+02  0.11695165281E+02 -0.59686867694E+01  0.29272183080E+02  0.00000000000E+00 0.  1.
<mgrwt>
<rscale>  2 0.28657206E+02</rscale>
<asrwt>0</asrwt>
<pdfrwt beam="1">  1       21 0.29140346E-02 0.28657206E+02</pdfrwt>
<pdfrwt beam="2">  1       21 0.70439293E-02 0.28657206E+02</pdfrwt>
<totfact> 0.73181675E+07</totfact>
</mgrwt>
</event>
<event>
 4    1  0.7616518E+004  0.2197918E+02  0.7546771E-02  0.1708612E+00
         21   -1    0    0  501  502  0.00000000000E+00  0.00000000000E+00  0.59113548086E+01  0.59113548086E+01  0.00000000000E+00 0.  1.
         21   -1    0    0  502  503 -0.00000000000E+00 -0.00000000000E+00 -0.12017559627E+03  0.12017559627E+03  0.00000000000E+00 0.  1.
          5    1    1    2  501    0  0.21745718824E+02  0.31949808821E+01 -0.92793971204E+02  0.95361445468E+02  0.00000000000E+00 0. -1.
         -5    1    1    2    0  503 -0.21745718824E+02 -0.31949808821E+01 -0.21470270254E+02  0.30725505606E+02  0.00000000000E+00 0.  1.
<mgrwt>
<rscale>  2 0.21979176E+02</rscale>
<asrwt>0</asrwt>
<pdfrwt beam="1">  1       21 0.90943916E-03 0.21979176E+02</pdfrwt>
<pdfrwt beam="2">  1       21 0.18488554E-01 0.21979176E+02</pdfrwt>
<totfact> 0.80420484E+07</totfact>
</mgrwt>
</event>
<event>
 4    1  0.7616518E+004  0.2445339E+02  0.7546771E-02  0.1668979E+00
         21   -1    0    0  501  502  0.00000000000E+00  0.00000000000E+00  0.13395934335E+04  0.13395934335E+04  0.00000000000E+00 0.  1.
         21   -1    0    0  502  503 -0.00000000000E+00 -0.00000000000E+00 -0.44909738461E+00  0.44909738461E+00  0.00000000000E+00 0.  1.
          4    1    1    2  501    0 -0.24058540157E+02  0.43766509223E+01  0.72168581520E+03  0.72209998220E+03  0.00000000000E+00 0.  1.
         -4    1    1    2    0  503  0.24058540157E+02 -0.43766509223E+01  0.61745852094E+03  0.61794254871E+03  0.00000000000E+00 0. -1.
<mgrwt>
<rscale>  2 0.24453393E+02</rscale>
<asrwt>0</asrwt>
<pdfrwt beam="1">  1       21 0.20608810E+00 0.24453393E+02</pdfrwt>
<pdfrwt beam="2">  1       21 0.69092978E-04 0.24453393E+02</pdfrwt>
<totfact> 0.24510878E+07</totfact>
</mgrwt>
</event>
<event>
 4    1  0.7616518E+004  0.2578134E+02  0.7546771E-02  0.1650026E+00
         21   -1    0    0  503  502  0.00000000000E+00  0.00000000000E+00  0.18148533591E+03  0.18148533591E+03  0.00000000000E+00 0. -1.
         21   -1    0    0  501  503 -0.00000000000E+00 -0.00000000000E+00 -0.41086651391E+01  0.41086651391E+01  0.00000000000E+00 0. -1.
          1    1    1    2  501    0  0.23500134749E+02 -0.10602879736E+02  0.58106376104E+02  0.63569083177E+02  0.00000000000E+00 0. -1.
         -1    1    1    2    0  502 -0.23500134749E+02  0.10602879736E+02  0.11927029467E+03  0.12202491787E+03  0.00000000000E+00 0.  1.
<mgrwt>
<rscale>  2 0.25781338E+02</rscale>
<asrwt>0</asrwt>
<pdfrwt beam="1">  1       21 0.27920815E-01 0.25781338E+02</pdfrwt>
<pdfrwt beam="2">  1       21 0.63210247E-03 0.25781338E+02</pdfrwt>
<totfact> 0.69538216E+07</totfact>
</mgrwt>
</event>
<event>
 4    1  0.7616518E+004  0.2293854E+02  0.7546771E-02  0.1692508E+00
         21   -1    0    0  501  502  0.00000000000E+00  0.00000000000E+00  0.24206993205E+02  0.24206993205E+02  0.00000000000E+00 0.  1.
         21   -1    0    0  502  503 -0.00000000000E+00 -0.00000000000E+00 -0.24186446293E+02  0.24186446293E+02  0.00000000000E+00 0.  1.
          2    1    1    2  501    0 -0.21372164842E+02 -0.83310973383E+01 -0.76906705697E+01  0.24193450079E+02  0.00000000000E+00 0. -1.
         -2    1    1    2    0  503  0.21372164842E+02  0.83310973383E+01  0.77112174815E+01  0.24199989420E+02  0.00000000000E+00 0.  1.
<mgrwt>
<rscale>  2 0.22938540E+02</rscale>
<asrwt>0</asrwt>
<pdfrwt beam="1">  1       21 0.37241528E-02 0.22938540E+02</pdfrwt>
<pdfrwt beam="2">  1       21 0.37209917E-02 0.22938540E+02</pdfrwt>
<totfact> 0.13029292E+08</totfact>
</mgrwt>
</event>
<event>
 4    1  0.7616518E+004  0.3287605E+02  0.7546771E-02  0.1568313E+00
         21   -1    0    0  503  502  0.00000000000E+00  0.00000000000E+00  0.35123869084E+03  0.35123869084E+03  0.00000000000E+00 0.  1.
         21   -1    0    0  501  503 -0.00000000000E+00 -0.00000000000E+00 -0.30809318951E+01  0.30809318951E+01  0.00000000000E+00 0.  1.
          4    1    1    2  501    0  0.32437488705E+02  0.53520324056E+01  0.16792067688E+03  0.17110870419E+03  0.00000000000E+00 0.  1.
         -4    1    1    2    0  502 -0.32437488705E+02 -0.53520324056E+01  0.18023708206E+03  0.18321091854E+03  0.00000000000E+00 0. -1.
<mgrwt>
<rscale>  2 0.32876054E+02</rscale>
<asrwt>0</asrwt>
<pdfrwt beam="1">  1       21 0.54036690E-01 0.32876054E+02</pdfrwt>
<pdfrwt beam="2">  1       21 0.47398980E-03 0.32876054E+02</pdfrwt>
<totfact> 0.32064077E+07</totfact>
</mgrwt>
</event>
<event>
 4    1  0.7616518E+004  0.2487252E+02  0.7546771E-02  0.1662840E+00
         21   -1    0    0  503  502  0.00000000000E+00  0.00000000000E+00  0.20443252528E+01  0.20443252528E+01  0.00000000000E+00 0. -1.
         21   -1    0    0  501  503 -0.00000000000E+00 -0.00000000000E+00 -0.33989237372E+03  0.33989237372E+03  0.00000000000E+00 0. -1.
          2    1    1    2  501    0  0.13738300393E+02 -0.20734067498E+02 -0.22554412111E+03  0.22691142108E+03  0.00000000000E+00 0. -1.
         -2    1    1    2    0  502 -0.13738300393E+02  0.20734067498E+02 -0.11230392736E+03  0.11502527789E+03  0.00000000000E+00 0.  1.
<mgrwt>
<rscale>  2 0.24872524E+02</rscale>
<asrwt>0</asrwt>
<pdfrwt beam="1">  1       21 0.31451175E-03 0.24872524E+02</pdfrwt>
<pdfrwt beam="2">  1       21 0.52291106E-01 0.24872524E+02</pdfrwt>
<totfact> 0.59258519E+07</totfact>
</mgrwt>
</event>
<event>
 4    1  0.7616518E+004  0.2022516E+02  0.7546771E-02  0.1740887E+00
         21   -1    0    0  503  502  0.00000000000E+00  0.00000000000E+00  0.85813712862E+01  0.85813712862E+01  0.00000000000E+00 0. -1.
         21   -1    0    0  501  503 -0.00000000000E+00 -0.00000000000E+00 -0.59289889351E+02  0.59289889351E+02  0.00000000000E+00 0. -1.
          5    1    1    2  501    0 -0.20091716441E+02  0.23194815824E+01 -0.10329642139E+02  0.22710318604E+02  0.00000000000E+00 0.  1.
         -5    1    1    2    0  502  0.20091716441E+02 -0.23194815824E+01 -0.40378875926E+02  0.45160942034E+02  0.00000000000E+00 0. -1.
<mgrwt>
<rscale>  2 0.20225159E+02</rscale>
<asrwt>0</asrwt>
<pdfrwt beam="1">  1       21 0.13202110E-02 0.20225159E+02</pdfrwt>
<pdfrwt beam="2">  1       21 0.91215214E-02 0.20225159E+02</pdfrwt>
<totfact> 0.14693476E+08</totfact>
</mgrwt>
</event>
<event>
 4    1  0.7616518E+004  0.3811509E+02  0.7546771E-02  0.1522559E+00
         21   -1    0    0  501  502  0.00000000000E+00  0.00000000000E+00  0.32833956692E+03  0.32833956692E+03  0.00000000000E+00 0. -1.
         21   -1    0    0  502  503 -0.00000000000E+00 -0.00000000000E+00 -0.46747152391E+01  0.46747152391E+01  0.00000000000E+00 0. -1.
          4    1    1    2  501    0 -0.22287326360E+02  0.30919819156E+02  0.12331522235E+03  0.12907131438E+03  0.00000000000E+00 0. -1.
         -4    1    1    2    0  503  0.22287326360E+02 -0.30919819156E+02  0.20034962934E+03  0.20394296778E+03  0.00000000000E+00 0.  1.
<mgrwt>
<rscale>  2 0.38115091E+02</rscale>
<asrwt>0</asrwt>
<pdfrwt beam="1">  1       21 0.50513762E-01 0.38115091E+02</pdfrwt>
<pdfrwt beam="2">  1       21 0.71918721E-03 0.38115091E+02</pdfrwt>
<totfact> 0.20089769E+07</totfact>
</mgrwt>
</event>
<event>
 4    1  0.7616518E+004  0.3862940E+02  0.7546771E-02  0.1518547E+00
         21   -1    0    0  503  502  0.00000000000E+00  0.00000000000E+00  0.43998206887E+01  0.43998206887E+01  0.00000000000E+00 0. -1.
         21   -1    0    0  501  503 -0.00000000000E+00 -0.00000000000E+00 -0.35310619287E+03  0.35310619287E+03  0.00000000000E+00 0. -1.
          3    1    1    2  501    0  0.17889595089E+02  0.34237300077E+02 -0.20988145211E+03  0.21340678121E+03  0.00000000000E+00 0.  1.
         -3    1    1    2    0  502 -0.17889595089E+02 -0.34237300077E+02 -0.13882492007E+03  0.14409923234E+03  0.00000000000E+00 0. -1.
<mgrwt>
<rscale>  2 0.38629397E+02</rscale>
<asrwt>0</asrwt>
<pdfrwt beam="1">  1       21 0.67689528E-03 0.38629397E+02</pdfrwt>
<pdfrwt beam="2">  1       21 0.54324046E-01 0.38629397E+02</pdfrwt>
<totfact> 0.19077890E+07</totfact>
</mgrwt>
</event>
<event>
 4    1  0.7616518E+004  0.2905503E+02  0.7546771E-02  0.1608775E+00
         21   -1    0    0  503  502  0.00000000000E+00  0.00000000000E+00  0.44288114983E+03  0.44288114983E+03  0.00000000000E+00 0.  1.
         21   -1    0    0  501  503 -0.00000000000E+00 -0.00000000000E+00 -0.19163821284E+01  0.19163821284E+01  0.00000000000E+00 0.  1.
          4    1    1    2  501    0  0.17029245134E+02  0.23541447924E+02  0.23673844451E+03  0.23851475021E+03  0.00000000000E+00 0.  1.
         -4    1    1    2    0  502 -0.17029245134E+02 -0.23541447924E+02  0.20422632320E+03  0.20628278175E+03  0.00000000000E+00 0. -1.
<mgrwt>
<rscale>  2 0.29055033E+02</rscale>
<asrwt>0</asrwt>
<pdfrwt beam="1">  1       21 0.68135480E-01 0.29055033E+02</pdfrwt>
<pdfrwt beam="2">  1       21 0.29482837E-03 0.29055033E+02</pdfrwt>
<totfact> 0.39524258E+07</totfact>
</mgrwt>
</event>
<event>
 4    1  0.7616518E+004  0.2458709E+02  0.7546771E-02  0.1667004E+00
         21   -1    0    0  503  502  0.00000000000E+00  0.00000000000E+00  0.75414542909E+03  0.75414542909E+03  0.00000000000E+00 0. -1.
         21   -1    0    0  501  503 -0.00000000000E+00 -0.00000000000E+00 -0.80930200058E+00  0.80930200058E+00  0.00000000000E+00 0. -1.
          5    1    1    2  501    0 -0.11127840702E+02  0.21924784009E+02  0.41348621500E+03  0.41421657981E+03  0.00000000000E+00 0.  1.
         -5    1    1    2    0  502  0.11127840702E+02 -0.21924784009E+02  0.33984991209E+03  0.34073815128E+03  0.00000000000E+00 0. -1.
<mgrwt>
<rscale>  2 0.24587090E+02</rscale>
<asrwt>0</asrwt>
<pdfrwt beam="1">  1       21 0.11602181E+00 0.24587090E+02</pdfrwt>
<pdfrwt beam="2">  1       21 0.12450860E-03 0.24587090E+02</pdfrwt>
<totfact> 0.42380930E+07</totfact>
</mgrwt>
</event>
<event>
 4    1  0.7616518E+004  0.2555706E+02  0.7546771E-02  0.1653127E+00
         21   -1    0    0  503  502  0.00000000000E+00  0.00000000000E+00  0.96128323847E+03  0.96128323847E+03  0.00000000000E+00 0.  1.
         21   -1    0    0  501  503 -0.00000000000E+00 -0.00000000000E+00 -0.72910450676E+00  0.72910450676E+00  0.00000000000E+00 0.  1.
          5    1    1    2  501    0  0.19500885706E+02 -0.16519041262E+02  0.60577799880E+03  0.60631687021E+03  0.00000000000E+00 0.  1.
         -5    1    1    2    0  502 -0.19500885706E+02  0.16519041262E+02  0.35477613516E+03  0.35569547277E+03  0.00000000000E+00 0. -1.
<mgrwt>
<rscale>  2 0.25557059E+02</rscale>
<asrwt>0</asrwt>
<pdfrwt beam="1">  1       21 0.14788871E+00 0.25557059E+02</pdfrwt>
<pdfrwt beam="2">  1       21 0.11217069E-03 0.25557059E+02</pdfrwt>
<totfact> 0.28250838E+07</totfact>
</mgrwt>
</event>
<event>
 4    1  0.7616518E+004  0.2240460E+02  0.7546771E-02  0.1701347E+00
         21   -1    0    0  503  502  0.00000000000E+00  0.00000000000E+00  0.28022483022E+02  0.28022483022E+02  0.00000000000E+00 0. -1.
         21   -1    0    0  501  503 -0.00000000000E+00 -0.00000000000E+00 -0.21726768857E+02  0.21726768857E+02  0.00000000000E+00 0. -1.
          5    1    1    2  501    0 -0.83025402295E+01 -0.20809467156E+02 -0.72738166449E+01  0.23555774370E+02  0.00000000000E+00 0.  1.
         -5    1    1    2    0  502  0.83025402295E+01  0.20809467156E+02  0.13569530809E+02  0.26193477508E+02  0.00000000000E+00 0. -1.
<mgrwt>
<rscale>  2 0.22404600E+02</rscale>
<asrwt>0</asrwt>
<pdfrwt beam="1">  1       21 0.43111512E-02 0.22404600E+02</pdfrwt>
<pdfrwt beam="2">  1       21 0.33425798E-02 0.22404600E+02</pdfrwt>
<totfact> 0.12153853E+08</totfact>
</mgrwt>
</event>
<event>
 4    1  0.7616518E+004  0.2434389E+02  0.7546771E-02  0.1670609E+00
         21   -1    0    0  503  502  0.00000000000E+00  0.00000000000E+00  0.33422190615E+02  0.33422190615E+02  0.00000000000E+00 0.  1.
         21   -1    0    0  501  503 -0.00000000000E+00 -0.00000000000E+00 -0.17810847302E+02  0.17810847302E+02  0.00000000000E+00 0.  1.
          1    1    1    2  501    0 -0.24340051348E+02 -0.43233055859E+00  0.95156477748E+01  0.26137569931E+02  0.00000000000E+00 0. -1.
         -1    1    1    2    0  502  0.24340051348E+02  0.43233055859E+00  0.60956955382E+01  0.25095467986E+02  0.00000000000E+00 0.  1.
<mgrwt>
<rscale>  2 0.24343891E+02</rscale>
<asrwt>0</asrwt>
<pdfrwt beam="1">  1       21 0.51418755E-02 0.24343891E+02</pdfrwt>
<pdfrwt beam="2">  1       21 0.27401304E-02 0.24343891E+02</pdfrwt>
<totfact> 0.12834348E+08</totfact>
</mgrwt>
</event>
<event>
 4    1  0.7616518E+004  0.2625280E+02  0.7546771E-02  0.1643633E+00
         21   -1    0    0  503  502  0.00000000000E+00  0.00000000000E+00  0.31552338860E+01  0.31552338860E+01  0.00000000000E+00 0.  1.
         21   -1    0    0  501  503 -0.00000000000E+00 -0.00000000000E+00 -0.26355108358E+03  0.26355108358E+03  0.00000000000E+00 0.  1.
          1    1    1    2  501    0 -0.10175363710E+02  0.24200647230E+02 -0.18537300180E+03  0.18722275276E+03  0.00000000000E+00 0.  1.
         -1    1    1    2    0  502  0.10175363710E+02 -0.24200647230E+02 -0.75022847898E+02  0.79483564714E+02  0.00000000000E+00 0. -1.
<mgrwt>
<rscale>  2 0.26252797E+02</rscale>
<asrwt>0</asrwt>
<pdfrwt beam="1">  1       21 0.48542043E-03 0.26252797E+02</pdfrwt>
<pdfrwt beam="2">  1       21 0.40546334E-01 0.26252797E+02</pdfrwt>
<totfact> 0.51748857E+07</totfact>
</mgrwt>
</event>
<event>
 4    1  0.7616518E+004  0.2058521E+02  0.7546771E-02  0.1733935E+00
         21   -1    0    0  501  502  0.00000000000E+00  0.00000000000E+00  0.14782526204E+01  0.14782526204E+01  0.00000000000E+00 0. -1.
         21   -1    0    0  502  503 -0.00000000000E+00 -0.00000000000E+00 -0.34286236776E+03  0.34286236776E+03  0.00000000000E+00 0. -1.
          3    1    1    2  501    0  0.11215652205E+02 -0.17261515709E+02 -0.24040108642E+03  0.24128081799E+03  0.00000000000E+00 0.  1.
         -3    1    1    2    0  503 -0.11215652205E+02  0.17261515709E+02 -0.10098302872E+03  0.10305980239E+03  0.00000000000E+00 0. -1.
<mgrwt>
<rscale>  2 0.20585208E+02</rscale>
<asrwt>0</asrwt>
<pdfrwt beam="1">  1       21 0.22742333E-03 0.20585208E+02</pdfrwt>
<pdfrwt beam="2">  1       21 0.52748092E-01 0.20585208E+02</pdfrwt>
<totfact> 0.89014864E+07</totfact>
</mgrwt>
</event>
<event>
 4    1  0.7616518E+004  0.2475157E+02  0.7546771E-02  0.1664596E+00
         21   -1    0    0  503  502  0.00000000000E+00  0.00000000000E+00  0.29078524737E+02  0.29078524737E+02  0.00000000000E+00 0. -1.
         21   -1    0    0  501  503 -0.00000000000E+00 -0.00000000000E+00 -0.21965742506E+02  0.21965742506E+02  0.00000000000E+00 0. -1.
          4    1    1    2  501    0 -0.17353492992E+02  0.17649262035E+02 -0.16018901712E+01  0.24803351014E+02  0.00000000000E+00 0.  1.
         -4    1    1    2    0  502  0.17353492992E+02 -0.17649262035E+02  0.87146724028E+01  0.26240916228E+02  0.00000000000E+00 0. -1.
<mgrwt>
<rscale>  2 0.24751569E+02</rscale>
<asrwt>0</asrwt>
<pdfrwt beam="1">  1       21 0.44736192E-02 0.24751569E+02</pdfrwt>
<pdfrwt beam="2">  1       21 0.33793450E-02 0.24751569E+02</pdfrwt>
<totfact> 0.11599846E+08</totfact>
</mgrwt>
</event>
<event>
 4    1  0.7616518E+004  0.2184591E+02  0.7546771E-02  0.1710931E+00
         21   -1    0    0  501  502  0.00000000000E+00  0.00000000000E+00  0.84725705526E+02  0.84725705526E+02  0.00000000000E+00 0.  1.
         21   -1    0    0  502  503 -0.00000000000E+00 -0.00000000000E+00 -0.58952308236E+01  0.58952308236E+01  0.00000000000E+00 0.  1.
          4    1    1    2  501    0  0.11074745799E+02  0.18830655768E+02  0.48975049146E+02  0.53626476949E+02  0.00000000000E+00 0.  1.
         -4    1    1    2    0  503 -0.11074745799E+02 -0.18830655768E+02  0.29855425556E+02  0.36994459400E+02  0.00000000000E+00 0. -1.
<mgrwt>
<rscale>  2 0.21845906E+02</rscale>
<asrwt>0</asrwt>
<pdfrwt beam="1">  1       21 0.13034723E-01 0.21845906E+02</pdfrwt>
<pdfrwt beam="2">  1       21 0.90695865E-03 0.21845906E+02</pdfrwt>
<totfact> 0.14623859E+08</totfact>
</mgrwt>
</event>
<event>
 4    1  0.7616518E+004  0.2250255E+02  0.7546771E-02  0.1699703E+00
         21   -1    0    0  501  502  0.00000000000E+00  0.00000000000E+00  0.12320366850E+02  0.12320366850E+02  0.00000000000E+00 0. -1.
         21   -1    0    0  502  503 -0.00000000000E+00 -0.00000000000E+00 -0.41317176445E+02  0.41317176445E+02  0.00000000000E+00 0. -1.
          4    1    1    2  501    0  0.96132923272E+01 -0.20345745513E+02 -0.12553184706E+02  0.25767172839E+02  0.00000000000E+00 0. -1.
         -4    1    1    2    0  503 -0.96132923272E+01  0.20345745513E+02 -0.16443624890E+02  0.27870370456E+02  0.00000000000E+00 0.  1.
<mgrwt>
<rscale>  2 0.22502550E+02</rscale>
<asrwt>0</asrwt>
<pdfrwt beam="1">  1       21 0.18954411E-02 0.22502550E+02</pdfrwt>
<pdfrwt beam="2">  1       21 0.63564885E-02 0.22502550E+02</pdfrwt>
<totfact> 0.15751321E+08</totfact>
</mgrwt>
</event>
<event>
 4    1  0.7616518E+004  0.2113843E+02  0.7546771E-02  0.1723593E+00
         21   -1    0    0  501  502  0.00000000000E+00  0.00000000000E+00  0.26675487403E+03  0.26675487403E+03  0.00000000000E+00 0. -1.
         21   -1    0    0  502  503 -0.00000000000E+00 -0.00000000000E+00 -0.21331731318E+01  0.21331731318E+01  0.00000000000E+00 0. -1.
          5    1    1    2  501    0  0.19825175293E+02  0.73345460851E+01  0.19461399716E+03  0.19575862952E+03  0.00000000000E+00 0.  1.
         -5    1    1    2    0  503 -0.19825175293E+02 -0.73345460851E+01  0.70007703739E+02  0.73129417640E+02  0.00000000000E+00 0. -1.
<mgrwt>
<rscale>  2 0.21138428E+02</rscale>
<asrwt>0</asrwt>
<pdfrwt beam="1">  1       21 0.41039185E-01 0.21138428E+02</pdfrwt>
<pdfrwt beam="2">  1       21 0.32818069E-03 0.21138428E+02</pdfrwt>
<totfact> 0.85219777E+07</totfact>
</mgrwt>
</event>
<event>
 4    1  0.7616518E+004  0.2037039E+02  0.7546771E-02  0.1738061E+00
         21   -1    0    0  501  502  0.00000000000E+00  0.00000000000E+00  0.31386784334E+03  0.31386784334E+03  0.00000000000E+00 0.  1.
         21   -1    0    0  502  503 -0.00000000000E+00 -0.00000000000E+00 -0.13281667571E+01  0.13281667571E+01  0.00000000000E+00 0.  1.
          4    1    1    2  501    0  0.14187317892E+02 -0.14617546793E+02  0.14558499167E+03  0.14700320562E+03  0.00000000000E+00 0.  1.
         -4    1    1    2    0  503 -0.14187317892E+02  0.14617546793E+02  0.16695468491E+03  0.16819280447E+03  0.00000000000E+00 0. -1.
<mgrwt>
<rscale>  2 0.20370387E+02</rscale>
<asrwt>0</asrwt>
<pdfrwt beam="1">  1       21 0.48287301E-01 0.20370387E+02</pdfrwt>
<pdfrwt beam="2">  1       21 0.20433360E-03 0.20370387E+02</pdfrwt>
<totfact> 0.12288712E+08</totfact>
</mgrwt>
</event>
<event>
 4    1  0.7616518E+004  0.2069378E+02  0.7546771E-02  0.1731873E+00
         21   -1    0    0  503  502  0.00000000000E+00  0.00000000000E+00  0.13244674702E+03  0.13244674702E+03  0.00000000000E+00 0.  1.
         21   -1    0    0  501  503 -0.00000000000E+00 -0.00000000000E+00 -0.34467072081E+01  0.34467072081E+01  0.00000000000E+00 0.  1.
          2    1    1    2  501    0 -0.37748831440E+00 -0.20690339348E+02  0.81409409940E+02  0.83998361095E+02  0.00000000000E+00 0. -1.
         -2    1    1    2    0  502  0.37748831440E+00  0.20690339348E+02  0.47590629875E+02  0.51895093137E+02  0.00000000000E+00 0.  1.
<mgrwt>
<rscale>  2 0.20693783E+02</rscale>
<asrwt>0</asrwt>
<pdfrwt beam="1">  1       21 0.20376419E-01 0.20693783E+02</pdfrwt>
<pdfrwt beam="2">  1       21 0.53026275E-03 0.20693783E+02</pdfrwt>
<totfact> 0.14865668E+08</totfact>
</mgrwt>
</event>
<event>
 4    1  0.7616518E+004  0.2086993E+02  0.7546771E-02  0.1728562E+00
         21   -1    0    0  503  502  0.00000000000E+00  0.00000000000E+00  0.18259608875E+02  0.18259608875E+02  0.00000000000E+00 0.  1.
         21   -1    0    0  501  503 -0.00000000000E+00 -0.00000000000E+00 -0.24696864377E+02  0.24696864377E+02  0.00000000000E+00 0.  1.
          1    1    1    2  501    0  0.71305834993E+01  0.19613989525E+02  0.75063964356E+00  0.20883420841E+02  0.00000000000E+00 0. -1.
         -1    1    1    2    0  502 -0.71305834993E+01 -0.19613989525E+02 -0.71878951456E+01  0.22073052412E+02  0.00000000000E+00 0.  1.
<mgrwt>
<rscale>  2 0.20869926E+02</rscale>
<asrwt>0</asrwt>
<pdfrwt beam="1">  1       21 0.28091706E-02 0.20869926E+02</pdfrwt>
<pdfrwt beam="2">  1       21 0.37995176E-02 0.20869926E+02</pdfrwt>
<totfact> 0.19005520E+08</totfact>
</mgrwt>
</event>
<event>
 4    1  0.7616518E+004  0.2170579E+02  0.7546771E-02  0.1713390E+00
         21   -1    0    0  501  502  0.00000000000E+00  0.00000000000E+00  0.96015110508E+01  0.96015110508E+01  0.00000000000E+00 0.  1.
         21   -1    0    0  502  503 -0.00000000000E+00 -0.00000000000E+00 -0.58034154465E+02  0.58034154465E+02  0.00000000000E+00 0.  1.
          3    1    1    2  501    0  0.21335882263E+02  0.39901680762E+01 -0.10924919423E+02  0.24300106534E+02  0.00000000000E+00 0. -1.
         -3    1    1    2    0  503 -0.21335882263E+02 -0.39901680762E+01 -0.37507723992E+02  0.43335558981E+02  0.00000000000E+00 0.  1.
<mgrwt>
<rscale>  2 0.21705790E+02</rscale>
<asrwt>0</asrwt>
<pdfrwt beam="1">  1       21 0.14771555E-02 0.21705790E+02</pdfrwt>
<pdfrwt beam="2">  1       21 0.89283315E-02 0.21705790E+02</pdfrwt>
<totfact> 0.13119999E+08</totfact>
</mgrwt>
</event>
<event>
 4    1  0.7616518E+004  0.3240845E+02  0.7546771E-02  0.1572897E+00
         21   -1    0    0  503  502  0.00000000000E+00  0.00000000000E+00  0.15913201831E+03  0.15913201831E+03  0.00000000000E+00 0.  1.
         21   -1    0    0  501  503 -0.00000000000E+00 -0.00000000000E+00 -0.67762831876E+01  0.67762831876E+01  0.00000000000E+00 0.  1.
          1    1    1    2  501    0  0.22266113170E+02  0.23548417357E+02  0.62806815594E+02  0.70675341109E+02  0.00000000000E+00 0. -1.
         -1    1    1    2    0  502 -0.22266113170E+02 -0.23548417357E+02  0.89548919524E+02  0.95232960385E+02  0.00000000000E+00 0.  1.
<mgrwt>
<rscale>  2 0.32408452E+02</rscale>
<asrwt>0</asrwt>
<pdfrwt beam="1">  1       21 0.24481846E-01 0.32408452E+02</pdfrwt>
<pdfrwt beam="2">  1       21 0.10425052E-02 0.32408452E+02</pdfrwt>
<totfact> 0.43676619E+07</totfact>
</mgrwt>
</event>
<event>
 4    1  0.7616518E+004  0.2645826E+02  0.7546771E-02  0.1640899E+00
         21   -1    0    0  503  502  0.00000000000E+00  0.00000000000E+00  0.14218220567E+03  0.14218220567E+03  0.00000000000E+00 0.  1.
         21   -1    0    0  501  503 -0.00000000000E+00 -0.00000000000E+00 -0.63892634281E+01  0.63892634281E+01  0.00000000000E+00 0.  1.
          2    1    1    2  501    0  0.88680069981E+01  0.24927854444E+02  0.32316437509E+02  0.41765914435E+02  0.00000000000E+00 0.  1.
         -2    1    1    2    0  502 -0.88680069981E+01 -0.24927854444E+02  0.10347650474E+03  0.10680555467E+03  0.00000000000E+00 0. -1.
<mgrwt>
<rscale>  2 0.26458259E+02</rscale>
<asrwt>0</asrwt>
<pdfrwt beam="1">  1       21 0.21874183E-01 0.26458259E+02</pdfrwt>
<pdfrwt beam="2">  1       21 0.98296371E-03 0.26458259E+02</pdfrwt>
<totfact> 0.55885273E+07</totfact>
</mgrwt>
</event>
<event>
 4    1  0.7616518E+004  0.2182946E+02  0.7546771E-02  0.1711218E+00
         21   -1    0    0  501  502  0.00000000000E+00  0.00000000000E+00  0.21953756768E+02  0.21953756768E+02  0.00000000000E+00 0. -1.
         21   -1    0    0  502  503 -0.00000000000E+00 -0.00000000000E+00 -0.21810779236E+02  0.21810779236E+02  0.00000000000E+00 0. -1.
          1    1    1    2  501    0 -0.21427910260E+02  0.41677260125E+01 -0.14461701609E+01  0.21877309852E+02  0.00000000000E+00 0. -1.
         -1    1    1    2    0  503  0.21427910260E+02 -0.41677260125E+01  0.15891476928E+01  0.21887226152E+02  0.00000000000E+00 0.  1.
<mgrwt>
<rscale>  2 0.21829459E+02</rscale>
<asrwt>0</asrwt>
<pdfrwt beam="1">  1       21 0.33775010E-02 0.21829459E+02</pdfrwt>
<pdfrwt beam="2">  1       21 0.33555045E-02 0.21829459E+02</pdfrwt>
<totfact> 0.17582494E+08</totfact>
</mgrwt>
</event>
<event>
 4    1  0.7616518E+004  0.3189007E+02  0.7546771E-02  0.1578089E+00
         21   -1    0    0  503  502  0.00000000000E+00  0.00000000000E+00  0.55280105969E+02  0.55280105969E+02  0.00000000000E+00 0. -1.
         21   -1    0    0  501  503 -0.00000000000E+00 -0.00000000000E+00 -0.27872788790E+02  0.27872788790E+02  0.00000000000E+00 0. -1.
          2    1    1    2  501    0 -0.13326040857E+02 -0.28972288613E+02 -0.10538400714E+02  0.33586228755E+02  0.00000000000E+00 0. -1.
         -2    1    1    2    0  502  0.13326040857E+02  0.28972288613E+02  0.37945717892E+02  0.49566666004E+02  0.00000000000E+00 0.  1.
<mgrwt>
<rscale>  2 0.31890075E+02</rscale>
<asrwt>0</asrwt>
<pdfrwt beam="1">  1       21 0.85046317E-02 0.31890075E+02</pdfrwt>
<pdfrwt beam="2">  1       21 0.42881214E-02 0.31890075E+02</pdfrwt>
<totfact> 0.29789706E+07</totfact>
</mgrwt>
</event>
<event>
 4    1  0.7616518E+004  0.3215937E+02  0.7546771E-02  0.1575377E+00
         21   -1    0    0  501  502  0.00000000000E+00  0.00000000000E+00  0.13937602497E+04  0.13937602497E+04  0.00000000000E+00 0. -1.
         21   -1    0    0  502  503 -0.00000000000E+00 -0.00000000000E+00 -0.76652374646E+00  0.76652374646E+00  0.00000000000E+00 0. -1.
          3    1    1    2  501    0 -0.30143745409E+02  0.11206240137E+02  0.57187990947E+03  0.57278342858E+03  0.00000000000E+00 0.  1.
         -3    1    1    2    0  503  0.30143745409E+02 -0.11206240137E+02  0.82111381653E+03  0.82174334491E+03  0.00000000000E+00 0. -1.
<mgrwt>
<rscale>  2 0.32159372E+02</rscale>
<asrwt>0</asrwt>
<pdfrwt beam="1">  1       21 0.21442263E+00 0.32159372E+02</pdfrwt>
<pdfrwt beam="2">  1       21 0.11792785E-03 0.32159372E+02</pdfrwt>
<totfact> 0.10569208E+07</totfact>
</mgrwt>
</event>
<event>
 4    1  0.7616518E+004  0.2023898E+02  0.7546771E-02  0.1740617E+00
         21   -1    0    0  503  502  0.00000000000E+00  0.00000000000E+00  0.14871547886E+01  0.14871547886E+01  0.00000000000E+00 0.  1.
         21   -1    0    0  501  503 -0.00000000000E+00 -0.00000000000E+00 -0.38473409384E+03  0.38473409384E+03  0.00000000000E+00 0.  1.
          1    1    1    2  501    0 -0.68256897627E+01 -0.19053243105E+02 -0.29455108896E+03  0.29524559289E+03  0.00000000000E+00 0.  1.
         -1    1    1    2    0  502  0.68256897627E+01  0.19053243105E+02 -0.88695850086E+02  0.90975655733E+02  0.00000000000E+00 0. -1.
<mgrwt>
<rscale>  2 0.20238975E+02</rscale>
<asrwt>0</asrwt>
<pdfrwt beam="1">  1       21 0.22879298E-03 0.20238975E+02</pdfrwt>
<pdfrwt beam="2">  1       21 0.59189878E-01 0.20238975E+02</pdfrwt>
<totfact> 0.70047088E+07</totfact>
</mgrwt>
</event>
<event>
 4    1  0.7616518E+004  0.2088697E+02  0.7546771E-02  0.1728244E+00
         21   -1    0    0  503  502  0.00000000000E+00  0.00000000000E+00  0.25137511456E+01  0.25137511456E+01  0.00000000000E+00 0.  1.
         21   -1    0    0  501  503 -0.00000000000E+00 -0.00000000000E+00 -0.17411592733E+03  0.17411592733E+03  0.00000000000E+00 0.  1.
          2    1    1    2  501    0  0.14485102021E+02  0.15048174039E+02 -0.80773600372E+02  0.83430451512E+02  0.00000000000E+00 0.  1.
         -2    1    1    2    0  502 -0.14485102021E+02 -0.15048174039E+02 -0.90828575808E+02  0.93199226959E+02  0.00000000000E+00 0. -1.
<mgrwt>
<rscale>  2 0.20886975E+02</rscale>
<asrwt>0</asrwt>
<pdfrwt beam="1">  1       21 0.38673098E-03 0.20886975E+02</pdfrwt>
<pdfrwt beam="2">  1       21 0.26787063E-01 0.20886975E+02</pdfrwt>
<totfact> 0.14618120E+08</totfact>
</mgrwt>
</event>
<event>
 4    1  0.7616518E+004  0.2051011E+02  0.7546771E-02  0.1735370E+00
         21   -1    0    0  501  502  0.00000000000E+00  0.00000000000E+00  0.39525603209E+02  0.39525603209E+02  0.00000000000E+00 0. -1.
         21   -1    0    0  502  503 -0.00000000000E+00 -0.00000000000E+00 -0.11409478121E+02  0.11409478121E+02  0.00000000000E+00 0. -1.
          1    1    1    2  501    0  0.20396353554E+02  0.21571783939E+01  0.74564592413E+01  0.21823460801E+02  0.00000000000E+00 0.  1.
         -1    1    1    2    0  503 -0.20396353554E+02 -0.21571783939E+01  0.20659665846E+02  0.29111620529E+02  0.00000000000E+00 0. -1.
<mgrwt>
<rscale>  2 0.20510111E+02</rscale>
<asrwt>0</asrwt>
<pdfrwt beam="1">  1       21 0.60808620E-02 0.20510111E+02</pdfrwt>
<pdfrwt beam="2">  1       21 0.17553043E-02 0.20510111E+02</pdfrwt>
<totfact> 0.18472658E+08</totfact>
</mgrwt>
</event>
<event>
 4    1  0.7616518E+004  0.2034847E+02  0.7546771E-02  0.1738486E+00
         21   -1    0    0  501  502  0.00000000000E+00  0.00000000000E+00  0.11053092728E+04  0.11053092728E+04  0.00000000000E+00 0.  1.
         21   -1    0    0  502  503 -0.00000000000E+00 -0.00000000000E+00 -0.40559188524E+00  0.40559188524E+00  0.00000000000E+00 0.  1.
          3    1    1    2  501    0 -0.53236887983E+01  0.19639721930E+02  0.39965312718E+03  0.40017081653E+03  0.00000000000E+00 0.  1.
         -3    1    1    2    0  503  0.53236887983E+01 -0.19639721930E+02  0.70525055375E+03  0.70554404817E+03  0.00000000000E+00 0. -1.
<mgrwt>
<rscale>  2 0.20348473E+02</rscale>
<asrwt>0</asrwt>
<pdfrwt beam="1">  1       21 0.17004517E+00 0.20348473E+02</pdfrwt>
<pdfrwt beam="2">  1       21 0.62399636E-04 0.20348473E+02</pdfrwt>
<totfact> 0.44519726E+07</totfact>
</mgrwt>
</event>
<event>
 4    1  0.7616518E+004  0.3033649E+02  0.7546771E-02  0.1594399E+00
         21   -1    0    0  503  502  0.00000000000E+00  0.00000000000E+00  0.22120958317E+02  0.22120958317E+02  0.00000000000E+00 0. -1.
         21   -1    0    0  501  503 -0.00000000000E+00 -0.00000000000E+00 -0.43596820978E+02  0.43596820978E+02  0.00000000000E+00 0. -1.
          2    1    1    2  501    0 -0.45615933479E+01  0.29991569232E+02 -0.17764579667E+02  0.35155122665E+02  0.00000000000E+00 0. -1.
         -2    1    1    2    0  502  0.45615933479E+01 -0.29991569232E+02 -0.37112829947E+01  0.30562656631E+02  0.00000000000E+00 0.  1.
<mgrwt>
<rscale>  2 0.30336486E+02</rscale>
<asrwt>0</asrwt>
<pdfrwt beam="1">  1       21 0.34032244E-02 0.30336486E+02</pdfrwt>
<pdfrwt beam="2">  1       21 0.67072032E-02 0.30336486E+02</pdfrwt>
<totfact> 0.62929517E+07</totfact>
</mgrwt>
</event>
<event>
 4    1  0.7616518E+004  0.2021449E+02  0.7546771E-02  0.1741096E+00
         21   -1    0    0  501  502  0.00000000000E+00  0.00000000000E+00  0.18154269706E+03  0.18154269706E+03  0.00000000000E+00 0.  1.
         21   -1    0    0  502  503 -0.00000000000E+00 -0.00000000000E+00 -0.25496975009E+01  0.25496975009E+01  0.00000000000E+00 0.  1.
          1    1    1    2  501    0 -0.17728487949E+02  0.97121741149E+01  0.12100918493E+03  0.12268597495E+03  0.00000000000E+00 0. -1.
         -1    1    1    2    0  503  0.17728487949E+02 -0.97121741149E+01  0.57983814627E+02  0.61406419613E+02  0.00000000000E+00 0.  1.
<mgrwt>
<rscale>  2 0.20214490E+02</rscale>
<asrwt>0</asrwt>
<pdfrwt beam="1">  1       21 0.27929636E-01 0.20214490E+02</pdfrwt>
<pdfrwt beam="2">  1       21 0.39226130E-03 0.20214490E+02</pdfrwt>
<totfact> 0.13159440E+08</totfact>
</mgrwt>
</event>
<event>
 4    1  0.7616518E+004  0.2023386E+02  0.7546771E-02  0.1740717E+00
         21   -1    0    0  503  502  0.00000000000E+00  0.00000000000E+00  0.15101543688E+04  0.15101543688E+04  0.00000000000E+00 0. -1.
         21   -1    0    0  501  503 -0.00000000000E+00 -0.00000000000E+00 -0.33043553958E+00  0.33043553958E+00  0.00000000000E+00 0. -1.
          3    1    1    2  501    0  0.74956051686E+01  0.18794285831E+02  0.43488626308E+03  0.43535671707E+03  0.00000000000E+00 0. -1.
         -3    1    1    2    0  502 -0.74956051686E+01 -0.18794285831E+02  0.10749376702E+04  0.10751280873E+04  0.00000000000E+00 0.  1.
<mgrwt>
<rscale>  2 0.20233865E+02</rscale>
<asrwt>0</asrwt>
<pdfrwt beam="1">  1       21 0.23232592E+00 0.20233865E+02</pdfrwt>
<pdfrwt beam="2">  1       21 0.50837446E-04 0.20233865E+02</pdfrwt>
<totfact> 0.26762239E+07</totfact>
</mgrwt>
</event>
<event>
 4    1  0.7616518E+004  0.3686630E+02  0.7546771E-02  0.1532626E+00
         21   -1    0    0  503  502  0.00000000000E+00  0.00000000000E+00  0.10649858533E+03  0.10649858533E+03  0.00000000000E+00 0. -1.
         21   -1    0    0  501  503 -0.00000000000E+00 -0.00000000000E+00 -0.12882601047E+02  0.12882601047E+02  0.00000000000E+00 0. -1.
          3    1    1    2  501    0 -0.36634294184E+02 -0.41294709552E+01  0.41030172934E+02  0.55159760077E+02  0.00000000000E+00 0.  1.
         -3    1    1    2    0  502  0.36634294184E+02  0.41294709552E+01  0.52585811350E+02  0.64221426300E+02  0.00000000000E+00 0. -1.
<mgrwt>
<rscale>  2 0.36866300E+02</rscale>
<asrwt>0</asrwt>
<pdfrwt beam="1">  1       21 0.16384397E-01 0.36866300E+02</pdfrwt>
<pdfrwt beam="2">  1       21 0.19819387E-02 0.36866300E+02</pdfrwt>
<totfact> 0.33958986E+07</totfact>
</mgrwt>
</event>
<event>
 4    1  0.7616518E+004  0.2426714E+02  0.7546771E-02  0.1671757E+00
         21   -1    0    0  503  502  0.00000000000E+00  0.00000000000E+00  0.46697260794E+03  0.46697260794E+03  0.00000000000E+00 0.  1.
         21   -1    0    0  501  503 -0.00000000000E+00 -0.00000000000E+00 -0.13705450646E+01  0.13705450646E+01  0.00000000000E+00 0.  1.
          5    1    1    2  501    0  0.23878340085E+02 -0.43265666096E+01  0.29897790185E+03  0.29996113098E+03  0.00000000000E+00 0.  1.
         -5    1    1    2    0  502 -0.23878340085E+02  0.43265666096E+01  0.16662416103E+03  0.16838202202E+03  0.00000000000E+00 0. -1.
<mgrwt>
<rscale>  2 0.24267145E+02</rscale>
<asrwt>0</asrwt>
<pdfrwt beam="1">  1       21 0.71841812E-01 0.24267145E+02</pdfrwt>
<pdfrwt beam="2">  1       21 0.21085346E-03 0.24267145E+02</pdfrwt>
<totfact> 0.55647218E+07</totfact>
</mgrwt>
</event>
<event>
 4    1  0.7616518E+004  0.2074570E+02  0.7546771E-02  0.1730893E+00
         21   -1    0    0  503  502  0.00000000000E+00  0.00000000000E+00  0.35798699867E+01  0.35798699867E+01  0.00000000000E+00 0. -1.
         21   -1    0    0  501  503 -0.00000000000E+00 -0.00000000000E+00 -0.12798950536E+03  0.12798950536E+03  0.00000000000E+00 0. -1.
          3    1    1    2  501    0 -0.15429056331E+02 -0.13868250930E+02 -0.78409447186E+02  0.81107493927E+02  0.00000000000E+00 0. -1.
         -3    1    1    2    0  502  0.15429056331E+02  0.13868250930E+02 -0.46000188187E+02  0.50461881420E+02  0.00000000000E+00 0.  1.
<mgrwt>
<rscale>  2 0.20745702E+02</rscale>
<asrwt>0</asrwt>
<pdfrwt beam="1">  1       21 0.55074925E-03 0.20745702E+02</pdfrwt>
<pdfrwt beam="2">  1       21 0.19690693E-01 0.20745702E+02</pdfrwt>
<totfact> 0.14931292E+08</totfact>
</mgrwt>
</event>
<event>
 4    1  0.7616518E+004  0.2214924E+02  0.7546771E-02  0.1705684E+00
         21   -1    0    0  501  502  0.00000000000E+00  0.00000000000E+00  0.24389940693E+03  0.24389940693E+03  0.00000000000E+00 0. -1.
         21   -1    0    0  502  503 -0.00000000000E+00 -0.00000000000E+00 -0.20153729479E+01  0.20153729479E+01  0.00000000000E+00 0. -1.
          3    1    1    2  501    0 -0.16334255917E+02  0.14959314806E+02  0.11551029345E+03  0.11761469683E+03  0.00000000000E+00 0. -1.
         -3    1    1    2    0  503  0.16334255917E+02 -0.14959314806E+02  0.12637374053E+03  0.12830008305E+03  0.00000000000E+00 0.  1.
<mgrwt>
<rscale>  2 0.22149244E+02</rscale>
<asrwt>0</asrwt>
<pdfrwt beam="1">  1       21 0.37522962E-01 0.22149244E+02</pdfrwt>
<pdfrwt beam="2">  1       21 0.31005757E-03 0.22149244E+02</pdfrwt>
<totfact> 0.11087485E+08</totfact>
</mgrwt>
</event>
<event>
 4    1  0.7616518E+004  0.8114363E+02  0.7546771E-02  0.1325837E+00
         21   -1    0    0  503  502  0.00000000000E+00  0.00000000000E+00  0.24928639058E+02  0.24928639058E+02  0.00000000000E+00 0. -1.
         21   -1    0    0  501  503 -0.00000000000E+00 -0.00000000000E+00 -0.27781782831E+03  0.27781782831E+03  0.00000000000E+00 0. -1.
          4    1    1    2  501    0  0.26941837896E+02 -0.76540357913E+02 -0.16004989914E+03  0.17944430677E+03  0.00000000000E+00 0.  1.
         -4    1    1    2    0  502 -0.26941837896E+02  0.76540357913E+02 -0.92839290112E+02  0.12330216059E+03  0.00000000000E+00 0. -1.
<mgrwt>
<rscale>  2 0.81143632E+02</rscale>
<asrwt>0</asrwt>
<pdfrwt beam="1">  1       21 0.38351755E-02 0.81143632E+02</pdfrwt>
<pdfrwt beam="2">  1       21 0.42741201E-01 0.81143632E+02</pdfrwt>
<totfact> 0.21672711E+06</totfact>
</mgrwt>
</event>
<event>
 4    1  0.7616518E+004  0.2616374E+02  0.7546771E-02  0.1644828E+00
         21   -1    0    0  503  502  0.00000000000E+00  0.00000000000E+00  0.22270629294E+02  0.22270629294E+02  0.00000000000E+00 0.  1.
         21   -1    0    0  501  503 -0.00000000000E+00 -0.00000000000E+00 -0.32794825434E+02  0.32794825434E+02  0.00000000000E+00 0.  1.
          4    1    1    2  501    0 -0.16166299352E+02 -0.20571632537E+02  0.16340780518E+01  0.26214719359E+02  0.00000000000E+00 0. -1.
         -4    1    1    2    0  502  0.16166299352E+02  0.20571632537E+02 -0.12158274192E+02  0.28850735369E+02  0.00000000000E+00 0.  1.
<mgrwt>
<rscale>  2 0.26163740E+02</rscale>
<asrwt>0</asrwt>
<pdfrwt beam="1">  1       21 0.34262507E-02 0.26163740E+02</pdfrwt>
<pdfrwt beam="2">  1       21 0.50453578E-02 0.26163740E+02</pdfrwt>
<totfact> 0.95103804E+07</totfact>
</mgrwt>
</event>
<event>
 4    1  0.7616518E+004  0.2406778E+02  0.7546771E-02  0.1674764E+00
         21   -1    0    0  501  502  0.00000000000E+00  0.00000000000E+00  0.10536377956E+04  0.10536377956E+04  0.00000000000E+00 0.  1.
         21   -1    0    0  502  503 -0.00000000000E+00 -0.00000000000E+00 -0.59383213903E+00  0.59383213903E+00  0.00000000000E+00 0.  1.
          3    1    1    2  501    0  0.23989703014E+02 -0.19369951888E+01  0.38293666717E+03  0.38369225802E+03  0.00000000000E+00 0. -1.
         -3    1    1    2    0  503 -0.23989703014E+02  0.19369951888E+01  0.67010729631E+03  0.67053936974E+03  0.00000000000E+00 0.  1.
<mgrwt>
<rscale>  2 0.24067775E+02</rscale>
<asrwt>0</asrwt>
<pdfrwt beam="1">  1       21 0.16209663E+00 0.24067775E+02</pdfrwt>
<pdfrwt beam="2">  1       21 0.91359634E-04 0.24067775E+02</pdfrwt>
<totfact> 0.30073967E+07</totfact>
</mgrwt>
</event>
<event>
 4    1  0.7616518E+004  0.4479120E+02  0.7546771E-02  0.1475649E+00
         21   -1    0    0  501  502  0.00000000000E+00  0.00000000000E+00  0.35513312725E+03  0.35513312725E+03  0.00000000000E+00 0.  1.
         21   -1    0    0  502  503 -0.00000000000E+00 -0.00000000000E+00 -0.60241455096E+01  0.60241455096E+01  0.00000000000E+00 0.  1.
          1    1    1    2  501    0  0.32131234795E+02  0.31206334213E+02  0.21959964864E+03  0.22412107716E+03  0.00000000000E+00 0.  1.
         -1    1    1    2    0  503 -0.32131234795E+02 -0.31206334213E+02  0.12950933311E+03  0.13703619560E+03  0.00000000000E+00 0. -1.
<mgrwt>
<rscale>  2 0.44791199E+02</rscale>
<asrwt>0</asrwt>
<pdfrwt beam="1">  1       21 0.54635849E-01 0.44791199E+02</pdfrwt>
<pdfrwt beam="2">  1       21 0.92679190E-03 0.44791199E+02</pdfrwt>
<totfact> 0.11928342E+07</totfact>
</mgrwt>
</event>
<event>
 4    1  0.7616518E+004  0.2137253E+02  0.7546771E-02  0.1719335E+00
         21   -1    0    0  503  502  0.00000000000E+00  0.00000000000E+00  0.26289957442E+02  0.26289957442E+02  0.00000000000E+00 0.  1.
         21   -1    0    0  501  503 -0.00000000000E+00 -0.00000000000E+00 -0.19048059017E+02  0.19048059017E+02  0.00000000000E+00 0.  1.
          2    1    1    2  501    0 -0.20576162462E+02 -0.57798307306E+01 -0.30976404606E+01  0.21595839446E+02  0.00000000000E+00 0. -1.
         -2    1    1    2    0  502  0.20576162462E+02  0.57798307306E+01  0.10339538885E+02  0.23742177013E+02  0.00000000000E+00 0.  1.
<mgrwt>
<rscale>  2 0.21372527E+02</rscale>
<asrwt>0</asrwt>
<pdfrwt beam="1">  1       21 0.40446088E-02 0.21372527E+02</pdfrwt>
<pdfrwt beam="2">  1       21 0.29304706E-02 0.21372527E+02</pdfrwt>
<totfact> 0.16259485E+08</totfact>
</mgrwt>
</event>
<event>
 4    1  0.7616518E+004  0.2562944E+02  0.7546771E-02  0.1652122E+00
         21   -1    0    0  503  502  0.00000000000E+00  0.00000000000E+00  0.14457810022E+03  0.14457810022E+03  0.00000000000E+00 0. -1.
         21   -1    0    0  501  503 -0.00000000000E+00 -0.00000000000E+00 -0.46214646347E+01  0.46214646347E+01  0.00000000000E+00 0. -1.
          4    1    1    2  501    0 -0.19712381987E+02  0.16379573581E+02  0.79677232159E+02  0.83697847994E+02  0.00000000000E+00 0.  1.
         -4    1    1    2    0  502  0.19712381987E+02 -0.16379573581E+02  0.60279403425E+02  0.65501716860E+02  0.00000000000E+00 0. -1.
<mgrwt>
<rscale>  2 0.25629445E+02</rscale>
<asrwt>0</asrwt>
<pdfrwt beam="1">  1       21 0.22242781E-01 0.25629445E+02</pdfrwt>
<pdfrwt beam="2">  1       21 0.71099467E-03 0.25629445E+02</pdfrwt>
<totfact> 0.87551817E+07</totfact>
</mgrwt>
</event>
<event>
 4    1  0.7616518E+004  0.2417177E+02  0.7546771E-02  0.1673191E+00
         21   -1    0    0  503  502  0.00000000000E+00  0.00000000000E+00  0.22113738812E+02  0.22113738812E+02  0.00000000000E+00 0. -1.
         21   -1    0    0  501  503 -0.00000000000E+00 -0.00000000000E+00 -0.29681693526E+02  0.29681693526E+02  0.00000000000E+00 0. -1.
          4    1    1    2  501    0  0.81028989160E+01 -0.22773179432E+02 -0.12367178564E+02  0.27151828261E+02  0.00000000000E+00 0. -1.
         -4    1    1    2    0  502 -0.81028989160E+01  0.22773179432E+02  0.47992238496E+01  0.24643604076E+02  0.00000000000E+00 0.  1.
<mgrwt>
<rscale>  2 0.24171774E+02</rscale>
<asrwt>0</asrwt>
<pdfrwt beam="1">  1       21 0.34021137E-02 0.24171774E+02</pdfrwt>
<pdfrwt beam="2">  1       21 0.45664144E-02 0.24171774E+02</pdfrwt>
<totfact> 0.11036574E+08</totfact>
</mgrwt>
</event>
<event>
 4    1  0.7616518E+004  0.2970927E+02  0.7546771E-02  0.1601325E+00
         21   -1    0    0  501  502  0.00000000000E+00  0.00000000000E+00  0.26642332504E+03  0.26642332504E+03  0.00000000000E+00 0.  1.
         21   -1    0    0  502  503 -0.00000000000E+00 -0.00000000000E+00 -0.38794065920E+01  0.38794065920E+01  0.00000000000E+00 0.  1.
          5    1    1    2  501    0 -0.29709095277E+02 -0.10240671429E+00  0.18291718827E+03  0.18531416188E+03  0.00000000000E+00 0. -1.
         -5    1    1    2    0  503  0.29709095277E+02  0.10240671429E+00  0.79626730175E+02  0.84988569748E+02  0.00000000000E+00 0.  1.
<mgrwt>
<rscale>  2 0.29709272E+02</rscale>
<asrwt>0</asrwt>
<pdfrwt beam="1">  1       21 0.40988189E-01 0.29709272E+02</pdfrwt>
<pdfrwt beam="2">  1       21 0.59683199E-03 0.29709272E+02</pdfrwt>
<totfact> 0.38268902E+07</totfact>
</mgrwt>
</event>
<event>
 4    1  0.7616518E+004  0.2099866E+02  0.7546771E-02  0.1726168E+00
         21   -1    0    0  503  502  0.00000000000E+00  0.00000000000E+00  0.76014395977E+02  0.76014395977E+02  0.00000000000E+00 0.  1.
         21   -1    0    0  501  503 -0.00000000000E+00 -0.00000000000E+00 -0.65062295340E+01  0.65062295340E+01  0.00000000000E+00 0.  1.
          1    1    1    2  501    0  0.20306723721E+02  0.53461096831E+01  0.21167938755E+02  0.29816531458E+02  0.00000000000E+00 0.  1.
         -1    1    1    2    0  502 -0.20306723721E+02 -0.53461096831E+01  0.48340227688E+02  0.52704094053E+02  0.00000000000E+00 0. -1.
<mgrwt>
<rscale>  2 0.20998665E+02</rscale>
<asrwt>0</asrwt>
<pdfrwt beam="1">  1       21 0.11694522E-01 0.20998665E+02</pdfrwt>
<pdfrwt beam="2">  1       21 0.10009584E-02 0.20998665E+02</pdfrwt>
<totfact> 0.14949336E+08</totfact>
</mgrwt>
</event>
<event>
 4    1  0.7616518E+004  0.2128605E+02  0.7546771E-02  0.1720900E+00
         21   -1    0    0  503  502  0.00000000000E+00  0.00000000000E+00  0.17326658938E+02  0.17326658938E+02  0.00000000000E+00 0.  1.
         21   -1    0    0  501  503 -0.00000000000E+00 -0.00000000000E+00 -0.52480931265E+02  0.52480931265E+02  0.00000000000E+00 0.  1.
          3    1    1    2  501    0  0.46885097502E+01 -0.20763282444E+02 -0.42300248494E+02  0.47354060483E+02  0.00000000000E+00 0. -1.
         -3    1    1    2    0  502 -0.46885097502E+01  0.20763282444E+02  0.71459761669E+01  0.22453529721E+02  0.00000000000E+00 0.  1.
<mgrwt>
<rscale>  2 0.21286052E+02</rscale>
<asrwt>0</asrwt>
<pdfrwt beam="1">  1       21 0.26656399E-02 0.21286052E+02</pdfrwt>
<pdfrwt beam="2">  1       21 0.80739893E-02 0.21286052E+02</pdfrwt>
<totfact> 0.62300598E+07</totfact>
</mgrwt>
</event>
<event>
 4    1  0.7616518E+004  0.2044798E+02  0.7546771E-02  0.1736563E+00
         21   -1    0    0  501  502  0.00000000000E+00  0.00000000000E+00  0.60407949015E+00  0.60407949015E+00  0.00000000000E+00 0.  1.
         21   -1    0    0  502  503 -0.00000000000E+00 -0.00000000000E+00 -0.80869688144E+03  0.80869688144E+03  0.00000000000E+00 0.  1.
          4    1    1    2  501    0  0.15666502433E+02  0.13140795445E+02 -0.25043677576E+03  0.25127017025E+03  0.00000000000E+00 0. -1.
         -4    1    1    2    0  503 -0.15666502433E+02 -0.13140795445E+02 -0.55765602619E+03  0.55803079069E+03  0.00000000000E+00 0.  1.
<mgrwt>
<rscale>  2 0.20447978E+02</rscale>
<asrwt>0</asrwt>
<pdfrwt beam="1">  1       21 0.92935473E-04 0.20447978E+02</pdfrwt>
<pdfrwt beam="2">  1       21 0.12441468E+00 0.20447978E+02</pdfrwt>
<totfact> 0.52771985E+07</totfact>
</mgrwt>
</event>
<event>
 4    1  0.7616518E+004  0.2297971E+02  0.7546771E-02  0.1691839E+00
         21   -1    0    0  501  502  0.00000000000E+00  0.00000000000E+00  0.53583389088E+02  0.53583389088E+02  0.00000000000E+00 0.  1.
         21   -1    0    0  502  503 -0.00000000000E+00 -0.00000000000E+00 -0.98566559460E+01  0.98566559460E+01  0.00000000000E+00 0.  1.
          4    1    1    2  501    0 -0.39221913628E+01 -0.22642511602E+02  0.21458333698E+02  0.31440849255E+02  0.00000000000E+00 0.  1.
         -4    1    1    2    0  503  0.39221913628E+01  0.22642511602E+02  0.22268399444E+02  0.31999195779E+02  0.00000000000E+00 0. -1.
<mgrwt>
<rscale>  2 0.22979707E+02</rscale>
<asrwt>0</asrwt>
<pdfrwt beam="1">  1       21 0.82435982E-02 0.22979707E+02</pdfrwt>
<pdfrwt beam="2">  1       21 0.15164086E-02 0.22979707E+02</pdfrwt>
<totfact> 0.14614107E+08</totfact>
</mgrwt>
</event>
<event>
 4    1  0.7616518E+004  0.3124403E+02  0.7546771E-02  0.1584731E+00
         21   -1    0    0  501  502  0.00000000000E+00  0.00000000000E+00  0.13117386751E+01  0.13117386751E+01  0.00000000000E+00 0.  1.
         21   -1    0    0  502  503 -0.00000000000E+00 -0.00000000000E+00 -0.78504556645E+03  0.78504556645E+03  0.00000000000E+00 0.  1.
          5    1    1    2  501    0  0.41275164543E+01 -0.30970195830E+02 -0.30217747607E+03  0.30378844031E+03  0.00000000000E+00 0.  1.
         -5    1    1    2    0  503 -0.41275164543E+01  0.30970195830E+02 -0.48155635170E+03  0.48256886481E+03  0.00000000000E+00 0. -1.
<mgrwt>
<rscale>  2 0.31244030E+02</rscale>
<asrwt>0</asrwt>
<pdfrwt beam="1">  1       21 0.20180566E-03 0.31244030E+02</pdfrwt>
<pdfrwt beam="2">  1       21 0.12077641E+00 0.31244030E+02</pdfrwt>
<totfact> 0.20054960E+07</totfact>
</mgrwt>
</event>
<event>
 4    1  0.7616518E+004  0.2746286E+02  0.7546771E-02  0.1627955E+00
         21   -1    0    0  503  502  0.00000000000E+00  0.00000000000E+00  0.12608048841E+03  0.12608048841E+03  0.00000000000E+00 0. -1.
         21   -1    0    0  501  503 -0.00000000000E+00 -0.00000000000E+00 -0.62896755037E+01  0.62896755037E+01  0.00000000000E+00 0. -1.
          5    1    1    2  501    0 -0.26389453888E+02  0.76029821640E+01  0.74534685711E+02  0.79433166803E+02  0.00000000000E+00 0.  1.
         -5    1    1    2    0  502  0.26389453888E+02 -0.76029821640E+01  0.45256127191E+02  0.52936997106E+02  0.00000000000E+00 0. -1.
<mgrwt>
<rscale>  2 0.27462859E+02</rscale>
<asrwt>0</asrwt>
<pdfrwt beam="1">  1       21 0.19396996E-01 0.27462859E+02</pdfrwt>
<pdfrwt beam="2">  1       21 0.96764248E-03 0.27462859E+02</pdfrwt>
<totfact> 0.71343909E+07</totfact>
</mgrwt>
</event>
<event>
 4    1  0.7616518E+004  0.3949765E+02  0.7546771E-02  0.1511941E+00
         21   -1    0    0  503  502  0.00000000000E+00  0.00000000000E+00  0.12696501159E+03  0.12696501159E+03  0.00000000000E+00 0. -1.
         21   -1    0    0  501  503 -0.00000000000E+00 -0.00000000000E+00 -0.17053526167E+02  0.17053526167E+02  0.00000000000E+00 0. -1.
          3    1    1    2  501    0  0.37098513530E+02 -0.13555979481E+02  0.93024270470E+02  0.10106225399E+03  0.00000000000E+00 0.  1.
         -3    1    1    2    0  502 -0.37098513530E+02  0.13555979481E+02  0.16887214950E+02  0.42956283761E+02  0.00000000000E+00 0. -1.
<mgrwt>
<rscale>  2 0.39497649E+02</rscale>
<asrwt>0</asrwt>
<pdfrwt beam="1">  1       21 0.19533078E-01 0.39497649E+02</pdfrwt>
<pdfrwt beam="2">  1       21 0.26236195E-02 0.39497649E+02</pdfrwt>
<totfact> 0.16227876E+07</totfact>
</mgrwt>
</event>
<event>
 4    1  0.7616518E+004  0.8785033E+02  0.7546771E-02  0.1308143E+00
         21   -1    0    0  503  502  0.00000000000E+00  0.00000000000E+00  0.36474882367E+03  0.36474882367E+03  0.00000000000E+00 0.  1.
         21   -1    0    0  501  503 -0.00000000000E+00 -0.00000000000E+00 -0.25934869466E+02  0.25934869466E+02  0.00000000000E+00 0.  1.
          5    1    1    2  501    0  0.33060899989E+02  0.81392002509E+02  0.25323406195E+03  0.26803949580E+03  0.00000000000E+00 0. -1.
         -5    1    1    2    0  502 -0.33060899989E+02 -0.81392002509E+02  0.85579892257E+02  0.12264419733E+03  0.00000000000E+00 0.  1.
<mgrwt>
<rscale>  2 0.87850334E+02</rscale>
<asrwt>0</asrwt>
<pdfrwt beam="1">  1       21 0.56115200E-01 0.87850334E+02</pdfrwt>
<pdfrwt beam="2">  1       21 0.39899802E-02 0.87850334E+02</pdfrwt>
<totfact> 0.11709231E+06</totfact>
</mgrwt>
</event>
<event>
 4    1  0.7616518E+004  0.2001926E+02  0.7546771E-02  0.1744945E+00
         21   -1    0    0  503  502  0.00000000000E+00  0.00000000000E+00  0.11578058854E+03  0.11578058854E+03  0.00000000000E+00 0. -1.
         21   -1    0    0  501  503 -0.00000000000E+00 -0.00000000000E+00 -0.42435123687E+01  0.42435123687E+01  0.00000000000E+00 0. -1.
          1    1    1    2  501    0 -0.74033156249E+01 -0.18600040520E+02  0.30005804880E+02  0.36071025992E+02  0.00000000000E+00 0.  1.
         -1    1    1    2    0  502  0.74033156249E+01  0.18600040520E+02  0.81531271290E+02  0.83953074916E+02  0.00000000000E+00 0. -1.
<mgrwt>
<rscale>  2 0.20019255E+02</rscale>
<asrwt>0</asrwt>
<pdfrwt beam="1">  1       21 0.17812396E-01 0.20019255E+02</pdfrwt>
<pdfrwt beam="2">  1       21 0.65284814E-03 0.20019255E+02</pdfrwt>
<totfact> 0.13663157E+08</totfact>
</mgrwt>
</event>
<event>
 4    1  0.7616518E+004  0.2214273E+02  0.7546771E-02  0.1705795E+00
         21   -1    0    0  501  502  0.00000000000E+00  0.00000000000E+00  0.10729094729E+02  0.10729094729E+02  0.00000000000E+00 0.  1.
         21   -1    0    0  502  503 -0.00000000000E+00 -0.00000000000E+00 -0.45771741003E+02  0.45771741003E+02  0.00000000000E+00 0.  1.
          2    1    1    2  501    0  0.71507419039E+01  0.20956318080E+02 -0.18653656452E+02  0.28952707581E+02  0.00000000000E+00 0. -1.
         -2    1    1    2    0  503 -0.71507419039E+01 -0.20956318080E+02 -0.16388989822E+02  0.27548128151E+02  0.00000000000E+00 0.  1.
<mgrwt>
<rscale>  2 0.22142727E+02</rscale>
<asrwt>0</asrwt>
<pdfrwt beam="1">  1       21 0.16506299E-02 0.22142727E+02</pdfrwt>
<pdfrwt beam="2">  1       21 0.70418064E-02 0.22142727E+02</pdfrwt>
<totfact> 0.16409139E+08</totfact>
</mgrwt>
</event>
<event>
 4    1  0.7616518E+004  0.5185150E+02  0.7546771E-02  0.1435603E+00
         21   -1    0    0  503  502  0.00000000000E+00  0.00000000000E+00  0.72193304164E+02  0.72193304164E+02  0.00000000000E+00 0. -1.
         21   -1    0    0  501  503 -0.00000000000E+00 -0.00000000000E+00 -0.37376455831E+02  0.37376455831E+02  0.00000000000E+00 0. -1.
          3    1    1    2  501    0 -0.85184053609E+01 -0.51146996470E+02  0.14115013107E+02  0.53738366860E+02  0.00000000000E+00 0.  1.
         -3    1    1    2    0  502  0.85184053609E+01  0.51146996470E+02  0.20701835225E+02  0.55831393136E+02  0.00000000000E+00 0. -1.
<mgrwt>
<rscale>  2 0.51851504E+02</rscale>
<asrwt>0</asrwt>
<pdfrwt beam="1">  1       21 0.11106662E-01 0.51851504E+02</pdfrwt>
<pdfrwt beam="2">  1       21 0.57502240E-02 0.51851504E+02</pdfrwt>
<totfact> 0.12738533E+07</totfact>
</mgrwt>
</event>
<event>
 4    1  0.7616518E+004  0.2117210E+02  0.7546771E-02  0.1722976E+00
         21   -1    0    0  501  502  0.00000000000E+00  0.00000000000E+00  0.10030209721E+02  0.10030209721E+02  0.00000000000E+00 0.  1.
         21   -1    0    0  502  503 -0.00000000000E+00 -0.00000000000E+00 -0.44743155207E+02  0.44743155207E+02  0.00000000000E+00 0.  1.
          5    1    1    2  501    0  0.62961629913E+01 -0.20214258520E+02 -0.16419491804E+02  0.26792865226E+02  0.00000000000E+00 0. -1.
         -5    1    1    2    0  503 -0.62961629913E+01  0.20214258520E+02 -0.18293453682E+02  0.27980499702E+02  0.00000000000E+00 0.  1.
<mgrwt>
<rscale>  2 0.21172102E+02</rscale>
<asrwt>0</asrwt>
<pdfrwt beam="1">  1       21 0.15431092E-02 0.21172102E+02</pdfrwt>
<pdfrwt beam="2">  1       21 0.68835624E-02 0.21172102E+02</pdfrwt>
<totfact> 0.18595457E+08</totfact>
</mgrwt>
</event>
<event>
 4    1  0.7616518E+004  0.2526536E+02  0.7546771E-02  0.1657219E+00
         21   -1    0    0  501  502  0.00000000000E+00  0.00000000000E+00  0.49195554490E+02  0.49195554490E+02  0.00000000000E+00 0. -1.
         21   -1    0    0  502  503 -0.00000000000E+00 -0.00000000000E+00 -0.13169408173E+02  0.13169408173E+02  0.00000000000E+00 0. -1.
          4    1    1    2  501    0 -0.25260637702E+02 -0.48847658715E+00  0.14229594901E+02  0.28996892895E+02  0.00000000000E+00 0. -1.
         -4    1    1    2    0  503  0.25260637702E+02  0.48847658715E+00  0.21796551416E+02  0.33368069769E+02  0.00000000000E+00 0.  1.
<mgrwt>
<rscale>  2 0.25265360E+02</rscale>
<asrwt>0</asrwt>
<pdfrwt beam="1">  1       21 0.75685468E-02 0.25265360E+02</pdfrwt>
<pdfrwt beam="2">  1       21 0.20260628E-02 0.25265360E+02</pdfrwt>
<totfact> 0.11082193E+08</totfact>
</mgrwt>
</event>
<event>
 4    1  0.7616518E+004  0.2049438E+02  0.7546771E-02  0.1735672E+00
         21   -1    0    0  501  502  0.00000000000E+00  0.00000000000E+00  0.10610510877E+01  0.10610510877E+01  0.00000000000E+00 0.  1.
         21   -1    0    0  502  503 -0.00000000000E+00 -0.00000000000E+00 -0.89716816470E+03  0.89716816470E+03  0.00000000000E+00 0.  1.
          3    1    1    2  501    0  0.18902492993E+02 -0.79192949927E+01 -0.11233450020E+03  0.11418870088E+03  0.00000000000E+00 0.  1.
         -3    1    1    2    0  503 -0.18902492993E+02  0.79192949927E+01 -0.78377261342E+03  0.78404051491E+03  0.00000000000E+00 0. -1.
<mgrwt>
<rscale>  2 0.20494377E+02</rscale>
<asrwt>0</asrwt>
<pdfrwt beam="1">  1       21 0.16323899E-03 0.20494377E+02</pdfrwt>
<pdfrwt beam="2">  1       21 0.13802556E+00 0.20494377E+02</pdfrwt>
<totfact> 0.18666791E+07</totfact>
</mgrwt>
</event>
<event>
 4    1  0.7616518E+004  0.2054464E+02  0.7546771E-02  0.1734709E+00
         21   -1    0    0  501  502  0.00000000000E+00  0.00000000000E+00  0.19200074175E+02  0.19200074175E+02  0.00000000000E+00 0. -1.
         21   -1    0    0  502  503 -0.00000000000E+00 -0.00000000000E+00 -0.22018454468E+02  0.22018454468E+02  0.00000000000E+00 0. -1.
          1    1    1    2  501    0 -0.12408159924E+02 -0.16374369554E+02 -0.58656515715E+00  0.20553016072E+02  0.00000000000E+00 0.  1.
         -1    1    1    2    0  503  0.12408159924E+02  0.16374369554E+02 -0.22318151364E+01  0.20665512570E+02  0.00000000000E+00 0. -1.
<mgrwt>
<rscale>  2 0.20544644E+02</rscale>
<asrwt>0</asrwt>
<pdfrwt beam="1">  1       21 0.29538576E-02 0.20544644E+02</pdfrwt>
<pdfrwt beam="2">  1       21 0.33874545E-02 0.20544644E+02</pdfrwt>
<totfact> 0.20930618E+08</totfact>
</mgrwt>
</event>
<event>
 4    1  0.7616518E+004  0.2178887E+02  0.7546771E-02  0.1711929E+00
         21   -1    0    0  501  502  0.00000000000E+00  0.00000000000E+00  0.58256163865E+02  0.58256163865E+02  0.00000000000E+00 0. -1.
         21   -1    0    0  502  503 -0.00000000000E+00 -0.00000000000E+00 -0.10038864666E+02  0.10038864666E+02  0.00000000000E+00 0. -1.
          1    1    1    2  501    0  0.19695047082E+02  0.93198604722E+01  0.92943050768E+01  0.23688368151E+02  0.00000000000E+00 0.  1.
         -1    1    1    2    0  503 -0.19695047082E+02 -0.93198604722E+01  0.38922994122E+02  0.44606660380E+02  0.00000000000E+00 0. -1.
<mgrwt>
<rscale>  2 0.21788866E+02</rscale>
<asrwt>0</asrwt>
<pdfrwt beam="1">  1       21 0.89624866E-02 0.21788866E+02</pdfrwt>
<pdfrwt beam="2">  1       21 0.15444407E-02 0.21788866E+02</pdfrwt>
<totfact> 0.12199951E+08</totfact>
</mgrwt>
</event>
<event>
 4    1  0.7616518E+004  0.2925642E+02  0.7546771E-02  0.1606456E+00
         21   -1    0    0  501  502  0.00000000000E+00  0.00000000000E+00  0.35000517333E+02  0.35000517333E+02  0.00000000000E+00 0. -1.
         21   -1    0    0  502  503 -0.00000000000E+00 -0.00000000000E+00 -0.25962637538E+02  0.25962637538E+02  0.00000000000E+00 0. -1.
          5    1    1    2  501    0 -0.11259180787E+02  0.27003130951E+02  0.11864232659E+02  0.31570528183E+02  0.00000000000E+00 0.  1.
         -5    1    1    2    0  503  0.11259180787E+02 -0.27003130951E+02 -0.28263528643E+01  0.29392626689E+02  0.00000000000E+00 0. -1.
<mgrwt>
<rscale>  2 0.29256422E+02</rscale>
<asrwt>0</asrwt>
<pdfrwt beam="1">  1       21 0.53846950E-02 0.29256422E+02</pdfrwt>
<pdfrwt beam="2">  1       21 0.39942519E-02 0.29256422E+02</pdfrwt>
<totfact> 0.69141260E+07</totfact>
</mgrwt>
</event>
<event>
 4    1  0.7616518E+004  0.2217682E+02  0.7546771E-02  0.1705212E+00
         21   -1    0    0  501  502  0.00000000000E+00  0.00000000000E+00  0.37151414304E+02  0.37151414304E+02  0.00000000000E+00 0. -1.
         21   -1    0    0  502  503 -0.00000000000E+00 -0.00000000000E+00 -0.34950741736E+02  0.34950741736E+02  0.00000000000E+00 0. -1.
          4    1    1    2  501    0  0.11016223803E+02  0.19247190180E+02  0.29515299364E+02  0.36918347921E+02  0.00000000000E+00 0. -1.
         -4    1    1    2    0  503 -0.11016223803E+02 -0.19247190180E+02 -0.27314626796E+02  0.35183808119E+02  0.00000000000E+00 0.  1.
<mgrwt>
<rscale>  2 0.22176824E+02</rscale>
<asrwt>0</asrwt>
<pdfrwt beam="1">  1       21 0.57156022E-02 0.22176824E+02</pdfrwt>
<pdfrwt beam="2">  1       21 0.53770372E-02 0.22176824E+02</pdfrwt>
<totfact> 0.36558816E+07</totfact>
</mgrwt>
</event>
<event>
 4    1  0.7616518E+004  0.2288774E+02  0.7546771E-02  0.1693336E+00
         21   -1    0    0  503  502  0.00000000000E+00  0.00000000000E+00  0.19793902085E+01  0.19793902085E+01  0.00000000000E+00 0. -1.
         21   -1    0    0  501  503 -0.00000000000E+00 -0.00000000000E+00 -0.26482550615E+03  0.26482550615E+03  0.00000000000E+00 0. -1.
          3    1    1    2  501    0 -0.17447738204E+01  0.22821136976E+02 -0.12800323588E+03  0.13003336850E+03  0.00000000000E+00 0. -1.
         -3    1    1    2    0  502  0.17447738204E+01 -0.22821136976E+02 -0.13484288006E+03  0.13677152785E+03  0.00000000000E+00 0.  1.
<mgrwt>
<rscale>  2 0.22887738E+02</rscale>
<asrwt>0</asrwt>
<pdfrwt beam="1">  1       21 0.30452166E-03 0.22887738E+02</pdfrwt>
<pdfrwt beam="2">  1       21 0.40742373E-01 0.22887738E+02</pdfrwt>
<totfact> 0.98389955E+07</totfact>
</mgrwt>
</event>
<event>
 4    1  0.7616518E+004  0.3215063E+02  0.7546771E-02  0.1575465E+00
         21   -1    0    0  501  502  0.00000000000E+00  0.00000000000E+00  0.17333282671E+03  0.17333282671E+03  0.00000000000E+00 0.  1.
         21   -1    0    0  502  503 -0.00000000000E+00 -0.00000000000E+00 -0.68048130245E+01  0.68048130245E+01  0.00000000000E+00 0.  1.
          2    1    1    2  501    0 -0.23705676307E+02 -0.21718742064E+02  0.51593406379E+02  0.60790973243E+02  0.00000000000E+00 0.  1.
         -2    1    1    2    0  503  0.23705676307E+02  0.21718742064E+02  0.11493460730E+03  0.11934666649E+03  0.00000000000E+00 0. -1.
<mgrwt>
<rscale>  2 0.32150627E+02</rscale>
<asrwt>0</asrwt>
<pdfrwt beam="1">  1       21 0.26666585E-01 0.32150627E+02</pdfrwt>
<pdfrwt beam="2">  1       21 0.10468944E-02 0.32150627E+02</pdfrwt>
<totfact> 0.37113245E+07</totfact>
</mgrwt>
</event>
<event>
 4    1  0.7616518E+004  0.2596783E+02  0.7546771E-02  0.1647477E+00
         21   -1    0    0  501  502  0.00000000000E+00  0.00000000000E+00  0.71944787923E+03  0.71944787923E+03  0.00000000000E+00 0.  1.
         21   -1    0    0  502  503 -0.00000000000E+00 -0.00000000000E+00 -0.98449372609E+00  0.98449372609E+00  0.00000000000E+00 0.  1.
          5    1    1    2  501    0  0.10343661656E+02  0.23818837448E+02  0.43811111905E+03  0.43888003029E+03  0.00000000000E+00 0.  1.
         -5    1    1    2    0  503 -0.10343661656E+02 -0.23818837448E+02  0.28035226646E+03  0.28155234267E+03  0.00000000000E+00 0. -1.
<mgrwt>
<rscale>  2 0.25967833E+02</rscale>
<asrwt>0</asrwt>
<pdfrwt beam="1">  1       21 0.11068387E+00 0.25967833E+02</pdfrwt>
<pdfrwt beam="2">  1       21 0.15146115E-03 0.25967833E+02</pdfrwt>
<totfact> 0.35927524E+07</totfact>
</mgrwt>
</event>
<event>
 4    1  0.7616518E+004  0.2621947E+02  0.7546771E-02  0.1644080E+00
         21   -1    0    0  503  502  0.00000000000E+00  0.00000000000E+00  0.10648924281E+03  0.10648924281E+03  0.00000000000E+00 0.  1.
         21   -1    0    0  501  503 -0.00000000000E+00 -0.00000000000E+00 -0.78365049804E+01  0.78365049804E+01  0.00000000000E+00 0.  1.
          3    1    1    2  501    0  0.22530881702E+02 -0.13409702569E+02  0.25331313632E+02  0.36457320302E+02  0.00000000000E+00 0. -1.
         -3    1    1    2    0  502 -0.22530881702E+02  0.13409702569E+02  0.73321424202E+02  0.77868427493E+02  0.00000000000E+00 0.  1.
<mgrwt>
<rscale>  2 0.26219473E+02</rscale>
<asrwt>0</asrwt>
<pdfrwt beam="1">  1       21 0.16382959E-01 0.26219473E+02</pdfrwt>
<pdfrwt beam="2">  1       21 0.12056162E-02 0.26219473E+02</pdfrwt>
<totfact> 0.67835955E+07</totfact>
</mgrwt>
</event>
<event>
 4    1  0.7616518E+004  0.2484098E+02  0.7546771E-02  0.1663296E+00
         21   -1    0    0  503  502  0.00000000000E+00  0.00000000000E+00  0.14601986917E+03  0.14601986917E+03  0.00000000000E+00 0.  1.
         21   -1    0    0  501  503 -0.00000000000E+00 -0.00000000000E+00 -0.44757643859E+01  0.44757643859E+01  0.00000000000E+00 0.  1.
          1    1    1    2  501    0 -0.50578434988E+01  0.24320623392E+02  0.88549036454E+02  0.91967420101E+02  0.00000000000E+00 0. -1.
         -1    1    1    2    0  502  0.50578434988E+01 -0.24320623392E+02  0.52995068334E+02  0.58528213459E+02  0.00000000000E+00 0.  1.
<mgrwt>
<rscale>  2 0.24840984E+02</rscale>
<asrwt>0</asrwt>
<pdfrwt beam="1">  1       21 0.22464592E-01 0.24840984E+02</pdfrwt>
<pdfrwt beam="2">  1       21 0.68857925E-03 0.24840984E+02</pdfrwt>
<totfact> 0.89536799E+07</totfact>
</mgrwt>
</event>
<event>
 4    1  0.7616518E+004  0.2024523E+02  0.7546771E-02  0.1740495E+00
         21   -1    0    0  503  502  0.00000000000E+00  0.00000000000E+00  0.18844428994E+03  0.18844428994E+03  0.00000000000E+00 0.  1.
         21   -1    0    0  501  503 -0.00000000000E+00 -0.00000000000E+00 -0.21912124371E+01  0.21912124371E+01  0.00000000000E+00 0.  1.
          1    1    1    2  501    0  0.17491784934E+02  0.10193476251E+02  0.84931888200E+02  0.87311483388E+02  0.00000000000E+00 0. -1.
         -1    1    1    2    0  502 -0.17491784934E+02 -0.10193476251E+02  0.10132118931E+03  0.10332401899E+03  0.00000000000E+00 0.  1.
<mgrwt>
<rscale>  2 0.20245234E+02</rscale>
<asrwt>0</asrwt>
<pdfrwt beam="1">  1       21 0.28991416E-01 0.20245234E+02</pdfrwt>
<pdfrwt beam="2">  1       21 0.33710975E-03 0.20245234E+02</pdfrwt>
<totfact> 0.15352782E+08</totfact>
</mgrwt>
</event>
<event>
 4    1  0.7616518E+004  0.2316715E+02  0.7546771E-02  0.1688815E+00
         21   -1    0    0  501  502  0.00000000000E+00  0.00000000000E+00  0.87326034136E+01  0.87326034136E+01  0.00000000000E+00 0. -1.
         21   -1    0    0  502  503 -0.00000000000E+00 -0.00000000000E+00 -0.68886111776E+02  0.68886111776E+02  0.00000000000E+00 0. -1.
          3    1    1    2  501    0 -0.77370824960E+01  0.21836999751E+02 -0.17335450715E+02  0.28935010889E+02  0.00000000000E+00 0.  1.
         -3    1    1    2    0  503  0.77370824960E+01 -0.21836999751E+02 -0.42818057648E+02  0.48683704301E+02  0.00000000000E+00 0. -1.
<mgrwt>
<rscale>  2 0.23167154E+02</rscale>
<asrwt>0</asrwt>
<pdfrwt beam="1">  1       21 0.13434775E-02 0.23167154E+02</pdfrwt>
<pdfrwt beam="2">  1       21 0.10597863E-01 0.23167154E+02</pdfrwt>
<totfact> 0.11638487E+08</totfact>
</mgrwt>
</event>
<event>
 4    1  0.7616518E+004  0.2201008E+02  0.7546771E-02  0.1708078E+00
         21   -1    0    0  501  502  0.00000000000E+00  0.00000000000E+00  0.42902482362E+01  0.42902482362E+01  0.00000000000E+00 0.  1.
         21   -1    0    0  502  503 -0.00000000000E+00 -0.00000000000E+00 -0.12617256702E+03  0.12617256702E+03  0.00000000000E+00 0.  1.
          2    1    1    2  501    0  0.11306813515E+01  0.21981019406E+02 -0.82084176734E+02  0.84983855670E+02  0.00000000000E+00 0.  1.
         -2    1    1    2    0  503 -0.11306813515E+01 -0.21981019406E+02 -0.39798142051E+02  0.45478959587E+02  0.00000000000E+00 0. -1.
<mgrwt>
<rscale>  2 0.22010081E+02</rscale>
<asrwt>0</asrwt>
<pdfrwt beam="1">  1       21 0.66003811E-03 0.22010081E+02</pdfrwt>
<pdfrwt beam="2">  1       21 0.19411167E-01 0.22010081E+02</pdfrwt>
<totfact> 0.11917674E+08</totfact>
</mgrwt>
</event>
<event>
 4    1  0.7616518E+004  0.2179172E+02  0.7546771E-02  0.1711879E+00
         21   -1    0    0  501  502  0.00000000000E+00  0.00000000000E+00  0.51276527134E+02  0.51276527134E+02  0.00000000000E+00 0. -1.
         21   -1    0    0  502  503 -0.00000000000E+00 -0.00000000000E+00 -0.10239981162E+02  0.10239981162E+02  0.00000000000E+00 0. -1.
          2    1    1    2  501    0  0.21653239967E+02  0.24527853672E+01  0.11008529179E+02  0.24414476685E+02  0.00000000000E+00 0. -1.
         -2    1    1    2    0  503 -0.21653239967E+02 -0.24527853672E+01  0.30028016794E+02  0.37102031611E+02  0.00000000000E+00 0.  1.
<mgrwt>
<rscale>  2 0.21791718E+02</rscale>
<asrwt>0</asrwt>
<pdfrwt beam="1">  1       21 0.78886963E-02 0.21791718E+02</pdfrwt>
<pdfrwt beam="2">  1       21 0.15753818E-02 0.21791718E+02</pdfrwt>
<totfact> 0.14580766E+08</totfact>
</mgrwt>
</event>
<event>
 4    1  0.7616518E+004  0.2517705E+02  0.7546771E-02  0.1658472E+00
         21   -1    0    0  503  502  0.00000000000E+00  0.00000000000E+00  0.27856780368E+01  0.27856780368E+01  0.00000000000E+00 0. -1.
         21   -1    0    0  501  503 -0.00000000000E+00 -0.00000000000E+00 -0.26038647146E+03  0.26038647146E+03  0.00000000000E+00 0. -1.
          4    1    1    2  501    0 -0.25057081068E+02  0.24549497278E+01 -0.17552780765E+03  0.17732426610E+03  0.00000000000E+00 0.  1.
         -4    1    1    2    0  502  0.25057081068E+02 -0.24549497278E+01 -0.82072985776E+02  0.85847883398E+02  0.00000000000E+00 0. -1.
<mgrwt>
<rscale>  2 0.25177055E+02</rscale>
<asrwt>0</asrwt>
<pdfrwt beam="1">  1       21 0.42856581E-03 0.25177055E+02</pdfrwt>
<pdfrwt beam="2">  1       21 0.40059461E-01 0.25177055E+02</pdfrwt>
<totfact> 0.63044913E+07</totfact>
</mgrwt>
</event>
<event>
 4    1  0.7616518E+004  0.2716151E+02  0.7546771E-02  0.1631765E+00
         21   -1    0    0  503  502  0.00000000000E+00  0.00000000000E+00  0.30756802158E+03  0.30756802158E+03  0.00000000000E+00 0. -1.
         21   -1    0    0  501  503 -0.00000000000E+00 -0.00000000000E+00 -0.25630973880E+01  0.25630973880E+01  0.00000000000E+00 0. -1.
          4    1    1    2  501    0  0.26379527158E+02 -0.64705588140E+01  0.11322456568E+03  0.11643689217E+03  0.00000000000E+00 0. -1.
         -4    1    1    2    0  502 -0.26379527158E+02  0.64705588140E+01  0.19178035850E+03  0.19369422679E+03  0.00000000000E+00 0.  1.
<mgrwt>
<rscale>  2 0.27161509E+02</rscale>
<asrwt>0</asrwt>
<pdfrwt beam="1">  1       21 0.47318128E-01 0.27161509E+02</pdfrwt>
<pdfrwt beam="2">  1       21 0.39432292E-03 0.27161509E+02</pdfrwt>
<totfact> 0.52687301E+07</totfact>
</mgrwt>
</event>
<event>
 4    1  0.7616518E+004  0.2382381E+02  0.7546771E-02  0.1678494E+00
         21   -1    0    0  501  502  0.00000000000E+00  0.00000000000E+00  0.78644750909E+01  0.78644750909E+01  0.00000000000E+00 0. -1.
         21   -1    0    0  502  503 -0.00000000000E+00 -0.00000000000E+00 -0.72496787992E+02  0.72496787992E+02  0.00000000000E+00 0. -1.
          3    1    1    2  501    0 -0.22110127570E+02 -0.88722045962E+01 -0.35016675183E+02  0.42352583114E+02  0.00000000000E+00 0. -1.
         -3    1    1    2    0  503  0.22110127570E+02  0.88722045962E+01 -0.29615637718E+02  0.38008679969E+02  0.00000000000E+00 0.  1.
<mgrwt>
<rscale>  2 0.23823806E+02</rscale>
<asrwt>0</asrwt>
<pdfrwt beam="1">  1       21 0.12099193E-02 0.23823806E+02</pdfrwt>
<pdfrwt beam="2">  1       21 0.11153352E-01 0.23823806E+02</pdfrwt>
<totfact> 0.12627287E+08</totfact>
</mgrwt>
</event>
<event>
 4    1  0.7616518E+004  0.2236694E+02  0.7546771E-02  0.1701982E+00
         21   -1    0    0  501  502  0.00000000000E+00  0.00000000000E+00  0.19311197875E+01  0.19311197875E+01  0.00000000000E+00 0.  1.
         21   -1    0    0  502  503 -0.00000000000E+00 -0.00000000000E+00 -0.26486714481E+03  0.26486714481E+03  0.00000000000E+00 0.  1.
          1    1    1    2  501    0 -0.22351984024E+02  0.81777467981E+00 -0.11171916339E+03  0.11393617255E+03  0.00000000000E+00 0. -1.
         -1    1    1    2    0  503  0.22351984024E+02 -0.81777467981E+00 -0.15121686163E+03  0.15286209205E+03  0.00000000000E+00 0.  1.
<mgrwt>
<rscale>  2 0.22366939E+02</rscale>
<asrwt>0</asrwt>
<pdfrwt beam="1">  1       21 0.29709547E-03 0.22366939E+02</pdfrwt>
<pdfrwt beam="2">  1       21 0.40748776E-01 0.22366939E+02</pdfrwt>
<totfact> 0.10134213E+08</totfact>
</mgrwt>
</event>
<event>
 4    1  0.7616518E+004  0.3046550E+02  0.7546771E-02  0.1592999E+00
         21   -1    0    0  501  502  0.00000000000E+00  0.00000000000E+00  0.38737387045E+02  0.38737387045E+02  0.00000000000E+00 0.  1.
         21   -1    0    0  502  503 -0.00000000000E+00 -0.00000000000E+00 -0.25818567675E+02  0.25818567675E+02  0.00000000000E+00 0.  1.
          4    1    1    2  501    0 -0.19956749489E+01 -0.30400061030E+02  0.15119721815E+02  0.34011063155E+02  0.00000000000E+00 0. -1.
         -4    1    1    2    0  503  0.19956749489E+01  0.30400061030E+02 -0.22009024446E+01  0.30544891565E+02  0.00000000000E+00 0.  1.
<mgrwt>
<rscale>  2 0.30465496E+02</rscale>
<asrwt>0</asrwt>
<pdfrwt beam="1">  1       21 0.59595980E-02 0.30465496E+02</pdfrwt>
<pdfrwt beam="2">  1       21 0.39720873E-02 0.30465496E+02</pdfrwt>
<totfact> 0.59749237E+07</totfact>
</mgrwt>
</event>
<event>
 4    1  0.7616518E+004  0.2977382E+02  0.7546771E-02  0.1600602E+00
         21   -1    0    0  503  502  0.00000000000E+00  0.00000000000E+00  0.43422381029E+03  0.43422381029E+03  0.00000000000E+00 0.  1.
         21   -1    0    0  501  503 -0.00000000000E+00 -0.00000000000E+00 -0.25678473148E+01  0.25678473148E+01  0.00000000000E+00 0.  1.
          4    1    1    2  501    0 -0.22307557254E+02  0.19719358975E+02  0.31470246799E+03  0.31610777211E+03  0.00000000000E+00 0. -1.
         -4    1    1    2    0  502  0.22307557254E+02 -0.19719358975E+02  0.11695349499E+03  0.12068388550E+03  0.00000000000E+00 0.  1.
<mgrwt>
<rscale>  2 0.29773818E+02</rscale>
<asrwt>0</asrwt>
<pdfrwt beam="1">  1       21 0.66803605E-01 0.29773818E+02</pdfrwt>
<pdfrwt beam="2">  1       21 0.39505378E-03 0.29773818E+02</pdfrwt>
<totfact> 0.26870529E+07</totfact>
</mgrwt>
</event>
<event>
 4    1  0.7616518E+004  0.2392665E+02  0.7546771E-02  0.1676915E+00
         21   -1    0    0  501  502  0.00000000000E+00  0.00000000000E+00  0.16183543612E+01  0.16183543612E+01  0.00000000000E+00 0. -1.
         21   -1    0    0  502  503 -0.00000000000E+00 -0.00000000000E+00 -0.11403844015E+04  0.11403844015E+04  0.00000000000E+00 0. -1.
          1    1    1    2  501    0  0.19210202121E+02 -0.14263680448E+02 -0.95141667010E+02  0.98104134709E+02  0.00000000000E+00 0. -1.
         -1    1    1    2    0  503 -0.19210202121E+02  0.14263680448E+02 -0.10436243801E+04  0.10438986212E+04  0.00000000000E+00 0.  1.
<mgrwt>
<rscale>  2 0.23926647E+02</rscale>
<asrwt>0</asrwt>
<pdfrwt beam="1">  1       21 0.24897730E-03 0.23926647E+02</pdfrwt>
<pdfrwt beam="2">  1       21 0.17544396E+00 0.23926647E+02</pdfrwt>
<totfact> 0.58584642E+06</totfact>
</mgrwt>
</event>
<event>
 4    1  0.7616518E+004  0.2290765E+02  0.7546771E-02  0.1693012E+00
         21   -1    0    0  501  502  0.00000000000E+00  0.00000000000E+00  0.13095980800E+03  0.13095980800E+03  0.00000000000E+00 0.  1.
         21   -1    0    0  502  503 -0.00000000000E+00 -0.00000000000E+00 -0.43179511087E+01  0.43179511087E+01  0.00000000000E+00 0.  1.
          4    1    1    2  501    0 -0.11419438707E+02 -0.19858417449E+02  0.45170775968E+02  0.50647401962E+02  0.00000000000E+00 0. -1.
         -4    1    1    2    0  503  0.11419438707E+02  0.19858417449E+02  0.81471080923E+02  0.84630357146E+02  0.00000000000E+00 0.  1.
<mgrwt>
<rscale>  2 0.22907648E+02</rscale>
<asrwt>0</asrwt>
<pdfrwt beam="1">  1       21 0.20147660E-01 0.22907648E+02</pdfrwt>
<pdfrwt beam="2">  1       21 0.66430027E-03 0.22907648E+02</pdfrwt>
<totfact> 0.11189140E+08</totfact>
</mgrwt>
</event>
<event>
 4    1  0.7616518E+004  0.2278704E+02  0.7546771E-02  0.1694985E+00
         21   -1    0    0  501  502  0.00000000000E+00  0.00000000000E+00  0.14866147703E+02  0.14866147703E+02  0.00000000000E+00 0. -1.
         21   -1    0    0  502  503 -0.00000000000E+00 -0.00000000000E+00 -0.39244446295E+02  0.39244446295E+02  0.00000000000E+00 0. -1.
          4    1    1    2  501    0 -0.17005091670E+02 -0.15168263637E+02 -0.21161597309E+02  0.31097629574E+02  0.00000000000E+00 0. -1.
         -4    1    1    2    0  503  0.17005091670E+02  0.15168263637E+02 -0.32167012828E+01  0.23012964424E+02  0.00000000000E+00 0.  1.
<mgrwt>
<rscale>  2 0.22787044E+02</rscale>
<asrwt>0</asrwt>
<pdfrwt beam="1">  1       21 0.22870997E-02 0.22787044E+02</pdfrwt>
<pdfrwt beam="2">  1       21 0.60376071E-02 0.22787044E+02</pdfrwt>
<totfact> 0.12871811E+08</totfact>
</mgrwt>
</event>
<event>
 4    1  0.7616518E+004  0.2629426E+02  0.7546771E-02  0.1643079E+00
         21   -1    0    0  503  502  0.00000000000E+00  0.00000000000E+00  0.94534377614E+00  0.94534377614E+00  0.00000000000E+00 0. -1.
         21   -1    0    0  501  503 -0.00000000000E+00 -0.00000000000E+00 -0.73240471623E+03  0.73240471623E+03  0.00000000000E+00 0. -1.
          2    1    1    2  501    0 -0.22859495127E+02  0.12993524595E+02 -0.35189216104E+03  0.35287318005E+03  0.00000000000E+00 0.  1.
         -2    1    1    2    0  502  0.22859495127E+02 -0.12993524595E+02 -0.37956721141E+03  0.38047687995E+03  0.00000000000E+00 0. -1.
<mgrwt>
<rscale>  2 0.26294262E+02</rscale>
<asrwt>0</asrwt>
<pdfrwt beam="1">  1       21 0.14543762E-03 0.26294262E+02</pdfrwt>
<pdfrwt beam="2">  1       21 0.11267756E+00 0.26294262E+02</pdfrwt>
<totfact> 0.36680084E+07</totfact>
</mgrwt>
</event>
<event>
 4    1  0.7616518E+004  0.3039784E+02  0.7546771E-02  0.1593732E+00
         21   -1    0    0  503  502  0.00000000000E+00  0.00000000000E+00  0.74640925375E+03  0.74640925375E+03  0.00000000000E+00 0.  1.
         21   -1    0    0  501  503 -0.00000000000E+00 -0.00000000000E+00 -0.21924223998E+01  0.21924223998E+01  0.00000000000E+00 0.  1.
          1    1    1    2  501    0  0.15383325782E+02 -0.26217969603E+02  0.12514255355E+03  0.12878154896E+03  0.00000000000E+00 0.  1.
         -1    1    1    2    0  502 -0.15383325782E+02  0.26217969603E+02  0.61907427780E+03  0.61982012719E+03  0.00000000000E+00 0. -1.
<mgrwt>
<rscale>  2 0.30397839E+02</rscale>
<asrwt>0</asrwt>
<pdfrwt beam="1">  1       21 0.11483199E+00 0.30397839E+02</pdfrwt>
<pdfrwt beam="2">  1       21 0.33729635E-03 0.30397839E+02</pdfrwt>
<totfact> 0.10559481E+07</totfact>
</mgrwt>
</event>
<event>
 4    1  0.7616518E+004  0.2773978E+02  0.7546771E-02  0.1624506E+00
         21   -1    0    0  503  502  0.00000000000E+00  0.00000000000E+00  0.46192971327E+02  0.46192971327E+02  0.00000000000E+00 0. -1.
         21   -1    0    0  501  503 -0.00000000000E+00 -0.00000000000E+00 -0.21944864624E+02  0.21944864624E+02  0.00000000000E+00 0. -1.
          2    1    1    2  501    0 -0.20144475133E+02  0.19070803113E+02 -0.45976116275E+01  0.28118204822E+02  0.00000000000E+00 0. -1.
         -2    1    1    2    0  502  0.20144475133E+02 -0.19070803113E+02  0.28845718330E+02  0.40019631129E+02  0.00000000000E+00 0.  1.
<mgrwt>
<rscale>  2 0.27739780E+02</rscale>
<asrwt>0</asrwt>
<pdfrwt beam="1">  1       21 0.71066110E-02 0.27739780E+02</pdfrwt>
<pdfrwt beam="2">  1       21 0.33761330E-02 0.27739780E+02</pdfrwt>
<totfact> 0.56778405E+07</totfact>
</mgrwt>
</event>
<event>
 4    1  0.7616518E+004  0.2806587E+02  0.7546771E-02  0.1620508E+00
         21   -1    0    0  503  502  0.00000000000E+00  0.00000000000E+00  0.50632651425E+02  0.50632651425E+02  0.00000000000E+00 0.  1.
         21   -1    0    0  501  503 -0.00000000000E+00 -0.00000000000E+00 -0.21959233296E+02  0.21959233296E+02  0.00000000000E+00 0.  1.
          2    1    1    2  501    0  0.18504753083E+02  0.21101351486E+02 -0.52614251249E+01  0.28554780958E+02  0.00000000000E+00 0.  1.
         -2    1    1    2    0  502 -0.18504753083E+02 -0.21101351486E+02  0.33934843254E+02  0.44037103764E+02  0.00000000000E+00 0. -1.
<mgrwt>
<rscale>  2 0.28065868E+02</rscale>
<asrwt>0</asrwt>
<pdfrwt beam="1">  1       21 0.77896387E-02 0.28065868E+02</pdfrwt>
<pdfrwt beam="2">  1       21 0.33783436E-02 0.28065868E+02</pdfrwt>
<totfact> 0.48941366E+07</totfact>
</mgrwt>
</event>
<event>
 4    1  0.7616518E+004  0.2256938E+02  0.7546771E-02  0.1698587E+00
         21   -1    0    0  503  502  0.00000000000E+00  0.00000000000E+00  0.99576075003E+00  0.99576075003E+00  0.00000000000E+00 0. -1.
         21   -1    0    0  501  503 -0.00000000000E+00 -0.00000000000E+00 -0.55114986146E+03  0.55114986146E+03  0.00000000000E+00 0. -1.
          5    1    1    2  501    0 -0.11422165036E+01  0.22540453568E+02 -0.34908213057E+03  0.34981096408E+03  0.00000000000E+00 0. -1.
         -5    1    1    2    0  502  0.11422165036E+01 -0.22540453568E+02 -0.20107197014E+03  0.20233465813E+03  0.00000000000E+00 0.  1.
<mgrwt>
<rscale>  2 0.22569375E+02</rscale>
<asrwt>0</asrwt>
<pdfrwt beam="1">  1       21 0.15319451E-03 0.22569375E+02</pdfrwt>
<pdfrwt beam="2">  1       21 0.84791981E-01 0.22569375E+02</pdfrwt>
<totfact> 0.61339667E+07</totfact>
</mgrwt>
</event>
<event>
 4    1  0.7616518E+004  0.2425961E+02  0.7546771E-02  0.1671870E+00
         21   -1    0    0  501  502  0.00000000000E+00  0.00000000000E+00  0.19134295636E+02  0.19134295636E+02  0.00000000000E+00 0.  1.
         21   -1    0    0  502  503 -0.00000000000E+00 -0.00000000000E+00 -0.31425760168E+02  0.31425760168E+02  0.00000000000E+00 0.  1.
          4    1    1    2  501    0 -0.28992555680E+01 -0.24085743560E+02 -0.98313632419E+01  0.26176027752E+02  0.00000000000E+00 0. -1.
         -4    1    1    2    0  503  0.28992555680E+01  0.24085743560E+02 -0.24601012896E+01  0.24384028052E+02  0.00000000000E+00 0.  1.
<mgrwt>
<rscale>  2 0.24259611E+02</rscale>
<asrwt>0</asrwt>
<pdfrwt beam="1">  1       21 0.29437378E-02 0.24259611E+02</pdfrwt>
<pdfrwt beam="2">  1       21 0.48347323E-02 0.24259611E+02</pdfrwt>
<totfact> 0.12651194E+08</totfact>
</mgrwt>
</event>
<event>
 4    1  0.7616518E+004  0.2347972E+02  0.7546771E-02  0.1683850E+00
         21   -1    0    0  501  502  0.00000000000E+00  0.00000000000E+00  0.36129678957E+02  0.36129678957E+02  0.00000000000E+00 0.  1.
         21   -1    0    0  502  503 -0.00000000000E+00 -0.00000000000E+00 -0.15262004542E+02  0.15262004542E+02  0.00000000000E+00 0.  1.
          1    1    1    2  501    0  0.20330189842E+02 -0.11746518656E+02  0.10064360940E+02  0.25545815326E+02  0.00000000000E+00 0. -1.
         -1    1    1    2    0  503 -0.20330189842E+02  0.11746518656E+02  0.10803313475E+02  0.25845868173E+02  0.00000000000E+00 0.  1.
<mgrwt>
<rscale>  2 0.23479721E+02</rscale>
<asrwt>0</asrwt>
<pdfrwt beam="1">  1       21 0.55584121E-02 0.23479721E+02</pdfrwt>
<pdfrwt beam="2">  1       21 0.23480007E-02 0.23479721E+02</pdfrwt>
<totfact> 0.14240435E+08</totfact>
</mgrwt>
</event>
<event>
 4    1  0.7616518E+004  0.6419046E+02  0.7546771E-02  0.1381043E+00
         21   -1    0    0  503  502  0.00000000000E+00  0.00000000000E+00  0.19813741291E+02  0.19813741291E+02  0.00000000000E+00 0.  1.
         21   -1    0    0  501  503 -0.00000000000E+00 -0.00000000000E+00 -0.20851261077E+03  0.20851261077E+03  0.00000000000E+00 0.  1.
          1    1    1    2  501    0  0.63721600332E+02 -0.77442212345E+01 -0.88458755656E+02  0.10929486156E+03  0.00000000000E+00 0.  1.
         -1    1    1    2    0  502 -0.63721600332E+02  0.77442212345E+01 -0.10024011382E+03  0.11903149050E+03  0.00000000000E+00 0. -1.
<mgrwt>
<rscale>  2 0.64190461E+02</rscale>
<asrwt>0</asrwt>
<pdfrwt beam="1">  1       21 0.30482679E-02 0.64190461E+02</pdfrwt>
<pdfrwt beam="2">  1       21 0.32078863E-01 0.64190461E+02</pdfrwt>
<totfact> 0.54240967E+06</totfact>
</mgrwt>
</event>
<event>
 4    1  0.7616518E+004  0.2256441E+02  0.7546771E-02  0.1698670E+00
         21   -1    0    0  501  502  0.00000000000E+00  0.00000000000E+00  0.29016959085E+01  0.29016959085E+01  0.00000000000E+00 0.  1.
         21   -1    0    0  502  503 -0.00000000000E+00 -0.00000000000E+00 -0.17666346750E+03  0.17666346750E+03  0.00000000000E+00 0.  1.
          4    1    1    2  501    0  0.41351515979E+01  0.22182267204E+02 -0.94268986716E+02  0.96931905550E+02  0.00000000000E+00 0. -1.
         -4    1    1    2    0  503 -0.41351515979E+01 -0.22182267204E+02 -0.79492784871E+02  0.82633257854E+02  0.00000000000E+00 0.  1.
<mgrwt>
<rscale>  2 0.22564407E+02</rscale>
<asrwt>0</asrwt>
<pdfrwt beam="1">  1       21 0.44641470E-03 0.22564407E+02</pdfrwt>
<pdfrwt beam="2">  1       21 0.27178998E-01 0.22564407E+02</pdfrwt>
<totfact> 0.11798397E+08</totfact>
</mgrwt>
</event>
<event>
 4    1  0.7616518E+004  0.2231973E+02  0.7546771E-02  0.1702780E+00
         21   -1    0    0  503  502  0.00000000000E+00  0.00000000000E+00  0.61346629671E+01  0.61346629671E+01  0.00000000000E+00 0.  1.
         21   -1    0    0  501  503 -0.00000000000E+00 -0.00000000000E+00 -0.81242553525E+02  0.81242553525E+02  0.00000000000E+00 0.  1.
          4    1    1    2  501    0  0.18367099562E+02  0.12681484826E+02 -0.36625100600E+02  0.42890189994E+02  0.00000000000E+00 0. -1.
         -4    1    1    2    0  502 -0.18367099562E+02 -0.12681484826E+02 -0.38482789958E+02  0.44487026499E+02  0.00000000000E+00 0.  1.
<mgrwt>
<rscale>  2 0.22319731E+02</rscale>
<asrwt>0</asrwt>
<pdfrwt beam="1">  1       21 0.94379439E-03 0.22319731E+02</pdfrwt>
<pdfrwt beam="2">  1       21 0.12498853E-01 0.22319731E+02</pdfrwt>
<totfact> 0.14879332E+08</totfact>
</mgrwt>
</event>
<event>
 4    1  0.7616518E+004  0.2172861E+02  0.7546771E-02  0.1712988E+00
         21   -1    0    0  503  502  0.00000000000E+00  0.00000000000E+00  0.92703957542E+02  0.92703957542E+02  0.00000000000E+00 0. -1.
         21   -1    0    0  501  503 -0.00000000000E+00 -0.00000000000E+00 -0.55320338436E+01  0.55320338436E+01  0.00000000000E+00 0. -1.
          4    1    1    2  501    0 -0.32169660805E+01 -0.21489152642E+02  0.29747314117E+02  0.36837959351E+02  0.00000000000E+00 0.  1.
         -4    1    1    2    0  502  0.32169660805E+01  0.21489152642E+02  0.57424609582E+02  0.61398032034E+02  0.00000000000E+00 0. -1.
<mgrwt>
<rscale>  2 0.21728611E+02</rscale>
<asrwt>0</asrwt>
<pdfrwt beam="1">  1       21 0.14262146E-01 0.21728611E+02</pdfrwt>
<pdfrwt beam="2">  1       21 0.85108220E-03 0.21728611E+02</pdfrwt>
<totfact> 0.13794450E+08</totfact>
</mgrwt>
</event>
<event>
 4    1  0.7616518E+004  0.2133676E+02  0.7546771E-02  0.1719981E+00
         21   -1    0    0  503  502  0.00000000000E+00  0.00000000000E+00  0.12040950313E+02  0.12040950313E+02  0.00000000000E+00 0. -1.
         21   -1    0    0  501  503 -0.00000000000E+00 -0.00000000000E+00 -0.38001223078E+02  0.38001223078E+02  0.00000000000E+00 0. -1.
          5    1    1    2  501    0  0.13398943376E+02 -0.16604987517E+02 -0.11200972465E+02  0.24098113582E+02  0.00000000000E+00 0.  1.
         -5    1    1    2    0  502 -0.13398943376E+02  0.16604987517E+02 -0.14759300300E+02  0.25944059809E+02  0.00000000000E+00 0. -1.
<mgrwt>
<rscale>  2 0.21336759E+02</rscale>
<asrwt>0</asrwt>
<pdfrwt beam="1">  1       21 0.18524539E-02 0.21336759E+02</pdfrwt>
<pdfrwt beam="2">  1       21 0.58463420E-02 0.21336759E+02</pdfrwt>
<totfact> 0.18350530E+08</totfact>
</mgrwt>
</event>
<event>
 4    1  0.7616518E+004  0.2666552E+02  0.7546771E-02  0.1638171E+00
         21   -1    0    0  501  502  0.00000000000E+00  0.00000000000E+00  0.34071691522E+01  0.34071691522E+01  0.00000000000E+00 0. -1.
         21   -1    0    0  502  503 -0.00000000000E+00 -0.00000000000E+00 -0.24866057614E+03  0.24866057614E+03  0.00000000000E+00 0. -1.
          4    1    1    2  501    0 -0.20863628040E+02  0.16605986583E+02 -0.17315583610E+03  0.17519701293E+03  0.00000000000E+00 0. -1.
         -4    1    1    2    0  503  0.20863628040E+02 -0.16605986583E+02 -0.72097570886E+02  0.76870732357E+02  0.00000000000E+00 0.  1.
<mgrwt>
<rscale>  2 0.26665516E+02</rscale>
<asrwt>0</asrwt>
<pdfrwt beam="1">  1       21 0.52417969E-03 0.26665516E+02</pdfrwt>
<pdfrwt beam="2">  1       21 0.38255486E-01 0.26665516E+02</pdfrwt>
<totfact> 0.51728154E+07</totfact>
</mgrwt>
</event>
<event>
 4    1  0.7616518E+004  0.2182028E+02  0.7546771E-02  0.1711379E+00
         21   -1    0    0  503  502  0.00000000000E+00  0.00000000000E+00  0.16718526238E+02  0.16718526238E+02  0.00000000000E+00 0.  1.
         21   -1    0    0  501  503 -0.00000000000E+00 -0.00000000000E+00 -0.28483780946E+02  0.28483780946E+02  0.00000000000E+00 0.  1.
          3    1    1    2  501    0 -0.21742786503E+02 -0.18372957811E+01 -0.55852931833E+01  0.22523763466E+02  0.00000000000E+00 0.  1.
         -3    1    1    2    0  502  0.21742786503E+02  0.18372957811E+01 -0.61799615245E+01  0.22678543718E+02  0.00000000000E+00 0. -1.
<mgrwt>
<rscale>  2 0.21820275E+02</rscale>
<asrwt>0</asrwt>
<pdfrwt beam="1">  1       21 0.25720810E-02 0.21820275E+02</pdfrwt>
<pdfrwt beam="2">  1       21 0.43821201E-02 0.21820275E+02</pdfrwt>
<totfact> 0.17651945E+08</totfact>
</mgrwt>
</event>
<event>
 4    1  0.7616518E+004  0.3407711E+02  0.7546771E-02  0.1556952E+00
         21   -1    0    0  503  502  0.00000000000E+00  0.00000000000E+00  0.55524444238E+02  0.55524444238E+02  0.00000000000E+00 0. -1.
         21   -1    0    0  501  503 -0.00000000000E+00 -0.00000000000E+00 -0.21353672677E+02  0.21353672677E+02  0.00000000000E+00 0. -1.
          4    1    1    2  501    0 -0.32397666136E+02  0.10566026172E+02  0.22599798785E+02  0.40890103757E+02  0.00000000000E+00 0.  1.
         -4    1    1    2    0  502  0.32397666136E+02 -0.10566026172E+02  0.11570972776E+02  0.35988013158E+02  0.00000000000E+00 0. -1.
<mgrwt>
<rscale>  2 0.34077114E+02</rscale>
<asrwt>0</asrwt>
<pdfrwt beam="1">  1       21 0.85422221E-02 0.34077114E+02</pdfrwt>
<pdfrwt beam="2">  1       21 0.32851804E-02 0.34077114E+02</pdfrwt>
<totfact> 0.45811318E+07</totfact>
</mgrwt>
</event>
<event>
 4    1  0.7616518E+004  0.2124359E+02  0.7546771E-02  0.1721672E+00
         21   -1    0    0  503  502  0.00000000000E+00  0.00000000000E+00  0.53571880688E+02  0.53571880688E+02  0.00000000000E+00 0. -1.
         21   -1    0    0  501  503 -0.00000000000E+00 -0.00000000000E+00 -0.89125201911E+01  0.89125201911E+01  0.00000000000E+00 0. -1.
          3    1    1    2  501    0  0.45973840642E+01 -0.20740158515E+02  0.29644063185E+02  0.36469995854E+02  0.00000000000E+00 0. -1.
         -3    1    1    2    0  502 -0.45973840642E+01  0.20740158515E+02  0.15015297312E+02  0.26014405025E+02  0.00000000000E+00 0.  1.
<mgrwt>
<rscale>  2 0.21243590E+02</rscale>
<asrwt>0</asrwt>
<pdfrwt beam="1">  1       21 0.82418276E-02 0.21243590E+02</pdfrwt>
<pdfrwt beam="2">  1       21 0.13711570E-02 0.21243590E+02</pdfrwt>
<totfact> 0.16626531E+08</totfact>
</mgrwt>
</event>
<event>
 4    1  0.7616518E+004  0.2461748E+02  0.7546771E-02  0.1666558E+00
         21   -1    0    0  501  502  0.00000000000E+00  0.00000000000E+00  0.42528030920E+02  0.42528030920E+02  0.00000000000E+00 0.  1.
         21   -1    0    0  502  503 -0.00000000000E+00 -0.00000000000E+00 -0.14281451979E+02  0.14281451979E+02  0.00000000000E+00 0.  1.
          4    1    1    2  501    0  0.23342589223E+02  0.78194637197E+01  0.12788324261E+02  0.27740975504E+02  0.00000000000E+00 0. -1.
         -4    1    1    2    0  503 -0.23342589223E+02 -0.78194637197E+01  0.15458254679E+02  0.29068507396E+02  0.00000000000E+00 0.  1.
<mgrwt>
<rscale>  2 0.24617483E+02</rscale>
<asrwt>0</asrwt>
<pdfrwt beam="1">  1       21 0.65427740E-02 0.24617483E+02</pdfrwt>
<pdfrwt beam="2">  1       21 0.21971465E-02 0.24617483E+02</pdfrwt>
<totfact> 0.12305248E+08</totfact>
</mgrwt>
</event>
<event>
 4    1  0.7616518E+004  0.2496116E+02  0.7546771E-02  0.1661560E+00
         21   -1    0    0  503  502  0.00000000000E+00  0.00000000000E+00  0.10402525350E+02  0.10402525350E+02  0.00000000000E+00 0. -1.
         21   -1    0    0  501  503 -0.00000000000E+00 -0.00000000000E+00 -0.10321417087E+03  0.10321417087E+03  0.00000000000E+00 0. -1.
          4    1    1    2  501    0  0.20975828809E+02 -0.13530483146E+02 -0.96028830346E+01  0.26744620599E+02  0.00000000000E+00 0. -1.
         -4    1    1    2    0  502 -0.20975828809E+02  0.13530483146E+02 -0.83208762490E+02  0.86872075626E+02  0.00000000000E+00 0.  1.
<mgrwt>
<rscale>  2 0.24961157E+02</rscale>
<asrwt>0</asrwt>
<pdfrwt beam="1">  1       21 0.16003886E-02 0.24961157E+02</pdfrwt>
<pdfrwt beam="2">  1       21 0.15879103E-01 0.24961157E+02</pdfrwt>
<totfact> 0.45969301E+07</totfact>
</mgrwt>
</event>
<event>
 4    1  0.7616518E+004  0.2149633E+02  0.7546771E-02  0.1717111E+00
         21   -1    0    0  501  502  0.00000000000E+00  0.00000000000E+00  0.20140374071E+03  0.20140374071E+03  0.00000000000E+00 0. -1.
         21   -1    0    0  502  503 -0.00000000000E+00 -0.00000000000E+00 -0.23418530935E+01  0.23418530935E+01  0.00000000000E+00 0. -1.
          4    1    1    2  501    0  0.14278292239E+02  0.16069307376E+02  0.85023091763E+02  0.87698451535E+02  0.00000000000E+00 0.  1.
         -4    1    1    2    0  503 -0.14278292239E+02 -0.16069307376E+02  0.11403879585E+03  0.11604714226E+03  0.00000000000E+00 0. -1.
<mgrwt>
<rscale>  2 0.21496332E+02</rscale>
<asrwt>0</asrwt>
<pdfrwt beam="1">  1       21 0.30985177E-01 0.21496332E+02</pdfrwt>
<pdfrwt beam="2">  1       21 0.36028525E-03 0.21496332E+02</pdfrwt>
<totfact> 0.12569702E+08</totfact>
</mgrwt>
</event>
<event>
 4    1  0.7616518E+004  0.4046654E+02  0.7546771E-02  0.1504806E+00
         21   -1    0    0  503  502  0.00000000000E+00  0.00000000000E+00  0.10912192748E+03  0.10912192748E+03  0.00000000000E+00 0. -1.
         21   -1    0    0  501  503 -0.00000000000E+00 -0.00000000000E+00 -0.15207125440E+02  0.15207125440E+02  0.00000000000E+00 0. -1.
          1    1    1    2  501    0 -0.15847714479E+02  0.37234270290E+02  0.54097183044E+02  0.67557724588E+02  0.00000000000E+00 0.  1.
         -1    1    1    2    0  502  0.15847714479E+02 -0.37234270290E+02  0.39817619000E+02  0.56771328336E+02  0.00000000000E+00 0. -1.
<mgrwt>
<rscale>  2 0.40466541E+02</rscale>
<asrwt>0</asrwt>
<pdfrwt beam="1">  1       21 0.16787988E-01 0.40466541E+02</pdfrwt>
<pdfrwt beam="2">  1       21 0.23395578E-02 0.40466541E+02</pdfrwt>
<totfact> 0.25503437E+07</totfact>
</mgrwt>
</event>
<event>
 4    1  0.7616518E+004  0.2055726E+02  0.7546771E-02  0.1734468E+00
         21   -1    0    0  501  502  0.00000000000E+00  0.00000000000E+00  0.38142794888E+01  0.38142794888E+01  0.00000000000E+00 0.  1.
         21   -1    0    0  502  503 -0.00000000000E+00 -0.00000000000E+00 -0.11674326592E+03  0.11674326592E+03  0.00000000000E+00 0.  1.
          5    1    1    2  501    0  0.20027864706E+02 -0.46352601378E+01 -0.70071534961E+02  0.73024797247E+02  0.00000000000E+00 0. -1.
         -5    1    1    2    0  503 -0.20027864706E+02  0.46352601378E+01 -0.42857451466E+02  0.47532748157E+02  0.00000000000E+00 0.  1.
<mgrwt>
<rscale>  2 0.20557262E+02</rscale>
<asrwt>0</asrwt>
<pdfrwt beam="1">  1       21 0.58681220E-03 0.20557262E+02</pdfrwt>
<pdfrwt beam="2">  1       21 0.17960503E-01 0.20557262E+02</pdfrwt>
<totfact> 0.15895843E+08</totfact>
</mgrwt>
</event>
<event>
 4    1  0.7616518E+004  0.2216101E+02  0.7546771E-02  0.1705482E+00
         21   -1    0    0  503  502  0.00000000000E+00  0.00000000000E+00  0.24301856817E+03  0.24301856817E+03  0.00000000000E+00 0.  1.
         21   -1    0    0  501  503 -0.00000000000E+00 -0.00000000000E+00 -0.20372009194E+01  0.20372009194E+01  0.00000000000E+00 0.  1.
          5    1    1    2  501    0 -0.22094158197E+02 -0.17200098499E+01  0.13145927185E+03  0.13331410434E+03  0.00000000000E+00 0. -1.
         -5    1    1    2    0  502  0.22094158197E+02  0.17200098499E+01  0.10952209541E+03  0.11174166476E+03  0.00000000000E+00 0.  1.
<mgrwt>
<rscale>  2 0.22161008E+02</rscale>
<asrwt>0</asrwt>
<pdfrwt beam="1">  1       21 0.37387449E-01 0.22161008E+02</pdfrwt>
<pdfrwt beam="2">  1       21 0.31341572E-03 0.22161008E+02</pdfrwt>
<totfact> 0.10990349E+08</totfact>
</mgrwt>
</event>
<event>
 4    1  0.7616518E+004  0.2277360E+02  0.7546771E-02  0.1695206E+00
         21   -1    0    0  503  502  0.00000000000E+00  0.00000000000E+00  0.50925335641E+02  0.50925335641E+02  0.00000000000E+00 0. -1.
         21   -1    0    0  501  503 -0.00000000000E+00 -0.00000000000E+00 -0.12587418754E+02  0.12587418754E+02  0.00000000000E+00 0. -1.
          5    1    1    2  501    0  0.17949241840E+02 -0.14016481166E+02  0.52933018213E+01  0.23380677302E+02  0.00000000000E+00 0.  1.
         -5    1    1    2    0  502 -0.17949241840E+02  0.14016481166E+02  0.33044615066E+02  0.40132077093E+02  0.00000000000E+00 0. -1.
<mgrwt>
<rscale>  2 0.22773604E+02</rscale>
<asrwt>0</asrwt>
<pdfrwt beam="1">  1       21 0.78346669E-02 0.22773604E+02</pdfrwt>
<pdfrwt beam="2">  1       21 0.19365260E-02 0.22773604E+02</pdfrwt>
<totfact> 0.10903707E+08</totfact>
</mgrwt>
</event>
<event>
 4    1  0.7616518E+004  0.2183748E+02  0.7546771E-02  0.1711078E+00
         21   -1    0    0  501  502  0.00000000000E+00  0.00000000000E+00  0.37110374709E+03  0.37110374709E+03  0.00000000000E+00 0. -1.
         21   -1    0    0  502  503 -0.00000000000E+00 -0.00000000000E+00 -0.13038017349E+01  0.13038017349E+01  0.00000000000E+00 0. -1.
          2    1    1    2  501    0  0.31457085079E+01  0.21609725591E+02  0.16255133671E+03  0.16401162395E+03  0.00000000000E+00 0.  1.
         -2    1    1    2    0  503 -0.31457085079E+01 -0.21609725591E+02  0.20724860864E+03  0.20839592487E+03  0.00000000000E+00 0. -1.
<mgrwt>
<rscale>  2 0.21837484E+02</rscale>
<asrwt>0</asrwt>
<pdfrwt beam="1">  1       21 0.57092800E-01 0.21837484E+02</pdfrwt>
<pdfrwt beam="2">  1       21 0.20058518E-03 0.21837484E+02</pdfrwt>
<totfact> 0.92752538E+07</totfact>
</mgrwt>
</event>
<event>
 4    1  0.7616518E+004  0.2278011E+02  0.7546771E-02  0.1695099E+00
         21   -1    0    0  501  502  0.00000000000E+00  0.00000000000E+00  0.73445030415E+01  0.73445030415E+01  0.00000000000E+00 0.  1.
         21   -1    0    0  502  503 -0.00000000000E+00 -0.00000000000E+00 -0.72060884976E+02  0.72060884976E+02  0.00000000000E+00 0.  1.
          1    1    1    2  501    0 -0.17968971141E+02 -0.14001766544E+02 -0.26814657073E+02  0.35184644721E+02  0.00000000000E+00 0. -1.
         -1    1    1    2    0  503  0.17968971141E+02  0.14001766544E+02 -0.37901724861E+02  0.44220743296E+02  0.00000000000E+00 0.  1.
<mgrwt>
<rscale>  2 0.22780110E+02</rscale>
<asrwt>0</asrwt>
<pdfrwt beam="1">  1       21 0.11299236E-02 0.22780110E+02</pdfrwt>
<pdfrwt beam="2">  1       21 0.11086290E-01 0.22780110E+02</pdfrwt>
<totfact> 0.13957478E+08</totfact>
</mgrwt>
</event>
<event>
 4    1  0.7616518E+004  0.3059670E+02  0.7546771E-02  0.1591585E+00
         21   -1    0    0  501  502  0.00000000000E+00  0.00000000000E+00  0.35575188065E+02  0.35575188065E+02  0.00000000000E+00 0.  1.
         21   -1    0    0  502  503 -0.00000000000E+00 -0.00000000000E+00 -0.26525177519E+02  0.26525177519E+02  0.00000000000E+00 0.  1.
          4    1    1    2  501    0  0.35859223614E+01 -0.30385839543E+02  0.72894948747E+01  0.31453057394E+02  0.00000000000E+00 0.  1.
         -4    1    1    2    0  503 -0.35859223614E+01  0.30385839543E+02  0.17605156712E+01  0.30647308191E+02  0.00000000000E+00 0. -1.
<mgrwt>
<rscale>  2 0.30596701E+02</rscale>
<asrwt>0</asrwt>
<pdfrwt beam="1">  1       21 0.54731058E-02 0.30596701E+02</pdfrwt>
<pdfrwt beam="2">  1       21 0.40807966E-02 0.30596701E+02</pdfrwt>
<totfact> 0.65761579E+07</totfact>
</mgrwt>
</event>
<event>
 4    1  0.7616518E+004  0.2312879E+02  0.7546771E-02  0.1689431E+00
         21   -1    0    0  503  502  0.00000000000E+00  0.00000000000E+00  0.54512925646E+02  0.54512925646E+02  0.00000000000E+00 0. -1.
         21   -1    0    0  501  503 -0.00000000000E+00 -0.00000000000E+00 -0.11448090380E+02  0.11448090380E+02  0.00000000000E+00 0. -1.
          3    1    1    2  501    0 -0.22350930159E+02 -0.59478579196E+01  0.33996137549E+02  0.41117860609E+02  0.00000000000E+00 0. -1.
         -3    1    1    2    0  502  0.22350930159E+02  0.59478579196E+01  0.90686977181E+01  0.24843155418E+02  0.00000000000E+00 0.  1.
<mgrwt>
<rscale>  2 0.23128794E+02</rscale>
<asrwt>0</asrwt>
<pdfrwt beam="1">  1       21 0.83866038E-02 0.23128794E+02</pdfrwt>
<pdfrwt beam="2">  1       21 0.17612447E-02 0.23128794E+02</pdfrwt>
<totfact> 0.11331832E+08</totfact>
</mgrwt>
</event>
<event>
 4    1  0.7616518E+004  0.3083568E+02  0.7546771E-02  0.1589031E+00
         21   -1    0    0  503  502  0.00000000000E+00  0.00000000000E+00  0.14635707121E+02  0.14635707121E+02  0.00000000000E+00 0. -1.
         21   -1    0    0  501  503 -0.00000000000E+00 -0.00000000000E+00 -0.11478260694E+03  0.11478260694E+03  0.00000000000E+00 0. -1.
          2    1    1    2  501    0  0.20027859775E+02  0.23446194988E+02 -0.92702930706E+02  0.97696840215E+02  0.00000000000E+00 0.  1.
         -2    1    1    2    0  502 -0.20027859775E+02 -0.23446194988E+02 -0.74439691082E+01  0.31721473841E+02  0.00000000000E+00 0. -1.
<mgrwt>
<rscale>  2 0.30835681E+02</rscale>
<asrwt>0</asrwt>
<pdfrwt beam="1">  1       21 0.22516472E-02 0.30835681E+02</pdfrwt>
<pdfrwt beam="2">  1       21 0.17658863E-01 0.30835681E+02</pdfrwt>
<totfact> 0.23626639E+07</totfact>
</mgrwt>
</event>
<event>
 4    1  0.7616518E+004  0.2804787E+02  0.7546771E-02  0.1620727E+00
         21   -1    0    0  503  502  0.00000000000E+00  0.00000000000E+00  0.23314059870E+02  0.23314059870E+02  0.00000000000E+00 0.  1.
         21   -1    0    0  501  503 -0.00000000000E+00 -0.00000000000E+00 -0.33744162275E+02  0.33744162275E+02  0.00000000000E+00 0.  1.
          4    1    1    2  501    0 -0.26612863580E+02 -0.88565573113E+01 -0.53921156454E+01  0.28561478016E+02  0.00000000000E+00 0.  1.
         -4    1    1    2    0  502  0.26612863580E+02  0.88565573113E+01 -0.50379867593E+01  0.28496744128E+02  0.00000000000E+00 0. -1.
<mgrwt>
<rscale>  2 0.28047872E+02</rscale>
<asrwt>0</asrwt>
<pdfrwt beam="1">  1       21 0.35867784E-02 0.28047872E+02</pdfrwt>
<pdfrwt beam="2">  1       21 0.51914096E-02 0.28047872E+02</pdfrwt>
<totfact> 0.86055334E+07</totfact>
</mgrwt>
</event>
<event>
 4    1  0.7616518E+004  0.2423761E+02  0.7546771E-02  0.1672200E+00
         21   -1    0    0  501  502  0.00000000000E+00  0.00000000000E+00  0.29155459403E+02  0.29155459403E+02  0.00000000000E+00 0. -1.
         21   -1    0    0  502  503 -0.00000000000E+00 -0.00000000000E+00 -0.34416788921E+02  0.34416788921E+02  0.00000000000E+00 0. -1.
          2    1    1    2  501    0  0.34457244745E+01 -0.23991433147E+02  0.17835020289E+02  0.30092355014E+02  0.00000000000E+00 0.  1.
         -2    1    1    2    0  503 -0.34457244745E+01  0.23991433147E+02 -0.23096349807E+02  0.33479893309E+02  0.00000000000E+00 0. -1.
<mgrwt>
<rscale>  2 0.24237613E+02</rscale>
<asrwt>0</asrwt>
<pdfrwt beam="1">  1       21 0.44854553E-02 0.24237613E+02</pdfrwt>
<pdfrwt beam="2">  1       21 0.52948906E-02 0.24237613E+02</pdfrwt>
<totfact> 0.56405045E+07</totfact>
</mgrwt>
</event>
<event>
 4    1  0.7616518E+004  0.2626678E+02  0.7546771E-02  0.1643446E+00
         21   -1    0    0  503  502  0.00000000000E+00  0.00000000000E+00  0.42812958846E+02  0.42812958846E+02  0.00000000000E+00 0. -1.
         21   -1    0    0  501  503 -0.00000000000E+00 -0.00000000000E+00 -0.21949017340E+02  0.21949017340E+02  0.00000000000E+00 0. -1.
          1    1    1    2  501    0 -0.25496359105E+02 -0.63150289012E+01 -0.62618227471E+01  0.27002858029E+02  0.00000000000E+00 0.  1.
         -1    1    1    2    0  502  0.25496359105E+02  0.63150289012E+01  0.27125764254E+02  0.37759118157E+02  0.00000000000E+00 0. -1.
<mgrwt>
<rscale>  2 0.26266784E+02</rscale>
<asrwt>0</asrwt>
<pdfrwt beam="1">  1       21 0.65866091E-02 0.26266784E+02</pdfrwt>
<pdfrwt beam="2">  1       21 0.33767719E-02 0.26266784E+02</pdfrwt>
<totfact> 0.63389174E+07</totfact>
</mgrwt>
</event>
<event>
 4    1  0.7616518E+004  0.2118147E+02  0.7546771E-02  0.1722805E+00
         21   -1    0    0  503  502  0.00000000000E+00  0.00000000000E+00  0.44134266725E+03  0.44134266725E+03  0.00000000000E+00 0. -1.
         21   -1    0    0  501  503 -0.00000000000E+00 -0.00000000000E+00 -0.26220999843E+01  0.26220999843E+01  0.00000000000E+00 0. -1.
          1    1    1    2  501    0 -0.64859510579E+01  0.20164008444E+02  0.39306170734E+03  0.39363201163E+03  0.00000000000E+00 0. -1.
         -1    1    1    2    0  502  0.64859510579E+01 -0.20164008444E+02  0.45658859924E+02  0.50332755610E+02  0.00000000000E+00 0.  1.
<mgrwt>
<rscale>  2 0.21181473E+02</rscale>
<asrwt>0</asrwt>
<pdfrwt beam="1">  1       21 0.67898813E-01 0.21181473E+02</pdfrwt>
<pdfrwt beam="2">  1       21 0.40340035E-03 0.21181473E+02</pdfrwt>
<totfact> 0.23584124E+07</totfact>
</mgrwt>
</event>
<event>
 4    1  0.7616518E+004  0.2072276E+02  0.7546771E-02  0.1731326E+00
         21   -1    0    0  503  502  0.00000000000E+00  0.00000000000E+00  0.34646215891E+01  0.34646215891E+01  0.00000000000E+00 0.  1.
         21   -1    0    0  501  503 -0.00000000000E+00 -0.00000000000E+00 -0.16301577299E+03  0.16301577299E+03  0.00000000000E+00 0.  1.
          1    1    1    2  501    0  0.18409707448E+02 -0.95139614755E+01 -0.39025556654E+02  0.44186274604E+02  0.00000000000E+00 0. -1.
         -1    1    1    2    0  502 -0.18409707448E+02  0.95139614755E+01 -0.12052559475E+03  0.12229411998E+03  0.00000000000E+00 0.  1.
<mgrwt>
<rscale>  2 0.20722760E+02</rscale>
<asrwt>0</asrwt>
<pdfrwt beam="1">  1       21 0.53301875E-03 0.20722760E+02</pdfrwt>
<pdfrwt beam="2">  1       21 0.25079348E-01 0.20722760E+02</pdfrwt>
<totfact> 0.10246340E+08</totfact>
</mgrwt>
</event>
<event>
 4    1  0.7616518E+004  0.2058404E+02  0.7546771E-02  0.1733957E+00
         21   -1    0    0  501  502  0.00000000000E+00  0.00000000000E+00  0.20119347298E+03  0.20119347298E+03  0.00000000000E+00 0.  1.
         21   -1    0    0  502  503 -0.00000000000E+00 -0.00000000000E+00 -0.27036587848E+01  0.27036587848E+01  0.00000000000E+00 0.  1.
          2    1    1    2  501    0 -0.20281494767E+02 -0.35162285722E+01  0.51310108732E+02  0.55284990291E+02  0.00000000000E+00 0.  1.
         -2    1    1    2    0  503  0.20281494767E+02  0.35162285722E+01  0.14717970547E+03  0.14861214148E+03  0.00000000000E+00 0. -1.
<mgrwt>
<rscale>  2 0.20584045E+02</rscale>
<asrwt>0</asrwt>
<pdfrwt beam="1">  1       21 0.30952830E-01 0.20584045E+02</pdfrwt>
<pdfrwt beam="2">  1       21 0.41594766E-03 0.20584045E+02</pdfrwt>
<totfact> 0.10085445E+08</totfact>
</mgrwt>
</event>
<event>
 4    1  0.7616518E+004  0.2974650E+02  0.7546771E-02  0.1600908E+00
         21   -1    0    0  503  502  0.00000000000E+00  0.00000000000E+00  0.10319212988E+02  0.10319212988E+02  0.00000000000E+00 0.  1.
         21   -1    0    0  501  503 -0.00000000000E+00 -0.00000000000E+00 -0.86912887143E+02  0.86912887143E+02  0.00000000000E+00 0.  1.
          4    1    1    2  501    0  0.29003963419E+02 -0.66048723427E+01 -0.43924614578E+02  0.53049278963E+02  0.00000000000E+00 0. -1.
         -4    1    1    2    0  502 -0.29003963419E+02  0.66048723427E+01 -0.32669059578E+02  0.44182821168E+02  0.00000000000E+00 0.  1.
<mgrwt>
<rscale>  2 0.29746500E+02</rscale>
<asrwt>0</asrwt>
<pdfrwt beam="1">  1       21 0.15875712E-02 0.29746500E+02</pdfrwt>
<pdfrwt beam="2">  1       21 0.13371213E-01 0.29746500E+02</pdfrwt>
<totfact> 0.65065038E+07</totfact>
</mgrwt>
</event>
<event>
 4    1  0.7616518E+004  0.2944588E+02  0.7546771E-02  0.1604296E+00
         21   -1    0    0  503  502  0.00000000000E+00  0.00000000000E+00  0.21989308902E+03  0.21989308902E+03  0.00000000000E+00 0.  1.
         21   -1    0    0  501  503 -0.00000000000E+00 -0.00000000000E+00 -0.39432709675E+01  0.39432709675E+01  0.00000000000E+00 0.  1.
          3    1    1    2  501    0 -0.24192003396E+02  0.16787096239E+02  0.10871974897E+03  0.11263677660E+03  0.00000000000E+00 0.  1.
         -3    1    1    2    0  502  0.24192003396E+02 -0.16787096239E+02  0.10723006909E+03  0.11119958339E+03  0.00000000000E+00 0. -1.
<mgrwt>
<rscale>  2 0.29445876E+02</rscale>
<asrwt>0</asrwt>
<pdfrwt beam="1">  1       21 0.33829696E-01 0.29445876E+02</pdfrwt>
<pdfrwt beam="2">  1       21 0.60665724E-03 0.29445876E+02</pdfrwt>
<totfact> 0.53548527E+07</totfact>
</mgrwt>
</event>
<event>
 4    1  0.7616518E+004  0.5999598E+02  0.7546771E-02  0.1397849E+00
         21   -1    0    0  501  502  0.00000000000E+00  0.00000000000E+00  0.15856229231E+02  0.15856229231E+02  0.00000000000E+00 0. -1.
         21   -1    0    0  502  503 -0.00000000000E+00 -0.00000000000E+00 -0.28663833826E+03  0.28663833826E+03  0.00000000000E+00 0. -1.
          3    1    1    2  501    0 -0.21274179930E+02 -0.56097476248E+02 -0.20437498769E+03  0.21299918584E+03  0.00000000000E+00 0.  1.
         -3    1    1    2    0  503  0.21274179930E+02  0.56097476248E+02 -0.66407121335E+02  0.89495381653E+02  0.00000000000E+00 0. -1.
<mgrwt>
<rscale>  2 0.59995980E+02</rscale>
<asrwt>0</asrwt>
<pdfrwt beam="1">  1       21 0.24394199E-02 0.59995980E+02</pdfrwt>
<pdfrwt beam="2">  1       21 0.44098205E-01 0.59995980E+02</pdfrwt>
<totfact> 0.41583593E+06</totfact>
</mgrwt>
</event>
<event>
 4    1  0.7616518E+004  0.2440819E+02  0.7546771E-02  0.1669651E+00
         21   -1    0    0  501  502  0.00000000000E+00  0.00000000000E+00  0.42850667156E+03  0.42850667156E+03  0.00000000000E+00 0.  1.
         21   -1    0    0  502  503 -0.00000000000E+00 -0.00000000000E+00 -0.15931657087E+01  0.15931657087E+01  0.00000000000E+00 0.  1.
          2    1    1    2  501    0  0.15187332160E+02  0.19107708236E+02  0.29019224369E+03  0.29121692579E+03  0.00000000000E+00 0. -1.
         -2    1    1    2    0  503 -0.15187332160E+02 -0.19107708236E+02  0.13672126216E+03  0.13888291147E+03  0.00000000000E+00 0.  1.
<mgrwt>
<rscale>  2 0.24408187E+02</rscale>
<asrwt>0</asrwt>
<pdfrwt beam="1">  1       21 0.65924012E-01 0.24408187E+02</pdfrwt>
<pdfrwt beam="2">  1       21 0.24510276E-03 0.24408187E+02</pdfrwt>
<totfact> 0.53420416E+07</totfact>
</mgrwt>
</event>
<event>
 4    1  0.7616518E+004  0.2601954E+02  0.7546771E-02  0.1646775E+00
         21   -1    0    0  503  502  0.00000000000E+00  0.00000000000E+00  0.36589035755E+01  0.36589035755E+01  0.00000000000E+00 0. -1.
         21   -1    0    0  501  503 -0.00000000000E+00 -0.00000000000E+00 -0.18627503615E+03  0.18627503615E+03  0.00000000000E+00 0. -1.
          4    1    1    2  501    0  0.25820921610E+02 -0.32088507286E+01 -0.99063734103E+02  0.10242382599E+03  0.00000000000E+00 0. -1.
         -4    1    1    2    0  502 -0.25820921610E+02  0.32088507286E+01 -0.83552398470E+02  0.87510113735E+02  0.00000000000E+00 0.  1.
<mgrwt>
<rscale>  2 0.26019545E+02</rscale>
<asrwt>0</asrwt>
<pdfrwt beam="1">  1       21 0.56290822E-03 0.26019545E+02</pdfrwt>
<pdfrwt beam="2">  1       21 0.28657699E-01 0.26019545E+02</pdfrwt>
<totfact> 0.78979919E+07</totfact>
</mgrwt>
</event>
<event>
 4    1  0.7616518E+004  0.2889379E+02  0.7546771E-02  0.1610648E+00
         21   -1    0    0  503  502  0.00000000000E+00  0.00000000000E+00  0.12697538972E+02  0.12697538972E+02  0.00000000000E+00 0. -1.
         21   -1    0    0  501  503 -0.00000000000E+00 -0.00000000000E+00 -0.65762261231E+02  0.65762261231E+02  0.00000000000E+00 0. -1.
          1    1    1    2  501    0 -0.28830281959E+02 -0.19145915614E+01 -0.25975821224E+02  0.38853495428E+02  0.00000000000E+00 0.  1.
         -1    1    1    2    0  502  0.28830281959E+02  0.19145915614E+01 -0.27088901034E+02  0.39606304775E+02  0.00000000000E+00 0. -1.
<mgrwt>
<rscale>  2 0.28893785E+02</rscale>
<asrwt>0</asrwt>
<pdfrwt beam="1">  1       21 0.19534676E-02 0.28893785E+02</pdfrwt>
<pdfrwt beam="2">  1       21 0.10117271E-01 0.28893785E+02</pdfrwt>
<totfact> 0.75147755E+07</totfact>
</mgrwt>
</event>
<event>
 4    1  0.7616518E+004  0.4709100E+02  0.7546771E-02  0.1461695E+00
         21   -1    0    0  501  502  0.00000000000E+00  0.00000000000E+00  0.70513882231E+02  0.70513882231E+02  0.00000000000E+00 0. -1.
         21   -1    0    0  502  503 -0.00000000000E+00 -0.00000000000E+00 -0.61461030814E+02  0.61461030814E+02  0.00000000000E+00 0. -1.
          5    1    1    2  501    0  0.54548501702E+01 -0.46773995347E+02 -0.41585381317E+02  0.62824405849E+02  0.00000000000E+00 0. -1.
         -5    1    1    2    0  503 -0.54548501702E+01  0.46773995347E+02  0.50638232733E+02  0.69150507196E+02  0.00000000000E+00 0.  1.
<mgrwt>
<rscale>  2 0.47090997E+02</rscale>
<asrwt>0</asrwt>
<pdfrwt beam="1">  1       21 0.10848290E-01 0.47090997E+02</pdfrwt>
<pdfrwt beam="2">  1       21 0.94555432E-02 0.47090997E+02</pdfrwt>
<totfact> 0.57137939E+06</totfact>
</mgrwt>
</event>
<event>
 4    1  0.7616518E+004  0.2832378E+02  0.7546771E-02  0.1617392E+00
         21   -1    0    0  503  502  0.00000000000E+00  0.00000000000E+00  0.35545868634E+02  0.35545868634E+02  0.00000000000E+00 0.  1.
         21   -1    0    0  501  503 -0.00000000000E+00 -0.00000000000E+00 -0.23626161224E+02  0.23626161224E+02  0.00000000000E+00 0.  1.
          2    1    1    2  501    0  0.24134076540E+02 -0.14825067471E+02  0.12218082680E+02  0.30846682486E+02  0.00000000000E+00 0.  1.
         -2    1    1    2    0  502 -0.24134076540E+02  0.14825067471E+02 -0.29837527075E+00  0.28325347373E+02  0.00000000000E+00 0. -1.
<mgrwt>
<rscale>  2 0.28323776E+02</rscale>
<asrwt>0</asrwt>
<pdfrwt beam="1">  1       21 0.54685952E-02 0.28323776E+02</pdfrwt>
<pdfrwt beam="2">  1       21 0.36347940E-02 0.28323776E+02</pdfrwt>
<totfact> 0.77690317E+07</totfact>
</mgrwt>
</event>
<event>
 4    1  0.7616518E+004  0.2275644E+02  0.7546771E-02  0.1695489E+00
         21   -1    0    0  501  502  0.00000000000E+00  0.00000000000E+00  0.58479664255E+02  0.58479664255E+02  0.00000000000E+00 0.  1.
         21   -1    0    0  502  503 -0.00000000000E+00 -0.00000000000E+00 -0.14135688851E+02  0.14135688851E+02  0.00000000000E+00 0.  1.
          3    1    1    2  501    0  0.70969605634E+01 -0.21621486174E+02  0.44362766298E+02  0.49858906399E+02  0.00000000000E+00 0.  1.
         -3    1    1    2    0  503 -0.70969605634E+01  0.21621486174E+02 -0.18790894700E-01  0.22756446707E+02  0.00000000000E+00 0. -1.
<mgrwt>
<rscale>  2 0.22756439E+02</rscale>
<asrwt>0</asrwt>
<pdfrwt beam="1">  1       21 0.89968713E-02 0.22756439E+02</pdfrwt>
<pdfrwt beam="2">  1       21 0.21747214E-02 0.22756439E+02</pdfrwt>
<totfact> 0.72759488E+07</totfact>
</mgrwt>
</event>
<event>
 4    1  0.7616518E+004  0.2259068E+02  0.7546771E-02  0.1698232E+00
         21   -1    0    0  503  502  0.00000000000E+00  0.00000000000E+00  0.92550112448E+01  0.92550112448E+01  0.00000000000E+00 0. -1.
         21   -1    0    0  501  503 -0.00000000000E+00 -0.00000000000E+00 -0.58234319291E+02  0.58234319291E+02  0.00000000000E+00 0. -1.
          3    1    1    2  501    0  0.21250416173E+01  0.22490512011E+02 -0.16713504574E+02  0.28101248505E+02  0.00000000000E+00 0. -1.
         -3    1    1    2    0  502 -0.21250416173E+01 -0.22490512011E+02 -0.32265803472E+02  0.39388082031E+02  0.00000000000E+00 0.  1.
<mgrwt>
<rscale>  2 0.22590682E+02</rscale>
<asrwt>0</asrwt>
<pdfrwt beam="1">  1       21 0.14238479E-02 0.22590682E+02</pdfrwt>
<pdfrwt beam="2">  1       21 0.89591261E-02 0.22590682E+02</pdfrwt>
<totfact> 0.13959869E+08</totfact>
</mgrwt>
</event>
<event>
 4    1  0.7616518E+004  0.2962047E+02  0.7546771E-02  0.1602322E+00
         21   -1    0    0  503  502  0.00000000000E+00  0.00000000000E+00  0.47484338628E+03  0.47484338628E+03  0.00000000000E+00 0. -1.
         21   -1    0    0  501  503 -0.00000000000E+00 -0.00000000000E+00 -0.20734993281E+01  0.20734993281E+01  0.00000000000E+00 0. -1.
          2    1    1    2  501    0 -0.25573804237E+02  0.14944997091E+02  0.15769605409E+03  0.16045378735E+03  0.00000000000E+00 0.  1.
         -2    1    1    2    0  502  0.25573804237E+02 -0.14944997091E+02  0.31507383287E+03  0.31646309826E+03  0.00000000000E+00 0. -1.
<mgrwt>
<rscale>  2 0.29620473E+02</rscale>
<asrwt>0</asrwt>
<pdfrwt beam="1">  1       21 0.73052742E-01 0.29620473E+02</pdfrwt>
<pdfrwt beam="2">  1       21 0.31900027E-03 0.29620473E+02</pdfrwt>
<totfact> 0.30575322E+07</totfact>
</mgrwt>
</event>
<event>
 4    1  0.7616518E+004  0.2502955E+02  0.7546771E-02  0.1660578E+00
         21   -1    0    0  501  502  0.00000000000E+00  0.00000000000E+00  0.51046074209E+02  0.51046074209E+02  0.00000000000E+00 0.  1.
         21   -1    0    0  502  503 -0.00000000000E+00 -0.00000000000E+00 -0.17498249652E+02  0.17498249652E+02  0.00000000000E+00 0.  1.
          4    1    1    2  501    0 -0.11323151426E+02 -0.22321843483E+02 -0.19547117691E+01  0.25105763338E+02  0.00000000000E+00 0.  1.
         -4    1    1    2    0  503  0.11323151426E+02  0.22321843483E+02  0.35502536326E+02  0.43438560523E+02  0.00000000000E+00 0. -1.
<mgrwt>
<rscale>  2 0.25029552E+02</rscale>
<asrwt>0</asrwt>
<pdfrwt beam="1">  1       21 0.78532421E-02 0.25029552E+02</pdfrwt>
<pdfrwt beam="2">  1       21 0.26920384E-02 0.25029552E+02</pdfrwt>
<totfact> 0.67036305E+07</totfact>
</mgrwt>
</event>
<event>
 4    1  0.7616518E+004  0.4699040E+02  0.7546771E-02  0.1462285E+00
         21   -1    0    0  503  502  0.00000000000E+00  0.00000000000E+00  0.80505349986E+02  0.80505349986E+02  0.00000000000E+00 0. -1.
         21   -1    0    0  501  503 -0.00000000000E+00 -0.00000000000E+00 -0.33534868743E+02  0.33534868743E+02  0.00000000000E+00 0. -1.
          2    1    1    2  501    0  0.77444486625E+01  0.46347826218E+02 -0.84746897019E+00  0.46998039149E+02  0.00000000000E+00 0. -1.
         -2    1    1    2    0  502 -0.77444486625E+01 -0.46347826218E+02  0.47817950213E+02  0.67042179580E+02  0.00000000000E+00 0.  1.
<mgrwt>
<rscale>  2 0.46990398E+02</rscale>
<asrwt>0</asrwt>
<pdfrwt beam="1">  1       21 0.12385438E-01 0.46990398E+02</pdfrwt>
<pdfrwt beam="2">  1       21 0.51592106E-02 0.46990398E+02</pdfrwt>
<totfact> 0.12459734E+07</totfact>
</mgrwt>
</event>
<event>
 4    1  0.7616518E+004  0.2375859E+02  0.7546771E-02  0.1679501E+00
         21   -1    0    0  503  502  0.00000000000E+00  0.00000000000E+00  0.18724985631E+01  0.18724985631E+01  0.00000000000E+00 0.  1.
         21   -1    0    0  501  503 -0.00000000000E+00 -0.00000000000E+00 -0.31940058993E+03  0.31940058993E+03  0.00000000000E+00 0.  1.
          3    1    1    2  501    0  0.83426797586E+01 -0.22245676998E+02 -0.12068564917E+03  0.12300201774E+03  0.00000000000E+00 0. -1.
         -3    1    1    2    0  502 -0.83426797586E+01  0.22245676998E+02 -0.19684244220E+03  0.19827107076E+03  0.00000000000E+00 0.  1.
<mgrwt>
<rscale>  2 0.23758587E+02</rscale>
<asrwt>0</asrwt>
<pdfrwt beam="1">  1       21 0.28807677E-03 0.23758587E+02</pdfrwt>
<pdfrwt beam="2">  1       21 0.49138541E-01 0.23758587E+02</pdfrwt>
<totfact> 0.75234688E+07</totfact>
</mgrwt>
</event>
<event>
 4    1  0.7616518E+004  0.2704564E+02  0.7546771E-02  0.1633247E+00
         21   -1    0    0  501  502  0.00000000000E+00  0.00000000000E+00  0.35565093982E+03  0.35565093982E+03  0.00000000000E+00 0. -1.
         21   -1    0    0  502  503 -0.00000000000E+00 -0.00000000000E+00 -0.28644783860E+01  0.28644783860E+01  0.00000000000E+00 0. -1.
          3    1    1    2  501    0  0.84888077174E+00  0.27032309869E+02  0.27158554185E+03  0.27292887886E+03  0.00000000000E+00 0.  1.
         -3    1    1    2    0  503 -0.84888077174E+00 -0.27032309869E+02  0.81200919580E+02  0.85586539339E+02  0.00000000000E+00 0. -1.
<mgrwt>
<rscale>  2 0.27045635E+02</rscale>
<asrwt>0</asrwt>
<pdfrwt beam="1">  1       21 0.54715494E-01 0.27045635E+02</pdfrwt>
<pdfrwt beam="2">  1       21 0.44068927E-03 0.27045635E+02</pdfrwt>
<totfact> 0.33593086E+07</totfact>
</mgrwt>
</event>
<event>
 4    1  0.7616518E+004  0.3700591E+02  0.7546771E-02  0.1531476E+00
         21   -1    0    0  503  502  0.00000000000E+00  0.00000000000E+00  0.14881879018E+04  0.14881879018E+04  0.00000000000E+00 0. -1.
         21   -1    0    0  501  503 -0.00000000000E+00 -0.00000000000E+00 -0.36730403256E+01  0.36730403256E+01  0.00000000000E+00 0. -1.
          4    1    1    2  501    0 -0.29336042845E+02  0.22557341234E+02  0.96490704349E+02  0.10334356816E+03  0.00000000000E+00 0.  1.
         -4    1    1    2    0  502  0.29336042845E+02 -0.22557341234E+02  0.13880241571E+04  0.13885173739E+04  0.00000000000E+00 0. -1.
<mgrwt>
<rscale>  2 0.37005906E+02</rscale>
<asrwt>0</asrwt>
<pdfrwt beam="1">  1       21 0.22895150E+00 0.37005906E+02</pdfrwt>
<pdfrwt beam="2">  1       21 0.56508431E-03 0.37005906E+02</pdfrwt>
<totfact> 0.88235227E+05</totfact>
</mgrwt>
</event>
<event>
 4    1  0.7616518E+004  0.2309317E+02  0.7546771E-02  0.1690004E+00
         21   -1    0    0  503  502  0.00000000000E+00  0.00000000000E+00  0.17666624301E+02  0.17666624301E+02  0.00000000000E+00 0.  1.
         21   -1    0    0  501  503 -0.00000000000E+00 -0.00000000000E+00 -0.43782028668E+02  0.43782028668E+02  0.00000000000E+00 0.  1.
          2    1    1    2  501    0  0.22906151937E+02 -0.29330384713E+01 -0.30178800290E+02  0.38000717075E+02  0.00000000000E+00 0. -1.
         -2    1    1    2    0  502 -0.22906151937E+02  0.29330384713E+01  0.40633959233E+01  0.23447935893E+02  0.00000000000E+00 0.  1.
<mgrwt>
<rscale>  2 0.23093170E+02</rscale>
<asrwt>0</asrwt>
<pdfrwt beam="1">  1       21 0.27179422E-02 0.23093170E+02</pdfrwt>
<pdfrwt beam="2">  1       21 0.67356967E-02 0.23093170E+02</pdfrwt>
<totfact> 0.82956983E+07</totfact>
</mgrwt>
</event>
<event>
 4    1  0.7616518E+004  0.3116035E+02  0.7546771E-02  0.1585606E+00
         21   -1    0    0  503  502  0.00000000000E+00  0.00000000000E+00  0.26251180805E+03  0.26251180805E+03  0.00000000000E+00 0. -1.
         21   -1    0    0  501  503 -0.00000000000E+00 -0.00000000000E+00 -0.39231699889E+01  0.39231699889E+01  0.00000000000E+00 0. -1.
          3    1    1    2  501    0 -0.10633680457E+02 -0.29289800079E+02  0.97432829047E+02  0.10229429957E+03  0.00000000000E+00 0. -1.
         -3    1    1    2    0  502  0.10633680457E+02  0.29289800079E+02  0.16115580901E+03  0.16414067847E+03  0.00000000000E+00 0.  1.
<mgrwt>
<rscale>  2 0.31160352E+02</rscale>
<asrwt>0</asrwt>
<pdfrwt beam="1">  1       21 0.40386418E-01 0.31160352E+02</pdfrwt>
<pdfrwt beam="2">  1       21 0.60356482E-03 0.31160352E+02</pdfrwt>
<totfact> 0.39068002E+07</totfact>
</mgrwt>
</event>
<event>
 4    1  0.7616518E+004  0.2207662E+02  0.7546771E-02  0.1706930E+00
         21   -1    0    0  501  502  0.00000000000E+00  0.00000000000E+00  0.37282256669E+02  0.37282256669E+02  0.00000000000E+00 0.  1.
         21   -1    0    0  502  503 -0.00000000000E+00 -0.00000000000E+00 -0.19633178503E+02  0.19633178503E+02  0.00000000000E+00 0.  1.
          3    1    1    2  501    0 -0.14274640214E+02  0.16840782640E+02 -0.76257935992E+01  0.23356584536E+02  0.00000000000E+00 0.  1.
         -3    1    1    2    0  503  0.14274640214E+02 -0.16840782640E+02  0.25274871765E+02  0.33558850635E+02  0.00000000000E+00 0. -1.
<mgrwt>
<rscale>  2 0.22076624E+02</rscale>
<asrwt>0</asrwt>
<pdfrwt beam="1">  1       21 0.57357318E-02 0.22076624E+02</pdfrwt>
<pdfrwt beam="2">  1       21 0.30204890E-02 0.22076624E+02</pdfrwt>
<totfact> 0.90021579E+07</totfact>
</mgrwt>
</event>
<event>
 4    1  0.7616518E+004  0.2000313E+02  0.7546771E-02  0.1745266E+00
         21   -1    0    0  503  502  0.00000000000E+00  0.00000000000E+00  0.25835106699E+03  0.25835106699E+03  0.00000000000E+00 0.  1.
         21   -1    0    0  501  503 -0.00000000000E+00 -0.00000000000E+00 -0.18891375761E+01  0.18891375761E+01  0.00000000000E+00 0.  1.
          4    1    1    2  501    0  0.14501967119E+02  0.13777457722E+02  0.72999172035E+02  0.75690187669E+02  0.00000000000E+00 0. -1.
         -4    1    1    2    0  502 -0.14501967119E+02 -0.13777457722E+02  0.18346275738E+03  0.18455001689E+03  0.00000000000E+00 0.  1.
<mgrwt>
<rscale>  2 0.20003135E+02</rscale>
<asrwt>0</asrwt>
<pdfrwt beam="1">  1       21 0.39746290E-01 0.20003135E+02</pdfrwt>
<pdfrwt beam="2">  1       21 0.29063676E-03 0.20003135E+02</pdfrwt>
<totfact> 0.10634010E+08</totfact>
</mgrwt>
</event>
<event>
 4    1  0.7616518E+004  0.4151941E+02  0.7546771E-02  0.1497319E+00
         21   -1    0    0  501  502  0.00000000000E+00  0.00000000000E+00  0.15415526410E+01  0.15415526410E+01  0.00000000000E+00 0.  1.
         21   -1    0    0  502  503 -0.00000000000E+00 -0.00000000000E+00 -0.11238939070E+04  0.11238939070E+04  0.00000000000E+00 0.  1.
          4    1    1    2  501    0 -0.36822917357E+01  0.41355796134E+02 -0.52134524356E+03  0.52299591215E+03  0.00000000000E+00 0.  1.
         -4    1    1    2    0  503  0.36822917357E+01 -0.41355796134E+02 -0.60100711083E+03  0.60243954752E+03  0.00000000000E+00 0. -1.
<mgrwt>
<rscale>  2 0.41519407E+02</rscale>
<asrwt>0</asrwt>
<pdfrwt beam="1">  1       21 0.23716334E-03 0.41519407E+02</pdfrwt>
<pdfrwt beam="2">  1       21 0.17290574E+00 0.41519407E+02</pdfrwt>
<totfact> 0.68545394E+06</totfact>
</mgrwt>
</event>
<event>
 4    1  0.7616518E+004  0.2105274E+02  0.7546771E-02  0.1725169E+00
         21   -1    0    0  501  502  0.00000000000E+00  0.00000000000E+00  0.53170930092E+03  0.53170930092E+03  0.00000000000E+00 0.  1.
         21   -1    0    0  502  503 -0.00000000000E+00 -0.00000000000E+00 -0.10814463830E+01  0.10814463830E+01  0.00000000000E+00 0.  1.
          1    1    1    2  501    0  0.14280236979E+02  0.15469082356E+02  0.13777565976E+03  0.13937485462E+03  0.00000000000E+00 0. -1.
         -1    1    1    2    0  503 -0.14280236979E+02 -0.15469082356E+02  0.39285219478E+03  0.39341589269E+03  0.00000000000E+00 0.  1.
<mgrwt>
<rscale>  2 0.21052736E+02</rscale>
<asrwt>0</asrwt>
<pdfrwt beam="1">  1       21 0.81801222E-01 0.21052736E+02</pdfrwt>
<pdfrwt beam="2">  1       21 0.16637679E-03 0.21052736E+02</pdfrwt>
<totfact> 0.57816527E+07</totfact>
</mgrwt>
</event>
<event>
 4    1  0.7616518E+004  0.2464905E+02  0.7546771E-02  0.1666094E+00
         21   -1    0    0  501  502  0.00000000000E+00  0.00000000000E+00  0.83626046017E+02  0.83626046017E+02  0.00000000000E+00 0.  1.
         21   -1    0    0  502  503 -0.00000000000E+00 -0.00000000000E+00 -0.92209614027E+01  0.92209614027E+01  0.00000000000E+00 0.  1.
          2    1    1    2  501    0 -0.16483309789E+02 -0.18326927242E+02  0.15823573641E+02  0.29290975513E+02  0.00000000000E+00 0.  1.
         -2    1    1    2    0  503  0.16483309789E+02  0.18326927242E+02  0.58581510973E+02  0.63556031906E+02  0.00000000000E+00 0. -1.
<mgrwt>
<rscale>  2 0.24649052E+02</rscale>
<asrwt>0</asrwt>
<pdfrwt beam="1">  1       21 0.12865545E-01 0.24649052E+02</pdfrwt>
<pdfrwt beam="2">  1       21 0.14186095E-02 0.24649052E+02</pdfrwt>
<totfact> 0.78797645E+07</totfact>
</mgrwt>
</event>
<event>
 4    1  0.7616518E+004  0.4547144E+02  0.7546771E-02  0.1471420E+00
         21   -1    0    0  503  502  0.00000000000E+00  0.00000000000E+00  0.65673174356E+02  0.65673174356E+02  0.00000000000E+00 0.  1.
         21   -1    0    0  501  503 -0.00000000000E+00 -0.00000000000E+00 -0.39292120272E+02  0.39292120272E+02  0.00000000000E+00 0.  1.
          4    1    1    2  501    0  0.44611432190E+02 -0.88017946943E+01  0.36586300780E+02  0.58362735342E+02  0.00000000000E+00 0. -1.
         -4    1    1    2    0  502 -0.44611432190E+02  0.88017946943E+01 -0.10205246696E+02  0.46602559286E+02  0.00000000000E+00 0.  1.
<mgrwt>
<rscale>  2 0.45471436E+02</rscale>
<asrwt>0</asrwt>
<pdfrwt beam="1">  1       21 0.10103565E-01 0.45471436E+02</pdfrwt>
<pdfrwt beam="2">  1       21 0.60449416E-02 0.45471436E+02</pdfrwt>
<totfact> 0.13551330E+07</totfact>
</mgrwt>
</event>
<event>
 4    1  0.7616518E+004  0.2417996E+02  0.7546771E-02  0.1673068E+00
         21   -1    0    0  501  502  0.00000000000E+00  0.00000000000E+00  0.60751009102E+01  0.60751009102E+01  0.00000000000E+00 0.  1.
         21   -1    0    0  502  503 -0.00000000000E+00 -0.00000000000E+00 -0.12114552829E+03  0.12114552829E+03  0.00000000000E+00 0.  1.
          3    1    1    2  501    0 -0.22562038602E+02  0.86962500894E+01 -0.28693707298E+02  0.37523315285E+02  0.00000000000E+00 0.  1.
         -3    1    1    2    0  503  0.22562038602E+02 -0.86962500894E+01 -0.86376720087E+02  0.89697313920E+02  0.00000000000E+00 0. -1.
<mgrwt>
<rscale>  2 0.24179958E+02</rscale>
<asrwt>0</asrwt>
<pdfrwt beam="1">  1       21 0.93463085E-03 0.24179958E+02</pdfrwt>
<pdfrwt beam="2">  1       21 0.18637775E-01 0.24179958E+02</pdfrwt>
<totfact> 0.78107998E+07</totfact>
</mgrwt>
</event>
<event>
 4    1  0.7616518E+004  0.2280647E+02  0.7546771E-02  0.1694667E+00
         21   -1    0    0  501  502  0.00000000000E+00  0.00000000000E+00  0.43205481094E+00  0.43205481094E+00  0.00000000000E+00 0.  1.
         21   -1    0    0  502  503 -0.00000000000E+00 -0.00000000000E+00 -0.12059950453E+04  0.12059950453E+04  0.00000000000E+00 0.  1.
          5    1    1    2  501    0  0.84075990083E+01  0.21200173310E+02 -0.62814055907E+03  0.62855445032E+03  0.00000000000E+00 0.  1.
         -5    1    1    2    0  503 -0.84075990083E+01 -0.21200173310E+02 -0.57742243144E+03  0.57787264981E+03  0.00000000000E+00 0. -1.
<mgrwt>
<rscale>  2 0.22806470E+02</rscale>
<asrwt>0</asrwt>
<pdfrwt beam="1">  1       21 0.66469333E-04 0.22806470E+02</pdfrwt>
<pdfrwt beam="2">  1       21 0.18553948E+00 0.22806470E+02</pdfrwt>
<totfact> 0.33538938E+07</totfact>
</mgrwt>
</event>
<event>
 4    1  0.7616518E+004  0.2334385E+02  0.7546771E-02  0.1685996E+00
         21   -1    0    0  501  502  0.00000000000E+00  0.00000000000E+00  0.30546766214E+02  0.30546766214E+02  0.00000000000E+00 0. -1.
         21   -1    0    0  502  503 -0.00000000000E+00 -0.00000000000E+00 -0.20764244541E+02  0.20764244541E+02  0.00000000000E+00 0. -1.
          1    1    1    2  501    0 -0.22814244390E+02 -0.49442415576E+01  0.14520137523E+02  0.27491265256E+02  0.00000000000E+00 0. -1.
         -1    1    1    2    0  503  0.22814244390E+02  0.49442415576E+01 -0.47376158502E+01  0.23819745499E+02  0.00000000000E+00 0.  1.
<mgrwt>
<rscale>  2 0.23343849E+02</rscale>
<asrwt>0</asrwt>
<pdfrwt beam="1">  1       21 0.46995025E-02 0.23343849E+02</pdfrwt>
<pdfrwt beam="2">  1       21 0.31944992E-02 0.23343849E+02</pdfrwt>
<totfact> 0.11518618E+08</totfact>
</mgrwt>
</event>
<event>
 4    1  0.7616518E+004  0.2747460E+02  0.7546771E-02  0.1627808E+00
         21   -1    0    0  501  502  0.00000000000E+00  0.00000000000E+00  0.12863162319E+01  0.12863162319E+01  0.00000000000E+00 0.  1.
         21   -1    0    0  502  503 -0.00000000000E+00 -0.00000000000E+00 -0.11664322077E+04  0.11664322077E+04  0.00000000000E+00 0.  1.
          3    1    1    2  501    0 -0.21227707102E+02 -0.17442420815E+02 -0.17100448453E+03  0.17319753844E+03  0.00000000000E+00 0. -1.
         -3    1    1    2    0  503  0.21227707102E+02  0.17442420815E+02 -0.99414140698E+03  0.99452098553E+03  0.00000000000E+00 0.  1.
<mgrwt>
<rscale>  2 0.27474599E+02</rscale>
<asrwt>0</asrwt>
<pdfrwt beam="1">  1       21 0.19789478E-03 0.27474599E+02</pdfrwt>
<pdfrwt beam="2">  1       21 0.17945114E+00 0.27474599E+02</pdfrwt>
<totfact> 0.78445589E+06</totfact>
</mgrwt>
</event>
<event>
 4    1  0.7616518E+004  0.2311846E+02  0.7546771E-02  0.1689597E+00
         21   -1    0    0  501  502  0.00000000000E+00  0.00000000000E+00  0.82729537892E+03  0.82729537892E+03  0.00000000000E+00 0. -1.
         21   -1    0    0  502  503 -0.00000000000E+00 -0.00000000000E+00 -0.65331329380E+00  0.65331329380E+00  0.00000000000E+00 0. -1.
          1    1    1    2  501    0  0.16713061093E+02  0.15973006467E+02  0.36963218315E+03  0.37035444397E+03  0.00000000000E+00 0.  1.
         -1    1    1    2    0  503 -0.16713061093E+02 -0.15973006467E+02  0.45700988248E+03  0.45759424824E+03  0.00000000000E+00 0. -1.
<mgrwt>
<rscale>  2 0.23118463E+02</rscale>
<asrwt>0</asrwt>
<pdfrwt beam="1">  1       21 0.12727537E+00 0.23118463E+02</pdfrwt>
<pdfrwt beam="2">  1       21 0.10051040E-03 0.23118463E+02</pdfrwt>
<totfact> 0.46035036E+07</totfact>
</mgrwt>
</event>
<event>
 4    1  0.7616518E+004  0.3186921E+02  0.7546771E-02  0.1578301E+00
         21   -1    0    0  501  502  0.00000000000E+00  0.00000000000E+00  0.45910285689E+02  0.45910285689E+02  0.00000000000E+00 0. -1.
         21   -1    0    0  502  503 -0.00000000000E+00 -0.00000000000E+00 -0.29875806229E+02  0.29875806229E+02  0.00000000000E+00 0. -1.
          5    1    1    2  501    0 -0.21792446862E+01  0.31794610843E+02 -0.11286682222E+02  0.33808809231E+02  0.00000000000E+00 0.  1.
         -5    1    1    2    0  503  0.21792446862E+01 -0.31794610843E+02  0.27321161682E+02  0.41977282686E+02  0.00000000000E+00 0. -1.
<mgrwt>
<rscale>  2 0.31869207E+02</rscale>
<asrwt>0</asrwt>
<pdfrwt beam="1">  1       21 0.70631208E-02 0.31869207E+02</pdfrwt>
<pdfrwt beam="2">  1       21 0.45962779E-02 0.31869207E+02</pdfrwt>
<totfact> 0.36203588E+07</totfact>
</mgrwt>
</event>
<event>
 4    1  0.7616518E+004  0.4140052E+02  0.7546771E-02  0.1498151E+00
         21   -1    0    0  503  502  0.00000000000E+00  0.00000000000E+00  0.37833761044E+02  0.37833761044E+02  0.00000000000E+00 0.  1.
         21   -1    0    0  501  503 -0.00000000000E+00 -0.00000000000E+00 -0.46784013150E+02  0.46784013150E+02  0.00000000000E+00 0.  1.
          1    1    1    2  501    0  0.16724149969E+02 -0.37872226853E+02  0.30512386084E+01  0.41512803037E+02  0.00000000000E+00 0.  1.
         -1    1    1    2    0  502 -0.16724149969E+02  0.37872226853E+02 -0.12001490714E+02  0.43104971156E+02  0.00000000000E+00 0. -1.
<mgrwt>
<rscale>  2 0.41400516E+02</rscale>
<asrwt>0</asrwt>
<pdfrwt beam="1">  1       21 0.58205786E-02 0.41400516E+02</pdfrwt>
<pdfrwt beam="2">  1       21 0.71975405E-02 0.41400516E+02</pdfrwt>
<totfact> 0.25112899E+07</totfact>
</mgrwt>
</event>
<event>
 4    1  0.7616518E+004  0.2595922E+02  0.7546771E-02  0.1647595E+00
         21   -1    0    0  501  502  0.00000000000E+00  0.00000000000E+00  0.30651496951E+03  0.30651496951E+03  0.00000000000E+00 0.  1.
         21   -1    0    0  502  503 -0.00000000000E+00 -0.00000000000E+00 -0.31750147005E+01  0.31750147005E+01  0.00000000000E+00 0.  1.
          2    1    1    2  501    0 -0.24239967368E+01 -0.25845799870E+02  0.23754322829E+03  0.23895745738E+03  0.00000000000E+00 0.  1.
         -2    1    1    2    0  503  0.24239967368E+01  0.25845799870E+02  0.65796726517E+02  0.70732526828E+02  0.00000000000E+00 0. -1.
<mgrwt>
<rscale>  2 0.25959221E+02</rscale>
<asrwt>0</asrwt>
<pdfrwt beam="1">  1       21 0.47156126E-01 0.25959221E+02</pdfrwt>
<pdfrwt beam="2">  1       21 0.48846404E-03 0.25959221E+02</pdfrwt>
<totfact> 0.38287435E+07</totfact>
</mgrwt>
</event>
<event>
 4    1  0.7616518E+004  0.2421116E+02  0.7546771E-02  0.1672598E+00
         21   -1    0    0  501  502  0.00000000000E+00  0.00000000000E+00  0.80717687750E+01  0.80717687750E+01  0.00000000000E+00 0. -1.
         21   -1    0    0  502  503 -0.00000000000E+00 -0.00000000000E+00 -0.73293563564E+02  0.73293563564E+02  0.00000000000E+00 0. -1.
          1    1    1    2  501    0 -0.39328856725E+01  0.23889597926E+02 -0.28713983468E+02  0.37558931366E+02  0.00000000000E+00 0.  1.
         -1    1    1    2    0  503  0.39328856725E+01 -0.23889597926E+02 -0.36507811322E+02  0.43806400974E+02  0.00000000000E+00 0. -1.
<mgrwt>
<rscale>  2 0.24211164E+02</rscale>
<asrwt>0</asrwt>
<pdfrwt beam="1">  1       21 0.12418106E-02 0.24211164E+02</pdfrwt>
<pdfrwt beam="2">  1       21 0.11275933E-01 0.24211164E+02</pdfrwt>
<totfact> 0.11975951E+08</totfact>
</mgrwt>
</event>
<event>
 4    1  0.7616518E+004  0.2988434E+02  0.7546771E-02  0.1599371E+00
         21   -1    0    0  501  502  0.00000000000E+00  0.00000000000E+00  0.36357870334E+03  0.36357870334E+03  0.00000000000E+00 0.  1.
         21   -1    0    0  502  503 -0.00000000000E+00 -0.00000000000E+00 -0.30889400744E+01  0.30889400744E+01  0.00000000000E+00 0.  1.
          5    1    1    2  501    0 -0.23896729602E+02 -0.17944922430E+02  0.26321114135E+03  0.26490220621E+03  0.00000000000E+00 0.  1.
         -5    1    1    2    0  503  0.23896729602E+02  0.17944922430E+02  0.97278621921E+02  0.10176543721E+03  0.00000000000E+00 0. -1.
<mgrwt>
<rscale>  2 0.29884343E+02</rscale>
<asrwt>0</asrwt>
<pdfrwt beam="1">  1       21 0.55935151E-01 0.29884343E+02</pdfrwt>
<pdfrwt beam="2">  1       21 0.47522184E-03 0.29884343E+02</pdfrwt>
<totfact> 0.29308065E+07</totfact>
</mgrwt>
</event>
<event>
 4    1  0.7616518E+004  0.2139628E+02  0.7546771E-02  0.1718907E+00
         21   -1    0    0  503  502  0.00000000000E+00  0.00000000000E+00  0.99901925613E+01  0.99901925613E+01  0.00000000000E+00 0. -1.
         21   -1    0    0  501  503 -0.00000000000E+00 -0.00000000000E+00 -0.46383783407E+02  0.46383783407E+02  0.00000000000E+00 0. -1.
          4    1    1    2  501    0 -0.14996508539E+02 -0.15261242001E+02 -0.15103086201E+02  0.26189768777E+02  0.00000000000E+00 0. -1.
         -4    1    1    2    0  502  0.14996508539E+02  0.15261242001E+02 -0.21290504645E+02  0.30184207192E+02  0.00000000000E+00 0.  1.
<mgrwt>
<rscale>  2 0.21396279E+02</rscale>
<asrwt>0</asrwt>
<pdfrwt beam="1">  1       21 0.15369527E-02 0.21396279E+02</pdfrwt>
<pdfrwt beam="2">  1       21 0.71359666E-02 0.21396279E+02</pdfrwt>
<totfact> 0.17710463E+08</totfact>
</mgrwt>
</event>
<event>
 4    1  0.7616518E+004  0.2140864E+02  0.7546771E-02  0.1718685E+00
         21   -1    0    0  501  502  0.00000000000E+00  0.00000000000E+00  0.11504160136E+02  0.11504160136E+02  0.00000000000E+00 0.  1.
         21   -1    0    0  502  503 -0.00000000000E+00 -0.00000000000E+00 -0.39897174152E+02  0.39897174152E+02  0.00000000000E+00 0.  1.
          5    1    1    2  501    0 -0.88901134020E+01  0.19475514177E+02 -0.15166433872E+02  0.26236434307E+02  0.00000000000E+00 0.  1.
         -5    1    1    2    0  503  0.88901134020E+01 -0.19475514177E+02 -0.13226580143E+02  0.25164899981E+02  0.00000000000E+00 0. -1.
<mgrwt>
<rscale>  2 0.21408638E+02</rscale>
<asrwt>0</asrwt>
<pdfrwt beam="1">  1       21 0.17698707E-02 0.21408638E+02</pdfrwt>
<pdfrwt beam="2">  1       21 0.61380270E-02 0.21408638E+02</pdfrwt>
<totfact> 0.18216140E+08</totfact>
</mgrwt>
</event>
<event>
 4    1  0.7616518E+004  0.2027167E+02  0.7546771E-02  0.1739979E+00
         21   -1    0    0  501  502  0.00000000000E+00  0.00000000000E+00  0.16630054981E+04  0.16630054981E+04  0.00000000000E+00 0. -1.
         21   -1    0    0  502  503 -0.00000000000E+00 -0.00000000000E+00 -0.28847856709E+00  0.28847856709E+00  0.00000000000E+00 0. -1.
          1    1    1    2  501    0  0.16263353933E+02 -0.12101407370E+02  0.11463014186E+04  0.11464806509E+04  0.00000000000E+00 0.  1.
         -1    1    1    2    0  503 -0.16263353933E+02  0.12101407370E+02  0.51641560103E+03  0.51681332580E+03  0.00000000000E+00 0. -1.
<mgrwt>
<rscale>  2 0.20271673E+02</rscale>
<asrwt>0</asrwt>
<pdfrwt beam="1">  1       21 0.25583932E+00 0.20271673E+02</pdfrwt>
<pdfrwt beam="2">  1       21 0.44382650E-04 0.20271673E+02</pdfrwt>
<totfact> 0.24770159E+07</totfact>
</mgrwt>
</event>
<event>
 4    1  0.7616518E+004  0.2285880E+02  0.7546771E-02  0.1693809E+00
         21   -1    0    0  501  502  0.00000000000E+00  0.00000000000E+00  0.99757303305E+01  0.99757303305E+01  0.00000000000E+00 0. -1.
         21   -1    0    0  502  503 -0.00000000000E+00 -0.00000000000E+00 -0.53213520523E+02  0.53213520523E+02  0.00000000000E+00 0. -1.
          4    1    1    2  501    0 -0.14961809272E+02 -0.17282045150E+02 -0.17663744149E+02  0.28888279260E+02  0.00000000000E+00 0. -1.
         -4    1    1    2    0  503  0.14961809272E+02  0.17282045150E+02 -0.25574046044E+02  0.34300971594E+02  0.00000000000E+00 0.  1.
<mgrwt>
<rscale>  2 0.22858802E+02</rscale>
<asrwt>0</asrwt>
<pdfrwt beam="1">  1       21 0.15347278E-02 0.22858802E+02</pdfrwt>
<pdfrwt beam="2">  1       21 0.81866954E-02 0.22858802E+02</pdfrwt>
<totfact> 0.14489990E+08</totfact>
</mgrwt>
</event>
<event>
 4    1  0.7616518E+004  0.4466418E+02  0.7546771E-02  0.1476449E+00
         21   -1    0    0  503  502  0.00000000000E+00  0.00000000000E+00  0.12445471313E+02  0.12445471313E+02  0.00000000000E+00 0.  1.
         21   -1    0    0  501  503 -0.00000000000E+00 -0.00000000000E+00 -0.16138003742E+03  0.16138003742E+03  0.00000000000E+00 0.  1.
          2    1    1    2  501    0 -0.38051033545E+02 -0.23388192278E+02 -0.67325383274E+02  0.80793538881E+02  0.00000000000E+00 0. -1.
         -2    1    1    2    0  502  0.38051033545E+02  0.23388192278E+02 -0.81609182838E+02  0.93031969856E+02  0.00000000000E+00 0.  1.
<mgrwt>
<rscale>  2 0.44664177E+02</rscale>
<asrwt>0</asrwt>
<pdfrwt beam="1">  1       21 0.19146880E-02 0.44664177E+02</pdfrwt>
<pdfrwt beam="2">  1       21 0.24827696E-01 0.44664177E+02</pdfrwt>
<totfact> 0.17596749E+07</totfact>
</mgrwt>
</event>
<event>
 4    1  0.7616518E+004  0.2854378E+02  0.7546771E-02  0.1614766E+00
         21   -1    0    0  501  502  0.00000000000E+00  0.00000000000E+00  0.54879016098E+01  0.54879016098E+01  0.00000000000E+00 0. -1.
         21   -1    0    0  502  503 -0.00000000000E+00 -0.00000000000E+00 -0.14917240718E+03  0.14917240718E+03  0.00000000000E+00 0. -1.
          5    1    1    2  501    0  0.24073261217E+02  0.15337066404E+02 -0.66507553541E+02  0.72374043617E+02  0.00000000000E+00 0.  1.
         -5    1    1    2    0  503 -0.24073261217E+02 -0.15337066404E+02 -0.77176952027E+02  0.82286265171E+02  0.00000000000E+00 0. -1.
<mgrwt>
<rscale>  2 0.28543782E+02</rscale>
<asrwt>0</asrwt>
<pdfrwt beam="1">  1       21 0.84429251E-03 0.28543782E+02</pdfrwt>
<pdfrwt beam="2">  1       21 0.22949602E-01 0.28543782E+02</pdfrwt>
<totfact> 0.65684736E+07</totfact>
</mgrwt>
</event>
<event>
 4    1  0.7616518E+004  0.5555701E+02  0.7546771E-02  0.1417483E+00
         21   -1    0    0  503  502  0.00000000000E+00  0.00000000000E+00  0.13662709341E+02  0.13662709341E+02  0.00000000000E+00 0. -1.
         21   -1    0    0  501  503 -0.00000000000E+00 -0.00000000000E+00 -0.23891579004E+03  0.23891579004E+03  0.00000000000E+00 0. -1.
          3    1    1    2  501    0  0.32324467992E+02 -0.45185288303E+02 -0.14208871864E+03  0.15256403729E+03  0.00000000000E+00 0. -1.
         -3    1    1    2    0  502 -0.32324467992E+02  0.45185288303E+02 -0.83164362058E+02  0.10001446209E+03  0.00000000000E+00 0.  1.
<mgrwt>
<rscale>  2 0.55557011E+02</rscale>
<asrwt>0</asrwt>
<pdfrwt beam="1">  1       21 0.21019553E-02 0.55557011E+02</pdfrwt>
<pdfrwt beam="2">  1       21 0.36756276E-01 0.55557011E+02</pdfrwt>
<totfact> 0.74680848E+06</totfact>
</mgrwt>
</event>
<event>
 4    1  0.7616518E+004  0.2321527E+02  0.7546771E-02  0.1688044E+00
         21   -1    0    0  501  502  0.00000000000E+00  0.00000000000E+00  0.17278899359E+02  0.17278899359E+02  0.00000000000E+00 0.  1.
         21   -1    0    0  502  503 -0.00000000000E+00 -0.00000000000E+00 -0.31217334229E+02  0.31217334229E+02  0.00000000000E+00 0.  1.
          5    1    1    2  501    0  0.11506902236E+02  0.20162832723E+02 -0.76715733427E+01  0.24449982823E+02  0.00000000000E+00 0. -1.
         -5    1    1    2    0  503 -0.11506902236E+02 -0.20162832723E+02 -0.62668615272E+01  0.24046250766E+02  0.00000000000E+00 0.  1.
<mgrwt>
<rscale>  2 0.23215267E+02</rscale>
<asrwt>0</asrwt>
<pdfrwt beam="1">  1       21 0.26582922E-02 0.23215267E+02</pdfrwt>
<pdfrwt beam="2">  1       21 0.48026667E-02 0.23215267E+02</pdfrwt>
<totfact> 0.14787229E+08</totfact>
</mgrwt>
</event>
<event>
 4    1  0.7616518E+004  0.2260891E+02  0.7546771E-02  0.1697929E+00
         21   -1    0    0  501  502  0.00000000000E+00  0.00000000000E+00  0.95665455569E+02  0.95665455569E+02  0.00000000000E+00 0. -1.
         21   -1    0    0  502  503 -0.00000000000E+00 -0.00000000000E+00 -0.66246451700E+01  0.66246451700E+01  0.00000000000E+00 0. -1.
          2    1    1    2  501    0 -0.18321986141E+02  0.13246416265E+02  0.22026394484E+02  0.31564612685E+02  0.00000000000E+00 0. -1.
         -2    1    1    2    0  503  0.18321986141E+02 -0.13246416265E+02  0.67014415915E+02  0.70725488054E+02  0.00000000000E+00 0.  1.
<mgrwt>
<rscale>  2 0.22608908E+02</rscale>
<asrwt>0</asrwt>
<pdfrwt beam="1">  1       21 0.14717761E-01 0.22608908E+02</pdfrwt>
<pdfrwt beam="2">  1       21 0.10191763E-02 0.22608908E+02</pdfrwt>
<totfact> 0.10100870E+08</totfact>
</mgrwt>
</event>
<event>
 4    1  0.7616518E+004  0.2030870E+02  0.7546771E-02  0.1739258E+00
         21   -1    0    0  503  502  0.00000000000E+00  0.00000000000E+00  0.56360291170E+01  0.56360291170E+01  0.00000000000E+00 0. -1.
         21   -1    0    0  501  503 -0.00000000000E+00 -0.00000000000E+00 -0.74049302001E+02  0.74049302001E+02  0.00000000000E+00 0. -1.
          4    1    1    2  501    0 -0.19070334735E+02 -0.69832526426E+01 -0.38524045113E+02  0.43549345991E+02  0.00000000000E+00 0. -1.
         -4    1    1    2    0  502  0.19070334735E+02  0.69832526426E+01 -0.29889227771E+02  0.36135985127E+02  0.00000000000E+00 0.  1.
<mgrwt>
<rscale>  2 0.20308705E+02</rscale>
<asrwt>0</asrwt>
<pdfrwt beam="1">  1       21 0.86708140E-03 0.20308705E+02</pdfrwt>
<pdfrwt beam="2">  1       21 0.11392200E-01 0.20308705E+02</pdfrwt>
<totfact> 0.19148781E+08</totfact>
</mgrwt>
</event>
<event>
 4    1  0.7616518E+004  0.2360985E+02  0.7546771E-02  0.1681811E+00
         21   -1    0    0  503  502  0.00000000000E+00  0.00000000000E+00  0.25226242589E+02  0.25226242589E+02  0.00000000000E+00 0. -1.
         21   -1    0    0  501  503 -0.00000000000E+00 -0.00000000000E+00 -0.24106029736E+02  0.24106029736E+02  0.00000000000E+00 0. -1.
          4    1    1    2  501    0  0.68854637925E+01 -0.22583521437E+02  0.76808962181E+01  0.24827831537E+02  0.00000000000E+00 0. -1.
         -4    1    1    2    0  502 -0.68854637925E+01  0.22583521437E+02 -0.65606833654E+01  0.24504440788E+02  0.00000000000E+00 0.  1.
<mgrwt>
<rscale>  2 0.23609851E+02</rscale>
<asrwt>0</asrwt>
<pdfrwt beam="1">  1       21 0.38809604E-02 0.23609851E+02</pdfrwt>
<pdfrwt beam="2">  1       21 0.37086200E-02 0.23609851E+02</pdfrwt>
<totfact> 0.12380743E+08</totfact>
</mgrwt>
</event>
<event>
 4    1  0.7616518E+004  0.2545373E+02  0.7546771E-02  0.1654569E+00
         21   -1    0    0  503  502  0.00000000000E+00  0.00000000000E+00  0.47253519561E+03  0.47253519561E+03  0.00000000000E+00 0. -1.
         21   -1    0    0  501  503 -0.00000000000E+00 -0.00000000000E+00 -0.23089316799E+01  0.23089316799E+01  0.00000000000E+00 0. -1.
          3    1    1    2  501    0 -0.20358751860E+02  0.15277871324E+02  0.83799375309E+02  0.87579834617E+02  0.00000000000E+00 0. -1.
         -3    1    1    2    0  502  0.20358751860E+02 -0.15277871324E+02  0.38642688863E+03  0.38726429268E+03  0.00000000000E+00 0.  1.
<mgrwt>
<rscale>  2 0.25453725E+02</rscale>
<asrwt>0</asrwt>
<pdfrwt beam="1">  1       21 0.72697645E-01 0.25453725E+02</pdfrwt>
<pdfrwt beam="2">  1       21 0.35522064E-03 0.25453725E+02</pdfrwt>
<totfact> 0.25636456E+07</totfact>
</mgrwt>
</event>
<event>
 4    1  0.7616518E+004  0.2469663E+02  0.7546771E-02  0.1665398E+00
         21   -1    0    0  501  502  0.00000000000E+00  0.00000000000E+00  0.26675581507E+03  0.26675581507E+03  0.00000000000E+00 0.  1.
         21   -1    0    0  502  503 -0.00000000000E+00 -0.00000000000E+00 -0.47255423039E+01  0.47255423039E+01  0.00000000000E+00 0.  1.
          3    1    1    2  501    0  0.23225903192E+02  0.83953081319E+01  0.22853617660E+03  0.22986671746E+03  0.00000000000E+00 0.  1.
         -3    1    1    2    0  503 -0.23225903192E+02 -0.83953081319E+01  0.33494096162E+02  0.41614639917E+02  0.00000000000E+00 0. -1.
<mgrwt>
<rscale>  2 0.24696635E+02</rscale>
<asrwt>0</asrwt>
<pdfrwt beam="1">  1       21 0.41039344E-01 0.24696635E+02</pdfrwt>
<pdfrwt beam="2">  1       21 0.72700672E-03 0.24696635E+02</pdfrwt>
<totfact> 0.27388203E+07</totfact>
</mgrwt>
</event>
<event>
 4    1  0.7616518E+004  0.2329256E+02  0.7546771E-02  0.1686811E+00
         21   -1    0    0  501  502  0.00000000000E+00  0.00000000000E+00  0.25152850535E+02  0.25152850535E+02  0.00000000000E+00 0.  1.
         21   -1    0    0  502  503 -0.00000000000E+00 -0.00000000000E+00 -0.21681862657E+02  0.21681862657E+02  0.00000000000E+00 0.  1.
          1    1    1    2  501    0 -0.15195285662E+02 -0.17653511053E+02  0.52326559862E-01  0.23292614643E+02  0.00000000000E+00 0.  1.
         -1    1    1    2    0  503  0.15195285662E+02  0.17653511053E+02  0.34186613178E+01  0.23542098548E+02  0.00000000000E+00 0. -1.
<mgrwt>
<rscale>  2 0.23292556E+02</rscale>
<asrwt>0</asrwt>
<pdfrwt beam="1">  1       21 0.38696693E-02 0.23292556E+02</pdfrwt>
<pdfrwt beam="2">  1       21 0.33356712E-02 0.23292556E+02</pdfrwt>
<totfact> 0.14627621E+08</totfact>
</mgrwt>
</event>
<event>
 4    1  0.7616518E+004  0.2236254E+02  0.7546771E-02  0.1702056E+00
         21   -1    0    0  503  502  0.00000000000E+00  0.00000000000E+00  0.70407449705E+02  0.70407449705E+02  0.00000000000E+00 0. -1.
         21   -1    0    0  501  503 -0.00000000000E+00 -0.00000000000E+00 -0.98156301604E+01  0.98156301604E+01  0.00000000000E+00 0. -1.
          2    1    1    2  501    0  0.21611856783E+02  0.57455111392E+01  0.51383611728E+02  0.56038904398E+02  0.00000000000E+00 0. -1.
         -2    1    1    2    0  502 -0.21611856783E+02 -0.57455111392E+01  0.92082078163E+01  0.24184175468E+02  0.00000000000E+00 0.  1.
<mgrwt>
<rscale>  2 0.22362541E+02</rscale>
<asrwt>0</asrwt>
<pdfrwt beam="1">  1       21 0.10831915E-01 0.22362541E+02</pdfrwt>
<pdfrwt beam="2">  1       21 0.15100970E-02 0.22362541E+02</pdfrwt>
<totfact> 0.93049717E+07</totfact>
</mgrwt>
</event>
<event>
 4    1  0.7616518E+004  0.2522970E+02  0.7546771E-02  0.1657724E+00
         21   -1    0    0  501  502  0.00000000000E+00  0.00000000000E+00  0.46044170615E+02  0.46044170615E+02  0.00000000000E+00 0.  1.
         21   -1    0    0  502  503 -0.00000000000E+00 -0.00000000000E+00 -0.13983854979E+02  0.13983854979E+02  0.00000000000E+00 0.  1.
          1    1    1    2  501    0  0.25136244004E+02  0.21695516019E+01  0.12826168528E+02  0.28302796962E+02  0.00000000000E+00 0.  1.
         -1    1    1    2    0  503 -0.25136244004E+02 -0.21695516019E+01  0.19234147108E+02  0.31725228632E+02  0.00000000000E+00 0. -1.
<mgrwt>
<rscale>  2 0.25229699E+02</rscale>
<asrwt>0</asrwt>
<pdfrwt beam="1">  1       21 0.70837185E-02 0.25229699E+02</pdfrwt>
<pdfrwt beam="2">  1       21 0.21513623E-02 0.25229699E+02</pdfrwt>
<totfact> 0.11249403E+08</totfact>
</mgrwt>
</event>
<event>
 4    1  0.7616518E+004  0.2775015E+02  0.7546771E-02  0.1624378E+00
         21   -1    0    0  501  502  0.00000000000E+00  0.00000000000E+00  0.24736841618E+03  0.24736841618E+03  0.00000000000E+00 0. -1.
         21   -1    0    0  502  503 -0.00000000000E+00 -0.00000000000E+00 -0.33455193057E+01  0.33455193057E+01  0.00000000000E+00 0. -1.
          4    1    1    2  501    0 -0.15675165741E+02  0.22898914041E+02  0.88967163693E+02  0.93194566907E+02  0.00000000000E+00 0.  1.
         -4    1    1    2    0  503  0.15675165741E+02 -0.22898914041E+02  0.15505573318E+03  0.15751936858E+03  0.00000000000E+00 0. -1.
<mgrwt>
<rscale>  2 0.27750155E+02</rscale>
<asrwt>0</asrwt>
<pdfrwt beam="1">  1       21 0.38056665E-01 0.27750155E+02</pdfrwt>
<pdfrwt beam="2">  1       21 0.51469547E-03 0.27750155E+02</pdfrwt>
<totfact> 0.54148037E+07</totfact>
</mgrwt>
</event>
<event>
 4    1  0.7616518E+004  0.2100297E+02  0.7546771E-02  0.1726088E+00
         21   -1    0    0  501  502  0.00000000000E+00  0.00000000000E+00  0.63840810943E+01  0.63840810943E+01  0.00000000000E+00 0.  1.
         21   -1    0    0  502  503 -0.00000000000E+00 -0.00000000000E+00 -0.84274977332E+02  0.84274977332E+02  0.00000000000E+00 0.  1.
          2    1    1    2  501    0  0.19700908056E+02 -0.72800342052E+01 -0.19708761744E+02  0.28802082663E+02  0.00000000000E+00 0.  1.
         -2    1    1    2    0  503 -0.19700908056E+02  0.72800342052E+01 -0.58182134494E+02  0.61856975763E+02  0.00000000000E+00 0. -1.
<mgrwt>
<rscale>  2 0.21002968E+02</rscale>
<asrwt>0</asrwt>
<pdfrwt beam="1">  1       21 0.98216633E-03 0.21002968E+02</pdfrwt>
<pdfrwt beam="2">  1       21 0.12965381E-01 0.21002968E+02</pdfrwt>
<totfact> 0.12945120E+08</totfact>
</mgrwt>
</event>
<event>
 4    1  0.7616518E+004  0.3014192E+02  0.7546771E-02  0.1596525E+00
         21   -1    0    0  503  502  0.00000000000E+00  0.00000000000E+00  0.15030914257E+02  0.15030914257E+02  0.00000000000E+00 0. -1.
         21   -1    0    0  501  503 -0.00000000000E+00 -0.00000000000E+00 -0.16467324099E+03  0.16467324099E+03  0.00000000000E+00 0. -1.
          4    1    1    2  501    0  0.26908775675E+02 -0.13581342635E+02 -0.14630543468E+03  0.14937809509E+03  0.00000000000E+00 0.  1.
         -4    1    1    2    0  502 -0.26908775675E+02  0.13581342635E+02 -0.33368920538E+01  0.30326060157E+02  0.00000000000E+00 0. -1.
<mgrwt>
<rscale>  2 0.30141916E+02</rscale>
<asrwt>0</asrwt>
<pdfrwt beam="1">  1       21 0.23124483E-02 0.30141916E+02</pdfrwt>
<pdfrwt beam="2">  1       21 0.25334345E-01 0.30141916E+02</pdfrwt>
<totfact> 0.11898008E+07</totfact>
</mgrwt>
</event>
<event>
 4    1  0.7616518E+004  0.2291934E+02  0.7546771E-02  0.1692821E+00
         21   -1    0    0  503  502  0.00000000000E+00  0.00000000000E+00  0.25496444613E+01  0.25496444613E+01  0.00000000000E+00 0. -1.
         21   -1    0    0  501  503 -0.00000000000E+00 -0.00000000000E+00 -0.25718051142E+03  0.25718051142E+03  0.00000000000E+00 0. -1.
          3    1    1    2  501    0 -0.46885435519E+01  0.22434652444E+02 -0.18523299827E+03  0.18664554567E+03  0.00000000000E+00 0.  1.
         -3    1    1    2    0  502  0.46885435519E+01 -0.22434652444E+02 -0.69397868682E+02  0.73084610203E+02  0.00000000000E+00 0. -1.
<mgrwt>
<rscale>  2 0.22919338E+02</rscale>
<asrwt>0</asrwt>
<pdfrwt beam="1">  1       21 0.39225293E-03 0.22919338E+02</pdfrwt>
<pdfrwt beam="2">  1       21 0.39566239E-01 0.22919338E+02</pdfrwt>
<totfact> 0.71841533E+07</totfact>
</mgrwt>
</event>
<event>
 4    1  0.7616518E+004  0.2196304E+02  0.7546771E-02  0.1708892E+00
         21   -1    0    0  503  502  0.00000000000E+00  0.00000000000E+00  0.18986521455E+03  0.18986521455E+03  0.00000000000E+00 0.  1.
         21   -1    0    0  501  503 -0.00000000000E+00 -0.00000000000E+00 -0.25422484013E+01  0.25422484013E+01  0.00000000000E+00 0.  1.
          1    1    1    2  501    0  0.12151309856E+02 -0.18295372084E+02  0.96097822179E+02  0.98575688678E+02  0.00000000000E+00 0. -1.
         -1    1    1    2    0  502 -0.12151309856E+02  0.18295372084E+02  0.91225143971E+02  0.93831774274E+02  0.00000000000E+00 0.  1.
<mgrwt>
<rscale>  2 0.21963036E+02</rscale>
<asrwt>0</asrwt>
<pdfrwt beam="1">  1       21 0.29210022E-01 0.21963036E+02</pdfrwt>
<pdfrwt beam="2">  1       21 0.39111529E-03 0.21963036E+02</pdfrwt>
<totfact> 0.12483309E+08</totfact>
</mgrwt>
</event>
<event>
 4    1  0.7616518E+004  0.2147294E+02  0.7546771E-02  0.1717530E+00
         21   -1    0    0  503  502  0.00000000000E+00  0.00000000000E+00  0.12718947429E+02  0.12718947429E+02  0.00000000000E+00 0. -1.
         21   -1    0    0  501  503 -0.00000000000E+00 -0.00000000000E+00 -0.36807838147E+02  0.36807838147E+02  0.00000000000E+00 0. -1.
          3    1    1    2  501    0 -0.74155855488E+01 -0.20151828461E+02 -0.90013204300E+01  0.23283274444E+02  0.00000000000E+00 0. -1.
         -3    1    1    2    0  502  0.74155855488E+01  0.20151828461E+02 -0.15087570288E+02  0.26243511132E+02  0.00000000000E+00 0.  1.
<mgrwt>
<rscale>  2 0.21472939E+02</rscale>
<asrwt>0</asrwt>
<pdfrwt beam="1">  1       21 0.19567612E-02 0.21472939E+02</pdfrwt>
<pdfrwt beam="2">  1       21 0.56627442E-02 0.21472939E+02</pdfrwt>
<totfact> 0.17796004E+08</totfact>
</mgrwt>
</event>
<event>
 4    1  0.7616518E+004  0.2659946E+02  0.7546771E-02  0.1639037E+00
         21   -1    0    0  503  502  0.00000000000E+00  0.00000000000E+00  0.17720477109E+01  0.17720477109E+01  0.00000000000E+00 0.  1.
         21   -1    0    0  501  503 -0.00000000000E+00 -0.00000000000E+00 -0.13875806772E+04  0.13875806772E+04  0.00000000000E+00 0.  1.
          5    1    1    2  501    0 -0.17796767071E+02  0.19768825213E+02 -0.10663196176E+03  0.10989952974E+03  0.00000000000E+00 0. -1.
         -5    1    1    2    0  502  0.17796767071E+02 -0.19768825213E+02 -0.12791766677E+04  0.12794531951E+04  0.00000000000E+00 0.  1.
<mgrwt>
<rscale>  2 0.26599462E+02</rscale>
<asrwt>0</asrwt>
<pdfrwt beam="1">  1       21 0.27262387E-03 0.26599462E+02</pdfrwt>
<pdfrwt beam="2">  1       21 0.21347306E+00 0.26599462E+02</pdfrwt>
<totfact> 0.31287808E+06</totfact>
</mgrwt>
</event>
<event>
 4    1  0.7616518E+004  0.2652384E+02  0.7546771E-02  0.1640032E+00
         21   -1    0    0  501  502  0.00000000000E+00  0.00000000000E+00  0.20804143747E+04  0.20804143747E+04  0.00000000000E+00 0. -1.
         21   -1    0    0  502  503 -0.00000000000E+00 -0.00000000000E+00 -0.34420855622E+00  0.34420855622E+00  0.00000000000E+00 0. -1.
          4    1    1    2  501    0 -0.21201233555E+02  0.15938057411E+02  0.11779427946E+04  0.11782413765E+04  0.00000000000E+00 0.  1.
         -4    1    1    2    0  503  0.21201233555E+02 -0.15938057411E+02  0.90212737157E+03  0.90251720677E+03  0.00000000000E+00 0. -1.
<mgrwt>
<rscale>  2 0.26523838E+02</rscale>
<asrwt>0</asrwt>
<pdfrwt beam="1">  1       21 0.32005368E+00 0.26523838E+02</pdfrwt>
<pdfrwt beam="2">  1       21 0.52956828E-04 0.26523838E+02</pdfrwt>
<totfact> 0.95720546E+06</totfact>
</mgrwt>
</event>
<event>
 4    1  0.7616518E+004  0.2199108E+02  0.7546771E-02  0.1708406E+00
         21   -1    0    0  501  502  0.00000000000E+00  0.00000000000E+00  0.47786694843E+01  0.47786694843E+01  0.00000000000E+00 0. -1.
         21   -1    0    0  502  503 -0.00000000000E+00 -0.00000000000E+00 -0.11583541724E+03  0.11583541724E+03  0.00000000000E+00 0. -1.
          1    1    1    2  501    0 -0.19599297402E+02  0.99737258172E+01 -0.34093037457E+02  0.40570221449E+02  0.00000000000E+00 0.  1.
         -1    1    1    2    0  503  0.19599297402E+02 -0.99737258172E+01 -0.76963710302E+02  0.80043865279E+02  0.00000000000E+00 0. -1.
<mgrwt>
<rscale>  2 0.21991081E+02</rscale>
<asrwt>0</asrwt>
<pdfrwt beam="1">  1       21 0.73517998E-03 0.21991081E+02</pdfrwt>
<pdfrwt beam="2">  1       21 0.17820832E-01 0.21991081E+02</pdfrwt>
<totfact> 0.11769817E+08</totfact>
</mgrwt>
</event>
<event>
 4    1  0.7616518E+004  0.2162907E+02  0.7546771E-02  0.1714747E+00
         21   -1    0    0  503  502  0.00000000000E+00  0.00000000000E+00  0.23253089143E+03  0.23253089143E+03  0.00000000000E+00 0.  1.
         21   -1    0    0  501  503 -0.00000000000E+00 -0.00000000000E+00 -0.20602965534E+01  0.20602965534E+01  0.00000000000E+00 0.  1.
          3    1    1    2  501    0  0.21073924888E+02  0.48689007299E+01  0.97248116456E+02  0.99624357758E+02  0.00000000000E+00 0.  1.
         -3    1    1    2    0  502 -0.21073924888E+02 -0.48689007299E+01  0.13322247842E+03  0.13496683022E+03  0.00000000000E+00 0. -1.
<mgrwt>
<rscale>  2 0.21629066E+02</rscale>
<asrwt>0</asrwt>
<pdfrwt beam="1">  1       21 0.35773963E-01 0.21629066E+02</pdfrwt>
<pdfrwt beam="2">  1       21 0.31696888E-03 0.21629066E+02</pdfrwt>
<totfact> 0.11657082E+08</totfact>
</mgrwt>
</event>
<event>
 4    1  0.7616518E+004  0.2075366E+02  0.7546771E-02  0.1730743E+00
         21   -1    0    0  503  502  0.00000000000E+00  0.00000000000E+00  0.14913643954E+02  0.14913643954E+02  0.00000000000E+00 0.  1.
         21   -1    0    0  501  503 -0.00000000000E+00 -0.00000000000E+00 -0.32105992411E+02  0.32105992411E+02  0.00000000000E+00 0.  1.
          5    1    1    2  501    0 -0.19467831978E+02  0.71915281543E+01 -0.11445760784E+01  0.20785201791E+02  0.00000000000E+00 0.  1.
         -5    1    1    2    0  502  0.19467831978E+02 -0.71915281543E+01 -0.16047772378E+02  0.26234434574E+02  0.00000000000E+00 0. -1.
<mgrwt>
<rscale>  2 0.20753664E+02</rscale>
<asrwt>0</asrwt>
<pdfrwt beam="1">  1       21 0.22944068E-02 0.20753664E+02</pdfrwt>
<pdfrwt beam="2">  1       21 0.49393834E-02 0.20753664E+02</pdfrwt>
<totfact> 0.17144683E+08</totfact>
</mgrwt>
</event>
<event>
 4    1  0.7616518E+004  0.2711704E+02  0.7546771E-02  0.1632333E+00
         21   -1    0    0  503  502  0.00000000000E+00  0.00000000000E+00  0.84669054013E+02  0.84669054013E+02  0.00000000000E+00 0. -1.
         21   -1    0    0  501  503 -0.00000000000E+00 -0.00000000000E+00 -0.10865344803E+02  0.10865344803E+02  0.00000000000E+00 0. -1.
          1    1    1    2  501    0  0.18938172279E+02 -0.19408238515E+02  0.58300692440E+02  0.64298560096E+02  0.00000000000E+00 0.  1.
         -1    1    1    2    0  502 -0.18938172279E+02  0.19408238515E+02  0.15503016771E+02  0.31235838720E+02  0.00000000000E+00 0. -1.
<mgrwt>
<rscale>  2 0.27117044E+02</rscale>
<asrwt>0</asrwt>
<pdfrwt beam="1">  1       21 0.13026008E-01 0.27117044E+02</pdfrwt>
<pdfrwt beam="2">  1       21 0.16715916E-02 0.27117044E+02</pdfrwt>
<totfact> 0.61481539E+07</totfact>
</mgrwt>
</event>
<event>
 4    1  0.7616518E+004  0.2124472E+02  0.7546771E-02  0.1721651E+00
         21   -1    0    0  501  502  0.00000000000E+00  0.00000000000E+00  0.30422512687E+02  0.30422512687E+02  0.00000000000E+00 0. -1.
         21   -1    0    0  502  503 -0.00000000000E+00 -0.00000000000E+00 -0.19860472983E+02  0.19860472983E+02  0.00000000000E+00 0. -1.
          2    1    1    2  501    0 -0.11212989429E+02 -0.18044584428E+02 -0.73650643902E+01  0.22485158051E+02  0.00000000000E+00 0.  1.
         -2    1    1    2    0  503  0.11212989429E+02  0.18044584428E+02  0.17927104094E+02  0.27797827618E+02  0.00000000000E+00 0. -1.
<mgrwt>
<rscale>  2 0.21244721E+02</rscale>
<asrwt>0</asrwt>
<pdfrwt beam="1">  1       21 0.46803866E-02 0.21244721E+02</pdfrwt>
<pdfrwt beam="2">  1       21 0.30554574E-02 0.21244721E+02</pdfrwt>
<totfact> 0.12082578E+08</totfact>
</mgrwt>
</event>
<event>
 4    1  0.7616518E+004  0.2311277E+02  0.7546771E-02  0.1689689E+00
         21   -1    0    0  501  502  0.00000000000E+00  0.00000000000E+00  0.16184252789E+02  0.16184252789E+02  0.00000000000E+00 0.  1.
         21   -1    0    0  502  503 -0.00000000000E+00 -0.00000000000E+00 -0.33691238406E+02  0.33691238406E+02  0.00000000000E+00 0.  1.
          2    1    1    2  501    0  0.22370231440E+02  0.58114482796E+01 -0.52006673513E+01  0.23690654839E+02  0.00000000000E+00 0.  1.
         -2    1    1    2    0  503 -0.22370231440E+02 -0.58114482796E+01 -0.12306318265E+02  0.26184836357E+02  0.00000000000E+00 0. -1.
<mgrwt>
<rscale>  2 0.23112771E+02</rscale>
<asrwt>0</asrwt>
<pdfrwt beam="1">  1       21 0.24898851E-02 0.23112771E+02</pdfrwt>
<pdfrwt beam="2">  1       21 0.51832674E-02 0.23112771E+02</pdfrwt>
<totfact> 0.14473770E+08</totfact>
</mgrwt>
</event>
<event>
 4    1  0.7616518E+004  0.2337520E+02  0.7546771E-02  0.1685499E+00
         21   -1    0    0  501  502  0.00000000000E+00  0.00000000000E+00  0.13789810706E+01  0.13789810706E+01  0.00000000000E+00 0.  1.
         21   -1    0    0  502  503 -0.00000000000E+00 -0.00000000000E+00 -0.40164399822E+03  0.40164399822E+03  0.00000000000E+00 0.  1.
          4    1    1    2  501    0 -0.21009942835E+02 -0.10246087113E+02 -0.22351840667E+03  0.22473735364E+03  0.00000000000E+00 0. -1.
         -4    1    1    2    0  503  0.21009942835E+02  0.10246087113E+02 -0.17674661047E+03  0.17828562565E+03  0.00000000000E+00 0.  1.
<mgrwt>
<rscale>  2 0.23375201E+02</rscale>
<asrwt>0</asrwt>
<pdfrwt beam="1">  1       21 0.21215099E-03 0.23375201E+02</pdfrwt>
<pdfrwt beam="2">  1       21 0.61791368E-01 0.23375201E+02</pdfrwt>
<totfact> 0.74316139E+07</totfact>
</mgrwt>
</event>
<event>
 4    1  0.7616518E+004  0.2798958E+02  0.7546771E-02  0.1621437E+00
         21   -1    0    0  501  502  0.00000000000E+00  0.00000000000E+00  0.40700470251E+02  0.40700470251E+02  0.00000000000E+00 0.  1.
         21   -1    0    0  502  503 -0.00000000000E+00 -0.00000000000E+00 -0.25712060524E+02  0.25712060524E+02  0.00000000000E+00 0.  1.
          1    1    1    2  501    0 -0.12452026547E+02  0.25067176815E+02  0.24143391429E+02  0.36963761555E+02  0.00000000000E+00 0.  1.
         -1    1    1    2    0  503  0.12452026547E+02 -0.25067176815E+02 -0.91549817029E+01  0.29448769220E+02  0.00000000000E+00 0. -1.
<mgrwt>
<rscale>  2 0.27989575E+02</rscale>
<asrwt>0</asrwt>
<pdfrwt beam="1">  1       21 0.62616108E-02 0.27989575E+02</pdfrwt>
<pdfrwt beam="2">  1       21 0.39557016E-02 0.27989575E+02</pdfrwt>
<totfact> 0.54425939E+07</totfact>
</mgrwt>
</event>
<event>
 4    1  0.7616518E+004  0.2042550E+02  0.7546771E-02  0.1736997E+00
         21   -1    0    0  503  502  0.00000000000E+00  0.00000000000E+00  0.68878501786E+02  0.68878501786E+02  0.00000000000E+00 0. -1.
         21   -1    0    0  501  503 -0.00000000000E+00 -0.00000000000E+00 -0.12310419248E+02  0.12310419248E+02  0.00000000000E+00 0. -1.
          1    1    1    2  501    0  0.11508723419E+02  0.16874541275E+02  0.57216625319E+02  0.60753132189E+02  0.00000000000E+00 0. -1.
         -1    1    1    2    0  502 -0.11508723419E+02 -0.16874541275E+02 -0.64854278143E+00  0.20435788845E+02  0.00000000000E+00 0.  1.
<mgrwt>
<rscale>  2 0.20425495E+02</rscale>
<asrwt>0</asrwt>
<pdfrwt beam="1">  1       21 0.10596692E-01 0.20425495E+02</pdfrwt>
<pdfrwt beam="2">  1       21 0.18939107E-02 0.20425495E+02</pdfrwt>
<totfact> 0.66656206E+07</totfact>
</mgrwt>
</event>
<event>
 4    1  0.7616518E+004  0.2459920E+02  0.7546771E-02  0.1666826E+00
         21   -1    0    0  501  502  0.00000000000E+00  0.00000000000E+00  0.37592846351E+02  0.37592846351E+02  0.00000000000E+00 0.  1.
         21   -1    0    0  502  503 -0.00000000000E+00 -0.00000000000E+00 -0.19070337766E+02  0.19070337766E+02  0.00000000000E+00 0.  1.
          4    1    1    2  501    0  0.23016690890E+02  0.86805851436E+01 -0.19263246846E+01  0.24674507994E+02  0.00000000000E+00 0. -1.
         -4    1    1    2    0  503 -0.23016690890E+02 -0.86805851436E+01  0.20448833270E+02  0.31988676123E+02  0.00000000000E+00 0.  1.
<mgrwt>
<rscale>  2 0.24599200E+02</rscale>
<asrwt>0</asrwt>
<pdfrwt beam="1">  1       21 0.57835148E-02 0.24599200E+02</pdfrwt>
<pdfrwt beam="2">  1       21 0.29338981E-02 0.24599200E+02</pdfrwt>
<totfact> 0.95845243E+07</totfact>
</mgrwt>
</event>
<event>
 4    1  0.7616518E+004  0.2904775E+02  0.7546771E-02  0.1608859E+00
         21   -1    0    0  501  502  0.00000000000E+00  0.00000000000E+00  0.42465553568E+01  0.42465553568E+01  0.00000000000E+00 0. -1.
         21   -1    0    0  502  503 -0.00000000000E+00 -0.00000000000E+00 -0.20164284505E+03  0.20164284505E+03  0.00000000000E+00 0. -1.
          1    1    1    2  501    0 -0.22156401443E+02 -0.18784721373E+02 -0.86252413937E+02  0.91012366148E+02  0.00000000000E+00 0.  1.
         -1    1    1    2    0  503  0.22156401443E+02  0.18784721373E+02 -0.11114387576E+03  0.11487703426E+03  0.00000000000E+00 0. -1.
<mgrwt>
<rscale>  2 0.29047752E+02</rscale>
<asrwt>0</asrwt>
<pdfrwt beam="1">  1       21 0.65331598E-03 0.29047752E+02</pdfrwt>
<pdfrwt beam="2">  1       21 0.31021987E-01 0.29047752E+02</pdfrwt>
<totfact> 0.56116067E+07</totfact>
</mgrwt>
</event>
<event>
 4    1  0.7616518E+004  0.2046959E+02  0.7546771E-02  0.1736148E+00
         21   -1    0    0  501  502  0.00000000000E+00  0.00000000000E+00  0.10434437480E+03  0.10434437480E+03  0.00000000000E+00 0. -1.
         21   -1    0    0  502  503 -0.00000000000E+00 -0.00000000000E+00 -0.45461572140E+01  0.45461572140E+01  0.00000000000E+00 0. -1.
          3    1    1    2  501    0  0.19287802270E+02  0.68545333216E+01  0.31299268304E+02  0.37398504513E+02  0.00000000000E+00 0.  1.
         -3    1    1    2    0  503 -0.19287802270E+02 -0.68545333216E+01  0.68498949277E+02  0.71492027496E+02  0.00000000000E+00 0. -1.
<mgrwt>
<rscale>  2 0.20469586E+02</rscale>
<asrwt>0</asrwt>
<pdfrwt beam="1">  1       21 0.16052979E-01 0.20469586E+02</pdfrwt>
<pdfrwt beam="2">  1       21 0.69940888E-03 0.20469586E+02</pdfrwt>
<totfact> 0.14841729E+08</totfact>
</mgrwt>
</event>
<event>
 4    1  0.7616518E+004  0.2005358E+02  0.7546771E-02  0.1744265E+00
         21   -1    0    0  503  502  0.00000000000E+00  0.00000000000E+00  0.13883272859E+02  0.13883272859E+02  0.00000000000E+00 0.  1.
         21   -1    0    0  501  503 -0.00000000000E+00 -0.00000000000E+00 -0.48991407624E+02  0.48991407624E+02  0.00000000000E+00 0.  1.
          1    1    1    2  501    0  0.14618123964E+02  0.13727944058E+02 -0.37653050542E+02  0.42660265018E+02  0.00000000000E+00 0.  1.
         -1    1    1    2    0  502 -0.14618123964E+02 -0.13727944058E+02  0.25449157777E+01  0.20214415465E+02  0.00000000000E+00 0. -1.
<mgrwt>
<rscale>  2 0.20053578E+02</rscale>
<asrwt>0</asrwt>
<pdfrwt beam="1">  1       21 0.21358882E-02 0.20053578E+02</pdfrwt>
<pdfrwt beam="2">  1       21 0.75371395E-02 0.20053578E+02</pdfrwt>
<totfact> 0.96272440E+07</totfact>
</mgrwt>
</event>
<event>
 4    1  0.7616518E+004  0.2155661E+02  0.7546771E-02  0.1716035E+00
         21   -1    0    0  503  502  0.00000000000E+00  0.00000000000E+00  0.80837710796E+03  0.80837710796E+03  0.00000000000E+00 0.  1.
         21   -1    0    0  501  503 -0.00000000000E+00 -0.00000000000E+00 -0.93502020049E+00  0.93502020049E+00  0.00000000000E+00 0.  1.
          3    1    1    2  501    0  0.18649567056E+01 -0.21475788858E+02  0.15256975059E+03  0.15408509456E+03  0.00000000000E+00 0.  1.
         -3    1    1    2    0  502 -0.18649567056E+01  0.21475788858E+02  0.65487233717E+03  0.65522703360E+03  0.00000000000E+00 0. -1.
<mgrwt>
<rscale>  2 0.21556613E+02</rscale>
<asrwt>0</asrwt>
<pdfrwt beam="1">  1       21 0.12436515E+00 0.21556613E+02</pdfrwt>
<pdfrwt beam="2">  1       21 0.14384991E-03 0.21556613E+02</pdfrwt>
<totfact> 0.28684853E+07</totfact>
</mgrwt>
</event>
<event>
 4    1  0.7616518E+004  0.2012272E+02  0.7546771E-02  0.1742899E+00
         21   -1    0    0  501  502  0.00000000000E+00  0.00000000000E+00  0.64426337559E+02  0.64426337559E+02  0.00000000000E+00 0. -1.
         21   -1    0    0  502  503 -0.00000000000E+00 -0.00000000000E+00 -0.69066897149E+01  0.69066897149E+01  0.00000000000E+00 0. -1.
          4    1    1    2  501    0 -0.16188839514E+02  0.11951793224E+02  0.39459950589E+02  0.44294599971E+02  0.00000000000E+00 0. -1.
         -4    1    1    2    0  503  0.16188839514E+02 -0.11951793224E+02  0.18059697255E+02  0.27038427303E+02  0.00000000000E+00 0.  1.
<mgrwt>
<rscale>  2 0.20122721E+02</rscale>
<asrwt>0</asrwt>
<pdfrwt beam="1">  1       21 0.99117438E-02 0.20122721E+02</pdfrwt>
<pdfrwt beam="2">  1       21 0.10625677E-02 0.20122721E+02</pdfrwt>
<totfact> 0.17735492E+08</totfact>
</mgrwt>
</event>
<event>
 4    1  0.7616518E+004  0.2263251E+02  0.7546771E-02  0.1697537E+00
         21   -1    0    0  503  502  0.00000000000E+00  0.00000000000E+00  0.17865025269E+02  0.17865025269E+02  0.00000000000E+00 0.  1.
         21   -1    0    0  501  503 -0.00000000000E+00 -0.00000000000E+00 -0.34088052528E+02  0.34088052528E+02  0.00000000000E+00 0.  1.
          2    1    1    2  501    0  0.21904412202E+02 -0.56944922102E+01 -0.18465593249E+02  0.29209735526E+02  0.00000000000E+00 0. -1.
         -2    1    1    2    0  502 -0.21904412202E+02  0.56944922102E+01  0.22425659905E+01  0.22743342271E+02  0.00000000000E+00 0.  1.
<mgrwt>
<rscale>  2 0.22632510E+02</rscale>
<asrwt>0</asrwt>
<pdfrwt beam="1">  1       21 0.27484654E-02 0.22632510E+02</pdfrwt>
<pdfrwt beam="2">  1       21 0.52443157E-02 0.22632510E+02</pdfrwt>
<totfact> 0.12113845E+08</totfact>
</mgrwt>
</event>
<event>
 4    1  0.7616518E+004  0.3145845E+02  0.7546771E-02  0.1582505E+00
         21   -1    0    0  501  502  0.00000000000E+00  0.00000000000E+00  0.21029310465E+03  0.21029310465E+03  0.00000000000E+00 0.  1.
         21   -1    0    0  502  503 -0.00000000000E+00 -0.00000000000E+00 -0.47566869771E+01  0.47566869771E+01  0.00000000000E+00 0.  1.
          2    1    1    2  501    0 -0.15179966741E+02 -0.27553629850E+02  0.91665836659E+02  0.96913670442E+02  0.00000000000E+00 0.  1.
         -2    1    1    2    0  503  0.15179966741E+02  0.27553629850E+02  0.11387058101E+03  0.11813612118E+03  0.00000000000E+00 0. -1.
<mgrwt>
<rscale>  2 0.31458447E+02</rscale>
<asrwt>0</asrwt>
<pdfrwt beam="1">  1       21 0.32352778E-01 0.31458447E+02</pdfrwt>
<pdfrwt beam="2">  1       21 0.73179816E-03 0.31458447E+02</pdfrwt>
<totfact> 0.44517335E+07</totfact>
</mgrwt>
</event>
<event>
 4    1  0.7616518E+004  0.2061953E+02  0.7546771E-02  0.1733281E+00
         21   -1    0    0  503  502  0.00000000000E+00  0.00000000000E+00  0.38504964242E+02  0.38504964242E+02  0.00000000000E+00 0. -1.
         21   -1    0    0  501  503 -0.00000000000E+00 -0.00000000000E+00 -0.12111329528E+02  0.12111329528E+02  0.00000000000E+00 0. -1.
          2    1    1    2  501    0  0.17389990666E+02 -0.11079406258E+02  0.56761555775E+01  0.21386532223E+02  0.00000000000E+00 0. -1.
         -2    1    1    2    0  502 -0.17389990666E+02  0.11079406258E+02  0.20717479137E+02  0.29229761548E+02  0.00000000000E+00 0.  1.
<mgrwt>
<rscale>  2 0.20619530E+02</rscale>
<asrwt>0</asrwt>
<pdfrwt beam="1">  1       21 0.59238406E-02 0.20619530E+02</pdfrwt>
<pdfrwt beam="2">  1       21 0.18632815E-02 0.20619530E+02</pdfrwt>
<totfact> 0.17617771E+08</totfact>
</mgrwt>
</event>
<event>
 4    1  0.7616518E+004  0.3492115E+02  0.7546771E-02  0.1549302E+00
         21   -1    0    0  503  502  0.00000000000E+00  0.00000000000E+00  0.23035660540E+01  0.23035660540E+01  0.00000000000E+00 0.  1.
         21   -1    0    0  501  503 -0.00000000000E+00 -0.00000000000E+00 -0.55575986240E+03  0.55575986240E+03  0.00000000000E+00 0.  1.
          2    1    1    2  501    0  0.10878443112E+02 -0.33183517825E+02 -0.33750782430E+03  0.33930961944E+03  0.00000000000E+00 0. -1.
         -2    1    1    2    0  502 -0.10878443112E+02  0.33183517825E+02 -0.21594847205E+03  0.21875380902E+03  0.00000000000E+00 0.  1.
<mgrwt>
<rscale>  2 0.34921145E+02</rscale>
<asrwt>0</asrwt>
<pdfrwt beam="1">  1       21 0.35439450E-03 0.34921145E+02</pdfrwt>
<pdfrwt beam="2">  1       21 0.85501585E-01 0.34921145E+02</pdfrwt>
<totfact> 0.19249498E+07</totfact>
</mgrwt>
</event>
<event>
 4    1  0.7616518E+004  0.3064702E+02  0.7546771E-02  0.1591045E+00
         21   -1    0    0  501  502  0.00000000000E+00  0.00000000000E+00  0.25011872861E+02  0.25011872861E+02  0.00000000000E+00 0.  1.
         21   -1    0    0  502  503 -0.00000000000E+00 -0.00000000000E+00 -0.55236709067E+02  0.55236709067E+02  0.00000000000E+00 0.  1.
          3    1    1    2  501    0  0.21010297382E+01  0.30574919401E+02  0.75912115375E+01  0.31573192980E+02  0.00000000000E+00 0. -1.
         -3    1    1    2    0  503 -0.21010297382E+01 -0.30574919401E+02 -0.37816047743E+02  0.48675388948E+02  0.00000000000E+00 0.  1.
<mgrwt>
<rscale>  2 0.30647023E+02</rscale>
<asrwt>0</asrwt>
<pdfrwt beam="1">  1       21 0.38479805E-02 0.30647023E+02</pdfrwt>
<pdfrwt beam="2">  1       21 0.84979552E-02 0.30647023E+02</pdfrwt>
<totfact> 0.35173480E+07</totfact>
</mgrwt>
</event>
<event>
 4    1  0.7616518E+004  0.3300686E+02  0.7546771E-02  0.1567048E+00
         21   -1    0    0  503  502  0.00000000000E+00  0.00000000000E+00  0.20980152575E+01  0.20980152575E+01  0.00000000000E+00 0.  1.
         21   -1    0    0  501  503 -0.00000000000E+00 -0.00000000000E+00 -0.52306300710E+03  0.52306300710E+03  0.00000000000E+00 0.  1.
          2    1    1    2  501    0 -0.22697799021E+02 -0.23963781964E+02 -0.23814546676E+03  0.24042195462E+03  0.00000000000E+00 0. -1.
         -2    1    1    2    0  502  0.22697799021E+02  0.23963781964E+02 -0.28281952508E+03  0.28473906773E+03  0.00000000000E+00 0.  1.
<mgrwt>
<rscale>  2 0.33006862E+02</rscale>
<asrwt>0</asrwt>
<pdfrwt beam="1">  1       21 0.32277075E-03 0.33006862E+02</pdfrwt>
<pdfrwt beam="2">  1       21 0.80471438E-01 0.33006862E+02</pdfrwt>
<totfact> 0.24957096E+07</totfact>
</mgrwt>
</event>
<event>
 4    1  0.7616518E+004  0.2212193E+02  0.7546771E-02  0.1706152E+00
         21   -1    0    0  501  502  0.00000000000E+00  0.00000000000E+00  0.17787838085E+02  0.17787838085E+02  0.00000000000E+00 0. -1.
         21   -1    0    0  502  503 -0.00000000000E+00 -0.00000000000E+00 -0.27683554401E+02  0.27683554401E+02  0.00000000000E+00 0. -1.
          1    1    1    2  501    0  0.22047689155E+02 -0.18108374470E+01 -0.67374189649E+01  0.23125149592E+02  0.00000000000E+00 0. -1.
         -1    1    1    2    0  503 -0.22047689155E+02  0.18108374470E+01 -0.31582973512E+01  0.22346242894E+02  0.00000000000E+00 0.  1.
<mgrwt>
<rscale>  2 0.22121929E+02</rscale>
<asrwt>0</asrwt>
<pdfrwt beam="1">  1       21 0.27365905E-02 0.22121929E+02</pdfrwt>
<pdfrwt beam="2">  1       21 0.42590084E-02 0.22121929E+02</pdfrwt>
<totfact> 0.16847500E+08</totfact>
</mgrwt>
</event>
<event>
 4    1  0.7616518E+004  0.2466859E+02  0.7546771E-02  0.1665808E+00
         21   -1    0    0  503  502  0.00000000000E+00  0.00000000000E+00  0.14245708733E+03  0.14245708733E+03  0.00000000000E+00 0.  1.
         21   -1    0    0  501  503 -0.00000000000E+00 -0.00000000000E+00 -0.63381433139E+01  0.63381433139E+01  0.00000000000E+00 0.  1.
          5    1    1    2  501    0  0.13531886169E+02 -0.20625893782E+02  0.25579357318E+02  0.35536501775E+02  0.00000000000E+00 0.  1.
         -5    1    1    2    0  502 -0.13531886169E+02  0.20625893782E+02  0.11053958670E+03  0.11325872887E+03  0.00000000000E+00 0. -1.
<mgrwt>
<rscale>  2 0.24668592E+02</rscale>
<asrwt>0</asrwt>
<pdfrwt beam="1">  1       21 0.21916473E-01 0.24668592E+02</pdfrwt>
<pdfrwt beam="2">  1       21 0.97509908E-03 0.24668592E+02</pdfrwt>
<totfact> 0.55456915E+07</totfact>
</mgrwt>
</event>
