<event>
 4    1  0.7595771E+004  0.3046283E+02  0.7546771E-02  0.1593028E+00
         21   -1    0    0  503  502  0.00000000000E+00  0.00000000000E+00  0.73131406601E+02  0.73131406601E+02  0.00000000000E+00 0. -1.
         21   -1    0    0  501  503 -0.00000000000E+00 -0.00000000000E+00 -0.16101095057E+02  0.16101095057E+02  0.00000000000E+00 0. -1.
          2    1    1    2  501    0  0.28148119974E+02 -0.11647621837E+02  0.49053200777E+02  0.57742534228E+02  0.00000000000E+00 0.  1.
         -2    1    1    2    0  502 -0.28148119974E+02  0.11647621837E+02  0.79771107674E+01  0.31489967430E+02  0.00000000000E+00 0. -1.
<mgrwt>
<rscale>  2 0.30462826E+02</rscale>
<asrwt>0</asrwt>
<pdfrwt beam="1">  1       21 0.11250985E-01 0.30462826E+02</pdfrwt>
<pdfrwt beam="2">  1       21 0.24770916E-02 0.30462826E+02</pdfrwt>
<totfact> 0.43999376E+07</totfact>
</mgrwt>
</event>
<event>
 4    1  0.7595771E+004  0.2831827E+02  0.7546771E-02  0.1617458E+00
         21   -1    0    0  503  502  0.00000000000E+00  0.00000000000E+00  0.53951787899E+01  0.53951787899E+01  0.00000000000E+00 0.  1.
         21   -1    0    0  501  503 -0.00000000000E+00 -0.00000000000E+00 -0.20222172328E+03  0.20222172328E+03  0.00000000000E+00 0.  1.
          2    1    1    2  501    0 -0.26666446876E+02  0.95302027076E+01 -0.15184984304E+03  0.15446779271E+03  0.00000000000E+00 0.  1.
         -2    1    1    2    0  502  0.26666446876E+02 -0.95302027076E+01 -0.44976701447E+02  0.53149109359E+02  0.00000000000E+00 0. -1.
<mgrwt>
<rscale>  2 0.28318265E+02</rscale>
<asrwt>0</asrwt>
<pdfrwt beam="1">  1       21 0.83002751E-03 0.28318265E+02</pdfrwt>
<pdfrwt beam="2">  1       21 0.31111034E-01 0.28318265E+02</pdfrwt>
<totfact> 0.38760106E+07</totfact>
</mgrwt>
</event>
<event>
 4    1  0.7595771E+004  0.4032513E+02  0.7546771E-02  0.1505832E+00
         21   -1    0    0  503  502  0.00000000000E+00  0.00000000000E+00  0.15759979979E+03  0.15759979979E+03  0.00000000000E+00 0.  1.
         21   -1    0    0  501  503 -0.00000000000E+00 -0.00000000000E+00 -0.10762710670E+02  0.10762710670E+02  0.00000000000E+00 0.  1.
          5    1    1    2  501    0  0.39289149156E+02  0.90817883569E+01  0.90530082409E+02  0.99105055079E+02  0.00000000000E+00 0.  1.
         -5    1    1    2    0  502 -0.39289149156E+02 -0.90817883569E+01  0.56307006707E+02  0.69257455378E+02  0.00000000000E+00 0. -1.
<mgrwt>
<rscale>  2 0.40325130E+02</rscale>
<asrwt>0</asrwt>
<pdfrwt beam="1">  1       21 0.24246121E-01 0.40325130E+02</pdfrwt>
<pdfrwt beam="2">  1       21 0.16558018E-02 0.40325130E+02</pdfrwt>
<totfact> 0.22696149E+07</totfact>
</mgrwt>
</event>
<event>
 4    1  0.7595771E+004  0.2831209E+02  0.7546771E-02  0.1617532E+00
         21   -1    0    0  501  502  0.00000000000E+00  0.00000000000E+00  0.75729500548E+02  0.75729500548E+02  0.00000000000E+00 0. -1.
         21   -1    0    0  502  503 -0.00000000000E+00 -0.00000000000E+00 -0.11342179983E+02  0.11342179983E+02  0.00000000000E+00 0. -1.
          4    1    1    2  501    0 -0.20901922223E+02 -0.19096701363E+02  0.43444451524E+02  0.51855517775E+02  0.00000000000E+00 0.  1.
         -4    1    1    2    0  503  0.20901922223E+02  0.19096701363E+02  0.20942869041E+02  0.35216162756E+02  0.00000000000E+00 0. -1.
<mgrwt>
<rscale>  2 0.28312089E+02</rscale>
<asrwt>0</asrwt>
<pdfrwt beam="1">  1       21 0.11650692E-01 0.28312089E+02</pdfrwt>
<pdfrwt beam="2">  1       21 0.17449508E-02 0.28312089E+02</pdfrwt>
<totfact> 0.70230171E+07</totfact>
</mgrwt>
</event>
<event>
 4    1  0.7595771E+004  0.2510694E+02  0.7546771E-02  0.1659471E+00
         21   -1    0    0  501  502  0.00000000000E+00  0.00000000000E+00  0.53601144719E+02  0.53601144719E+02  0.00000000000E+00 0.  1.
         21   -1    0    0  502  503 -0.00000000000E+00 -0.00000000000E+00 -0.12292836678E+02  0.12292836678E+02  0.00000000000E+00 0.  1.
          4    1    1    2  501    0  0.23537821639E+02  0.87366660438E+01  0.13795815301E+02  0.28647563612E+02  0.00000000000E+00 0.  1.
         -4    1    1    2    0  503 -0.23537821639E+02 -0.87366660438E+01  0.27512492740E+02  0.37246417786E+02  0.00000000000E+00 0. -1.
<mgrwt>
<rscale>  2 0.25106939E+02</rscale>
<asrwt>0</asrwt>
<pdfrwt beam="1">  1       21 0.82463298E-02 0.25106939E+02</pdfrwt>
<pdfrwt beam="2">  1       21 0.18912057E-02 0.25106939E+02</pdfrwt>
<totfact> 0.10689479E+08</totfact>
</mgrwt>
</event>
<event>
 4    1  0.7595771E+004  0.2276404E+02  0.7546771E-02  0.1695364E+00
         21   -1    0    0  503  502  0.00000000000E+00  0.00000000000E+00  0.22388468906E+02  0.22388468906E+02  0.00000000000E+00 0.  1.
         21   -1    0    0  501  503 -0.00000000000E+00 -0.00000000000E+00 -0.23211659372E+02  0.23211659372E+02  0.00000000000E+00 0.  1.
          4    1    1    2  501    0  0.20807768260E+02 -0.92324544056E+01  0.80189547004E+00  0.22778157754E+02  0.00000000000E+00 0.  1.
         -4    1    1    2    0  502 -0.20807768260E+02  0.92324544056E+01 -0.16250859365E+01  0.22821970524E+02  0.00000000000E+00 0. -1.
<mgrwt>
<rscale>  2 0.22764038E+02</rscale>
<asrwt>0</asrwt>
<pdfrwt beam="1">  1       21 0.34443798E-02 0.22764038E+02</pdfrwt>
<pdfrwt beam="2">  1       21 0.35710245E-02 0.22764038E+02</pdfrwt>
<totfact> 0.15672244E+08</totfact>
</mgrwt>
</event>
<event>
 4    1  0.7595771E+004  0.2306013E+02  0.7546771E-02  0.1690537E+00
         21   -1    0    0  503  502  0.00000000000E+00  0.00000000000E+00  0.27570451843E+03  0.27570451843E+03  0.00000000000E+00 0. -1.
         21   -1    0    0  501  503 -0.00000000000E+00 -0.00000000000E+00 -0.19482021200E+01  0.19482021200E+01  0.00000000000E+00 0. -1.
          1    1    1    2  501    0 -0.22728130096E+02  0.38989588306E+01  0.12301224376E+03  0.12515503143E+03  0.00000000000E+00 0.  1.
         -1    1    1    2    0  502  0.22728130096E+02 -0.38989588306E+01  0.15074407254E+03  0.15249768911E+03  0.00000000000E+00 0. -1.
<mgrwt>
<rscale>  2 0.23060134E+02</rscale>
<asrwt>0</asrwt>
<pdfrwt beam="1">  1       21 0.42416049E-01 0.23060134E+02</pdfrwt>
<pdfrwt beam="2">  1       21 0.29972362E-03 0.23060134E+02</pdfrwt>
<totfact> 0.93484114E+07</totfact>
</mgrwt>
</event>
<event>
 4    1  0.7595771E+004  0.2211313E+02  0.7546771E-02  0.1706303E+00
         21   -1    0    0  503  502  0.00000000000E+00  0.00000000000E+00  0.89354152084E+01  0.89354152084E+01  0.00000000000E+00 0.  1.
         21   -1    0    0  501  503 -0.00000000000E+00 -0.00000000000E+00 -0.75128518953E+02  0.75128518953E+02  0.00000000000E+00 0.  1.
          5    1    1    2  501    0 -0.15632460642E+02 -0.15640228464E+02 -0.55000876612E+02  0.59279735157E+02  0.00000000000E+00 0. -1.
         -5    1    1    2    0  502  0.15632460642E+02  0.15640228464E+02 -0.11192227133E+02  0.24784199005E+02  0.00000000000E+00 0.  1.
<mgrwt>
<rscale>  2 0.22113131E+02</rscale>
<asrwt>0</asrwt>
<pdfrwt beam="1">  1       21 0.13746793E-02 0.22113131E+02</pdfrwt>
<pdfrwt beam="2">  1       21 0.11558234E-01 0.22113131E+02</pdfrwt>
<totfact> 0.96006921E+07</totfact>
</mgrwt>
</event>
<event>
 4    1  0.7595771E+004  0.3088610E+02  0.7546771E-02  0.1588496E+00
         21   -1    0    0  503  502  0.00000000000E+00  0.00000000000E+00  0.61061277216E+01  0.61061277216E+01  0.00000000000E+00 0. -1.
         21   -1    0    0  501  503 -0.00000000000E+00 -0.00000000000E+00 -0.15634365617E+03  0.15634365617E+03  0.00000000000E+00 0. -1.
          3    1    1    2  501    0  0.26814712628E+02 -0.15327168724E+02 -0.77323583406E+02  0.83263962584E+02  0.00000000000E+00 0. -1.
         -3    1    1    2    0  502 -0.26814712628E+02  0.15327168724E+02 -0.72913945038E+02  0.79185821303E+02  0.00000000000E+00 0.  1.
<mgrwt>
<rscale>  2 0.30886096E+02</rscale>
<asrwt>0</asrwt>
<pdfrwt beam="1">  1       21 0.93940431E-03 0.30886096E+02</pdfrwt>
<pdfrwt beam="2">  1       21 0.24052869E-01 0.30886096E+02</pdfrwt>
<totfact> 0.52294209E+07</totfact>
</mgrwt>
</event>
<event>
 4    1  0.7595771E+004  0.2145857E+02  0.7546771E-02  0.1717788E+00
         21   -1    0    0  503  502  0.00000000000E+00  0.00000000000E+00  0.61917678646E+01  0.61917678646E+01  0.00000000000E+00 0.  1.
         21   -1    0    0  501  503 -0.00000000000E+00 -0.00000000000E+00 -0.74392246821E+02  0.74392246821E+02  0.00000000000E+00 0.  1.
          4    1    1    2  501    0 -0.11548665185E+02  0.18085862874E+02 -0.33374548383E+02  0.39677834911E+02  0.00000000000E+00 0. -1.
         -4    1    1    2    0  502  0.11548665185E+02 -0.18085862874E+02 -0.34825930574E+02  0.40906179775E+02  0.00000000000E+00 0.  1.
<mgrwt>
<rscale>  2 0.21458567E+02</rscale>
<asrwt>0</asrwt>
<pdfrwt beam="1">  1       21 0.95257962E-03 0.21458567E+02</pdfrwt>
<pdfrwt beam="2">  1       21 0.11444962E-01 0.21458567E+02</pdfrwt>
<totfact> 0.16799217E+08</totfact>
</mgrwt>
</event>
<event>
 4    1  0.7595771E+004  0.2480760E+02  0.7546771E-02  0.1663781E+00
         21   -1    0    0  501  502  0.00000000000E+00  0.00000000000E+00  0.11872837404E+03  0.11872837404E+03  0.00000000000E+00 0. -1.
         21   -1    0    0  502  503 -0.00000000000E+00 -0.00000000000E+00 -0.52641729760E+01  0.52641729760E+01  0.00000000000E+00 0. -1.
          2    1    1    2  501    0 -0.24790866690E+02  0.91096789585E+00  0.64411499246E+02  0.69023605882E+02  0.00000000000E+00 0. -1.
         -2    1    1    2    0  503  0.24790866690E+02 -0.91096789585E+00  0.49052701814E+02  0.54968941131E+02  0.00000000000E+00 0.  1.
<mgrwt>
<rscale>  2 0.24807598E+02</rscale>
<asrwt>0</asrwt>
<pdfrwt beam="1">  1       21 0.18265902E-01 0.24807598E+02</pdfrwt>
<pdfrwt beam="2">  1       21 0.80987286E-03 0.24807598E+02</pdfrwt>
<totfact> 0.10094537E+08</totfact>
</mgrwt>
</event>
<event>
 4    1  0.7595771E+004  0.2197930E+02  0.7546771E-02  0.1708610E+00
         21   -1    0    0  503  502  0.00000000000E+00  0.00000000000E+00  0.20292117005E+01  0.20292117005E+01  0.00000000000E+00 0.  1.
         21   -1    0    0  501  503 -0.00000000000E+00 -0.00000000000E+00 -0.24933295688E+03  0.24933295688E+03  0.00000000000E+00 0.  1.
          3    1    1    2  501    0  0.47458211847E+01  0.21460823732E+02 -0.15036658567E+03  0.15196446907E+03  0.00000000000E+00 0.  1.
         -3    1    1    2    0  502 -0.47458211847E+01 -0.21460823732E+02 -0.96937159504E+02  0.99397699504E+02  0.00000000000E+00 0. -1.
<mgrwt>
<rscale>  2 0.21979303E+02</rscale>
<asrwt>0</asrwt>
<pdfrwt beam="1">  1       21 0.31218655E-03 0.21979303E+02</pdfrwt>
<pdfrwt beam="2">  1       21 0.38358900E-01 0.21979303E+02</pdfrwt>
<totfact> 0.10513049E+08</totfact>
</mgrwt>
</event>
<event>
 4    1  0.7595771E+004  0.2134281E+02  0.7546771E-02  0.1719872E+00
         21   -1    0    0  503  502  0.00000000000E+00  0.00000000000E+00  0.24754976269E+01  0.24754976269E+01  0.00000000000E+00 0. -1.
         21   -1    0    0  501  503 -0.00000000000E+00 -0.00000000000E+00 -0.19168535605E+03  0.19168535605E+03  0.00000000000E+00 0. -1.
          3    1    1    2  501    0  0.21262333978E+02 -0.18516339625E+01 -0.75178318727E+02  0.78149184264E+02  0.00000000000E+00 0. -1.
         -3    1    1    2    0  502 -0.21262333978E+02  0.18516339625E+01 -0.11403153970E+03  0.11601166942E+03  0.00000000000E+00 0.  1.
<mgrwt>
<rscale>  2 0.21342807E+02</rscale>
<asrwt>0</asrwt>
<pdfrwt beam="1">  1       21 0.38084565E-03 0.21342807E+02</pdfrwt>
<pdfrwt beam="2">  1       21 0.29490066E-01 0.21342807E+02</pdfrwt>
<totfact> 0.12653678E+08</totfact>
</mgrwt>
</event>
<event>
 4    1  0.7595771E+004  0.3072869E+02  0.7546771E-02  0.1590171E+00
         21   -1    0    0  501  502  0.00000000000E+00  0.00000000000E+00  0.50027209033E+02  0.50027209033E+02  0.00000000000E+00 0.  1.
         21   -1    0    0  502  503 -0.00000000000E+00 -0.00000000000E+00 -0.19075548631E+02  0.19075548631E+02  0.00000000000E+00 0.  1.
          4    1    1    2  501    0 -0.19801195609E+02 -0.23498189647E+02  0.11931115504E+02  0.32963673664E+02  0.00000000000E+00 0. -1.
         -4    1    1    2    0  503  0.19801195609E+02  0.23498189647E+02  0.19020544898E+02  0.36139084001E+02  0.00000000000E+00 0.  1.
<mgrwt>
<rscale>  2 0.30728688E+02</rscale>
<asrwt>0</asrwt>
<pdfrwt beam="1">  1       21 0.76964937E-02 0.30728688E+02</pdfrwt>
<pdfrwt beam="2">  1       21 0.29346998E-02 0.30728688E+02</pdfrwt>
<totfact> 0.63614572E+07</totfact>
</mgrwt>
</event>
<event>
 4    1  0.7595771E+004  0.3091249E+02  0.7546771E-02  0.1588216E+00
         21   -1    0    0  501  502  0.00000000000E+00  0.00000000000E+00  0.37126657046E+01  0.37126657046E+01  0.00000000000E+00 0. -1.
         21   -1    0    0  502  503 -0.00000000000E+00 -0.00000000000E+00 -0.26744009192E+03  0.26744009192E+03  0.00000000000E+00 0. -1.
          3    1    1    2  501    0  0.29127179867E+02  0.10353219358E+02 -0.10557438263E+03  0.11000696353E+03  0.00000000000E+00 0. -1.
         -3    1    1    2    0  503 -0.29127179867E+02 -0.10353219358E+02 -0.15815304359E+03  0.16114579409E+03  0.00000000000E+00 0.  1.
<mgrwt>
<rscale>  2 0.30912485E+02</rscale>
<asrwt>0</asrwt>
<pdfrwt beam="1">  1       21 0.57117898E-03 0.30912485E+02</pdfrwt>
<pdfrwt beam="2">  1       21 0.41144656E-01 0.30912485E+02</pdfrwt>
<totfact> 0.40880598E+07</totfact>
</mgrwt>
</event>
<event>
 4    1  0.7595771E+004  0.2428719E+02  0.7546771E-02  0.1671457E+00
         21   -1    0    0  501  502  0.00000000000E+00  0.00000000000E+00  0.14141229357E+01  0.14141229357E+01  0.00000000000E+00 0.  1.
         21   -1    0    0  502  503 -0.00000000000E+00 -0.00000000000E+00 -0.58770659697E+03  0.58770659697E+03  0.00000000000E+00 0.  1.
          4    1    1    2  501    0 -0.14824659244E+02  0.19237901253E+02 -0.13445282290E+03  0.13662879986E+03  0.00000000000E+00 0. -1.
         -4    1    1    2    0  503  0.14824659244E+02 -0.19237901253E+02 -0.45183965113E+03  0.45249192004E+03  0.00000000000E+00 0.  1.
<mgrwt>
<rscale>  2 0.24287185E+02</rscale>
<asrwt>0</asrwt>
<pdfrwt beam="1">  1       21 0.21755734E-03 0.24287185E+02</pdfrwt>
<pdfrwt beam="2">  1       21 0.90416415E-01 0.24287185E+02</pdfrwt>
<totfact> 0.32773795E+07</totfact>
</mgrwt>
</event>
<event>
 4    1  0.7595771E+004  0.2029249E+02  0.7546771E-02  0.1739573E+00
         21   -1    0    0  503  502  0.00000000000E+00  0.00000000000E+00  0.11496417221E+03  0.11496417221E+03  0.00000000000E+00 0.  1.
         21   -1    0    0  501  503 -0.00000000000E+00 -0.00000000000E+00 -0.42555849590E+01  0.42555849590E+01  0.00000000000E+00 0.  1.
          1    1    1    2  501    0 -0.13206578720E+02  0.15406858545E+02  0.31636106684E+02  0.37584947224E+02  0.00000000000E+00 0. -1.
         -1    1    1    2    0  502  0.13206578720E+02 -0.15406858545E+02  0.79072480567E+02  0.81634809945E+02  0.00000000000E+00 0.  1.
<mgrwt>
<rscale>  2 0.20292487E+02</rscale>
<asrwt>0</asrwt>
<pdfrwt beam="1">  1       21 0.17686793E-01 0.20292487E+02</pdfrwt>
<pdfrwt beam="2">  1       21 0.65470547E-03 0.20292487E+02</pdfrwt>
<totfact> 0.13830535E+08</totfact>
</mgrwt>
</event>
<event>
 4    1  0.7595771E+004  0.3545941E+02  0.7546771E-02  0.1544558E+00
         21   -1    0    0  501  502  0.00000000000E+00  0.00000000000E+00  0.54301177622E+02  0.54301177622E+02  0.00000000000E+00 0.  1.
         21   -1    0    0  502  503 -0.00000000000E+00 -0.00000000000E+00 -0.25415075193E+02  0.25415075193E+02  0.00000000000E+00 0.  1.
          1    1    1    2  501    0 -0.15704535421E+02 -0.31792100338E+02  0.25584101616E+01  0.35551589827E+02  0.00000000000E+00 0.  1.
         -1    1    1    2    0  503  0.15704535421E+02  0.31792100338E+02  0.26327692268E+02  0.44164662988E+02  0.00000000000E+00 0. -1.
<mgrwt>
<rscale>  2 0.35459415E+02</rscale>
<asrwt>0</asrwt>
<pdfrwt beam="1">  1       21 0.83540273E-02 0.35459415E+02</pdfrwt>
<pdfrwt beam="2">  1       21 0.39100116E-02 0.35459415E+02</pdfrwt>
<totfact> 0.36322910E+07</totfact>
</mgrwt>
</event>
<event>
 4    1  0.7595771E+004  0.2278354E+02  0.7546771E-02  0.1695043E+00
         21   -1    0    0  503  502  0.00000000000E+00  0.00000000000E+00  0.69428659650E+01  0.69428659650E+01  0.00000000000E+00 0.  1.
         21   -1    0    0  501  503 -0.00000000000E+00 -0.00000000000E+00 -0.85818075422E+02  0.85818075422E+02  0.00000000000E+00 0.  1.
          3    1    1    2  501    0  0.82671708997E+01 -0.21230718447E+02 -0.22793135912E+02  0.32227574609E+02  0.00000000000E+00 0. -1.
         -3    1    1    2    0  502 -0.82671708997E+01  0.21230718447E+02 -0.56082073544E+02  0.60533366778E+02  0.00000000000E+00 0.  1.
<mgrwt>
<rscale>  2 0.22783536E+02</rscale>
<asrwt>0</asrwt>
<pdfrwt beam="1">  1       21 0.10681333E-02 0.22783536E+02</pdfrwt>
<pdfrwt beam="2">  1       21 0.13202779E-01 0.22783536E+02</pdfrwt>
<totfact> 0.11337410E+08</totfact>
</mgrwt>
</event>
<event>
 4    1  0.7595771E+004  0.2110222E+02  0.7546771E-02  0.1724258E+00
         21   -1    0    0  503  502  0.00000000000E+00  0.00000000000E+00  0.25525864017E+00  0.25525864017E+00  0.00000000000E+00 0.  1.
         21   -1    0    0  501  503 -0.00000000000E+00 -0.00000000000E+00 -0.18744244886E+04  0.18744244886E+04  0.00000000000E+00 0.  1.
          5    1    1    2  501    0  0.20333753318E+02 -0.56428714138E+01 -0.11838459079E+04  0.11840339679E+04  0.00000000000E+00 0. -1.
         -5    1    1    2    0  502 -0.20333753318E+02  0.56428714138E+01 -0.69032332202E+03  0.69064577928E+03  0.00000000000E+00 0.  1.
<mgrwt>
<rscale>  2 0.21102216E+02</rscale>
<asrwt>0</asrwt>
<pdfrwt beam="1">  1       21 0.39271235E-04 0.21102216E+02</pdfrwt>
<pdfrwt beam="2">  1       21 0.28836804E+00 0.21102216E+02</pdfrwt>
<totfact> 0.20598074E+07</totfact>
</mgrwt>
</event>
<event>
 4    1  0.7595771E+004  0.2392420E+02  0.7546771E-02  0.1676953E+00
         21   -1    0    0  503  502  0.00000000000E+00  0.00000000000E+00  0.72447317642E+02  0.72447317642E+02  0.00000000000E+00 0.  1.
         21   -1    0    0  501  503 -0.00000000000E+00 -0.00000000000E+00 -0.88117821226E+01  0.88117821226E+01  0.00000000000E+00 0.  1.
          5    1    1    2  501    0  0.11158430428E+01  0.23898160155E+02  0.44883868304E+02  0.50861859958E+02  0.00000000000E+00 0. -1.
         -5    1    1    2    0  502 -0.11158430428E+01 -0.23898160155E+02  0.18751667215E+02  0.30397239806E+02  0.00000000000E+00 0.  1.
<mgrwt>
<rscale>  2 0.23924196E+02</rscale>
<asrwt>0</asrwt>
<pdfrwt beam="1">  1       21 0.11145741E-01 0.23924196E+02</pdfrwt>
<pdfrwt beam="2">  1       21 0.13556588E-02 0.23924196E+02</pdfrwt>
<totfact> 0.10653995E+08</totfact>
</mgrwt>
</event>
<event>
 4    1  0.7595771E+004  0.3049301E+02  0.7546771E-02  0.1592702E+00
         21   -1    0    0  503  502  0.00000000000E+00  0.00000000000E+00  0.17781644258E+02  0.17781644258E+02  0.00000000000E+00 0.  1.
         21   -1    0    0  501  503 -0.00000000000E+00 -0.00000000000E+00 -0.52293090855E+02  0.52293090855E+02  0.00000000000E+00 0.  1.
          4    1    1    2  501    0  0.30227176571E+02  0.40176301731E+01 -0.17466287131E+02  0.35141069161E+02  0.00000000000E+00 0. -1.
         -4    1    1    2    0  502 -0.30227176571E+02 -0.40176301731E+01 -0.17045159465E+02  0.34933665952E+02  0.00000000000E+00 0.  1.
<mgrwt>
<rscale>  2 0.30493008E+02</rscale>
<asrwt>0</asrwt>
<pdfrwt beam="1">  1       21 0.27356376E-02 0.30493008E+02</pdfrwt>
<pdfrwt beam="2">  1       21 0.80450907E-02 0.30493008E+02</pdfrwt>
<totfact> 0.65915429E+07</totfact>
</mgrwt>
</event>
<event>
 4    1  0.7595771E+004  0.2464929E+02  0.7546771E-02  0.1666091E+00
         21   -1    0    0  501  502  0.00000000000E+00  0.00000000000E+00  0.24435544012E+02  0.24435544012E+02  0.00000000000E+00 0.  1.
         21   -1    0    0  502  503 -0.00000000000E+00 -0.00000000000E+00 -0.34483491575E+02  0.34483491575E+02  0.00000000000E+00 0.  1.
          2    1    1    2  501    0 -0.85290986555E+01 -0.23126650917E+02  0.10534809170E+02  0.26806150614E+02  0.00000000000E+00 0.  1.
         -2    1    1    2    0  503  0.85290986555E+01  0.23126650917E+02 -0.20582756733E+02  0.32112884972E+02  0.00000000000E+00 0. -1.
<mgrwt>
<rscale>  2 0.24649290E+02</rscale>
<asrwt>0</asrwt>
<pdfrwt beam="1">  1       21 0.37593145E-02 0.24649290E+02</pdfrwt>
<pdfrwt beam="2">  1       21 0.53051525E-02 0.24649290E+02</pdfrwt>
<totfact> 0.74671428E+07</totfact>
</mgrwt>
</event>
<event>
 4    1  0.7595771E+004  0.2493059E+02  0.7546771E-02  0.1662001E+00
         21   -1    0    0  503  502  0.00000000000E+00  0.00000000000E+00  0.41007944195E+01  0.41007944195E+01  0.00000000000E+00 0. -1.
         21   -1    0    0  501  503 -0.00000000000E+00 -0.00000000000E+00 -0.16364901921E+03  0.16364901921E+03  0.00000000000E+00 0. -1.
          3    1    1    2  501    0  0.19428618891E+02  0.15622522652E+02 -0.10256660545E+03  0.10555303406E+03  0.00000000000E+00 0. -1.
         -3    1    1    2    0  502 -0.19428618891E+02 -0.15622522652E+02 -0.56981619350E+02  0.62196779577E+02  0.00000000000E+00 0.  1.
<mgrwt>
<rscale>  2 0.24930593E+02</rscale>
<asrwt>0</asrwt>
<pdfrwt beam="1">  1       21 0.63089146E-03 0.24930593E+02</pdfrwt>
<pdfrwt beam="2">  1       21 0.25176772E-01 0.24930593E+02</pdfrwt>
<totfact> 0.83342544E+07</totfact>
</mgrwt>
</event>
<event>
 4    1  0.7595771E+004  0.2128542E+02  0.7546771E-02  0.1720912E+00
         21   -1    0    0  503  502  0.00000000000E+00  0.00000000000E+00  0.63076376547E+01  0.63076376547E+01  0.00000000000E+00 0. -1.
         21   -1    0    0  501  503 -0.00000000000E+00 -0.00000000000E+00 -0.80331814722E+02  0.80331814722E+02  0.00000000000E+00 0. -1.
          3    1    1    2  501    0 -0.50110570046E+01 -0.20687151938E+02 -0.22918135610E+02  0.31277945704E+02  0.00000000000E+00 0.  1.
         -3    1    1    2    0  502  0.50110570046E+01  0.20687151938E+02 -0.51106041457E+02  0.55361506672E+02  0.00000000000E+00 0. -1.
<mgrwt>
<rscale>  2 0.21285416E+02</rscale>
<asrwt>0</asrwt>
<pdfrwt beam="1">  1       21 0.97040586E-03 0.21285416E+02</pdfrwt>
<pdfrwt beam="2">  1       21 0.12358740E-01 0.21285416E+02</pdfrwt>
<totfact> 0.14339128E+08</totfact>
</mgrwt>
</event>
<event>
 4    1  0.7595771E+004  0.2771104E+02  0.7546771E-02  0.1624862E+00
         21   -1    0    0  503  502  0.00000000000E+00  0.00000000000E+00  0.18583055865E+03  0.18583055865E+03  0.00000000000E+00 0. -1.
         21   -1    0    0  501  503 -0.00000000000E+00 -0.00000000000E+00 -0.57905269967E+01  0.57905269967E+01  0.00000000000E+00 0. -1.
          2    1    1    2  501    0  0.50930646149E+01  0.27238990622E+02  0.14129201633E+03  0.14398380394E+03  0.00000000000E+00 0.  1.
         -2    1    1    2    0  502 -0.50930646149E+01 -0.27238990622E+02  0.38748015321E+02  0.47637281709E+02  0.00000000000E+00 0. -1.
<mgrwt>
<rscale>  2 0.27711043E+02</rscale>
<asrwt>0</asrwt>
<pdfrwt beam="1">  1       21 0.28589312E-01 0.27711043E+02</pdfrwt>
<pdfrwt beam="2">  1       21 0.89085045E-03 0.27711043E+02</pdfrwt>
<totfact> 0.40497098E+07</totfact>
</mgrwt>
</event>
<event>
 4    1  0.7595771E+004  0.2000003E+02  0.7546771E-02  0.1745328E+00
         21   -1    0    0  503  502  0.00000000000E+00  0.00000000000E+00  0.87422482573E+01  0.87422482573E+01  0.00000000000E+00 0.  1.
         21   -1    0    0  501  503 -0.00000000000E+00 -0.00000000000E+00 -0.15232456331E+03  0.15232456331E+03  0.00000000000E+00 0.  1.
          4    1    1    2  501    0  0.85993066157E+01  0.18056936099E+02 -0.13915204761E+03  0.14058198096E+03  0.00000000000E+00 0.  1.
         -4    1    1    2    0  502 -0.85993066157E+01 -0.18056936099E+02 -0.44302674425E+01  0.20484830611E+02  0.00000000000E+00 0. -1.
<mgrwt>
<rscale>  2 0.20000025E+02</rscale>
<asrwt>0</asrwt>
<pdfrwt beam="1">  1       21 0.13449613E-02 0.20000025E+02</pdfrwt>
<pdfrwt beam="2">  1       21 0.23434548E-01 0.20000025E+02</pdfrwt>
<totfact> 0.28846670E+07</totfact>
</mgrwt>
</event>
<event>
 4    1  0.7595771E+004  0.2251638E+02  0.7546771E-02  0.1699472E+00
         21   -1    0    0  503  502  0.00000000000E+00  0.00000000000E+00  0.19802959367E+02  0.19802959367E+02  0.00000000000E+00 0.  1.
         21   -1    0    0  501  503 -0.00000000000E+00 -0.00000000000E+00 -0.26495929485E+02  0.26495929485E+02  0.00000000000E+00 0.  1.
          1    1    1    2  501    0  0.16356863889E+02 -0.15473853699E+02 -0.75995640144E+01  0.23764269772E+02  0.00000000000E+00 0. -1.
         -1    1    1    2    0  502 -0.16356863889E+02  0.15473853699E+02  0.90659389706E+00  0.22534619080E+02  0.00000000000E+00 0.  1.
<mgrwt>
<rscale>  2 0.22516375E+02</rscale>
<asrwt>0</asrwt>
<pdfrwt beam="1">  1       21 0.30466092E-02 0.22516375E+02</pdfrwt>
<pdfrwt beam="2">  1       21 0.40762968E-02 0.22516375E+02</pdfrwt>
<totfact> 0.15365517E+08</totfact>
</mgrwt>
</event>
<event>
 4    1  0.7595771E+004  0.2572458E+02  0.7546771E-02  0.1650807E+00
         21   -1    0    0  503  502  0.00000000000E+00  0.00000000000E+00  0.10341087099E+02  0.10341087099E+02  0.00000000000E+00 0.  1.
         21   -1    0    0  501  503 -0.00000000000E+00 -0.00000000000E+00 -0.74248500668E+02  0.74248500668E+02  0.00000000000E+00 0.  1.
          5    1    1    2  501    0  0.25445100160E+02 -0.37816797251E+01 -0.47672802892E+02  0.54170567278E+02  0.00000000000E+00 0.  1.
         -5    1    1    2    0  502 -0.25445100160E+02  0.37816797251E+01 -0.16234610678E+02  0.30419020489E+02  0.00000000000E+00 0. -1.
<mgrwt>
<rscale>  2 0.25724584E+02</rscale>
<asrwt>0</asrwt>
<pdfrwt beam="1">  1       21 0.15909365E-02 0.25724584E+02</pdfrwt>
<pdfrwt beam="2">  1       21 0.11422846E-01 0.25724584E+02</pdfrwt>
<totfact> 0.81686991E+07</totfact>
</mgrwt>
</event>
<event>
 4    1  0.7595771E+004  0.2301428E+02  0.7546771E-02  0.1691279E+00
         21   -1    0    0  501  502  0.00000000000E+00  0.00000000000E+00  0.12056826662E+02  0.12056826662E+02  0.00000000000E+00 0.  1.
         21   -1    0    0  502  503 -0.00000000000E+00 -0.00000000000E+00 -0.44260710919E+02  0.44260710919E+02  0.00000000000E+00 0.  1.
          4    1    1    2  501    0 -0.19625273385E+02  0.12021044706E+02 -0.18535842585E+02  0.29550538601E+02  0.00000000000E+00 0. -1.
         -4    1    1    2    0  503  0.19625273385E+02 -0.12021044706E+02 -0.13668041673E+02  0.26766998981E+02  0.00000000000E+00 0.  1.
<mgrwt>
<rscale>  2 0.23014275E+02</rscale>
<asrwt>0</asrwt>
<pdfrwt beam="1">  1       21 0.18548964E-02 0.23014275E+02</pdfrwt>
<pdfrwt beam="2">  1       21 0.68093403E-02 0.23014275E+02</pdfrwt>
<totfact> 0.14670134E+08</totfact>
</mgrwt>
</event>
<event>
 4    1  0.7595771E+004  0.2405400E+02  0.7546771E-02  0.1674973E+00
         21   -1    0    0  503  502  0.00000000000E+00  0.00000000000E+00  0.24289783595E+01  0.24289783595E+01  0.00000000000E+00 0.  1.
         21   -1    0    0  501  503 -0.00000000000E+00 -0.00000000000E+00 -0.24097517651E+03  0.24097517651E+03  0.00000000000E+00 0.  1.
          4    1    1    2  501    0  0.12453029703E+02  0.20579530288E+02 -0.13232152970E+03  0.13449008230E+03  0.00000000000E+00 0. -1.
         -4    1    1    2    0  502 -0.12453029703E+02 -0.20579530288E+02 -0.10622466846E+03  0.10891407257E+03  0.00000000000E+00 0.  1.
<mgrwt>
<rscale>  2 0.24054002E+02</rscale>
<asrwt>0</asrwt>
<pdfrwt beam="1">  1       21 0.37368908E-03 0.24054002E+02</pdfrwt>
<pdfrwt beam="2">  1       21 0.37073094E-01 0.24054002E+02</pdfrwt>
<totfact> 0.88227849E+07</totfact>
</mgrwt>
</event>
<event>
 4    1  0.7595771E+004  0.4391766E+02  0.7546771E-02  0.1481214E+00
         21   -1    0    0  503  502  0.00000000000E+00  0.00000000000E+00  0.80699886951E+00  0.80699886951E+00  0.00000000000E+00 0.  1.
         21   -1    0    0  501  503 -0.00000000000E+00 -0.00000000000E+00 -0.26033347080E+04  0.26033347080E+04  0.00000000000E+00 0.  1.
          1    1    1    2  501    0  0.41194814132E+02  0.15223270502E+02 -0.92856481967E+03  0.92960281035E+03  0.00000000000E+00 0. -1.
         -1    1    1    2    0  502 -0.41194814132E+02 -0.15223270502E+02 -0.16739628894E+04  0.16745388965E+04  0.00000000000E+00 0.  1.
<mgrwt>
<rscale>  2 0.43917658E+02</rscale>
<asrwt>0</asrwt>
<pdfrwt beam="1">  1       21 0.12415294E-03 0.43917658E+02</pdfrwt>
<pdfrwt beam="2">  1       21 0.40051539E+00 0.43917658E+02</pdfrwt>
<totfact> 0.10134371E+06</totfact>
</mgrwt>
</event>
<event>
 4    1  0.7595771E+004  0.2477817E+02  0.7546771E-02  0.1664209E+00
         21   -1    0    0  503  502  0.00000000000E+00  0.00000000000E+00  0.22664708882E+01  0.22664708882E+01  0.00000000000E+00 0. -1.
         21   -1    0    0  501  503 -0.00000000000E+00 -0.00000000000E+00 -0.27521197519E+03  0.27521197519E+03  0.00000000000E+00 0. -1.
          3    1    1    2  501    0  0.24767735863E+02  0.71897571816E+00 -0.15386492003E+03  0.15584726908E+03  0.00000000000E+00 0. -1.
         -3    1    1    2    0  502 -0.24767735863E+02 -0.71897571816E+00 -0.11908058427E+03  0.12163117699E+03  0.00000000000E+00 0.  1.
<mgrwt>
<rscale>  2 0.24778169E+02</rscale>
<asrwt>0</asrwt>
<pdfrwt beam="1">  1       21 0.34868805E-03 0.24778169E+02</pdfrwt>
<pdfrwt beam="2">  1       21 0.42340277E-01 0.24778169E+02</pdfrwt>
<totfact> 0.76564361E+07</totfact>
</mgrwt>
</event>
<event>
 4    1  0.7595771E+004  0.3318641E+02  0.7546771E-02  0.1565322E+00
         21   -1    0    0  503  502  0.00000000000E+00  0.00000000000E+00  0.26951087144E+02  0.26951087144E+02  0.00000000000E+00 0. -1.
         21   -1    0    0  501  503 -0.00000000000E+00 -0.00000000000E+00 -0.43324282877E+02  0.43324282877E+02  0.00000000000E+00 0. -1.
          5    1    1    2  501    0  0.28303986470E+02  0.17326922249E+02 -0.16559415166E+02  0.37088436410E+02  0.00000000000E+00 0.  1.
         -5    1    1    2    0  502 -0.28303986470E+02 -0.17326922249E+02  0.18621943251E+00  0.33186933610E+02  0.00000000000E+00 0. -1.
<mgrwt>
<rscale>  2 0.33186411E+02</rscale>
<asrwt>0</asrwt>
<pdfrwt beam="1">  1       21 0.41463211E-02 0.33186411E+02</pdfrwt>
<pdfrwt beam="2">  1       21 0.66652743E-02 0.33186411E+02</pdfrwt>
<totfact> 0.47356446E+07</totfact>
</mgrwt>
</event>
<event>
 4    1  0.7595771E+004  0.2320833E+02  0.7546771E-02  0.1688155E+00
         21   -1    0    0  503  502  0.00000000000E+00  0.00000000000E+00  0.12793304646E+02  0.12793304646E+02  0.00000000000E+00 0. -1.
         21   -1    0    0  501  503 -0.00000000000E+00 -0.00000000000E+00 -0.46140113885E+02  0.46140113885E+02  0.00000000000E+00 0. -1.
          4    1    1    2  501    0 -0.50746154243E+01 -0.22646743417E+02 -0.25390443664E+02  0.34399147352E+02  0.00000000000E+00 0.  1.
         -4    1    1    2    0  502  0.50746154243E+01  0.22646743417E+02 -0.79563655753E+01  0.24534271178E+02  0.00000000000E+00 0. -1.
<mgrwt>
<rscale>  2 0.23208333E+02</rscale>
<asrwt>0</asrwt>
<pdfrwt beam="1">  1       21 0.19682007E-02 0.23208333E+02</pdfrwt>
<pdfrwt beam="2">  1       21 0.70984791E-02 0.23208333E+02</pdfrwt>
<totfact> 0.12555252E+08</totfact>
</mgrwt>
</event>
<event>
 4    1  0.7595771E+004  0.2113656E+02  0.7546771E-02  0.1723627E+00
         21   -1    0    0  503  502  0.00000000000E+00  0.00000000000E+00  0.27315933796E+01  0.27315933796E+01  0.00000000000E+00 0. -1.
         21   -1    0    0  501  503 -0.00000000000E+00 -0.00000000000E+00 -0.16376991496E+03  0.16376991496E+03  0.00000000000E+00 0. -1.
          5    1    1    2  501    0  0.17726372025E+00 -0.21135816035E+02 -0.77473664130E+02  0.80305185235E+02  0.00000000000E+00 0.  1.
         -5    1    1    2    0  502 -0.17726372025E+00  0.21135816035E+02 -0.83564657446E+02  0.86196323100E+02  0.00000000000E+00 0. -1.
<mgrwt>
<rscale>  2 0.21136559E+02</rscale>
<asrwt>0</asrwt>
<pdfrwt beam="1">  1       21 0.42024514E-03 0.21136559E+02</pdfrwt>
<pdfrwt beam="2">  1       21 0.25195371E-01 0.21136559E+02</pdfrwt>
<totfact> 0.14489032E+08</totfact>
</mgrwt>
</event>
<event>
 4    1  0.7595771E+004  0.2129495E+02  0.7546771E-02  0.1720739E+00
         21   -1    0    0  501  502  0.00000000000E+00  0.00000000000E+00  0.26852421336E+03  0.26852421336E+03  0.00000000000E+00 0. -1.
         21   -1    0    0  502  503 -0.00000000000E+00 -0.00000000000E+00 -0.20433741174E+01  0.20433741174E+01  0.00000000000E+00 0. -1.
          4    1    1    2  501    0  0.67870596223E+01  0.20184416058E+02  0.76883719680E+02  0.79778325263E+02  0.00000000000E+00 0.  1.
         -4    1    1    2    0  503 -0.67870596223E+01 -0.20184416058E+02  0.18959711957E+03  0.19078926222E+03  0.00000000000E+00 0. -1.
<mgrwt>
<rscale>  2 0.21294948E+02</rscale>
<asrwt>0</asrwt>
<pdfrwt beam="1">  1       21 0.41311389E-01 0.21294948E+02</pdfrwt>
<pdfrwt beam="2">  1       21 0.31436546E-03 0.21294948E+02</pdfrwt>
<totfact> 0.89777075E+07</totfact>
</mgrwt>
</event>
<event>
 4    1  0.7595771E+004  0.3749343E+02  0.7546771E-02  0.1527511E+00
         21   -1    0    0  501  502  0.00000000000E+00  0.00000000000E+00  0.82378992473E+01  0.82378992473E+01  0.00000000000E+00 0. -1.
         21   -1    0    0  502  503 -0.00000000000E+00 -0.00000000000E+00 -0.24737686062E+03  0.24737686062E+03  0.00000000000E+00 0. -1.
          1    1    1    2  501    0  0.27967176237E+02  0.24971865385E+02 -0.19075047044E+03  0.19440035746E+03  0.00000000000E+00 0. -1.
         -1    1    1    2    0  503 -0.27967176237E+02 -0.24971865385E+02 -0.48388490937E+02  0.61214402412E+02  0.00000000000E+00 0.  1.
<mgrwt>
<rscale>  2 0.37493426E+02</rscale>
<asrwt>0</asrwt>
<pdfrwt beam="1">  1       21 0.12673693E-02 0.37493426E+02</pdfrwt>
<pdfrwt beam="2">  1       21 0.38057974E-01 0.37493426E+02</pdfrwt>
<totfact> 0.14661430E+07</totfact>
</mgrwt>
</event>
<event>
 4    1  0.7595771E+004  0.2439827E+02  0.7546771E-02  0.1669798E+00
         21   -1    0    0  503  502  0.00000000000E+00  0.00000000000E+00  0.47425707546E+01  0.47425707546E+01  0.00000000000E+00 0. -1.
         21   -1    0    0  501  503 -0.00000000000E+00 -0.00000000000E+00 -0.13994842865E+03  0.13994842865E+03  0.00000000000E+00 0. -1.
          2    1    1    2  501    0  0.20211287398E+02  0.13666720493E+02 -0.90834329899E+02  0.94053978521E+02  0.00000000000E+00 0. -1.
         -2    1    1    2    0  502 -0.20211287398E+02 -0.13666720493E+02 -0.44371527999E+02  0.50637020887E+02  0.00000000000E+00 0.  1.
<mgrwt>
<rscale>  2 0.24398266E+02</rscale>
<asrwt>0</asrwt>
<pdfrwt beam="1">  1       21 0.72962616E-03 0.24398266E+02</pdfrwt>
<pdfrwt beam="2">  1       21 0.21530531E-01 0.24398266E+02</pdfrwt>
<totfact> 0.88122507E+07</totfact>
</mgrwt>
</event>
<event>
 4    1  0.7595771E+004  0.2424556E+02  0.7546771E-02  0.1672081E+00
         21   -1    0    0  501  502  0.00000000000E+00  0.00000000000E+00  0.12092580563E+03  0.12092580563E+03  0.00000000000E+00 0. -1.
         21   -1    0    0  502  503 -0.00000000000E+00 -0.00000000000E+00 -0.48746639287E+01  0.48746639287E+01  0.00000000000E+00 0. -1.
          2    1    1    2  501    0 -0.44055313869E+01  0.23841951828E+02  0.54722744614E+02  0.59853372101E+02  0.00000000000E+00 0.  1.
         -2    1    1    2    0  503  0.44055313869E+01 -0.23841951828E+02  0.61328397086E+02  0.65947097456E+02  0.00000000000E+00 0. -1.
<mgrwt>
<rscale>  2 0.24245564E+02</rscale>
<asrwt>0</asrwt>
<pdfrwt beam="1">  1       21 0.18603968E-01 0.24245564E+02</pdfrwt>
<pdfrwt beam="2">  1       21 0.74994838E-03 0.24245564E+02</pdfrwt>
<totfact> 0.10902663E+08</totfact>
</mgrwt>
</event>
<event>
 4    1  0.7595771E+004  0.2173129E+02  0.7546771E-02  0.1712941E+00
         21   -1    0    0  503  502  0.00000000000E+00  0.00000000000E+00  0.11550590284E+02  0.11550590284E+02  0.00000000000E+00 0. -1.
         21   -1    0    0  501  503 -0.00000000000E+00 -0.00000000000E+00 -0.41469682091E+02  0.41469682091E+02  0.00000000000E+00 0. -1.
          2    1    1    2  501    0 -0.81323352267E+01 -0.20152273393E+02 -0.11812476594E+02  0.24734259691E+02  0.00000000000E+00 0.  1.
         -2    1    1    2    0  502  0.81323352267E+01  0.20152273393E+02 -0.18106615212E+02  0.28286012685E+02  0.00000000000E+00 0. -1.
<mgrwt>
<rscale>  2 0.21731291E+02</rscale>
<asrwt>0</asrwt>
<pdfrwt beam="1">  1       21 0.17770139E-02 0.21731291E+02</pdfrwt>
<pdfrwt beam="2">  1       21 0.63799512E-02 0.21731291E+02</pdfrwt>
<totfact> 0.17094927E+08</totfact>
</mgrwt>
</event>
<event>
 4    1  0.7595771E+004  0.2135107E+02  0.7546771E-02  0.1719723E+00
         21   -1    0    0  503  502  0.00000000000E+00  0.00000000000E+00  0.24069308896E+02  0.24069308896E+02  0.00000000000E+00 0.  1.
         21   -1    0    0  501  503 -0.00000000000E+00 -0.00000000000E+00 -0.24797599058E+02  0.24797599058E+02  0.00000000000E+00 0.  1.
          1    1    1    2  501    0  0.20806613815E+01  0.21249449568E+02  0.11511213294E+02  0.24256469039E+02  0.00000000000E+00 0. -1.
         -1    1    1    2    0  502 -0.20806613815E+01 -0.21249449568E+02 -0.12239503455E+02  0.24610438915E+02  0.00000000000E+00 0.  1.
<mgrwt>
<rscale>  2 0.21351072E+02</rscale>
<asrwt>0</asrwt>
<pdfrwt beam="1">  1       21 0.37029706E-02 0.21351072E+02</pdfrwt>
<pdfrwt beam="2">  1       21 0.38150152E-02 0.21351072E+02</pdfrwt>
<totfact> 0.12372004E+08</totfact>
</mgrwt>
</event>
<event>
 4    1  0.7595771E+004  0.2396824E+02  0.7546771E-02  0.1676280E+00
         21   -1    0    0  503  502  0.00000000000E+00  0.00000000000E+00  0.21049027335E+02  0.21049027335E+02  0.00000000000E+00 0. -1.
         21   -1    0    0  501  503 -0.00000000000E+00 -0.00000000000E+00 -0.37708600271E+02  0.37708600271E+02  0.00000000000E+00 0. -1.
          4    1    1    2  501    0 -0.23673207969E+02  0.37490729104E+01 -0.23770623572E+02  0.33756760334E+02  0.00000000000E+00 0. -1.
         -4    1    1    2    0  502  0.23673207969E+02 -0.37490729104E+01  0.71110506360E+01  0.25000867272E+02  0.00000000000E+00 0.  1.
<mgrwt>
<rscale>  2 0.23968236E+02</rscale>
<asrwt>0</asrwt>
<pdfrwt beam="1">  1       21 0.32383119E-02 0.23968236E+02</pdfrwt>
<pdfrwt beam="2">  1       21 0.58013230E-02 0.23968236E+02</pdfrwt>
<totfact> 0.81158989E+07</totfact>
</mgrwt>
</event>
<event>
 4    1  0.7595771E+004  0.2675854E+02  0.7546771E-02  0.1636957E+00
         21   -1    0    0  503  502  0.00000000000E+00  0.00000000000E+00  0.98156156612E+00  0.98156156612E+00  0.00000000000E+00 0. -1.
         21   -1    0    0  501  503 -0.00000000000E+00 -0.00000000000E+00 -0.76230541621E+03  0.76230541621E+03  0.00000000000E+00 0. -1.
          4    1    1    2  501    0 -0.21407013367E+02  0.16054877287E+02 -0.30145423192E+03  0.30263951039E+03  0.00000000000E+00 0. -1.
         -4    1    1    2    0  502  0.21407013367E+02 -0.16054877287E+02 -0.45986962273E+03  0.46064746739E+03  0.00000000000E+00 0.  1.
<mgrwt>
<rscale>  2 0.26758537E+02</rscale>
<asrwt>0</asrwt>
<pdfrwt beam="1">  1       21 0.15100937E-03 0.26758537E+02</pdfrwt>
<pdfrwt beam="2">  1       21 0.11727783E+00 0.26758537E+02</pdfrwt>
<totfact> 0.31848416E+07</totfact>
</mgrwt>
</event>
<event>
 4    1  0.7595771E+004  0.3987293E+02  0.7546771E-02  0.1509149E+00
         21   -1    0    0  503  502  0.00000000000E+00  0.00000000000E+00  0.69163757081E+01  0.69163757081E+01  0.00000000000E+00 0.  1.
         21   -1    0    0  501  503 -0.00000000000E+00 -0.00000000000E+00 -0.22986886486E+03  0.22986886486E+03  0.00000000000E+00 0.  1.
          1    1    1    2  501    0  0.10192012173E+02  0.38548323653E+02 -0.11175893732E+03  0.11865879841E+03  0.00000000000E+00 0. -1.
         -1    1    1    2    0  502 -0.10192012173E+02 -0.38548323653E+02 -0.11119355183E+03  0.11812644216E+03  0.00000000000E+00 0.  1.
<mgrwt>
<rscale>  2 0.39872928E+02</rscale>
<asrwt>0</asrwt>
<pdfrwt beam="1">  1       21 0.10640576E-02 0.39872928E+02</pdfrwt>
<pdfrwt beam="2">  1       21 0.35364447E-01 0.39872928E+02</pdfrwt>
<totfact> 0.22250235E+07</totfact>
</mgrwt>
</event>
<event>
 4    1  0.7595771E+004  0.4560340E+02  0.7546771E-02  0.1470610E+00
         21   -1    0    0  501  502  0.00000000000E+00  0.00000000000E+00  0.20236793938E+03  0.20236793938E+03  0.00000000000E+00 0. -1.
         21   -1    0    0  502  503 -0.00000000000E+00 -0.00000000000E+00 -0.25921045954E+02  0.25921045954E+02  0.00000000000E+00 0. -1.
          5    1    1    2  501    0  0.34639720186E+02  0.29660749597E+02  0.17689977514E+03  0.18268333456E+03  0.00000000000E+00 0.  1.
         -5    1    1    2    0  503 -0.34639720186E+02 -0.29660749597E+02 -0.45288170772E+00  0.45605650780E+02  0.00000000000E+00 0. -1.
<mgrwt>
<rscale>  2 0.45603402E+02</rscale>
<asrwt>0</asrwt>
<pdfrwt beam="1">  1       21 0.31133528E-01 0.45603402E+02</pdfrwt>
<pdfrwt beam="2">  1       21 0.39878533E-02 0.45603402E+02</pdfrwt>
<totfact> 0.36145853E+06</totfact>
</mgrwt>
</event>
<event>
 4    1  0.7595771E+004  0.2385580E+02  0.7546771E-02  0.1678002E+00
         21   -1    0    0  501  502  0.00000000000E+00  0.00000000000E+00  0.28008520525E+02  0.28008520525E+02  0.00000000000E+00 0.  1.
         21   -1    0    0  502  503 -0.00000000000E+00 -0.00000000000E+00 -0.21113899072E+02  0.21113899072E+02  0.00000000000E+00 0.  1.
          1    1    1    2  501    0 -0.10619444126E+02  0.21361804178E+02 -0.13189593673E+01  0.23892235666E+02  0.00000000000E+00 0. -1.
         -1    1    1    2    0  503  0.10619444126E+02 -0.21361804178E+02  0.82135808206E+01  0.25230183931E+02  0.00000000000E+00 0.  1.
<mgrwt>
<rscale>  2 0.23855802E+02</rscale>
<asrwt>0</asrwt>
<pdfrwt beam="1">  1       21 0.43090032E-02 0.23855802E+02</pdfrwt>
<pdfrwt beam="2">  1       21 0.32482922E-02 0.23855802E+02</pdfrwt>
<totfact> 0.12959624E+08</totfact>
</mgrwt>
</event>
<event>
 4    1  0.7595771E+004  0.2173209E+02  0.7546771E-02  0.1712927E+00
         21   -1    0    0  501  502  0.00000000000E+00  0.00000000000E+00  0.98180777192E+02  0.98180777192E+02  0.00000000000E+00 0.  1.
         21   -1    0    0  502  503 -0.00000000000E+00 -0.00000000000E+00 -0.48104544778E+01  0.48104544778E+01  0.00000000000E+00 0.  1.
          1    1    1    2  501    0  0.11210629552E+02  0.18617349128E+02  0.46925126806E+02  0.51713164951E+02  0.00000000000E+00 0. -1.
         -1    1    1    2    0  503 -0.11210629552E+02 -0.18617349128E+02  0.46445195908E+02  0.51278066719E+02  0.00000000000E+00 0.  1.
<mgrwt>
<rscale>  2 0.21732094E+02</rscale>
<asrwt>0</asrwt>
<pdfrwt beam="1">  1       21 0.15104733E-01 0.21732094E+02</pdfrwt>
<pdfrwt beam="2">  1       21 0.74006999E-03 0.21732094E+02</pdfrwt>
<totfact> 0.15412236E+08</totfact>
</mgrwt>
</event>
<event>
 4    1  0.7595771E+004  0.2574635E+02  0.7546771E-02  0.1650508E+00
         21   -1    0    0  501  502  0.00000000000E+00  0.00000000000E+00  0.20249095509E+01  0.20249095509E+01  0.00000000000E+00 0. -1.
         21   -1    0    0  502  503 -0.00000000000E+00 -0.00000000000E+00 -0.47292534664E+03  0.47292534664E+03  0.00000000000E+00 0. -1.
          5    1    1    2  501    0 -0.24509920988E+02  0.78827806787E+01 -0.10370016969E+03  0.10684848924E+03  0.00000000000E+00 0. -1.
         -5    1    1    2    0  503  0.24509920988E+02 -0.78827806787E+01 -0.36720026740E+03  0.36810176696E+03  0.00000000000E+00 0.  1.
<mgrwt>
<rscale>  2 0.25746348E+02</rscale>
<asrwt>0</asrwt>
<pdfrwt beam="1">  1       21 0.31152449E-03 0.25746348E+02</pdfrwt>
<pdfrwt beam="2">  1       21 0.72757758E-01 0.25746348E+02</pdfrwt>
<totfact> 0.31090516E+07</totfact>
</mgrwt>
</event>
<event>
 4    1  0.7595771E+004  0.2111449E+02  0.7546771E-02  0.1724032E+00
         21   -1    0    0  503  502  0.00000000000E+00  0.00000000000E+00  0.90782379185E+02  0.90782379185E+02  0.00000000000E+00 0. -1.
         21   -1    0    0  501  503 -0.00000000000E+00 -0.00000000000E+00 -0.49214680846E+01  0.49214680846E+01  0.00000000000E+00 0. -1.
          1    1    1    2  501    0 -0.10653729339E+02 -0.18229643214E+02  0.40711469826E+02  0.45861155851E+02  0.00000000000E+00 0.  1.
         -1    1    1    2    0  502  0.10653729339E+02  0.18229643214E+02  0.45149441273E+02  0.49842691418E+02  0.00000000000E+00 0. -1.
<mgrwt>
<rscale>  2 0.21114494E+02</rscale>
<asrwt>0</asrwt>
<pdfrwt beam="1">  1       21 0.13966519E-01 0.21114494E+02</pdfrwt>
<pdfrwt beam="2">  1       21 0.75714900E-03 0.21114494E+02</pdfrwt>
<totfact> 0.16863891E+08</totfact>
</mgrwt>
</event>
<event>
 4    1  0.7595771E+004  0.2764939E+02  0.7546771E-02  0.1625626E+00
         21   -1    0    0  501  502  0.00000000000E+00  0.00000000000E+00  0.15691974834E+02  0.15691974834E+02  0.00000000000E+00 0. -1.
         21   -1    0    0  502  503 -0.00000000000E+00 -0.00000000000E+00 -0.53018849888E+02  0.53018849888E+02  0.00000000000E+00 0. -1.
          2    1    1    2  501    0 -0.26868593324E+02 -0.65243715806E+01 -0.88790351304E+01  0.29040075699E+02  0.00000000000E+00 0.  1.
         -2    1    1    2    0  503  0.26868593324E+02  0.65243715806E+01 -0.28447839924E+02  0.39670749023E+02  0.00000000000E+00 0. -1.
<mgrwt>
<rscale>  2 0.27649389E+02</rscale>
<asrwt>0</asrwt>
<pdfrwt beam="1">  1       21 0.24141500E-02 0.27649389E+02</pdfrwt>
<pdfrwt beam="2">  1       21 0.81567462E-02 0.27649389E+02</pdfrwt>
<totfact> 0.76505660E+07</totfact>
</mgrwt>
</event>
<event>
 4    1  0.7595771E+004  0.6580707E+02  0.7546771E-02  0.1374961E+00
         21   -1    0    0  501  502  0.00000000000E+00  0.00000000000E+00  0.27959161499E+02  0.27959161499E+02  0.00000000000E+00 0. -1.
         21   -1    0    0  502  503 -0.00000000000E+00 -0.00000000000E+00 -0.15490393763E+03  0.15490393763E+03  0.00000000000E+00 0. -1.
          4    1    1    2  501    0 -0.65795375385E+02 -0.12405263224E+01 -0.64366188684E+02  0.92052031881E+02  0.00000000000E+00 0.  1.
         -4    1    1    2    0  503  0.65795375385E+02  0.12405263224E+01 -0.62578587443E+02  0.90811067244E+02  0.00000000000E+00 0. -1.
<mgrwt>
<rscale>  2 0.65807069E+02</rscale>
<asrwt>0</asrwt>
<pdfrwt beam="1">  1       21 0.43014095E-02 0.65807069E+02</pdfrwt>
<pdfrwt beam="2">  1       21 0.23831375E-01 0.65807069E+02</pdfrwt>
<totfact> 0.54205938E+06</totfact>
</mgrwt>
</event>
<event>
 4    1  0.7595771E+004  0.2028506E+02  0.7546771E-02  0.1739718E+00
         21   -1    0    0  501  502  0.00000000000E+00  0.00000000000E+00  0.54318758104E+02  0.54318758104E+02  0.00000000000E+00 0. -1.
         21   -1    0    0  502  503 -0.00000000000E+00 -0.00000000000E+00 -0.75789228962E+01  0.75789228962E+01  0.00000000000E+00 0. -1.
          2    1    1    2  501    0  0.23526353617E+01  0.20148173917E+02  0.22698294438E+02  0.30441688123E+02  0.00000000000E+00 0.  1.
         -2    1    1    2    0  503 -0.23526353617E+01 -0.20148173917E+02  0.24041540770E+02  0.31455992878E+02  0.00000000000E+00 0. -1.
<mgrwt>
<rscale>  2 0.20285064E+02</rscale>
<asrwt>0</asrwt>
<pdfrwt beam="1">  1       21 0.83567317E-02 0.20285064E+02</pdfrwt>
<pdfrwt beam="2">  1       21 0.11659882E-02 0.20285064E+02</pdfrwt>
<totfact> 0.20451491E+08</totfact>
</mgrwt>
</event>
<event>
 4    1  0.7595771E+004  0.3745159E+02  0.7546771E-02  0.1527849E+00
         21   -1    0    0  503  502  0.00000000000E+00  0.00000000000E+00  0.44613082983E+02  0.44613082983E+02  0.00000000000E+00 0.  1.
         21   -1    0    0  501  503 -0.00000000000E+00 -0.00000000000E+00 -0.32444015463E+02  0.32444015463E+02  0.00000000000E+00 0.  1.
          4    1    1    2  501    0  0.36977636370E+02  0.59393680071E+01  0.12863316217E+02  0.39599073069E+02  0.00000000000E+00 0.  1.
         -4    1    1    2    0  502 -0.36977636370E+02 -0.59393680071E+01 -0.69424869686E+00  0.37458025376E+02  0.00000000000E+00 0. -1.
<mgrwt>
<rscale>  2 0.37451591E+02</rscale>
<asrwt>0</asrwt>
<pdfrwt beam="1">  1       21 0.68635513E-02 0.37451591E+02</pdfrwt>
<pdfrwt beam="2">  1       21 0.49913870E-02 0.37451591E+02</pdfrwt>
<totfact> 0.34286025E+07</totfact>
</mgrwt>
</event>
<event>
 4    1  0.7595771E+004  0.2138825E+02  0.7546771E-02  0.1719052E+00
         21   -1    0    0  501  502  0.00000000000E+00  0.00000000000E+00  0.29420029289E+02  0.29420029289E+02  0.00000000000E+00 0. -1.
         21   -1    0    0  502  503 -0.00000000000E+00 -0.00000000000E+00 -0.15789676628E+02  0.15789676628E+02  0.00000000000E+00 0. -1.
          1    1    1    2  501    0 -0.68582667149E+01  0.20258857715E+02  0.40253608515E+01  0.21763746650E+02  0.00000000000E+00 0. -1.
         -1    1    1    2    0  503  0.68582667149E+01 -0.20258857715E+02  0.96049918096E+01  0.23445959266E+02  0.00000000000E+00 0.  1.
<mgrwt>
<rscale>  2 0.21388248E+02</rscale>
<asrwt>0</asrwt>
<pdfrwt beam="1">  1       21 0.45261584E-02 0.21388248E+02</pdfrwt>
<pdfrwt beam="2">  1       21 0.24291810E-02 0.21388248E+02</pdfrwt>
<totfact> 0.18204066E+08</totfact>
</mgrwt>
</event>
<event>
 4    1  0.7595771E+004  0.2289598E+02  0.7546771E-02  0.1693202E+00
         21   -1    0    0  501  502  0.00000000000E+00  0.00000000000E+00  0.19027135923E+03  0.19027135923E+03  0.00000000000E+00 0.  1.
         21   -1    0    0  502  503 -0.00000000000E+00 -0.00000000000E+00 -0.28068529609E+01  0.28068529609E+01  0.00000000000E+00 0.  1.
          1    1    1    2  501    0 -0.34302867465E+00  0.22893408354E+02  0.80629630702E+02  0.83817439485E+02  0.00000000000E+00 0.  1.
         -1    1    1    2    0  503  0.34302867465E+00 -0.22893408354E+02  0.10683487557E+03  0.10926077271E+03  0.00000000000E+00 0. -1.
<mgrwt>
<rscale>  2 0.22895978E+02</rscale>
<asrwt>0</asrwt>
<pdfrwt beam="1">  1       21 0.29272507E-01 0.22895978E+02</pdfrwt>
<pdfrwt beam="2">  1       21 0.43182368E-03 0.22895978E+02</pdfrwt>
<totfact> 0.10879000E+08</totfact>
</mgrwt>
</event>
<event>
 4    1  0.7595771E+004  0.2499537E+02  0.7546771E-02  0.1661068E+00
         21   -1    0    0  501  502  0.00000000000E+00  0.00000000000E+00  0.42443450002E+01  0.42443450002E+01  0.00000000000E+00 0. -1.
         21   -1    0    0  502  503 -0.00000000000E+00 -0.00000000000E+00 -0.20771316497E+03  0.20771316497E+03  0.00000000000E+00 0. -1.
          5    1    1    2  501    0 -0.39142124091E+01 -0.24686985241E+02 -0.44532420857E+02  0.51067649313E+02  0.00000000000E+00 0.  1.
         -5    1    1    2    0  503  0.39142124091E+01  0.24686985241E+02 -0.15893639911E+03  0.16088986065E+03  0.00000000000E+00 0. -1.
<mgrwt>
<rscale>  2 0.24995366E+02</rscale>
<asrwt>0</asrwt>
<pdfrwt beam="1">  1       21 0.65297613E-03 0.24995366E+02</pdfrwt>
<pdfrwt beam="2">  1       21 0.31955873E-01 0.24995366E+02</pdfrwt>
<totfact> 0.51409567E+07</totfact>
</mgrwt>
</event>
<event>
 4    1  0.7595771E+004  0.2419143E+02  0.7546771E-02  0.1672895E+00
         21   -1    0    0  501  502  0.00000000000E+00  0.00000000000E+00  0.12556088910E+02  0.12556088910E+02  0.00000000000E+00 0.  1.
         21   -1    0    0  502  503 -0.00000000000E+00 -0.00000000000E+00 -0.85000879711E+02  0.85000879711E+02  0.00000000000E+00 0.  1.
          1    1    1    2  501    0  0.24146232885E+02 -0.14780001795E+01 -0.69004516139E+02  0.73122146403E+02  0.00000000000E+00 0.  1.
         -1    1    1    2    0  503 -0.24146232885E+02  0.14780001795E+01 -0.34402746622E+01  0.24434822218E+02  0.00000000000E+00 0. -1.
<mgrwt>
<rscale>  2 0.24191425E+02</rscale>
<asrwt>0</asrwt>
<pdfrwt beam="1">  1       21 0.19317060E-02 0.24191425E+02</pdfrwt>
<pdfrwt beam="2">  1       21 0.13077058E-01 0.24191425E+02</pdfrwt>
<totfact> 0.47599529E+07</totfact>
</mgrwt>
</event>
<event>
 4    1  0.7595771E+004  0.2248347E+02  0.7546771E-02  0.1700022E+00
         21   -1    0    0  503  502  0.00000000000E+00  0.00000000000E+00  0.66854579800E+01  0.66854579800E+01  0.00000000000E+00 0.  1.
         21   -1    0    0  501  503 -0.00000000000E+00 -0.00000000000E+00 -0.10923630752E+03  0.10923630752E+03  0.00000000000E+00 0.  1.
          3    1    1    2  501    0  0.71558848961E+01  0.21314313244E+02 -0.19118643772E+02  0.29513203442E+02  0.00000000000E+00 0.  1.
         -3    1    1    2    0  502 -0.71558848961E+01 -0.21314313244E+02 -0.83432205766E+02  0.86408562056E+02  0.00000000000E+00 0. -1.
<mgrwt>
<rscale>  2 0.22483475E+02</rscale>
<asrwt>0</asrwt>
<pdfrwt beam="1">  1       21 0.10285320E-02 0.22483475E+02</pdfrwt>
<pdfrwt beam="2">  1       21 0.16805585E-01 0.22483475E+02</pdfrwt>
<totfact> 0.79314449E+07</totfact>
</mgrwt>
</event>
<event>
 4    1  0.7595771E+004  0.2185907E+02  0.7546771E-02  0.1710701E+00
         21   -1    0    0  501  502  0.00000000000E+00  0.00000000000E+00  0.64287023000E+01  0.64287023000E+01  0.00000000000E+00 0. -1.
         21   -1    0    0  502  503 -0.00000000000E+00 -0.00000000000E+00 -0.75590344163E+02  0.75590344163E+02  0.00000000000E+00 0. -1.
          2    1    1    2  501    0 -0.92012546940E+01 -0.19828156762E+02 -0.29276783055E+02  0.36536952727E+02  0.00000000000E+00 0.  1.
         -2    1    1    2    0  503  0.92012546940E+01  0.19828156762E+02 -0.39884858807E+02  0.45482093736E+02  0.00000000000E+00 0. -1.
<mgrwt>
<rscale>  2 0.21859069E+02</rscale>
<asrwt>0</asrwt>
<pdfrwt beam="1">  1       21 0.98903108E-03 0.21859069E+02</pdfrwt>
<pdfrwt beam="2">  1       21 0.11629284E-01 0.21859069E+02</pdfrwt>
<totfact> 0.15550971E+08</totfact>
</mgrwt>
</event>
<event>
 4    1  0.7595771E+004  0.2026747E+02  0.7546771E-02  0.1740061E+00
         21   -1    0    0  503  502  0.00000000000E+00  0.00000000000E+00  0.16790425444E+02  0.16790425444E+02  0.00000000000E+00 0.  1.
         21   -1    0    0  501  503 -0.00000000000E+00 -0.00000000000E+00 -0.71817572859E+02  0.71817572859E+02  0.00000000000E+00 0.  1.
          4    1    1    2  501    0 -0.10665847537E+02  0.17233983096E+02  0.84614714228E+01  0.21962854452E+02  0.00000000000E+00 0. -1.
         -4    1    1    2    0  502  0.10665847537E+02 -0.17233983096E+02 -0.63488618838E+02  0.66645143852E+02  0.00000000000E+00 0.  1.
<mgrwt>
<rscale>  2 0.20267473E+02</rscale>
<asrwt>0</asrwt>
<pdfrwt beam="1">  1       21 0.25831424E-02 0.20267473E+02</pdfrwt>
<pdfrwt beam="2">  1       21 0.11048857E-01 0.20267473E+02</pdfrwt>
<totfact> 0.38579527E+07</totfact>
</mgrwt>
</event>
<event>
 4    1  0.7595771E+004  0.3538908E+02  0.7546771E-02  0.1545172E+00
         21   -1    0    0  501  502  0.00000000000E+00  0.00000000000E+00  0.47873358645E+01  0.47873358645E+01  0.00000000000E+00 0.  1.
         21   -1    0    0  502  503 -0.00000000000E+00 -0.00000000000E+00 -0.26495287049E+03  0.26495287049E+03  0.00000000000E+00 0.  1.
          2    1    1    2  501    0 -0.56038727190E+01 -0.34942574851E+02 -0.14524526909E+03  0.14949439829E+03  0.00000000000E+00 0.  1.
         -2    1    1    2    0  503  0.56038727190E+01  0.34942574851E+02 -0.11492026553E+03  0.12024580807E+03  0.00000000000E+00 0. -1.
<mgrwt>
<rscale>  2 0.35389079E+02</rscale>
<asrwt>0</asrwt>
<pdfrwt beam="1">  1       21 0.73651308E-03 0.35389079E+02</pdfrwt>
<pdfrwt beam="2">  1       21 0.40761987E-01 0.35389079E+02</pdfrwt>
<totfact> 0.29125384E+07</totfact>
</mgrwt>
</event>
<event>
 4    1  0.7595771E+004  0.3050671E+02  0.7546771E-02  0.1592554E+00
         21   -1    0    0  501  502  0.00000000000E+00  0.00000000000E+00  0.39861039724E+01  0.39861039724E+01  0.00000000000E+00 0. -1.
         21   -1    0    0  502  503 -0.00000000000E+00 -0.00000000000E+00 -0.24237997892E+03  0.24237997892E+03  0.00000000000E+00 0. -1.
          5    1    1    2  501    0  0.16247472667E+02  0.25820123172E+02 -0.14280702320E+03  0.14602912382E+03  0.00000000000E+00 0.  1.
         -5    1    1    2    0  503 -0.16247472667E+02 -0.25820123172E+02 -0.95586851746E+02  0.10033695907E+03  0.00000000000E+00 0. -1.
<mgrwt>
<rscale>  2 0.30506706E+02</rscale>
<asrwt>0</asrwt>
<pdfrwt beam="1">  1       21 0.61324675E-03 0.30506706E+02</pdfrwt>
<pdfrwt beam="2">  1       21 0.37289229E-01 0.30506706E+02</pdfrwt>
<totfact> 0.44209085E+07</totfact>
</mgrwt>
</event>
<event>
 4    1  0.7595771E+004  0.3473529E+02  0.7546771E-02  0.1550964E+00
         21   -1    0    0  501  502  0.00000000000E+00  0.00000000000E+00  0.83486967203E+03  0.83486967203E+03  0.00000000000E+00 0.  1.
         21   -1    0    0  502  503 -0.00000000000E+00 -0.00000000000E+00 -0.18402988080E+01  0.18402988080E+01  0.00000000000E+00 0.  1.
          2    1    1    2  501    0  0.19553605946E+02  0.28708831727E+02  0.61036311145E+03  0.61135069178E+03  0.00000000000E+00 0. -1.
         -2    1    1    2    0  503 -0.19553605946E+02 -0.28708831727E+02  0.22266626177E+03  0.22535927905E+03  0.00000000000E+00 0.  1.
<mgrwt>
<rscale>  2 0.34735292E+02</rscale>
<asrwt>0</asrwt>
<pdfrwt beam="1">  1       21 0.12844119E+00 0.34735292E+02</pdfrwt>
<pdfrwt beam="2">  1       21 0.28312356E-03 0.34735292E+02</pdfrwt>
<totfact> 0.10728755E+07</totfact>
</mgrwt>
</event>
<event>
 4    1  0.7595771E+004  0.2692810E+02  0.7546771E-02  0.1634759E+00
         21   -1    0    0  503  502  0.00000000000E+00  0.00000000000E+00  0.11111827549E+03  0.11111827549E+03  0.00000000000E+00 0.  1.
         21   -1    0    0  501  503 -0.00000000000E+00 -0.00000000000E+00 -0.71346499315E+01  0.71346499315E+01  0.00000000000E+00 0.  1.
          4    1    1    2  501    0 -0.11622737540E+02  0.24290624096E+02  0.34717807725E+02  0.43936870850E+02  0.00000000000E+00 0.  1.
         -4    1    1    2    0  502  0.11622737540E+02 -0.24290624096E+02  0.69265817834E+02  0.74316054572E+02  0.00000000000E+00 0. -1.
<mgrwt>
<rscale>  2 0.26928098E+02</rscale>
<asrwt>0</asrwt>
<pdfrwt beam="1">  1       21 0.17095118E-01 0.26928098E+02</pdfrwt>
<pdfrwt beam="2">  1       21 0.10976385E-02 0.26928098E+02</pdfrwt>
<totfact> 0.73131058E+07</totfact>
</mgrwt>
</event>
<event>
 4    1  0.7595771E+004  0.2492639E+02  0.7546771E-02  0.1662061E+00
         21   -1    0    0  503  502  0.00000000000E+00  0.00000000000E+00  0.67498850570E+02  0.67498850570E+02  0.00000000000E+00 0.  1.
         21   -1    0    0  501  503 -0.00000000000E+00 -0.00000000000E+00 -0.14250736799E+02  0.14250736799E+02  0.00000000000E+00 0.  1.
          2    1    1    2  501    0  0.19406232933E+02  0.15643623521E+02  0.50946127237E+02  0.56717128929E+02  0.00000000000E+00 0. -1.
         -2    1    1    2    0  502 -0.19406232933E+02 -0.15643623521E+02  0.23019865334E+01  0.25032458439E+02  0.00000000000E+00 0.  1.
<mgrwt>
<rscale>  2 0.24926388E+02</rscale>
<asrwt>0</asrwt>
<pdfrwt beam="1">  1       21 0.10384438E-01 0.24926388E+02</pdfrwt>
<pdfrwt beam="2">  1       21 0.21924211E-02 0.24926388E+02</pdfrwt>
<totfact> 0.58065616E+07</totfact>
</mgrwt>
</event>
<event>
 4    1  0.7595771E+004  0.2109155E+02  0.7546771E-02  0.1724454E+00
         21   -1    0    0  503  502  0.00000000000E+00  0.00000000000E+00  0.18941342108E+04  0.18941342108E+04  0.00000000000E+00 0. -1.
         21   -1    0    0  501  503 -0.00000000000E+00 -0.00000000000E+00 -0.35202217684E+00  0.35202217684E+00  0.00000000000E+00 0. -1.
          2    1    1    2  501    0 -0.37329261596E+01  0.20758579228E+02  0.14933696300E+04  0.14935185654E+04  0.00000000000E+00 0.  1.
         -2    1    1    2    0  502  0.37329261596E+01 -0.20758579228E+02  0.40041255861E+03  0.40096766758E+03  0.00000000000E+00 0. -1.
<mgrwt>
<rscale>  2 0.21091547E+02</rscale>
<asrwt>0</asrwt>
<pdfrwt beam="1">  1       21 0.29139710E+00 0.21091547E+02</pdfrwt>
<pdfrwt beam="2">  1       21 0.54158775E-04 0.21091547E+02</pdfrwt>
<totfact> 0.12690143E+07</totfact>
</mgrwt>
</event>
<event>
 4    1  0.7595771E+004  0.2489036E+02  0.7546771E-02  0.1662582E+00
         21   -1    0    0  501  502  0.00000000000E+00  0.00000000000E+00  0.29978881982E+03  0.29978881982E+03  0.00000000000E+00 0.  1.
         21   -1    0    0  502  503 -0.00000000000E+00 -0.00000000000E+00 -0.20705682728E+01  0.20705682728E+01  0.00000000000E+00 0.  1.
          1    1    1    2  501    0 -0.24546527133E+02  0.41228940231E+01  0.14221482179E+03  0.14437654167E+03  0.00000000000E+00 0. -1.
         -1    1    1    2    0  503  0.24546527133E+02 -0.41228940231E+01  0.15550342976E+03  0.15748284642E+03  0.00000000000E+00 0.  1.
<mgrwt>
<rscale>  2 0.24890365E+02</rscale>
<asrwt>0</asrwt>
<pdfrwt beam="1">  1       21 0.46121323E-01 0.24890365E+02</pdfrwt>
<pdfrwt beam="2">  1       21 0.31854920E-03 0.24890365E+02</pdfrwt>
<totfact> 0.74266158E+07</totfact>
</mgrwt>
</event>
<event>
 4    1  0.7595771E+004  0.2304654E+02  0.7546771E-02  0.1690757E+00
         21   -1    0    0  503  502  0.00000000000E+00  0.00000000000E+00  0.24898919010E+02  0.24898919010E+02  0.00000000000E+00 0.  1.
         21   -1    0    0  501  503 -0.00000000000E+00 -0.00000000000E+00 -0.23076481574E+02  0.23076481574E+02  0.00000000000E+00 0.  1.
          4    1    1    2  501    0 -0.34807183813E+01  0.22782179496E+02  0.75066043905E+01  0.24238238643E+02  0.00000000000E+00 0. -1.
         -4    1    1    2    0  502  0.34807183813E+01 -0.22782179496E+02 -0.56841669554E+01  0.23737161941E+02  0.00000000000E+00 0.  1.
<mgrwt>
<rscale>  2 0.23046542E+02</rscale>
<asrwt>0</asrwt>
<pdfrwt beam="1">  1       21 0.38306029E-02 0.23046542E+02</pdfrwt>
<pdfrwt beam="2">  1       21 0.35502279E-02 0.23046542E+02</pdfrwt>
<totfact> 0.13437305E+08</totfact>
</mgrwt>
</event>
<event>
 4    1  0.7595771E+004  0.2807923E+02  0.7546771E-02  0.1620345E+00
         21   -1    0    0  501  502  0.00000000000E+00  0.00000000000E+00  0.30001704478E+01  0.30001704478E+01  0.00000000000E+00 0. -1.
         21   -1    0    0  502  503 -0.00000000000E+00 -0.00000000000E+00 -0.52636971408E+03  0.52636971408E+03  0.00000000000E+00 0. -1.
          3    1    1    2  501    0 -0.16905861078E+02  0.22419523070E+02 -0.74387266943E+02  0.79510430993E+02  0.00000000000E+00 0. -1.
         -3    1    1    2    0  503  0.16905861078E+02 -0.22419523070E+02 -0.44898227669E+03  0.44985945354E+03  0.00000000000E+00 0.  1.
<mgrwt>
<rscale>  2 0.28079230E+02</rscale>
<asrwt>0</asrwt>
<pdfrwt beam="1">  1       21 0.46156500E-03 0.28079230E+02</pdfrwt>
<pdfrwt beam="2">  1       21 0.80979900E-01 0.28079230E+02</pdfrwt>
<totfact> 0.14138086E+07</totfact>
</mgrwt>
</event>
<event>
 4    1  0.7595771E+004  0.2121139E+02  0.7546771E-02  0.1722258E+00
         21   -1    0    0  501  502  0.00000000000E+00  0.00000000000E+00  0.41441154279E+01  0.41441154279E+01  0.00000000000E+00 0. -1.
         21   -1    0    0  502  503 -0.00000000000E+00 -0.00000000000E+00 -0.11117270308E+03  0.11117270308E+03  0.00000000000E+00 0. -1.
          3    1    1    2  501    0 -0.17020681229E+02  0.12657790116E+02 -0.62337852160E+02  0.65847786994E+02  0.00000000000E+00 0. -1.
         -3    1    1    2    0  503  0.17020681229E+02 -0.12657790116E+02 -0.44690735497E+02  0.49469031518E+02  0.00000000000E+00 0.  1.
<mgrwt>
<rscale>  2 0.21211394E+02</rscale>
<asrwt>0</asrwt>
<pdfrwt beam="1">  1       21 0.63755632E-03 0.21211394E+02</pdfrwt>
<pdfrwt beam="2">  1       21 0.17103490E-01 0.21211394E+02</pdfrwt>
<totfact> 0.15439349E+08</totfact>
</mgrwt>
</event>
<event>
 4    1  0.7595771E+004  0.3873001E+02  0.7546771E-02  0.1517771E+00
         21   -1    0    0  503  502  0.00000000000E+00  0.00000000000E+00  0.40837494948E+02  0.40837494948E+02  0.00000000000E+00 0. -1.
         21   -1    0    0  501  503 -0.00000000000E+00 -0.00000000000E+00 -0.36862894373E+02  0.36862894373E+02  0.00000000000E+00 0. -1.
          4    1    1    2  501    0  0.21707070863E+02  0.32075172589E+02  0.43086664719E+01  0.38968939283E+02  0.00000000000E+00 0.  1.
         -4    1    1    2    0  502 -0.21707070863E+02 -0.32075172589E+02 -0.33406589693E+00  0.38731450039E+02  0.00000000000E+00 0. -1.
<mgrwt>
<rscale>  2 0.38730009E+02</rscale>
<asrwt>0</asrwt>
<pdfrwt beam="1">  1       21 0.62826915E-02 0.38730009E+02</pdfrwt>
<pdfrwt beam="2">  1       21 0.56712145E-02 0.38730009E+02</pdfrwt>
<totfact> 0.32412458E+07</totfact>
</mgrwt>
</event>
<event>
 4    1  0.7595771E+004  0.3275671E+02  0.7546771E-02  0.1569474E+00
         21   -1    0    0  501  502  0.00000000000E+00  0.00000000000E+00  0.12160511179E+01  0.12160511179E+01  0.00000000000E+00 0.  1.
         21   -1    0    0  502  503 -0.00000000000E+00 -0.00000000000E+00 -0.11169842379E+04  0.11169842379E+04  0.00000000000E+00 0.  1.
          4    1    1    2  501    0 -0.27100646123E+02  0.18399915031E+02 -0.30164394927E+03  0.30341732650E+03  0.00000000000E+00 0.  1.
         -4    1    1    2    0  503  0.27100646123E+02 -0.18399915031E+02 -0.81412423749E+03  0.81478296248E+03  0.00000000000E+00 0. -1.
<mgrwt>
<rscale>  2 0.32756708E+02</rscale>
<asrwt>0</asrwt>
<pdfrwt beam="1">  1       21 0.18708439E-03 0.32756708E+02</pdfrwt>
<pdfrwt beam="2">  1       21 0.17184409E+00 0.32756708E+02</pdfrwt>
<totfact> 0.96648461E+06</totfact>
</mgrwt>
</event>
<event>
 4    1  0.7595771E+004  0.3047176E+02  0.7546771E-02  0.1592932E+00
         21   -1    0    0  503  502  0.00000000000E+00  0.00000000000E+00  0.14610548736E+03  0.14610548736E+03  0.00000000000E+00 0. -1.
         21   -1    0    0  501  503 -0.00000000000E+00 -0.00000000000E+00 -0.65437291069E+01  0.65437291069E+01  0.00000000000E+00 0. -1.
          4    1    1    2  501    0 -0.19088765368E+02  0.23751786086E+02  0.82736292775E+02  0.88169282904E+02  0.00000000000E+00 0.  1.
         -4    1    1    2    0  502  0.19088765368E+02 -0.23751786086E+02  0.56825465478E+02  0.64479933563E+02  0.00000000000E+00 0. -1.
<mgrwt>
<rscale>  2 0.30471762E+02</rscale>
<asrwt>0</asrwt>
<pdfrwt beam="1">  1       21 0.22477765E-01 0.30471762E+02</pdfrwt>
<pdfrwt beam="2">  1       21 0.10067277E-02 0.30471762E+02</pdfrwt>
<totfact> 0.53010080E+07</totfact>
</mgrwt>
</event>
<event>
 4    1  0.7595771E+004  0.2871964E+02  0.7546771E-02  0.1612688E+00
         21   -1    0    0  501  502  0.00000000000E+00  0.00000000000E+00  0.15244553027E+02  0.15244553027E+02  0.00000000000E+00 0. -1.
         21   -1    0    0  502  503 -0.00000000000E+00 -0.00000000000E+00 -0.64864024954E+02  0.64864024954E+02  0.00000000000E+00 0. -1.
          5    1    1    2  501    0  0.20538969492E+02  0.20074071431E+02 -0.41122174215E+02  0.50158257782E+02  0.00000000000E+00 0. -1.
         -5    1    1    2    0  503 -0.20538969492E+02 -0.20074071431E+02 -0.84972977123E+01  0.29950320199E+02  0.00000000000E+00 0.  1.
<mgrwt>
<rscale>  2 0.28719638E+02</rscale>
<asrwt>0</asrwt>
<pdfrwt beam="1">  1       21 0.23453158E-02 0.28719638E+02</pdfrwt>
<pdfrwt beam="2">  1       21 0.99790808E-02 0.28719638E+02</pdfrwt>
<totfact> 0.57828978E+07</totfact>
</mgrwt>
</event>
<event>
 4    1  0.7595771E+004  0.2170965E+02  0.7546771E-02  0.1713322E+00
         21   -1    0    0  503  502  0.00000000000E+00  0.00000000000E+00  0.88973800344E+01  0.88973800344E+01  0.00000000000E+00 0. -1.
         21   -1    0    0  501  503 -0.00000000000E+00 -0.00000000000E+00 -0.53168027204E+02  0.53168027204E+02  0.00000000000E+00 0. -1.
          5    1    1    2  501    0 -0.63097298461E+01 -0.20772484605E+02 -0.20249280870E+02  0.29687407821E+02  0.00000000000E+00 0.  1.
         -5    1    1    2    0  502  0.63097298461E+01  0.20772484605E+02 -0.24021366300E+02  0.32377999418E+02  0.00000000000E+00 0. -1.
<mgrwt>
<rscale>  2 0.21709648E+02</rscale>
<asrwt>0</asrwt>
<pdfrwt beam="1">  1       21 0.13688277E-02 0.21709648E+02</pdfrwt>
<pdfrwt beam="2">  1       21 0.81796965E-02 0.21709648E+02</pdfrwt>
<totfact> 0.16990034E+08</totfact>
</mgrwt>
</event>
<event>
 4    1  0.7595771E+004  0.4122271E+02  0.7546771E-02  0.1499402E+00
         21   -1    0    0  501  502  0.00000000000E+00  0.00000000000E+00  0.17335853431E+01  0.17335853431E+01  0.00000000000E+00 0.  1.
         21   -1    0    0  502  503 -0.00000000000E+00 -0.00000000000E+00 -0.98457468827E+03  0.98457468827E+03  0.00000000000E+00 0.  1.
          1    1    1    2  501    0  0.37664369628E+02 -0.16754318383E+02 -0.52418103127E+03  0.52579945366E+03  0.00000000000E+00 0.  1.
         -1    1    1    2    0  503 -0.37664369628E+02  0.16754318383E+02 -0.45866007166E+03  0.46050881995E+03  0.00000000000E+00 0. -1.
<mgrwt>
<rscale>  2 0.41222711E+02</rscale>
<asrwt>0</asrwt>
<pdfrwt beam="1">  1       21 0.26670534E-03 0.41222711E+02</pdfrwt>
<pdfrwt beam="2">  1       21 0.15147308E+00 0.41222711E+02</pdfrwt>
<totfact> 0.80260965E+06</totfact>
</mgrwt>
</event>
<event>
 4    1  0.7595771E+004  0.2035511E+02  0.7546771E-02  0.1738357E+00
         21   -1    0    0  501  502  0.00000000000E+00  0.00000000000E+00  0.26582115742E+03  0.26582115742E+03  0.00000000000E+00 0. -1.
         21   -1    0    0  502  503 -0.00000000000E+00 -0.00000000000E+00 -0.16446948954E+01  0.16446948954E+01  0.00000000000E+00 0. -1.
          5    1    1    2  501    0 -0.39469633448E-01  0.20355072435E+02  0.10150533485E+03  0.10352614904E+03  0.00000000000E+00 0. -1.
         -5    1    1    2    0  503  0.39469633448E-01 -0.20355072435E+02  0.16267112767E+03  0.16393970327E+03  0.00000000000E+00 0.  1.
<mgrwt>
<rscale>  2 0.20355111E+02</rscale>
<asrwt>0</asrwt>
<pdfrwt beam="1">  1       21 0.40895529E-01 0.20355111E+02</pdfrwt>
<pdfrwt beam="2">  1       21 0.25303019E-03 0.20355111E+02</pdfrwt>
<totfact> 0.12380848E+08</totfact>
</mgrwt>
</event>
<event>
 4    1  0.7595771E+004  0.3707448E+02  0.7546771E-02  0.1530914E+00
         21   -1    0    0  503  502  0.00000000000E+00  0.00000000000E+00  0.22616807394E+03  0.22616807394E+03  0.00000000000E+00 0. -1.
         21   -1    0    0  501  503 -0.00000000000E+00 -0.00000000000E+00 -0.75412661537E+01  0.75412661537E+01  0.00000000000E+00 0. -1.
          2    1    1    2  501    0  0.24134864338E+02  0.28142950451E+02  0.16079741067E+03  0.16501613441E+03  0.00000000000E+00 0. -1.
         -2    1    1    2    0  502 -0.24134864338E+02 -0.28142950451E+02  0.57829397121E+02  0.68693205691E+02  0.00000000000E+00 0.  1.
<mgrwt>
<rscale>  2 0.37074484E+02</rscale>
<asrwt>0</asrwt>
<pdfrwt beam="1">  1       21 0.34795083E-01 0.37074484E+02</pdfrwt>
<pdfrwt beam="2">  1       21 0.11601950E-02 0.37074484E+02</pdfrwt>
<totfact> 0.19870650E+07</totfact>
</mgrwt>
</event>
<event>
 4    1  0.7595771E+004  0.2299334E+02  0.7546771E-02  0.1691618E+00
         21   -1    0    0  501  502  0.00000000000E+00  0.00000000000E+00  0.59044455757E+01  0.59044455757E+01  0.00000000000E+00 0.  1.
         21   -1    0    0  502  503 -0.00000000000E+00 -0.00000000000E+00 -0.96599858835E+02  0.96599858835E+02  0.00000000000E+00 0.  1.
          3    1    1    2  501    0  0.97835690693E+01 -0.20808064906E+02 -0.31493834749E+02  0.38994299790E+02  0.00000000000E+00 0. -1.
         -3    1    1    2    0  503 -0.97835690693E+01  0.20808064906E+02 -0.59201578510E+02  0.63510004621E+02  0.00000000000E+00 0.  1.
<mgrwt>
<rscale>  2 0.22993342E+02</rscale>
<asrwt>0</asrwt>
<pdfrwt beam="1">  1       21 0.90837627E-03 0.22993342E+02</pdfrwt>
<pdfrwt beam="2">  1       21 0.14861516E-01 0.22993342E+02</pdfrwt>
<totfact> 0.11864053E+08</totfact>
</mgrwt>
</event>
<event>
 4    1  0.7595771E+004  0.2541316E+02  0.7546771E-02  0.1655137E+00
         21   -1    0    0  503  502  0.00000000000E+00  0.00000000000E+00  0.40280921667E+02  0.40280921667E+02  0.00000000000E+00 0. -1.
         21   -1    0    0  501  503 -0.00000000000E+00 -0.00000000000E+00 -0.17260686194E+02  0.17260686194E+02  0.00000000000E+00 0. -1.
          2    1    1    2  501    0 -0.67199741343E+01  0.24508587698E+02  0.38374726352E+01  0.25701266886E+02  0.00000000000E+00 0. -1.
         -2    1    1    2    0  502  0.67199741343E+01 -0.24508587698E+02  0.19182762838E+02  0.31840340975E+02  0.00000000000E+00 0.  1.
<mgrwt>
<rscale>  2 0.25413164E+02</rscale>
<asrwt>0</asrwt>
<pdfrwt beam="1">  1       21 0.61970648E-02 0.25413164E+02</pdfrwt>
<pdfrwt beam="2">  1       21 0.26554902E-02 0.25413164E+02</pdfrwt>
<totfact> 0.10102618E+08</totfact>
</mgrwt>
</event>
<event>
 4    1  0.7595771E+004  0.2995445E+02  0.7546771E-02  0.1598593E+00
         21   -1    0    0  503  502  0.00000000000E+00  0.00000000000E+00  0.14288415526E+04  0.14288415526E+04  0.00000000000E+00 0.  1.
         21   -1    0    0  501  503 -0.00000000000E+00 -0.00000000000E+00 -0.64716237817E+00  0.64716237817E+00  0.00000000000E+00 0.  1.
          2    1    1    2  501    0 -0.28341110485E+02  0.96979763916E+01  0.83718391384E+03  0.83771962785E+03  0.00000000000E+00 0. -1.
         -2    1    1    2    0  502  0.28341110485E+02 -0.96979763916E+01  0.59101047642E+03  0.59176908716E+03  0.00000000000E+00 0.  1.
<mgrwt>
<rscale>  2 0.29954454E+02</rscale>
<asrwt>0</asrwt>
<pdfrwt beam="1">  1       21 0.21981925E+00 0.29954454E+02</pdfrwt>
<pdfrwt beam="2">  1       21 0.99564586E-04 0.29954454E+02</pdfrwt>
<totfact> 0.12526050E+07</totfact>
</mgrwt>
</event>
<event>
 4    1  0.7595771E+004  0.2337265E+02  0.7546771E-02  0.1685540E+00
         21   -1    0    0  501  502  0.00000000000E+00  0.00000000000E+00  0.14425042411E+01  0.14425042411E+01  0.00000000000E+00 0. -1.
         21   -1    0    0  502  503 -0.00000000000E+00 -0.00000000000E+00 -0.55447354578E+03  0.55447354578E+03  0.00000000000E+00 0. -1.
          5    1    1    2  501    0 -0.85036215505E+01 -0.21770837735E+02 -0.12001650162E+03  0.12227118064E+03  0.00000000000E+00 0. -1.
         -5    1    1    2    0  503  0.85036215505E+01  0.21770837735E+02 -0.43301453993E+03  0.43364486938E+03  0.00000000000E+00 0.  1.
<mgrwt>
<rscale>  2 0.23372654E+02</rscale>
<asrwt>0</asrwt>
<pdfrwt beam="1">  1       21 0.22192347E-03 0.23372654E+02</pdfrwt>
<pdfrwt beam="2">  1       21 0.85303722E-01 0.23372654E+02</pdfrwt>
<totfact> 0.35774690E+07</totfact>
</mgrwt>
</event>
<event>
 4    1  0.7595771E+004  0.3195307E+02  0.7546771E-02  0.1577452E+00
         21   -1    0    0  501  502  0.00000000000E+00  0.00000000000E+00  0.63290659965E+01  0.63290659965E+01  0.00000000000E+00 0.  1.
         21   -1    0    0  502  503 -0.00000000000E+00 -0.00000000000E+00 -0.16180624504E+03  0.16180624504E+03  0.00000000000E+00 0.  1.
          1    1    1    2  501    0 -0.15927621171E+02 -0.27700355248E+02 -0.82351669221E+02  0.88333437726E+02  0.00000000000E+00 0.  1.
         -1    1    1    2    0  503  0.15927621171E+02  0.27700355248E+02 -0.73125509818E+02  0.79801873306E+02  0.00000000000E+00 0. -1.
<mgrwt>
<rscale>  2 0.31953072E+02</rscale>
<asrwt>0</asrwt>
<pdfrwt beam="1">  1       21 0.97370242E-03 0.31953072E+02</pdfrwt>
<pdfrwt beam="2">  1       21 0.24893269E-01 0.31953072E+02</pdfrwt>
<totfact> 0.46881201E+07</totfact>
</mgrwt>
</event>
<event>
 4    1  0.7595771E+004  0.2846762E+02  0.7546771E-02  0.1615672E+00
         21   -1    0    0  503  502  0.00000000000E+00  0.00000000000E+00  0.43532250440E+02  0.43532250440E+02  0.00000000000E+00 0. -1.
         21   -1    0    0  501  503 -0.00000000000E+00 -0.00000000000E+00 -0.61850413713E+02  0.61850413713E+02  0.00000000000E+00 0. -1.
          1    1    1    2  501    0 -0.14124713823E+02  0.24716353359E+02 -0.53212700361E+02  0.60348961413E+02  0.00000000000E+00 0. -1.
         -1    1    1    2    0  502  0.14124713823E+02 -0.24716353359E+02  0.34894537088E+02  0.45033702741E+02  0.00000000000E+00 0.  1.
<mgrwt>
<rscale>  2 0.28467625E+02</rscale>
<asrwt>0</asrwt>
<pdfrwt beam="1">  1       21 0.66972694E-02 0.28467625E+02</pdfrwt>
<pdfrwt beam="2">  1       21 0.95154482E-02 0.28467625E+02</pdfrwt>
<totfact> 0.11786878E+07</totfact>
</mgrwt>
</event>
<event>
 4    1  0.7595771E+004  0.2264436E+02  0.7546771E-02  0.1697341E+00
         21   -1    0    0  503  502  0.00000000000E+00  0.00000000000E+00  0.39783744528E+01  0.39783744528E+01  0.00000000000E+00 0.  1.
         21   -1    0    0  501  503 -0.00000000000E+00 -0.00000000000E+00 -0.13450915700E+03  0.13450915700E+03  0.00000000000E+00 0.  1.
          4    1    1    2  501    0  0.17082014919E+02 -0.14865121362E+02 -0.79419902736E+02  0.82585035070E+02  0.00000000000E+00 0.  1.
         -4    1    1    2    0  502 -0.17082014919E+02  0.14865121362E+02 -0.51110879807E+02  0.55902496380E+02  0.00000000000E+00 0. -1.
<mgrwt>
<rscale>  2 0.22644361E+02</rscale>
<asrwt>0</asrwt>
<pdfrwt beam="1">  1       21 0.61205760E-03 0.22644361E+02</pdfrwt>
<pdfrwt beam="2">  1       21 0.20693717E-01 0.22644361E+02</pdfrwt>
<totfact> 0.12018578E+08</totfact>
</mgrwt>
</event>
<event>
 4    1  0.7595771E+004  0.2086366E+02  0.7546771E-02  0.1728679E+00
         21   -1    0    0  503  502  0.00000000000E+00  0.00000000000E+00  0.12631116195E+04  0.12631116195E+04  0.00000000000E+00 0.  1.
         21   -1    0    0  501  503 -0.00000000000E+00 -0.00000000000E+00 -0.35305672211E+00  0.35305672211E+00  0.00000000000E+00 0.  1.
          1    1    1    2  501    0  0.16525966583E+02  0.12735183745E+02  0.72903982312E+03  0.72933830022E+03  0.00000000000E+00 0. -1.
         -1    1    1    2    0  502 -0.16525966583E+02 -0.12735183745E+02  0.53371873968E+03  0.53412637602E+03  0.00000000000E+00 0.  1.
<mgrwt>
<rscale>  2 0.20863664E+02</rscale>
<asrwt>0</asrwt>
<pdfrwt beam="1">  1       21 0.19432125E+00 0.20863664E+02</pdfrwt>
<pdfrwt beam="2">  1       21 0.54317430E-04 0.20863664E+02</pdfrwt>
<totfact> 0.39067906E+07</totfact>
</mgrwt>
</event>
<event>
 4    1  0.7595771E+004  0.2083136E+02  0.7546771E-02  0.1729283E+00
         21   -1    0    0  503  502  0.00000000000E+00  0.00000000000E+00  0.65927496486E+01  0.65927496486E+01  0.00000000000E+00 0. -1.
         21   -1    0    0  501  503 -0.00000000000E+00 -0.00000000000E+00 -0.12821689366E+03  0.12821689366E+03  0.00000000000E+00 0. -1.
          4    1    1    2  501    0 -0.15780827191E+02  0.13598205821E+02 -0.10783330958E+03  0.10982699288E+03  0.00000000000E+00 0. -1.
         -4    1    1    2    0  502  0.15780827191E+02 -0.13598205821E+02 -0.13790834425E+02  0.24982650430E+02  0.00000000000E+00 0.  1.
<mgrwt>
<rscale>  2 0.20831364E+02</rscale>
<asrwt>0</asrwt>
<pdfrwt beam="1">  1       21 0.10142693E-02 0.20831364E+02</pdfrwt>
<pdfrwt beam="2">  1       21 0.19725674E-01 0.20831364E+02</pdfrwt>
<totfact> 0.60183883E+07</totfact>
</mgrwt>
</event>
<event>
 4    1  0.7595771E+004  0.2995119E+02  0.7546771E-02  0.1598629E+00
         21   -1    0    0  501  502  0.00000000000E+00  0.00000000000E+00  0.37329856897E+01  0.37329856897E+01  0.00000000000E+00 0. -1.
         21   -1    0    0  502  503 -0.00000000000E+00 -0.00000000000E+00 -0.24485104477E+03  0.24485104477E+03  0.00000000000E+00 0. -1.
          5    1    1    2  501    0 -0.29761365997E+02 -0.33666955560E+01 -0.10363229070E+03  0.10787365397E+03  0.00000000000E+00 0. -1.
         -5    1    1    2    0  503  0.29761365997E+02  0.33666955560E+01 -0.13748576838E+03  0.14071037649E+03  0.00000000000E+00 0.  1.
<mgrwt>
<rscale>  2 0.29951186E+02</rscale>
<asrwt>0</asrwt>
<pdfrwt beam="1">  1       21 0.57430543E-03 0.29951186E+02</pdfrwt>
<pdfrwt beam="2">  1       21 0.37669395E-01 0.29951186E+02</pdfrwt>
<totfact> 0.47662768E+07</totfact>
</mgrwt>
</event>
<event>
 4    1  0.7595771E+004  0.2343618E+02  0.7546771E-02  0.1684536E+00
         21   -1    0    0  501  502  0.00000000000E+00  0.00000000000E+00  0.85555192927E+00  0.85555192927E+00  0.00000000000E+00 0.  1.
         21   -1    0    0  502  503 -0.00000000000E+00 -0.00000000000E+00 -0.65066574498E+03  0.65066574498E+03  0.00000000000E+00 0.  1.
          4    1    1    2  501    0  0.14079681367E+02  0.18735455929E+02 -0.36252378584E+03  0.36328053902E+03  0.00000000000E+00 0.  1.
         -4    1    1    2    0  503 -0.14079681367E+02 -0.18735455929E+02 -0.28728640722E+03  0.28824075789E+03  0.00000000000E+00 0. -1.
<mgrwt>
<rscale>  2 0.23436184E+02</rscale>
<asrwt>0</asrwt>
<pdfrwt beam="1">  1       21 0.13162391E-03 0.23436184E+02</pdfrwt>
<pdfrwt beam="2">  1       21 0.10010202E+00 0.23436184E+02</pdfrwt>
<totfact> 0.53803044E+07</totfact>
</mgrwt>
</event>
<event>
 4    1  0.7595771E+004  0.2480041E+02  0.7546771E-02  0.1663885E+00
         21   -1    0    0  503  502  0.00000000000E+00  0.00000000000E+00  0.66271027216E+02  0.66271027216E+02  0.00000000000E+00 0. -1.
         21   -1    0    0  501  503 -0.00000000000E+00 -0.00000000000E+00 -0.96254079375E+01  0.96254079375E+01  0.00000000000E+00 0. -1.
          3    1    1    2  501    0 -0.26589979393E+01  0.24657453058E+02  0.21144383230E+02  0.32590569242E+02  0.00000000000E+00 0.  1.
         -3    1    1    2    0  502  0.26589979393E+01 -0.24657453058E+02  0.35501236049E+02  0.43305865911E+02  0.00000000000E+00 0. -1.
<mgrwt>
<rscale>  2 0.24800408E+02</rscale>
<asrwt>0</asrwt>
<pdfrwt beam="1">  1       21 0.10195542E-01 0.24800408E+02</pdfrwt>
<pdfrwt beam="2">  1       21 0.14808320E-02 0.24800408E+02</pdfrwt>
<totfact> 0.10913011E+08</totfact>
</mgrwt>
</event>
<event>
 4    1  0.7595771E+004  0.2434939E+02  0.7546771E-02  0.1670527E+00
         21   -1    0    0  503  502  0.00000000000E+00  0.00000000000E+00  0.84000651825E+02  0.84000651825E+02  0.00000000000E+00 0.  1.
         21   -1    0    0  501  503 -0.00000000000E+00 -0.00000000000E+00 -0.81797600928E+01  0.81797600928E+01  0.00000000000E+00 0.  1.
          3    1    1    2  501    0  0.22858576646E+02 -0.83891770386E+01  0.54977202020E+02  0.60128076301E+02  0.00000000000E+00 0.  1.
         -3    1    1    2    0  502 -0.22858576646E+02  0.83891770386E+01  0.20843689712E+02  0.32052335616E+02  0.00000000000E+00 0. -1.
<mgrwt>
<rscale>  2 0.24349390E+02</rscale>
<asrwt>0</asrwt>
<pdfrwt beam="1">  1       21 0.12923177E-01 0.24349390E+02</pdfrwt>
<pdfrwt beam="2">  1       21 0.12584247E-02 0.24349390E+02</pdfrwt>
<totfact> 0.93507092E+07</totfact>
</mgrwt>
</event>
<event>
 4    1  0.7595771E+004  0.2485819E+02  0.7546771E-02  0.1663047E+00
         21   -1    0    0  503  502  0.00000000000E+00  0.00000000000E+00  0.11172853518E+04  0.11172853518E+04  0.00000000000E+00 0. -1.
         21   -1    0    0  501  503 -0.00000000000E+00 -0.00000000000E+00 -0.57393757160E+00  0.57393757160E+00  0.00000000000E+00 0. -1.
          4    1    1    2  501    0 -0.16256164484E+02 -0.18806023546E+02  0.66494941837E+03  0.66541390006E+03  0.00000000000E+00 0. -1.
         -4    1    1    2    0  502  0.16256164484E+02  0.18806023546E+02  0.45176199582E+03  0.45244538927E+03  0.00000000000E+00 0.  1.
<mgrwt>
<rscale>  2 0.24858186E+02</rscale>
<asrwt>0</asrwt>
<pdfrwt beam="1">  1       21 0.17188831E+00 0.24858186E+02</pdfrwt>
<pdfrwt beam="2">  1       21 0.88298982E-04 0.24858186E+02</pdfrwt>
<totfact> 0.27497253E+07</totfact>
</mgrwt>
</event>
<event>
 4    1  0.7595771E+004  0.2514925E+02  0.7546771E-02  0.1658867E+00
         21   -1    0    0  503  502  0.00000000000E+00  0.00000000000E+00  0.51977606310E+01  0.51977606310E+01  0.00000000000E+00 0.  1.
         21   -1    0    0  501  503 -0.00000000000E+00 -0.00000000000E+00 -0.14357791254E+03  0.14357791254E+03  0.00000000000E+00 0.  1.
          4    1    1    2  501    0  0.24400334381E+02  0.60916513497E+01 -0.40141866832E+02  0.47369336145E+02  0.00000000000E+00 0. -1.
         -4    1    1    2    0  502 -0.24400334381E+02 -0.60916513497E+01 -0.98238285077E+02  0.10140633703E+03  0.00000000000E+00 0.  1.
<mgrwt>
<rscale>  2 0.25149245E+02</rscale>
<asrwt>0</asrwt>
<pdfrwt beam="1">  1       21 0.79965549E-03 0.25149245E+02</pdfrwt>
<pdfrwt beam="2">  1       21 0.22088910E-01 0.25149245E+02</pdfrwt>
<totfact> 0.74002785E+07</totfact>
</mgrwt>
</event>
<event>
 4    1  0.7595771E+004  0.3135731E+02  0.7546771E-02  0.1583552E+00
         21   -1    0    0  503  502  0.00000000000E+00  0.00000000000E+00  0.21508036867E+02  0.21508036867E+02  0.00000000000E+00 0. -1.
         21   -1    0    0  501  503 -0.00000000000E+00 -0.00000000000E+00 -0.49103294699E+02  0.49103294699E+02  0.00000000000E+00 0. -1.
          1    1    1    2  501    0  0.28816579219E+02 -0.12364688901E+02 -0.45259607368E+01  0.31682251973E+02  0.00000000000E+00 0.  1.
         -1    1    1    2    0  502 -0.28816579219E+02  0.12364688901E+02 -0.23069297094E+02  0.38929079593E+02  0.00000000000E+00 0. -1.
<mgrwt>
<rscale>  2 0.31357308E+02</rscale>
<asrwt>0</asrwt>
<pdfrwt beam="1">  1       21 0.33089288E-02 0.31357308E+02</pdfrwt>
<pdfrwt beam="2">  1       21 0.75543529E-02 0.31357308E+02</pdfrwt>
<totfact> 0.54529022E+07</totfact>
</mgrwt>
</event>
<event>
 4    1  0.7595771E+004  0.2164243E+02  0.7546771E-02  0.1714510E+00
         21   -1    0    0  503  502  0.00000000000E+00  0.00000000000E+00  0.23272300751E+01  0.23272300751E+01  0.00000000000E+00 0.  1.
         21   -1    0    0  501  503 -0.00000000000E+00 -0.00000000000E+00 -0.21298312463E+03  0.21298312463E+03  0.00000000000E+00 0.  1.
          3    1    1    2  501    0  0.14627697175E+02 -0.15950712751E+02 -0.80078425943E+02  0.82951486203E+02  0.00000000000E+00 0. -1.
         -3    1    1    2    0  502 -0.14627697175E+02  0.15950712751E+02 -0.13057746861E+03  0.13235886850E+03  0.00000000000E+00 0.  1.
<mgrwt>
<rscale>  2 0.21642430E+02</rscale>
<asrwt>0</asrwt>
<pdfrwt beam="1">  1       21 0.35803536E-03 0.21642430E+02</pdfrwt>
<pdfrwt beam="2">  1       21 0.32766638E-01 0.21642430E+02</pdfrwt>
<totfact> 0.11475677E+08</totfact>
</mgrwt>
</event>
<event>
 4    1  0.7595771E+004  0.2103518E+02  0.7546771E-02  0.1725493E+00
         21   -1    0    0  503  502  0.00000000000E+00  0.00000000000E+00  0.17394966038E+02  0.17394966038E+02  0.00000000000E+00 0.  1.
         21   -1    0    0  501  503 -0.00000000000E+00 -0.00000000000E+00 -0.25681126450E+02  0.25681126450E+02  0.00000000000E+00 0.  1.
          5    1    1    2  501    0 -0.21027811059E+02  0.55683094674E+00 -0.62422408710E+01  0.21941842897E+02  0.00000000000E+00 0. -1.
         -5    1    1    2    0  502  0.21027811059E+02 -0.55683094674E+00 -0.20439195410E+01  0.21134249590E+02  0.00000000000E+00 0.  1.
<mgrwt>
<rscale>  2 0.21035182E+02</rscale>
<asrwt>0</asrwt>
<pdfrwt beam="1">  1       21 0.26761486E-02 0.21035182E+02</pdfrwt>
<pdfrwt beam="2">  1       21 0.39509425E-02 0.21035182E+02</pdfrwt>
<totfact> 0.19317091E+08</totfact>
</mgrwt>
</event>
<event>
 4    1  0.7595771E+004  0.3358782E+02  0.7546771E-02  0.1561511E+00
         21   -1    0    0  503  502  0.00000000000E+00  0.00000000000E+00  0.23814964576E+03  0.23814964576E+03  0.00000000000E+00 0.  1.
         21   -1    0    0  501  503 -0.00000000000E+00 -0.00000000000E+00 -0.47758950639E+01  0.47758950639E+01  0.00000000000E+00 0.  1.
          1    1    1    2  501    0 -0.37404714741E+01  0.33378889775E+02  0.10574126378E+03  0.11094753839E+03  0.00000000000E+00 0.  1.
         -1    1    1    2    0  502  0.37404714741E+01 -0.33378889775E+02  0.12763248691E+03  0.13197800243E+03  0.00000000000E+00 0. -1.
<mgrwt>
<rscale>  2 0.33587816E+02</rscale>
<asrwt>0</asrwt>
<pdfrwt beam="1">  1       21 0.36638398E-01 0.33587816E+02</pdfrwt>
<pdfrwt beam="2">  1       21 0.73475327E-03 0.33587816E+02</pdfrwt>
<totfact> 0.35486198E+07</totfact>
</mgrwt>
</event>
<event>
 4    1  0.7595771E+004  0.2622274E+02  0.7546771E-02  0.1644036E+00
         21   -1    0    0  501  502  0.00000000000E+00  0.00000000000E+00  0.11937080002E+04  0.11937080002E+04  0.00000000000E+00 0.  1.
         21   -1    0    0  502  503 -0.00000000000E+00 -0.00000000000E+00 -0.57684647801E+00  0.57684647801E+00  0.00000000000E+00 0.  1.
          1    1    1    2  501    0  0.22487985963E+02 -0.13487870979E+02  0.57433805571E+03  0.57493637423E+03  0.00000000000E+00 0. -1.
         -1    1    1    2    0  503 -0.22487985963E+02  0.13487870979E+02  0.61879309802E+03  0.61934847245E+03  0.00000000000E+00 0.  1.
<mgrwt>
<rscale>  2 0.26222742E+02</rscale>
<asrwt>0</asrwt>
<pdfrwt beam="1">  1       21 0.18364541E+00 0.26222742E+02</pdfrwt>
<pdfrwt beam="2">  1       21 0.88746567E-04 0.26222742E+02</pdfrwt>
<totfact> 0.23325534E+07</totfact>
</mgrwt>
</event>
<event>
 4    1  0.7595771E+004  0.2068180E+02  0.7546771E-02  0.1732100E+00
         21   -1    0    0  503  502  0.00000000000E+00  0.00000000000E+00  0.23783995797E+02  0.23783995797E+02  0.00000000000E+00 0.  1.
         21   -1    0    0  501  503 -0.00000000000E+00 -0.00000000000E+00 -0.18010629879E+02  0.18010629879E+02  0.00000000000E+00 0.  1.
          3    1    1    2  501    0  0.10318880170E+02 -0.17923654559E+02  0.20865065334E+01  0.20786779217E+02  0.00000000000E+00 0. -1.
         -3    1    1    2    0  502 -0.10318880170E+02  0.17923654559E+02  0.36868593846E+01  0.21007846458E+02  0.00000000000E+00 0.  1.
<mgrwt>
<rscale>  2 0.20681796E+02</rscale>
<asrwt>0</asrwt>
<pdfrwt beam="1">  1       21 0.36590763E-02 0.20681796E+02</pdfrwt>
<pdfrwt beam="2">  1       21 0.27708661E-02 0.20681796E+02</pdfrwt>
<totfact> 0.20531922E+08</totfact>
</mgrwt>
</event>
<event>
 4    1  0.7595771E+004  0.2384400E+02  0.7546771E-02  0.1678183E+00
         21   -1    0    0  501  502  0.00000000000E+00  0.00000000000E+00  0.27033906234E+01  0.27033906234E+01  0.00000000000E+00 0.  1.
         21   -1    0    0  502  503 -0.00000000000E+00 -0.00000000000E+00 -0.21034048831E+03  0.21034048831E+03  0.00000000000E+00 0.  1.
          2    1    1    2  501    0  0.23120128041E+02  0.58305903457E+01 -0.10243160021E+03  0.10517018982E+03  0.00000000000E+00 0.  1.
         -2    1    1    2    0  503 -0.23120128041E+02 -0.58305903457E+01 -0.10520549748E+03  0.10787368912E+03  0.00000000000E+00 0. -1.
<mgrwt>
<rscale>  2 0.23843995E+02</rscale>
<asrwt>0</asrwt>
<pdfrwt beam="1">  1       21 0.41590633E-03 0.23843995E+02</pdfrwt>
<pdfrwt beam="2">  1       21 0.32360069E-01 0.23843995E+02</pdfrwt>
<totfact> 0.96780438E+07</totfact>
</mgrwt>
</event>
<event>
 4    1  0.7595771E+004  0.2481835E+02  0.7546771E-02  0.1663625E+00
         21   -1    0    0  503  502  0.00000000000E+00  0.00000000000E+00  0.36772447118E+03  0.36772447118E+03  0.00000000000E+00 0.  1.
         21   -1    0    0  501  503 -0.00000000000E+00 -0.00000000000E+00 -0.18232976552E+01  0.18232976552E+01  0.00000000000E+00 0.  1.
          5    1    1    2  501    0  0.44878548566E+00 -0.24814287806E+02  0.23564104287E+03  0.23694440566E+03  0.00000000000E+00 0. -1.
         -5    1    1    2    0  502 -0.44878548566E+00  0.24814287806E+02  0.13026013065E+03  0.13260336318E+03  0.00000000000E+00 0.  1.
<mgrwt>
<rscale>  2 0.24818346E+02</rscale>
<asrwt>0</asrwt>
<pdfrwt beam="1">  1       21 0.56572936E-01 0.24818346E+02</pdfrwt>
<pdfrwt beam="2">  1       21 0.28050762E-03 0.24818346E+02</pdfrwt>
<totfact> 0.59925276E+07</totfact>
</mgrwt>
</event>
<event>
 4    1  0.7595771E+004  0.2989714E+02  0.7546771E-02  0.1599228E+00
         21   -1    0    0  501  502  0.00000000000E+00  0.00000000000E+00  0.30166978687E+02  0.30166978687E+02  0.00000000000E+00 0.  1.
         21   -1    0    0  502  503 -0.00000000000E+00 -0.00000000000E+00 -0.50082761147E+02  0.50082761147E+02  0.00000000000E+00 0.  1.
          2    1    1    2  501    0 -0.27301139422E+02 -0.12185521016E+02 -0.35599687766E+02  0.46488459914E+02  0.00000000000E+00 0.  1.
         -2    1    1    2    0  503  0.27301139422E+02  0.12185521016E+02  0.15683905306E+02  0.33761279920E+02  0.00000000000E+00 0. -1.
<mgrwt>
<rscale>  2 0.29897143E+02</rscale>
<asrwt>0</asrwt>
<pdfrwt beam="1">  1       21 0.46410737E-02 0.29897143E+02</pdfrwt>
<pdfrwt beam="2">  1       21 0.77050401E-02 0.29897143E+02</pdfrwt>
<totfact> 0.30504692E+07</totfact>
</mgrwt>
</event>
<event>
 4    1  0.7595771E+004  0.2342806E+02  0.7546771E-02  0.1684664E+00
         21   -1    0    0  503  502  0.00000000000E+00  0.00000000000E+00  0.17372121042E+03  0.17372121042E+03  0.00000000000E+00 0.  1.
         21   -1    0    0  501  503 -0.00000000000E+00 -0.00000000000E+00 -0.66521192248E+01  0.66521192248E+01  0.00000000000E+00 0.  1.
          3    1    1    2  501    0  0.22405171104E+01  0.23320682906E+02  0.14888328547E+03  0.15071531727E+03  0.00000000000E+00 0.  1.
         -3    1    1    2    0  502 -0.22405171104E+01 -0.23320682906E+02  0.18185805729E+02  0.29658012377E+02  0.00000000000E+00 0. -1.
<mgrwt>
<rscale>  2 0.23428064E+02</rscale>
<asrwt>0</asrwt>
<pdfrwt beam="1">  1       21 0.26726337E-01 0.23428064E+02</pdfrwt>
<pdfrwt beam="2">  1       21 0.10234031E-02 0.23428064E+02</pdfrwt>
<totfact> 0.35773564E+07</totfact>
</mgrwt>
</event>
<event>
 4    1  0.7595771E+004  0.2447414E+02  0.7546771E-02  0.1668672E+00
         21   -1    0    0  501  502  0.00000000000E+00  0.00000000000E+00  0.24299038727E+02  0.24299038727E+02  0.00000000000E+00 0. -1.
         21   -1    0    0  502  503 -0.00000000000E+00 -0.00000000000E+00 -0.24661072496E+02  0.24661072496E+02  0.00000000000E+00 0. -1.
          2    1    1    2  501    0 -0.21448204347E+02 -0.11788050078E+02 -0.68774689602E+00  0.24483802608E+02  0.00000000000E+00 0. -1.
         -2    1    1    2    0  503  0.21448204347E+02  0.11788050078E+02  0.32571312677E+00  0.24476308615E+02  0.00000000000E+00 0.  1.
<mgrwt>
<rscale>  2 0.24474141E+02</rscale>
<asrwt>0</asrwt>
<pdfrwt beam="1">  1       21 0.37383137E-02 0.24474141E+02</pdfrwt>
<pdfrwt beam="2">  1       21 0.37940111E-02 0.24474141E+02</pdfrwt>
<totfact> 0.12805545E+08</totfact>
</mgrwt>
</event>
<event>
 4    1  0.7595771E+004  0.2851452E+02  0.7546771E-02  0.1615114E+00
         21   -1    0    0  501  502  0.00000000000E+00  0.00000000000E+00  0.92453625758E+01  0.92453625758E+01  0.00000000000E+00 0. -1.
         21   -1    0    0  502  503 -0.00000000000E+00 -0.00000000000E+00 -0.89738021310E+02  0.89738021310E+02  0.00000000000E+00 0. -1.
          2    1    1    2  501    0 -0.25448268029E+02  0.12863262869E+02 -0.47243287353E+02  0.55181573711E+02  0.00000000000E+00 0.  1.
         -2    1    1    2    0  503  0.25448268029E+02 -0.12863262869E+02 -0.33249371381E+02  0.43801810175E+02  0.00000000000E+00 0. -1.
<mgrwt>
<rscale>  2 0.28514520E+02</rscale>
<asrwt>0</asrwt>
<pdfrwt beam="1">  1       21 0.14223634E-02 0.28514520E+02</pdfrwt>
<pdfrwt beam="2">  1       21 0.13805850E-01 0.28514520E+02</pdfrwt>
<totfact> 0.72185074E+07</totfact>
</mgrwt>
</event>
<event>
 4    1  0.7595771E+004  0.2014281E+02  0.7546771E-02  0.1742503E+00
         21   -1    0    0  501  502  0.00000000000E+00  0.00000000000E+00  0.18610192130E+01  0.18610192130E+01  0.00000000000E+00 0. -1.
         21   -1    0    0  502  503 -0.00000000000E+00 -0.00000000000E+00 -0.30895529372E+03  0.30895529372E+03  0.00000000000E+00 0. -1.
          5    1    1    2  501    0  0.18536892974E+02  0.78814078534E+01 -0.69232988431E+02  0.72103673124E+02  0.00000000000E+00 0.  1.
         -5    1    1    2    0  503 -0.18536892974E+02 -0.78814078534E+01 -0.23786128608E+03  0.23871263981E+03  0.00000000000E+00 0. -1.
<mgrwt>
<rscale>  2 0.20142815E+02</rscale>
<asrwt>0</asrwt>
<pdfrwt beam="1">  1       21 0.28631045E-03 0.20142815E+02</pdfrwt>
<pdfrwt beam="2">  1       21 0.47531616E-01 0.20142815E+02</pdfrwt>
<totfact> 0.77592342E+07</totfact>
</mgrwt>
</event>
<event>
 4    1  0.7595771E+004  0.2459932E+02  0.7546771E-02  0.1666825E+00
         21   -1    0    0  503  502  0.00000000000E+00  0.00000000000E+00  0.31333579759E+02  0.31333579759E+02  0.00000000000E+00 0.  1.
         21   -1    0    0  501  503 -0.00000000000E+00 -0.00000000000E+00 -0.19615893062E+02  0.19615893062E+02  0.00000000000E+00 0.  1.
          2    1    1    2  501    0 -0.23615247493E+02  0.68881600668E+01  0.90275291888E+01  0.26203491113E+02  0.00000000000E+00 0.  1.
         -2    1    1    2    0  502  0.23615247493E+02 -0.68881600668E+01  0.26901575080E+01  0.24745981707E+02  0.00000000000E+00 0. -1.
<mgrwt>
<rscale>  2 0.24599322E+02</rscale>
<asrwt>0</asrwt>
<pdfrwt beam="1">  1       21 0.48205507E-02 0.24599322E+02</pdfrwt>
<pdfrwt beam="2">  1       21 0.30178297E-02 0.24599322E+02</pdfrwt>
<totfact> 0.12275345E+08</totfact>
</mgrwt>
</event>
<event>
 4    1  0.7595771E+004  0.2256701E+02  0.7546771E-02  0.1698626E+00
         21   -1    0    0  501  502  0.00000000000E+00  0.00000000000E+00  0.26586597896E+03  0.26586597896E+03  0.00000000000E+00 0. -1.
         21   -1    0    0  502  503 -0.00000000000E+00 -0.00000000000E+00 -0.21213508612E+01  0.21213508612E+01  0.00000000000E+00 0. -1.
          5    1    1    2  501    0 -0.22489896949E+02 -0.18639773685E+01  0.90133500638E+02  0.92915648917E+02  0.00000000000E+00 0.  1.
         -5    1    1    2    0  503  0.22489896949E+02  0.18639773685E+01  0.17361112746E+03  0.17507168090E+03  0.00000000000E+00 0. -1.
<mgrwt>
<rscale>  2 0.22567009E+02</rscale>
<asrwt>0</asrwt>
<pdfrwt beam="1">  1       21 0.40902432E-01 0.22567009E+02</pdfrwt>
<pdfrwt beam="2">  1       21 0.32636188E-03 0.22567009E+02</pdfrwt>
<totfact> 0.87955861E+07</totfact>
</mgrwt>
</event>
<event>
 4    1  0.7595771E+004  0.3985703E+02  0.7546771E-02  0.1509266E+00
         21   -1    0    0  501  502  0.00000000000E+00  0.00000000000E+00  0.24074463044E+02  0.24074463044E+02  0.00000000000E+00 0.  1.
         21   -1    0    0  502  503 -0.00000000000E+00 -0.00000000000E+00 -0.78671909993E+02  0.78671909993E+02  0.00000000000E+00 0.  1.
          5    1    1    2  501    0 -0.39848385868E+02  0.83002017005E+00 -0.47927986933E+02  0.62335180446E+02  0.00000000000E+00 0. -1.
         -5    1    1    2    0  503  0.39848385868E+02 -0.83002017005E+00 -0.66694600163E+01  0.40411192591E+02  0.00000000000E+00 0.  1.
<mgrwt>
<rscale>  2 0.39857029E+02</rscale>
<asrwt>0</asrwt>
<pdfrwt beam="1">  1       21 0.37037636E-02 0.39857029E+02</pdfrwt>
<pdfrwt beam="2">  1       21 0.12103371E-01 0.39857029E+02</pdfrwt>
<totfact> 0.21635154E+07</totfact>
</mgrwt>
</event>
<event>
 4    1  0.7595771E+004  0.2262499E+02  0.7546771E-02  0.1697662E+00
         21   -1    0    0  501  502  0.00000000000E+00  0.00000000000E+00  0.64510275711E+02  0.64510275711E+02  0.00000000000E+00 0. -1.
         21   -1    0    0  502  503 -0.00000000000E+00 -0.00000000000E+00 -0.79732534082E+01  0.79732534082E+01  0.00000000000E+00 0. -1.
          3    1    1    2  501    0  0.22578938265E+02 -0.14428709086E+01  0.30778159736E+02  0.38199285940E+02  0.00000000000E+00 0.  1.
         -3    1    1    2    0  503 -0.22578938265E+02  0.14428709086E+01  0.25758862567E+02  0.34284243179E+02  0.00000000000E+00 0. -1.
<mgrwt>
<rscale>  2 0.22624993E+02</rscale>
<asrwt>0</asrwt>
<pdfrwt beam="1">  1       21 0.99246574E-02 0.22624993E+02</pdfrwt>
<pdfrwt beam="2">  1       21 0.12266544E-02 0.22624993E+02</pdfrwt>
<totfact> 0.14785581E+08</totfact>
</mgrwt>
</event>
<event>
 4    1  0.7595771E+004  0.2737748E+02  0.7546771E-02  0.1629028E+00
         21   -1    0    0  503  502  0.00000000000E+00  0.00000000000E+00  0.22587621512E+01  0.22587621512E+01  0.00000000000E+00 0. -1.
         21   -1    0    0  501  503 -0.00000000000E+00 -0.00000000000E+00 -0.47847093122E+03  0.47847093122E+03  0.00000000000E+00 0. -1.
          2    1    1    2  501    0  0.52957537710E+01 -0.26860410172E+02 -0.10503927910E+03  0.10854849974E+03  0.00000000000E+00 0.  1.
         -2    1    1    2    0  502 -0.52957537710E+01  0.26860410172E+02 -0.37117288997E+03  0.37218119363E+03  0.00000000000E+00 0. -1.
<mgrwt>
<rscale>  2 0.27377484E+02</rscale>
<asrwt>0</asrwt>
<pdfrwt beam="1">  1       21 0.34750189E-03 0.27377484E+02</pdfrwt>
<pdfrwt beam="2">  1       21 0.73610908E-01 0.27377484E+02</pdfrwt>
<totfact> 0.26153759E+07</totfact>
</mgrwt>
</event>
<event>
 4    1  0.7595771E+004  0.2268337E+02  0.7546771E-02  0.1696695E+00
         21   -1    0    0  501  502  0.00000000000E+00  0.00000000000E+00  0.53838926152E+02  0.53838926152E+02  0.00000000000E+00 0. -1.
         21   -1    0    0  502  503 -0.00000000000E+00 -0.00000000000E+00 -0.11499089538E+02  0.11499089538E+02  0.00000000000E+00 0. -1.
          1    1    1    2  501    0 -0.14309173723E+02  0.17600650072E+02  0.77439487879E+01  0.23968814706E+02  0.00000000000E+00 0. -1.
         -1    1    1    2    0  503  0.14309173723E+02 -0.17600650072E+02  0.34595887826E+02  0.41369200984E+02  0.00000000000E+00 0.  1.
<mgrwt>
<rscale>  2 0.22683371E+02</rscale>
<asrwt>0</asrwt>
<pdfrwt beam="1">  1       21 0.82829115E-02 0.22683371E+02</pdfrwt>
<pdfrwt beam="2">  1       21 0.17690907E-02 0.22683371E+02</pdfrwt>
<totfact> 0.11421551E+08</totfact>
</mgrwt>
</event>
<event>
 4    1  0.7595771E+004  0.2333215E+02  0.7546771E-02  0.1686182E+00
         21   -1    0    0  503  502  0.00000000000E+00  0.00000000000E+00  0.17794131836E+03  0.17794131836E+03  0.00000000000E+00 0.  1.
         21   -1    0    0  501  503 -0.00000000000E+00 -0.00000000000E+00 -0.34375846957E+01  0.34375846957E+01  0.00000000000E+00 0.  1.
          2    1    1    2  501    0  0.14166785033E+02 -0.18538916326E+02  0.11733315390E+03  0.11963050707E+03  0.00000000000E+00 0. -1.
         -2    1    1    2    0  502 -0.14166785033E+02  0.18538916326E+02  0.57170579762E+02  0.61748395987E+02  0.00000000000E+00 0.  1.
<mgrwt>
<rscale>  2 0.23332150E+02</rscale>
<asrwt>0</asrwt>
<pdfrwt beam="1">  1       21 0.27375580E-01 0.23332150E+02</pdfrwt>
<pdfrwt beam="2">  1       21 0.52885932E-03 0.23332150E+02</pdfrwt>
<totfact> 0.91554673E+07</totfact>
</mgrwt>
</event>
<event>
 4    1  0.7595771E+004  0.2508494E+02  0.7546771E-02  0.1659785E+00
         21   -1    0    0  503  502  0.00000000000E+00  0.00000000000E+00  0.20876776150E+02  0.20876776150E+02  0.00000000000E+00 0. -1.
         21   -1    0    0  501  503 -0.00000000000E+00 -0.00000000000E+00 -0.44832738035E+02  0.44832738035E+02  0.00000000000E+00 0. -1.
          4    1    1    2  501    0 -0.24582272868E+02  0.49966129329E+01  0.68295592732E+01  0.25998022233E+02  0.00000000000E+00 0.  1.
         -4    1    1    2    0  502  0.24582272868E+02 -0.49966129329E+01 -0.30785521157E+02  0.39711491952E+02  0.00000000000E+00 0. -1.
<mgrwt>
<rscale>  2 0.25084941E+02</rscale>
<asrwt>0</asrwt>
<pdfrwt beam="1">  1       21 0.32118117E-02 0.25084941E+02</pdfrwt>
<pdfrwt beam="2">  1       21 0.68973442E-02 0.25084941E+02</pdfrwt>
<totfact> 0.62909896E+07</totfact>
</mgrwt>
</event>
<event>
 4    1  0.7595771E+004  0.2367875E+02  0.7546771E-02  0.1680738E+00
         21   -1    0    0  501  502  0.00000000000E+00  0.00000000000E+00  0.90232612437E+03  0.90232612437E+03  0.00000000000E+00 0.  1.
         21   -1    0    0  502  503 -0.00000000000E+00 -0.00000000000E+00 -0.64744288610E+00  0.64744288610E+00  0.00000000000E+00 0.  1.
          1    1    1    2  501    0 -0.10686723859E+02 -0.21130010731E+02  0.36024681406E+03  0.36102416881E+03  0.00000000000E+00 0.  1.
         -1    1    1    2    0  503  0.10686723859E+02  0.21130010731E+02  0.54143186742E+03  0.54194939845E+03  0.00000000000E+00 0. -1.
<mgrwt>
<rscale>  2 0.23678755E+02</rscale>
<asrwt>0</asrwt>
<pdfrwt beam="1">  1       21 0.13881840E+00 0.23678755E+02</pdfrwt>
<pdfrwt beam="2">  1       21 0.99607320E-04 0.23678755E+02</pdfrwt>
<totfact> 0.38332827E+07</totfact>
</mgrwt>
</event>
<event>
 4    1  0.7595771E+004  0.2163259E+02  0.7546771E-02  0.1714685E+00
         21   -1    0    0  503  502  0.00000000000E+00  0.00000000000E+00  0.36183062222E+01  0.36183062222E+01  0.00000000000E+00 0. -1.
         21   -1    0    0  501  503 -0.00000000000E+00 -0.00000000000E+00 -0.14605987639E+03  0.14605987639E+03  0.00000000000E+00 0. -1.
          1    1    1    2  501    0  0.21632587036E+02 -0.17753596431E-01 -0.96546437361E+02  0.98940303740E+02  0.00000000000E+00 0. -1.
         -1    1    1    2    0  502 -0.21632587036E+02  0.17753596431E-01 -0.45895132803E+02  0.50737878869E+02  0.00000000000E+00 0.  1.
<mgrwt>
<rscale>  2 0.21632594E+02</rscale>
<asrwt>0</asrwt>
<pdfrwt beam="1">  1       21 0.55666250E-03 0.21632594E+02</pdfrwt>
<pdfrwt beam="2">  1       21 0.22470750E-01 0.21632594E+02</pdfrwt>
<totfact> 0.11813198E+08</totfact>
</mgrwt>
</event>
<event>
 4    1  0.7595771E+004  0.2973530E+02  0.7546771E-02  0.1601033E+00
         21   -1    0    0  501  502  0.00000000000E+00  0.00000000000E+00  0.58253895114E+02  0.58253895114E+02  0.00000000000E+00 0. -1.
         21   -1    0    0  502  503 -0.00000000000E+00 -0.00000000000E+00 -0.16577100324E+02  0.16577100324E+02  0.00000000000E+00 0. -1.
          2    1    1    2  501    0  0.29061466961E+02 -0.62943995037E+01  0.99693084171E+01  0.31362006271E+02  0.00000000000E+00 0.  1.
         -2    1    1    2    0  503 -0.29061466961E+02  0.62943995037E+01  0.31707486374E+02  0.43468989167E+02  0.00000000000E+00 0. -1.
<mgrwt>
<rscale>  2 0.29735304E+02</rscale>
<asrwt>0</asrwt>
<pdfrwt beam="1">  1       21 0.89621376E-02 0.29735304E+02</pdfrwt>
<pdfrwt beam="2">  1       21 0.25503232E-02 0.29735304E+02</pdfrwt>
<totfact> 0.61183427E+07</totfact>
</mgrwt>
</event>
<event>
 4    1  0.7595771E+004  0.3252936E+02  0.7546771E-02  0.1571703E+00
         21   -1    0    0  503  502  0.00000000000E+00  0.00000000000E+00  0.60313158343E+03  0.60313158343E+03  0.00000000000E+00 0. -1.
         21   -1    0    0  501  503 -0.00000000000E+00 -0.00000000000E+00 -0.26885198335E+01  0.26885198335E+01  0.00000000000E+00 0. -1.
          5    1    1    2  501    0  0.25502506471E+02  0.20193594308E+02  0.47876694965E+03  0.47987076506E+03  0.00000000000E+00 0.  1.
         -5    1    1    2    0  502 -0.25502506471E+02 -0.20193594308E+02  0.12167611395E+03  0.12594933820E+03  0.00000000000E+00 0. -1.
<mgrwt>
<rscale>  2 0.32529357E+02</rscale>
<asrwt>0</asrwt>
<pdfrwt beam="1">  1       21 0.92789366E-01 0.32529357E+02</pdfrwt>
<pdfrwt beam="2">  1       21 0.41361892E-03 0.32529357E+02</pdfrwt>
<totfact> 0.12683211E+07</totfact>
</mgrwt>
</event>
<event>
 4    1  0.7595771E+004  0.2137744E+02  0.7546771E-02  0.1719247E+00
         21   -1    0    0  503  502  0.00000000000E+00  0.00000000000E+00  0.36488425901E+02  0.36488425901E+02  0.00000000000E+00 0.  1.
         21   -1    0    0  501  503 -0.00000000000E+00 -0.00000000000E+00 -0.12709202070E+02  0.12709202070E+02  0.00000000000E+00 0.  1.
          3    1    1    2  501    0 -0.48289198875E+01 -0.20824904629E+02  0.89232425472E+01  0.23165046463E+02  0.00000000000E+00 0. -1.
         -3    1    1    2    0  502  0.48289198875E+01  0.20824904629E+02  0.14855981284E+02  0.26032581508E+02  0.00000000000E+00 0.  1.
<mgrwt>
<rscale>  2 0.21377444E+02</rscale>
<asrwt>0</asrwt>
<pdfrwt beam="1">  1       21 0.56136039E-02 0.21377444E+02</pdfrwt>
<pdfrwt beam="2">  1       21 0.19552619E-02 0.21377444E+02</pdfrwt>
<totfact> 0.18041191E+08</totfact>
</mgrwt>
</event>
<event>
 4    1  0.7595771E+004  0.2120153E+02  0.7546771E-02  0.1722439E+00
         21   -1    0    0  503  502  0.00000000000E+00  0.00000000000E+00  0.27523429647E+02  0.27523429647E+02  0.00000000000E+00 0.  1.
         21   -1    0    0  501  503 -0.00000000000E+00 -0.00000000000E+00 -0.17861555890E+02  0.17861555890E+02  0.00000000000E+00 0.  1.
          3    1    1    2  501    0  0.62881529469E+01  0.20247567601E+02 -0.18102457627E+01  0.21278671269E+02  0.00000000000E+00 0.  1.
         -3    1    1    2    0  502 -0.62881529469E+01 -0.20247567601E+02  0.11472119520E+02  0.24106314267E+02  0.00000000000E+00 0. -1.
<mgrwt>
<rscale>  2 0.21201530E+02</rscale>
<asrwt>0</asrwt>
<pdfrwt beam="1">  1       21 0.42343738E-02 0.21201530E+02</pdfrwt>
<pdfrwt beam="2">  1       21 0.27479317E-02 0.21201530E+02</pdfrwt>
<totfact> 0.16670852E+08</totfact>
</mgrwt>
</event>
<event>
 4    1  0.7595771E+004  0.2270394E+02  0.7546771E-02  0.1696355E+00
         21   -1    0    0  503  502  0.00000000000E+00  0.00000000000E+00  0.19106603467E+03  0.19106603467E+03  0.00000000000E+00 0.  1.
         21   -1    0    0  501  503 -0.00000000000E+00 -0.00000000000E+00 -0.31189915809E+01  0.31189915809E+01  0.00000000000E+00 0.  1.
          4    1    1    2  501    0  0.22414995514E+02 -0.36106727777E+01  0.12965055275E+03  0.13162345844E+03  0.00000000000E+00 0. -1.
         -4    1    1    2    0  502 -0.22414995514E+02  0.36106727777E+01  0.58296490338E+02  0.62561567816E+02  0.00000000000E+00 0.  1.
<mgrwt>
<rscale>  2 0.22703942E+02</rscale>
<asrwt>0</asrwt>
<pdfrwt beam="1">  1       21 0.29394765E-01 0.22703942E+02</pdfrwt>
<pdfrwt beam="2">  1       21 0.47984501E-03 0.22703942E+02</pdfrwt>
<totfact> 0.92246339E+07</totfact>
</mgrwt>
</event>
<event>
 4    1  0.7595771E+004  0.2499873E+02  0.7546771E-02  0.1661020E+00
         21   -1    0    0  501  502  0.00000000000E+00  0.00000000000E+00  0.15422330425E+02  0.15422330425E+02  0.00000000000E+00 0. -1.
         21   -1    0    0  502  503 -0.00000000000E+00 -0.00000000000E+00 -0.40668244632E+02  0.40668244632E+02  0.00000000000E+00 0. -1.
          4    1    1    2  501    0  0.47113140173E+01  0.24550759179E+02 -0.14307511780E+02  0.28803491965E+02  0.00000000000E+00 0. -1.
         -4    1    1    2    0  503 -0.47113140173E+01 -0.24550759179E+02 -0.10938402427E+02  0.27287083092E+02  0.00000000000E+00 0.  1.
<mgrwt>
<rscale>  2 0.24998725E+02</rscale>
<asrwt>0</asrwt>
<pdfrwt beam="1">  1       21 0.23726662E-02 0.24998725E+02</pdfrwt>
<pdfrwt beam="2">  1       21 0.62566530E-02 0.24998725E+02</pdfrwt>
<totfact> 0.11795330E+08</totfact>
</mgrwt>
</event>
<event>
 4    1  0.7595771E+004  0.2450572E+02  0.7546771E-02  0.1668205E+00
         21   -1    0    0  503  502  0.00000000000E+00  0.00000000000E+00  0.14577147660E+03  0.14577147660E+03  0.00000000000E+00 0.  1.
         21   -1    0    0  501  503 -0.00000000000E+00 -0.00000000000E+00 -0.43008872557E+01  0.43008872557E+01  0.00000000000E+00 0.  1.
          2    1    1    2  501    0  0.56257080014E+01  0.23851236707E+02  0.55332699289E+02  0.60516424990E+02  0.00000000000E+00 0. -1.
         -2    1    1    2    0  502 -0.56257080014E+01 -0.23851236707E+02  0.86137890058E+02  0.89555938869E+02  0.00000000000E+00 0.  1.
<mgrwt>
<rscale>  2 0.24505715E+02</rscale>
<asrwt>0</asrwt>
<pdfrwt beam="1">  1       21 0.22426377E-01 0.24505715E+02</pdfrwt>
<pdfrwt beam="2">  1       21 0.66167508E-03 0.24505715E+02</pdfrwt>
<totfact> 0.94973492E+07</totfact>
</mgrwt>
</event>
<event>
 4    1  0.7595771E+004  0.2400334E+02  0.7546771E-02  0.1675744E+00
         21   -1    0    0  503  502  0.00000000000E+00  0.00000000000E+00  0.15792860603E+01  0.15792860603E+01  0.00000000000E+00 0. -1.
         21   -1    0    0  501  503 -0.00000000000E+00 -0.00000000000E+00 -0.40119926689E+03  0.40119926689E+03  0.00000000000E+00 0. -1.
          2    1    1    2  501    0  0.18481255872E+02  0.15316779697E+02 -0.26045048961E+03  0.26155423548E+03  0.00000000000E+00 0.  1.
         -2    1    1    2    0  502 -0.18481255872E+02 -0.15316779697E+02 -0.13916949122E+03  0.14122431747E+03  0.00000000000E+00 0. -1.
<mgrwt>
<rscale>  2 0.24003345E+02</rscale>
<asrwt>0</asrwt>
<pdfrwt beam="1">  1       21 0.24296720E-03 0.24003345E+02</pdfrwt>
<pdfrwt beam="2">  1       21 0.61722934E-01 0.24003345E+02</pdfrwt>
<totfact> 0.61578105E+07</totfact>
</mgrwt>
</event>
<event>
 4    1  0.7595771E+004  0.6381557E+02  0.7546771E-02  0.1382483E+00
         21   -1    0    0  501  502  0.00000000000E+00  0.00000000000E+00  0.75194789634E+02  0.75194789634E+02  0.00000000000E+00 0.  1.
         21   -1    0    0  502  503 -0.00000000000E+00 -0.00000000000E+00 -0.54222758989E+02  0.54222758989E+02  0.00000000000E+00 0.  1.
          2    1    1    2  501    0 -0.56759473621E+01  0.63562654458E+02  0.12715836560E+02  0.65070115411E+02  0.00000000000E+00 0.  1.
         -2    1    1    2    0  503  0.56759473621E+01 -0.63562654458E+02  0.82561940856E+01  0.64347433212E+02  0.00000000000E+00 0. -1.
<mgrwt>
<rscale>  2 0.63815573E+02</rscale>
<asrwt>0</asrwt>
<pdfrwt beam="1">  1       21 0.11568429E-01 0.63815573E+02</pdfrwt>
<pdfrwt beam="2">  1       21 0.83419629E-02 0.63815573E+02</pdfrwt>
<totfact> 0.65173414E+06</totfact>
</mgrwt>
</event>
<event>
 4    1  0.7595771E+004  0.2436100E+02  0.7546771E-02  0.1670353E+00
         21   -1    0    0  503  502  0.00000000000E+00  0.00000000000E+00  0.53794673336E+02  0.53794673336E+02  0.00000000000E+00 0.  1.
         21   -1    0    0  501  503 -0.00000000000E+00 -0.00000000000E+00 -0.11062826180E+02  0.11062826180E+02  0.00000000000E+00 0.  1.
          3    1    1    2  501    0  0.20883815567E+02 -0.12542904497E+02  0.23080127581E+02  0.33558165847E+02  0.00000000000E+00 0.  1.
         -3    1    1    2    0  502 -0.20883815567E+02  0.12542904497E+02  0.19651719575E+02  0.31299333669E+02  0.00000000000E+00 0. -1.
<mgrwt>
<rscale>  2 0.24360998E+02</rscale>
<asrwt>0</asrwt>
<pdfrwt beam="1">  1       21 0.82761034E-02 0.24360998E+02</pdfrwt>
<pdfrwt beam="2">  1       21 0.17019733E-02 0.24360998E+02</pdfrwt>
<totfact> 0.12388452E+08</totfact>
</mgrwt>
</event>
<event>
 4    1  0.7595771E+004  0.3038449E+02  0.7546771E-02  0.1593877E+00
         21   -1    0    0  501  502  0.00000000000E+00  0.00000000000E+00  0.15774660219E+02  0.15774660219E+02  0.00000000000E+00 0.  1.
         21   -1    0    0  502  503 -0.00000000000E+00 -0.00000000000E+00 -0.63164304392E+02  0.63164304392E+02  0.00000000000E+00 0.  1.
          3    1    1    2  501    0 -0.44899520593E+01  0.30050919515E+02 -0.12998466016E+02  0.33048109658E+02  0.00000000000E+00 0.  1.
         -3    1    1    2    0  503  0.44899520593E+01 -0.30050919515E+02 -0.34391178157E+02  0.45890854952E+02  0.00000000000E+00 0. -1.
<mgrwt>
<rscale>  2 0.30384493E+02</rscale>
<asrwt>0</asrwt>
<pdfrwt beam="1">  1       21 0.24268708E-02 0.30384493E+02</pdfrwt>
<pdfrwt beam="2">  1       21 0.97175854E-02 0.30384493E+02</pdfrwt>
<totfact> 0.58055641E+07</totfact>
</mgrwt>
</event>
<event>
 4    1  0.7595771E+004  0.3705741E+02  0.7546771E-02  0.1531054E+00
         21   -1    0    0  501  502  0.00000000000E+00  0.00000000000E+00  0.96947265108E+02  0.96947265108E+02  0.00000000000E+00 0.  1.
         21   -1    0    0  502  503 -0.00000000000E+00 -0.00000000000E+00 -0.16001786504E+02  0.16001786504E+02  0.00000000000E+00 0.  1.
          1    1    1    2  501    0 -0.37057245140E+02  0.10907458278E+00  0.59606743360E+02  0.70187001422E+02  0.00000000000E+00 0. -1.
         -1    1    1    2    0  503  0.37057245140E+02 -0.10907458278E+00  0.21338735244E+02  0.42762050190E+02  0.00000000000E+00 0.  1.
<mgrwt>
<rscale>  2 0.37057406E+02</rscale>
<asrwt>0</asrwt>
<pdfrwt beam="1">  1       21 0.14914964E-01 0.37057406E+02</pdfrwt>
<pdfrwt beam="2">  1       21 0.24618134E-02 0.37057406E+02</pdfrwt>
<totfact> 0.28508301E+07</totfact>
</mgrwt>
</event>
<event>
 4    1  0.7595771E+004  0.3073919E+02  0.7546771E-02  0.1590059E+00
         21   -1    0    0  501  502  0.00000000000E+00  0.00000000000E+00  0.64698818359E+02  0.64698818359E+02  0.00000000000E+00 0. -1.
         21   -1    0    0  502  503 -0.00000000000E+00 -0.00000000000E+00 -0.14673752499E+02  0.14673752499E+02  0.00000000000E+00 0. -1.
          3    1    1    2  501    0 -0.25898532668E+02  0.16557886764E+02  0.27737789702E+02  0.41403895783E+02  0.00000000000E+00 0. -1.
         -3    1    1    2    0  503  0.25898532668E+02 -0.16557886764E+02  0.22287276158E+02  0.37968675075E+02  0.00000000000E+00 0.  1.
<mgrwt>
<rscale>  2 0.30739187E+02</rscale>
<asrwt>0</asrwt>
<pdfrwt beam="1">  1       21 0.99536642E-02 0.30739187E+02</pdfrwt>
<pdfrwt beam="2">  1       21 0.22575004E-02 0.30739187E+02</pdfrwt>
<totfact> 0.62590550E+07</totfact>
</mgrwt>
</event>
<event>
 4    1  0.7595771E+004  0.2901134E+02  0.7546771E-02  0.1609281E+00
         21   -1    0    0  501  502  0.00000000000E+00  0.00000000000E+00  0.79473395319E+01  0.79473395319E+01  0.00000000000E+00 0. -1.
         21   -1    0    0  502  503 -0.00000000000E+00 -0.00000000000E+00 -0.12190816729E+03  0.12190816729E+03  0.00000000000E+00 0. -1.
          2    1    1    2  501    0 -0.61021710451E+01 -0.28362318798E+02 -0.80505223782E+02  0.85573060453E+02  0.00000000000E+00 0.  1.
         -2    1    1    2    0  503  0.61021710451E+01  0.28362318798E+02 -0.33455603978E+02  0.44282446371E+02  0.00000000000E+00 0. -1.
<mgrwt>
<rscale>  2 0.29011336E+02</rscale>
<asrwt>0</asrwt>
<pdfrwt beam="1">  1       21 0.12226677E-02 0.29011336E+02</pdfrwt>
<pdfrwt beam="2">  1       21 0.18755101E-01 0.29011336E+02</pdfrwt>
<totfact> 0.53765835E+07</totfact>
</mgrwt>
</event>
<event>
 4    1  0.7595771E+004  0.2119331E+02  0.7546771E-02  0.1722589E+00
         21   -1    0    0  501  502  0.00000000000E+00  0.00000000000E+00  0.70933036259E+01  0.70933036259E+01  0.00000000000E+00 0. -1.
         21   -1    0    0  502  503 -0.00000000000E+00 -0.00000000000E+00 -0.97916542213E+02  0.97916542213E+02  0.00000000000E+00 0. -1.
          3    1    1    2  501    0  0.94158566914E+01  0.18986786016E+02 -0.14202544618E+02  0.25512127980E+02  0.00000000000E+00 0. -1.
         -3    1    1    2    0  503 -0.94158566914E+01 -0.18986786016E+02 -0.76620693969E+02  0.79497717859E+02  0.00000000000E+00 0.  1.
<mgrwt>
<rscale>  2 0.21193310E+02</rscale>
<asrwt>0</asrwt>
<pdfrwt beam="1">  1       21 0.10912775E-02 0.21193310E+02</pdfrwt>
<pdfrwt beam="2">  1       21 0.15064083E-01 0.21193310E+02</pdfrwt>
<totfact> 0.86046795E+07</totfact>
</mgrwt>
</event>
<event>
 4    1  0.7595771E+004  0.2471135E+02  0.7546771E-02  0.1665183E+00
         21   -1    0    0  503  502  0.00000000000E+00  0.00000000000E+00  0.21617488667E+03  0.21617488667E+03  0.00000000000E+00 0. -1.
         21   -1    0    0  501  503 -0.00000000000E+00 -0.00000000000E+00 -0.41653312187E+01  0.41653312187E+01  0.00000000000E+00 0. -1.
          2    1    1    2  501    0  0.16446024821E+02 -0.18443945259E+02  0.16850440862E+03  0.17030674260E+03  0.00000000000E+00 0.  1.
         -2    1    1    2    0  502 -0.16446024821E+02  0.18443945259E+02  0.43505146832E+02  0.50033475294E+02  0.00000000000E+00 0. -1.
<mgrwt>
<rscale>  2 0.24711351E+02</rscale>
<asrwt>0</asrwt>
<pdfrwt beam="1">  1       21 0.33257666E-01 0.24711351E+02</pdfrwt>
<pdfrwt beam="2">  1       21 0.64082036E-03 0.24711351E+02</pdfrwt>
<totfact> 0.48990265E+07</totfact>
</mgrwt>
</event>
<event>
 4    1  0.7595771E+004  0.2063298E+02  0.7546771E-02  0.1733026E+00
         21   -1    0    0  501  502  0.00000000000E+00  0.00000000000E+00  0.44591547200E+01  0.44591547200E+01  0.00000000000E+00 0.  1.
         21   -1    0    0  502  503 -0.00000000000E+00 -0.00000000000E+00 -0.10766601222E+03  0.10766601222E+03  0.00000000000E+00 0.  1.
          3    1    1    2  501    0 -0.20439627999E+02 -0.28180645282E+01 -0.70471401137E+02  0.73429818593E+02  0.00000000000E+00 0. -1.
         -3    1    1    2    0  503  0.20439627999E+02  0.28180645282E+01 -0.32735456367E+02  0.38695348351E+02  0.00000000000E+00 0.  1.
<mgrwt>
<rscale>  2 0.20632980E+02</rscale>
<asrwt>0</asrwt>
<pdfrwt beam="1">  1       21 0.68602385E-03 0.20632980E+02</pdfrwt>
<pdfrwt beam="2">  1       21 0.16564001E-01 0.20632980E+02</pdfrwt>
<totfact> 0.14512481E+08</totfact>
</mgrwt>
</event>
<event>
 4    1  0.7595771E+004  0.2292972E+02  0.7546771E-02  0.1692652E+00
         21   -1    0    0  503  502  0.00000000000E+00  0.00000000000E+00  0.97703015301E+02  0.97703015301E+02  0.00000000000E+00 0. -1.
         21   -1    0    0  501  503 -0.00000000000E+00 -0.00000000000E+00 -0.68729345971E+01  0.68729345971E+01  0.00000000000E+00 0. -1.
          2    1    1    2  501    0  0.19071212478E+02 -0.12730323675E+02  0.69773924856E+02  0.73445033025E+02  0.00000000000E+00 0. -1.
         -2    1    1    2    0  502 -0.19071212478E+02  0.12730323675E+02  0.21056155847E+02  0.31130916873E+02  0.00000000000E+00 0.  1.
<mgrwt>
<rscale>  2 0.22929725E+02</rscale>
<asrwt>0</asrwt>
<pdfrwt beam="1">  1       21 0.15031232E-01 0.22929725E+02</pdfrwt>
<pdfrwt beam="2">  1       21 0.10573746E-02 0.22929725E+02</pdfrwt>
<totfact> 0.92573797E+07</totfact>
</mgrwt>
</event>
<event>
 4    1  0.7595771E+004  0.2566372E+02  0.7546771E-02  0.1651648E+00
         21   -1    0    0  501  502  0.00000000000E+00  0.00000000000E+00  0.34591639967E+03  0.34591639967E+03  0.00000000000E+00 0.  1.
         21   -1    0    0  502  503 -0.00000000000E+00 -0.00000000000E+00 -0.19363366546E+01  0.19363366546E+01  0.00000000000E+00 0.  1.
          4    1    1    2  501    0  0.16393077777E+02  0.19745720392E+02  0.19446455784E+03  0.19615068373E+03  0.00000000000E+00 0. -1.
         -4    1    1    2    0  503 -0.16393077777E+02 -0.19745720392E+02  0.14951550518E+03  0.15170205260E+03  0.00000000000E+00 0.  1.
<mgrwt>
<rscale>  2 0.25663719E+02</rscale>
<asrwt>0</asrwt>
<pdfrwt beam="1">  1       21 0.53217859E-01 0.25663719E+02</pdfrwt>
<pdfrwt beam="2">  1       21 0.29789822E-03 0.25663719E+02</pdfrwt>
<totfact> 0.62411337E+07</totfact>
</mgrwt>
</event>
<event>
 4    1  0.7595771E+004  0.2163601E+02  0.7546771E-02  0.1714624E+00
         21   -1    0    0  503  502  0.00000000000E+00  0.00000000000E+00  0.59825557103E+00  0.59825557103E+00  0.00000000000E+00 0.  1.
         21   -1    0    0  501  503 -0.00000000000E+00 -0.00000000000E+00 -0.82810823238E+03  0.82810823238E+03  0.00000000000E+00 0.  1.
          5    1    1    2  501    0 -0.12186373682E+02 -0.17877613008E+02 -0.51102833930E+03  0.51148614870E+03  0.00000000000E+00 0. -1.
         -5    1    1    2    0  502  0.12186373682E+02  0.17877613008E+02 -0.31648163751E+03  0.31722033925E+03  0.00000000000E+00 0.  1.
<mgrwt>
<rscale>  2 0.21636006E+02</rscale>
<asrwt>0</asrwt>
<pdfrwt beam="1">  1       21 0.92038794E-04 0.21636006E+02</pdfrwt>
<pdfrwt beam="2">  1       21 0.12740199E+00 0.21636006E+02</pdfrwt>
<totfact> 0.51330109E+07</totfact>
</mgrwt>
</event>
<event>
 4    1  0.7595771E+004  0.2213851E+02  0.7546771E-02  0.1705868E+00
         21   -1    0    0  501  502  0.00000000000E+00  0.00000000000E+00  0.67712043346E+01  0.67712043346E+01  0.00000000000E+00 0. -1.
         21   -1    0    0  502  503 -0.00000000000E+00 -0.00000000000E+00 -0.80179159842E+02  0.80179159842E+02  0.00000000000E+00 0. -1.
          1    1    1    2  501    0 -0.21447478901E+02 -0.54880941710E+01 -0.23146528532E+02  0.32029288345E+02  0.00000000000E+00 0.  1.
         -1    1    1    2    0  503  0.21447478901E+02  0.54880941710E+01 -0.50261426976E+02  0.54921075831E+02  0.00000000000E+00 0. -1.
<mgrwt>
<rscale>  2 0.22138508E+02</rscale>
<asrwt>0</asrwt>
<pdfrwt beam="1">  1       21 0.10417238E-02 0.22138508E+02</pdfrwt>
<pdfrwt beam="2">  1       21 0.12335255E-01 0.22138508E+02</pdfrwt>
<totfact> 0.13086326E+08</totfact>
</mgrwt>
</event>
<event>
 4    1  0.7595771E+004  0.3881995E+02  0.7546771E-02  0.1517079E+00
         21   -1    0    0  501  502  0.00000000000E+00  0.00000000000E+00  0.11881796471E+02  0.11881796471E+02  0.00000000000E+00 0. -1.
         21   -1    0    0  502  503 -0.00000000000E+00 -0.00000000000E+00 -0.13499484274E+03  0.13499484274E+03  0.00000000000E+00 0. -1.
          4    1    1    2  501    0  0.37890833851E+02 -0.84423358174E+01 -0.79615498660E+02  0.88575481658E+02  0.00000000000E+00 0.  1.
         -4    1    1    2    0  503 -0.37890833851E+02  0.84423358174E+01 -0.43497547608E+02  0.58301157552E+02  0.00000000000E+00 0. -1.
<mgrwt>
<rscale>  2 0.38819948E+02</rscale>
<asrwt>0</asrwt>
<pdfrwt beam="1">  1       21 0.18279686E-02 0.38819948E+02</pdfrwt>
<pdfrwt beam="2">  1       21 0.20768439E-01 0.38819948E+02</pdfrwt>
<totfact> 0.25563012E+07</totfact>
</mgrwt>
</event>
<event>
 4    1  0.7595771E+004  0.4344439E+02  0.7546771E-02  0.1484293E+00
         21   -1    0    0  501  502  0.00000000000E+00  0.00000000000E+00  0.17044367891E+01  0.17044367891E+01  0.00000000000E+00 0.  1.
         21   -1    0    0  502  503 -0.00000000000E+00 -0.00000000000E+00 -0.11182286456E+04  0.11182286456E+04  0.00000000000E+00 0.  1.
          3    1    1    2  501    0 -0.43407421625E+02  0.17919132861E+01 -0.50304155746E+03  0.50491407560E+03  0.00000000000E+00 0.  1.
         -3    1    1    2    0  503  0.43407421625E+02 -0.17919132861E+01 -0.61348265132E+03  0.61501900676E+03  0.00000000000E+00 0. -1.
<mgrwt>
<rscale>  2 0.43444392E+02</rscale>
<asrwt>0</asrwt>
<pdfrwt beam="1">  1       21 0.26222049E-03 0.43444392E+02</pdfrwt>
<pdfrwt beam="2">  1       21 0.17203554E+00 0.43444392E+02</pdfrwt>
<totfact> 0.60035858E+06</totfact>
</mgrwt>
</event>
<event>
 4    1  0.7595771E+004  0.3410873E+02  0.7546771E-02  0.1556661E+00
         21   -1    0    0  503  502  0.00000000000E+00  0.00000000000E+00  0.56697776117E+01  0.56697776117E+01  0.00000000000E+00 0. -1.
         21   -1    0    0  501  503 -0.00000000000E+00 -0.00000000000E+00 -0.30987910798E+03  0.30987910798E+03  0.00000000000E+00 0. -1.
          3    1    1    2  501    0 -0.30208535590E+02  0.15838243218E+02 -0.60401883089E+02  0.69367089109E+02  0.00000000000E+00 0.  1.
         -3    1    1    2    0  502  0.30208535590E+02 -0.15838243218E+02 -0.24380744727E+03  0.24618179648E+03  0.00000000000E+00 0. -1.
<mgrwt>
<rscale>  2 0.34108732E+02</rscale>
<asrwt>0</asrwt>
<pdfrwt beam="1">  1       21 0.87227359E-03 0.34108732E+02</pdfrwt>
<pdfrwt beam="2">  1       21 0.47673703E-01 0.34108732E+02</pdfrwt>
<totfact> 0.16532103E+07</totfact>
</mgrwt>
</event>
<event>
 4    1  0.7595771E+004  0.2628774E+02  0.7546771E-02  0.1643166E+00
         21   -1    0    0  503  502  0.00000000000E+00  0.00000000000E+00  0.23492353077E+02  0.23492353077E+02  0.00000000000E+00 0. -1.
         21   -1    0    0  501  503 -0.00000000000E+00 -0.00000000000E+00 -0.29862105491E+02  0.29862105491E+02  0.00000000000E+00 0. -1.
          4    1    1    2  501    0  0.25747601919E+02  0.53015274172E+01 -0.64464010496E+01  0.27066608285E+02  0.00000000000E+00 0. -1.
         -4    1    1    2    0  502 -0.25747601919E+02 -0.53015274172E+01  0.76648635259E-01  0.26287850284E+02  0.00000000000E+00 0.  1.
<mgrwt>
<rscale>  2 0.26287739E+02</rscale>
<asrwt>0</asrwt>
<pdfrwt beam="1">  1       21 0.36142082E-02 0.26287739E+02</pdfrwt>
<pdfrwt beam="2">  1       21 0.45941700E-02 0.26287739E+02</pdfrwt>
<totfact> 0.10166953E+08</totfact>
</mgrwt>
</event>
<event>
 4    1  0.7595771E+004  0.2039069E+02  0.7546771E-02  0.1737669E+00
         21   -1    0    0  503  502  0.00000000000E+00  0.00000000000E+00  0.40901718645E+00  0.40901718645E+00  0.00000000000E+00 0. -1.
         21   -1    0    0  501  503 -0.00000000000E+00 -0.00000000000E+00 -0.12224043088E+04  0.12224043088E+04  0.00000000000E+00 0. -1.
          4    1    1    2  501    0 -0.19778048852E+02  0.49607379158E+01 -0.36008709861E+03  0.36066396926E+03  0.00000000000E+00 0. -1.
         -4    1    1    2    0  502  0.19778048852E+02 -0.49607379158E+01 -0.86190819299E+03  0.86214935671E+03  0.00000000000E+00 0.  1.
<mgrwt>
<rscale>  2 0.20390688E+02</rscale>
<asrwt>0</asrwt>
<pdfrwt beam="1">  1       21 0.62925637E-04 0.20390688E+02</pdfrwt>
<pdfrwt beam="2">  1       21 0.18806245E+00 0.20390688E+02</pdfrwt>
<totfact> 0.34347063E+07</totfact>
</mgrwt>
</event>
<event>
 4    1  0.7595771E+004  0.2188746E+02  0.7546771E-02  0.1710206E+00
         21   -1    0    0  501  502  0.00000000000E+00  0.00000000000E+00  0.17407088095E+02  0.17407088095E+02  0.00000000000E+00 0.  1.
         21   -1    0    0  502  503 -0.00000000000E+00 -0.00000000000E+00 -0.35310749047E+02  0.35310749047E+02  0.00000000000E+00 0.  1.
          4    1    1    2  501    0  0.12486073566E+02  0.17976614591E+02 -0.21332253445E+02  0.30563470717E+02  0.00000000000E+00 0. -1.
         -4    1    1    2    0  503 -0.12486073566E+02 -0.17976614591E+02  0.34285924930E+01  0.22154366425E+02  0.00000000000E+00 0.  1.
<mgrwt>
<rscale>  2 0.21887455E+02</rscale>
<asrwt>0</asrwt>
<pdfrwt beam="1">  1       21 0.26780136E-02 0.21887455E+02</pdfrwt>
<pdfrwt beam="2">  1       21 0.54324229E-02 0.21887455E+02</pdfrwt>
<totfact> 0.11803852E+08</totfact>
</mgrwt>
</event>
<event>
 4    1  0.7595771E+004  0.3180554E+02  0.7546771E-02  0.1578947E+00
         21   -1    0    0  501  502  0.00000000000E+00  0.00000000000E+00  0.24697921712E+01  0.24697921712E+01  0.00000000000E+00 0.  1.
         21   -1    0    0  502  503 -0.00000000000E+00 -0.00000000000E+00 -0.46469777354E+03  0.46469777354E+03  0.00000000000E+00 0.  1.
          1    1    1    2  501    0 -0.16303584452E+02  0.27309071795E+02 -0.31155539242E+03  0.31317463948E+03  0.00000000000E+00 0.  1.
         -1    1    1    2    0  503  0.16303584452E+02 -0.27309071795E+02 -0.15067258895E+03  0.15399292623E+03  0.00000000000E+00 0. -1.
<mgrwt>
<rscale>  2 0.31805538E+02</rscale>
<asrwt>0</asrwt>
<pdfrwt beam="1">  1       21 0.37996811E-03 0.31805538E+02</pdfrwt>
<pdfrwt beam="2">  1       21 0.71491950E-01 0.31805538E+02</pdfrwt>
<totfact> 0.25013509E+07</totfact>
</mgrwt>
</event>
<event>
 4    1  0.7595771E+004  0.2221318E+02  0.7546771E-02  0.1704591E+00
         21   -1    0    0  503  502  0.00000000000E+00  0.00000000000E+00  0.30222991185E+04  0.30222991185E+04  0.00000000000E+00 0.  1.
         21   -1    0    0  501  503 -0.00000000000E+00 -0.00000000000E+00 -0.16367234924E+00  0.16367234924E+00  0.00000000000E+00 0.  1.
          5    1    1    2  501    0  0.95169232225E+01 -0.20071211661E+02  0.15867747155E+04  0.15869301885E+04  0.00000000000E+00 0.  1.
         -5    1    1    2    0  502 -0.95169232225E+01  0.20071211661E+02  0.14353607306E+04  0.14355326023E+04  0.00000000000E+00 0. -1.
<mgrwt>
<rscale>  2 0.22213180E+02</rscale>
<asrwt>0</asrwt>
<pdfrwt beam="1">  1       21 0.46492440E+00 0.22213180E+02</pdfrwt>
<pdfrwt beam="2">  1       21 0.25182782E-04 0.22213180E+02</pdfrwt>
<totfact> 0.44971165E+06</totfact>
</mgrwt>
</event>
<event>
 4    1  0.7595771E+004  0.2411797E+02  0.7546771E-02  0.1674004E+00
         21   -1    0    0  503  502  0.00000000000E+00  0.00000000000E+00  0.25400910908E+02  0.25400910908E+02  0.00000000000E+00 0.  1.
         21   -1    0    0  501  503 -0.00000000000E+00 -0.00000000000E+00 -0.33601415741E+02  0.33601415741E+02  0.00000000000E+00 0.  1.
          2    1    1    2  501    0  0.13067243710E+02 -0.20271249299E+02  0.12548608670E+02  0.27187202612E+02  0.00000000000E+00 0. -1.
         -2    1    1    2    0  502 -0.13067243710E+02  0.20271249299E+02 -0.20749113503E+02  0.31815124037E+02  0.00000000000E+00 0.  1.
<mgrwt>
<rscale>  2 0.24117969E+02</rscale>
<asrwt>0</asrwt>
<pdfrwt beam="1">  1       21 0.39078325E-02 0.24117969E+02</pdfrwt>
<pdfrwt beam="2">  1       21 0.51694486E-02 0.24117969E+02</pdfrwt>
<totfact> 0.72795783E+07</totfact>
</mgrwt>
</event>
<event>
 4    1  0.7595771E+004  0.2543402E+02  0.7546771E-02  0.1654845E+00
         21   -1    0    0  501  502  0.00000000000E+00  0.00000000000E+00  0.97875731517E+02  0.97875731517E+02  0.00000000000E+00 0.  1.
         21   -1    0    0  502  503 -0.00000000000E+00 -0.00000000000E+00 -0.72002805184E+01  0.72002805184E+01  0.00000000000E+00 0.  1.
          1    1    1    2  501    0 -0.14102003992E+02 -0.21166547452E+02  0.30285921449E+02  0.39549036469E+02  0.00000000000E+00 0. -1.
         -1    1    1    2    0  503  0.14102003992E+02  0.21166547452E+02  0.60389529550E+02  0.65526975567E+02  0.00000000000E+00 0.  1.
<mgrwt>
<rscale>  2 0.25434018E+02</rscale>
<asrwt>0</asrwt>
<pdfrwt beam="1">  1       21 0.15057804E-01 0.25434018E+02</pdfrwt>
<pdfrwt beam="2">  1       21 0.11077355E-02 0.25434018E+02</pdfrwt>
<totfact> 0.88463140E+07</totfact>
</mgrwt>
</event>
<event>
 4    1  0.7595771E+004  0.3325461E+02  0.7546771E-02  0.1564670E+00
         21   -1    0    0  501  502  0.00000000000E+00  0.00000000000E+00  0.37114947978E+01  0.37114947978E+01  0.00000000000E+00 0.  1.
         21   -1    0    0  502  503 -0.00000000000E+00 -0.00000000000E+00 -0.34953960950E+03  0.34953960950E+03  0.00000000000E+00 0.  1.
          2    1    1    2  501    0 -0.24262282140E+02 -0.22742269261E+02 -0.10506352546E+03  0.11020078733E+03  0.00000000000E+00 0.  1.
         -2    1    1    2    0  503  0.24262282140E+02  0.22742269261E+02 -0.24076458924E+03  0.24305031697E+03  0.00000000000E+00 0. -1.
<mgrwt>
<rscale>  2 0.33254611E+02</rscale>
<asrwt>0</asrwt>
<pdfrwt beam="1">  1       21 0.57099887E-03 0.33254611E+02</pdfrwt>
<pdfrwt beam="2">  1       21 0.53775355E-01 0.33254611E+02</pdfrwt>
<totfact> 0.24563472E+07</totfact>
</mgrwt>
</event>
<event>
 4    1  0.7595771E+004  0.2086250E+02  0.7546771E-02  0.1728701E+00
         21   -1    0    0  501  502  0.00000000000E+00  0.00000000000E+00  0.87801444033E+01  0.87801444033E+01  0.00000000000E+00 0. -1.
         21   -1    0    0  502  503 -0.00000000000E+00 -0.00000000000E+00 -0.53045801653E+02  0.53045801653E+02  0.00000000000E+00 0. -1.
          2    1    1    2  501    0  0.20054602524E+02  0.57495049464E+01 -0.30044284717E+02  0.36577355477E+02  0.00000000000E+00 0. -1.
         -2    1    1    2    0  503 -0.20054602524E+02 -0.57495049464E+01 -0.14221372533E+02  0.25248590579E+02  0.00000000000E+00 0.  1.
<mgrwt>
<rscale>  2 0.20862500E+02</rscale>
<asrwt>0</asrwt>
<pdfrwt beam="1">  1       21 0.13507915E-02 0.20862500E+02</pdfrwt>
<pdfrwt beam="2">  1       21 0.81608924E-02 0.20862500E+02</pdfrwt>
<totfact> 0.17184866E+08</totfact>
</mgrwt>
</event>
<event>
 4    1  0.7595771E+004  0.3456596E+02  0.7546771E-02  0.1552489E+00
         21   -1    0    0  501  502  0.00000000000E+00  0.00000000000E+00  0.48673730372E+03  0.48673730372E+03  0.00000000000E+00 0.  1.
         21   -1    0    0  502  503 -0.00000000000E+00 -0.00000000000E+00 -0.29477642065E+01  0.29477642065E+01  0.00000000000E+00 0.  1.
          5    1    1    2  501    0  0.33560483214E+02 -0.82764543286E+01  0.34202879477E+03  0.34377100253E+03  0.00000000000E+00 0. -1.
         -5    1    1    2    0  503 -0.33560483214E+02  0.82764543286E+01  0.14176074474E+03  0.14591406539E+03  0.00000000000E+00 0.  1.
<mgrwt>
<rscale>  2 0.34565962E+02</rscale>
<asrwt>0</asrwt>
<pdfrwt beam="1">  1       21 0.74882599E-01 0.34565962E+02</pdfrwt>
<pdfrwt beam="2">  1       21 0.45350257E-03 0.34565962E+02</pdfrwt>
<totfact> 0.17682956E+07</totfact>
</mgrwt>
</event>
<event>
 4    1  0.7595771E+004  0.2832708E+02  0.7546771E-02  0.1617352E+00
         21   -1    0    0  503  502  0.00000000000E+00  0.00000000000E+00  0.59695292236E+02  0.59695292236E+02  0.00000000000E+00 0. -1.
         21   -1    0    0  501  503 -0.00000000000E+00 -0.00000000000E+00 -0.13447029820E+02  0.13447029820E+02  0.00000000000E+00 0. -1.
          1    1    1    2  501    0 -0.25299143699E+02  0.12742713755E+02  0.22416019051E+02  0.36123418109E+02  0.00000000000E+00 0.  1.
         -1    1    1    2    0  502  0.25299143699E+02 -0.12742713755E+02  0.23832243364E+02  0.37018903948E+02  0.00000000000E+00 0. -1.
<mgrwt>
<rscale>  2 0.28327079E+02</rscale>
<asrwt>0</asrwt>
<pdfrwt beam="1">  1       21 0.91838910E-02 0.28327079E+02</pdfrwt>
<pdfrwt beam="2">  1       21 0.20687739E-02 0.28327079E+02</pdfrwt>
<totfact> 0.80397914E+07</totfact>
</mgrwt>
</event>
<event>
 4    1  0.7595771E+004  0.2564567E+02  0.7546771E-02  0.1651897E+00
         21   -1    0    0  503  502  0.00000000000E+00  0.00000000000E+00  0.57897346194E+02  0.57897346194E+02  0.00000000000E+00 0. -1.
         21   -1    0    0  501  503 -0.00000000000E+00 -0.00000000000E+00 -0.18246606334E+02  0.18246606334E+02  0.00000000000E+00 0. -1.
          2    1    1    2  501    0  0.13702619889E+02  0.21678068613E+02  0.43215050869E+02  0.50251776806E+02  0.00000000000E+00 0. -1.
         -2    1    1    2    0  502 -0.13702619889E+02 -0.21678068613E+02 -0.35643110082E+01  0.25892175721E+02  0.00000000000E+00 0.  1.
<mgrwt>
<rscale>  2 0.25645671E+02</rscale>
<asrwt>0</asrwt>
<pdfrwt beam="1">  1       21 0.89072839E-02 0.25645671E+02</pdfrwt>
<pdfrwt beam="2">  1       21 0.28071702E-02 0.25645671E+02</pdfrwt>
<totfact> 0.51372727E+07</totfact>
</mgrwt>
</event>
<event>
 4    1  0.7595771E+004  0.2754779E+02  0.7546771E-02  0.1626892E+00
         21   -1    0    0  501  502  0.00000000000E+00  0.00000000000E+00  0.20775158910E+02  0.20775158910E+02  0.00000000000E+00 0. -1.
         21   -1    0    0  502  503 -0.00000000000E+00 -0.00000000000E+00 -0.38448626213E+02  0.38448626213E+02  0.00000000000E+00 0. -1.
          2    1    1    2  501    0  0.16726569218E+02 -0.21888413349E+02 -0.15454567689E+02  0.31586776018E+02  0.00000000000E+00 0. -1.
         -2    1    1    2    0  503 -0.16726569218E+02  0.21888413349E+02 -0.22188996136E+01  0.27637009105E+02  0.00000000000E+00 0.  1.
<mgrwt>
<rscale>  2 0.27547790E+02</rscale>
<asrwt>0</asrwt>
<pdfrwt beam="1">  1       21 0.31961783E-02 0.27547790E+02</pdfrwt>
<pdfrwt beam="2">  1       21 0.59151733E-02 0.27547790E+02</pdfrwt>
<totfact> 0.83243605E+07</totfact>
</mgrwt>
</event>
<event>
 4    1  0.7595771E+004  0.2664627E+02  0.7546771E-02  0.1638423E+00
         21   -1    0    0  503  502  0.00000000000E+00  0.00000000000E+00  0.21724296167E+02  0.21724296167E+02  0.00000000000E+00 0.  1.
         21   -1    0    0  501  503 -0.00000000000E+00 -0.00000000000E+00 -0.42927778486E+02  0.42927778486E+02  0.00000000000E+00 0.  1.
          3    1    1    2  501    0 -0.54899190651E+01  0.26074596924E+02  0.51898581120E+01  0.27146978530E+02  0.00000000000E+00 0.  1.
         -3    1    1    2    0  502  0.54899190651E+01 -0.26074596924E+02 -0.26393340431E+02  0.37505096123E+02  0.00000000000E+00 0. -1.
<mgrwt>
<rscale>  2 0.26646272E+02</rscale>
<asrwt>0</asrwt>
<pdfrwt beam="1">  1       21 0.33421994E-02 0.26646272E+02</pdfrwt>
<pdfrwt beam="2">  1       21 0.66042735E-02 0.26646272E+02</pdfrwt>
<totfact> 0.64370905E+07</totfact>
</mgrwt>
</event>
<event>
 4    1  0.7595771E+004  0.2735394E+02  0.7546771E-02  0.1629325E+00
         21   -1    0    0  501  502  0.00000000000E+00  0.00000000000E+00  0.30405989720E+03  0.30405989720E+03  0.00000000000E+00 0.  1.
         21   -1    0    0  502  503 -0.00000000000E+00 -0.00000000000E+00 -0.28680233215E+01  0.28680233215E+01  0.00000000000E+00 0.  1.
          5    1    1    2  501    0  0.23378952525E+01 -0.27253845916E+02  0.20842133377E+03  0.21020868260E+03  0.00000000000E+00 0.  1.
         -5    1    1    2    0  503 -0.23378952525E+01  0.27253845916E+02  0.92770540114E+02  0.96719237924E+02  0.00000000000E+00 0. -1.
<mgrwt>
<rscale>  2 0.27353937E+02</rscale>
<asrwt>0</asrwt>
<pdfrwt beam="1">  1       21 0.46778420E-01 0.27353937E+02</pdfrwt>
<pdfrwt beam="2">  1       21 0.44123460E-03 0.27353937E+02</pdfrwt>
<totfact> 0.45703296E+07</totfact>
</mgrwt>
</event>
<event>
 4    1  0.7595771E+004  0.2218953E+02  0.7546771E-02  0.1704995E+00
         21   -1    0    0  503  502  0.00000000000E+00  0.00000000000E+00  0.10884061028E+04  0.10884061028E+04  0.00000000000E+00 0. -1.
         21   -1    0    0  501  503 -0.00000000000E+00 -0.00000000000E+00 -0.45768430062E+00  0.45768430062E+00  0.00000000000E+00 0. -1.
          4    1    1    2  501    0  0.17924022232E+02  0.13080698266E+02  0.48537441494E+03  0.48588136198E+03  0.00000000000E+00 0.  1.
         -4    1    1    2    0  502 -0.17924022232E+02 -0.13080698266E+02  0.60257400359E+03  0.60298242515E+03  0.00000000000E+00 0. -1.
<mgrwt>
<rscale>  2 0.22189530E+02</rscale>
<asrwt>0</asrwt>
<pdfrwt beam="1">  1       21 0.16744502E+00 0.22189530E+02</pdfrwt>
<pdfrwt beam="2">  1       21 0.70413841E-04 0.22189530E+02</pdfrwt>
<totfact> 0.39639616E+07</totfact>
</mgrwt>
</event>
<event>
 4    1  0.7595771E+004  0.2754345E+02  0.7546771E-02  0.1626946E+00
         21   -1    0    0  503  502  0.00000000000E+00  0.00000000000E+00  0.16471584772E+03  0.16471584772E+03  0.00000000000E+00 0.  1.
         21   -1    0    0  501  503 -0.00000000000E+00 -0.00000000000E+00 -0.51729905599E+01  0.51729905599E+01  0.00000000000E+00 0.  1.
          4    1    1    2  501    0 -0.25855827836E+02 -0.94930357549E+01  0.10789976549E+03  0.11135978158E+03  0.00000000000E+00 0.  1.
         -4    1    1    2    0  502  0.25855827836E+02  0.94930357549E+01  0.51643091676E+02  0.58529056705E+02  0.00000000000E+00 0. -1.
<mgrwt>
<rscale>  2 0.27543449E+02</rscale>
<asrwt>0</asrwt>
<pdfrwt beam="1">  1       21 0.25340896E-01 0.27543449E+02</pdfrwt>
<pdfrwt beam="2">  1       21 0.79584483E-03 0.27543449E+02</pdfrwt>
<totfact> 0.59616403E+07</totfact>
</mgrwt>
</event>
<event>
 4    1  0.7595771E+004  0.2101517E+02  0.7546771E-02  0.1725863E+00
         21   -1    0    0  501  502  0.00000000000E+00  0.00000000000E+00  0.40226408532E+01  0.40226408532E+01  0.00000000000E+00 0. -1.
         21   -1    0    0  502  503 -0.00000000000E+00 -0.00000000000E+00 -0.11014518182E+03  0.11014518182E+03  0.00000000000E+00 0. -1.
          4    1    1    2  501    0 -0.78077150081E+01  0.19510944426E+02 -0.49810208842E+02  0.54061948456E+02  0.00000000000E+00 0. -1.
         -4    1    1    2    0  503  0.78077150081E+01 -0.19510944426E+02 -0.56312332128E+02  0.60105874220E+02  0.00000000000E+00 0.  1.
<mgrwt>
<rscale>  2 0.21015170E+02</rscale>
<asrwt>0</asrwt>
<pdfrwt beam="1">  1       21 0.61886781E-03 0.21015170E+02</pdfrwt>
<pdfrwt beam="2">  1       21 0.16945413E-01 0.21015170E+02</pdfrwt>
<totfact> 0.16346746E+08</totfact>
</mgrwt>
</event>
<event>
 4    1  0.7595771E+004  0.2297217E+02  0.7546771E-02  0.1691962E+00
         21   -1    0    0  503  502  0.00000000000E+00  0.00000000000E+00  0.14798915178E+01  0.14798915178E+01  0.00000000000E+00 0. -1.
         21   -1    0    0  501  503 -0.00000000000E+00 -0.00000000000E+00 -0.39669601107E+03  0.39669601107E+03  0.00000000000E+00 0. -1.
          4    1    1    2  501    0 -0.22598996813E+02 -0.41238356895E+01 -0.26090726429E+03  0.26191663031E+03  0.00000000000E+00 0. -1.
         -4    1    1    2    0  502  0.22598996813E+02  0.41238356895E+01 -0.13430885527E+03  0.13625927228E+03  0.00000000000E+00 0.  1.
<mgrwt>
<rscale>  2 0.22972172E+02</rscale>
<asrwt>0</asrwt>
<pdfrwt beam="1">  1       21 0.22767542E-03 0.22972172E+02</pdfrwt>
<pdfrwt beam="2">  1       21 0.61030209E-01 0.22972172E+02</pdfrwt>
<totfact> 0.68496374E+07</totfact>
</mgrwt>
</event>
<event>
 4    1  0.7595771E+004  0.3097532E+02  0.7546771E-02  0.1587551E+00
         21   -1    0    0  503  502  0.00000000000E+00  0.00000000000E+00  0.10491211182E+03  0.10491211182E+03  0.00000000000E+00 0. -1.
         21   -1    0    0  501  503 -0.00000000000E+00 -0.00000000000E+00 -0.91488286407E+01  0.91488286407E+01  0.00000000000E+00 0. -1.
          3    1    1    2  501    0  0.24498017212E+02 -0.18955682051E+02  0.46789173991E+02  0.56113256296E+02  0.00000000000E+00 0. -1.
         -3    1    1    2    0  502 -0.24498017212E+02  0.18955682051E+02  0.48974109188E+02  0.57947684165E+02  0.00000000000E+00 0.  1.
<mgrwt>
<rscale>  2 0.30975325E+02</rscale>
<asrwt>0</asrwt>
<pdfrwt beam="1">  1       21 0.16140324E-01 0.30975325E+02</pdfrwt>
<pdfrwt beam="2">  1       21 0.14075122E-02 0.30975325E+02</pdfrwt>
<totfact> 0.57133992E+07</totfact>
</mgrwt>
</event>
<event>
 4    1  0.7595771E+004  0.4126578E+02  0.7546771E-02  0.1499098E+00
         21   -1    0    0  503  502  0.00000000000E+00  0.00000000000E+00  0.15585822618E+03  0.15585822618E+03  0.00000000000E+00 0.  1.
         21   -1    0    0  501  503 -0.00000000000E+00 -0.00000000000E+00 -0.12607214193E+02  0.12607214193E+02  0.00000000000E+00 0.  1.
          5    1    1    2  501    0  0.37462714881E+01  0.41095372536E+02  0.10238776594E+03  0.11039075508E+03  0.00000000000E+00 0. -1.
         -5    1    1    2    0  502 -0.37462714881E+01 -0.41095372536E+02  0.40863246049E+02  0.58074685291E+02  0.00000000000E+00 0.  1.
<mgrwt>
<rscale>  2 0.41265775E+02</rscale>
<asrwt>0</asrwt>
<pdfrwt beam="1">  1       21 0.23978187E-01 0.41265775E+02</pdfrwt>
<pdfrwt beam="2">  1       21 0.19395715E-02 0.41265775E+02</pdfrwt>
<totfact> 0.18164190E+07</totfact>
</mgrwt>
</event>
<event>
 4    1  0.7595771E+004  0.2215889E+02  0.7546771E-02  0.1705518E+00
         21   -1    0    0  503  502  0.00000000000E+00  0.00000000000E+00  0.42008602927E+02  0.42008602927E+02  0.00000000000E+00 0.  1.
         21   -1    0    0  501  503 -0.00000000000E+00 -0.00000000000E+00 -0.11777454826E+02  0.11777454826E+02  0.00000000000E+00 0.  1.
          2    1    1    2  501    0  0.68387656451E+00 -0.22148336193E+02  0.17453124755E+02  0.28206879426E+02  0.00000000000E+00 0.  1.
         -2    1    1    2    0  502 -0.68387656451E+00  0.22148336193E+02  0.12778023346E+02  0.25579178327E+02  0.00000000000E+00 0. -1.
<mgrwt>
<rscale>  2 0.22158892E+02</rscale>
<asrwt>0</asrwt>
<pdfrwt beam="1">  1       21 0.64628619E-02 0.22158892E+02</pdfrwt>
<pdfrwt beam="2">  1       21 0.18119162E-02 0.22158892E+02</pdfrwt>
<totfact> 0.16352241E+08</totfact>
</mgrwt>
</event>
<event>
 4    1  0.7595771E+004  0.5192097E+02  0.7546771E-02  0.1435247E+00
         21   -1    0    0  501  502  0.00000000000E+00  0.00000000000E+00  0.65211695666E+02  0.65211695666E+02  0.00000000000E+00 0. -1.
         21   -1    0    0  502  503 -0.00000000000E+00 -0.00000000000E+00 -0.42850110154E+02  0.42850110154E+02  0.00000000000E+00 0. -1.
          3    1    1    2  501    0 -0.42187089678E+02  0.30266096718E+02  0.10343823931E+01  0.51931272784E+02  0.00000000000E+00 0.  1.
         -3    1    1    2    0  503  0.42187089678E+02 -0.30266096718E+02  0.21327203119E+02  0.56130533036E+02  0.00000000000E+00 0. -1.
<mgrwt>
<rscale>  2 0.51920970E+02</rscale>
<asrwt>0</asrwt>
<pdfrwt beam="1">  1       21 0.10032569E-01 0.51920970E+02</pdfrwt>
<pdfrwt beam="2">  1       21 0.65923246E-02 0.51920970E+02</pdfrwt>
<totfact> 0.12091153E+07</totfact>
</mgrwt>
</event>
<event>
 4    1  0.7595771E+004  0.2144816E+02  0.7546771E-02  0.1717974E+00
         21   -1    0    0  503  502  0.00000000000E+00  0.00000000000E+00  0.75340960427E+00  0.75340960427E+00  0.00000000000E+00 0.  1.
         21   -1    0    0  501  503 -0.00000000000E+00 -0.00000000000E+00 -0.61263171240E+03  0.61263171240E+03  0.00000000000E+00 0.  1.
          5    1    1    2  501    0  0.18979110773E+02  0.99908521543E+01 -0.28823051363E+03  0.28902742561E+03  0.00000000000E+00 0.  1.
         -5    1    1    2    0  502 -0.18979110773E+02 -0.99908521543E+01 -0.32364778917E+03  0.32435769639E+03  0.00000000000E+00 0. -1.
<mgrwt>
<rscale>  2 0.21448165E+02</rscale>
<asrwt>0</asrwt>
<pdfrwt beam="1">  1       21 0.11590921E-03 0.21448165E+02</pdfrwt>
<pdfrwt beam="2">  1       21 0.94250998E-01 0.21448165E+02</pdfrwt>
<totfact> 0.72044033E+07</totfact>
</mgrwt>
</event>
<event>
 4    1  0.7595771E+004  0.2007939E+02  0.7546771E-02  0.1743754E+00
         21   -1    0    0  501  502  0.00000000000E+00  0.00000000000E+00  0.35164156875E+01  0.35164156875E+01  0.00000000000E+00 0. -1.
         21   -1    0    0  502  503 -0.00000000000E+00 -0.00000000000E+00 -0.11676994416E+03  0.11676994416E+03  0.00000000000E+00 0. -1.
          3    1    1    2  501    0  0.19586903668E+02 -0.44198332682E+01 -0.64717042500E+02  0.67760440608E+02  0.00000000000E+00 0. -1.
         -3    1    1    2    0  503 -0.19586903668E+02  0.44198332682E+01 -0.48536485974E+02  0.52525919242E+02  0.00000000000E+00 0.  1.
<mgrwt>
<rscale>  2 0.20079385E+02</rscale>
<asrwt>0</asrwt>
<pdfrwt beam="1">  1       21 0.54098705E-03 0.20079385E+02</pdfrwt>
<pdfrwt beam="2">  1       21 0.17964606E-01 0.20079385E+02</pdfrwt>
<totfact> 0.17780577E+08</totfact>
</mgrwt>
</event>
<event>
 4    1  0.7595771E+004  0.2159310E+02  0.7546771E-02  0.1715386E+00
         21   -1    0    0  501  502  0.00000000000E+00  0.00000000000E+00  0.51758375010E+03  0.51758375010E+03  0.00000000000E+00 0. -1.
         21   -1    0    0  502  503 -0.00000000000E+00 -0.00000000000E+00 -0.10198200882E+01  0.10198200882E+01  0.00000000000E+00 0. -1.
          3    1    1    2  501    0  0.10257519955E+02  0.19001191309E+02  0.34684946292E+03  0.34752095177E+03  0.00000000000E+00 0. -1.
         -3    1    1    2    0  503 -0.10257519955E+02 -0.19001191309E+02  0.16971446709E+03  0.17108261842E+03  0.00000000000E+00 0.  1.
<mgrwt>
<rscale>  2 0.21593100E+02</rscale>
<asrwt>0</asrwt>
<pdfrwt beam="1">  1       21 0.79628059E-01 0.21593100E+02</pdfrwt>
<pdfrwt beam="2">  1       21 0.15689581E-03 0.21593100E+02</pdfrwt>
<totfact> 0.66944634E+07</totfact>
</mgrwt>
</event>
<event>
 4    1  0.7595771E+004  0.2295328E+02  0.7546771E-02  0.1692269E+00
         21   -1    0    0  501  502  0.00000000000E+00  0.00000000000E+00  0.51606553058E+02  0.51606553058E+02  0.00000000000E+00 0.  1.
         21   -1    0    0  502  503 -0.00000000000E+00 -0.00000000000E+00 -0.11516910786E+02  0.11516910786E+02  0.00000000000E+00 0.  1.
          1    1    1    2  501    0  0.14144449206E+02  0.18077262057E+02  0.30680786395E+02  0.38316621728E+02  0.00000000000E+00 0.  1.
         -1    1    1    2    0  503 -0.14144449206E+02 -0.18077262057E+02  0.94088558775E+01  0.24806842116E+02  0.00000000000E+00 0. -1.
<mgrwt>
<rscale>  2 0.22953275E+02</rscale>
<asrwt>0</asrwt>
<pdfrwt beam="1">  1       21 0.79394696E-02 0.22953275E+02</pdfrwt>
<pdfrwt beam="2">  1       21 0.17718325E-02 0.22953275E+02</pdfrwt>
<totfact> 0.12252530E+08</totfact>
</mgrwt>
</event>
<event>
 4    1  0.7595771E+004  0.2349269E+02  0.7546771E-02  0.1683646E+00
         21   -1    0    0  501  502  0.00000000000E+00  0.00000000000E+00  0.33155295494E+01  0.33155295494E+01  0.00000000000E+00 0. -1.
         21   -1    0    0  502  503 -0.00000000000E+00 -0.00000000000E+00 -0.18547010919E+03  0.18547010919E+03  0.00000000000E+00 0. -1.
          4    1    1    2  501    0 -0.61316975448E+01  0.22678376790E+02 -0.60858125615E+02  0.65235097470E+02  0.00000000000E+00 0.  1.
         -4    1    1    2    0  503  0.61316975448E+01 -0.22678376790E+02 -0.12129645402E+03  0.12355054127E+03  0.00000000000E+00 0. -1.
<mgrwt>
<rscale>  2 0.23492690E+02</rscale>
<asrwt>0</asrwt>
<pdfrwt beam="1">  1       21 0.51008145E-03 0.23492690E+02</pdfrwt>
<pdfrwt beam="2">  1       21 0.28533864E-01 0.23492690E+02</pdfrwt>
<totfact> 0.89775827E+07</totfact>
</mgrwt>
</event>
<event>
 4    1  0.7595771E+004  0.2213505E+02  0.7546771E-02  0.1705927E+00
         21   -1    0    0  503  502  0.00000000000E+00  0.00000000000E+00  0.13076236918E+03  0.13076236918E+03  0.00000000000E+00 0. -1.
         21   -1    0    0  501  503 -0.00000000000E+00 -0.00000000000E+00 -0.55362383470E+01  0.55362383470E+01  0.00000000000E+00 0. -1.
          1    1    1    2  501    0  0.47422369125E+01 -0.21621093110E+02  0.10135611582E+03  0.10374498876E+03  0.00000000000E+00 0.  1.
         -1    1    1    2    0  502 -0.47422369125E+01  0.21621093110E+02  0.23870015008E+02  0.32553618765E+02  0.00000000000E+00 0. -1.
<mgrwt>
<rscale>  2 0.22135051E+02</rscale>
<asrwt>0</asrwt>
<pdfrwt beam="1">  1       21 0.20117285E-01 0.22135051E+02</pdfrwt>
<pdfrwt beam="2">  1       21 0.85172907E-03 0.22135051E+02</pdfrwt>
<totfact> 0.76752792E+07</totfact>
</mgrwt>
</event>
<event>
 4    1  0.7595771E+004  0.2173093E+02  0.7546771E-02  0.1712947E+00
         21   -1    0    0  501  502  0.00000000000E+00  0.00000000000E+00  0.74629444230E+01  0.74629444230E+01  0.00000000000E+00 0.  1.
         21   -1    0    0  502  503 -0.00000000000E+00 -0.00000000000E+00 -0.72712220990E+02  0.72712220990E+02  0.00000000000E+00 0.  1.
          4    1    1    2  501    0  0.33315067293E+01  0.21474040279E+02 -0.47065074904E+02  0.51839701183E+02  0.00000000000E+00 0.  1.
         -4    1    1    2    0  503 -0.33315067293E+01 -0.21474040279E+02 -0.18184201662E+02  0.28335464230E+02  0.00000000000E+00 0. -1.
<mgrwt>
<rscale>  2 0.21730931E+02</rscale>
<asrwt>0</asrwt>
<pdfrwt beam="1">  1       21 0.11481453E-02 0.21730931E+02</pdfrwt>
<pdfrwt beam="2">  1       21 0.11186496E-01 0.21730931E+02</pdfrwt>
<totfact> 0.13236137E+08</totfact>
</mgrwt>
</event>
<event>
 4    1  0.7595771E+004  0.2039706E+02  0.7546771E-02  0.1737545E+00
         21   -1    0    0  501  502  0.00000000000E+00  0.00000000000E+00  0.74276903276E+00  0.74276903276E+00  0.00000000000E+00 0.  1.
         21   -1    0    0  502  503 -0.00000000000E+00 -0.00000000000E+00 -0.58516470661E+03  0.58516470661E+03  0.00000000000E+00 0.  1.
          1    1    1    2  501    0 -0.12045043837E+02 -0.16460772189E+02 -0.23160515042E+03  0.23250158236E+03  0.00000000000E+00 0.  1.
         -1    1    1    2    0  503  0.12045043837E+02  0.16460772189E+02 -0.35281678717E+03  0.35340589328E+03  0.00000000000E+00 0. -1.
<mgrwt>
<rscale>  2 0.20397061E+02</rscale>
<asrwt>0</asrwt>
<pdfrwt beam="1">  1       21 0.11427225E-03 0.20397061E+02</pdfrwt>
<pdfrwt beam="2">  1       21 0.90025271E-01 0.20397061E+02</pdfrwt>
<totfact> 0.80105941E+07</totfact>
</mgrwt>
</event>
<event>
 4    1  0.7595771E+004  0.3513071E+02  0.7546771E-02  0.1547443E+00
         21   -1    0    0  501  502  0.00000000000E+00  0.00000000000E+00  0.51331926345E+02  0.51331926345E+02  0.00000000000E+00 0.  1.
         21   -1    0    0  502  503 -0.00000000000E+00 -0.00000000000E+00 -0.28108925671E+02  0.28108925671E+02  0.00000000000E+00 0.  1.
          1    1    1    2  501    0  0.26668061009E+01  0.35029343440E+02 -0.34955095290E+01  0.35304183087E+02  0.00000000000E+00 0. -1.
         -1    1    1    2    0  503 -0.26668061009E+01 -0.35029343440E+02  0.26718510204E+02  0.44136668929E+02  0.00000000000E+00 0.  1.
<mgrwt>
<rscale>  2 0.35130710E+02</rscale>
<asrwt>0</asrwt>
<pdfrwt beam="1">  1       21 0.78972195E-02 0.35130710E+02</pdfrwt>
<pdfrwt beam="2">  1       21 0.43244501E-02 0.35130710E+02</pdfrwt>
<totfact> 0.33868763E+07</totfact>
</mgrwt>
</event>
<event>
 4    1  0.7595771E+004  0.3901375E+02  0.7546771E-02  0.1515597E+00
         21   -1    0    0  501  502  0.00000000000E+00  0.00000000000E+00  0.85573571618E+01  0.85573571618E+01  0.00000000000E+00 0. -1.
         21   -1    0    0  502  503 -0.00000000000E+00 -0.00000000000E+00 -0.22487113453E+03  0.22487113453E+03  0.00000000000E+00 0. -1.
          1    1    1    2  501    0 -0.35443914591E+02 -0.16303432074E+02 -0.16151792011E+03  0.16616290650E+03  0.00000000000E+00 0. -1.
         -1    1    1    2    0  503  0.35443914591E+02  0.16303432074E+02 -0.54795857257E+02  0.67265585193E+02  0.00000000000E+00 0.  1.
<mgrwt>
<rscale>  2 0.39013754E+02</rscale>
<asrwt>0</asrwt>
<pdfrwt beam="1">  1       21 0.13165165E-02 0.39013754E+02</pdfrwt>
<pdfrwt beam="2">  1       21 0.34595558E-01 0.39013754E+02</pdfrwt>
<totfact> 0.16669550E+07</totfact>
</mgrwt>
</event>
<event>
 4    1  0.7595771E+004  0.2211987E+02  0.7546771E-02  0.1706187E+00
         21   -1    0    0  503  502  0.00000000000E+00  0.00000000000E+00  0.35017950750E+00  0.35017950750E+00  0.00000000000E+00 0.  1.
         21   -1    0    0  501  503 -0.00000000000E+00 -0.00000000000E+00 -0.16798744032E+04  0.16798744032E+04  0.00000000000E+00 0.  1.
          2    1    1    2  501    0  0.23607738164E+01 -0.21993534204E+02 -0.11843521372E+04  0.11845586831E+04  0.00000000000E+00 0.  1.
         -2    1    1    2    0  502 -0.23607738164E+01  0.21993534204E+02 -0.49517208653E+03  0.49566589965E+03  0.00000000000E+00 0. -1.
<mgrwt>
<rscale>  2 0.22119873E+02</rscale>
<asrwt>0</asrwt>
<pdfrwt beam="1">  1       21 0.53874803E-04 0.22119873E+02</pdfrwt>
<pdfrwt beam="2">  1       21 0.25843726E+00 0.22119873E+02</pdfrwt>
<totfact> 0.18502614E+07</totfact>
</mgrwt>
</event>
<event>
 4    1  0.7595771E+004  0.2433357E+02  0.7546771E-02  0.1670763E+00
         21   -1    0    0  501  502  0.00000000000E+00  0.00000000000E+00  0.30983618997E+01  0.30983618997E+01  0.00000000000E+00 0. -1.
         21   -1    0    0  502  503 -0.00000000000E+00 -0.00000000000E+00 -0.20553396353E+03  0.20553396353E+03  0.00000000000E+00 0. -1.
          3    1    1    2  501    0  0.13247118213E+02 -0.20411677442E+02 -0.73581653317E+02  0.77500854330E+02  0.00000000000E+00 0. -1.
         -3    1    1    2    0  503 -0.13247118213E+02  0.20411677442E+02 -0.12885394831E+03  0.13113147110E+03  0.00000000000E+00 0.  1.
<mgrwt>
<rscale>  2 0.24333572E+02</rscale>
<asrwt>0</asrwt>
<pdfrwt beam="1">  1       21 0.47667118E-03 0.24333572E+02</pdfrwt>
<pdfrwt beam="2">  1       21 0.31620602E-01 0.24333572E+02</pdfrwt>
<totfact> 0.83040599E+07</totfact>
</mgrwt>
</event>
<event>
 4    1  0.7595771E+004  0.2080550E+02  0.7546771E-02  0.1729768E+00
         21   -1    0    0  503  502  0.00000000000E+00  0.00000000000E+00  0.27665312629E+03  0.27665312629E+03  0.00000000000E+00 0. -1.
         21   -1    0    0  501  503 -0.00000000000E+00 -0.00000000000E+00 -0.23504231330E+01  0.23504231330E+01  0.00000000000E+00 0. -1.
          5    1    1    2  501    0  0.21466104335E+01  0.20694469691E+02  0.56492580663E+02  0.60201998987E+02  0.00000000000E+00 0.  1.
         -5    1    1    2    0  502 -0.21466104335E+01 -0.20694469691E+02  0.21781012249E+03  0.21880155043E+03  0.00000000000E+00 0. -1.
<mgrwt>
<rscale>  2 0.20805504E+02</rscale>
<asrwt>0</asrwt>
<pdfrwt beam="1">  1       21 0.42561994E-01 0.20805504E+02</pdfrwt>
<pdfrwt beam="2">  1       21 0.36160378E-03 0.20805504E+02</pdfrwt>
<totfact> 0.68783433E+07</totfact>
</mgrwt>
</event>
<event>
 4    1  0.7595771E+004  0.2129862E+02  0.7546771E-02  0.1720672E+00
         21   -1    0    0  503  502  0.00000000000E+00  0.00000000000E+00  0.20227141246E+02  0.20227141246E+02  0.00000000000E+00 0. -1.
         21   -1    0    0  501  503 -0.00000000000E+00 -0.00000000000E+00 -0.23774597817E+02  0.23774597817E+02  0.00000000000E+00 0. -1.
          3    1    1    2  501    0  0.58591687837E+01  0.20476847205E+02  0.34645315344E+01  0.21578556696E+02  0.00000000000E+00 0. -1.
         -3    1    1    2    0  502 -0.58591687837E+01 -0.20476847205E+02 -0.70119881050E+01  0.22423182368E+02  0.00000000000E+00 0.  1.
<mgrwt>
<rscale>  2 0.21298618E+02</rscale>
<asrwt>0</asrwt>
<pdfrwt beam="1">  1       21 0.31118679E-02 0.21298618E+02</pdfrwt>
<pdfrwt beam="2">  1       21 0.36576304E-02 0.21298618E+02</pdfrwt>
<totfact> 0.17323074E+08</totfact>
</mgrwt>
</event>
<event>
 4    1  0.7595771E+004  0.4649802E+02  0.7546771E-02  0.1465201E+00
         21   -1    0    0  503  502  0.00000000000E+00  0.00000000000E+00  0.21511337750E+03  0.21511337750E+03  0.00000000000E+00 0. -1.
         21   -1    0    0  501  503 -0.00000000000E+00 -0.00000000000E+00 -0.11389750563E+02  0.11389750563E+02  0.00000000000E+00 0. -1.
          2    1    1    2  501    0 -0.17608775715E+02  0.43034829394E+02  0.14069172185E+03  0.14817633455E+03  0.00000000000E+00 0.  1.
         -2    1    1    2    0  502  0.17608775715E+02 -0.43034829394E+02  0.63031905085E+02  0.78326793512E+02  0.00000000000E+00 0. -1.
<mgrwt>
<rscale>  2 0.46498016E+02</rscale>
<asrwt>0</asrwt>
<pdfrwt beam="1">  1       21 0.33094363E-01 0.46498016E+02</pdfrwt>
<pdfrwt beam="2">  1       21 0.17522695E-02 0.46498016E+02</pdfrwt>
<totfact> 0.11910989E+07</totfact>
</mgrwt>
</event>
<event>
 4    1  0.7595771E+004  0.2636553E+02  0.7546771E-02  0.1642129E+00
         21   -1    0    0  503  502  0.00000000000E+00  0.00000000000E+00  0.24060313133E+01  0.24060313133E+01  0.00000000000E+00 0.  1.
         21   -1    0    0  501  503 -0.00000000000E+00 -0.00000000000E+00 -0.32646329022E+03  0.32646329022E+03  0.00000000000E+00 0.  1.
          2    1    1    2  501    0 -0.24844410975E+02 -0.88258850697E+01 -0.21779409642E+03  0.21938415949E+03  0.00000000000E+00 0. -1.
         -2    1    1    2    0  502  0.24844410975E+02  0.88258850697E+01 -0.10626316249E+03  0.10948516204E+03  0.00000000000E+00 0.  1.
<mgrwt>
<rscale>  2 0.26365527E+02</rscale>
<asrwt>0</asrwt>
<pdfrwt beam="1">  1       21 0.37015880E-03 0.26365527E+02</pdfrwt>
<pdfrwt beam="2">  1       21 0.50225102E-01 0.26365527E+02</pdfrwt>
<totfact> 0.51154692E+07</totfact>
</mgrwt>
</event>
<event>
 4    1  0.7595771E+004  0.3962453E+02  0.7546771E-02  0.1510993E+00
         21   -1    0    0  501  502  0.00000000000E+00  0.00000000000E+00  0.45027348775E+01  0.45027348775E+01  0.00000000000E+00 0. -1.
         21   -1    0    0  502  503 -0.00000000000E+00 -0.00000000000E+00 -0.34877453201E+03  0.34877453201E+03  0.00000000000E+00 0. -1.
          5    1    1    2  501    0 -0.35915990476E+02  0.16737527615E+02 -0.16955200135E+03  0.17412060293E+03  0.00000000000E+00 0.  1.
         -5    1    1    2    0  503  0.35915990476E+02 -0.16737527615E+02 -0.17471979579E+03  0.17915666396E+03  0.00000000000E+00 0. -1.
<mgrwt>
<rscale>  2 0.39624528E+02</rscale>
<asrwt>0</asrwt>
<pdfrwt beam="1">  1       21 0.69272853E-03 0.39624528E+02</pdfrwt>
<pdfrwt beam="2">  1       21 0.53657614E-01 0.39624528E+02</pdfrwt>
<totfact> 0.18954729E+07</totfact>
</mgrwt>
</event>
<event>
 4    1  0.7595771E+004  0.2011799E+02  0.7546771E-02  0.1742992E+00
         21   -1    0    0  501  502  0.00000000000E+00  0.00000000000E+00  0.36904468422E+03  0.36904468422E+03  0.00000000000E+00 0.  1.
         21   -1    0    0  502  503 -0.00000000000E+00 -0.00000000000E+00 -0.11187453738E+01  0.11187453738E+01  0.00000000000E+00 0.  1.
          3    1    1    2  501    0 -0.13980339814E+02 -0.14466632207E+02  0.15798518716E+03  0.15926095790E+03  0.00000000000E+00 0.  1.
         -3    1    1    2    0  503  0.13980339814E+02  0.14466632207E+02  0.20994075168E+03  0.21090247169E+03  0.00000000000E+00 0. -1.
<mgrwt>
<rscale>  2 0.20117986E+02</rscale>
<asrwt>0</asrwt>
<pdfrwt beam="1">  1       21 0.56776008E-01 0.20117986E+02</pdfrwt>
<pdfrwt beam="2">  1       21 0.17211497E-03 0.20117986E+02</pdfrwt>
<totfact> 0.11431215E+08</totfact>
</mgrwt>
</event>
<event>
 4    1  0.7595771E+004  0.2440955E+02  0.7546771E-02  0.1669630E+00
         21   -1    0    0  501  502  0.00000000000E+00  0.00000000000E+00  0.24514025506E+02  0.24514025506E+02  0.00000000000E+00 0.  1.
         21   -1    0    0  502  503 -0.00000000000E+00 -0.00000000000E+00 -0.24814660474E+02  0.24814660474E+02  0.00000000000E+00 0.  1.
          2    1    1    2  501    0  0.12379440759E+02 -0.21037481730E+02  0.33825980764E+01  0.24642811544E+02  0.00000000000E+00 0. -1.
         -2    1    1    2    0  503 -0.12379440759E+02  0.21037481730E+02 -0.36832330435E+01  0.24685874436E+02  0.00000000000E+00 0.  1.
<mgrwt>
<rscale>  2 0.24409551E+02</rscale>
<asrwt>0</asrwt>
<pdfrwt beam="1">  1       21 0.37713886E-02 0.24409551E+02</pdfrwt>
<pdfrwt beam="2">  1       21 0.38176400E-02 0.24409551E+02</pdfrwt>
<totfact> 0.12496885E+08</totfact>
</mgrwt>
</event>
<event>
 4    1  0.7595771E+004  0.2169283E+02  0.7546771E-02  0.1713619E+00
         21   -1    0    0  503  502  0.00000000000E+00  0.00000000000E+00  0.82438452879E+02  0.82438452879E+02  0.00000000000E+00 0.  1.
         21   -1    0    0  501  503 -0.00000000000E+00 -0.00000000000E+00 -0.65303344364E+01  0.65303344364E+01  0.00000000000E+00 0.  1.
          3    1    1    2  501    0 -0.15906106670E+02  0.14750412341E+02  0.22170698782E+02  0.31018039560E+02  0.00000000000E+00 0. -1.
         -3    1    1    2    0  502  0.15906106670E+02 -0.14750412341E+02  0.53737419660E+02  0.57950747755E+02  0.00000000000E+00 0.  1.
<mgrwt>
<rscale>  2 0.21692830E+02</rscale>
<asrwt>0</asrwt>
<pdfrwt beam="1">  1       21 0.12682838E-01 0.21692830E+02</pdfrwt>
<pdfrwt beam="2">  1       21 0.10046669E-02 0.21692830E+02</pdfrwt>
<totfact> 0.13109475E+08</totfact>
</mgrwt>
</event>
<event>
 4    1  0.7595771E+004  0.3994686E+02  0.7546771E-02  0.1508603E+00
         21   -1    0    0  503  502  0.00000000000E+00  0.00000000000E+00  0.10138391245E+04  0.10138391245E+04  0.00000000000E+00 0. -1.
         21   -1    0    0  501  503 -0.00000000000E+00 -0.00000000000E+00 -0.15972557827E+01  0.15972557827E+01  0.00000000000E+00 0. -1.
          3    1    1    2  501    0  0.39050605111E+02  0.84143704466E+01  0.56742508766E+03  0.56882948367E+03  0.00000000000E+00 0. -1.
         -3    1    1    2    0  502 -0.39050605111E+02 -0.84143704466E+01  0.44481678109E+03  0.44660689664E+03  0.00000000000E+00 0.  1.
<mgrwt>
<rscale>  2 0.39946857E+02</rscale>
<asrwt>0</asrwt>
<pdfrwt beam="1">  1       21 0.15597474E+00 0.39946857E+02</pdfrwt>
<pdfrwt beam="2">  1       21 0.24573247E-03 0.39946857E+02</pdfrwt>
<totfact> 0.84049457E+06</totfact>
</mgrwt>
</event>
<event>
 4    1  0.7595771E+004  0.2342638E+02  0.7546771E-02  0.1684690E+00
         21   -1    0    0  503  502  0.00000000000E+00  0.00000000000E+00  0.13995837468E+03  0.13995837468E+03  0.00000000000E+00 0.  1.
         21   -1    0    0  501  503 -0.00000000000E+00 -0.00000000000E+00 -0.39216512135E+01  0.39216512135E+01  0.00000000000E+00 0.  1.
          2    1    1    2  501    0 -0.21669636907E+02 -0.89006710736E+01  0.67189725595E+02  0.71156548080E+02  0.00000000000E+00 0. -1.
         -2    1    1    2    0  502  0.21669636907E+02  0.89006710736E+01  0.68846997874E+02  0.72723477815E+02  0.00000000000E+00 0.  1.
<mgrwt>
<rscale>  2 0.23426376E+02</rscale>
<asrwt>0</asrwt>
<pdfrwt beam="1">  1       21 0.21532054E-01 0.23426376E+02</pdfrwt>
<pdfrwt beam="2">  1       21 0.60333107E-03 0.23426376E+02</pdfrwt>
<totfact> 0.11560957E+08</totfact>
</mgrwt>
</event>
<event>
 4    1  0.7595771E+004  0.2787499E+02  0.7546771E-02  0.1622840E+00
         21   -1    0    0  503  502  0.00000000000E+00  0.00000000000E+00  0.86161360060E+01  0.86161360060E+01  0.00000000000E+00 0.  1.
         21   -1    0    0  501  503 -0.00000000000E+00 -0.00000000000E+00 -0.99048035613E+02  0.99048035613E+02  0.00000000000E+00 0.  1.
          1    1    1    2  501    0  0.23840556225E+02 -0.14444480915E+02 -0.29109572507E+02  0.40303627151E+02  0.00000000000E+00 0. -1.
         -1    1    1    2    0  502 -0.23840556225E+02  0.14444480915E+02 -0.61322327100E+02  0.67360544468E+02  0.00000000000E+00 0.  1.
<mgrwt>
<rscale>  2 0.27874991E+02</rscale>
<asrwt>0</asrwt>
<pdfrwt beam="1">  1       21 0.13255595E-02 0.27874991E+02</pdfrwt>
<pdfrwt beam="2">  1       21 0.15238159E-01 0.27874991E+02</pdfrwt>
<totfact> 0.67513412E+07</totfact>
</mgrwt>
</event>
<event>
 4    1  0.7595771E+004  0.2876719E+02  0.7546771E-02  0.1612130E+00
         21   -1    0    0  503  502  0.00000000000E+00  0.00000000000E+00  0.52887628621E+01  0.52887628621E+01  0.00000000000E+00 0. -1.
         21   -1    0    0  501  503 -0.00000000000E+00 -0.00000000000E+00 -0.15714129399E+03  0.15714129399E+03  0.00000000000E+00 0. -1.
          3    1    1    2  501    0  0.38810931677E+01  0.28504182675E+02 -0.81220554846E+02  0.86164550968E+02  0.00000000000E+00 0.  1.
         -3    1    1    2    0  502 -0.38810931677E+01 -0.28504182675E+02 -0.70631976283E+02  0.76265505884E+02  0.00000000000E+00 0. -1.
<mgrwt>
<rscale>  2 0.28767192E+02</rscale>
<asrwt>0</asrwt>
<pdfrwt beam="1">  1       21 0.81365579E-03 0.28767192E+02</pdfrwt>
<pdfrwt beam="2">  1       21 0.24175585E-01 0.28767192E+02</pdfrwt>
<totfact> 0.63385055E+07</totfact>
</mgrwt>
</event>
<event>
 4    1  0.7595771E+004  0.2611503E+02  0.7546771E-02  0.1645484E+00
         21   -1    0    0  501  502  0.00000000000E+00  0.00000000000E+00  0.24411292621E+01  0.24411292621E+01  0.00000000000E+00 0.  1.
         21   -1    0    0  502  503 -0.00000000000E+00 -0.00000000000E+00 -0.28687037400E+03  0.28687037400E+03  0.00000000000E+00 0.  1.
          2    1    1    2  501    0  0.12390299198E+02 -0.22988595461E+02 -0.16559413913E+03  0.16764072879E+03  0.00000000000E+00 0. -1.
         -2    1    1    2    0  503 -0.12390299198E+02  0.22988595461E+02 -0.11883510561E+03  0.12167077447E+03  0.00000000000E+00 0.  1.
<mgrwt>
<rscale>  2 0.26115035E+02</rscale>
<asrwt>0</asrwt>
<pdfrwt beam="1">  1       21 0.37555851E-03 0.26115035E+02</pdfrwt>
<pdfrwt beam="2">  1       21 0.44133885E-01 0.26115035E+02</pdfrwt>
<totfact> 0.64198671E+07</totfact>
</mgrwt>
</event>
<event>
 4    1  0.7595771E+004  0.2760106E+02  0.7546771E-02  0.1626227E+00
         21   -1    0    0  503  502  0.00000000000E+00  0.00000000000E+00  0.66090036724E+03  0.66090036724E+03  0.00000000000E+00 0.  1.
         21   -1    0    0  501  503 -0.00000000000E+00 -0.00000000000E+00 -0.11666048971E+01  0.11666048971E+01  0.00000000000E+00 0.  1.
          1    1    1    2  501    0  0.24204717797E+02  0.13264624029E+02  0.36600979779E+03  0.36704903036E+03  0.00000000000E+00 0. -1.
         -1    1    1    2    0  502 -0.24204717797E+02 -0.13264624029E+02  0.29372396455E+03  0.29501794177E+03  0.00000000000E+00 0.  1.
<mgrwt>
<rscale>  2 0.27601062E+02</rscale>
<asrwt>0</asrwt>
<pdfrwt beam="1">  1       21 0.10167668E+00 0.27601062E+02</pdfrwt>
<pdfrwt beam="2">  1       21 0.17947820E-03 0.27601062E+02</pdfrwt>
<totfact> 0.34360355E+07</totfact>
</mgrwt>
</event>
<event>
 4    1  0.7595771E+004  0.2035653E+02  0.7546771E-02  0.1738330E+00
         21   -1    0    0  503  502  0.00000000000E+00  0.00000000000E+00  0.44624101055E+02  0.44624101055E+02  0.00000000000E+00 0. -1.
         21   -1    0    0  501  503 -0.00000000000E+00 -0.00000000000E+00 -0.10890383178E+02  0.10890383178E+02  0.00000000000E+00 0. -1.
          4    1    1    2  501    0 -0.19234900656E+02  0.66638570368E+01  0.62136238699E+01  0.21283738287E+02  0.00000000000E+00 0.  1.
         -4    1    1    2    0  502  0.19234900656E+02 -0.66638570368E+01  0.27520094007E+02  0.34230745946E+02  0.00000000000E+00 0. -1.
<mgrwt>
<rscale>  2 0.20356532E+02</rscale>
<asrwt>0</asrwt>
<pdfrwt beam="1">  1       21 0.68652462E-02 0.20356532E+02</pdfrwt>
<pdfrwt beam="2">  1       21 0.16754436E-02 0.20356532E+02</pdfrwt>
<totfact> 0.16280730E+08</totfact>
</mgrwt>
</event>
<event>
 4    1  0.7595771E+004  0.2040213E+02  0.7546771E-02  0.1737447E+00
         21   -1    0    0  501  502  0.00000000000E+00  0.00000000000E+00  0.32551618657E+01  0.32551618657E+01  0.00000000000E+00 0.  1.
         21   -1    0    0  502  503 -0.00000000000E+00 -0.00000000000E+00 -0.13477248783E+03  0.13477248783E+03  0.00000000000E+00 0.  1.
          2    1    1    2  501    0 -0.21770413868E+01 -0.20285649700E+02 -0.81373808333E+02  0.83892453628E+02  0.00000000000E+00 0. -1.
         -2    1    1    2    0  503  0.21770413868E+01  0.20285649700E+02 -0.50143517632E+02  0.54135196069E+02  0.00000000000E+00 0.  1.
<mgrwt>
<rscale>  2 0.20402135E+02</rscale>
<asrwt>0</asrwt>
<pdfrwt beam="1">  1       21 0.50079418E-03 0.20402135E+02</pdfrwt>
<pdfrwt beam="2">  1       21 0.20734227E-01 0.20402135E+02</pdfrwt>
<totfact> 0.15620220E+08</totfact>
</mgrwt>
</event>
<event>
 4    1  0.7595771E+004  0.2714001E+02  0.7546771E-02  0.1632039E+00
         21   -1    0    0  501  502  0.00000000000E+00  0.00000000000E+00  0.69711691978E+00  0.69711691978E+00  0.00000000000E+00 0.  1.
         21   -1    0    0  502  503 -0.00000000000E+00 -0.00000000000E+00 -0.12886919461E+04  0.12886919461E+04  0.00000000000E+00 0.  1.
          3    1    1    2  501    0 -0.20285425585E+02  0.18030021703E+02 -0.91758779659E+03  0.91798907653E+03  0.00000000000E+00 0.  1.
         -3    1    1    2    0  503  0.20285425585E+02 -0.18030021703E+02 -0.37040703257E+03  0.37139998647E+03  0.00000000000E+00 0. -1.
<mgrwt>
<rscale>  2 0.27140011E+02</rscale>
<asrwt>0</asrwt>
<pdfrwt beam="1">  1       21 0.10724992E-03 0.27140011E+02</pdfrwt>
<pdfrwt beam="2">  1       21 0.19825814E+00 0.27140011E+02</pdfrwt>
<totfact> 0.14683995E+07</totfact>
</mgrwt>
</event>
<event>
 4    1  0.7595771E+004  0.2730425E+02  0.7546771E-02  0.1629953E+00
         21   -1    0    0  503  502  0.00000000000E+00  0.00000000000E+00  0.51141408151E+01  0.51141408151E+01  0.00000000000E+00 0.  1.
         21   -1    0    0  501  503 -0.00000000000E+00 -0.00000000000E+00 -0.14618532423E+03  0.14618532423E+03  0.00000000000E+00 0.  1.
          2    1    1    2  501    0 -0.23306088732E+02  0.14224922237E+02 -0.74535571052E+02  0.79379301689E+02  0.00000000000E+00 0. -1.
         -2    1    1    2    0  502  0.23306088732E+02 -0.14224922237E+02 -0.66535612362E+02  0.71920163355E+02  0.00000000000E+00 0.  1.
<mgrwt>
<rscale>  2 0.27304252E+02</rscale>
<asrwt>0</asrwt>
<pdfrwt beam="1">  1       21 0.78679088E-03 0.27304252E+02</pdfrwt>
<pdfrwt beam="2">  1       21 0.22490050E-01 0.27304252E+02</pdfrwt>
<totfact> 0.74920337E+07</totfact>
</mgrwt>
</event>
<event>
 4    1  0.7595771E+004  0.2031793E+02  0.7546771E-02  0.1739078E+00
         21   -1    0    0  503  502  0.00000000000E+00  0.00000000000E+00  0.70893941799E+00  0.70893941799E+00  0.00000000000E+00 0.  1.
         21   -1    0    0  501  503 -0.00000000000E+00 -0.00000000000E+00 -0.59029442349E+03  0.59029442349E+03  0.00000000000E+00 0.  1.
          3    1    1    2  501    0  0.10314292080E+02  0.17505251641E+02 -0.32917251094E+03  0.32979896970E+03  0.00000000000E+00 0.  1.
         -3    1    1    2    0  502 -0.10314292080E+02 -0.17505251641E+02 -0.26041297313E+03  0.26120439321E+03  0.00000000000E+00 0. -1.
<mgrwt>
<rscale>  2 0.20317934E+02</rscale>
<asrwt>0</asrwt>
<pdfrwt beam="1">  1       21 0.10906741E-03 0.20317934E+02</pdfrwt>
<pdfrwt beam="2">  1       21 0.90814690E-01 0.20317934E+02</pdfrwt>
<totfact> 0.83930826E+07</totfact>
</mgrwt>
</event>
<event>
 4    1  0.7595771E+004  0.2187978E+02  0.7546771E-02  0.1710339E+00
         21   -1    0    0  501  502  0.00000000000E+00  0.00000000000E+00  0.24229159765E+02  0.24229159765E+02  0.00000000000E+00 0. -1.
         21   -1    0    0  502  503 -0.00000000000E+00 -0.00000000000E+00 -0.20273724892E+02  0.20273724892E+02  0.00000000000E+00 0. -1.
          1    1    1    2  501    0 -0.85961385054E+01 -0.20120421566E+02 -0.15704954055E+01  0.21936075697E+02  0.00000000000E+00 0. -1.
         -1    1    1    2    0  503  0.85961385054E+01  0.20120421566E+02  0.55259302779E+01  0.22566808960E+02  0.00000000000E+00 0.  1.
<mgrwt>
<rscale>  2 0.21879784E+02</rscale>
<asrwt>0</asrwt>
<pdfrwt beam="1">  1       21 0.37275630E-02 0.21879784E+02</pdfrwt>
<pdfrwt beam="2">  1       21 0.31190346E-02 0.21879784E+02</pdfrwt>
<totfact> 0.16898738E+08</totfact>
</mgrwt>
</event>
<event>
 4    1  0.7595771E+004  0.2339009E+02  0.7546771E-02  0.1685264E+00
         21   -1    0    0  503  502  0.00000000000E+00  0.00000000000E+00  0.45207925264E+01  0.45207925264E+01  0.00000000000E+00 0. -1.
         21   -1    0    0  501  503 -0.00000000000E+00 -0.00000000000E+00 -0.14228062821E+03  0.14228062821E+03  0.00000000000E+00 0. -1.
          4    1    1    2  501    0  0.23092983208E+02  0.37162287335E+01 -0.97255070012E+02  0.10002822038E+03  0.00000000000E+00 0.  1.
         -4    1    1    2    0  502 -0.23092983208E+02 -0.37162287335E+01 -0.40504765674E+02  0.46773200359E+02  0.00000000000E+00 0. -1.
<mgrwt>
<rscale>  2 0.23390088E+02</rscale>
<asrwt>0</asrwt>
<pdfrwt beam="1">  1       21 0.69550656E-03 0.23390088E+02</pdfrwt>
<pdfrwt beam="2">  1       21 0.21889327E-01 0.23390088E+02</pdfrwt>
<totfact> 0.90889846E+07</totfact>
</mgrwt>
</event>
<event>
 4    1  0.7595771E+004  0.2867028E+02  0.7546771E-02  0.1613270E+00
         21   -1    0    0  503  502  0.00000000000E+00  0.00000000000E+00  0.79795694754E+01  0.79795694754E+01  0.00000000000E+00 0. -1.
         21   -1    0    0  501  503 -0.00000000000E+00 -0.00000000000E+00 -0.10974288701E+03  0.10974288701E+03  0.00000000000E+00 0. -1.
          4    1    1    2  501    0 -0.27856884820E+02  0.67807969430E+01 -0.65459802598E+02  0.71463074348E+02  0.00000000000E+00 0.  1.
         -4    1    1    2    0  502  0.27856884820E+02 -0.67807969430E+01 -0.36303514940E+02  0.46259382141E+02  0.00000000000E+00 0. -1.
<mgrwt>
<rscale>  2 0.28670285E+02</rscale>
<asrwt>0</asrwt>
<pdfrwt beam="1">  1       21 0.12276261E-02 0.28670285E+02</pdfrwt>
<pdfrwt beam="2">  1       21 0.16883520E-01 0.28670285E+02</pdfrwt>
<totfact> 0.64003525E+07</totfact>
</mgrwt>
</event>
<event>
 4    1  0.7595771E+004  0.2131815E+02  0.7546771E-02  0.1720318E+00
         21   -1    0    0  503  502  0.00000000000E+00  0.00000000000E+00  0.80133410013E+01  0.80133410013E+01  0.00000000000E+00 0. -1.
         21   -1    0    0  501  503 -0.00000000000E+00 -0.00000000000E+00 -0.83240652615E+02  0.83240652615E+02  0.00000000000E+00 0. -1.
          3    1    1    2  501    0  0.12667248244E+02  0.17146558028E+02 -0.11856347891E+02  0.24393372370E+02  0.00000000000E+00 0.  1.
         -3    1    1    2    0  502 -0.12667248244E+02 -0.17146558028E+02 -0.63370963722E+02  0.66860621246E+02  0.00000000000E+00 0. -1.
<mgrwt>
<rscale>  2 0.21318153E+02</rscale>
<asrwt>0</asrwt>
<pdfrwt beam="1">  1       21 0.12328216E-02 0.21318153E+02</pdfrwt>
<pdfrwt beam="2">  1       21 0.12806255E-01 0.21318153E+02</pdfrwt>
<totfact> 0.94354188E+07</totfact>
</mgrwt>
</event>
<event>
 4    1  0.7595771E+004  0.2340457E+02  0.7546771E-02  0.1685035E+00
         21   -1    0    0  503  502  0.00000000000E+00  0.00000000000E+00  0.11058329205E+01  0.11058329205E+01  0.00000000000E+00 0.  1.
         21   -1    0    0  501  503 -0.00000000000E+00 -0.00000000000E+00 -0.10616622299E+04  0.10616622299E+04  0.00000000000E+00 0.  1.
          1    1    1    2  501    0  0.80850528331E+01  0.21963742906E+02 -0.91837795898E+03  0.91867613968E+03  0.00000000000E+00 0. -1.
         -1    1    1    2    0  502 -0.80850528331E+01 -0.21963742906E+02 -0.14217843803E+03  0.14409192316E+03  0.00000000000E+00 0.  1.
<mgrwt>
<rscale>  2 0.23404574E+02</rscale>
<asrwt>0</asrwt>
<pdfrwt beam="1">  1       21 0.17012883E-03 0.23404574E+02</pdfrwt>
<pdfrwt beam="2">  1       21 0.16333199E+00 0.23404574E+02</pdfrwt>
<totfact> 0.12073285E+07</totfact>
</mgrwt>
</event>
<event>
 4    1  0.7595771E+004  0.2230699E+02  0.7546771E-02  0.1702996E+00
         21   -1    0    0  503  502  0.00000000000E+00  0.00000000000E+00  0.18443862088E+03  0.18443862088E+03  0.00000000000E+00 0.  1.
         21   -1    0    0  501  503 -0.00000000000E+00 -0.00000000000E+00 -0.30814374328E+01  0.30814374328E+01  0.00000000000E+00 0.  1.
          4    1    1    2  501    0  0.92761532539E+01 -0.20286813377E+02  0.12375588876E+03  0.12575023586E+03  0.00000000000E+00 0.  1.
         -4    1    1    2    0  502 -0.92761532539E+01  0.20286813377E+02  0.57601294691E+02  0.61769822456E+02  0.00000000000E+00 0. -1.
<mgrwt>
<rscale>  2 0.22306990E+02</rscale>
<asrwt>0</asrwt>
<pdfrwt beam="1">  1       21 0.28375164E-01 0.22306990E+02</pdfrwt>
<pdfrwt beam="2">  1       21 0.47406744E-03 0.22306990E+02</pdfrwt>
<totfact> 0.99624425E+07</totfact>
</mgrwt>
</event>
<event>
 4    1  0.7595771E+004  0.2552005E+02  0.7546771E-02  0.1653643E+00
         21   -1    0    0  501  502  0.00000000000E+00  0.00000000000E+00  0.62384971073E+01  0.62384971073E+01  0.00000000000E+00 0.  1.
         21   -1    0    0  502  503 -0.00000000000E+00 -0.00000000000E+00 -0.11918881915E+03  0.11918881915E+03  0.00000000000E+00 0.  1.
          3    1    1    2  501    0  0.21914482732E+02 -0.13077785046E+02 -0.34381254828E+02  0.42817562970E+02  0.00000000000E+00 0. -1.
         -3    1    1    2    0  503 -0.21914482732E+02  0.13077785046E+02 -0.78569067210E+02  0.82609753282E+02  0.00000000000E+00 0.  1.
<mgrwt>
<rscale>  2 0.25520051E+02</rscale>
<asrwt>0</asrwt>
<pdfrwt beam="1">  1       21 0.95976885E-03 0.25520051E+02</pdfrwt>
<pdfrwt beam="2">  1       21 0.18336740E-01 0.25520051E+02</pdfrwt>
<totfact> 0.78262896E+07</totfact>
</mgrwt>
</event>
<event>
 4    1  0.7595771E+004  0.2302986E+02  0.7546771E-02  0.1691027E+00
         21   -1    0    0  501  502  0.00000000000E+00  0.00000000000E+00  0.30787284732E+03  0.30787284732E+03  0.00000000000E+00 0. -1.
         21   -1    0    0  502  503 -0.00000000000E+00 -0.00000000000E+00 -0.17704472358E+01  0.17704472358E+01  0.00000000000E+00 0. -1.
          3    1    1    2  501    0  0.44211316089E+01 -0.22601506425E+02  0.12762768480E+03  0.12968886007E+03  0.00000000000E+00 0. -1.
         -3    1    1    2    0  503 -0.44211316089E+01  0.22601506425E+02  0.17847471529E+03  0.17995443449E+03  0.00000000000E+00 0.  1.
<mgrwt>
<rscale>  2 0.23029861E+02</rscale>
<asrwt>0</asrwt>
<pdfrwt beam="1">  1       21 0.47365011E-01 0.23029861E+02</pdfrwt>
<pdfrwt beam="2">  1       21 0.27237674E-03 0.23029861E+02</pdfrwt>
<totfact> 0.86963814E+07</totfact>
</mgrwt>
</event>
<event>
 4    1  0.7595771E+004  0.2292543E+02  0.7546771E-02  0.1692722E+00
         21   -1    0    0  501  502  0.00000000000E+00  0.00000000000E+00  0.27653957179E+03  0.27653957179E+03  0.00000000000E+00 0. -1.
         21   -1    0    0  502  503 -0.00000000000E+00 -0.00000000000E+00 -0.39994697459E+01  0.39994697459E+01  0.00000000000E+00 0. -1.
          3    1    1    2  501    0 -0.53024927593E+01 -0.22303789345E+02  0.23788572645E+03  0.23898785387E+03  0.00000000000E+00 0.  1.
         -3    1    1    2    0  503  0.53024927593E+01  0.22303789345E+02  0.34654375590E+02  0.41551187662E+02  0.00000000000E+00 0. -1.
<mgrwt>
<rscale>  2 0.22925432E+02</rscale>
<asrwt>0</asrwt>
<pdfrwt beam="1">  1       21 0.42544534E-01 0.22925432E+02</pdfrwt>
<pdfrwt beam="2">  1       21 0.61530326E-03 0.22925432E+02</pdfrwt>
<totfact> 0.32254218E+07</totfact>
</mgrwt>
</event>
<event>
 4    1  0.7595771E+004  0.2523550E+02  0.7546771E-02  0.1657642E+00
         21   -1    0    0  501  502  0.00000000000E+00  0.00000000000E+00  0.58069829909E+01  0.58069829909E+01  0.00000000000E+00 0. -1.
         21   -1    0    0  502  503 -0.00000000000E+00 -0.00000000000E+00 -0.15870271273E+03  0.15870271273E+03  0.00000000000E+00 0. -1.
          5    1    1    2  501    0  0.15414233623E+02 -0.19980786708E+02 -0.30725508924E+02  0.39760373920E+02  0.00000000000E+00 0.  1.
         -5    1    1    2    0  503 -0.15414233623E+02  0.19980786708E+02 -0.12217022082E+03  0.12474932180E+03  0.00000000000E+00 0. -1.
<mgrwt>
<rscale>  2 0.25235500E+02</rscale>
<asrwt>0</asrwt>
<pdfrwt beam="1">  1       21 0.89338193E-03 0.25235500E+02</pdfrwt>
<pdfrwt beam="2">  1       21 0.24415804E-01 0.25235500E+02</pdfrwt>
<totfact> 0.52497327E+07</totfact>
</mgrwt>
</event>
<event>
 4    1  0.7595771E+004  0.2563722E+02  0.7546771E-02  0.1652014E+00
         21   -1    0    0  501  502  0.00000000000E+00  0.00000000000E+00  0.15945237519E+03  0.15945237519E+03  0.00000000000E+00 0. -1.
         21   -1    0    0  502  503 -0.00000000000E+00 -0.00000000000E+00 -0.44694635807E+01  0.44694635807E+01  0.00000000000E+00 0. -1.
          2    1    1    2  501    0 -0.17464203076E+02 -0.18768819268E+02  0.54639835019E+02  0.60355435022E+02  0.00000000000E+00 0. -1.
         -2    1    1    2    0  503  0.17464203076E+02  0.18768819268E+02  0.10034307659E+03  0.10356640375E+03  0.00000000000E+00 0.  1.
<mgrwt>
<rscale>  2 0.25637218E+02</rscale>
<asrwt>0</asrwt>
<pdfrwt beam="1">  1       21 0.24531130E-01 0.25637218E+02</pdfrwt>
<pdfrwt beam="2">  1       21 0.68760990E-03 0.25637218E+02</pdfrwt>
<totfact> 0.77325907E+07</totfact>
</mgrwt>
</event>
<event>
 4    1  0.7595771E+004  0.3032431E+02  0.7546771E-02  0.1594531E+00
         21   -1    0    0  503  502  0.00000000000E+00  0.00000000000E+00  0.58903947436E+01  0.58903947436E+01  0.00000000000E+00 0. -1.
         21   -1    0    0  501  503 -0.00000000000E+00 -0.00000000000E+00 -0.16253766131E+03  0.16253766131E+03  0.00000000000E+00 0. -1.
          5    1    1    2  501    0  0.27774575779E+02 -0.12171145512E+02 -0.61579919637E+02  0.68641462290E+02  0.00000000000E+00 0.  1.
         -5    1    1    2    0  502 -0.27774575779E+02  0.12171145512E+02 -0.95067346934E+02  0.99786593769E+02  0.00000000000E+00 0. -1.
<mgrwt>
<rscale>  2 0.30324311E+02</rscale>
<asrwt>0</asrwt>
<pdfrwt beam="1">  1       21 0.90621475E-03 0.30324311E+02</pdfrwt>
<pdfrwt beam="2">  1       21 0.25005789E-01 0.30324311E+02</pdfrwt>
<totfact> 0.51291943E+07</totfact>
</mgrwt>
</event>
<event>
 4    1  0.7595771E+004  0.3591029E+02  0.7546771E-02  0.1540662E+00
         21   -1    0    0  503  502  0.00000000000E+00  0.00000000000E+00  0.72676896694E+02  0.72676896694E+02  0.00000000000E+00 0. -1.
         21   -1    0    0  501  503 -0.00000000000E+00 -0.00000000000E+00 -0.19696396850E+02  0.19696396850E+02  0.00000000000E+00 0. -1.
          2    1    1    2  501    0  0.31531764933E+02  0.17184197976E+02  0.11947283978E+02  0.37845560562E+02  0.00000000000E+00 0.  1.
         -2    1    1    2    0  502 -0.31531764933E+02 -0.17184197976E+02  0.41033215866E+02  0.54527732982E+02  0.00000000000E+00 0. -1.
<mgrwt>
<rscale>  2 0.35910289E+02</rscale>
<asrwt>0</asrwt>
<pdfrwt beam="1">  1       21 0.11181061E-01 0.35910289E+02</pdfrwt>
<pdfrwt beam="2">  1       21 0.30302149E-02 0.35910289E+02</pdfrwt>
<totfact> 0.33480214E+07</totfact>
</mgrwt>
</event>
<event>
 4    1  0.7595771E+004  0.2633989E+02  0.7546771E-02  0.1642470E+00
         21   -1    0    0  503  502  0.00000000000E+00  0.00000000000E+00  0.15654760316E+03  0.15654760316E+03  0.00000000000E+00 0.  1.
         21   -1    0    0  501  503 -0.00000000000E+00 -0.00000000000E+00 -0.48625616690E+01  0.48625616690E+01  0.00000000000E+00 0.  1.
          4    1    1    2  501    0 -0.22379421342E+02 -0.13890685418E+02  0.51822106357E+02  0.58131921939E+02  0.00000000000E+00 0. -1.
         -4    1    1    2    0  502  0.22379421342E+02  0.13890685418E+02  0.99862935134E+02  0.10327824289E+03  0.00000000000E+00 0.  1.
<mgrwt>
<rscale>  2 0.26339887E+02</rscale>
<asrwt>0</asrwt>
<pdfrwt beam="1">  1       21 0.24084243E-01 0.26339887E+02</pdfrwt>
<pdfrwt beam="2">  1       21 0.74808653E-03 0.26339887E+02</pdfrwt>
<totfact> 0.70909881E+07</totfact>
</mgrwt>
</event>
<event>
 4    1  0.7595771E+004  0.2026067E+02  0.7546771E-02  0.1740193E+00
         21   -1    0    0  503  502  0.00000000000E+00  0.00000000000E+00  0.46517699363E+02  0.46517699363E+02  0.00000000000E+00 0.  1.
         21   -1    0    0  501  503 -0.00000000000E+00 -0.00000000000E+00 -0.88528903241E+01  0.88528903241E+01  0.00000000000E+00 0.  1.
          3    1    1    2  501    0 -0.40132692330E+01 -0.19859219619E+02  0.20400507848E+02  0.28751967833E+02  0.00000000000E+00 0. -1.
         -3    1    1    2    0  502  0.40132692330E+01  0.19859219619E+02  0.17264301190E+02  0.26618621854E+02  0.00000000000E+00 0.  1.
<mgrwt>
<rscale>  2 0.20260675E+02</rscale>
<asrwt>0</asrwt>
<pdfrwt beam="1">  1       21 0.71565690E-02 0.20260675E+02</pdfrwt>
<pdfrwt beam="2">  1       21 0.13619832E-02 0.20260675E+02</pdfrwt>
<totfact> 0.20800843E+08</totfact>
</mgrwt>
</event>
<event>
 4    1  0.7595771E+004  0.2603153E+02  0.7546771E-02  0.1646613E+00
         21   -1    0    0  503  502  0.00000000000E+00  0.00000000000E+00  0.21634295630E+03  0.21634295630E+03  0.00000000000E+00 0.  1.
         21   -1    0    0  501  503 -0.00000000000E+00 -0.00000000000E+00 -0.36422016635E+01  0.36422016635E+01  0.00000000000E+00 0.  1.
          2    1    1    2  501    0 -0.22886239054E+02  0.12404062870E+02  0.14750749333E+03  0.14978685291E+03  0.00000000000E+00 0.  1.
         -2    1    1    2    0  502  0.22886239054E+02 -0.12404062870E+02  0.65193261298E+02  0.70198305053E+02  0.00000000000E+00 0. -1.
<mgrwt>
<rscale>  2 0.26031533E+02</rscale>
<asrwt>0</asrwt>
<pdfrwt beam="1">  1       21 0.33283521E-01 0.26031533E+02</pdfrwt>
<pdfrwt beam="2">  1       21 0.56033889E-03 0.26031533E+02</pdfrwt>
<totfact> 0.60433360E+07</totfact>
</mgrwt>
</event>
<event>
 4    1  0.7595771E+004  0.2254906E+02  0.7546771E-02  0.1698926E+00
         21   -1    0    0  503  502  0.00000000000E+00  0.00000000000E+00  0.79437765590E+02  0.79437765590E+02  0.00000000000E+00 0. -1.
         21   -1    0    0  501  503 -0.00000000000E+00 -0.00000000000E+00 -0.69787758673E+01  0.69787758673E+01  0.00000000000E+00 0. -1.
          2    1    1    2  501    0 -0.15988774686E+02 -0.15900295357E+02  0.48664772409E+02  0.53635066719E+02  0.00000000000E+00 0.  1.
         -2    1    1    2    0  502  0.15988774686E+02  0.15900295357E+02  0.23794217314E+02  0.32781474738E+02  0.00000000000E+00 0. -1.
<mgrwt>
<rscale>  2 0.22549064E+02</rscale>
<asrwt>0</asrwt>
<pdfrwt beam="1">  1       21 0.12221194E-01 0.22549064E+02</pdfrwt>
<pdfrwt beam="2">  1       21 0.10736579E-02 0.22549064E+02</pdfrwt>
<totfact> 0.12770694E+08</totfact>
</mgrwt>
</event>
<event>
 4    1  0.7595771E+004  0.2694324E+02  0.7546771E-02  0.1634563E+00
         21   -1    0    0  501  502  0.00000000000E+00  0.00000000000E+00  0.90428994666E+00  0.90428994666E+00  0.00000000000E+00 0.  1.
         21   -1    0    0  502  503 -0.00000000000E+00 -0.00000000000E+00 -0.99594204227E+03  0.99594204227E+03  0.00000000000E+00 0.  1.
          3    1    1    2  501    0 -0.11933348772E+02 -0.24156436810E+02 -0.27801026227E+03  0.27931280704E+03  0.00000000000E+00 0.  1.
         -3    1    1    2    0  503  0.11933348772E+02  0.24156436810E+02 -0.71702749006E+03  0.71753352518E+03  0.00000000000E+00 0. -1.
<mgrwt>
<rscale>  2 0.26943241E+02</rscale>
<asrwt>0</asrwt>
<pdfrwt beam="1">  1       21 0.13912077E-03 0.26943241E+02</pdfrwt>
<pdfrwt beam="2">  1       21 0.15322269E+00 0.26943241E+02</pdfrwt>
<totfact> 0.19214706E+07</totfact>
</mgrwt>
</event>
<event>
 4    1  0.7595771E+004  0.2097364E+02  0.7546771E-02  0.1726632E+00
         21   -1    0    0  503  502  0.00000000000E+00  0.00000000000E+00  0.14540502970E+03  0.14540502970E+03  0.00000000000E+00 0. -1.
         21   -1    0    0  501  503 -0.00000000000E+00 -0.00000000000E+00 -0.40420652816E+01  0.40420652816E+01  0.00000000000E+00 0. -1.
          5    1    1    2  501    0  0.19675069427E+02  0.72653565678E+01  0.33204355932E+02  0.39273693688E+02  0.00000000000E+00 0. -1.
         -5    1    1    2    0  502 -0.19675069427E+02 -0.72653565678E+01  0.10815860849E+03  0.11017340130E+03  0.00000000000E+00 0.  1.
<mgrwt>
<rscale>  2 0.20973644E+02</rscale>
<asrwt>0</asrwt>
<pdfrwt beam="1">  1       21 0.22370001E-01 0.20973644E+02</pdfrwt>
<pdfrwt beam="2">  1       21 0.62185631E-03 0.20973644E+02</pdfrwt>
<totfact> 0.10022058E+08</totfact>
</mgrwt>
</event>
<event>
 4    1  0.7595771E+004  0.2194440E+02  0.7546771E-02  0.1709215E+00
         21   -1    0    0  501  502  0.00000000000E+00  0.00000000000E+00  0.26488304038E+01  0.26488304038E+01  0.00000000000E+00 0.  1.
         21   -1    0    0  502  503 -0.00000000000E+00 -0.00000000000E+00 -0.18456015707E+03  0.18456015707E+03  0.00000000000E+00 0.  1.
          2    1    1    2  501    0  0.17756505392E+02  0.12894314400E+02 -0.10240316338E+03  0.10472805115E+03  0.00000000000E+00 0.  1.
         -2    1    1    2    0  503 -0.17756505392E+02 -0.12894314400E+02 -0.79508163290E+02  0.82480936327E+02  0.00000000000E+00 0. -1.
<mgrwt>
<rscale>  2 0.21944403E+02</rscale>
<asrwt>0</asrwt>
<pdfrwt beam="1">  1       21 0.40751235E-03 0.21944403E+02</pdfrwt>
<pdfrwt beam="2">  1       21 0.28393872E-01 0.21944403E+02</pdfrwt>
<totfact> 0.12369268E+08</totfact>
</mgrwt>
</event>
<event>
 4    1  0.7595771E+004  0.2064070E+02  0.7546771E-02  0.1732879E+00
         21   -1    0    0  501  502  0.00000000000E+00  0.00000000000E+00  0.12006136907E+01  0.12006136907E+01  0.00000000000E+00 0. -1.
         21   -1    0    0  502  503 -0.00000000000E+00 -0.00000000000E+00 -0.35578714955E+03  0.35578714955E+03  0.00000000000E+00 0. -1.
          2    1    1    2  501    0  0.18567262045E+02 -0.90163956963E+01 -0.18645061964E+03  0.18758963771E+03  0.00000000000E+00 0.  1.
         -2    1    1    2    0  503 -0.18567262045E+02  0.90163956963E+01 -0.16813591622E+03  0.16939812553E+03  0.00000000000E+00 0. -1.
<mgrwt>
<rscale>  2 0.20640703E+02</rscale>
<asrwt>0</asrwt>
<pdfrwt beam="1">  1       21 0.18470979E-03 0.20640703E+02</pdfrwt>
<pdfrwt beam="2">  1       21 0.54736486E-01 0.20640703E+02</pdfrwt>
<totfact> 0.11178647E+08</totfact>
</mgrwt>
</event>
<event>
 4    1  0.7595771E+004  0.2400328E+02  0.7546771E-02  0.1675745E+00
         21   -1    0    0  503  502  0.00000000000E+00  0.00000000000E+00  0.18185357392E+02  0.18185357392E+02  0.00000000000E+00 0.  1.
         21   -1    0    0  501  503 -0.00000000000E+00 -0.00000000000E+00 -0.32797266581E+02  0.32797266581E+02  0.00000000000E+00 0.  1.
          1    1    1    2  501    0  0.10831300840E+02 -0.21420555183E+02 -0.12005640105E+02  0.26838268509E+02  0.00000000000E+00 0. -1.
         -1    1    1    2    0  502 -0.10831300840E+02  0.21420555183E+02 -0.26062690843E+01  0.24144355464E+02  0.00000000000E+00 0.  1.
<mgrwt>
<rscale>  2 0.24003276E+02</rscale>
<asrwt>0</asrwt>
<pdfrwt beam="1">  1       21 0.27977473E-02 0.24003276E+02</pdfrwt>
<pdfrwt beam="2">  1       21 0.50457333E-02 0.24003276E+02</pdfrwt>
<totfact> 0.12752586E+08</totfact>
</mgrwt>
</event>
<event>
 4    1  0.7595771E+004  0.4424359E+02  0.7546771E-02  0.1479120E+00
         21   -1    0    0  503  502  0.00000000000E+00  0.00000000000E+00  0.47449082454E+01  0.47449082454E+01  0.00000000000E+00 0.  1.
         21   -1    0    0  501  503 -0.00000000000E+00 -0.00000000000E+00 -0.65082241183E+03  0.65082241183E+03  0.00000000000E+00 0.  1.
          2    1    1    2  501    0  0.37237812597E+01  0.44086604419E+02 -0.12470522683E+03  0.13232115793E+03  0.00000000000E+00 0.  1.
         -2    1    1    2    0  502 -0.37237812597E+01 -0.44086604419E+02 -0.52137227675E+03  0.52324616215E+03  0.00000000000E+00 0. -1.
<mgrwt>
<rscale>  2 0.44243590E+02</rscale>
<asrwt>0</asrwt>
<pdfrwt beam="1">  1       21 0.72998562E-03 0.44243590E+02</pdfrwt>
<pdfrwt beam="2">  1       21 0.10012656E+00 0.44243590E+02</pdfrwt>
<totfact> 0.47214607E+06</totfact>
</mgrwt>
</event>
<event>
 4    1  0.7595771E+004  0.2012921E+02  0.7546771E-02  0.1742771E+00
         21   -1    0    0  503  502  0.00000000000E+00  0.00000000000E+00  0.23073072952E+03  0.23073072952E+03  0.00000000000E+00 0. -1.
         21   -1    0    0  501  503 -0.00000000000E+00 -0.00000000000E+00 -0.17758782176E+01  0.17758782176E+01  0.00000000000E+00 0. -1.
          5    1    1    2  501    0  0.19934420807E+02  0.27935779413E+01  0.12674732458E+03  0.12833576859E+03  0.00000000000E+00 0. -1.
         -5    1    1    2    0  502 -0.19934420807E+02 -0.27935779413E+01  0.10220752672E+03  0.10417083915E+03  0.00000000000E+00 0.  1.
<mgrwt>
<rscale>  2 0.20129213E+02</rscale>
<asrwt>0</asrwt>
<pdfrwt beam="1">  1       21 0.35497012E-01 0.20129213E+02</pdfrwt>
<pdfrwt beam="2">  1       21 0.27321222E-03 0.20129213E+02</pdfrwt>
<totfact> 0.14374650E+08</totfact>
</mgrwt>
</event>
<event>
 4    1  0.7595771E+004  0.3017919E+02  0.7546771E-02  0.1596116E+00
         21   -1    0    0  501  502  0.00000000000E+00  0.00000000000E+00  0.15770596361E+02  0.15770596361E+02  0.00000000000E+00 0. -1.
         21   -1    0    0  502  503 -0.00000000000E+00 -0.00000000000E+00 -0.61898008631E+02  0.61898008631E+02  0.00000000000E+00 0. -1.
          2    1    1    2  501    0 -0.14185705267E+02  0.26637362760E+02 -0.33114324377E+02  0.44803368263E+02  0.00000000000E+00 0.  1.
         -2    1    1    2    0  503  0.14185705267E+02 -0.26637362760E+02 -0.13013087893E+02  0.32865236729E+02  0.00000000000E+00 0. -1.
<mgrwt>
<rscale>  2 0.30179187E+02</rscale>
<asrwt>0</asrwt>
<pdfrwt beam="1">  1       21 0.24262456E-02 0.30179187E+02</pdfrwt>
<pdfrwt beam="2">  1       21 0.95227704E-02 0.30179187E+02</pdfrwt>
<totfact> 0.59984998E+07</totfact>
</mgrwt>
</event>
<event>
 4    1  0.7595771E+004  0.2107893E+02  0.7546771E-02  0.1724686E+00
         21   -1    0    0  501  502  0.00000000000E+00  0.00000000000E+00  0.13597684726E+02  0.13597684726E+02  0.00000000000E+00 0. -1.
         21   -1    0    0  502  503 -0.00000000000E+00 -0.00000000000E+00 -0.40641575119E+02  0.40641575119E+02  0.00000000000E+00 0. -1.
          3    1    1    2  501    0  0.16828973979E+02  0.12692797414E+02 -0.15158994345E+01  0.21133372246E+02  0.00000000000E+00 0. -1.
         -3    1    1    2    0  503 -0.16828973979E+02 -0.12692797414E+02 -0.25527990959E+02  0.33105887600E+02  0.00000000000E+00 0.  1.
<mgrwt>
<rscale>  2 0.21078934E+02</rscale>
<asrwt>0</asrwt>
<pdfrwt beam="1">  1       21 0.20919515E-02 0.21078934E+02</pdfrwt>
<pdfrwt beam="2">  1       21 0.62525500E-02 0.21078934E+02</pdfrwt>
<totfact> 0.13631995E+08</totfact>
</mgrwt>
</event>
<event>
 4    1  0.7595771E+004  0.2531230E+02  0.7546771E-02  0.1656556E+00
         21   -1    0    0  503  502  0.00000000000E+00  0.00000000000E+00  0.35555575396E+01  0.35555575396E+01  0.00000000000E+00 0. -1.
         21   -1    0    0  501  503 -0.00000000000E+00 -0.00000000000E+00 -0.19252267458E+03  0.19252267458E+03  0.00000000000E+00 0. -1.
          3    1    1    2  501    0  0.24470485269E+02 -0.64736421564E+01 -0.11928659602E+03  0.12194262865E+03  0.00000000000E+00 0. -1.
         -3    1    1    2    0  502 -0.24470485269E+02  0.64736421564E+01 -0.69680521018E+02  0.74135603467E+02  0.00000000000E+00 0.  1.
<mgrwt>
<rscale>  2 0.25312303E+02</rscale>
<asrwt>0</asrwt>
<pdfrwt beam="1">  1       21 0.54700883E-03 0.25312303E+02</pdfrwt>
<pdfrwt beam="2">  1       21 0.29618874E-01 0.25312303E+02</pdfrwt>
<totfact> 0.77090184E+07</totfact>
</mgrwt>
</event>
<event>
 4    1  0.7595771E+004  0.2258233E+02  0.7546771E-02  0.1698371E+00
         21   -1    0    0  501  502  0.00000000000E+00  0.00000000000E+00  0.15556224389E+01  0.15556224389E+01  0.00000000000E+00 0.  1.
         21   -1    0    0  502  503 -0.00000000000E+00 -0.00000000000E+00 -0.34463052473E+03  0.34463052473E+03  0.00000000000E+00 0.  1.
          2    1    1    2  501    0 -0.22230167035E+02  0.39725557060E+01 -0.20976841353E+03  0.21098044658E+03  0.00000000000E+00 0.  1.
         -2    1    1    2    0  503  0.22230167035E+02 -0.39725557060E+01 -0.13330648876E+03  0.13520570059E+03  0.00000000000E+00 0. -1.
<mgrwt>
<rscale>  2 0.22582328E+02</rscale>
<asrwt>0</asrwt>
<pdfrwt beam="1">  1       21 0.23932624E-03 0.22582328E+02</pdfrwt>
<pdfrwt beam="2">  1       21 0.53020145E-01 0.22582328E+02</pdfrwt>
<totfact> 0.83849563E+07</totfact>
</mgrwt>
</event>
<event>
 4    1  0.7595771E+004  0.2014975E+02  0.7546771E-02  0.1742366E+00
         21   -1    0    0  503  502  0.00000000000E+00  0.00000000000E+00  0.23004425032E+03  0.23004425032E+03  0.00000000000E+00 0.  1.
         21   -1    0    0  501  503 -0.00000000000E+00 -0.00000000000E+00 -0.23457852132E+01  0.23457852132E+01  0.00000000000E+00 0.  1.
          2    1    1    2  501    0 -0.18404706078E+02  0.82023937966E+01  0.17166902984E+03  0.17284752899E+03  0.00000000000E+00 0. -1.
         -2    1    1    2    0  502  0.18404706078E+02 -0.82023937966E+01  0.56029435265E+02  0.59542506547E+02  0.00000000000E+00 0.  1.
<mgrwt>
<rscale>  2 0.20149751E+02</rscale>
<asrwt>0</asrwt>
<pdfrwt beam="1">  1       21 0.35391405E-01 0.20149751E+02</pdfrwt>
<pdfrwt beam="2">  1       21 0.36089022E-03 0.20149751E+02</pdfrwt>
<totfact> 0.96517395E+07</totfact>
</mgrwt>
</event>
<event>
 4    1  0.7595771E+004  0.2554280E+02  0.7546771E-02  0.1653326E+00
         21   -1    0    0  503  502  0.00000000000E+00  0.00000000000E+00  0.13191037592E+01  0.13191037592E+01  0.00000000000E+00 0. -1.
         21   -1    0    0  501  503 -0.00000000000E+00 -0.00000000000E+00 -0.54105069549E+03  0.54105069549E+03  0.00000000000E+00 0. -1.
          1    1    1    2  501    0 -0.11954530491E+02  0.22572631189E+02 -0.19041061434E+03  0.19211620580E+03  0.00000000000E+00 0.  1.
         -1    1    1    2    0  502  0.11954530491E+02 -0.22572631189E+02 -0.34932097739E+03  0.35025359345E+03  0.00000000000E+00 0. -1.
<mgrwt>
<rscale>  2 0.25542797E+02</rscale>
<asrwt>0</asrwt>
<pdfrwt beam="1">  1       21 0.20293884E-03 0.25542797E+02</pdfrwt>
<pdfrwt beam="2">  1       21 0.83238650E-01 0.25542797E+02</pdfrwt>
<totfact> 0.43693326E+07</totfact>
</mgrwt>
</event>
<event>
 4    1  0.7595771E+004  0.2204883E+02  0.7546771E-02  0.1707409E+00
         21   -1    0    0  503  502  0.00000000000E+00  0.00000000000E+00  0.37751248837E+03  0.37751248837E+03  0.00000000000E+00 0. -1.
         21   -1    0    0  501  503 -0.00000000000E+00 -0.00000000000E+00 -0.13387716095E+01  0.13387716095E+01  0.00000000000E+00 0. -1.
          1    1    1    2  501    0 -0.15458216184E+02  0.15722422496E+02  0.22505755111E+03  0.22613503118E+03  0.00000000000E+00 0. -1.
         -1    1    1    2    0  502  0.15458216184E+02 -0.15722422496E+02  0.15111616565E+03  0.15271622880E+03  0.00000000000E+00 0.  1.
<mgrwt>
<rscale>  2 0.22048833E+02</rscale>
<asrwt>0</asrwt>
<pdfrwt beam="1">  1       21 0.58078759E-01 0.22048833E+02</pdfrwt>
<pdfrwt beam="2">  1       21 0.20596516E-03 0.22048833E+02</pdfrwt>
<totfact> 0.86514044E+07</totfact>
</mgrwt>
</event>
<event>
 4    1  0.7595771E+004  0.2966156E+02  0.7546771E-02  0.1601860E+00
         21   -1    0    0  501  502  0.00000000000E+00  0.00000000000E+00  0.78319518759E+03  0.78319518759E+03  0.00000000000E+00 0. -1.
         21   -1    0    0  502  503 -0.00000000000E+00 -0.00000000000E+00 -0.11418583840E+01  0.11418583840E+01  0.00000000000E+00 0. -1.
          4    1    1    2  501    0  0.12803756321E+02  0.26755778890E+02  0.34110748194E+03  0.34239468763E+03  0.00000000000E+00 0.  1.
         -4    1    1    2    0  503 -0.12803756321E+02 -0.26755778890E+02  0.44094584727E+03  0.44194235835E+03  0.00000000000E+00 0. -1.
<mgrwt>
<rscale>  2 0.29661556E+02</rscale>
<asrwt>0</asrwt>
<pdfrwt beam="1">  1       21 0.12049114E+00 0.29661556E+02</pdfrwt>
<pdfrwt beam="2">  1       21 0.17567115E-03 0.29661556E+02</pdfrwt>
<totfact> 0.24477635E+07</totfact>
</mgrwt>
</event>
<event>
 4    1  0.7595771E+004  0.5665649E+02  0.7546771E-02  0.1412424E+00
         21   -1    0    0  503  502  0.00000000000E+00  0.00000000000E+00  0.15195129983E+02  0.15195129983E+02  0.00000000000E+00 0.  1.
         21   -1    0    0  501  503 -0.00000000000E+00 -0.00000000000E+00 -0.34321683558E+03  0.34321683558E+03  0.00000000000E+00 0.  1.
          4    1    1    2  501    0  0.49750780618E+01  0.56437631069E+02 -0.27513337441E+03  0.28090626785E+03  0.00000000000E+00 0.  1.
         -4    1    1    2    0  502 -0.49750780618E+01 -0.56437631069E+02 -0.52888331183E+02  0.77505697711E+02  0.00000000000E+00 0. -1.
<mgrwt>
<rscale>  2 0.56656488E+02</rscale>
<asrwt>0</asrwt>
<pdfrwt beam="1">  1       21 0.23377124E-02 0.56656488E+02</pdfrwt>
<pdfrwt beam="2">  1       21 0.52802588E-01 0.56656488E+02</pdfrwt>
<totfact> 0.30890592E+06</totfact>
</mgrwt>
</event>
<event>
 4    1  0.7595771E+004  0.3004387E+02  0.7546771E-02  0.1597604E+00
         21   -1    0    0  501  502  0.00000000000E+00  0.00000000000E+00  0.40350350487E+01  0.40350350487E+01  0.00000000000E+00 0.  1.
         21   -1    0    0  502  503 -0.00000000000E+00 -0.00000000000E+00 -0.22382716169E+03  0.22382716169E+03  0.00000000000E+00 0.  1.
          3    1    1    2  501    0  0.21695420532E+02 -0.20783233942E+02 -0.10717187376E+03  0.11130338993E+03  0.00000000000E+00 0.  1.
         -3    1    1    2    0  503 -0.21695420532E+02  0.20783233942E+02 -0.11262025288E+03  0.11655880680E+03  0.00000000000E+00 0. -1.
<mgrwt>
<rscale>  2 0.30043869E+02</rscale>
<asrwt>0</asrwt>
<pdfrwt beam="1">  1       21 0.62077420E-03 0.30043869E+02</pdfrwt>
<pdfrwt beam="2">  1       21 0.34434971E-01 0.30043869E+02</pdfrwt>
<totfact> 0.50261322E+07</totfact>
</mgrwt>
</event>
<event>
 4    1  0.7595771E+004  0.2293662E+02  0.7546771E-02  0.1692540E+00
         21   -1    0    0  501  502  0.00000000000E+00  0.00000000000E+00  0.62339573041E+00  0.62339573041E+00  0.00000000000E+00 0. -1.
         21   -1    0    0  502  503 -0.00000000000E+00 -0.00000000000E+00 -0.87015275044E+03  0.87015275044E+03  0.00000000000E+00 0. -1.
          5    1    1    2  501    0  0.16944188873E+01 -0.22873946135E+02 -0.51037870139E+03  0.51089383173E+03  0.00000000000E+00 0. -1.
         -5    1    1    2    0  503 -0.16944188873E+01  0.22873946135E+02 -0.35915065333E+03  0.35988231445E+03  0.00000000000E+00 0.  1.
<mgrwt>
<rscale>  2 0.22936618E+02</rscale>
<asrwt>0</asrwt>
<pdfrwt beam="1">  1       21 0.95907635E-04 0.22936618E+02</pdfrwt>
<pdfrwt beam="2">  1       21 0.13386882E+00 0.22936618E+02</pdfrwt>
<totfact> 0.43741227E+07</totfact>
</mgrwt>
</event>
<event>
 4    1  0.7595771E+004  0.2175813E+02  0.7546771E-02  0.1712469E+00
         21   -1    0    0  501  502  0.00000000000E+00  0.00000000000E+00  0.58987558031E+01  0.58987558031E+01  0.00000000000E+00 0.  1.
         21   -1    0    0  502  503 -0.00000000000E+00 -0.00000000000E+00 -0.82082640220E+02  0.82082640220E+02  0.00000000000E+00 0.  1.
          5    1    1    2  501    0  0.21274226239E+02 -0.45632804120E+01 -0.44652595893E+02  0.49671627215E+02  0.00000000000E+00 0.  1.
         -5    1    1    2    0  503 -0.21274226239E+02  0.45632804120E+01 -0.31531288524E+02  0.38309768808E+02  0.00000000000E+00 0. -1.
<mgrwt>
<rscale>  2 0.21758130E+02</rscale>
<asrwt>0</asrwt>
<pdfrwt beam="1">  1       21 0.90750096E-03 0.21758130E+02</pdfrwt>
<pdfrwt beam="2">  1       21 0.12628098E-01 0.21758130E+02</pdfrwt>
<totfact> 0.15390495E+08</totfact>
</mgrwt>
</event>
<event>
 4    1  0.7595771E+004  0.2426419E+02  0.7546771E-02  0.1671801E+00
         21   -1    0    0  503  502  0.00000000000E+00  0.00000000000E+00  0.78826067777E+00  0.78826067777E+00  0.00000000000E+00 0. -1.
         21   -1    0    0  501  503 -0.00000000000E+00 -0.00000000000E+00 -0.85881985798E+03  0.85881985798E+03  0.00000000000E+00 0. -1.
          2    1    1    2  501    0  0.18863173712E+02 -0.15262102978E+02 -0.27385750504E+03  0.27493032604E+03  0.00000000000E+00 0. -1.
         -2    1    1    2    0  502 -0.18863173712E+02  0.15262102978E+02 -0.58417409227E+03  0.58467779262E+03  0.00000000000E+00 0.  1.
<mgrwt>
<rscale>  2 0.24264194E+02</rscale>
<asrwt>0</asrwt>
<pdfrwt beam="1">  1       21 0.12127085E-03 0.24264194E+02</pdfrwt>
<pdfrwt beam="2">  1       21 0.13212616E+00 0.24264194E+02</pdfrwt>
<totfact> 0.32611081E+07</totfact>
</mgrwt>
</event>
<event>
 4    1  0.7595771E+004  0.2783692E+02  0.7546771E-02  0.1623308E+00
         21   -1    0    0  501  502  0.00000000000E+00  0.00000000000E+00  0.12858288645E+03  0.12858288645E+03  0.00000000000E+00 0.  1.
         21   -1    0    0  502  503 -0.00000000000E+00 -0.00000000000E+00 -0.60772689282E+01  0.60772689282E+01  0.00000000000E+00 0.  1.
          3    1    1    2  501    0 -0.12724070901E+02  0.24758675504E+02  0.67411833036E+02  0.72933183300E+02  0.00000000000E+00 0.  1.
         -3    1    1    2    0  503  0.12724070901E+02 -0.24758675504E+02  0.55093784490E+02  0.61726972083E+02  0.00000000000E+00 0. -1.
<mgrwt>
<rscale>  2 0.27836918E+02</rscale>
<asrwt>0</asrwt>
<pdfrwt beam="1">  1       21 0.19781980E-01 0.27836918E+02</pdfrwt>
<pdfrwt beam="2">  1       21 0.93496455E-03 0.27836918E+02</pdfrwt>
<totfact> 0.72828943E+07</totfact>
</mgrwt>
</event>
<event>
 4    1  0.7595771E+004  0.2347539E+02  0.7546771E-02  0.1683918E+00
         21   -1    0    0  501  502  0.00000000000E+00  0.00000000000E+00  0.32500568469E+01  0.32500568469E+01  0.00000000000E+00 0.  1.
         21   -1    0    0  502  503 -0.00000000000E+00 -0.00000000000E+00 -0.19214971017E+03  0.19214971017E+03  0.00000000000E+00 0.  1.
          4    1    1    2  501    0  0.76317589076E+01 -0.22200232083E+02 -0.12794535907E+03  0.13008116295E+03  0.00000000000E+00 0. -1.
         -4    1    1    2    0  503 -0.76317589076E+01  0.22200232083E+02 -0.60954294257E+02  0.65318604065E+02  0.00000000000E+00 0.  1.
<mgrwt>
<rscale>  2 0.23475392E+02</rscale>
<asrwt>0</asrwt>
<pdfrwt beam="1">  1       21 0.50000869E-03 0.23475392E+02</pdfrwt>
<pdfrwt beam="2">  1       21 0.29561497E-01 0.23475392E+02</pdfrwt>
<totfact> 0.86693778E+07</totfact>
</mgrwt>
</event>
<event>
 4    1  0.7595771E+004  0.4066127E+02  0.7546771E-02  0.1503401E+00
         21   -1    0    0  501  502  0.00000000000E+00  0.00000000000E+00  0.96267486185E+01  0.96267486185E+01  0.00000000000E+00 0.  1.
         21   -1    0    0  502  503 -0.00000000000E+00 -0.00000000000E+00 -0.20972116598E+03  0.20972116598E+03  0.00000000000E+00 0.  1.
          3    1    1    2  501    0  0.38897724739E+02 -0.11845065021E+02 -0.14671769517E+03  0.15224789204E+03  0.00000000000E+00 0. -1.
         -3    1    1    2    0  503 -0.38897724739E+02  0.11845065021E+02 -0.53376722192E+02  0.67100022557E+02  0.00000000000E+00 0.  1.
<mgrwt>
<rscale>  2 0.40661266E+02</rscale>
<asrwt>0</asrwt>
<pdfrwt beam="1">  1       21 0.14810382E-02 0.40661266E+02</pdfrwt>
<pdfrwt beam="2">  1       21 0.32264795E-01 0.40661266E+02</pdfrwt>
<totfact> 0.15943748E+07</totfact>
</mgrwt>
</event>
<event>
 4    1  0.7595771E+004  0.2194078E+02  0.7546771E-02  0.1709278E+00
         21   -1    0    0  501  502  0.00000000000E+00  0.00000000000E+00  0.86787653488E+01  0.86787653488E+01  0.00000000000E+00 0. -1.
         21   -1    0    0  502  503 -0.00000000000E+00 -0.00000000000E+00 -0.55498220022E+02  0.55498220022E+02  0.00000000000E+00 0. -1.
          1    1    1    2  501    0 -0.17962127799E+02 -0.12599993294E+02 -0.22666832034E+02  0.31546523430E+02  0.00000000000E+00 0.  1.
         -1    1    1    2    0  503  0.17962127799E+02  0.12599993294E+02 -0.24152622639E+02  0.32630461940E+02  0.00000000000E+00 0. -1.
<mgrwt>
<rscale>  2 0.21940781E+02</rscale>
<asrwt>0</asrwt>
<pdfrwt beam="1">  1       21 0.13351946E-02 0.21940781E+02</pdfrwt>
<pdfrwt beam="2">  1       21 0.85381878E-02 0.21940781E+02</pdfrwt>
<totfact> 0.16502394E+08</totfact>
</mgrwt>
</event>
<event>
 4    1  0.7595771E+004  0.3863736E+02  0.7546771E-02  0.1518485E+00
         21   -1    0    0  501  502  0.00000000000E+00  0.00000000000E+00  0.20052271314E+02  0.20052271314E+02  0.00000000000E+00 0.  1.
         21   -1    0    0  502  503 -0.00000000000E+00 -0.00000000000E+00 -0.75316106380E+02  0.75316106380E+02  0.00000000000E+00 0.  1.
          1    1    1    2  501    0 -0.11301024116E+02 -0.36947701381E+02 -0.22511702785E+02  0.44717139284E+02  0.00000000000E+00 0. -1.
         -1    1    1    2    0  503  0.11301024116E+02  0.36947701381E+02 -0.32752132281E+02  0.50651238409E+02  0.00000000000E+00 0.  1.
<mgrwt>
<rscale>  2 0.38637363E+02</rscale>
<asrwt>0</asrwt>
<pdfrwt beam="1">  1       21 0.30849648E-02 0.38637363E+02</pdfrwt>
<pdfrwt beam="2">  1       21 0.11587093E-01 0.38637363E+02</pdfrwt>
<totfact> 0.31031810E+07</totfact>
</mgrwt>
</event>
<event>
 4    1  0.7595771E+004  0.3237414E+02  0.7546771E-02  0.1573237E+00
         21   -1    0    0  501  502  0.00000000000E+00  0.00000000000E+00  0.59766312592E+02  0.59766312592E+02  0.00000000000E+00 0.  1.
         21   -1    0    0  502  503 -0.00000000000E+00 -0.00000000000E+00 -0.17768302434E+02  0.17768302434E+02  0.00000000000E+00 0.  1.
          1    1    1    2  501    0  0.24844454919E+02  0.20756639180E+02  0.16569958299E+02  0.36368235155E+02  0.00000000000E+00 0. -1.
         -1    1    1    2    0  503 -0.24844454919E+02 -0.20756639180E+02  0.25428051859E+02  0.41166379870E+02  0.00000000000E+00 0.  1.
<mgrwt>
<rscale>  2 0.32374141E+02</rscale>
<asrwt>0</asrwt>
<pdfrwt beam="1">  1       21 0.91948172E-02 0.32374141E+02</pdfrwt>
<pdfrwt beam="2">  1       21 0.27335850E-02 0.32374141E+02</pdfrwt>
<totfact> 0.53578099E+07</totfact>
</mgrwt>
</event>
<event>
 4    1  0.7595771E+004  0.2035950E+02  0.7546771E-02  0.1738272E+00
         21   -1    0    0  503  502  0.00000000000E+00  0.00000000000E+00  0.27699638445E+02  0.27699638445E+02  0.00000000000E+00 0. -1.
         21   -1    0    0  501  503 -0.00000000000E+00 -0.00000000000E+00 -0.19684325448E+02  0.19684325448E+02  0.00000000000E+00 0. -1.
          5    1    1    2  501    0 -0.19978403789E+02 -0.39207901017E+01 -0.75936649232E+01  0.21729541181E+02  0.00000000000E+00 0. -1.
         -5    1    1    2    0  502  0.19978403789E+02  0.39207901017E+01  0.15608977920E+02  0.25654422712E+02  0.00000000000E+00 0.  1.
<mgrwt>
<rscale>  2 0.20359499E+02</rscale>
<asrwt>0</asrwt>
<pdfrwt beam="1">  1       21 0.42614829E-02 0.20359499E+02</pdfrwt>
<pdfrwt beam="2">  1       21 0.30283577E-02 0.20359499E+02</pdfrwt>
<totfact> 0.14020324E+08</totfact>
</mgrwt>
</event>
<event>
 4    1  0.7595771E+004  0.2302474E+02  0.7546771E-02  0.1691109E+00
         21   -1    0    0  501  502  0.00000000000E+00  0.00000000000E+00  0.11033499381E+02  0.11033499381E+02  0.00000000000E+00 0.  1.
         21   -1    0    0  502  503 -0.00000000000E+00 -0.00000000000E+00 -0.48769790508E+02  0.48769790508E+02  0.00000000000E+00 0.  1.
          3    1    1    2  501    0 -0.49188602999E+01  0.22493190326E+02 -0.22505553132E+02  0.32196874374E+02  0.00000000000E+00 0.  1.
         -3    1    1    2    0  503  0.49188602999E+01 -0.22493190326E+02 -0.15230737996E+02  0.27606415515E+02  0.00000000000E+00 0. -1.
<mgrwt>
<rscale>  2 0.23024743E+02</rscale>
<asrwt>0</asrwt>
<pdfrwt beam="1">  1       21 0.16974614E-02 0.23024743E+02</pdfrwt>
<pdfrwt beam="2">  1       21 0.75030447E-02 0.23024743E+02</pdfrwt>
<totfact> 0.14356397E+08</totfact>
</mgrwt>
</event>
<event>
 4    1  0.7595771E+004  0.2037884E+02  0.7546771E-02  0.1737898E+00
         21   -1    0    0  501  502  0.00000000000E+00  0.00000000000E+00  0.30369091254E+02  0.30369091254E+02  0.00000000000E+00 0.  1.
         21   -1    0    0  502  503 -0.00000000000E+00 -0.00000000000E+00 -0.17432283202E+02  0.17432283202E+02  0.00000000000E+00 0.  1.
          4    1    1    2  501    0  0.53333378756E+01 -0.19668573741E+02  0.17564502136E+02  0.26903699025E+02  0.00000000000E+00 0. -1.
         -4    1    1    2    0  503 -0.53333378756E+01  0.19668573741E+02 -0.46276940838E+01  0.20897675431E+02  0.00000000000E+00 0.  1.
<mgrwt>
<rscale>  2 0.20378844E+02</rscale>
<asrwt>0</asrwt>
<pdfrwt beam="1">  1       21 0.46721679E-02 0.20378844E+02</pdfrwt>
<pdfrwt beam="2">  1       21 0.26818897E-02 0.20378844E+02</pdfrwt>
<totfact> 0.14639695E+08</totfact>
</mgrwt>
</event>
<event>
 4    1  0.7595771E+004  0.3999812E+02  0.7546771E-02  0.1508225E+00
         21   -1    0    0  503  502  0.00000000000E+00  0.00000000000E+00  0.34940264495E+02  0.34940264495E+02  0.00000000000E+00 0. -1.
         21   -1    0    0  501  503 -0.00000000000E+00 -0.00000000000E+00 -0.87552553263E+02  0.87552553263E+02  0.00000000000E+00 0. -1.
          1    1    1    2  501    0 -0.14655316702E+02  0.37216548955E+02 -0.68607024032E+02  0.79415197351E+02  0.00000000000E+00 0.  1.
         -1    1    1    2    0  502  0.14655316702E+02 -0.37216548955E+02  0.15994735265E+02  0.43077620407E+02  0.00000000000E+00 0. -1.
<mgrwt>
<rscale>  2 0.39998123E+02</rscale>
<asrwt>0</asrwt>
<pdfrwt beam="1">  1       21 0.53754253E-02 0.39998123E+02</pdfrwt>
<pdfrwt beam="2">  1       21 0.13469623E-01 0.39998123E+02</pdfrwt>
<totfact> 0.98679532E+06</totfact>
</mgrwt>
</event>
<event>
 4    1  0.7595771E+004  0.2015151E+02  0.7546771E-02  0.1742332E+00
         21   -1    0    0  503  502  0.00000000000E+00  0.00000000000E+00  0.16322421963E+01  0.16322421963E+01  0.00000000000E+00 0. -1.
         21   -1    0    0  501  503 -0.00000000000E+00 -0.00000000000E+00 -0.25473279666E+03  0.25473279666E+03  0.00000000000E+00 0. -1.
          5    1    1    2  501    0 -0.10900196485E+02 -0.16949010178E+02 -0.14613121268E+03  0.14751411644E+03  0.00000000000E+00 0.  1.
         -5    1    1    2    0  502  0.10900196485E+02  0.16949010178E+02 -0.10696934178E+03  0.10885092241E+03  0.00000000000E+00 0. -1.
<mgrwt>
<rscale>  2 0.20151507E+02</rscale>
<asrwt>0</asrwt>
<pdfrwt beam="1">  1       21 0.25111408E-03 0.20151507E+02</pdfrwt>
<pdfrwt beam="2">  1       21 0.39189678E-01 0.20151507E+02</pdfrwt>
<totfact> 0.13518759E+08</totfact>
</mgrwt>
</event>
<event>
 4    1  0.7595771E+004  0.2370427E+02  0.7546771E-02  0.1680342E+00
         21   -1    0    0  501  502  0.00000000000E+00  0.00000000000E+00  0.26728264129E+01  0.26728264129E+01  0.00000000000E+00 0.  1.
         21   -1    0    0  502  503 -0.00000000000E+00 -0.00000000000E+00 -0.29191961513E+03  0.29191961513E+03  0.00000000000E+00 0.  1.
          1    1    1    2  501    0 -0.85085135320E+01  0.22124594443E+02 -0.22254521981E+03  0.22380408250E+03  0.00000000000E+00 0. -1.
         -1    1    1    2    0  503  0.85085135320E+01 -0.22124594443E+02 -0.66701568904E+02  0.70788359044E+02  0.00000000000E+00 0.  1.
<mgrwt>
<rscale>  2 0.23704271E+02</rscale>
<asrwt>0</asrwt>
<pdfrwt beam="1">  1       21 0.41120414E-03 0.23704271E+02</pdfrwt>
<pdfrwt beam="2">  1       21 0.44910702E-01 0.23704271E+02</pdfrwt>
<totfact> 0.53137491E+07</totfact>
</mgrwt>
</event>
<event>
 4    1  0.7595771E+004  0.2085177E+02  0.7546771E-02  0.1728901E+00
         21   -1    0    0  503  502  0.00000000000E+00  0.00000000000E+00  0.18580134055E+02  0.18580134055E+02  0.00000000000E+00 0. -1.
         21   -1    0    0  501  503 -0.00000000000E+00 -0.00000000000E+00 -0.23423259126E+02  0.23423259126E+02  0.00000000000E+00 0. -1.
          5    1    1    2  501    0  0.17626943431E+02 -0.11139445755E+02 -0.17762372749E+01  0.20927288532E+02  0.00000000000E+00 0. -1.
         -5    1    1    2    0  502 -0.17626943431E+02  0.11139445755E+02 -0.30668877957E+01  0.21076104650E+02  0.00000000000E+00 0.  1.
<mgrwt>
<rscale>  2 0.20851772E+02</rscale>
<asrwt>0</asrwt>
<pdfrwt beam="1">  1       21 0.28584822E-02 0.20851772E+02</pdfrwt>
<pdfrwt beam="2">  1       21 0.36035783E-02 0.20851772E+02</pdfrwt>
<totfact> 0.20092555E+08</totfact>
</mgrwt>
</event>
<event>
 4    1  0.7595771E+004  0.3552344E+02  0.7546771E-02  0.1544001E+00
         21   -1    0    0  501  502  0.00000000000E+00  0.00000000000E+00  0.22719374954E+02  0.22719374954E+02  0.00000000000E+00 0. -1.
         21   -1    0    0  502  503 -0.00000000000E+00 -0.00000000000E+00 -0.61689444054E+02  0.61689444054E+02  0.00000000000E+00 0. -1.
          5    1    1    2  501    0 -0.26625682847E+02 -0.23515698523E+02 -0.61638014212E+01  0.36054230155E+02  0.00000000000E+00 0.  1.
         -5    1    1    2    0  503  0.26625682847E+02  0.23515698523E+02 -0.32806267679E+02  0.48354588853E+02  0.00000000000E+00 0. -1.
<mgrwt>
<rscale>  2 0.35523444E+02</rscale>
<asrwt>0</asrwt>
<pdfrwt beam="1">  1       21 0.34952885E-02 0.35523444E+02</pdfrwt>
<pdfrwt beam="2">  1       21 0.94906837E-02 0.35523444E+02</pdfrwt>
<totfact> 0.35116712E+07</totfact>
</mgrwt>
</event>
<event>
 4    1  0.7595771E+004  0.2517478E+02  0.7546771E-02  0.1658504E+00
         21   -1    0    0  501  502  0.00000000000E+00  0.00000000000E+00  0.73238863830E+03  0.73238863830E+03  0.00000000000E+00 0. -1.
         21   -1    0    0  502  503 -0.00000000000E+00 -0.00000000000E+00 -0.95362426344E+00  0.95362426344E+00  0.00000000000E+00 0. -1.
          1    1    1    2  501    0 -0.18043787110E+02  0.17555371176E+02  0.25415561687E+03  0.25539938704E+03  0.00000000000E+00 0. -1.
         -1    1    1    2    0  503  0.18043787110E+02 -0.17555371176E+02  0.47727939717E+03  0.47794287553E+03  0.00000000000E+00 0.  1.
<mgrwt>
<rscale>  2 0.25174775E+02</rscale>
<asrwt>0</asrwt>
<pdfrwt beam="1">  1       21 0.11267473E+00 0.25174775E+02</pdfrwt>
<pdfrwt beam="2">  1       21 0.14671201E-03 0.25174775E+02</pdfrwt>
<totfact> 0.35927831E+07</totfact>
</mgrwt>
</event>
<event>
 4    1  0.7595771E+004  0.2239717E+02  0.7546771E-02  0.1701472E+00
         21   -1    0    0  501  502  0.00000000000E+00  0.00000000000E+00  0.47919315620E+02  0.47919315620E+02  0.00000000000E+00 0.  1.
         21   -1    0    0  502  503 -0.00000000000E+00 -0.00000000000E+00 -0.12413783177E+02  0.12413783177E+02  0.00000000000E+00 0.  1.
          3    1    1    2  501    0 -0.20444339531E+02 -0.91467157958E+01  0.58104629080E+01  0.23138602116E+02  0.00000000000E+00 0. -1.
         -3    1    1    2    0  503  0.20444339531E+02  0.91467157958E+01  0.29695069534E+02  0.37194496681E+02  0.00000000000E+00 0.  1.
<mgrwt>
<rscale>  2 0.22397175E+02</rscale>
<asrwt>0</asrwt>
<pdfrwt beam="1">  1       21 0.73722023E-02 0.22397175E+02</pdfrwt>
<pdfrwt beam="2">  1       21 0.19098128E-02 0.22397175E+02</pdfrwt>
<totfact> 0.12236089E+08</totfact>
</mgrwt>
</event>
<event>
 4    1  0.7595771E+004  0.2755041E+02  0.7546771E-02  0.1626859E+00
         21   -1    0    0  503  502  0.00000000000E+00  0.00000000000E+00  0.52840399258E+02  0.52840399258E+02  0.00000000000E+00 0. -1.
         21   -1    0    0  501  503 -0.00000000000E+00 -0.00000000000E+00 -0.16060457878E+02  0.16060457878E+02  0.00000000000E+00 0. -1.
          5    1    1    2  501    0  0.25158008952E+01 -0.27435304146E+02  0.71949471942E+01  0.28474417165E+02  0.00000000000E+00 0.  1.
         -5    1    1    2    0  502 -0.25158008952E+01  0.27435304146E+02  0.29584994186E+02  0.40426439971E+02  0.00000000000E+00 0. -1.
<mgrwt>
<rscale>  2 0.27550411E+02</rscale>
<asrwt>0</asrwt>
<pdfrwt beam="1">  1       21 0.81292921E-02 0.27550411E+02</pdfrwt>
<pdfrwt beam="2">  1       21 0.24708397E-02 0.27550411E+02</pdfrwt>
<totfact> 0.74136663E+07</totfact>
</mgrwt>
</event>
<event>
 4    1  0.7595771E+004  0.2568163E+02  0.7546771E-02  0.1651400E+00
         21   -1    0    0  503  502  0.00000000000E+00  0.00000000000E+00  0.58288253628E+01  0.58288253628E+01  0.00000000000E+00 0.  1.
         21   -1    0    0  501  503 -0.00000000000E+00 -0.00000000000E+00 -0.12129444371E+03  0.12129444371E+03  0.00000000000E+00 0.  1.
          4    1    1    2  501    0  0.21114155061E+02 -0.14619807878E+02 -0.74200696943E+02  0.78519359098E+02  0.00000000000E+00 0. -1.
         -4    1    1    2    0  502 -0.21114155061E+02  0.14619807878E+02 -0.41264921405E+02  0.48603909975E+02  0.00000000000E+00 0.  1.
<mgrwt>
<rscale>  2 0.25681634E+02</rscale>
<asrwt>0</asrwt>
<pdfrwt beam="1">  1       21 0.89674240E-03 0.25681634E+02</pdfrwt>
<pdfrwt beam="2">  1       21 0.18660683E-01 0.25681634E+02</pdfrwt>
<totfact> 0.84212975E+07</totfact>
</mgrwt>
</event>
<event>
 4    1  0.7595771E+004  0.2210936E+02  0.7546771E-02  0.1706368E+00
         21   -1    0    0  501  502  0.00000000000E+00  0.00000000000E+00  0.25154286717E+01  0.25154286717E+01  0.00000000000E+00 0. -1.
         21   -1    0    0  502  503 -0.00000000000E+00 -0.00000000000E+00 -0.19433243524E+03  0.19433243524E+03  0.00000000000E+00 0. -1.
          4    1    1    2  501    0  0.15002991036E+02  0.16239887376E+02 -0.96244520898E+02  0.98751361939E+02  0.00000000000E+00 0. -1.
         -4    1    1    2    0  503 -0.15002991036E+02 -0.16239887376E+02 -0.95572485674E+02  0.98096501976E+02  0.00000000000E+00 0.  1.
<mgrwt>
<rscale>  2 0.22109357E+02</rscale>
<asrwt>0</asrwt>
<pdfrwt beam="1">  1       21 0.38698914E-03 0.22109357E+02</pdfrwt>
<pdfrwt beam="2">  1       21 0.29897289E-01 0.22109357E+02</pdfrwt>
<totfact> 0.12177953E+08</totfact>
</mgrwt>
</event>
<event>
 4    1  0.7595771E+004  0.2647317E+02  0.7546771E-02  0.1640701E+00
         21   -1    0    0  501  502  0.00000000000E+00  0.00000000000E+00  0.15978977957E+01  0.15978977957E+01  0.00000000000E+00 0. -1.
         21   -1    0    0  502  503 -0.00000000000E+00 -0.00000000000E+00 -0.44113180071E+03  0.44113180071E+03  0.00000000000E+00 0. -1.
          5    1    1    2  501    0 -0.22445339523E+02 -0.14036934398E+02 -0.20297769763E+03  0.20469678681E+03  0.00000000000E+00 0. -1.
         -5    1    1    2    0  503  0.22445339523E+02  0.14036934398E+02 -0.23655620529E+03  0.23803291170E+03  0.00000000000E+00 0.  1.
<mgrwt>
<rscale>  2 0.26473171E+02</rscale>
<asrwt>0</asrwt>
<pdfrwt beam="1">  1       21 0.24583016E-03 0.26473171E+02</pdfrwt>
<pdfrwt beam="2">  1       21 0.67866506E-01 0.26473171E+02</pdfrwt>
<totfact> 0.51008759E+07</totfact>
</mgrwt>
</event>
<event>
 4    1  0.7595771E+004  0.2255331E+02  0.7546771E-02  0.1698855E+00
         21   -1    0    0  501  502  0.00000000000E+00  0.00000000000E+00  0.13874437842E+01  0.13874437842E+01  0.00000000000E+00 0.  1.
         21   -1    0    0  502  503 -0.00000000000E+00 -0.00000000000E+00 -0.39511689955E+03  0.39511689955E+03  0.00000000000E+00 0.  1.
          3    1    1    2  501    0  0.21274467537E+02  0.74865894844E+01 -0.25011519427E+03  0.25112997112E+03  0.00000000000E+00 0. -1.
         -3    1    1    2    0  503 -0.21274467537E+02 -0.74865894844E+01 -0.14361426150E+03  0.14537437222E+03  0.00000000000E+00 0.  1.
<mgrwt>
<rscale>  2 0.22553314E+02</rscale>
<asrwt>0</asrwt>
<pdfrwt beam="1">  1       21 0.21345261E-03 0.22553314E+02</pdfrwt>
<pdfrwt beam="2">  1       21 0.60787295E-01 0.22553314E+02</pdfrwt>
<totfact> 0.75457918E+07</totfact>
</mgrwt>
</event>
<event>
 4    1  0.7595771E+004  0.3686846E+02  0.7546771E-02  0.1532608E+00
         21   -1    0    0  501  502  0.00000000000E+00  0.00000000000E+00  0.12679230207E+03  0.12679230207E+03  0.00000000000E+00 0. -1.
         21   -1    0    0  502  503 -0.00000000000E+00 -0.00000000000E+00 -0.10748103695E+02  0.10748103695E+02  0.00000000000E+00 0. -1.
          5    1    1    2  501    0 -0.17718310867E+02  0.32331787831E+02  0.54540050433E+02  0.65832363967E+02  0.00000000000E+00 0.  1.
         -5    1    1    2    0  503  0.17718310867E+02 -0.32331787831E+02  0.61504147944E+02  0.71708041799E+02  0.00000000000E+00 0. -1.
<mgrwt>
<rscale>  2 0.36868456E+02</rscale>
<asrwt>0</asrwt>
<pdfrwt beam="1">  1       21 0.19506507E-01 0.36868456E+02</pdfrwt>
<pdfrwt beam="2">  1       21 0.16535545E-02 0.36868456E+02</pdfrwt>
<totfact> 0.33105874E+07</totfact>
</mgrwt>
</event>
<event>
 4    1  0.7595771E+004  0.2038123E+02  0.7546771E-02  0.1737851E+00
         21   -1    0    0  501  502  0.00000000000E+00  0.00000000000E+00  0.10847644418E+02  0.10847644418E+02  0.00000000000E+00 0.  1.
         21   -1    0    0  502  503 -0.00000000000E+00 -0.00000000000E+00 -0.55079105043E+02  0.55079105043E+02  0.00000000000E+00 0.  1.
          1    1    1    2  501    0 -0.11780927660E+02 -0.16631421515E+02 -0.39184480541E+01  0.20754485619E+02  0.00000000000E+00 0.  1.
         -1    1    1    2    0  503  0.11780927660E+02  0.16631421515E+02 -0.40313012570E+02  0.45172263842E+02  0.00000000000E+00 0. -1.
<mgrwt>
<rscale>  2 0.20381228E+02</rscale>
<asrwt>0</asrwt>
<pdfrwt beam="1">  1       21 0.16688684E-02 0.20381228E+02</pdfrwt>
<pdfrwt beam="2">  1       21 0.84737085E-02 0.20381228E+02</pdfrwt>
<totfact> 0.11652477E+08</totfact>
</mgrwt>
</event>
<event>
 4    1  0.7595771E+004  0.2317326E+02  0.7546771E-02  0.1688717E+00
         21   -1    0    0  501  502  0.00000000000E+00  0.00000000000E+00  0.13017243557E+01  0.13017243557E+01  0.00000000000E+00 0. -1.
         21   -1    0    0  502  503 -0.00000000000E+00 -0.00000000000E+00 -0.43461507511E+03  0.43461507511E+03  0.00000000000E+00 0. -1.
          1    1    1    2  501    0 -0.12931488635E+02 -0.19229574753E+02 -0.26578972450E+03  0.26679800897E+03  0.00000000000E+00 0. -1.
         -1    1    1    2    0  503  0.12931488635E+02  0.19229574753E+02 -0.16752362626E+03  0.16911879050E+03  0.00000000000E+00 0.  1.
<mgrwt>
<rscale>  2 0.23173259E+02</rscale>
<asrwt>0</asrwt>
<pdfrwt beam="1">  1       21 0.20026520E-03 0.23173259E+02</pdfrwt>
<pdfrwt beam="2">  1       21 0.66863885E-01 0.23173259E+02</pdfrwt>
<totfact> 0.68716627E+07</totfact>
</mgrwt>
</event>
<event>
 4    1  0.7595771E+004  0.2006513E+02  0.7546771E-02  0.1744036E+00
         21   -1    0    0  503  502  0.00000000000E+00  0.00000000000E+00  0.48428828580E+03  0.48428828580E+03  0.00000000000E+00 0.  1.
         21   -1    0    0  501  503 -0.00000000000E+00 -0.00000000000E+00 -0.92913024502E+00  0.92913024502E+00  0.00000000000E+00 0.  1.
          5    1    1    2  501    0  0.54799410879E+01  0.19302327004E+02  0.16297325466E+03  0.16420381030E+03  0.00000000000E+00 0.  1.
         -5    1    1    2    0  502 -0.54799410879E+01 -0.19302327004E+02  0.32038590090E+03  0.32101360575E+03  0.00000000000E+00 0. -1.
<mgrwt>
<rscale>  2 0.20065133E+02</rscale>
<asrwt>0</asrwt>
<pdfrwt beam="1">  1       21 0.74505688E-01 0.20065133E+02</pdfrwt>
<pdfrwt beam="2">  1       21 0.14294350E-03 0.20065133E+02</pdfrwt>
<totfact> 0.86184930E+07</totfact>
</mgrwt>
</event>
<event>
 4    1  0.7595771E+004  0.2007395E+02  0.7546771E-02  0.1743862E+00
         21   -1    0    0  501  502  0.00000000000E+00  0.00000000000E+00  0.13346311779E+04  0.13346311779E+04  0.00000000000E+00 0.  1.
         21   -1    0    0  502  503 -0.00000000000E+00 -0.00000000000E+00 -0.32009206100E+00  0.32009206100E+00  0.00000000000E+00 0.  1.
          4    1    1    2  501    0 -0.18921459121E+02 -0.67038617009E+01  0.82615541901E+03  0.82639926170E+03  0.00000000000E+00 0. -1.
         -4    1    1    2    0  503  0.18921459121E+02  0.67038617009E+01  0.50815566685E+03  0.50855200828E+03  0.00000000000E+00 0.  1.
<mgrwt>
<rscale>  2 0.20073948E+02</rscale>
<asrwt>0</asrwt>
<pdfrwt beam="1">  1       21 0.20532342E+00 0.20073948E+02</pdfrwt>
<pdfrwt beam="2">  1       21 0.49246001E-04 0.20073948E+02</pdfrwt>
<totfact> 0.38688555E+07</totfact>
</mgrwt>
</event>
<event>
 4    1  0.7595771E+004  0.3942076E+02  0.7546771E-02  0.1512518E+00
         21   -1    0    0  503  502  0.00000000000E+00  0.00000000000E+00  0.16263080121E+04  0.16263080121E+04  0.00000000000E+00 0.  1.
         21   -1    0    0  501  503 -0.00000000000E+00 -0.00000000000E+00 -0.12064548345E+01  0.12064548345E+01  0.00000000000E+00 0.  1.
          1    1    1    2  501    0 -0.37950066280E+02 -0.10667189109E+02  0.11836633265E+04  0.11843195798E+04  0.00000000000E+00 0. -1.
         -1    1    1    2    0  502  0.37950066280E+02  0.10667189109E+02  0.44143823075E+03  0.44319488718E+03  0.00000000000E+00 0.  1.
<mgrwt>
<rscale>  2 0.39420762E+02</rscale>
<asrwt>0</asrwt>
<pdfrwt beam="1">  1       21 0.25019948E+00 0.39420762E+02</pdfrwt>
<pdfrwt beam="2">  1       21 0.18560974E-03 0.39420762E+02</pdfrwt>
<totfact> 0.35462837E+06</totfact>
</mgrwt>
</event>
<event>
 4    1  0.7595771E+004  0.2692322E+02  0.7546771E-02  0.1634822E+00
         21   -1    0    0  501  502  0.00000000000E+00  0.00000000000E+00  0.25796209518E+03  0.25796209518E+03  0.00000000000E+00 0.  1.
         21   -1    0    0  502  503 -0.00000000000E+00 -0.00000000000E+00 -0.28168871259E+01  0.28168871259E+01  0.00000000000E+00 0.  1.
          2    1    1    2  501    0 -0.13564382471E+02  0.23256554747E+02  0.12110054985E+03  0.12405725688E+03  0.00000000000E+00 0.  1.
         -2    1    1    2    0  503  0.13564382471E+02 -0.23256554747E+02  0.13404465821E+03  0.13672172543E+03  0.00000000000E+00 0. -1.
<mgrwt>
<rscale>  2 0.26923221E+02</rscale>
<asrwt>0</asrwt>
<pdfrwt beam="1">  1       21 0.39686458E-01 0.26923221E+02</pdfrwt>
<pdfrwt beam="2">  1       21 0.43336745E-03 0.26923221E+02</pdfrwt>
<totfact> 0.64100619E+07</totfact>
</mgrwt>
</event>
<event>
 4    1  0.7595771E+004  0.5211330E+02  0.7546771E-02  0.1434265E+00
         21   -1    0    0  501  502  0.00000000000E+00  0.00000000000E+00  0.24817452930E+03  0.24817452930E+03  0.00000000000E+00 0.  1.
         21   -1    0    0  502  503 -0.00000000000E+00 -0.00000000000E+00 -0.15688406191E+02  0.15688406191E+02  0.00000000000E+00 0.  1.
          2    1    1    2  501    0  0.33502844648E+02  0.39916855572E+02  0.18880211452E+03  0.19586228428E+03  0.00000000000E+00 0. -1.
         -2    1    1    2    0  503 -0.33502844648E+02 -0.39916855572E+02  0.43684008595E+02  0.68000651212E+02  0.00000000000E+00 0.  1.
<mgrwt>
<rscale>  2 0.52113299E+02</rscale>
<asrwt>0</asrwt>
<pdfrwt beam="1">  1       21 0.38180694E-01 0.52113299E+02</pdfrwt>
<pdfrwt beam="2">  1       21 0.24136011E-02 0.52113299E+02</pdfrwt>
<totfact> 0.55416870E+06</totfact>
</mgrwt>
</event>
<event>
 4    1  0.7595771E+004  0.2761962E+02  0.7546771E-02  0.1625996E+00
         21   -1    0    0  503  502  0.00000000000E+00  0.00000000000E+00  0.64639730070E+02  0.64639730070E+02  0.00000000000E+00 0.  1.
         21   -1    0    0  501  503 -0.00000000000E+00 -0.00000000000E+00 -0.13857447143E+02  0.13857447143E+02  0.00000000000E+00 0.  1.
          5    1    1    2  501    0 -0.10422246277E+02 -0.25577729939E+02  0.10273218085E+02  0.29468330392E+02  0.00000000000E+00 0. -1.
         -5    1    1    2    0  502  0.10422246277E+02  0.25577729939E+02  0.40509064841E+02  0.49028846821E+02  0.00000000000E+00 0.  1.
<mgrwt>
<rscale>  2 0.27619621E+02</rscale>
<asrwt>0</asrwt>
<pdfrwt beam="1">  1       21 0.99445737E-02 0.27619621E+02</pdfrwt>
<pdfrwt beam="2">  1       21 0.21319150E-02 0.27619621E+02</pdfrwt>
<totfact> 0.66813166E+07</totfact>
</mgrwt>
</event>
<event>
 4    1  0.7595771E+004  0.4731666E+02  0.7546771E-02  0.1460377E+00
         21   -1    0    0  501  502  0.00000000000E+00  0.00000000000E+00  0.15235364500E+01  0.15235364500E+01  0.00000000000E+00 0. -1.
         21   -1    0    0  502  503 -0.00000000000E+00 -0.00000000000E+00 -0.14761113630E+04  0.14761113630E+04  0.00000000000E+00 0. -1.
          5    1    1    2  501    0 -0.28257399119E+02 -0.37952415742E+02 -0.78666616030E+03  0.78808788484E+03  0.00000000000E+00 0. -1.
         -5    1    1    2    0  503  0.28257399119E+02  0.37952415742E+02 -0.68792166627E+03  0.68954701464E+03  0.00000000000E+00 0.  1.
<mgrwt>
<rscale>  2 0.47316662E+02</rscale>
<asrwt>0</asrwt>
<pdfrwt beam="1">  1       21 0.23439108E-03 0.47316662E+02</pdfrwt>
<pdfrwt beam="2">  1       21 0.22709323E+00 0.47316662E+02</pdfrwt>
<totfact> 0.33524441E+06</totfact>
</mgrwt>
</event>
<event>
 4    1  0.7595771E+004  0.2411478E+02  0.7546771E-02  0.1674052E+00
         21   -1    0    0  503  502  0.00000000000E+00  0.00000000000E+00  0.15453960158E+01  0.15453960158E+01  0.00000000000E+00 0.  1.
         21   -1    0    0  501  503 -0.00000000000E+00 -0.00000000000E+00 -0.38846432039E+03  0.38846432039E+03  0.00000000000E+00 0.  1.
          3    1    1    2  501    0  0.22897108404E+02  0.75660611005E+01 -0.15894306772E+03  0.16076200307E+03  0.00000000000E+00 0. -1.
         -3    1    1    2    0  502 -0.22897108404E+02 -0.75660611005E+01 -0.22797585665E+03  0.22924771333E+03  0.00000000000E+00 0.  1.
<mgrwt>
<rscale>  2 0.24114785E+02</rscale>
<asrwt>0</asrwt>
<pdfrwt beam="1">  1       21 0.23775307E-03 0.24114785E+02</pdfrwt>
<pdfrwt beam="2">  1       21 0.59763783E-01 0.24114785E+02</pdfrwt>
<totfact> 0.67873077E+07</totfact>
</mgrwt>
</event>
<event>
 4    1  0.7595771E+004  0.2710206E+02  0.7546771E-02  0.1632524E+00
         21   -1    0    0  503  502  0.00000000000E+00  0.00000000000E+00  0.42081647192E+02  0.42081647192E+02  0.00000000000E+00 0. -1.
         21   -1    0    0  501  503 -0.00000000000E+00 -0.00000000000E+00 -0.19940529104E+02  0.19940529104E+02  0.00000000000E+00 0. -1.
          4    1    1    2  501    0  0.89423814338E+01  0.25584286124E+02  0.22019841009E+02  0.34919840782E+02  0.00000000000E+00 0.  1.
         -4    1    1    2    0  502 -0.89423814338E+01 -0.25584286124E+02  0.12127707839E+00  0.27102335514E+02  0.00000000000E+00 0. -1.
<mgrwt>
<rscale>  2 0.27102064E+02</rscale>
<asrwt>0</asrwt>
<pdfrwt beam="1">  1       21 0.64740995E-02 0.27102064E+02</pdfrwt>
<pdfrwt beam="2">  1       21 0.30677737E-02 0.27102064E+02</pdfrwt>
<totfact> 0.76383482E+07</totfact>
</mgrwt>
</event>
<event>
 4    1  0.7595771E+004  0.2612920E+02  0.7546771E-02  0.1645293E+00
         21   -1    0    0  503  502  0.00000000000E+00  0.00000000000E+00  0.17088381119E+03  0.17088381119E+03  0.00000000000E+00 0. -1.
         21   -1    0    0  501  503 -0.00000000000E+00 -0.00000000000E+00 -0.44252318505E+01  0.44252318505E+01  0.00000000000E+00 0. -1.
          3    1    1    2  501    0  0.17754948638E+02 -0.19170203168E+02  0.55908210915E+02  0.61712745347E+02  0.00000000000E+00 0.  1.
         -3    1    1    2    0  502 -0.17754948638E+02  0.19170203168E+02  0.11055036842E+03  0.11359629769E+03  0.00000000000E+00 0. -1.
<mgrwt>
<rscale>  2 0.26129196E+02</rscale>
<asrwt>0</asrwt>
<pdfrwt beam="1">  1       21 0.26289812E-01 0.26129196E+02</pdfrwt>
<pdfrwt beam="2">  1       21 0.68080503E-03 0.26129196E+02</pdfrwt>
<totfact> 0.69629281E+07</totfact>
</mgrwt>
</event>
<event>
 4    1  0.7595771E+004  0.2149805E+02  0.7546771E-02  0.1717080E+00
         21   -1    0    0  503  502  0.00000000000E+00  0.00000000000E+00  0.94964824274E+01  0.94964824274E+01  0.00000000000E+00 0. -1.
         21   -1    0    0  501  503 -0.00000000000E+00 -0.00000000000E+00 -0.48948054227E+02  0.48948054227E+02  0.00000000000E+00 0. -1.
          1    1    1    2  501    0 -0.17825908595E+02 -0.12016787871E+02 -0.17511833794E+02  0.27727793472E+02  0.00000000000E+00 0. -1.
         -1    1    1    2    0  502  0.17825908595E+02  0.12016787871E+02 -0.21939738005E+02  0.30716743182E+02  0.00000000000E+00 0.  1.
<mgrwt>
<rscale>  2 0.21498051E+02</rscale>
<asrwt>0</asrwt>
<pdfrwt beam="1">  1       21 0.14609973E-02 0.21498051E+02</pdfrwt>
<pdfrwt beam="2">  1       21 0.75304697E-02 0.21498051E+02</pdfrwt>
<totfact> 0.17555489E+08</totfact>
</mgrwt>
</event>
<event>
 4    1  0.7595771E+004  0.3759191E+02  0.7546771E-02  0.1526719E+00
         21   -1    0    0  501  502  0.00000000000E+00  0.00000000000E+00  0.11120716599E+02  0.11120716599E+02  0.00000000000E+00 0.  1.
         21   -1    0    0  502  503 -0.00000000000E+00 -0.00000000000E+00 -0.13770228179E+03  0.13770228179E+03  0.00000000000E+00 0.  1.
          1    1    1    2  501    0 -0.26695523431E+02 -0.26466980743E+02 -0.83963830330E+02  0.91994982714E+02  0.00000000000E+00 0. -1.
         -1    1    1    2    0  503  0.26695523431E+02  0.26466980743E+02 -0.42617734861E+02  0.56828015675E+02  0.00000000000E+00 0.  1.
<mgrwt>
<rscale>  2 0.37591915E+02</rscale>
<asrwt>0</asrwt>
<pdfrwt beam="1">  1       21 0.17108796E-02 0.37591915E+02</pdfrwt>
<pdfrwt beam="2">  1       21 0.21184965E-01 0.37591915E+02</pdfrwt>
<totfact> 0.27198577E+07</totfact>
</mgrwt>
</event>
<event>
 4    1  0.7595771E+004  0.3761225E+02  0.7546771E-02  0.1526556E+00
         21   -1    0    0  501  502  0.00000000000E+00  0.00000000000E+00  0.14338781519E+02  0.14338781519E+02  0.00000000000E+00 0.  1.
         21   -1    0    0  502  503 -0.00000000000E+00 -0.00000000000E+00 -0.98683441697E+02  0.98683441697E+02  0.00000000000E+00 0.  1.
          2    1    1    2  501    0  0.26662696160E+02  0.26528886064E+02 -0.41323635443E+02  0.55877759516E+02  0.00000000000E+00 0.  1.
         -2    1    1    2    0  503 -0.26662696160E+02 -0.26528886064E+02 -0.43021024735E+02  0.57144463700E+02  0.00000000000E+00 0. -1.
<mgrwt>
<rscale>  2 0.37612248E+02</rscale>
<asrwt>0</asrwt>
<pdfrwt beam="1">  1       21 0.22059663E-02 0.37612248E+02</pdfrwt>
<pdfrwt beam="2">  1       21 0.15182068E-01 0.37612248E+02</pdfrwt>
<totfact> 0.32922432E+07</totfact>
</mgrwt>
</event>
<event>
 4    1  0.7595771E+004  0.2370932E+02  0.7546771E-02  0.1680264E+00
         21   -1    0    0  503  502  0.00000000000E+00  0.00000000000E+00  0.11413898628E+01  0.11413898628E+01  0.00000000000E+00 0. -1.
         21   -1    0    0  501  503 -0.00000000000E+00 -0.00000000000E+00 -0.51051027216E+03  0.51051027216E+03  0.00000000000E+00 0. -1.
          3    1    1    2  501    0 -0.17560047245E+02 -0.15930364080E+02 -0.20663024468E+03  0.20798603264E+03  0.00000000000E+00 0. -1.
         -3    1    1    2    0  502  0.17560047245E+02  0.15930364080E+02 -0.30273863762E+03  0.30366562938E+03  0.00000000000E+00 0.  1.
<mgrwt>
<rscale>  2 0.23709318E+02</rscale>
<asrwt>0</asrwt>
<pdfrwt beam="1">  1       21 0.17559838E-03 0.23709318E+02</pdfrwt>
<pdfrwt beam="2">  1       21 0.78540069E-01 0.23709318E+02</pdfrwt>
<totfact> 0.59903928E+07</totfact>
</mgrwt>
</event>
<event>
 4    1  0.7595771E+004  0.3201021E+02  0.7546771E-02  0.1576875E+00
         21   -1    0    0  501  502  0.00000000000E+00  0.00000000000E+00  0.84625176772E+01  0.84625176772E+01  0.00000000000E+00 0.  1.
         21   -1    0    0  502  503 -0.00000000000E+00 -0.00000000000E+00 -0.18770817534E+03  0.18770817534E+03  0.00000000000E+00 0.  1.
          3    1    1    2  501    0 -0.10322642768E+02 -0.30300112311E+02 -0.14805968308E+03  0.15148043938E+03  0.00000000000E+00 0.  1.
         -3    1    1    2    0  503  0.10322642768E+02  0.30300112311E+02 -0.31185974579E+02  0.44690253638E+02  0.00000000000E+00 0. -1.
<mgrwt>
<rscale>  2 0.32010213E+02</rscale>
<asrwt>0</asrwt>
<pdfrwt beam="1">  1       21 0.13019258E-02 0.32010213E+02</pdfrwt>
<pdfrwt beam="2">  1       21 0.28878180E-01 0.32010213E+02</pdfrwt>
<totfact> 0.22985718E+07</totfact>
</mgrwt>
</event>
<event>
 4    1  0.7595771E+004  0.2312445E+02  0.7546771E-02  0.1689501E+00
         21   -1    0    0  503  502  0.00000000000E+00  0.00000000000E+00  0.20395439775E+01  0.20395439775E+01  0.00000000000E+00 0. -1.
         21   -1    0    0  501  503 -0.00000000000E+00 -0.00000000000E+00 -0.26302076888E+03  0.26302076888E+03  0.00000000000E+00 0. -1.
          1    1    1    2  501    0 -0.19986731450E+02  0.11630587791E+02 -0.12302464072E+03  0.12517908064E+03  0.00000000000E+00 0.  1.
         -1    1    1    2    0  502  0.19986731450E+02 -0.11630587791E+02 -0.13795658418E+03  0.13988123221E+03  0.00000000000E+00 0. -1.
<mgrwt>
<rscale>  2 0.23124446E+02</rscale>
<asrwt>0</asrwt>
<pdfrwt beam="1">  1       21 0.31377588E-03 0.23124446E+02</pdfrwt>
<pdfrwt beam="2">  1       21 0.40464748E-01 0.23124446E+02</pdfrwt>
<totfact> 0.95669526E+07</totfact>
</mgrwt>
</event>
<event>
 4    1  0.7595771E+004  0.2026762E+02  0.7546771E-02  0.1740058E+00
         21   -1    0    0  501  502  0.00000000000E+00  0.00000000000E+00  0.75216553485E+02  0.75216553485E+02  0.00000000000E+00 0. -1.
         21   -1    0    0  502  503 -0.00000000000E+00 -0.00000000000E+00 -0.56817521794E+01  0.56817521794E+01  0.00000000000E+00 0. -1.
          1    1    1    2  501    0  0.17897300109E+02 -0.95112114995E+01  0.42735844500E+02  0.47298297015E+02  0.00000000000E+00 0. -1.
         -1    1    1    2    0  503 -0.17897300109E+02  0.95112114995E+01  0.26798956805E+02  0.33600008649E+02  0.00000000000E+00 0.  1.
<mgrwt>
<rscale>  2 0.20267622E+02</rscale>
<asrwt>0</asrwt>
<pdfrwt beam="1">  1       21 0.11571777E-01 0.20267622E+02</pdfrwt>
<pdfrwt beam="2">  1       21 0.87411577E-03 0.20267622E+02</pdfrwt>
<totfact> 0.18422977E+08</totfact>
</mgrwt>
</event>
<event>
 4    1  0.7595771E+004  0.2790785E+02  0.7546771E-02  0.1622437E+00
         21   -1    0    0  501  502  0.00000000000E+00  0.00000000000E+00  0.25237999590E+03  0.25237999590E+03  0.00000000000E+00 0. -1.
         21   -1    0    0  502  503 -0.00000000000E+00 -0.00000000000E+00 -0.51924816455E+01  0.51924816455E+01  0.00000000000E+00 0. -1.
          3    1    1    2  501    0  0.27825138675E+02  0.21470469113E+01  0.41566273137E+02  0.50065988608E+02  0.00000000000E+00 0. -1.
         -3    1    1    2    0  503 -0.27825138675E+02 -0.21470469113E+01  0.20562124112E+03  0.20750648894E+03  0.00000000000E+00 0.  1.
<mgrwt>
<rscale>  2 0.27907851E+02</rscale>
<asrwt>0</asrwt>
<pdfrwt beam="1">  1       21 0.38827682E-01 0.27907851E+02</pdfrwt>
<pdfrwt beam="2">  1       21 0.79884353E-03 0.27907851E+02</pdfrwt>
<totfact> 0.27069399E+07</totfact>
</mgrwt>
</event>
<event>
 4    1  0.7595771E+004  0.2256503E+02  0.7546771E-02  0.1698659E+00
         21   -1    0    0  503  502  0.00000000000E+00  0.00000000000E+00  0.77896793106E+02  0.77896793106E+02  0.00000000000E+00 0.  1.
         21   -1    0    0  501  503 -0.00000000000E+00 -0.00000000000E+00 -0.79562765142E+01  0.79562765142E+01  0.00000000000E+00 0.  1.
          2    1    1    2  501    0  0.20680952038E+02 -0.90265571729E+01  0.53103061219E+02  0.57698488909E+02  0.00000000000E+00 0. -1.
         -2    1    1    2    0  502 -0.20680952038E+02  0.90265571729E+01  0.16837455373E+02  0.28154580711E+02  0.00000000000E+00 0.  1.
<mgrwt>
<rscale>  2 0.22565029E+02</rscale>
<asrwt>0</asrwt>
<pdfrwt beam="1">  1       21 0.11984121E-01 0.22565029E+02</pdfrwt>
<pdfrwt beam="2">  1       21 0.12240426E-02 0.22565029E+02</pdfrwt>
<totfact> 0.10833379E+08</totfact>
</mgrwt>
</event>
<event>
 4    1  0.7595771E+004  0.2060122E+02  0.7546771E-02  0.1733630E+00
         21   -1    0    0  501  502  0.00000000000E+00  0.00000000000E+00  0.18575017291E+03  0.18575017291E+03  0.00000000000E+00 0. -1.
         21   -1    0    0  502  503 -0.00000000000E+00 -0.00000000000E+00 -0.27919343957E+01  0.27919343957E+01  0.00000000000E+00 0. -1.
          5    1    1    2  501    0 -0.19286078398E+02 -0.72427431327E+01  0.13165528577E+03  0.13325736159E+03  0.00000000000E+00 0. -1.
         -5    1    1    2    0  503  0.19286078398E+02  0.72427431327E+01  0.51302952750E+02  0.55284745717E+02  0.00000000000E+00 0.  1.
<mgrwt>
<rscale>  2 0.20601217E+02</rscale>
<asrwt>0</asrwt>
<pdfrwt beam="1">  1       21 0.28576940E-01 0.20601217E+02</pdfrwt>
<pdfrwt beam="2">  1       21 0.42952851E-03 0.20601217E+02</pdfrwt>
<totfact> 0.11119996E+08</totfact>
</mgrwt>
</event>
<event>
 4    1  0.7595771E+004  0.2585096E+02  0.7546771E-02  0.1649072E+00
         21   -1    0    0  503  502  0.00000000000E+00  0.00000000000E+00  0.23822678814E+02  0.23822678814E+02  0.00000000000E+00 0. -1.
         21   -1    0    0  501  503 -0.00000000000E+00 -0.00000000000E+00 -0.41970555971E+02  0.41970555971E+02  0.00000000000E+00 0. -1.
          1    1    1    2  501    0  0.24876687405E+02 -0.70301218977E+01  0.98702940444E+01  0.27671192505E+02  0.00000000000E+00 0. -1.
         -1    1    1    2    0  502 -0.24876687405E+02  0.70301218977E+01 -0.28018171202E+02  0.38122042280E+02  0.00000000000E+00 0.  1.
<mgrwt>
<rscale>  2 0.25850961E+02</rscale>
<asrwt>0</asrwt>
<pdfrwt beam="1">  1       21 0.36650275E-02 0.25850961E+02</pdfrwt>
<pdfrwt beam="2">  1       21 0.64570086E-02 0.25850961E+02</pdfrwt>
<totfact> 0.57318007E+07</totfact>
</mgrwt>
</event>
<event>
 4    1  0.7595771E+004  0.3300223E+02  0.7546771E-02  0.1567092E+00
         21   -1    0    0  503  502  0.00000000000E+00  0.00000000000E+00  0.75020937227E+01  0.75020937227E+01  0.00000000000E+00 0. -1.
         21   -1    0    0  501  503 -0.00000000000E+00 -0.00000000000E+00 -0.15502492310E+03  0.15502492310E+03  0.00000000000E+00 0. -1.
          4    1    1    2  501    0 -0.30259397162E+02 -0.13172545358E+02 -0.94241004435E+02  0.99852461085E+02  0.00000000000E+00 0.  1.
         -4    1    1    2    0  502  0.30259397162E+02  0.13172545358E+02 -0.53281824947E+02  0.62674555742E+02  0.00000000000E+00 0. -1.
<mgrwt>
<rscale>  2 0.33002228E+02</rscale>
<asrwt>0</asrwt>
<pdfrwt beam="1">  1       21 0.11541683E-02 0.33002228E+02</pdfrwt>
<pdfrwt beam="2">  1       21 0.23849988E-01 0.33002228E+02</pdfrwt>
<totfact> 0.39349293E+07</totfact>
</mgrwt>
</event>
<event>
 4    1  0.7595771E+004  0.4001408E+02  0.7546771E-02  0.1508108E+00
         21   -1    0    0  501  502  0.00000000000E+00  0.00000000000E+00  0.11268865588E+04  0.11268865588E+04  0.00000000000E+00 0.  1.
         21   -1    0    0  502  503 -0.00000000000E+00 -0.00000000000E+00 -0.14291118166E+01  0.14291118166E+01  0.00000000000E+00 0.  1.
          5    1    1    2  501    0 -0.10991354889E+02  0.38474879136E+02  0.60564790766E+03  0.60696829758E+03  0.00000000000E+00 0.  1.
         -5    1    1    2    0  503  0.10991354889E+02 -0.38474879136E+02  0.51980953930E+03  0.52134737302E+03  0.00000000000E+00 0. -1.
<mgrwt>
<rscale>  2 0.40014075E+02</rscale>
<asrwt>0</asrwt>
<pdfrwt beam="1">  1       21 0.17336645E+00 0.40014075E+02</pdfrwt>
<pdfrwt beam="2">  1       21 0.21986426E-03 0.40014075E+02</pdfrwt>
<totfact> 0.75917743E+06</totfact>
</mgrwt>
</event>
<event>
 4    1  0.7595771E+004  0.2506061E+02  0.7546771E-02  0.1660133E+00
         21   -1    0    0  501  502  0.00000000000E+00  0.00000000000E+00  0.23479334238E+03  0.23479334238E+03  0.00000000000E+00 0. -1.
         21   -1    0    0  502  503 -0.00000000000E+00 -0.00000000000E+00 -0.30772205690E+01  0.30772205690E+01  0.00000000000E+00 0. -1.
          3    1    1    2  501    0  0.27708404474E+01 -0.24906962445E+02  0.72849931320E+02  0.77039904130E+02  0.00000000000E+00 0.  1.
         -3    1    1    2    0  503 -0.27708404474E+01  0.24906962445E+02  0.15886619049E+03  0.16083065882E+03  0.00000000000E+00 0. -1.
<mgrwt>
<rscale>  2 0.25060613E+02</rscale>
<asrwt>0</asrwt>
<pdfrwt beam="1">  1       21 0.36122039E-01 0.25060613E+02</pdfrwt>
<pdfrwt beam="2">  1       21 0.47341873E-03 0.25060613E+02</pdfrwt>
<totfact> 0.66042469E+07</totfact>
</mgrwt>
</event>
<event>
 4    1  0.7595771E+004  0.2064140E+02  0.7546771E-02  0.1732866E+00
         21   -1    0    0  503  502  0.00000000000E+00  0.00000000000E+00  0.15861953116E+02  0.15861953116E+02  0.00000000000E+00 0. -1.
         21   -1    0    0  501  503 -0.00000000000E+00 -0.00000000000E+00 -0.36626401552E+02  0.36626401552E+02  0.00000000000E+00 0. -1.
          5    1    1    2  501    0 -0.18354107891E+02  0.94442593990E+01 -0.23933548762E+02  0.31605095608E+02  0.00000000000E+00 0.  1.
         -5    1    1    2    0  502  0.18354107891E+02 -0.94442593990E+01  0.31691003271E+01  0.20883259059E+02  0.00000000000E+00 0. -1.
<mgrwt>
<rscale>  2 0.20641398E+02</rscale>
<asrwt>0</asrwt>
<pdfrwt beam="1">  1       21 0.24403005E-02 0.20641398E+02</pdfrwt>
<pdfrwt beam="2">  1       21 0.56348310E-02 0.20641398E+02</pdfrwt>
<totfact> 0.12627883E+08</totfact>
</mgrwt>
</event>
<event>
 4    1  0.7595771E+004  0.2069286E+02  0.7546771E-02  0.1731891E+00
         21   -1    0    0  503  502  0.00000000000E+00  0.00000000000E+00  0.21563012632E+00  0.21563012632E+00  0.00000000000E+00 0. -1.
         21   -1    0    0  501  503 -0.00000000000E+00 -0.00000000000E+00 -0.19903423292E+04  0.19903423292E+04  0.00000000000E+00 0. -1.
          2    1    1    2  501    0  0.16279149432E+02  0.12774332097E+02 -0.10427079460E+04  0.10429132538E+04  0.00000000000E+00 0. -1.
         -2    1    1    2    0  502 -0.16279149432E+02 -0.12774332097E+02 -0.94741875304E+03  0.94764470551E+03  0.00000000000E+00 0.  1.
<mgrwt>
<rscale>  2 0.20692855E+02</rscale>
<asrwt>0</asrwt>
<pdfrwt beam="1">  1       21 0.33176518E-04 0.20692855E+02</pdfrwt>
<pdfrwt beam="2">  1       21 0.30618203E+00 0.20692855E+02</pdfrwt>
<totfact> 0.21411811E+07</totfact>
</mgrwt>
</event>
<event>
 4    1  0.7595771E+004  0.3026840E+02  0.7546771E-02  0.1595141E+00
         21   -1    0    0  503  502  0.00000000000E+00  0.00000000000E+00  0.15758502012E+01  0.15758502012E+01  0.00000000000E+00 0.  1.
         21   -1    0    0  501  503 -0.00000000000E+00 -0.00000000000E+00 -0.58400938912E+03  0.58400938912E+03  0.00000000000E+00 0.  1.
          4    1    1    2  501    0  0.29925675832E+02 -0.45420325227E+01 -0.31084313803E+03  0.31231335641E+03  0.00000000000E+00 0.  1.
         -4    1    1    2    0  502 -0.29925675832E+02  0.45420325227E+01 -0.27159040088E+03  0.27327188290E+03  0.00000000000E+00 0. -1.
<mgrwt>
<rscale>  2 0.30268402E+02</rscale>
<asrwt>0</asrwt>
<pdfrwt beam="1">  1       21 0.24243854E-03 0.30268402E+02</pdfrwt>
<pdfrwt beam="2">  1       21 0.89847581E-01 0.30268402E+02</pdfrwt>
<totfact> 0.29559970E+07</totfact>
</mgrwt>
</event>
<event>
 4    1  0.7595771E+004  0.2144521E+02  0.7546771E-02  0.1718027E+00
         21   -1    0    0  501  502  0.00000000000E+00  0.00000000000E+00  0.29897907257E+02  0.29897907257E+02  0.00000000000E+00 0.  1.
         21   -1    0    0  502  503 -0.00000000000E+00 -0.00000000000E+00 -0.17440377827E+02  0.17440377827E+02  0.00000000000E+00 0.  1.
          1    1    1    2  501    0 -0.17915644528E+02  0.11786721486E+02 -0.19021726844E+01  0.21529407404E+02  0.00000000000E+00 0. -1.
         -1    1    1    2    0  503  0.17915644528E+02 -0.11786721486E+02  0.14359702115E+02  0.25808877680E+02  0.00000000000E+00 0.  1.
<mgrwt>
<rscale>  2 0.21445212E+02</rscale>
<asrwt>0</asrwt>
<pdfrwt beam="1">  1       21 0.45996780E-02 0.21445212E+02</pdfrwt>
<pdfrwt beam="2">  1       21 0.26831351E-02 0.21445212E+02</pdfrwt>
<totfact> 0.15234172E+08</totfact>
</mgrwt>
</event>
<event>
 4    1  0.7595771E+004  0.3058416E+02  0.7546771E-02  0.1591720E+00
         21   -1    0    0  501  502  0.00000000000E+00  0.00000000000E+00  0.42494211126E+01  0.42494211126E+01  0.00000000000E+00 0.  1.
         21   -1    0    0  502  503 -0.00000000000E+00 -0.00000000000E+00 -0.26893568098E+03  0.26893568098E+03  0.00000000000E+00 0.  1.
          3    1    1    2  501    0 -0.26302791288E+02 -0.15606221899E+02 -0.19053652148E+03  0.19297553475E+03  0.00000000000E+00 0. -1.
         -3    1    1    2    0  503  0.26302791288E+02  0.15606221899E+02 -0.74149738381E+02  0.80209567344E+02  0.00000000000E+00 0.  1.
<mgrwt>
<rscale>  2 0.30584162E+02</rscale>
<asrwt>0</asrwt>
<pdfrwt beam="1">  1       21 0.65375696E-03 0.30584162E+02</pdfrwt>
<pdfrwt beam="2">  1       21 0.41374729E-01 0.30584162E+02</pdfrwt>
<totfact> 0.32979227E+07</totfact>
</mgrwt>
</event>
<event>
 4    1  0.7595771E+004  0.2349953E+02  0.7546771E-02  0.1683539E+00
         21   -1    0    0  503  502  0.00000000000E+00  0.00000000000E+00  0.14465856320E+03  0.14465856320E+03  0.00000000000E+00 0. -1.
         21   -1    0    0  501  503 -0.00000000000E+00 -0.00000000000E+00 -0.42100102546E+01  0.42100102546E+01  0.00000000000E+00 0. -1.
          1    1    1    2  501    0  0.18159841467E+02 -0.14914693447E+02  0.47495270278E+02  0.52990835260E+02  0.00000000000E+00 0. -1.
         -1    1    1    2    0  502 -0.18159841467E+02  0.14914693447E+02  0.92953282666E+02  0.95877738193E+02  0.00000000000E+00 0.  1.
<mgrwt>
<rscale>  2 0.23499530E+02</rscale>
<asrwt>0</asrwt>
<pdfrwt beam="1">  1       21 0.22255160E-01 0.23499530E+02</pdfrwt>
<pdfrwt beam="2">  1       21 0.64769399E-03 0.23499530E+02</pdfrwt>
<totfact> 0.98258499E+07</totfact>
</mgrwt>
</event>
<event>
 4    1  0.7595771E+004  0.2574542E+02  0.7546771E-02  0.1650520E+00
         21   -1    0    0  503  502  0.00000000000E+00  0.00000000000E+00  0.11444638838E+03  0.11444638838E+03  0.00000000000E+00 0. -1.
         21   -1    0    0  501  503 -0.00000000000E+00 -0.00000000000E+00 -0.61070224542E+01  0.61070224542E+01  0.00000000000E+00 0. -1.
          5    1    1    2  501    0 -0.20044089426E+02  0.16157388080E+02  0.40470741132E+02  0.47965691887E+02  0.00000000000E+00 0. -1.
         -5    1    1    2    0  502  0.20044089426E+02 -0.16157388080E+02  0.67868624793E+02  0.72587718946E+02  0.00000000000E+00 0.  1.
<mgrwt>
<rscale>  2 0.25745421E+02</rscale>
<asrwt>0</asrwt>
<pdfrwt beam="1">  1       21 0.17607135E-01 0.25745421E+02</pdfrwt>
<pdfrwt beam="2">  1       21 0.93954200E-03 0.25745421E+02</pdfrwt>
<totfact> 0.86904439E+07</totfact>
</mgrwt>
</event>
<event>
 4    1  0.7595771E+004  0.2237620E+02  0.7546771E-02  0.1701826E+00
         21   -1    0    0  501  502  0.00000000000E+00  0.00000000000E+00  0.23080541510E+00  0.23080541510E+00  0.00000000000E+00 0. -1.
         21   -1    0    0  502  503 -0.00000000000E+00 -0.00000000000E+00 -0.21705114449E+04  0.21705114449E+04  0.00000000000E+00 0. -1.
          2    1    1    2  501    0  0.23061560200E+01  0.22257045331E+02 -0.10598789319E+04  0.10601151091E+04  0.00000000000E+00 0.  1.
         -2    1    1    2    0  503 -0.23061560200E+01 -0.22257045331E+02 -0.11104017076E+04  0.11106271412E+04  0.00000000000E+00 0. -1.
<mgrwt>
<rscale>  2 0.22376202E+02</rscale>
<asrwt>0</asrwt>
<pdfrwt beam="1">  1       21 0.35507250E-04 0.22376202E+02</pdfrwt>
<pdfrwt beam="2">  1       21 0.33393683E+00 0.22376202E+02</pdfrwt>
<totfact> 0.14350849E+07</totfact>
</mgrwt>
</event>
<event>
 4    1  0.7595771E+004  0.2272737E+02  0.7546771E-02  0.1695968E+00
         21   -1    0    0  501  502  0.00000000000E+00  0.00000000000E+00  0.18694187953E+02  0.18694187953E+02  0.00000000000E+00 0.  1.
         21   -1    0    0  502  503 -0.00000000000E+00 -0.00000000000E+00 -0.38005695706E+02  0.38005695706E+02  0.00000000000E+00 0.  1.
          5    1    1    2  501    0 -0.12698710951E+02 -0.18848770471E+02  0.51565254528E+01  0.23305002957E+02  0.00000000000E+00 0.  1.
         -5    1    1    2    0  503  0.12698710951E+02  0.18848770471E+02 -0.24468033206E+02  0.33394880702E+02  0.00000000000E+00 0. -1.
<mgrwt>
<rscale>  2 0.22727371E+02</rscale>
<asrwt>0</asrwt>
<pdfrwt beam="1">  1       21 0.28760289E-02 0.22727371E+02</pdfrwt>
<pdfrwt beam="2">  1       21 0.58470301E-02 0.22727371E+02</pdfrwt>
<totfact> 0.94991573E+07</totfact>
</mgrwt>
</event>
<event>
 4    1  0.7595771E+004  0.2110937E+02  0.7546771E-02  0.1724126E+00
         21   -1    0    0  503  502  0.00000000000E+00  0.00000000000E+00  0.32270538273E+03  0.32270538273E+03  0.00000000000E+00 0. -1.
         21   -1    0    0  501  503 -0.00000000000E+00 -0.00000000000E+00 -0.13858170747E+01  0.13858170747E+01  0.00000000000E+00 0. -1.
          4    1    1    2  501    0  0.94332174348E+01  0.18884380317E+02  0.15095136987E+03  0.15242021348E+03  0.00000000000E+00 0.  1.
         -4    1    1    2    0  502 -0.94332174348E+01 -0.18884380317E+02  0.17036819579E+03  0.17167098633E+03  0.00000000000E+00 0. -1.
<mgrwt>
<rscale>  2 0.21109368E+02</rscale>
<asrwt>0</asrwt>
<pdfrwt beam="1">  1       21 0.49646922E-01 0.21109368E+02</pdfrwt>
<pdfrwt beam="2">  1       21 0.21320288E-03 0.21109368E+02</pdfrwt>
<totfact> 0.11064513E+08</totfact>
</mgrwt>
</event>
<event>
 4    1  0.7595771E+004  0.5376607E+02  0.7546771E-02  0.1426026E+00
         21   -1    0    0  501  502  0.00000000000E+00  0.00000000000E+00  0.54572691109E+01  0.54572691109E+01  0.00000000000E+00 0.  1.
         21   -1    0    0  502  503 -0.00000000000E+00 -0.00000000000E+00 -0.54006690072E+03  0.54006690072E+03  0.00000000000E+00 0.  1.
          5    1    1    2  501    0  0.78288190241E+01 -0.53193047639E+02 -0.22953928697E+03  0.23575214736E+03  0.00000000000E+00 0.  1.
         -5    1    1    2    0  503 -0.78288190241E+01  0.53193047639E+02 -0.30507034464E+03  0.30977202247E+03  0.00000000000E+00 0. -1.
<mgrwt>
<rscale>  2 0.53766074E+02</rscale>
<asrwt>0</asrwt>
<pdfrwt beam="1">  1       21 0.83957943E-03 0.53766074E+02</pdfrwt>
<pdfrwt beam="2">  1       21 0.83087259E-01 0.53766074E+02</pdfrwt>
<totfact> 0.58595042E+06</totfact>
</mgrwt>
</event>
<event>
 4    1  0.7595771E+004  0.2169769E+02  0.7546771E-02  0.1713533E+00
         21   -1    0    0  501  502  0.00000000000E+00  0.00000000000E+00  0.36877695753E+01  0.36877695753E+01  0.00000000000E+00 0.  1.
         21   -1    0    0  502  503 -0.00000000000E+00 -0.00000000000E+00 -0.24912806485E+03  0.24912806485E+03  0.00000000000E+00 0.  1.
          5    1    1    2  501    0 -0.13941397746E+02  0.16626098719E+02 -0.34454927252E+02  0.40717707962E+02  0.00000000000E+00 0. -1.
         -5    1    1    2    0  503  0.13941397746E+02 -0.16626098719E+02 -0.21098536802E+03  0.21209812646E+03  0.00000000000E+00 0.  1.
<mgrwt>
<rscale>  2 0.21697690E+02</rscale>
<asrwt>0</asrwt>
<pdfrwt beam="1">  1       21 0.56734912E-03 0.21697690E+02</pdfrwt>
<pdfrwt beam="2">  1       21 0.38327398E-01 0.21697690E+02</pdfrwt>
<totfact> 0.43709076E+07</totfact>
</mgrwt>
</event>
<event>
 4    1  0.7595771E+004  0.2092930E+02  0.7546771E-02  0.1727455E+00
         21   -1    0    0  501  502  0.00000000000E+00  0.00000000000E+00  0.57543811334E+01  0.57543811334E+01  0.00000000000E+00 0.  1.
         21   -1    0    0  502  503 -0.00000000000E+00 -0.00000000000E+00 -0.79619057131E+02  0.79619057131E+02  0.00000000000E+00 0.  1.
          5    1    1    2  501    0  0.40806578247E+01  0.20527636310E+02 -0.45878338816E+02  0.50426754737E+02  0.00000000000E+00 0. -1.
         -5    1    1    2    0  503 -0.40806578247E+01 -0.20527636310E+02 -0.27986337182E+02  0.34946683528E+02  0.00000000000E+00 0.  1.
<mgrwt>
<rscale>  2 0.20929301E+02</rscale>
<asrwt>0</asrwt>
<pdfrwt beam="1">  1       21 0.88528952E-03 0.20929301E+02</pdfrwt>
<pdfrwt beam="2">  1       21 0.12249084E-01 0.20929301E+02</pdfrwt>
<totfact> 0.16608462E+08</totfact>
</mgrwt>
</event>
<event>
 4    1  0.7595771E+004  0.2958663E+02  0.7546771E-02  0.1602703E+00
         21   -1    0    0  501  502  0.00000000000E+00  0.00000000000E+00  0.23549072502E+03  0.23549072502E+03  0.00000000000E+00 0. -1.
         21   -1    0    0  502  503 -0.00000000000E+00 -0.00000000000E+00 -0.38621230535E+01  0.38621230535E+01  0.00000000000E+00 0. -1.
          3    1    1    2  501    0 -0.16145870610E+02  0.24792726106E+02  0.13899624033E+03  0.14211025027E+03  0.00000000000E+00 0. -1.
         -3    1    1    2    0  503  0.16145870610E+02 -0.24792726106E+02  0.92632361632E+02  0.97242597800E+02  0.00000000000E+00 0.  1.
<mgrwt>
<rscale>  2 0.29586625E+02</rscale>
<asrwt>0</asrwt>
<pdfrwt beam="1">  1       21 0.36229331E-01 0.29586625E+02</pdfrwt>
<pdfrwt beam="2">  1       21 0.59417296E-03 0.29586625E+02</pdfrwt>
<totfact> 0.48636059E+07</totfact>
</mgrwt>
</event>
<event>
 4    1  0.7595771E+004  0.3097946E+02  0.7546771E-02  0.1587508E+00
         21   -1    0    0  501  502  0.00000000000E+00  0.00000000000E+00  0.56614317494E+03  0.56614317494E+03  0.00000000000E+00 0. -1.
         21   -1    0    0  502  503 -0.00000000000E+00 -0.00000000000E+00 -0.17775447548E+01  0.17775447548E+01  0.00000000000E+00 0. -1.
          2    1    1    2  501    0 -0.22305896196E+02 -0.21498228093E+02  0.22106593228E+03  0.22322605859E+03  0.00000000000E+00 0.  1.
         -2    1    1    2    0  503  0.22305896196E+02  0.21498228093E+02  0.34329969790E+03  0.34469466110E+03  0.00000000000E+00 0. -1.
<mgrwt>
<rscale>  2 0.30979458E+02</rscale>
<asrwt>0</asrwt>
<pdfrwt beam="1">  1       21 0.87098807E-01 0.30979458E+02</pdfrwt>
<pdfrwt beam="2">  1       21 0.27346887E-03 0.30979458E+02</pdfrwt>
<totfact> 0.26603381E+07</totfact>
</mgrwt>
</event>
<event>
 4    1  0.7595771E+004  0.2069248E+02  0.7546771E-02  0.1731898E+00
         21   -1    0    0  503  502  0.00000000000E+00  0.00000000000E+00  0.17196803570E+02  0.17196803570E+02  0.00000000000E+00 0. -1.
         21   -1    0    0  501  503 -0.00000000000E+00 -0.00000000000E+00 -0.25123142793E+02  0.25123142793E+02  0.00000000000E+00 0. -1.
          3    1    1    2  501    0 -0.20042093400E+02  0.51471534781E+01 -0.19633319498E+01  0.20785412411E+02  0.00000000000E+00 0. -1.
         -3    1    1    2    0  502  0.20042093400E+02 -0.51471534781E+01 -0.59630072735E+01  0.21534533951E+02  0.00000000000E+00 0.  1.
<mgrwt>
<rscale>  2 0.20692479E+02</rscale>
<asrwt>0</asrwt>
<pdfrwt beam="1">  1       21 0.26456621E-02 0.20692479E+02</pdfrwt>
<pdfrwt beam="2">  1       21 0.38650989E-02 0.20692479E+02</pdfrwt>
<totfact> 0.20243739E+08</totfact>
</mgrwt>
</event>
<event>
 4    1  0.7595771E+004  0.3678876E+02  0.7546771E-02  0.1533266E+00
         21   -1    0    0  501  502  0.00000000000E+00  0.00000000000E+00  0.11412437089E+03  0.11412437089E+03  0.00000000000E+00 0.  1.
         21   -1    0    0  502  503 -0.00000000000E+00 -0.00000000000E+00 -0.12497812970E+02  0.12497812970E+02  0.00000000000E+00 0.  1.
          5    1    1    2  501    0  0.26576824508E+02  0.25437865683E+02  0.65125756324E+02  0.74798240275E+02  0.00000000000E+00 0.  1.
         -5    1    1    2    0  503 -0.26576824508E+02 -0.25437865683E+02  0.36500801592E+02  0.51823943581E+02  0.00000000000E+00 0. -1.
<mgrwt>
<rscale>  2 0.36788757E+02</rscale>
<asrwt>0</asrwt>
<pdfrwt beam="1">  1       21 0.17557595E-01 0.36788757E+02</pdfrwt>
<pdfrwt beam="2">  1       21 0.19227405E-02 0.36788757E+02</pdfrwt>
<totfact> 0.31527905E+07</totfact>
</mgrwt>
</event>
<event>
 4    1  0.7595771E+004  0.2654294E+02  0.7546771E-02  0.1639780E+00
         21   -1    0    0  501  502  0.00000000000E+00  0.00000000000E+00  0.37621055067E+02  0.37621055067E+02  0.00000000000E+00 0.  1.
         21   -1    0    0  502  503 -0.00000000000E+00 -0.00000000000E+00 -0.24918606807E+02  0.24918606807E+02  0.00000000000E+00 0.  1.
          4    1    1    2  501    0  0.26540333296E+02 -0.37196112386E+00 -0.92359384491E+01  0.28103917975E+02  0.00000000000E+00 0.  1.
         -4    1    1    2    0  503 -0.26540333296E+02  0.37196112386E+00  0.21938386709E+02  0.34435743899E+02  0.00000000000E+00 0. -1.
<mgrwt>
<rscale>  2 0.26542940E+02</rscale>
<asrwt>0</asrwt>
<pdfrwt beam="1">  1       21 0.57878547E-02 0.26542940E+02</pdfrwt>
<pdfrwt beam="2">  1       21 0.38336318E-02 0.26542940E+02</pdfrwt>
<totfact> 0.64127275E+07</totfact>
</mgrwt>
</event>
<event>
 4    1  0.7595771E+004  0.2448425E+02  0.7546771E-02  0.1668522E+00
         21   -1    0    0  501  502  0.00000000000E+00  0.00000000000E+00  0.41664119087E+02  0.41664119087E+02  0.00000000000E+00 0. -1.
         21   -1    0    0  502  503 -0.00000000000E+00 -0.00000000000E+00 -0.16465428268E+02  0.16465428268E+02  0.00000000000E+00 0. -1.
          5    1    1    2  501    0 -0.38100364302E+01 -0.24185993710E+02  0.22763674463E+01  0.24589845833E+02  0.00000000000E+00 0. -1.
         -5    1    1    2    0  503  0.38100364302E+01  0.24185993710E+02  0.22922323372E+02  0.33539701521E+02  0.00000000000E+00 0.  1.
<mgrwt>
<rscale>  2 0.24484253E+02</rscale>
<asrwt>0</asrwt>
<pdfrwt beam="1">  1       21 0.64098644E-02 0.24484253E+02</pdfrwt>
<pdfrwt beam="2">  1       21 0.25331428E-02 0.24484253E+02</pdfrwt>
<totfact> 0.10191952E+08</totfact>
</mgrwt>
</event>
<event>
 4    1  0.7595771E+004  0.2821009E+02  0.7546771E-02  0.1618760E+00
         21   -1    0    0  501  502  0.00000000000E+00  0.00000000000E+00  0.13385203912E+01  0.13385203912E+01  0.00000000000E+00 0.  1.
         21   -1    0    0  502  503 -0.00000000000E+00 -0.00000000000E+00 -0.59631383531E+03  0.59631383531E+03  0.00000000000E+00 0.  1.
          3    1    1    2  501    0 -0.17070669499E+02 -0.22458882871E+02 -0.31376771444E+03  0.31503331221E+03  0.00000000000E+00 0.  1.
         -3    1    1    2    0  503  0.17070669499E+02  0.22458882871E+02 -0.28120760048E+03  0.28261904349E+03  0.00000000000E+00 0. -1.
<mgrwt>
<rscale>  2 0.28210090E+02</rscale>
<asrwt>0</asrwt>
<pdfrwt beam="1">  1       21 0.20592614E-03 0.28210090E+02</pdfrwt>
<pdfrwt beam="2">  1       21 0.91740623E-01 0.28210090E+02</pdfrwt>
<totfact> 0.35399966E+07</totfact>
</mgrwt>
</event>
<event>
 4    1  0.7595771E+004  0.3757656E+02  0.7546771E-02  0.1526842E+00
         21   -1    0    0  503  502  0.00000000000E+00  0.00000000000E+00  0.19010359017E+03  0.19010359017E+03  0.00000000000E+00 0. -1.
         21   -1    0    0  501  503 -0.00000000000E+00 -0.00000000000E+00 -0.11506078904E+02  0.11506078904E+02  0.00000000000E+00 0. -1.
          4    1    1    2  501    0 -0.34596527613E+02  0.14665537989E+02  0.29282182519E+02  0.47638681137E+02  0.00000000000E+00 0. -1.
         -4    1    1    2    0  502  0.34596527613E+02 -0.14665537989E+02  0.14931532874E+03  0.15397098793E+03  0.00000000000E+00 0.  1.
<mgrwt>
<rscale>  2 0.37576558E+02</rscale>
<asrwt>0</asrwt>
<pdfrwt beam="1">  1       21 0.29246704E-01 0.37576558E+02</pdfrwt>
<pdfrwt beam="2">  1       21 0.17701661E-02 0.37576558E+02</pdfrwt>
<totfact> 0.14352067E+07</totfact>
</mgrwt>
</event>
<event>
 4    1  0.7595771E+004  0.2018293E+02  0.7546771E-02  0.1741715E+00
         21   -1    0    0  503  502  0.00000000000E+00  0.00000000000E+00  0.25736704358E+01  0.25736704358E+01  0.00000000000E+00 0. -1.
         21   -1    0    0  501  503 -0.00000000000E+00 -0.00000000000E+00 -0.16158565726E+03  0.16158565726E+03  0.00000000000E+00 0. -1.
          2    1    1    2  501    0 -0.20129298329E+02  0.14703494653E+01 -0.67759246887E+02  0.70701245515E+02  0.00000000000E+00 0.  1.
         -2    1    1    2    0  502  0.20129298329E+02 -0.14703494653E+01 -0.91252739939E+02  0.93458082182E+02  0.00000000000E+00 0. -1.
<mgrwt>
<rscale>  2 0.20182928E+02</rscale>
<asrwt>0</asrwt>
<pdfrwt beam="1">  1       21 0.39594921E-03 0.20182928E+02</pdfrwt>
<pdfrwt beam="2">  1       21 0.24859337E-01 0.20182928E+02</pdfrwt>
<totfact> 0.15968077E+08</totfact>
</mgrwt>
</event>
<event>
 4    1  0.7595771E+004  0.2810572E+02  0.7546771E-02  0.1620024E+00
         21   -1    0    0  501  502  0.00000000000E+00  0.00000000000E+00  0.11206340155E+03  0.11206340155E+03  0.00000000000E+00 0.  1.
         21   -1    0    0  502  503 -0.00000000000E+00 -0.00000000000E+00 -0.12321729087E+02  0.12321729087E+02  0.00000000000E+00 0.  1.
          2    1    1    2  501    0 -0.22991106931E+02 -0.16166030063E+02  0.91870261451E+01  0.29569121991E+02  0.00000000000E+00 0. -1.
         -2    1    1    2    0  503  0.22991106931E+02  0.16166030063E+02  0.90554646318E+02  0.94816008647E+02  0.00000000000E+00 0.  1.
<mgrwt>
<rscale>  2 0.28105721E+02</rscale>
<asrwt>0</asrwt>
<pdfrwt beam="1">  1       21 0.17240523E-01 0.28105721E+02</pdfrwt>
<pdfrwt beam="2">  1       21 0.18956507E-02 0.28105721E+02</pdfrwt>
<totfact> 0.31576572E+07</totfact>
</mgrwt>
</event>
<event>
 4    1  0.7595771E+004  0.4933078E+02  0.7546771E-02  0.1448985E+00
         21   -1    0    0  503  502  0.00000000000E+00  0.00000000000E+00  0.57875829927E+02  0.57875829927E+02  0.00000000000E+00 0. -1.
         21   -1    0    0  501  503 -0.00000000000E+00 -0.00000000000E+00 -0.44988054595E+02  0.44988054595E+02  0.00000000000E+00 0. -1.
          5    1    1    2  501    0 -0.47460192239E+02  0.13455714275E+02  0.19593379711E+02  0.53079436909E+02  0.00000000000E+00 0.  1.
         -5    1    1    2    0  502  0.47460192239E+02 -0.13455714275E+02 -0.67056043786E+01  0.49784447613E+02  0.00000000000E+00 0. -1.
<mgrwt>
<rscale>  2 0.49330782E+02</rscale>
<asrwt>0</asrwt>
<pdfrwt beam="1">  1       21 0.89039739E-02 0.49330782E+02</pdfrwt>
<pdfrwt beam="2">  1       21 0.69212392E-02 0.49330782E+02</pdfrwt>
<totfact> 0.13562640E+07</totfact>
</mgrwt>
</event>
<event>
 4    1  0.7595771E+004  0.2163101E+02  0.7546771E-02  0.1714713E+00
         21   -1    0    0  501  502  0.00000000000E+00  0.00000000000E+00  0.21828630481E+02  0.21828630481E+02  0.00000000000E+00 0.  1.
         21   -1    0    0  502  503 -0.00000000000E+00 -0.00000000000E+00 -0.21441158421E+02  0.21441158421E+02  0.00000000000E+00 0.  1.
          1    1    1    2  501    0 -0.14151106252E+02 -0.16359910238E+02  0.55521020287E+00  0.21638131378E+02  0.00000000000E+00 0.  1.
         -1    1    1    2    0  503  0.14151106252E+02  0.16359910238E+02 -0.16773814270E+00  0.21631657524E+02  0.00000000000E+00 0. -1.
<mgrwt>
<rscale>  2 0.21631007E+02</rscale>
<asrwt>0</asrwt>
<pdfrwt beam="1">  1       21 0.33582508E-02 0.21631007E+02</pdfrwt>
<pdfrwt beam="2">  1       21 0.32986398E-02 0.21631007E+02</pdfrwt>
<totfact> 0.18167176E+08</totfact>
</mgrwt>
</event>
<event>
 4    1  0.7595771E+004  0.2779551E+02  0.7546771E-02  0.1623818E+00
         21   -1    0    0  501  502  0.00000000000E+00  0.00000000000E+00  0.67745571788E+01  0.67745571788E+01  0.00000000000E+00 0.  1.
         21   -1    0    0  502  503 -0.00000000000E+00 -0.00000000000E+00 -0.11419110066E+03  0.11419110066E+03  0.00000000000E+00 0.  1.
          4    1    1    2  501    0  0.16364520864E+02  0.22467592401E+02 -0.51529466403E+02  0.58548067083E+02  0.00000000000E+00 0.  1.
         -4    1    1    2    0  503 -0.16364520864E+02 -0.22467592401E+02 -0.55887077078E+02  0.62417590755E+02  0.00000000000E+00 0. -1.
<mgrwt>
<rscale>  2 0.27795508E+02</rscale>
<asrwt>0</asrwt>
<pdfrwt beam="1">  1       21 0.10422396E-02 0.27795508E+02</pdfrwt>
<pdfrwt beam="2">  1       21 0.17567860E-01 0.27795508E+02</pdfrwt>
<totfact> 0.76022865E+07</totfact>
</mgrwt>
</event>
<event>
 4    1  0.7595771E+004  0.3007269E+02  0.7546771E-02  0.1597287E+00
         21   -1    0    0  501  502  0.00000000000E+00  0.00000000000E+00  0.16606367911E+02  0.16606367911E+02  0.00000000000E+00 0.  1.
         21   -1    0    0  502  503 -0.00000000000E+00 -0.00000000000E+00 -0.10248344264E+03  0.10248344264E+03  0.00000000000E+00 0.  1.
          1    1    1    2  501    0 -0.30053750170E+02  0.10672612713E+01 -0.83699902137E+02  0.88938408821E+02  0.00000000000E+00 0. -1.
         -1    1    1    2    0  503  0.30053750170E+02 -0.10672612713E+01 -0.21771725935E+01  0.30151401732E+02  0.00000000000E+00 0.  1.
<mgrwt>
<rscale>  2 0.30072694E+02</rscale>
<asrwt>0</asrwt>
<pdfrwt beam="1">  1       21 0.25548259E-02 0.30072694E+02</pdfrwt>
<pdfrwt beam="2">  1       21 0.15766683E-01 0.30072694E+02</pdfrwt>
<totfact> 0.23512910E+07</totfact>
</mgrwt>
</event>
<event>
 4    1  0.7595771E+004  0.3972356E+02  0.7546771E-02  0.1510256E+00
         21   -1    0    0  501  502  0.00000000000E+00  0.00000000000E+00  0.85771631189E+03  0.85771631189E+03  0.00000000000E+00 0.  1.
         21   -1    0    0  502  503 -0.00000000000E+00 -0.00000000000E+00 -0.20371801148E+01  0.20371801148E+01  0.00000000000E+00 0.  1.
          1    1    1    2  501    0 -0.22321429113E+02  0.32859013145E+02  0.56167310740E+03  0.56307605217E+03  0.00000000000E+00 0.  1.
         -1    1    1    2    0  503  0.22321429113E+02 -0.32859013145E+02  0.29400602437E+03  0.29667743984E+03  0.00000000000E+00 0. -1.
<mgrwt>
<rscale>  2 0.39723557E+02</rscale>
<asrwt>0</asrwt>
<pdfrwt beam="1">  1       21 0.13195607E+00 0.39723557E+02</pdfrwt>
<pdfrwt beam="2">  1       21 0.31341301E-03 0.39723557E+02</pdfrwt>
<totfact> 0.87879117E+06</totfact>
</mgrwt>
</event>
<event>
 4    1  0.7595771E+004  0.2306187E+02  0.7546771E-02  0.1690509E+00
         21   -1    0    0  503  502  0.00000000000E+00  0.00000000000E+00  0.72538331995E+00  0.72538331995E+00  0.00000000000E+00 0.  1.
         21   -1    0    0  501  503 -0.00000000000E+00 -0.00000000000E+00 -0.73635772295E+03  0.73635772295E+03  0.00000000000E+00 0.  1.
          1    1    1    2  501    0 -0.14043765597E+02 -0.18292693846E+02 -0.39195568588E+03  0.39263355650E+03  0.00000000000E+00 0.  1.
         -1    1    1    2    0  502  0.14043765597E+02  0.18292693846E+02 -0.34367665375E+03  0.34444954977E+03  0.00000000000E+00 0. -1.
<mgrwt>
<rscale>  2 0.23061873E+02</rscale>
<asrwt>0</asrwt>
<pdfrwt beam="1">  1       21 0.11159811E-03 0.23061873E+02</pdfrwt>
<pdfrwt beam="2">  1       21 0.11328512E+00 0.23061873E+02</pdfrwt>
<totfact> 0.51600769E+07</totfact>
</mgrwt>
</event>
<event>
 4    1  0.7595771E+004  0.2126664E+02  0.7546771E-02  0.1721253E+00
         21   -1    0    0  501  502  0.00000000000E+00  0.00000000000E+00  0.94356828848E+02  0.94356828848E+02  0.00000000000E+00 0.  1.
         21   -1    0    0  502  503 -0.00000000000E+00 -0.00000000000E+00 -0.49694574691E+01  0.49694574691E+01  0.00000000000E+00 0.  1.
          5    1    1    2  501    0 -0.21183014678E+02  0.18840596701E+01  0.54047122984E+02  0.58080644750E+02  0.00000000000E+00 0.  1.
         -5    1    1    2    0  503  0.21183014678E+02 -0.18840596701E+01  0.35340248395E+02  0.41245641567E+02  0.00000000000E+00 0. -1.
<mgrwt>
<rscale>  2 0.21266636E+02</rscale>
<asrwt>0</asrwt>
<pdfrwt beam="1">  1       21 0.14516434E-01 0.21266636E+02</pdfrwt>
<pdfrwt beam="2">  1       21 0.76453199E-03 0.21266636E+02</pdfrwt>
<totfact> 0.15606287E+08</totfact>
</mgrwt>
</event>
<event>
 4    1  0.7595771E+004  0.2711674E+02  0.7546771E-02  0.1632337E+00
         21   -1    0    0  501  502  0.00000000000E+00  0.00000000000E+00  0.10876823923E+03  0.10876823923E+03  0.00000000000E+00 0.  1.
         21   -1    0    0  502  503 -0.00000000000E+00 -0.00000000000E+00 -0.88611821956E+01  0.88611821956E+01  0.00000000000E+00 0.  1.
          3    1    1    2  501    0 -0.26920728700E+02  0.32544875260E+01  0.78590702203E+02  0.83137330938E+02  0.00000000000E+00 0. -1.
         -3    1    1    2    0  503  0.26920728700E+02 -0.32544875260E+01  0.21316354829E+02  0.34492090485E+02  0.00000000000E+00 0.  1.
<mgrwt>
<rscale>  2 0.27116735E+02</rscale>
<asrwt>0</asrwt>
<pdfrwt beam="1">  1       21 0.16733574E-01 0.27116735E+02</pdfrwt>
<pdfrwt beam="2">  1       21 0.13632589E-02 0.27116735E+02</pdfrwt>
<totfact> 0.54689673E+07</totfact>
</mgrwt>
</event>
<event>
 4    1  0.7595771E+004  0.3112333E+02  0.7546771E-02  0.1585994E+00
         21   -1    0    0  503  502  0.00000000000E+00  0.00000000000E+00  0.18777083740E+03  0.18777083740E+03  0.00000000000E+00 0.  1.
         21   -1    0    0  501  503 -0.00000000000E+00 -0.00000000000E+00 -0.54780392480E+01  0.54780392480E+01  0.00000000000E+00 0.  1.
          5    1    1    2  501    0 -0.23099904991E+02 -0.20857990602E+02  0.67818709873E+02  0.74619292354E+02  0.00000000000E+00 0. -1.
         -5    1    1    2    0  502  0.23099904991E+02  0.20857990602E+02  0.11447408828E+03  0.11862958430E+03  0.00000000000E+00 0.  1.
<mgrwt>
<rscale>  2 0.31123325E+02</rscale>
<asrwt>0</asrwt>
<pdfrwt beam="1">  1       21 0.28887816E-01 0.31123325E+02</pdfrwt>
<pdfrwt beam="2">  1       21 0.84277541E-03 0.31123325E+02</pdfrwt>
<totfact> 0.44259212E+07</totfact>
</mgrwt>
</event>
<event>
 4    1  0.7595771E+004  0.2384407E+02  0.7546771E-02  0.1678182E+00
         21   -1    0    0  503  502  0.00000000000E+00  0.00000000000E+00  0.41911961087E+00  0.41911961087E+00  0.00000000000E+00 0.  1.
         21   -1    0    0  501  503 -0.00000000000E+00 -0.00000000000E+00 -0.13572729976E+04  0.13572729976E+04  0.00000000000E+00 0.  1.
          2    1    1    2  501    0  0.19420620876E+02  0.13833986449E+02 -0.66232541517E+03  0.66275447586E+03  0.00000000000E+00 0.  1.
         -2    1    1    2    0  502 -0.19420620876E+02 -0.13833986449E+02 -0.69452846280E+03  0.69493764133E+03  0.00000000000E+00 0. -1.
<mgrwt>
<rscale>  2 0.23844070E+02</rscale>
<asrwt>0</asrwt>
<pdfrwt beam="1">  1       21 0.64480591E-04 0.23844070E+02</pdfrwt>
<pdfrwt beam="2">  1       21 0.20880912E+00 0.23844070E+02</pdfrwt>
<totfact> 0.26029765E+07</totfact>
</mgrwt>
</event>
<event>
 4    1  0.7595771E+004  0.3006444E+02  0.7546771E-02  0.1597377E+00
         21   -1    0    0  503  502  0.00000000000E+00  0.00000000000E+00  0.94372981728E+03  0.94372981728E+03  0.00000000000E+00 0.  1.
         21   -1    0    0  501  503 -0.00000000000E+00 -0.00000000000E+00 -0.10241388284E+01  0.10241388284E+01  0.00000000000E+00 0.  1.
          4    1    1    2  501    0  0.15184712312E+01 -0.30026068200E+02  0.35109573831E+03  0.35238060104E+03  0.00000000000E+00 0.  1.
         -4    1    1    2    0  502 -0.15184712312E+01  0.30026068200E+02  0.59160994014E+03  0.59237335507E+03  0.00000000000E+00 0. -1.
<mgrwt>
<rscale>  2 0.30064440E+02</rscale>
<asrwt>0</asrwt>
<pdfrwt beam="1">  1       21 0.14518851E+00 0.30064440E+02</pdfrwt>
<pdfrwt beam="2">  1       21 0.15756057E-03 0.30064440E+02</pdfrwt>
<totfact> 0.18554238E+07</totfact>
</mgrwt>
</event>
<event>
 4    1  0.7595771E+004  0.2315113E+02  0.7546771E-02  0.1689072E+00
         21   -1    0    0  501  502  0.00000000000E+00  0.00000000000E+00  0.66126258263E+01  0.66126258263E+01  0.00000000000E+00 0.  1.
         21   -1    0    0  502  503 -0.00000000000E+00 -0.00000000000E+00 -0.96796913956E+02  0.96796913956E+02  0.00000000000E+00 0.  1.
          5    1    1    2  501    0 -0.76195847540E+01  0.21861302501E+02 -0.65944405781E+02  0.69890194396E+02  0.00000000000E+00 0. -1.
         -5    1    1    2    0  503  0.76195847540E+01 -0.21861302501E+02 -0.24239882349E+02  0.33519345387E+02  0.00000000000E+00 0.  1.
<mgrwt>
<rscale>  2 0.23151126E+02</rscale>
<asrwt>0</asrwt>
<pdfrwt beam="1">  1       21 0.10173272E-02 0.23151126E+02</pdfrwt>
<pdfrwt beam="2">  1       21 0.14891831E-01 0.23151126E+02</pdfrwt>
<totfact> 0.99943483E+07</totfact>
</mgrwt>
</event>
<event>
 4    1  0.7595771E+004  0.2097299E+02  0.7546771E-02  0.1726644E+00
         21   -1    0    0  501  502  0.00000000000E+00  0.00000000000E+00  0.51308608613E+02  0.51308608613E+02  0.00000000000E+00 0.  1.
         21   -1    0    0  502  503 -0.00000000000E+00 -0.00000000000E+00 -0.87261808313E+01  0.87261808313E+01  0.00000000000E+00 0.  1.
          4    1    1    2  501    0 -0.43515291941E+00  0.20968477781E+02  0.25268860288E+02  0.32838722856E+02  0.00000000000E+00 0. -1.
         -4    1    1    2    0  503  0.43515291941E+00 -0.20968477781E+02  0.17313567493E+02  0.27196066588E+02  0.00000000000E+00 0.  1.
<mgrwt>
<rscale>  2 0.20972993E+02</rscale>
<asrwt>0</asrwt>
<pdfrwt beam="1">  1       21 0.78936319E-02 0.20972993E+02</pdfrwt>
<pdfrwt beam="2">  1       21 0.13424894E-02 0.20972993E+02</pdfrwt>
<totfact> 0.18340616E+08</totfact>
</mgrwt>
</event>
<event>
 4    1  0.7595771E+004  0.2697472E+02  0.7546771E-02  0.1634158E+00
         21   -1    0    0  503  502  0.00000000000E+00  0.00000000000E+00  0.40492884889E+02  0.40492884889E+02  0.00000000000E+00 0. -1.
         21   -1    0    0  501  503 -0.00000000000E+00 -0.00000000000E+00 -0.19731655445E+02  0.19731655445E+02  0.00000000000E+00 0. -1.
          2    1    1    2  501    0 -0.16080842846E+02  0.21657372145E+02  0.13817282036E+01  0.27010080483E+02  0.00000000000E+00 0.  1.
         -2    1    1    2    0  502  0.16080842846E+02 -0.21657372145E+02  0.19379501241E+02  0.33214459851E+02  0.00000000000E+00 0. -1.
<mgrwt>
<rscale>  2 0.26974715E+02</rscale>
<asrwt>0</asrwt>
<pdfrwt beam="1">  1       21 0.62296746E-02 0.26974715E+02</pdfrwt>
<pdfrwt beam="2">  1       21 0.30356393E-02 0.26974715E+02</pdfrwt>
<totfact> 0.82556854E+07</totfact>
</mgrwt>
</event>
<event>
 4    1  0.7595771E+004  0.3316972E+02  0.7546771E-02  0.1565482E+00
         21   -1    0    0  503  502  0.00000000000E+00  0.00000000000E+00  0.19322660169E+01  0.19322660169E+01  0.00000000000E+00 0. -1.
         21   -1    0    0  501  503 -0.00000000000E+00 -0.00000000000E+00 -0.80554421221E+03  0.80554421221E+03  0.00000000000E+00 0. -1.
          3    1    1    2  501    0  0.30064387082E+02 -0.14012959225E+02 -0.62040324518E+03  0.62128931829E+03  0.00000000000E+00 0. -1.
         -3    1    1    2    0  502 -0.30064387082E+02  0.14012959225E+02 -0.18320870102E+03  0.18618715994E+03  0.00000000000E+00 0.  1.
<mgrwt>
<rscale>  2 0.33169721E+02</rscale>
<asrwt>0</asrwt>
<pdfrwt beam="1">  1       21 0.29727174E-03 0.33169721E+02</pdfrwt>
<pdfrwt beam="2">  1       21 0.12392986E+00 0.33169721E+02</pdfrwt>
<totfact> 0.10794448E+07</totfact>
</mgrwt>
</event>
<event>
 4    1  0.7595771E+004  0.2930458E+02  0.7546771E-02  0.1605905E+00
         21   -1    0    0  503  502  0.00000000000E+00  0.00000000000E+00  0.20259237119E+02  0.20259237119E+02  0.00000000000E+00 0.  1.
         21   -1    0    0  501  503 -0.00000000000E+00 -0.00000000000E+00 -0.70305071113E+02  0.70305071113E+02  0.00000000000E+00 0.  1.
          3    1    1    2  501    0 -0.25345819032E+02  0.14708765121E+02 -0.53557066183E+02  0.61050124094E+02  0.00000000000E+00 0. -1.
         -3    1    1    2    0  502  0.25345819032E+02 -0.14708765121E+02  0.35112321883E+01  0.29514184137E+02  0.00000000000E+00 0.  1.
<mgrwt>
<rscale>  2 0.29304578E+02</rscale>
<asrwt>0</asrwt>
<pdfrwt beam="1">  1       21 0.31168058E-02 0.29304578E+02</pdfrwt>
<pdfrwt beam="2">  1       21 0.10816164E-01 0.29304578E+02</pdfrwt>
<totfact> 0.32535980E+07</totfact>
</mgrwt>
</event>
<event>
 4    1  0.7595771E+004  0.3257386E+02  0.7546771E-02  0.1571265E+00
         21   -1    0    0  503  502  0.00000000000E+00  0.00000000000E+00  0.37030177931E+03  0.37030177931E+03  0.00000000000E+00 0. -1.
         21   -1    0    0  501  503 -0.00000000000E+00 -0.00000000000E+00 -0.31541388916E+01  0.31541388916E+01  0.00000000000E+00 0. -1.
          3    1    1    2  501    0 -0.23994780580E+02  0.22029679007E+02  0.24007203408E+03  0.24227182626E+03  0.00000000000E+00 0. -1.
         -3    1    1    2    0  502  0.23994780580E+02 -0.22029679007E+02  0.12707560634E+03  0.13118409195E+03  0.00000000000E+00 0.  1.
<mgrwt>
<rscale>  2 0.32573858E+02</rscale>
<asrwt>0</asrwt>
<pdfrwt beam="1">  1       21 0.56969470E-01 0.32573858E+02</pdfrwt>
<pdfrwt beam="2">  1       21 0.48525243E-03 0.32573858E+02</pdfrwt>
<totfact> 0.27806105E+07</totfact>
</mgrwt>
</event>
<event>
 4    1  0.7595771E+004  0.2401501E+02  0.7546771E-02  0.1675566E+00
         21   -1    0    0  503  502  0.00000000000E+00  0.00000000000E+00  0.78117982650E+02  0.78117982650E+02  0.00000000000E+00 0. -1.
         21   -1    0    0  501  503 -0.00000000000E+00 -0.00000000000E+00 -0.11504261465E+02  0.11504261465E+02  0.00000000000E+00 0. -1.
          5    1    1    2  501    0  0.45141758464E+01  0.23586925708E+02  0.60128657211E+02  0.64747017429E+02  0.00000000000E+00 0.  1.
         -5    1    1    2    0  502 -0.45141758464E+01 -0.23586925708E+02  0.64850639736E+01  0.24875226686E+02  0.00000000000E+00 0. -1.
<mgrwt>
<rscale>  2 0.24015013E+02</rscale>
<asrwt>0</asrwt>
<pdfrwt beam="1">  1       21 0.12018151E-01 0.24015013E+02</pdfrwt>
<pdfrwt beam="2">  1       21 0.17698864E-02 0.24015013E+02</pdfrwt>
<totfact> 0.62624098E+07</totfact>
</mgrwt>
</event>
<event>
 4    1  0.7595771E+004  0.2675071E+02  0.7546771E-02  0.1637058E+00
         21   -1    0    0  501  502  0.00000000000E+00  0.00000000000E+00  0.33452307964E+01  0.33452307964E+01  0.00000000000E+00 0.  1.
         21   -1    0    0  502  503 -0.00000000000E+00 -0.00000000000E+00 -0.36451691425E+03  0.36451691425E+03  0.00000000000E+00 0.  1.
          2    1    1    2  501    0 -0.59369069509E+01  0.26083592009E+02 -0.62360903128E+02  0.67856339977E+02  0.00000000000E+00 0. -1.
         -2    1    1    2    0  503  0.59369069509E+01 -0.26083592009E+02 -0.29881078032E+03  0.30000580507E+03  0.00000000000E+00 0.  1.
<mgrwt>
<rscale>  2 0.26750713E+02</rscale>
<asrwt>0</asrwt>
<pdfrwt beam="1">  1       21 0.51465085E-03 0.26750713E+02</pdfrwt>
<pdfrwt beam="2">  1       21 0.56079530E-01 0.26750713E+02</pdfrwt>
<totfact> 0.25368578E+07</totfact>
</mgrwt>
</event>
<event>
 4    1  0.7595771E+004  0.2928153E+02  0.7546771E-02  0.1606169E+00
         21   -1    0    0  503  502  0.00000000000E+00  0.00000000000E+00  0.37868555597E+03  0.37868555597E+03  0.00000000000E+00 0. -1.
         21   -1    0    0  501  503 -0.00000000000E+00 -0.00000000000E+00 -0.24095879627E+01  0.24095879627E+01  0.00000000000E+00 0. -1.
          3    1    1    2  501    0 -0.27069725812E+02 -0.11164145797E+02  0.23494835818E+03  0.23676600098E+03  0.00000000000E+00 0.  1.
         -3    1    1    2    0  502  0.27069725812E+02  0.11164145797E+02  0.14132760982E+03  0.14432914295E+03  0.00000000000E+00 0. -1.
<mgrwt>
<rscale>  2 0.29281534E+02</rscale>
<asrwt>0</asrwt>
<pdfrwt beam="1">  1       21 0.58259269E-01 0.29281534E+02</pdfrwt>
<pdfrwt beam="2">  1       21 0.37070614E-03 0.29281534E+02</pdfrwt>
<totfact> 0.38868874E+07</totfact>
</mgrwt>
</event>
<event>
 4    1  0.7595771E+004  0.2526586E+02  0.7546771E-02  0.1657212E+00
         21   -1    0    0  503  502  0.00000000000E+00  0.00000000000E+00  0.97774062771E+03  0.97774062771E+03  0.00000000000E+00 0. -1.
         21   -1    0    0  501  503 -0.00000000000E+00 -0.00000000000E+00 -0.68744438561E+00  0.68744438561E+00  0.00000000000E+00 0. -1.
          1    1    1    2  501    0  0.10382484354E+02  0.23034054864E+02  0.59819697843E+03  0.59873031380E+03  0.00000000000E+00 0.  1.
         -1    1    1    2    0  502 -0.10382484354E+02 -0.23034054864E+02  0.37885620489E+03  0.37969775829E+03  0.00000000000E+00 0. -1.
<mgrwt>
<rscale>  2 0.25265860E+02</rscale>
<asrwt>0</asrwt>
<pdfrwt beam="1">  1       21 0.15042052E+00 0.25265860E+02</pdfrwt>
<pdfrwt beam="2">  1       21 0.10576146E-03 0.25265860E+02</pdfrwt>
<totfact> 0.29457187E+07</totfact>
</mgrwt>
</event>
<event>
 4    1  0.7595771E+004  0.3832074E+02  0.7546771E-02  0.1520946E+00
         21   -1    0    0  503  502  0.00000000000E+00  0.00000000000E+00  0.12649290919E+02  0.12649290919E+02  0.00000000000E+00 0. -1.
         21   -1    0    0  501  503 -0.00000000000E+00 -0.00000000000E+00 -0.15364400960E+03  0.15364400960E+03  0.00000000000E+00 0. -1.
          3    1    1    2  501    0 -0.28405766573E+02  0.25721419342E+02 -0.29391410920E+02  0.48294244206E+02  0.00000000000E+00 0.  1.
         -3    1    1    2    0  502  0.28405766573E+02 -0.25721419342E+02 -0.11160330776E+03  0.11799905631E+03  0.00000000000E+00 0. -1.
<mgrwt>
<rscale>  2 0.38320738E+02</rscale>
<asrwt>0</asrwt>
<pdfrwt beam="1">  1       21 0.19460448E-02 0.38320738E+02</pdfrwt>
<pdfrwt beam="2">  1       21 0.23637539E-01 0.38320738E+02</pdfrwt>
<totfact> 0.18334918E+07</totfact>
</mgrwt>
</event>
<event>
 4    1  0.7595771E+004  0.2630490E+02  0.7546771E-02  0.1642937E+00
         21   -1    0    0  501  502  0.00000000000E+00  0.00000000000E+00  0.27039404518E+02  0.27039404518E+02  0.00000000000E+00 0.  1.
         21   -1    0    0  502  503 -0.00000000000E+00 -0.00000000000E+00 -0.25991030874E+02  0.25991030874E+02  0.00000000000E+00 0.  1.
          5    1    1    2  501    0  0.25331416826E+02 -0.70899429028E+01 -0.27679651627E+01  0.26450134214E+02  0.00000000000E+00 0.  1.
         -5    1    1    2    0  503 -0.25331416826E+02  0.70899429028E+01  0.38163388069E+01  0.26580301178E+02  0.00000000000E+00 0. -1.
<mgrwt>
<rscale>  2 0.26304904E+02</rscale>
<asrwt>0</asrwt>
<pdfrwt beam="1">  1       21 0.41599084E-02 0.26304904E+02</pdfrwt>
<pdfrwt beam="2">  1       21 0.39986202E-02 0.26304904E+02</pdfrwt>
<totfact> 0.10150163E+08</totfact>
</mgrwt>
</event>
<event>
 4    1  0.7595771E+004  0.2931210E+02  0.7546771E-02  0.1605819E+00
         21   -1    0    0  503  502  0.00000000000E+00  0.00000000000E+00  0.23900216304E+01  0.23900216304E+01  0.00000000000E+00 0.  1.
         21   -1    0    0  501  503 -0.00000000000E+00 -0.00000000000E+00 -0.39473849174E+03  0.39473849174E+03  0.00000000000E+00 0.  1.
          4    1    1    2  501    0  0.27534941765E+02  0.10051192322E+02 -0.25550627183E+03  0.25718214252E+03  0.00000000000E+00 0. -1.
         -4    1    1    2    0  502 -0.27534941765E+02 -0.10051192322E+02 -0.13684219828E+03  0.13994637085E+03  0.00000000000E+00 0.  1.
<mgrwt>
<rscale>  2 0.29312105E+02</rscale>
<asrwt>0</asrwt>
<pdfrwt beam="1">  1       21 0.36769557E-03 0.29312105E+02</pdfrwt>
<pdfrwt beam="2">  1       21 0.60729010E-01 0.29312105E+02</pdfrwt>
<totfact> 0.36186340E+07</totfact>
</mgrwt>
</event>
<event>
 4    1  0.7595771E+004  0.2134434E+02  0.7546771E-02  0.1719844E+00
         21   -1    0    0  503  502  0.00000000000E+00  0.00000000000E+00  0.13548004200E+03  0.13548004200E+03  0.00000000000E+00 0. -1.
         21   -1    0    0  501  503 -0.00000000000E+00 -0.00000000000E+00 -0.33638927096E+01  0.33638927096E+01  0.00000000000E+00 0. -1.
          1    1    1    2  501    0 -0.17598464928E+02 -0.12077870312E+02  0.67356422908E+02  0.70657403193E+02  0.00000000000E+00 0.  1.
         -1    1    1    2    0  502  0.17598464928E+02  0.12077870312E+02  0.64759726387E+02  0.68186531521E+02  0.00000000000E+00 0. -1.
<mgrwt>
<rscale>  2 0.21344342E+02</rscale>
<asrwt>0</asrwt>
<pdfrwt beam="1">  1       21 0.20843079E-01 0.21344342E+02</pdfrwt>
<pdfrwt beam="2">  1       21 0.51752206E-03 0.21344342E+02</pdfrwt>
<totfact> 0.14947920E+08</totfact>
</mgrwt>
</event>
<event>
 4    1  0.7595771E+004  0.3946833E+02  0.7546771E-02  0.1512161E+00
         21   -1    0    0  503  502  0.00000000000E+00  0.00000000000E+00  0.61444446544E+01  0.61444446544E+01  0.00000000000E+00 0.  1.
         21   -1    0    0  501  503 -0.00000000000E+00 -0.00000000000E+00 -0.25392459281E+03  0.25392459281E+03  0.00000000000E+00 0.  1.
          4    1    1    2  501    0  0.39331872563E+02 -0.32791842439E+01 -0.11870957385E+03  0.12509880964E+03  0.00000000000E+00 0.  1.
         -4    1    1    2    0  502 -0.39331872563E+02  0.32791842439E+01 -0.12907057431E+03  0.13497022783E+03  0.00000000000E+00 0. -1.
<mgrwt>
<rscale>  2 0.39468332E+02</rscale>
<asrwt>0</asrwt>
<pdfrwt beam="1">  1       21 0.94529892E-03 0.39468332E+02</pdfrwt>
<pdfrwt beam="2">  1       21 0.39065332E-01 0.39468332E+02</pdfrwt>
<totfact> 0.22019097E+07</totfact>
</mgrwt>
</event>
<event>
 4    1  0.7595771E+004  0.2585537E+02  0.7546771E-02  0.1649011E+00
         21   -1    0    0  503  502  0.00000000000E+00  0.00000000000E+00  0.17740771839E+02  0.17740771839E+02  0.00000000000E+00 0.  1.
         21   -1    0    0  501  503 -0.00000000000E+00 -0.00000000000E+00 -0.38149917221E+02  0.38149917221E+02  0.00000000000E+00 0.  1.
          5    1    1    2  501    0 -0.16933375007E+02  0.19538703538E+02 -0.71082449376E+01  0.26814683872E+02  0.00000000000E+00 0. -1.
         -5    1    1    2    0  502  0.16933375007E+02 -0.19538703538E+02 -0.13300900445E+02  0.29076005188E+02  0.00000000000E+00 0.  1.
<mgrwt>
<rscale>  2 0.25855369E+02</rscale>
<asrwt>0</asrwt>
<pdfrwt beam="1">  1       21 0.27293495E-02 0.25855369E+02</pdfrwt>
<pdfrwt beam="2">  1       21 0.58692180E-02 0.25855369E+02</pdfrwt>
<totfact> 0.10616056E+08</totfact>
</mgrwt>
</event>
<event>
 4    1  0.7595771E+004  0.2523231E+02  0.7546771E-02  0.1657687E+00
         21   -1    0    0  501  502  0.00000000000E+00  0.00000000000E+00  0.21739481067E+01  0.21739481067E+01  0.00000000000E+00 0. -1.
         21   -1    0    0  502  503 -0.00000000000E+00 -0.00000000000E+00 -0.35800760033E+03  0.35800760033E+03  0.00000000000E+00 0. -1.
          5    1    1    2  501    0 -0.20218663413E+02 -0.15095537198E+02 -0.10109518349E+03  0.10419647652E+03  0.00000000000E+00 0.  1.
         -5    1    1    2    0  503  0.20218663413E+02  0.15095537198E+02 -0.25473846873E+03  0.25598507192E+03  0.00000000000E+00 0. -1.
<mgrwt>
<rscale>  2 0.25232312E+02</rscale>
<asrwt>0</asrwt>
<pdfrwt beam="1">  1       21 0.33445334E-03 0.25232312E+02</pdfrwt>
<pdfrwt beam="2">  1       21 0.55078128E-01 0.25232312E+02</pdfrwt>
<totfact> 0.49044400E+07</totfact>
</mgrwt>
</event>
<event>
 4    1  0.7595771E+004  0.2110856E+02  0.7546771E-02  0.1724141E+00
         21   -1    0    0  503  502  0.00000000000E+00  0.00000000000E+00  0.22967274491E+02  0.22967274491E+02  0.00000000000E+00 0.  1.
         21   -1    0    0  501  503 -0.00000000000E+00 -0.00000000000E+00 -0.20591429099E+02  0.20591429099E+02  0.00000000000E+00 0.  1.
          1    1    1    2  501    0 -0.14463048099E+02  0.15375027093E+02 -0.40503420945E+01  0.21493638350E+02  0.00000000000E+00 0.  1.
         -1    1    1    2    0  502  0.14463048099E+02 -0.15375027093E+02  0.64261874871E+01  0.22065065240E+02  0.00000000000E+00 0. -1.
<mgrwt>
<rscale>  2 0.21108558E+02</rscale>
<asrwt>0</asrwt>
<pdfrwt beam="1">  1       21 0.35334269E-02 0.21108558E+02</pdfrwt>
<pdfrwt beam="2">  1       21 0.31679122E-02 0.21108558E+02</pdfrwt>
<totfact> 0.17733726E+08</totfact>
</mgrwt>
</event>
<event>
 4    1  0.7595771E+004  0.2539871E+02  0.7546771E-02  0.1655340E+00
         21   -1    0    0  503  502  0.00000000000E+00  0.00000000000E+00  0.18462656294E+03  0.18462656294E+03  0.00000000000E+00 0. -1.
         21   -1    0    0  501  503 -0.00000000000E+00 -0.00000000000E+00 -0.55958701164E+01  0.55958701164E+01  0.00000000000E+00 0. -1.
          5    1    1    2  501    0  0.24039970426E+02  0.81959935320E+01  0.14780556317E+03  0.14997192734E+03  0.00000000000E+00 0.  1.
         -5    1    1    2    0  502 -0.24039970426E+02 -0.81959935320E+01  0.31225129656E+02  0.40250505712E+02  0.00000000000E+00 0. -1.
<mgrwt>
<rscale>  2 0.25398710E+02</rscale>
<asrwt>0</asrwt>
<pdfrwt beam="1">  1       21 0.28404082E-01 0.25398710E+02</pdfrwt>
<pdfrwt beam="2">  1       21 0.86090323E-03 0.25398710E+02</pdfrwt>
<totfact> 0.42327826E+07</totfact>
</mgrwt>
</event>
<event>
 4    1  0.7595771E+004  0.2260683E+02  0.7546771E-02  0.1697964E+00
         21   -1    0    0  503  502  0.00000000000E+00  0.00000000000E+00  0.65406511886E+01  0.65406511886E+01  0.00000000000E+00 0. -1.
         21   -1    0    0  501  503 -0.00000000000E+00 -0.00000000000E+00 -0.78592195303E+02  0.78592195303E+02  0.00000000000E+00 0. -1.
          5    1    1    2  501    0  0.17260434112E+02  0.14599528174E+02 -0.32787343612E+02  0.39825603697E+02  0.00000000000E+00 0.  1.
         -5    1    1    2    0  502 -0.17260434112E+02 -0.14599528174E+02 -0.39264200502E+02  0.45307242795E+02  0.00000000000E+00 0. -1.
<mgrwt>
<rscale>  2 0.22606831E+02</rscale>
<asrwt>0</asrwt>
<pdfrwt beam="1">  1       21 0.10062541E-02 0.22606831E+02</pdfrwt>
<pdfrwt beam="2">  1       21 0.12091107E-01 0.22606831E+02</pdfrwt>
<totfact> 0.14342880E+08</totfact>
</mgrwt>
</event>
<event>
 4    1  0.7595771E+004  0.2003364E+02  0.7546771E-02  0.1744660E+00
         21   -1    0    0  503  502  0.00000000000E+00  0.00000000000E+00  0.63319769920E+02  0.63319769920E+02  0.00000000000E+00 0.  1.
         21   -1    0    0  501  503 -0.00000000000E+00 -0.00000000000E+00 -0.74589382279E+01  0.74589382279E+01  0.00000000000E+00 0.  1.
          1    1    1    2  501    0  0.57500696326E+01 -0.19190709081E+02  0.41646990626E+02  0.46214915817E+02  0.00000000000E+00 0. -1.
         -1    1    1    2    0  502 -0.57500696326E+01  0.19190709081E+02  0.14213841066E+02  0.24563792330E+02  0.00000000000E+00 0.  1.
<mgrwt>
<rscale>  2 0.20033637E+02</rscale>
<asrwt>0</asrwt>
<pdfrwt beam="1">  1       21 0.97415027E-02 0.20033637E+02</pdfrwt>
<pdfrwt beam="2">  1       21 0.11475290E-02 0.20033637E+02</pdfrwt>
<totfact> 0.16236646E+08</totfact>
</mgrwt>
</event>
<event>
 4    1  0.7595771E+004  0.2851858E+02  0.7546771E-02  0.1615066E+00
         21   -1    0    0  501  502  0.00000000000E+00  0.00000000000E+00  0.10094064537E+04  0.10094064537E+04  0.00000000000E+00 0. -1.
         21   -1    0    0  502  503 -0.00000000000E+00 -0.00000000000E+00 -0.80593758907E+00  0.80593758907E+00  0.00000000000E+00 0. -1.
          4    1    1    2  501    0 -0.10204389702E+02  0.26630430003E+02  0.49619973015E+03  0.49701859278E+03  0.00000000000E+00 0.  1.
         -4    1    1    2    0  503  0.10204389702E+02 -0.26630430003E+02  0.51240078595E+03  0.51319379849E+03  0.00000000000E+00 0. -1.
<mgrwt>
<rscale>  2 0.28518579E+02</rscale>
<asrwt>0</asrwt>
<pdfrwt beam="1">  1       21 0.15529229E+00 0.28518579E+02</pdfrwt>
<pdfrwt beam="2">  1       21 0.12399121E-03 0.28518579E+02</pdfrwt>
<totfact> 0.22140042E+07</totfact>
</mgrwt>
</event>
<event>
 4    1  0.7595771E+004  0.3750903E+02  0.7546771E-02  0.1527386E+00
         21   -1    0    0  503  502  0.00000000000E+00  0.00000000000E+00  0.19817932519E+02  0.19817932519E+02  0.00000000000E+00 0. -1.
         21   -1    0    0  501  503 -0.00000000000E+00 -0.00000000000E+00 -0.72617788262E+02  0.72617788262E+02  0.00000000000E+00 0. -1.
          4    1    1    2  501    0  0.37409494730E+02  0.27307437241E+01 -0.19485831330E+02  0.42268485658E+02  0.00000000000E+00 0.  1.
         -4    1    1    2    0  502 -0.37409494730E+02 -0.27307437241E+01 -0.33314024413E+02  0.50167235122E+02  0.00000000000E+00 0. -1.
<mgrwt>
<rscale>  2 0.37509029E+02</rscale>
<asrwt>0</asrwt>
<pdfrwt beam="1">  1       21 0.30489127E-02 0.37509029E+02</pdfrwt>
<pdfrwt beam="2">  1       21 0.11171967E-01 0.37509029E+02</pdfrwt>
<totfact> 0.33463224E+07</totfact>
</mgrwt>
</event>
<event>
 4    1  0.7595771E+004  0.2098011E+02  0.7546771E-02  0.1726512E+00
         21   -1    0    0  503  502  0.00000000000E+00  0.00000000000E+00  0.19270367531E+02  0.19270367531E+02  0.00000000000E+00 0.  1.
         21   -1    0    0  501  503 -0.00000000000E+00 -0.00000000000E+00 -0.23459101007E+02  0.23459101007E+02  0.00000000000E+00 0.  1.
          5    1    1    2  501    0 -0.56051337812E+01 -0.20217502871E+02 -0.55607801376E+01  0.21704543828E+02  0.00000000000E+00 0. -1.
         -5    1    1    2    0  502  0.56051337812E+01  0.20217502871E+02  0.13720466622E+01  0.21024924710E+02  0.00000000000E+00 0.  1.
<mgrwt>
<rscale>  2 0.20980108E+02</rscale>
<asrwt>0</asrwt>
<pdfrwt beam="1">  1       21 0.29646719E-02 0.20980108E+02</pdfrwt>
<pdfrwt beam="2">  1       21 0.36090925E-02 0.20980108E+02</pdfrwt>
<totfact> 0.18980363E+08</totfact>
</mgrwt>
</event>
<event>
 4    1  0.7595771E+004  0.2987985E+02  0.7546771E-02  0.1599421E+00
         21   -1    0    0  503  502  0.00000000000E+00  0.00000000000E+00  0.44479543891E+02  0.44479543891E+02  0.00000000000E+00 0.  1.
         21   -1    0    0  501  503 -0.00000000000E+00 -0.00000000000E+00 -0.21049786102E+02  0.21049786102E+02  0.00000000000E+00 0.  1.
          2    1    1    2  501    0  0.26578216687E+02  0.13652968535E+02  0.46542211735E+01  0.30240154212E+02  0.00000000000E+00 0.  1.
         -2    1    1    2    0  502 -0.26578216687E+02 -0.13652968535E+02  0.18775536615E+02  0.35289175780E+02  0.00000000000E+00 0. -1.
<mgrwt>
<rscale>  2 0.29879845E+02</rscale>
<asrwt>0</asrwt>
<pdfrwt beam="1">  1       21 0.68430068E-02 0.29879845E+02</pdfrwt>
<pdfrwt beam="2">  1       21 0.32384286E-02 0.29879845E+02</pdfrwt>
<totfact> 0.65643723E+07</totfact>
</mgrwt>
</event>
<event>
 4    1  0.7595771E+004  0.2603416E+02  0.7546771E-02  0.1646577E+00
         21   -1    0    0  501  502  0.00000000000E+00  0.00000000000E+00  0.55421748746E+00  0.55421748746E+00  0.00000000000E+00 0. -1.
         21   -1    0    0  502  503 -0.00000000000E+00 -0.00000000000E+00 -0.13308044738E+04  0.13308044738E+04  0.00000000000E+00 0. -1.
          2    1    1    2  501    0  0.23429806860E+02  0.11349965048E+02 -0.47561303881E+03  0.47632503634E+03  0.00000000000E+00 0.  1.
         -2    1    1    2    0  503 -0.23429806860E+02 -0.11349965048E+02 -0.85463721748E+03  0.85503365492E+03  0.00000000000E+00 0. -1.
<mgrwt>
<rscale>  2 0.26034161E+02</rscale>
<asrwt>0</asrwt>
<pdfrwt beam="1">  1       21 0.85264561E-04 0.26034161E+02</pdfrwt>
<pdfrwt beam="2">  1       21 0.20473835E+00 0.26034161E+02</pdfrwt>
<totfact> 0.18645882E+07</totfact>
</mgrwt>
</event>
<event>
 4    1  0.7595771E+004  0.2788745E+02  0.7546771E-02  0.1622687E+00
         21   -1    0    0  503  502  0.00000000000E+00  0.00000000000E+00  0.34135582438E+02  0.34135582438E+02  0.00000000000E+00 0. -1.
         21   -1    0    0  501  503 -0.00000000000E+00 -0.00000000000E+00 -0.23254684954E+02  0.23254684954E+02  0.00000000000E+00 0. -1.
          2    1    1    2  501    0 -0.20470604875E+02 -0.18938434489E+02  0.95273359587E+01  0.29469986347E+02  0.00000000000E+00 0.  1.
         -2    1    1    2    0  502  0.20470604875E+02  0.18938434489E+02  0.13535615256E+01  0.27920281045E+02  0.00000000000E+00 0. -1.
<mgrwt>
<rscale>  2 0.27887452E+02</rscale>
<asrwt>0</asrwt>
<pdfrwt beam="1">  1       21 0.52516281E-02 0.27887452E+02</pdfrwt>
<pdfrwt beam="2">  1       21 0.35776438E-02 0.27887452E+02</pdfrwt>
<totfact> 0.84691812E+07</totfact>
</mgrwt>
</event>
<event>
 4    1  0.7595771E+004  0.2394060E+02  0.7546771E-02  0.1676702E+00
         21   -1    0    0  501  502  0.00000000000E+00  0.00000000000E+00  0.48890621144E+01  0.48890621144E+01  0.00000000000E+00 0.  1.
         21   -1    0    0  502  503 -0.00000000000E+00 -0.00000000000E+00 -0.24599901878E+03  0.24599901878E+03  0.00000000000E+00 0.  1.
          1    1    1    2  501    0 -0.18328572566E+02  0.15401814110E+02 -0.21131328496E+03  0.21266512844E+03  0.00000000000E+00 0.  1.
         -1    1    1    2    0  503  0.18328572566E+02 -0.15401814110E+02 -0.29796671702E+02  0.38222952459E+02  0.00000000000E+00 0. -1.
<mgrwt>
<rscale>  2 0.23940603E+02</rscale>
<asrwt>0</asrwt>
<pdfrwt beam="1">  1       21 0.75216342E-03 0.23940603E+02</pdfrwt>
<pdfrwt beam="2">  1       21 0.37846002E-01 0.23940603E+02</pdfrwt>
<totfact> 0.30125983E+07</totfact>
</mgrwt>
</event>
<event>
 4    1  0.7595771E+004  0.2258001E+02  0.7546771E-02  0.1698410E+00
         21   -1    0    0  501  502  0.00000000000E+00  0.00000000000E+00  0.11834031979E+03  0.11834031979E+03  0.00000000000E+00 0. -1.
         21   -1    0    0  502  503 -0.00000000000E+00 -0.00000000000E+00 -0.57929077307E+01  0.57929077307E+01  0.00000000000E+00 0. -1.
          3    1    1    2  501    0 -0.19668511560E+02 -0.11090828081E+02  0.24854027054E+02  0.33579450194E+02  0.00000000000E+00 0.  1.
         -3    1    1    2    0  503  0.19668511560E+02  0.11090828081E+02  0.87693385002E+02  0.90553777324E+02  0.00000000000E+00 0. -1.
<mgrwt>
<rscale>  2 0.22580009E+02</rscale>
<asrwt>0</asrwt>
<pdfrwt beam="1">  1       21 0.18206201E-01 0.22580009E+02</pdfrwt>
<pdfrwt beam="2">  1       21 0.89121666E-03 0.22580009E+02</pdfrwt>
<totfact> 0.85757032E+07</totfact>
</mgrwt>
</event>
<event>
 4    1  0.7595771E+004  0.2093010E+02  0.7546771E-02  0.1727440E+00
         21   -1    0    0  501  502  0.00000000000E+00  0.00000000000E+00  0.66713790049E+00  0.66713790049E+00  0.00000000000E+00 0.  1.
         21   -1    0    0  502  503 -0.00000000000E+00 -0.00000000000E+00 -0.66594362747E+03  0.66594362747E+03  0.00000000000E+00 0.  1.
          1    1    1    2  501    0  0.20921258781E+02 -0.60829841184E+00 -0.29324139733E+03  0.29398739123E+03  0.00000000000E+00 0. -1.
         -1    1    1    2    0  503 -0.20921258781E+02  0.60829841184E+00 -0.37203509224E+03  0.37262337414E+03  0.00000000000E+00 0.  1.
<mgrwt>
<rscale>  2 0.20930100E+02</rscale>
<asrwt>0</asrwt>
<pdfrwt beam="1">  1       21 0.10263588E-03 0.20930100E+02</pdfrwt>
<pdfrwt beam="2">  1       21 0.10245359E+00 0.20930100E+02</pdfrwt>
<totfact> 0.71033799E+07</totfact>
</mgrwt>
</event>
<event>
 4    1  0.7595771E+004  0.2002940E+02  0.7546771E-02  0.1744744E+00
         21   -1    0    0  501  502  0.00000000000E+00  0.00000000000E+00  0.96075204509E+01  0.96075204509E+01  0.00000000000E+00 0. -1.
         21   -1    0    0  502  503 -0.00000000000E+00 -0.00000000000E+00 -0.41781645596E+02  0.41781645596E+02  0.00000000000E+00 0. -1.
          5    1    1    2  501    0 -0.19839836793E+02  0.27491481764E+01 -0.15457383695E+02  0.25300348819E+02  0.00000000000E+00 0.  1.
         -5    1    1    2    0  503  0.19839836793E+02 -0.27491481764E+01 -0.16716741450E+02  0.26088817228E+02  0.00000000000E+00 0. -1.
<mgrwt>
<rscale>  2 0.20029402E+02</rscale>
<asrwt>0</asrwt>
<pdfrwt beam="1">  1       21 0.14780800E-02 0.20029402E+02</pdfrwt>
<pdfrwt beam="2">  1       21 0.64279456E-02 0.20029402E+02</pdfrwt>
<totfact> 0.21762675E+08</totfact>
</mgrwt>
</event>
<event>
 4    1  0.7595771E+004  0.2023007E+02  0.7546771E-02  0.1740791E+00
         21   -1    0    0  503  502  0.00000000000E+00  0.00000000000E+00  0.82496884278E+02  0.82496884278E+02  0.00000000000E+00 0.  1.
         21   -1    0    0  501  503 -0.00000000000E+00 -0.00000000000E+00 -0.74518051511E+01  0.74518051511E+01  0.00000000000E+00 0.  1.
          2    1    1    2  501    0 -0.19592643916E+02  0.50382552824E+01  0.11519988946E+02  0.23280160163E+02  0.00000000000E+00 0.  1.
         -2    1    1    2    0  502  0.19592643916E+02 -0.50382552824E+01  0.63525090181E+02  0.66668529265E+02  0.00000000000E+00 0. -1.
<mgrwt>
<rscale>  2 0.20230069E+02</rscale>
<asrwt>0</asrwt>
<pdfrwt beam="1">  1       21 0.12691828E-01 0.20230069E+02</pdfrwt>
<pdfrwt beam="2">  1       21 0.11464316E-02 0.20230069E+02</pdfrwt>
<totfact> 0.10523540E+08</totfact>
</mgrwt>
</event>
<event>
 4    1  0.7595771E+004  0.3519080E+02  0.7546771E-02  0.1546913E+00
         21   -1    0    0  501  502  0.00000000000E+00  0.00000000000E+00  0.81945874191E+02  0.81945874191E+02  0.00000000000E+00 0.  1.
         21   -1    0    0  502  503 -0.00000000000E+00 -0.00000000000E+00 -0.19109194990E+02  0.19109194990E+02  0.00000000000E+00 0.  1.
          4    1    1    2  501    0 -0.16112694480E+02  0.31285359600E+02  0.54526583665E+02  0.64896386455E+02  0.00000000000E+00 0.  1.
         -4    1    1    2    0  503  0.16112694480E+02 -0.31285359600E+02  0.83100955363E+01  0.36158682727E+02  0.00000000000E+00 0. -1.
<mgrwt>
<rscale>  2 0.35190803E+02</rscale>
<asrwt>0</asrwt>
<pdfrwt beam="1">  1       21 0.12607057E-01 0.35190803E+02</pdfrwt>
<pdfrwt beam="2">  1       21 0.29398762E-02 0.35190803E+02</pdfrwt>
<totfact> 0.28524763E+07</totfact>
</mgrwt>
</event>
<event>
 4    1  0.7595771E+004  0.2221149E+02  0.7546771E-02  0.1704620E+00
         21   -1    0    0  503  502  0.00000000000E+00  0.00000000000E+00  0.33870584867E+02  0.33870584867E+02  0.00000000000E+00 0.  1.
         21   -1    0    0  501  503 -0.00000000000E+00 -0.00000000000E+00 -0.14580690719E+02  0.14580690719E+02  0.00000000000E+00 0.  1.
          2    1    1    2  501    0  0.91996735158E+01 -0.20216730747E+02  0.88692527964E+01  0.23916810825E+02  0.00000000000E+00 0. -1.
         -2    1    1    2    0  502 -0.91996735158E+01  0.20216730747E+02  0.10420641352E+02  0.24534464760E+02  0.00000000000E+00 0.  1.
<mgrwt>
<rscale>  2 0.22211488E+02</rscale>
<asrwt>0</asrwt>
<pdfrwt beam="1">  1       21 0.52108592E-02 0.22211488E+02</pdfrwt>
<pdfrwt beam="2">  1       21 0.22431832E-02 0.22211488E+02</pdfrwt>
<totfact> 0.16653807E+08</totfact>
</mgrwt>
</event>
<event>
 4    1  0.7595771E+004  0.2006906E+02  0.7546771E-02  0.1743958E+00
         21   -1    0    0  501  502  0.00000000000E+00  0.00000000000E+00  0.65941016843E+03  0.65941016843E+03  0.00000000000E+00 0. -1.
         21   -1    0    0  502  503 -0.00000000000E+00 -0.00000000000E+00 -0.62112873055E+00  0.62112873055E+00  0.00000000000E+00 0. -1.
          3    1    1    2  501    0 -0.88741728147E+01 -0.18000449314E+02  0.37195305948E+03  0.37249408797E+03  0.00000000000E+00 0.  1.
         -3    1    1    2    0  503  0.88741728147E+01  0.18000449314E+02  0.28683598021E+03  0.28753720918E+03  0.00000000000E+00 0. -1.
<mgrwt>
<rscale>  2 0.20069059E+02</rscale>
<asrwt>0</asrwt>
<pdfrwt beam="1">  1       21 0.10144716E+00 0.20069059E+02</pdfrwt>
<pdfrwt beam="2">  1       21 0.95558794E-04 0.20069059E+02</pdfrwt>
<totfact> 0.79495360E+07</totfact>
</mgrwt>
</event>
<event>
 4    1  0.7595771E+004  0.2035175E+02  0.7546771E-02  0.1738422E+00
         21   -1    0    0  503  502  0.00000000000E+00  0.00000000000E+00  0.67481063678E+01  0.67481063678E+01  0.00000000000E+00 0. -1.
         21   -1    0    0  501  503 -0.00000000000E+00 -0.00000000000E+00 -0.66930245921E+02  0.66930245921E+02  0.00000000000E+00 0. -1.
          4    1    1    2  501    0 -0.20351332998E+02 -0.12987023895E+00 -0.19481820454E+02  0.28173302065E+02  0.00000000000E+00 0. -1.
         -4    1    1    2    0  502  0.20351332998E+02  0.12987023895E+00 -0.40700319098E+02  0.45505050223E+02  0.00000000000E+00 0.  1.
<mgrwt>
<rscale>  2 0.20351747E+02</rscale>
<asrwt>0</asrwt>
<pdfrwt beam="1">  1       21 0.10381702E-02 0.20351747E+02</pdfrwt>
<pdfrwt beam="2">  1       21 0.10296961E-01 0.20351747E+02</pdfrwt>
<totfact> 0.17309021E+08</totfact>
</mgrwt>
</event>
<event>
 4    1  0.7595771E+004  0.2431316E+02  0.7546771E-02  0.1671068E+00
         21   -1    0    0  501  502  0.00000000000E+00  0.00000000000E+00  0.29481825960E+02  0.29481825960E+02  0.00000000000E+00 0. -1.
         21   -1    0    0  502  503 -0.00000000000E+00 -0.00000000000E+00 -0.20836714936E+02  0.20836714936E+02  0.00000000000E+00 0. -1.
          4    1    1    2  501    0  0.22628621321E+02  0.88924281957E+01 -0.56410931027E+00  0.24319703974E+02  0.00000000000E+00 0.  1.
         -4    1    1    2    0  503 -0.22628621321E+02 -0.88924281957E+01  0.92092203343E+01  0.25998836921E+02  0.00000000000E+00 0. -1.
<mgrwt>
<rscale>  2 0.24313161E+02</rscale>
<asrwt>0</asrwt>
<pdfrwt beam="1">  1       21 0.45356656E-02 0.24313161E+02</pdfrwt>
<pdfrwt beam="2">  1       21 0.32056484E-02 0.24313161E+02</pdfrwt>
<totfact> 0.12265906E+08</totfact>
</mgrwt>
</event>
<event>
 4    1  0.7595771E+004  0.2115301E+02  0.7546771E-02  0.1723326E+00
         21   -1    0    0  503  502  0.00000000000E+00  0.00000000000E+00  0.89820961003E+00  0.89820961003E+00  0.00000000000E+00 0. -1.
         21   -1    0    0  501  503 -0.00000000000E+00 -0.00000000000E+00 -0.52543836980E+03  0.52543836980E+03  0.00000000000E+00 0. -1.
          3    1    1    2  501    0 -0.20394380226E+02  0.56141838485E+01 -0.20230447719E+03  0.20340735310E+03  0.00000000000E+00 0. -1.
         -3    1    1    2    0  502  0.20394380226E+02 -0.56141838485E+01 -0.32223568300E+03  0.32292922631E+03  0.00000000000E+00 0.  1.
<mgrwt>
<rscale>  2 0.21153009E+02</rscale>
<asrwt>0</asrwt>
<pdfrwt beam="1">  1       21 0.13818571E-03 0.21153009E+02</pdfrwt>
<pdfrwt beam="2">  1       21 0.80836900E-01 0.21153009E+02</pdfrwt>
<totfact> 0.77401032E+07</totfact>
</mgrwt>
</event>
<event>
 4    1  0.7595771E+004  0.6827894E+02  0.7546771E-02  0.1366045E+00
         21   -1    0    0  501  502  0.00000000000E+00  0.00000000000E+00  0.68099085352E+02  0.68099085352E+02  0.00000000000E+00 0.  1.
         21   -1    0    0  502  503 -0.00000000000E+00 -0.00000000000E+00 -0.71964385263E+02  0.71964385263E+02  0.00000000000E+00 0.  1.
          5    1    1    2  501    0  0.53749485621E+02  0.42107079069E+02 -0.17388309981E+02  0.70458261661E+02  0.00000000000E+00 0.  1.
         -5    1    1    2    0  503 -0.53749485621E+02 -0.42107079069E+02  0.13523010069E+02  0.69605208954E+02  0.00000000000E+00 0. -1.
<mgrwt>
<rscale>  2 0.68278938E+02</rscale>
<asrwt>0</asrwt>
<pdfrwt beam="1">  1       21 0.10476782E-01 0.68278938E+02</pdfrwt>
<pdfrwt beam="2">  1       21 0.11071444E-01 0.68278938E+02</pdfrwt>
<totfact> 0.47897686E+06</totfact>
</mgrwt>
</event>
<event>
 4    1  0.7595771E+004  0.3923555E+02  0.7546771E-02  0.1513914E+00
         21   -1    0    0  501  502  0.00000000000E+00  0.00000000000E+00  0.14278453537E+02  0.14278453537E+02  0.00000000000E+00 0. -1.
         21   -1    0    0  502  503 -0.00000000000E+00 -0.00000000000E+00 -0.10801142487E+03  0.10801142487E+03  0.00000000000E+00 0. -1.
          4    1    1    2  501    0 -0.23202536005E+02  0.31639699690E+02 -0.49475467770E+02  0.63144676613E+02  0.00000000000E+00 0.  1.
         -4    1    1    2    0  503  0.23202536005E+02 -0.31639699690E+02 -0.44257503562E+02  0.59145201793E+02  0.00000000000E+00 0. -1.
<mgrwt>
<rscale>  2 0.39235549E+02</rscale>
<asrwt>0</asrwt>
<pdfrwt beam="1">  1       21 0.21966852E-02 0.39235549E+02</pdfrwt>
<pdfrwt beam="2">  1       21 0.16617142E-01 0.39235549E+02</pdfrwt>
<totfact> 0.28517249E+07</totfact>
</mgrwt>
</event>
<event>
 4    1  0.7595771E+004  0.2403862E+02  0.7546771E-02  0.1675207E+00
         21   -1    0    0  501  502  0.00000000000E+00  0.00000000000E+00  0.36167031795E+03  0.36167031795E+03  0.00000000000E+00 0. -1.
         21   -1    0    0  502  503 -0.00000000000E+00 -0.00000000000E+00 -0.16758702099E+01  0.16758702099E+01  0.00000000000E+00 0. -1.
          2    1    1    2  501    0  0.24898238718E+01  0.23909328019E+02  0.14077073001E+03  0.14280845079E+03  0.00000000000E+00 0. -1.
         -2    1    1    2    0  503 -0.24898238718E+01 -0.23909328019E+02  0.21922371773E+03  0.22053773737E+03  0.00000000000E+00 0.  1.
<mgrwt>
<rscale>  2 0.24038619E+02</rscale>
<asrwt>0</asrwt>
<pdfrwt beam="1">  1       21 0.55641525E-01 0.24038619E+02</pdfrwt>
<pdfrwt beam="2">  1       21 0.25782647E-03 0.24038619E+02</pdfrwt>
<totfact> 0.69503534E+07</totfact>
</mgrwt>
</event>
<event>
 4    1  0.7595771E+004  0.2236998E+02  0.7546771E-02  0.1701931E+00
         21   -1    0    0  501  502  0.00000000000E+00  0.00000000000E+00  0.19999109499E+03  0.19999109499E+03  0.00000000000E+00 0. -1.
         21   -1    0    0  502  503 -0.00000000000E+00 -0.00000000000E+00 -0.25313972580E+01  0.25313972580E+01  0.00000000000E+00 0. -1.
          2    1    1    2  501    0  0.14257526308E+02 -0.17237719270E+02  0.87853147527E+02  0.90656447936E+02  0.00000000000E+00 0.  1.
         -2    1    1    2    0  503 -0.14257526308E+02  0.17237719270E+02  0.10960655021E+03  0.11186604432E+03  0.00000000000E+00 0. -1.
<mgrwt>
<rscale>  2 0.22369980E+02</rscale>
<asrwt>0</asrwt>
<pdfrwt beam="1">  1       21 0.30767848E-01 0.22369980E+02</pdfrwt>
<pdfrwt beam="2">  1       21 0.38944589E-03 0.22369980E+02</pdfrwt>
<totfact> 0.11489318E+08</totfact>
</mgrwt>
</event>
<event>
 4    1  0.7595771E+004  0.2164682E+02  0.7546771E-02  0.1714433E+00
         21   -1    0    0  501  502  0.00000000000E+00  0.00000000000E+00  0.11404209161E+03  0.11404209161E+03  0.00000000000E+00 0. -1.
         21   -1    0    0  502  503 -0.00000000000E+00 -0.00000000000E+00 -0.41093690482E+01  0.41093690482E+01  0.00000000000E+00 0. -1.
          5    1    1    2  501    0  0.66315544659E+01 -0.20605996756E+02  0.54318140732E+02  0.58472600673E+02  0.00000000000E+00 0.  1.
         -5    1    1    2    0  503 -0.66315544659E+01  0.20605996756E+02  0.55614581825E+02  0.59678859980E+02  0.00000000000E+00 0. -1.
<mgrwt>
<rscale>  2 0.21646815E+02</rscale>
<asrwt>0</asrwt>
<pdfrwt beam="1">  1       21 0.17544935E-01 0.21646815E+02</pdfrwt>
<pdfrwt beam="2">  1       21 0.63221071E-03 0.21646815E+02</pdfrwt>
<totfact> 0.15054618E+08</totfact>
</mgrwt>
</event>
<event>
 4    1  0.7595771E+004  0.2302967E+02  0.7546771E-02  0.1691030E+00
         21   -1    0    0  503  502  0.00000000000E+00  0.00000000000E+00  0.38051623782E+01  0.38051623782E+01  0.00000000000E+00 0. -1.
         21   -1    0    0  501  503 -0.00000000000E+00 -0.00000000000E+00 -0.17000842922E+03  0.17000842922E+03  0.00000000000E+00 0. -1.
          1    1    1    2  501    0  0.15651566041E+01 -0.22976419580E+02 -0.46214316016E+02  0.51634567653E+02  0.00000000000E+00 0. -1.
         -1    1    1    2    0  502 -0.15651566041E+01  0.22976419580E+02 -0.11998895083E+03  0.12217902395E+03  0.00000000000E+00 0.  1.
<mgrwt>
<rscale>  2 0.23029667E+02</rscale>
<asrwt>0</asrwt>
<pdfrwt beam="1">  1       21 0.58540959E-03 0.23029667E+02</pdfrwt>
<pdfrwt beam="2">  1       21 0.26155143E-01 0.23029667E+02</pdfrwt>
<totfact> 0.85208800E+07</totfact>
</mgrwt>
</event>
<event>
 4    1  0.7595771E+004  0.3734070E+02  0.7546771E-02  0.1528746E+00
         21   -1    0    0  501  502  0.00000000000E+00  0.00000000000E+00  0.80526712652E+03  0.80526712652E+03  0.00000000000E+00 0.  1.
         21   -1    0    0  502  503 -0.00000000000E+00 -0.00000000000E+00 -0.18139569353E+01  0.18139569353E+01  0.00000000000E+00 0.  1.
          4    1    1    2  501    0 -0.10546772015E+02 -0.35820294936E+02  0.31569430230E+03  0.31789498334E+03  0.00000000000E+00 0.  1.
         -4    1    1    2    0  503  0.10546772015E+02  0.35820294936E+02  0.48775886728E+03  0.48918610011E+03  0.00000000000E+00 0. -1.
<mgrwt>
<rscale>  2 0.37340701E+02</rscale>
<asrwt>0</asrwt>
<pdfrwt beam="1">  1       21 0.12388696E+00 0.37340701E+02</pdfrwt>
<pdfrwt beam="2">  1       21 0.27907094E-03 0.37340701E+02</pdfrwt>
<totfact> 0.12026121E+07</totfact>
</mgrwt>
</event>
<event>
 4    1  0.7595771E+004  0.2042345E+02  0.7546771E-02  0.1737036E+00
         21   -1    0    0  503  502  0.00000000000E+00  0.00000000000E+00  0.15768806587E+03  0.15768806587E+03  0.00000000000E+00 0. -1.
         21   -1    0    0  501  503 -0.00000000000E+00 -0.00000000000E+00 -0.26603184538E+01  0.26603184538E+01  0.00000000000E+00 0. -1.
          3    1    1    2  501    0 -0.13568730681E+02 -0.15264560163E+02  0.83556846565E+02  0.86016648720E+02  0.00000000000E+00 0. -1.
         -3    1    1    2    0  502  0.13568730681E+02  0.15264560163E+02  0.71470900853E+02  0.74331735605E+02  0.00000000000E+00 0.  1.
<mgrwt>
<rscale>  2 0.20423449E+02</rscale>
<asrwt>0</asrwt>
<pdfrwt beam="1">  1       21 0.24259695E-01 0.20423449E+02</pdfrwt>
<pdfrwt beam="2">  1       21 0.40927988E-03 0.20423449E+02</pdfrwt>
<totfact> 0.15943002E+08</totfact>
</mgrwt>
</event>
<event>
 4    1  0.7595771E+004  0.2062038E+02  0.7546771E-02  0.1733265E+00
         21   -1    0    0  503  502  0.00000000000E+00  0.00000000000E+00  0.43019955103E+01  0.43019955103E+01  0.00000000000E+00 0. -1.
         21   -1    0    0  501  503 -0.00000000000E+00 -0.00000000000E+00 -0.10792514629E+03  0.10792514629E+03  0.00000000000E+00 0. -1.
          5    1    1    2  501    0 -0.18763014444E+02 -0.85527491372E+01 -0.68094131539E+02  0.71147810780E+02  0.00000000000E+00 0. -1.
         -5    1    1    2    0  502  0.18763014444E+02  0.85527491372E+01 -0.35529019242E+02  0.41079331021E+02  0.00000000000E+00 0.  1.
<mgrwt>
<rscale>  2 0.20620384E+02</rscale>
<asrwt>0</asrwt>
<pdfrwt beam="1">  1       21 0.66184548E-03 0.20620384E+02</pdfrwt>
<pdfrwt beam="2">  1       21 0.16603868E-01 0.20620384E+02</pdfrwt>
<totfact> 0.15238652E+08</totfact>
</mgrwt>
</event>
<event>
 4    1  0.7595771E+004  0.2792680E+02  0.7546771E-02  0.1622205E+00
         21   -1    0    0  501  502  0.00000000000E+00  0.00000000000E+00  0.12813947829E+03  0.12813947829E+03  0.00000000000E+00 0. -1.
         21   -1    0    0  502  503 -0.00000000000E+00 -0.00000000000E+00 -0.62048394911E+01  0.62048394911E+01  0.00000000000E+00 0. -1.
          5    1    1    2  501    0  0.17225094375E+02 -0.21981859430E+02  0.70248481271E+02  0.75595999505E+02  0.00000000000E+00 0.  1.
         -5    1    1    2    0  503 -0.17225094375E+02  0.21981859430E+02  0.51686157524E+02  0.58748318273E+02  0.00000000000E+00 0. -1.
<mgrwt>
<rscale>  2 0.27926798E+02</rscale>
<asrwt>0</asrwt>
<pdfrwt beam="1">  1       21 0.19713764E-01 0.27926798E+02</pdfrwt>
<pdfrwt beam="2">  1       21 0.95459079E-03 0.27926798E+02</pdfrwt>
<totfact> 0.71065242E+07</totfact>
</mgrwt>
</event>
<event>
 4    1  0.7595771E+004  0.2219136E+02  0.7546771E-02  0.1704963E+00
         21   -1    0    0  501  502  0.00000000000E+00  0.00000000000E+00  0.69912742600E+00  0.69912742600E+00  0.00000000000E+00 0. -1.
         21   -1    0    0  502  503 -0.00000000000E+00 -0.00000000000E+00 -0.70445774341E+03  0.70445774341E+03  0.00000000000E+00 0. -1.
          1    1    1    2  501    0 -0.12402883573E+02  0.18401766415E+02 -0.35540330813E+03  0.35609544782E+03  0.00000000000E+00 0.  1.
         -1    1    1    2    0  503  0.12402883573E+02 -0.18401766415E+02 -0.34835530785E+03  0.34906142302E+03  0.00000000000E+00 0. -1.
<mgrwt>
<rscale>  2 0.22191362E+02</rscale>
<asrwt>0</asrwt>
<pdfrwt beam="1">  1       21 0.10755829E-03 0.22191362E+02</pdfrwt>
<pdfrwt beam="2">  1       21 0.10837789E+00 0.22191362E+02</pdfrwt>
<totfact> 0.59515635E+07</totfact>
</mgrwt>
</event>
<event>
 4    1  0.7595771E+004  0.4733237E+02  0.7546771E-02  0.1460285E+00
         21   -1    0    0  503  502  0.00000000000E+00  0.00000000000E+00  0.28132069595E+02  0.28132069595E+02  0.00000000000E+00 0.  1.
         21   -1    0    0  501  503 -0.00000000000E+00 -0.00000000000E+00 -0.79689055517E+02  0.79689055517E+02  0.00000000000E+00 0.  1.
          3    1    1    2  501    0  0.33301925573E+02 -0.33635329191E+02 -0.24400619474E+02  0.53251702765E+02  0.00000000000E+00 0. -1.
         -3    1    1    2    0  502 -0.33301925573E+02  0.33635329191E+02 -0.27156366448E+02  0.54569422347E+02  0.00000000000E+00 0.  1.
<mgrwt>
<rscale>  2 0.47332374E+02</rscale>
<asrwt>0</asrwt>
<pdfrwt beam="1">  1       21 0.43280107E-02 0.47332374E+02</pdfrwt>
<pdfrwt beam="2">  1       21 0.12259855E-01 0.47332374E+02</pdfrwt>
<totfact> 0.16897698E+07</totfact>
</mgrwt>
</event>
<event>
 4    1  0.7595771E+004  0.2057198E+02  0.7546771E-02  0.1734187E+00
         21   -1    0    0  503  502  0.00000000000E+00  0.00000000000E+00  0.24294910014E+01  0.24294910014E+01  0.00000000000E+00 0.  1.
         21   -1    0    0  501  503 -0.00000000000E+00 -0.00000000000E+00 -0.23139963296E+03  0.23139963296E+03  0.00000000000E+00 0.  1.
          3    1    1    2  501    0 -0.87412158238E+01 -0.18622502946E+02 -0.56354998039E+02  0.59992435139E+02  0.00000000000E+00 0. -1.
         -3    1    1    2    0  502  0.87412158238E+01  0.18622502946E+02 -0.17261514392E+03  0.17383668882E+03  0.00000000000E+00 0.  1.
<mgrwt>
<rscale>  2 0.20571983E+02</rscale>
<asrwt>0</asrwt>
<pdfrwt beam="1">  1       21 0.37376776E-03 0.20571983E+02</pdfrwt>
<pdfrwt beam="2">  1       21 0.35599951E-01 0.20571983E+02</pdfrwt>
<totfact> 0.91242143E+07</totfact>
</mgrwt>
</event>
<event>
 4    1  0.7595771E+004  0.2757955E+02  0.7546771E-02  0.1626496E+00
         21   -1    0    0  503  502  0.00000000000E+00  0.00000000000E+00  0.80272153560E+01  0.80272153560E+01  0.00000000000E+00 0. -1.
         21   -1    0    0  501  503 -0.00000000000E+00 -0.00000000000E+00 -0.97194531363E+02  0.97194531363E+02  0.00000000000E+00 0. -1.
          1    1    1    2  501    0 -0.18248452005E+02  0.20679107845E+02 -0.52915994616E+02  0.59671886077E+02  0.00000000000E+00 0.  1.
         -1    1    1    2    0  502  0.18248452005E+02 -0.20679107845E+02 -0.36251321392E+02  0.45549860642E+02  0.00000000000E+00 0. -1.
<mgrwt>
<rscale>  2 0.27579549E+02</rscale>
<asrwt>0</asrwt>
<pdfrwt beam="1">  1       21 0.12349561E-02 0.27579549E+02</pdfrwt>
<pdfrwt beam="2">  1       21 0.14953006E-01 0.27579549E+02</pdfrwt>
<totfact> 0.77475336E+07</totfact>
</mgrwt>
</event>
<event>
 4    1  0.7595771E+004  0.3233472E+02  0.7546771E-02  0.1573628E+00
         21   -1    0    0  503  502  0.00000000000E+00  0.00000000000E+00  0.19239808585E+01  0.19239808585E+01  0.00000000000E+00 0. -1.
         21   -1    0    0  501  503 -0.00000000000E+00 -0.00000000000E+00 -0.54458927853E+03  0.54458927853E+03  0.00000000000E+00 0. -1.
          3    1    1    2  501    0  0.32328973982E+02 -0.60940892671E+00 -0.28398244674E+03  0.28581736125E+03  0.00000000000E+00 0.  1.
         -3    1    1    2    0  502 -0.32328973982E+02  0.60940892671E+00 -0.25868285094E+03  0.26069589814E+03  0.00000000000E+00 0. -1.
<mgrwt>
<rscale>  2 0.32334717E+02</rscale>
<asrwt>0</asrwt>
<pdfrwt beam="1">  1       21 0.29599686E-03 0.32334717E+02</pdfrwt>
<pdfrwt beam="2">  1       21 0.83783021E-01 0.32334717E+02</pdfrwt>
<totfact> 0.25925191E+07</totfact>
</mgrwt>
</event>
<event>
 4    1  0.7595771E+004  0.2337280E+02  0.7546771E-02  0.1685537E+00
         21   -1    0    0  503  502  0.00000000000E+00  0.00000000000E+00  0.97901905494E+00  0.97901905494E+00  0.00000000000E+00 0.  1.
         21   -1    0    0  501  503 -0.00000000000E+00 -0.00000000000E+00 -0.57306832980E+03  0.57306832980E+03  0.00000000000E+00 0.  1.
          2    1    1    2  501    0  0.16678365223E+02  0.16374369033E+02 -0.23949485854E+03  0.24063265592E+03  0.00000000000E+00 0.  1.
         -2    1    1    2    0  502 -0.16678365223E+02 -0.16374369033E+02 -0.33259445221E+03  0.33341469294E+03  0.00000000000E+00 0. -1.
<mgrwt>
<rscale>  2 0.23372801E+02</rscale>
<asrwt>0</asrwt>
<pdfrwt beam="1">  1       21 0.15061826E-03 0.23372801E+02</pdfrwt>
<pdfrwt beam="2">  1       21 0.88164392E-01 0.23372801E+02</pdfrwt>
<totfact> 0.58314983E+07</totfact>
</mgrwt>
</event>
<event>
 4    1  0.7595771E+004  0.2013166E+02  0.7546771E-02  0.1742722E+00
         21   -1    0    0  503  502  0.00000000000E+00  0.00000000000E+00  0.14581158587E+01  0.14581158587E+01  0.00000000000E+00 0.  1.
         21   -1    0    0  501  503 -0.00000000000E+00 -0.00000000000E+00 -0.40641328970E+03  0.40641328970E+03  0.00000000000E+00 0.  1.
          5    1    1    2  501    0 -0.86668016444E+01 -0.18170591712E+02 -0.31713395859E+03  0.31777229512E+03  0.00000000000E+00 0. -1.
         -5    1    1    2    0  502  0.86668016444E+01  0.18170591712E+02 -0.87821215253E+02  0.90099110441E+02  0.00000000000E+00 0.  1.
<mgrwt>
<rscale>  2 0.20131663E+02</rscale>
<asrwt>0</asrwt>
<pdfrwt beam="1">  1       21 0.22432547E-03 0.20131663E+02</pdfrwt>
<pdfrwt beam="2">  1       21 0.62525136E-01 0.20131663E+02</pdfrwt>
<totfact> 0.64521181E+07</totfact>
</mgrwt>
</event>
<event>
 4    1  0.7595771E+004  0.4826300E+02  0.7546771E-02  0.1454942E+00
         21   -1    0    0  503  502  0.00000000000E+00  0.00000000000E+00  0.21879829605E+03  0.21879829605E+03  0.00000000000E+00 0. -1.
         21   -1    0    0  501  503 -0.00000000000E+00 -0.00000000000E+00 -0.12507246492E+02  0.12507246492E+02  0.00000000000E+00 0. -1.
          1    1    1    2  501    0 -0.23051065946E+02  0.42402428509E+02  0.14776063543E+03  0.15544298944E+03  0.00000000000E+00 0. -1.
         -1    1    1    2    0  502  0.23051065946E+02 -0.42402428509E+02  0.58530414134E+02  0.75862553103E+02  0.00000000000E+00 0.  1.
<mgrwt>
<rscale>  2 0.48263004E+02</rscale>
<asrwt>0</asrwt>
<pdfrwt beam="1">  1       21 0.33661274E-01 0.48263004E+02</pdfrwt>
<pdfrwt beam="2">  1       21 0.19241919E-02 0.48263004E+02</pdfrwt>
<totfact> 0.10005259E+07</totfact>
</mgrwt>
</event>
<event>
 4    1  0.7595771E+004  0.2239559E+02  0.7546771E-02  0.1701499E+00
         21   -1    0    0  503  502  0.00000000000E+00  0.00000000000E+00  0.18074949037E+02  0.18074949037E+02  0.00000000000E+00 0. -1.
         21   -1    0    0  501  503 -0.00000000000E+00 -0.00000000000E+00 -0.27892133014E+02  0.27892133014E+02  0.00000000000E+00 0. -1.
          2    1    1    2  501    0  0.16824358203E+02  0.14781855843E+02 -0.32623204455E+01  0.22631947018E+02  0.00000000000E+00 0.  1.
         -2    1    1    2    0  502 -0.16824358203E+02 -0.14781855843E+02 -0.65548635321E+01  0.23335135034E+02  0.00000000000E+00 0. -1.
<mgrwt>
<rscale>  2 0.22395586E+02</rscale>
<asrwt>0</asrwt>
<pdfrwt beam="1">  1       21 0.27807614E-02 0.22395586E+02</pdfrwt>
<pdfrwt beam="2">  1       21 0.42910974E-02 0.22395586E+02</pdfrwt>
<totfact> 0.16302999E+08</totfact>
</mgrwt>
</event>
<event>
 4    1  0.7595771E+004  0.2941370E+02  0.7546771E-02  0.1604661E+00
         21   -1    0    0  501  502  0.00000000000E+00  0.00000000000E+00  0.43217745069E+02  0.43217745069E+02  0.00000000000E+00 0. -1.
         21   -1    0    0  502  503 -0.00000000000E+00 -0.00000000000E+00 -0.24724102988E+02  0.24724102988E+02  0.00000000000E+00 0. -1.
          2    1    1    2  501    0  0.28473430277E+02 -0.73776186056E+01 -0.55729987084E+01  0.29936997222E+02  0.00000000000E+00 0. -1.
         -2    1    1    2    0  503 -0.28473430277E+02  0.73776186056E+01  0.24066640790E+02  0.38004850834E+02  0.00000000000E+00 0.  1.
<mgrwt>
<rscale>  2 0.29413696E+02</rscale>
<asrwt>0</asrwt>
<pdfrwt beam="1">  1       21 0.66488838E-02 0.29413696E+02</pdfrwt>
<pdfrwt beam="2">  1       21 0.38037082E-02 0.29413696E+02</pdfrwt>
<totfact> 0.53152131E+07</totfact>
</mgrwt>
</event>
<event>
 4    1  0.7595771E+004  0.2410745E+02  0.7546771E-02  0.1674163E+00
         21   -1    0    0  501  502  0.00000000000E+00  0.00000000000E+00  0.11889022858E+01  0.11889022858E+01  0.00000000000E+00 0.  1.
         21   -1    0    0  502  503 -0.00000000000E+00 -0.00000000000E+00 -0.70707538881E+03  0.70707538881E+03  0.00000000000E+00 0.  1.
          5    1    1    2  501    0  0.17027709655E+02 -0.17065353872E+02 -0.54968956559E+03  0.55021794565E+03  0.00000000000E+00 0.  1.
         -5    1    1    2    0  503 -0.17027709655E+02  0.17065353872E+02 -0.15619692094E+03  0.15804634544E+03  0.00000000000E+00 0. -1.
<mgrwt>
<rscale>  2 0.24107451E+02</rscale>
<asrwt>0</asrwt>
<pdfrwt beam="1">  1       21 0.18290720E-03 0.24107451E+02</pdfrwt>
<pdfrwt beam="2">  1       21 0.10878133E+00 0.24107451E+02</pdfrwt>
<totfact> 0.28054524E+07</totfact>
</mgrwt>
</event>
<event>
 4    1  0.7595771E+004  0.2583768E+02  0.7546771E-02  0.1649254E+00
         21   -1    0    0  503  502  0.00000000000E+00  0.00000000000E+00  0.46086460869E+01  0.46086460869E+01  0.00000000000E+00 0. -1.
         21   -1    0    0  501  503 -0.00000000000E+00 -0.00000000000E+00 -0.23460422431E+03  0.23460422431E+03  0.00000000000E+00 0. -1.
          2    1    1    2  501    0 -0.15982070834E+02 -0.20301702673E+02 -0.41019917533E+02  0.48479060985E+02  0.00000000000E+00 0. -1.
         -2    1    1    2    0  502  0.15982070834E+02  0.20301702673E+02 -0.18897566069E+03  0.19073380942E+03  0.00000000000E+00 0.  1.
<mgrwt>
<rscale>  2 0.25837680E+02</rscale>
<asrwt>0</asrwt>
<pdfrwt beam="1">  1       21 0.70902250E-03 0.25837680E+02</pdfrwt>
<pdfrwt beam="2">  1       21 0.36092956E-01 0.25837680E+02</pdfrwt>
<totfact> 0.36548921E+07</totfact>
</mgrwt>
</event>
<event>
 4    1  0.7595771E+004  0.2267593E+02  0.7546771E-02  0.1696818E+00
         21   -1    0    0  501  502  0.00000000000E+00  0.00000000000E+00  0.68099905519E+03  0.68099905519E+03  0.00000000000E+00 0.  1.
         21   -1    0    0  502  503 -0.00000000000E+00 -0.00000000000E+00 -0.79742457652E+00  0.79742457652E+00  0.00000000000E+00 0.  1.
          1    1    1    2  501    0  0.13164489377E+02  0.18463320849E+02  0.41867138966E+03  0.41928502301E+03  0.00000000000E+00 0. -1.
         -1    1    1    2    0  503 -0.13164489377E+02 -0.18463320849E+02  0.26153024096E+03  0.26251145676E+03  0.00000000000E+00 0.  1.
<mgrwt>
<rscale>  2 0.22675934E+02</rscale>
<asrwt>0</asrwt>
<pdfrwt beam="1">  1       21 0.10476862E+00 0.22675934E+02</pdfrwt>
<pdfrwt beam="2">  1       21 0.12268125E-03 0.22675934E+02</pdfrwt>
<totfact> 0.53430532E+07</totfact>
</mgrwt>
</event>
<event>
 4    1  0.7595771E+004  0.3128645E+02  0.7546771E-02  0.1584289E+00
         21   -1    0    0  503  502  0.00000000000E+00  0.00000000000E+00  0.60282210288E+01  0.60282210288E+01  0.00000000000E+00 0. -1.
         21   -1    0    0  501  503 -0.00000000000E+00 -0.00000000000E+00 -0.21118787841E+03  0.21118787841E+03  0.00000000000E+00 0. -1.
          1    1    1    2  501    0  0.31090168794E+02 -0.34990110324E+01 -0.15479393859E+03  0.15792404851E+03  0.00000000000E+00 0.  1.
         -1    1    1    2    0  502 -0.31090168794E+02  0.34990110324E+01 -0.50365718787E+02  0.59292050923E+02  0.00000000000E+00 0. -1.
<mgrwt>
<rscale>  2 0.31286446E+02</rscale>
<asrwt>0</asrwt>
<pdfrwt beam="1">  1       21 0.92741865E-03 0.31286446E+02</pdfrwt>
<pdfrwt beam="2">  1       21 0.32490442E-01 0.31286446E+02</pdfrwt>
<totfact> 0.30856226E+07</totfact>
</mgrwt>
</event>
<event>
 4    1  0.7595771E+004  0.3202601E+02  0.7546771E-02  0.1576716E+00
         21   -1    0    0  503  502  0.00000000000E+00  0.00000000000E+00  0.20413600928E+04  0.20413600928E+04  0.00000000000E+00 0.  1.
         21   -1    0    0  501  503 -0.00000000000E+00 -0.00000000000E+00 -0.50541933372E+00  0.50541933372E+00  0.00000000000E+00 0.  1.
          3    1    1    2  501    0 -0.19205560628E+02  0.25628337940E+02  0.94207044102E+03  0.94261465144E+03  0.00000000000E+00 0.  1.
         -3    1    1    2    0  502  0.19205560628E+02 -0.25628337940E+02  0.10987842325E+04  0.10992508607E+04  0.00000000000E+00 0. -1.
<mgrwt>
<rscale>  2 0.32026009E+02</rscale>
<asrwt>0</asrwt>
<pdfrwt beam="1">  1       21 0.31404880E+00 0.32026009E+02</pdfrwt>
<pdfrwt beam="2">  1       21 0.77758455E-04 0.32026009E+02</pdfrwt>
<totfact> 0.59231492E+06</totfact>
</mgrwt>
</event>
<event>
 4    1  0.7595771E+004  0.3080363E+02  0.7546771E-02  0.1589372E+00
         21   -1    0    0  501  502  0.00000000000E+00  0.00000000000E+00  0.89663784977E+03  0.89663784977E+03  0.00000000000E+00 0. -1.
         21   -1    0    0  502  503 -0.00000000000E+00 -0.00000000000E+00 -0.11859252210E+01  0.11859252210E+01  0.00000000000E+00 0. -1.
          3    1    1    2  501    0 -0.11390657458E+02  0.28620209050E+02  0.30042943182E+03  0.30200448167E+03  0.00000000000E+00 0.  1.
         -3    1    1    2    0  503  0.11390657458E+02 -0.28620209050E+02  0.59502249273E+03  0.59581929332E+03  0.00000000000E+00 0. -1.
<mgrwt>
<rscale>  2 0.30803627E+02</rscale>
<asrwt>0</asrwt>
<pdfrwt beam="1">  1       21 0.13794374E+00 0.30803627E+02</pdfrwt>
<pdfrwt beam="2">  1       21 0.18245075E-03 0.30803627E+02</pdfrwt>
<totfact> 0.16997645E+07</totfact>
</mgrwt>
</event>
<event>
 4    1  0.7595771E+004  0.2173341E+02  0.7546771E-02  0.1712904E+00
         21   -1    0    0  501  502  0.00000000000E+00  0.00000000000E+00  0.98770798565E+02  0.98770798565E+02  0.00000000000E+00 0.  1.
         21   -1    0    0  502  503 -0.00000000000E+00 -0.00000000000E+00 -0.48705831057E+01  0.48705831057E+01  0.00000000000E+00 0.  1.
          4    1    1    2  501    0  0.21716034664E+02 -0.86895510004E+00  0.53930968872E+02  0.58145426716E+02  0.00000000000E+00 0.  1.
         -4    1    1    2    0  503 -0.21716034664E+02  0.86895510004E+00  0.39969246587E+02  0.45495954955E+02  0.00000000000E+00 0. -1.
<mgrwt>
<rscale>  2 0.21733413E+02</rscale>
<asrwt>0</asrwt>
<pdfrwt beam="1">  1       21 0.15195506E-01 0.21733413E+02</pdfrwt>
<pdfrwt beam="2">  1       21 0.74932055E-03 0.21733413E+02</pdfrwt>
<totfact> 0.14977123E+08</totfact>
</mgrwt>
</event>
<event>
 4    1  0.7595771E+004  0.2171506E+02  0.7546771E-02  0.1713227E+00
         21   -1    0    0  503  502  0.00000000000E+00  0.00000000000E+00  0.31437091495E+02  0.31437091495E+02  0.00000000000E+00 0. -1.
         21   -1    0    0  501  503 -0.00000000000E+00 -0.00000000000E+00 -0.18822503690E+02  0.18822503690E+02  0.00000000000E+00 0. -1.
          3    1    1    2  501    0  0.21627583266E+02  0.19471804199E+01 -0.50179312213E+01  0.22287294660E+02  0.00000000000E+00 0. -1.
         -3    1    1    2    0  502 -0.21627583266E+02 -0.19471804199E+01  0.17632519026E+02  0.27972300526E+02  0.00000000000E+00 0.  1.
<mgrwt>
<rscale>  2 0.21715061E+02</rscale>
<asrwt>0</asrwt>
<pdfrwt beam="1">  1       21 0.48364756E-02 0.21715061E+02</pdfrwt>
<pdfrwt beam="2">  1       21 0.28957698E-02 0.21715061E+02</pdfrwt>
<totfact> 0.12550153E+08</totfact>
</mgrwt>
</event>
<event>
 4    1  0.7595771E+004  0.2140824E+02  0.7546771E-02  0.1718692E+00
         21   -1    0    0  501  502  0.00000000000E+00  0.00000000000E+00  0.45293727539E+01  0.45293727539E+01  0.00000000000E+00 0.  1.
         21   -1    0    0  502  503 -0.00000000000E+00 -0.00000000000E+00 -0.11171008928E+03  0.11171008928E+03  0.00000000000E+00 0.  1.
          2    1    1    2  501    0  0.11763010164E+02  0.17886990100E+02 -0.35752087571E+02  0.41671628102E+02  0.00000000000E+00 0.  1.
         -2    1    1    2    0  503 -0.11763010164E+02 -0.17886990100E+02 -0.71428628958E+02  0.74567833935E+02  0.00000000000E+00 0. -1.
<mgrwt>
<rscale>  2 0.21408242E+02</rscale>
<asrwt>0</asrwt>
<pdfrwt beam="1">  1       21 0.69682657E-03 0.21408242E+02</pdfrwt>
<pdfrwt beam="2">  1       21 0.17186168E-01 0.21408242E+02</pdfrwt>
<totfact> 0.13459425E+08</totfact>
</mgrwt>
</event>
<event>
 4    1  0.7595771E+004  0.2073149E+02  0.7546771E-02  0.1731161E+00
         21   -1    0    0  501  502  0.00000000000E+00  0.00000000000E+00  0.23469741006E+02  0.23469741006E+02  0.00000000000E+00 0. -1.
         21   -1    0    0  502  503 -0.00000000000E+00 -0.00000000000E+00 -0.19200911166E+02  0.19200911166E+02  0.00000000000E+00 0. -1.
          4    1    1    2  501    0  0.17589533298E+02  0.10972832954E+02 -0.24543110152E+01  0.20876263728E+02  0.00000000000E+00 0. -1.
         -4    1    1    2    0  503 -0.17589533298E+02 -0.10972832954E+02  0.67231408546E+01  0.21794388444E+02  0.00000000000E+00 0.  1.
<mgrwt>
<rscale>  2 0.20731492E+02</rscale>
<asrwt>0</asrwt>
<pdfrwt beam="1">  1       21 0.36107294E-02 0.20731492E+02</pdfrwt>
<pdfrwt beam="2">  1       21 0.29539863E-02 0.20731492E+02</pdfrwt>
<totfact> 0.19000775E+08</totfact>
</mgrwt>
</event>
<event>
 4    1  0.7595771E+004  0.3833569E+02  0.7546771E-02  0.1520829E+00
         21   -1    0    0  503  502  0.00000000000E+00  0.00000000000E+00  0.15980327863E+02  0.15980327863E+02  0.00000000000E+00 0.  1.
         21   -1    0    0  501  503 -0.00000000000E+00 -0.00000000000E+00 -0.95318029127E+02  0.95318029127E+02  0.00000000000E+00 0.  1.
          1    1    1    2  501    0  0.37117380742E+02 -0.95877802662E+01 -0.50106714979E+02  0.63089685128E+02  0.00000000000E+00 0.  1.
         -1    1    1    2    0  502 -0.37117380742E+02  0.95877802662E+01 -0.29230986285E+02  0.48208671862E+02  0.00000000000E+00 0. -1.
<mgrwt>
<rscale>  2 0.38335695E+02</rscale>
<asrwt>0</asrwt>
<pdfrwt beam="1">  1       21 0.24585120E-02 0.38335695E+02</pdfrwt>
<pdfrwt beam="2">  1       21 0.14664312E-01 0.38335695E+02</pdfrwt>
<totfact> 0.29594320E+07</totfact>
</mgrwt>
</event>
<event>
 4    1  0.7595771E+004  0.2325319E+02  0.7546771E-02  0.1687439E+00
         21   -1    0    0  503  502  0.00000000000E+00  0.00000000000E+00  0.93900243035E+00  0.93900243035E+00  0.00000000000E+00 0. -1.
         21   -1    0    0  501  503 -0.00000000000E+00 -0.00000000000E+00 -0.59380098843E+03  0.59380098843E+03  0.00000000000E+00 0. -1.
          1    1    1    2  501    0 -0.19042803500E+02 -0.13344746179E+02 -0.24470601686E+03  0.24580835076E+03  0.00000000000E+00 0.  1.
         -1    1    1    2    0  502  0.19042803500E+02  0.13344746179E+02 -0.34815596915E+03  0.34893164011E+03  0.00000000000E+00 0. -1.
<mgrwt>
<rscale>  2 0.23253185E+02</rscale>
<asrwt>0</asrwt>
<pdfrwt beam="1">  1       21 0.14446204E-03 0.23253185E+02</pdfrwt>
<pdfrwt beam="2">  1       21 0.91353919E-01 0.23253185E+02</pdfrwt>
<totfact> 0.57309853E+07</totfact>
</mgrwt>
</event>
<event>
 4    1  0.7595771E+004  0.3361865E+02  0.7546771E-02  0.1561221E+00
         21   -1    0    0  501  502  0.00000000000E+00  0.00000000000E+00  0.13746825630E+02  0.13746825630E+02  0.00000000000E+00 0. -1.
         21   -1    0    0  502  503 -0.00000000000E+00 -0.00000000000E+00 -0.83929664609E+02  0.83929664609E+02  0.00000000000E+00 0. -1.
          5    1    1    2  501    0 -0.19553055978E+02  0.27347606809E+02 -0.28113547530E+02  0.43824481183E+02  0.00000000000E+00 0.  1.
         -5    1    1    2    0  503  0.19553055978E+02 -0.27347606809E+02 -0.42069291450E+02  0.53852009056E+02  0.00000000000E+00 0. -1.
<mgrwt>
<rscale>  2 0.33618650E+02</rscale>
<asrwt>0</asrwt>
<pdfrwt beam="1">  1       21 0.21148962E-02 0.33618650E+02</pdfrwt>
<pdfrwt beam="2">  1       21 0.12912256E-01 0.33618650E+02</pdfrwt>
<totfact> 0.45491721E+07</totfact>
</mgrwt>
</event>
<event>
 4    1  0.7595771E+004  0.4150371E+02  0.7546771E-02  0.1497429E+00
         21   -1    0    0  503  502  0.00000000000E+00  0.00000000000E+00  0.14199394455E+03  0.14199394455E+03  0.00000000000E+00 0. -1.
         21   -1    0    0  501  503 -0.00000000000E+00 -0.00000000000E+00 -0.13009852892E+02  0.13009852892E+02  0.00000000000E+00 0. -1.
          5    1    1    2  501    0  0.10487706517E+02 -0.40156771675E+02  0.44350979706E+02  0.60741811796E+02  0.00000000000E+00 0. -1.
         -5    1    1    2    0  502 -0.10487706517E+02  0.40156771675E+02  0.84633111952E+02  0.94261985647E+02  0.00000000000E+00 0.  1.
<mgrwt>
<rscale>  2 0.41503714E+02</rscale>
<asrwt>0</asrwt>
<pdfrwt beam="1">  1       21 0.21845221E-01 0.41503714E+02</pdfrwt>
<pdfrwt beam="2">  1       21 0.20015159E-02 0.41503714E+02</pdfrwt>
<totfact> 0.20484239E+07</totfact>
</mgrwt>
</event>
<event>
 4    1  0.7595771E+004  0.2254093E+02  0.7546771E-02  0.1699061E+00
         21   -1    0    0  503  502  0.00000000000E+00  0.00000000000E+00  0.14580522082E+01  0.14580522082E+01  0.00000000000E+00 0.  1.
         21   -1    0    0  501  503 -0.00000000000E+00 -0.00000000000E+00 -0.34859187704E+03  0.34859187704E+03  0.00000000000E+00 0.  1.
          4    1    1    2  501    0  0.22505938195E+02  0.12554246724E+01 -0.17678486949E+03  0.17821611438E+03  0.00000000000E+00 0. -1.
         -4    1    1    2    0  502 -0.22505938195E+02 -0.12554246724E+01 -0.17034895534E+03  0.17183381487E+03  0.00000000000E+00 0.  1.
<mgrwt>
<rscale>  2 0.22540926E+02</rscale>
<asrwt>0</asrwt>
<pdfrwt beam="1">  1       21 0.22431583E-03 0.22540926E+02</pdfrwt>
<pdfrwt beam="2">  1       21 0.53629493E-01 0.22540926E+02</pdfrwt>
<totfact> 0.90010436E+07</totfact>
</mgrwt>
</event>
<event>
 4    1  0.7595771E+004  0.2223122E+02  0.7546771E-02  0.1704284E+00
         21   -1    0    0  501  502  0.00000000000E+00  0.00000000000E+00  0.95230562359E+02  0.95230562359E+02  0.00000000000E+00 0. -1.
         21   -1    0    0  502  503 -0.00000000000E+00 -0.00000000000E+00 -0.64833653487E+01  0.64833653487E+01  0.00000000000E+00 0. -1.
          5    1    1    2  501    0  0.69063268773E+01  0.21131247031E+02  0.67090309978E+02  0.70677695527E+02  0.00000000000E+00 0. -1.
         -5    1    1    2    0  503 -0.69063268773E+01 -0.21131247031E+02  0.21656887031E+02  0.31036232180E+02  0.00000000000E+00 0.  1.
<mgrwt>
<rscale>  2 0.22231216E+02</rscale>
<asrwt>0</asrwt>
<pdfrwt beam="1">  1       21 0.14650855E-01 0.22231216E+02</pdfrwt>
<pdfrwt beam="2">  1       21 0.99744089E-03 0.22231216E+02</pdfrwt>
<totfact> 0.10463995E+08</totfact>
</mgrwt>
</event>
<event>
 4    1  0.7595771E+004  0.2052628E+02  0.7546771E-02  0.1735060E+00
         21   -1    0    0  503  502  0.00000000000E+00  0.00000000000E+00  0.36741189192E+03  0.36741189192E+03  0.00000000000E+00 0. -1.
         21   -1    0    0  501  503 -0.00000000000E+00 -0.00000000000E+00 -0.15517568164E+01  0.15517568164E+01  0.00000000000E+00 0. -1.
          2    1    1    2  501    0 -0.20404022814E+02  0.22369504339E+01  0.27717870897E+03  0.27793769950E+03  0.00000000000E+00 0. -1.
         -2    1    1    2    0  502  0.20404022814E+02 -0.22369504339E+01  0.88681426128E+02  0.91025949236E+02  0.00000000000E+00 0.  1.
<mgrwt>
<rscale>  2 0.20526278E+02</rscale>
<asrwt>0</asrwt>
<pdfrwt beam="1">  1       21 0.56524837E-01 0.20526278E+02</pdfrwt>
<pdfrwt beam="2">  1       21 0.23873211E-03 0.20526278E+02</pdfrwt>
<totfact> 0.72421722E+07</totfact>
</mgrwt>
</event>
<event>
 4    1  0.7595771E+004  0.2264985E+02  0.7546771E-02  0.1697250E+00
         21   -1    0    0  501  502  0.00000000000E+00  0.00000000000E+00  0.68115077579E+01  0.68115077579E+01  0.00000000000E+00 0. -1.
         21   -1    0    0  502  503 -0.00000000000E+00 -0.00000000000E+00 -0.90815317183E+02  0.90815317183E+02  0.00000000000E+00 0. -1.
          3    1    1    2  501    0  0.10282124751E+02 -0.20181516132E+02 -0.62167709657E+02  0.66165246216E+02  0.00000000000E+00 0.  1.
         -3    1    1    2    0  503 -0.10282124751E+02  0.20181516132E+02 -0.21836099768E+02  0.31461578725E+02  0.00000000000E+00 0. -1.
<mgrwt>
<rscale>  2 0.22649850E+02</rscale>
<asrwt>0</asrwt>
<pdfrwt beam="1">  1       21 0.10479243E-02 0.22649850E+02</pdfrwt>
<pdfrwt beam="2">  1       21 0.13971587E-01 0.22649850E+02</pdfrwt>
<totfact> 0.10586272E+08</totfact>
</mgrwt>
</event>
<event>
 4    1  0.7595771E+004  0.2011441E+02  0.7546771E-02  0.1743062E+00
         21   -1    0    0  503  502  0.00000000000E+00  0.00000000000E+00  0.18516584611E+03  0.18516584611E+03  0.00000000000E+00 0.  1.
         21   -1    0    0  501  503 -0.00000000000E+00 -0.00000000000E+00 -0.31553325953E+01  0.31553325953E+01  0.00000000000E+00 0.  1.
          5    1    1    2  501    0  0.18507443903E+02  0.78780725399E+01  0.38789169133E+02  0.43694269061E+02  0.00000000000E+00 0.  1.
         -5    1    1    2    0  502 -0.18507443903E+02 -0.78780725399E+01  0.14322134438E+03  0.14462690965E+03  0.00000000000E+00 0. -1.
<mgrwt>
<rscale>  2 0.20114410E+02</rscale>
<asrwt>0</asrwt>
<pdfrwt beam="1">  1       21 0.28487045E-01 0.20114410E+02</pdfrwt>
<pdfrwt beam="2">  1       21 0.48543593E-03 0.20114410E+02</pdfrwt>
<totfact> 0.92841817E+07</totfact>
</mgrwt>
</event>
<event>
 4    1  0.7595771E+004  0.2203360E+02  0.7546771E-02  0.1707672E+00
         21   -1    0    0  501  502  0.00000000000E+00  0.00000000000E+00  0.67134661809E+00  0.67134661809E+00  0.00000000000E+00 0.  1.
         21   -1    0    0  502  503 -0.00000000000E+00 -0.00000000000E+00 -0.90854124516E+03  0.90854124516E+03  0.00000000000E+00 0.  1.
          5    1    1    2  501    0 -0.18921091100E+02  0.11290334345E+02 -0.65929520747E+03  0.65966328527E+03  0.00000000000E+00 0. -1.
         -5    1    1    2    0  503  0.18921091100E+02 -0.11290334345E+02 -0.24857469107E+03  0.24954930651E+03  0.00000000000E+00 0.  1.
<mgrwt>
<rscale>  2 0.22033596E+02</rscale>
<asrwt>0</asrwt>
<pdfrwt beam="1">  1       21 0.10328428E-03 0.22033596E+02</pdfrwt>
<pdfrwt beam="2">  1       21 0.13977532E+00 0.22033596E+02</pdfrwt>
<totfact> 0.35327087E+07</totfact>
</mgrwt>
</event>
<event>
 4    1  0.7595771E+004  0.2199130E+02  0.7546771E-02  0.1708402E+00
         21   -1    0    0  501  502  0.00000000000E+00  0.00000000000E+00  0.21731018238E+03  0.21731018238E+03  0.00000000000E+00 0. -1.
         21   -1    0    0  502  503 -0.00000000000E+00 -0.00000000000E+00 -0.29342821257E+01  0.29342821257E+01  0.00000000000E+00 0. -1.
          3    1    1    2  501    0  0.20554349858E+02  0.78189500135E+01  0.16131192222E+03  0.16280403413E+03  0.00000000000E+00 0. -1.
         -3    1    1    2    0  503 -0.20554349858E+02 -0.78189500135E+01  0.53063978035E+02  0.57440430380E+02  0.00000000000E+00 0.  1.
<mgrwt>
<rscale>  2 0.21991300E+02</rscale>
<asrwt>0</asrwt>
<pdfrwt beam="1">  1       21 0.33432323E-01 0.21991300E+02</pdfrwt>
<pdfrwt beam="2">  1       21 0.45142819E-03 0.21991300E+02</pdfrwt>
<totfact> 0.79105263E+07</totfact>
</mgrwt>
</event>
<event>
 4    1  0.7595771E+004  0.2098167E+02  0.7546771E-02  0.1726483E+00
         21   -1    0    0  503  502  0.00000000000E+00  0.00000000000E+00  0.12528010153E+02  0.12528010153E+02  0.00000000000E+00 0.  1.
         21   -1    0    0  501  503 -0.00000000000E+00 -0.00000000000E+00 -0.40511310887E+02  0.40511310887E+02  0.00000000000E+00 0.  1.
          2    1    1    2  501    0  0.79820758710E+01 -0.19404044056E+02 -0.23648428868E+02  0.31614532242E+02  0.00000000000E+00 0. -1.
         -2    1    1    2    0  502 -0.79820758710E+01  0.19404044056E+02 -0.43348718658E+01  0.21424788798E+02  0.00000000000E+00 0.  1.
<mgrwt>
<rscale>  2 0.20981670E+02</rscale>
<asrwt>0</asrwt>
<pdfrwt beam="1">  1       21 0.19273862E-02 0.20981670E+02</pdfrwt>
<pdfrwt beam="2">  1       21 0.62325094E-02 0.20981670E+02</pdfrwt>
<totfact> 0.15509484E+08</totfact>
</mgrwt>
</event>
<event>
 4    1  0.7595771E+004  0.3159986E+02  0.7546771E-02  0.1581049E+00
         21   -1    0    0  503  502  0.00000000000E+00  0.00000000000E+00  0.18264613425E+02  0.18264613425E+02  0.00000000000E+00 0.  1.
         21   -1    0    0  501  503 -0.00000000000E+00 -0.00000000000E+00 -0.54869074501E+02  0.54869074501E+02  0.00000000000E+00 0.  1.
          1    1    1    2  501    0  0.17960390504E+02 -0.25999532421E+02 -0.20497255558E+02  0.37665485508E+02  0.00000000000E+00 0. -1.
         -1    1    1    2    0  502 -0.17960390504E+02  0.25999532421E+02 -0.16107205519E+02  0.35468202418E+02  0.00000000000E+00 0.  1.
<mgrwt>
<rscale>  2 0.31599863E+02</rscale>
<asrwt>0</asrwt>
<pdfrwt beam="1">  1       21 0.28099406E-02 0.31599863E+02</pdfrwt>
<pdfrwt beam="2">  1       21 0.84413959E-02 0.31599863E+02</pdfrwt>
<totfact> 0.58833853E+07</totfact>
</mgrwt>
</event>
<event>
 4    1  0.7595771E+004  0.2237273E+02  0.7546771E-02  0.1701884E+00
         21   -1    0    0  501  502  0.00000000000E+00  0.00000000000E+00  0.17336996046E+03  0.17336996046E+03  0.00000000000E+00 0.  1.
         21   -1    0    0  502  503 -0.00000000000E+00 -0.00000000000E+00 -0.34306190277E+01  0.34306190277E+01  0.00000000000E+00 0.  1.
          3    1    1    2  501    0 -0.22358927864E+02  0.78587017725E+00  0.12015554018E+03  0.12222067371E+03  0.00000000000E+00 0.  1.
         -3    1    1    2    0  503  0.22358927864E+02 -0.78587017725E+00  0.49783801254E+02  0.54579905775E+02  0.00000000000E+00 0. -1.
<mgrwt>
<rscale>  2 0.22372734E+02</rscale>
<asrwt>0</asrwt>
<pdfrwt beam="1">  1       21 0.26672295E-01 0.22372734E+02</pdfrwt>
<pdfrwt beam="2">  1       21 0.52778768E-03 0.22372734E+02</pdfrwt>
<totfact> 0.95143442E+07</totfact>
</mgrwt>
</event>
<event>
 4    1  0.7595771E+004  0.2102615E+02  0.7546771E-02  0.1725660E+00
         21   -1    0    0  503  502  0.00000000000E+00  0.00000000000E+00  0.46965031582E+01  0.46965031582E+01  0.00000000000E+00 0. -1.
         21   -1    0    0  501  503 -0.00000000000E+00 -0.00000000000E+00 -0.96379231119E+02  0.96379231119E+02  0.00000000000E+00 0. -1.
          1    1    1    2  501    0 -0.15517403813E+02  0.14188340868E+02 -0.38127134077E+02  0.43540523545E+02  0.00000000000E+00 0. -1.
         -1    1    1    2    0  502  0.15517403813E+02 -0.14188340868E+02 -0.53555593884E+02  0.57535210732E+02  0.00000000000E+00 0.  1.
<mgrwt>
<rscale>  2 0.21026147E+02</rscale>
<asrwt>0</asrwt>
<pdfrwt beam="1">  1       21 0.72253901E-03 0.21026147E+02</pdfrwt>
<pdfrwt beam="2">  1       21 0.14827573E-01 0.21026147E+02</pdfrwt>
<totfact> 0.16317325E+08</totfact>
</mgrwt>
</event>
<event>
 4    1  0.7595771E+004  0.2044881E+02  0.7546771E-02  0.1736547E+00
         21   -1    0    0  501  502  0.00000000000E+00  0.00000000000E+00  0.72947301271E+02  0.72947301271E+02  0.00000000000E+00 0.  1.
         21   -1    0    0  502  503 -0.00000000000E+00 -0.00000000000E+00 -0.59711569377E+01  0.59711569377E+01  0.00000000000E+00 0.  1.
          4    1    1    2  501    0  0.16944642905E+02 -0.11446958885E+02  0.41380552507E+02  0.46157382039E+02  0.00000000000E+00 0. -1.
         -4    1    1    2    0  503 -0.16944642905E+02  0.11446958885E+02  0.25595591826E+02  0.32761076170E+02  0.00000000000E+00 0.  1.
<mgrwt>
<rscale>  2 0.20448809E+02</rscale>
<asrwt>0</asrwt>
<pdfrwt beam="1">  1       21 0.11222661E-01 0.20448809E+02</pdfrwt>
<pdfrwt beam="2">  1       21 0.91863958E-03 0.20448809E+02</pdfrwt>
<totfact> 0.18050533E+08</totfact>
</mgrwt>
</event>
<event>
 4    1  0.7595771E+004  0.2235170E+02  0.7546771E-02  0.1702239E+00
         21   -1    0    0  501  502  0.00000000000E+00  0.00000000000E+00  0.12408082173E+02  0.12408082173E+02  0.00000000000E+00 0.  1.
         21   -1    0    0  502  503 -0.00000000000E+00 -0.00000000000E+00 -0.42105286359E+02  0.42105286359E+02  0.00000000000E+00 0.  1.
          3    1    1    2  501    0 -0.61270715523E+01 -0.21495527295E+02 -0.91486864184E+01  0.24151545762E+02  0.00000000000E+00 0. -1.
         -3    1    1    2    0  503  0.61270715523E+01  0.21495527295E+02 -0.20548517767E+02  0.30361822770E+02  0.00000000000E+00 0.  1.
<mgrwt>
<rscale>  2 0.22351705E+02</rscale>
<asrwt>0</asrwt>
<pdfrwt beam="1">  1       21 0.19089358E-02 0.22351705E+02</pdfrwt>
<pdfrwt beam="2">  1       21 0.64777362E-02 0.22351705E+02</pdfrwt>
<totfact> 0.15083231E+08</totfact>
</mgrwt>
</event>
<event>
 4    1  0.7595771E+004  0.3022368E+02  0.7546771E-02  0.1595629E+00
         21   -1    0    0  503  502  0.00000000000E+00  0.00000000000E+00  0.27647320883E+02  0.27647320883E+02  0.00000000000E+00 0.  1.
         21   -1    0    0  501  503 -0.00000000000E+00 -0.00000000000E+00 -0.46605787779E+02  0.46605787779E+02  0.00000000000E+00 0.  1.
          3    1    1    2  501    0 -0.23838375913E+02 -0.18579633710E+02 -0.29509430267E+02  0.42240708205E+02  0.00000000000E+00 0.  1.
         -3    1    1    2    0  502  0.23838375913E+02  0.18579633710E+02  0.10550963371E+02  0.32012400457E+02  0.00000000000E+00 0. -1.
<mgrwt>
<rscale>  2 0.30223682E+02</rscale>
<asrwt>0</asrwt>
<pdfrwt beam="1">  1       21 0.42534341E-02 0.30223682E+02</pdfrwt>
<pdfrwt beam="2">  1       21 0.71701211E-02 0.30223682E+02</pdfrwt>
<totfact> 0.39556690E+07</totfact>
</mgrwt>
</event>
<event>
 4    1  0.7595771E+004  0.3276935E+02  0.7546771E-02  0.1569351E+00
         21   -1    0    0  501  502  0.00000000000E+00  0.00000000000E+00  0.42038817321E+02  0.42038817321E+02  0.00000000000E+00 0.  1.
         21   -1    0    0  502  503 -0.00000000000E+00 -0.00000000000E+00 -0.25999524008E+02  0.25999524008E+02  0.00000000000E+00 0.  1.
          2    1    1    2  501    0  0.10174115518E+02 -0.31149925510E+02  0.35156359600E+01  0.32957399504E+02  0.00000000000E+00 0.  1.
         -2    1    1    2    0  503 -0.10174115518E+02  0.31149925510E+02  0.12523657353E+02  0.35080941826E+02  0.00000000000E+00 0. -1.
<mgrwt>
<rscale>  2 0.32769353E+02</rscale>
<asrwt>0</asrwt>
<pdfrwt beam="1">  1       21 0.64675103E-02 0.32769353E+02</pdfrwt>
<pdfrwt beam="2">  1       21 0.39999268E-02 0.32769353E+02</pdfrwt>
<totfact> 0.52548690E+07</totfact>
</mgrwt>
</event>
<event>
 4    1  0.7595771E+004  0.2629412E+02  0.7546771E-02  0.1643081E+00
         21   -1    0    0  501  502  0.00000000000E+00  0.00000000000E+00  0.96954595370E+02  0.96954595370E+02  0.00000000000E+00 0. -1.
         21   -1    0    0  502  503 -0.00000000000E+00 -0.00000000000E+00 -0.71752309623E+01  0.71752309623E+01  0.00000000000E+00 0. -1.
          5    1    1    2  501    0  0.75908309484E+00  0.26283158697E+02  0.40800644932E+02  0.48539399101E+02  0.00000000000E+00 0.  1.
         -5    1    1    2    0  503 -0.75908309484E+00 -0.26283158697E+02  0.48978719476E+02  0.55590427231E+02  0.00000000000E+00 0. -1.
<mgrwt>
<rscale>  2 0.26294118E+02</rscale>
<asrwt>0</asrwt>
<pdfrwt beam="1">  1       21 0.14916091E-01 0.26294118E+02</pdfrwt>
<pdfrwt beam="2">  1       21 0.11038818E-02 0.26294118E+02</pdfrwt>
<totfact> 0.91147747E+07</totfact>
</mgrwt>
</event>
<event>
 4    1  0.7595771E+004  0.2284882E+02  0.7546771E-02  0.1693972E+00
         21   -1    0    0  501  502  0.00000000000E+00  0.00000000000E+00  0.24170806472E+03  0.24170806472E+03  0.00000000000E+00 0. -1.
         21   -1    0    0  502  503 -0.00000000000E+00 -0.00000000000E+00 -0.24522427484E+01  0.24522427484E+01  0.00000000000E+00 0. -1.
          5    1    1    2  501    0 -0.20258071662E+02 -0.10567835304E+02  0.77477756517E+02  0.80776675875E+02  0.00000000000E+00 0.  1.
         -5    1    1    2    0  503  0.20258071662E+02  0.10567835304E+02  0.16177806546E+03  0.16338363160E+03  0.00000000000E+00 0. -1.
<mgrwt>
<rscale>  2 0.22848821E+02</rscale>
<asrwt>0</asrwt>
<pdfrwt beam="1">  1       21 0.37185837E-01 0.22848821E+02</pdfrwt>
<pdfrwt beam="2">  1       21 0.37726831E-03 0.22848821E+02</pdfrwt>
<totfact> 0.85367964E+07</totfact>
</mgrwt>
</event>
<event>
 4    1  0.7595771E+004  0.7676028E+02  0.7546771E-02  0.1338505E+00
         21   -1    0    0  501  502  0.00000000000E+00  0.00000000000E+00  0.45478685914E+03  0.45478685914E+03  0.00000000000E+00 0. -1.
         21   -1    0    0  502  503 -0.00000000000E+00 -0.00000000000E+00 -0.13379978735E+02  0.13379978735E+02  0.00000000000E+00 0. -1.
          1    1    1    2  501    0 -0.74734782294E+02  0.17517204835E+02  0.17902578781E+03  0.19478802029E+03  0.00000000000E+00 0. -1.
         -1    1    1    2    0  503  0.74734782294E+02 -0.17517204835E+02  0.26238109260E+03  0.27337881759E+03  0.00000000000E+00 0.  1.
<mgrwt>
<rscale>  2 0.76760277E+02</rscale>
<asrwt>0</asrwt>
<pdfrwt beam="1">  1       21 0.69967197E-01 0.76760277E+02</pdfrwt>
<pdfrwt beam="2">  1       21 0.20584586E-02 0.76760277E+02</pdfrwt>
<totfact> 0.21373252E+06</totfact>
</mgrwt>
</event>
<event>
 4    1  0.7595771E+004  0.2728263E+02  0.7546771E-02  0.1630227E+00
         21   -1    0    0  501  502  0.00000000000E+00  0.00000000000E+00  0.13265539861E+03  0.13265539861E+03  0.00000000000E+00 0. -1.
         21   -1    0    0  502  503 -0.00000000000E+00 -0.00000000000E+00 -0.66286770229E+01  0.66286770229E+01  0.00000000000E+00 0. -1.
          2    1    1    2  501    0  0.10507868188E+02 -0.25177897516E+02  0.35727156973E+02  0.44952992810E+02  0.00000000000E+00 0. -1.
         -2    1    1    2    0  503 -0.10507868188E+02  0.25177897516E+02  0.90299564617E+02  0.94331082826E+02  0.00000000000E+00 0.  1.
<mgrwt>
<rscale>  2 0.27282628E+02</rscale>
<asrwt>0</asrwt>
<pdfrwt beam="1">  1       21 0.20408521E-01 0.27282628E+02</pdfrwt>
<pdfrwt beam="2">  1       21 0.10197966E-02 0.27282628E+02</pdfrwt>
<totfact> 0.60179602E+07</totfact>
</mgrwt>
</event>
<event>
 4    1  0.7595771E+004  0.3549698E+02  0.7546771E-02  0.1544231E+00
         21   -1    0    0  503  502  0.00000000000E+00  0.00000000000E+00  0.15375945987E+02  0.15375945987E+02  0.00000000000E+00 0. -1.
         21   -1    0    0  501  503 -0.00000000000E+00 -0.00000000000E+00 -0.91159068093E+02  0.91159068093E+02  0.00000000000E+00 0. -1.
          4    1    1    2  501    0  0.24080753605E+02  0.26079735363E+02 -0.54823484049E+02  0.65311941435E+02  0.00000000000E+00 0. -1.
         -4    1    1    2    0  502 -0.24080753605E+02 -0.26079735363E+02 -0.20959638057E+02  0.41223072644E+02  0.00000000000E+00 0.  1.
<mgrwt>
<rscale>  2 0.35496976E+02</rscale>
<asrwt>0</asrwt>
<pdfrwt beam="1">  1       21 0.23655302E-02 0.35496976E+02</pdfrwt>
<pdfrwt beam="2">  1       21 0.14024472E-01 0.35496976E+02</pdfrwt>
<totfact> 0.33501748E+07</totfact>
</mgrwt>
</event>
<event>
 4    1  0.7595771E+004  0.8699119E+02  0.7546771E-02  0.1310306E+00
         21   -1    0    0  503  502  0.00000000000E+00  0.00000000000E+00  0.66504314689E+02  0.66504314689E+02  0.00000000000E+00 0. -1.
         21   -1    0    0  501  503 -0.00000000000E+00 -0.00000000000E+00 -0.11680786946E+03  0.11680786946E+03  0.00000000000E+00 0. -1.
          2    1    1    2  501    0 -0.61388681102E+02  0.61635187488E+02 -0.39886427820E+02  0.95699496490E+02  0.00000000000E+00 0.  1.
         -2    1    1    2    0  502  0.61388681102E+02 -0.61635187488E+02 -0.10417126947E+02  0.87612687655E+02  0.00000000000E+00 0. -1.
<mgrwt>
<rscale>  2 0.86991186E+02</rscale>
<asrwt>0</asrwt>
<pdfrwt beam="1">  1       21 0.10231433E-01 0.86991186E+02</pdfrwt>
<pdfrwt beam="2">  1       21 0.17970441E-01 0.86991186E+02</pdfrwt>
<totfact> 0.21492531E+06</totfact>
</mgrwt>
</event>
<event>
 4    1  0.7595771E+004  0.2184740E+02  0.7546771E-02  0.1710905E+00
         21   -1    0    0  503  502  0.00000000000E+00  0.00000000000E+00  0.28334523025E+02  0.28334523025E+02  0.00000000000E+00 0. -1.
         21   -1    0    0  501  503 -0.00000000000E+00 -0.00000000000E+00 -0.25678781731E+02  0.25678781731E+02  0.00000000000E+00 0. -1.
          4    1    1    2  501    0 -0.19797069894E+02  0.92403968492E+01  0.17167493822E+02  0.27785459406E+02  0.00000000000E+00 0. -1.
         -4    1    1    2    0  502  0.19797069894E+02 -0.92403968492E+01 -0.14511752527E+02  0.26227845350E+02  0.00000000000E+00 0.  1.
<mgrwt>
<rscale>  2 0.21847401E+02</rscale>
<asrwt>0</asrwt>
<pdfrwt beam="1">  1       21 0.43591574E-02 0.21847401E+02</pdfrwt>
<pdfrwt beam="2">  1       21 0.39505818E-02 0.21847401E+02</pdfrwt>
<totfact> 0.91239627E+07</totfact>
</mgrwt>
</event>
<event>
 4    1  0.7595771E+004  0.2434680E+02  0.7546771E-02  0.1670565E+00
         21   -1    0    0  501  502  0.00000000000E+00  0.00000000000E+00  0.31436481639E+02  0.31436481639E+02  0.00000000000E+00 0. -1.
         21   -1    0    0  502  503 -0.00000000000E+00 -0.00000000000E+00 -0.20006746926E+02  0.20006746926E+02  0.00000000000E+00 0. -1.
          3    1    1    2  501    0  0.23957472556E+02 -0.43366248846E+01  0.11883612659E+02  0.27092195490E+02  0.00000000000E+00 0. -1.
         -3    1    1    2    0  503 -0.23957472556E+02  0.43366248846E+01 -0.45387794526E+00  0.24351033075E+02  0.00000000000E+00 0.  1.
<mgrwt>
<rscale>  2 0.24346803E+02</rscale>
<asrwt>0</asrwt>
<pdfrwt beam="1">  1       21 0.48363818E-02 0.24346803E+02</pdfrwt>
<pdfrwt beam="2">  1       21 0.30779611E-02 0.24346803E+02</pdfrwt>
<totfact> 0.11806708E+08</totfact>
</mgrwt>
</event>
<event>
 4    1  0.7595771E+004  0.3768887E+02  0.7546771E-02  0.1525942E+00
         21   -1    0    0  503  502  0.00000000000E+00  0.00000000000E+00  0.19934043548E+03  0.19934043548E+03  0.00000000000E+00 0.  1.
         21   -1    0    0  501  503 -0.00000000000E+00 -0.00000000000E+00 -0.86614681029E+01  0.86614681029E+01  0.00000000000E+00 0.  1.
          3    1    1    2  501    0 -0.42361336056E+01  0.37450046843E+02  0.51547280624E+02  0.63855876599E+02  0.00000000000E+00 0.  1.
         -3    1    1    2    0  502  0.42361336056E+01 -0.37450046843E+02  0.13913168676E+03  0.14414602699E+03  0.00000000000E+00 0. -1.
<mgrwt>
<rscale>  2 0.37688869E+02</rscale>
<asrwt>0</asrwt>
<pdfrwt beam="1">  1       21 0.30667756E-01 0.37688869E+02</pdfrwt>
<pdfrwt beam="2">  1       21 0.13325337E-02 0.37688869E+02</pdfrwt>
<totfact> 0.20401395E+07</totfact>
</mgrwt>
</event>
<event>
 4    1  0.7595771E+004  0.3645531E+02  0.7546771E-02  0.1536044E+00
         21   -1    0    0  503  502  0.00000000000E+00  0.00000000000E+00  0.99194832409E+01  0.99194832409E+01  0.00000000000E+00 0. -1.
         21   -1    0    0  501  503 -0.00000000000E+00 -0.00000000000E+00 -0.13421148588E+03  0.13421148588E+03  0.00000000000E+00 0. -1.
          3    1    1    2  501    0 -0.35980390951E+02  0.58652275722E+01 -0.65153829727E+02  0.74659299190E+02  0.00000000000E+00 0. -1.
         -3    1    1    2    0  502  0.35980390951E+02 -0.58652275722E+01 -0.59138172907E+02  0.69471669926E+02  0.00000000000E+00 0.  1.
<mgrwt>
<rscale>  2 0.36455307E+02</rscale>
<asrwt>0</asrwt>
<pdfrwt beam="1">  1       21 0.15260743E-02 0.36455307E+02</pdfrwt>
<pdfrwt beam="2">  1       21 0.20647922E-01 0.36455307E+02</pdfrwt>
<totfact> 0.33808698E+07</totfact>
</mgrwt>
</event>
<event>
 4    1  0.7595771E+004  0.3066966E+02  0.7546771E-02  0.1590802E+00
         21   -1    0    0  501  502  0.00000000000E+00  0.00000000000E+00  0.26585374362E+03  0.26585374362E+03  0.00000000000E+00 0.  1.
         21   -1    0    0  502  503 -0.00000000000E+00 -0.00000000000E+00 -0.35646594508E+01  0.35646594508E+01  0.00000000000E+00 0.  1.
          4    1    1    2  501    0  0.28185881161E+02 -0.12090667978E+02  0.14276327207E+03  0.14602047802E+03  0.00000000000E+00 0. -1.
         -4    1    1    2    0  503 -0.28185881161E+02  0.12090667978E+02  0.11952581210E+03  0.12339792505E+03  0.00000000000E+00 0.  1.
<mgrwt>
<rscale>  2 0.30669662E+02</rscale>
<asrwt>0</asrwt>
<pdfrwt beam="1">  1       21 0.40900560E-01 0.30669662E+02</pdfrwt>
<pdfrwt beam="2">  1       21 0.54840935E-03 0.30669662E+02</pdfrwt>
<totfact> 0.43870984E+07</totfact>
</mgrwt>
</event>
<event>
 4    1  0.7595771E+004  0.2623852E+02  0.7546771E-02  0.1643824E+00
         21   -1    0    0  501  502  0.00000000000E+00  0.00000000000E+00  0.31560810027E+03  0.31560810027E+03  0.00000000000E+00 0.  1.
         21   -1    0    0  502  503 -0.00000000000E+00 -0.00000000000E+00 -0.27076019474E+01  0.27076019474E+01  0.00000000000E+00 0.  1.
          2    1    1    2  501    0 -0.17321115314E+02 -0.19708858528E+02  0.86285089242E+02  0.90186344674E+02  0.00000000000E+00 0. -1.
         -2    1    1    2    0  503  0.17321115314E+02  0.19708858528E+02  0.22661540908E+03  0.22812935754E+03  0.00000000000E+00 0.  1.
<mgrwt>
<rscale>  2 0.26238524E+02</rscale>
<asrwt>0</asrwt>
<pdfrwt beam="1">  1       21 0.48555063E-01 0.26238524E+02</pdfrwt>
<pdfrwt beam="2">  1       21 0.41655440E-03 0.26238524E+02</pdfrwt>
<totfact> 0.45873489E+07</totfact>
</mgrwt>
</event>
<event>
 4    1  0.7595771E+004  0.2642539E+02  0.7546771E-02  0.1641334E+00
         21   -1    0    0  503  502  0.00000000000E+00  0.00000000000E+00  0.18015836518E+02  0.18015836518E+02  0.00000000000E+00 0.  1.
         21   -1    0    0  501  503 -0.00000000000E+00 -0.00000000000E+00 -0.39331213838E+02  0.39331213838E+02  0.00000000000E+00 0.  1.
          2    1    1    2  501    0  0.22252500650E+02  0.14252285256E+02 -0.14111919971E+02  0.29957431557E+02  0.00000000000E+00 0.  1.
         -2    1    1    2    0  502 -0.22252500650E+02 -0.14252285256E+02 -0.72034573487E+01  0.27389618799E+02  0.00000000000E+00 0. -1.
<mgrwt>
<rscale>  2 0.26425393E+02</rscale>
<asrwt>0</asrwt>
<pdfrwt beam="1">  1       21 0.27716672E-02 0.26425393E+02</pdfrwt>
<pdfrwt beam="2">  1       21 0.60509559E-02 0.26425393E+02</pdfrwt>
<totfact> 0.99237841E+07</totfact>
</mgrwt>
</event>
<event>
 4    1  0.7595771E+004  0.2012775E+02  0.7546771E-02  0.1742800E+00
         21   -1    0    0  503  502  0.00000000000E+00  0.00000000000E+00  0.10493476713E+03  0.10493476713E+03  0.00000000000E+00 0.  1.
         21   -1    0    0  501  503 -0.00000000000E+00 -0.00000000000E+00 -0.39585351508E+01  0.39585351508E+01  0.00000000000E+00 0.  1.
          4    1    1    2  501    0  0.19429888739E+02 -0.52541086593E+01  0.41930466192E+02  0.46511183916E+02  0.00000000000E+00 0.  1.
         -4    1    1    2    0  502 -0.19429888739E+02  0.52541086593E+01  0.59045765785E+02  0.62382118362E+02  0.00000000000E+00 0. -1.
<mgrwt>
<rscale>  2 0.20127748E+02</rscale>
<asrwt>0</asrwt>
<pdfrwt beam="1">  1       21 0.16143808E-01 0.20127748E+02</pdfrwt>
<pdfrwt beam="2">  1       21 0.60900549E-03 0.20127748E+02</pdfrwt>
<totfact> 0.17942895E+08</totfact>
</mgrwt>
</event>
<event>
 4    1  0.7595771E+004  0.2360088E+02  0.7546771E-02  0.1681951E+00
         21   -1    0    0  503  502  0.00000000000E+00  0.00000000000E+00  0.42757221914E+02  0.42757221914E+02  0.00000000000E+00 0. -1.
         21   -1    0    0  501  503 -0.00000000000E+00 -0.00000000000E+00 -0.18870023826E+02  0.18870023826E+02  0.00000000000E+00 0. -1.
          5    1    1    2  501    0 -0.20497296413E+02  0.11698828290E+02  0.29089977297E+02  0.37459691973E+02  0.00000000000E+00 0. -1.
         -5    1    1    2    0  502  0.20497296413E+02 -0.11698828290E+02 -0.52027792085E+01  0.24167553767E+02  0.00000000000E+00 0.  1.
<mgrwt>
<rscale>  2 0.23600884E+02</rscale>
<asrwt>0</asrwt>
<pdfrwt beam="1">  1       21 0.65780341E-02 0.23600884E+02</pdfrwt>
<pdfrwt beam="2">  1       21 0.29030806E-02 0.23600884E+02</pdfrwt>
<totfact> 0.78277245E+07</totfact>
</mgrwt>
</event>
<event>
 4    1  0.7595771E+004  0.2191931E+02  0.7546771E-02  0.1709651E+00
         21   -1    0    0  503  502  0.00000000000E+00  0.00000000000E+00  0.36615472604E+03  0.36615472604E+03  0.00000000000E+00 0.  1.
         21   -1    0    0  501  503 -0.00000000000E+00 -0.00000000000E+00 -0.13864340592E+01  0.13864340592E+01  0.00000000000E+00 0.  1.
          2    1    1    2  501    0  0.19360549532E+02 -0.10277423015E+02  0.13985141556E+03  0.14155873246E+03  0.00000000000E+00 0. -1.
         -2    1    1    2    0  502 -0.19360549532E+02  0.10277423015E+02  0.22491687642E+03  0.22598242764E+03  0.00000000000E+00 0.  1.
<mgrwt>
<rscale>  2 0.21919313E+02</rscale>
<asrwt>0</asrwt>
<pdfrwt beam="1">  1       21 0.56331419E-01 0.21919313E+02</pdfrwt>
<pdfrwt beam="2">  1       21 0.21329784E-03 0.21919313E+02</pdfrwt>
<totfact> 0.87251421E+07</totfact>
</mgrwt>
</event>
<event>
 4    1  0.7595771E+004  0.2821675E+02  0.7546771E-02  0.1618680E+00
         21   -1    0    0  503  502  0.00000000000E+00  0.00000000000E+00  0.38385627377E+03  0.38385627377E+03  0.00000000000E+00 0. -1.
         21   -1    0    0  501  503 -0.00000000000E+00 -0.00000000000E+00 -0.24523561811E+01  0.24523561811E+01  0.00000000000E+00 0. -1.
          1    1    1    2  501    0 -0.10231761052E+02  0.26296310668E+02  0.26655323519E+03  0.26804255647E+03  0.00000000000E+00 0. -1.
         -1    1    1    2    0  502  0.10231761052E+02 -0.26296310668E+02  0.11485068240E+03  0.11826607348E+03  0.00000000000E+00 0.  1.
<mgrwt>
<rscale>  2 0.28216748E+02</rscale>
<asrwt>0</asrwt>
<pdfrwt beam="1">  1       21 0.59054764E-01 0.28216748E+02</pdfrwt>
<pdfrwt beam="2">  1       21 0.37728587E-03 0.28216748E+02</pdfrwt>
<totfact> 0.36585455E+07</totfact>
</mgrwt>
</event>
<event>
 4    1  0.7595771E+004  0.2784785E+02  0.7546771E-02  0.1623173E+00
         21   -1    0    0  503  502  0.00000000000E+00  0.00000000000E+00  0.67690534539E+01  0.67690534539E+01  0.00000000000E+00 0.  1.
         21   -1    0    0  501  503 -0.00000000000E+00 -0.00000000000E+00 -0.15121948089E+03  0.15121948089E+03  0.00000000000E+00 0.  1.
          5    1    1    2  501    0 -0.49514881961E+01 -0.27404119891E+02 -0.33334167466E+02  0.43435811757E+02  0.00000000000E+00 0.  1.
         -5    1    1    2    0  502  0.49514881961E+01  0.27404119891E+02 -0.11111625997E+03  0.11455272259E+03  0.00000000000E+00 0. -1.
<mgrwt>
<rscale>  2 0.27847855E+02</rscale>
<asrwt>0</asrwt>
<pdfrwt beam="1">  1       21 0.10413930E-02 0.27847855E+02</pdfrwt>
<pdfrwt beam="2">  1       21 0.23264532E-01 0.27847855E+02</pdfrwt>
<totfact> 0.46440614E+07</totfact>
</mgrwt>
</event>
<event>
 4    1  0.7595771E+004  0.2435328E+02  0.7546771E-02  0.1670469E+00
         21   -1    0    0  501  502  0.00000000000E+00  0.00000000000E+00  0.83169071573E+03  0.83169071573E+03  0.00000000000E+00 0.  1.
         21   -1    0    0  502  503 -0.00000000000E+00 -0.00000000000E+00 -0.72819306881E+00  0.72819306881E+00  0.00000000000E+00 0.  1.
          1    1    1    2  501    0 -0.20574643097E+02 -0.13029433820E+02  0.35556868160E+03  0.35640169671E+03  0.00000000000E+00 0. -1.
         -1    1    1    2    0  503  0.20574643097E+02  0.13029433820E+02  0.47539384106E+03  0.47601721209E+03  0.00000000000E+00 0.  1.
<mgrwt>
<rscale>  2 0.24353277E+02</rscale>
<asrwt>0</asrwt>
<pdfrwt beam="1">  1       21 0.12795166E+00 0.24353277E+02</pdfrwt>
<pdfrwt beam="2">  1       21 0.11203037E-03 0.24353277E+02</pdfrwt>
<totfact> 0.39360470E+07</totfact>
</mgrwt>
</event>
<event>
 4    1  0.7595771E+004  0.2817504E+02  0.7546771E-02  0.1619184E+00
         21   -1    0    0  501  502  0.00000000000E+00  0.00000000000E+00  0.58433378025E+01  0.58433378025E+01  0.00000000000E+00 0. -1.
         21   -1    0    0  502  503 -0.00000000000E+00 -0.00000000000E+00 -0.15919640780E+03  0.15919640780E+03  0.00000000000E+00 0. -1.
          3    1    1    2  501    0  0.27774753868E+02 -0.47324186763E+01 -0.10827584495E+03  0.11188159518E+03  0.00000000000E+00 0.  1.
         -3    1    1    2    0  503 -0.27774753868E+02  0.47324186763E+01 -0.45077225042E+02  0.53158150424E+02  0.00000000000E+00 0. -1.
<mgrwt>
<rscale>  2 0.28175038E+02</rscale>
<asrwt>0</asrwt>
<pdfrwt beam="1">  1       21 0.89897516E-03 0.28175038E+02</pdfrwt>
<pdfrwt beam="2">  1       21 0.24491752E-01 0.28175038E+02</pdfrwt>
<totfact> 0.53036272E+07</totfact>
</mgrwt>
</event>
<event>
 4    1  0.7595771E+004  0.2255795E+02  0.7546771E-02  0.1698777E+00
         21   -1    0    0  501  502  0.00000000000E+00  0.00000000000E+00  0.86445051534E+02  0.86445051534E+02  0.00000000000E+00 0. -1.
         21   -1    0    0  502  503 -0.00000000000E+00 -0.00000000000E+00 -0.61122115685E+01  0.61122115685E+01  0.00000000000E+00 0. -1.
          5    1    1    2  501    0 -0.15029919963E+02  0.16821490097E+02  0.49059115841E+02  0.53996832039E+02  0.00000000000E+00 0. -1.
         -5    1    1    2    0  503  0.15029919963E+02 -0.16821490097E+02  0.31273724125E+02  0.38560431064E+02  0.00000000000E+00 0.  1.
<mgrwt>
<rscale>  2 0.22557948E+02</rscale>
<asrwt>0</asrwt>
<pdfrwt beam="1">  1       21 0.13299238E-01 0.22557948E+02</pdfrwt>
<pdfrwt beam="2">  1       21 0.94034030E-03 0.22557948E+02</pdfrwt>
<totfact> 0.13521093E+08</totfact>
</mgrwt>
</event>
<event>
 4    1  0.7595771E+004  0.3068625E+02  0.7546771E-02  0.1590625E+00
         21   -1    0    0  501  502  0.00000000000E+00  0.00000000000E+00  0.15585067277E+01  0.15585067277E+01  0.00000000000E+00 0. -1.
         21   -1    0    0  502  503 -0.00000000000E+00 -0.00000000000E+00 -0.64077487935E+03  0.64077487935E+03  0.00000000000E+00 0. -1.
          4    1    1    2  501    0  0.30685456332E+02  0.22018941738E+00 -0.24287475049E+03  0.24480561705E+03  0.00000000000E+00 0.  1.
         -4    1    1    2    0  503 -0.30685456332E+02 -0.22018941738E+00 -0.39634162213E+03  0.39752776903E+03  0.00000000000E+00 0. -1.
<mgrwt>
<rscale>  2 0.30686246E+02</rscale>
<asrwt>0</asrwt>
<pdfrwt beam="1">  1       21 0.23976992E-03 0.30686246E+02</pdfrwt>
<pdfrwt beam="2">  1       21 0.98580892E-01 0.30686246E+02</pdfrwt>
<totfact> 0.24581121E+07</totfact>
</mgrwt>
</event>
<event>
 4    1  0.7595771E+004  0.2173412E+02  0.7546771E-02  0.1712891E+00
         21   -1    0    0  503  502  0.00000000000E+00  0.00000000000E+00  0.61062259495E+02  0.61062259495E+02  0.00000000000E+00 0.  1.
         21   -1    0    0  501  503 -0.00000000000E+00 -0.00000000000E+00 -0.88884898980E+01  0.88884898980E+01  0.00000000000E+00 0.  1.
          2    1    1    2  501    0 -0.10440594168E+01  0.21709026383E+02  0.38681494065E+02  0.44369244637E+02  0.00000000000E+00 0.  1.
         -2    1    1    2    0  502  0.10440594168E+01 -0.21709026383E+02  0.13492275532E+02  0.25581504756E+02  0.00000000000E+00 0. -1.
<mgrwt>
<rscale>  2 0.21734118E+02</rscale>
<asrwt>0</asrwt>
<pdfrwt beam="1">  1       21 0.93941935E-02 0.21734118E+02</pdfrwt>
<pdfrwt beam="2">  1       21 0.13674600E-02 0.21734118E+02</pdfrwt>
<totfact> 0.13570640E+08</totfact>
</mgrwt>
</event>
<event>
 4    1  0.7595771E+004  0.2129105E+02  0.7546771E-02  0.1720809E+00
         21   -1    0    0  503  502  0.00000000000E+00  0.00000000000E+00  0.95380830280E+02  0.95380830280E+02  0.00000000000E+00 0. -1.
         21   -1    0    0  501  503 -0.00000000000E+00 -0.00000000000E+00 -0.49490573416E+01  0.49490573416E+01  0.00000000000E+00 0. -1.
          4    1    1    2  501    0  0.12601410781E+02  0.17161391747E+02  0.55210136236E+02  0.59173203932E+02  0.00000000000E+00 0. -1.
         -4    1    1    2    0  502 -0.12601410781E+02 -0.17161391747E+02  0.35221636702E+02  0.41156683690E+02  0.00000000000E+00 0.  1.
<mgrwt>
<rscale>  2 0.21291053E+02</rscale>
<asrwt>0</asrwt>
<pdfrwt beam="1">  1       21 0.14673973E-01 0.21291053E+02</pdfrwt>
<pdfrwt beam="2">  1       21 0.76139351E-03 0.21291053E+02</pdfrwt>
<totfact> 0.15422977E+08</totfact>
</mgrwt>
</event>
<event>
 4    1  0.7595771E+004  0.4231584E+02  0.7546771E-02  0.1491829E+00
         21   -1    0    0  501  502  0.00000000000E+00  0.00000000000E+00  0.56806430236E+01  0.56806430236E+01  0.00000000000E+00 0. -1.
         21   -1    0    0  502  503 -0.00000000000E+00 -0.00000000000E+00 -0.31971792676E+03  0.31971792676E+03  0.00000000000E+00 0. -1.
          4    1    1    2  501    0  0.21675041656E+02  0.36343128247E+02 -0.17632473128E+03  0.18133130249E+03  0.00000000000E+00 0. -1.
         -4    1    1    2    0  503 -0.21675041656E+02 -0.36343128247E+02 -0.13771255246E+03  0.14406726729E+03  0.00000000000E+00 0.  1.
<mgrwt>
<rscale>  2 0.42315841E+02</rscale>
<asrwt>0</asrwt>
<pdfrwt beam="1">  1       21 0.87394517E-03 0.42315841E+02</pdfrwt>
<pdfrwt beam="2">  1       21 0.49187368E-01 0.42315841E+02</pdfrwt>
<totfact> 0.15990510E+07</totfact>
</mgrwt>
</event>
<event>
 4    1  0.7595771E+004  0.2510442E+02  0.7546771E-02  0.1659507E+00
         21   -1    0    0  501  502  0.00000000000E+00  0.00000000000E+00  0.75894904930E+02  0.75894904930E+02  0.00000000000E+00 0.  1.
         21   -1    0    0  502  503 -0.00000000000E+00 -0.00000000000E+00 -0.89452125689E+01  0.89452125689E+01  0.00000000000E+00 0.  1.
          1    1    1    2  501    0 -0.20492586466E+02  0.14501230263E+02  0.44832137503E+02  0.51382412675E+02  0.00000000000E+00 0.  1.
         -1    1    1    2    0  503  0.20492586466E+02 -0.14501230263E+02  0.22117554858E+02  0.33457704824E+02  0.00000000000E+00 0. -1.
<mgrwt>
<rscale>  2 0.25104418E+02</rscale>
<asrwt>0</asrwt>
<pdfrwt beam="1">  1       21 0.11676139E-01 0.25104418E+02</pdfrwt>
<pdfrwt beam="2">  1       21 0.13761866E-02 0.25104418E+02</pdfrwt>
<totfact> 0.97608652E+07</totfact>
</mgrwt>
</event>
<event>
 4    1  0.7595771E+004  0.3222692E+02  0.7546771E-02  0.1574702E+00
         21   -1    0    0  503  502  0.00000000000E+00  0.00000000000E+00  0.15685735487E+03  0.15685735487E+03  0.00000000000E+00 0. -1.
         21   -1    0    0  501  503 -0.00000000000E+00 -0.00000000000E+00 -0.80269571760E+01  0.80269571760E+01  0.00000000000E+00 0. -1.
          2    1    1    2  501    0  0.29184933087E+02 -0.13667999632E+02  0.10891672167E+03  0.11358444784E+03  0.00000000000E+00 0.  1.
         -2    1    1    2    0  502 -0.29184933087E+02  0.13667999632E+02  0.39913676030E+02  0.51299864206E+02  0.00000000000E+00 0. -1.
<mgrwt>
<rscale>  2 0.32226922E+02</rscale>
<asrwt>0</asrwt>
<pdfrwt beam="1">  1       21 0.24131899E-01 0.32226922E+02</pdfrwt>
<pdfrwt beam="2">  1       21 0.12349166E-02 0.32226922E+02</pdfrwt>
<totfact> 0.34584092E+07</totfact>
</mgrwt>
</event>
<event>
 4    1  0.7595771E+004  0.2275314E+02  0.7546771E-02  0.1695543E+00
         21   -1    0    0  501  502  0.00000000000E+00  0.00000000000E+00  0.54222434927E+01  0.54222434927E+01  0.00000000000E+00 0. -1.
         21   -1    0    0  502  503 -0.00000000000E+00 -0.00000000000E+00 -0.98808993555E+02  0.98808993555E+02  0.00000000000E+00 0. -1.
          3    1    1    2  501    0 -0.12373812674E+02 -0.19094347158E+02 -0.37124693177E+02  0.43542487032E+02  0.00000000000E+00 0.  1.
         -3    1    1    2    0  503  0.12373812674E+02  0.19094347158E+02 -0.56262056885E+02  0.60688750016E+02  0.00000000000E+00 0. -1.
<mgrwt>
<rscale>  2 0.22753139E+02</rscale>
<asrwt>0</asrwt>
<pdfrwt beam="1">  1       21 0.83419134E-03 0.22753139E+02</pdfrwt>
<pdfrwt beam="2">  1       21 0.15201383E-01 0.22753139E+02</pdfrwt>
<totfact> 0.12928435E+08</totfact>
</mgrwt>
</event>
<event>
 4    1  0.7595771E+004  0.2006079E+02  0.7546771E-02  0.1744122E+00
         21   -1    0    0  503  502  0.00000000000E+00  0.00000000000E+00  0.45879561094E+02  0.45879561094E+02  0.00000000000E+00 0. -1.
         21   -1    0    0  501  503 -0.00000000000E+00 -0.00000000000E+00 -0.91656102596E+01  0.91656102596E+01  0.00000000000E+00 0. -1.
          2    1    1    2  501    0 -0.56618181133E+01 -0.19245236686E+02  0.24063666843E+02  0.31328826684E+02  0.00000000000E+00 0.  1.
         -2    1    1    2    0  502  0.56618181133E+01  0.19245236686E+02  0.12650283992E+02  0.23716344670E+02  0.00000000000E+00 0. -1.
<mgrwt>
<rscale>  2 0.20060791E+02</rscale>
<asrwt>0</asrwt>
<pdfrwt beam="1">  1       21 0.70583939E-02 0.20060791E+02</pdfrwt>
<pdfrwt beam="2">  1       21 0.14100939E-02 0.20060791E+02</pdfrwt>
<totfact> 0.20115867E+08</totfact>
</mgrwt>
</event>
<event>
 4    1  0.7595771E+004  0.2210848E+02  0.7546771E-02  0.1706383E+00
         21   -1    0    0  503  502  0.00000000000E+00  0.00000000000E+00  0.63884912302E+02  0.63884912302E+02  0.00000000000E+00 0.  1.
         21   -1    0    0  501  503 -0.00000000000E+00 -0.00000000000E+00 -0.10023398655E+02  0.10023398655E+02  0.00000000000E+00 0.  1.
          1    1    1    2  501    0  0.32541739775E+01 -0.21867675963E+02  0.44909012674E+02  0.50056011823E+02  0.00000000000E+00 0. -1.
         -1    1    1    2    0  502 -0.32541739775E+01  0.21867675963E+02  0.89525009736E+01  0.23852299134E+02  0.00000000000E+00 0.  1.
<mgrwt>
<rscale>  2 0.22108480E+02</rscale>
<asrwt>0</asrwt>
<pdfrwt beam="1">  1       21 0.98284478E-02 0.22108480E+02</pdfrwt>
<pdfrwt beam="2">  1       21 0.15420614E-02 0.22108480E+02</pdfrwt>
<totfact> 0.10552574E+08</totfact>
</mgrwt>
</event>
<event>
 4    1  0.7595771E+004  0.2115975E+02  0.7546771E-02  0.1723202E+00
         21   -1    0    0  501  502  0.00000000000E+00  0.00000000000E+00  0.31701816319E+01  0.31701816319E+01  0.00000000000E+00 0.  1.
         21   -1    0    0  502  503 -0.00000000000E+00 -0.00000000000E+00 -0.15511547237E+03  0.15511547237E+03  0.00000000000E+00 0.  1.
          3    1    1    2  501    0 -0.20199986783E+01  0.21063113421E+02 -0.52296387029E+02  0.56414955800E+02  0.00000000000E+00 0. -1.
         -3    1    1    2    0  503  0.20199986783E+01 -0.21063113421E+02 -0.99648903713E+02  0.10187069821E+03  0.00000000000E+00 0.  1.
<mgrwt>
<rscale>  2 0.21159753E+02</rscale>
<asrwt>0</asrwt>
<pdfrwt beam="1">  1       21 0.48772026E-03 0.21159753E+02</pdfrwt>
<pdfrwt beam="2">  1       21 0.23863919E-01 0.21159753E+02</pdfrwt>
<totfact> 0.12826456E+08</totfact>
</mgrwt>
</event>
<event>
 4    1  0.7595771E+004  0.2057375E+02  0.7546771E-02  0.1734153E+00
         21   -1    0    0  501  502  0.00000000000E+00  0.00000000000E+00  0.15424582010E+02  0.15424582010E+02  0.00000000000E+00 0. -1.
         21   -1    0    0  502  503 -0.00000000000E+00 -0.00000000000E+00 -0.32322724286E+02  0.32322724286E+02  0.00000000000E+00 0. -1.
          5    1    1    2  501    0  0.16842265349E+02 -0.11815980852E+02 -0.17726187854E+02  0.27156896756E+02  0.00000000000E+00 0. -1.
         -5    1    1    2    0  503 -0.16842265349E+02  0.11815980852E+02  0.82804557755E+00  0.20590409541E+02  0.00000000000E+00 0.  1.
<mgrwt>
<rscale>  2 0.20573753E+02</rscale>
<asrwt>0</asrwt>
<pdfrwt beam="1">  1       21 0.23730126E-02 0.20573753E+02</pdfrwt>
<pdfrwt beam="2">  1       21 0.49727269E-02 0.20573753E+02</pdfrwt>
<totfact> 0.16063279E+08</totfact>
</mgrwt>
</event>
<event>
 4    1  0.7595771E+004  0.2079079E+02  0.7546771E-02  0.1730045E+00
         21   -1    0    0  501  502  0.00000000000E+00  0.00000000000E+00  0.14651981855E+04  0.14651981855E+04  0.00000000000E+00 0. -1.
         21   -1    0    0  502  503 -0.00000000000E+00 -0.00000000000E+00 -0.31435983961E+00  0.31435983961E+00  0.00000000000E+00 0. -1.
          3    1    1    2  501    0  0.11757892610E+02  0.17146684897E+02  0.55067373026E+03  0.55106607049E+03  0.00000000000E+00 0.  1.
         -3    1    1    2    0  503 -0.11757892610E+02 -0.17146684897E+02  0.91421009540E+03  0.91444647486E+03  0.00000000000E+00 0. -1.
<mgrwt>
<rscale>  2 0.20790787E+02</rscale>
<asrwt>0</asrwt>
<pdfrwt beam="1">  1       21 0.22540964E+00 0.20790787E+02</pdfrwt>
<pdfrwt beam="2">  1       21 0.48364225E-04 0.20790787E+02</pdfrwt>
<totfact> 0.31258926E+07</totfact>
</mgrwt>
</event>
<event>
 4    1  0.7595771E+004  0.2926844E+02  0.7546771E-02  0.1606319E+00
         21   -1    0    0  501  502  0.00000000000E+00  0.00000000000E+00  0.17624727285E+03  0.17624727285E+03  0.00000000000E+00 0. -1.
         21   -1    0    0  502  503 -0.00000000000E+00 -0.00000000000E+00 -0.48653927541E+01  0.48653927541E+01  0.00000000000E+00 0. -1.
          3    1    1    2  501    0 -0.28091310443E+02  0.82170545630E+01  0.82805698946E+02  0.87826109364E+02  0.00000000000E+00 0.  1.
         -3    1    1    2    0  503  0.28091310443E+02 -0.82170545630E+01  0.88576181153E+02  0.93286556243E+02  0.00000000000E+00 0. -1.
<mgrwt>
<rscale>  2 0.29268442E+02</rscale>
<asrwt>0</asrwt>
<pdfrwt beam="1">  1       21 0.27114960E-01 0.29268442E+02</pdfrwt>
<pdfrwt beam="2">  1       21 0.74852210E-03 0.29268442E+02</pdfrwt>
<totfact> 0.58646564E+07</totfact>
</mgrwt>
</event>
<event>
 4    1  0.7595771E+004  0.2077988E+02  0.7546771E-02  0.1730250E+00
         21   -1    0    0  501  502  0.00000000000E+00  0.00000000000E+00  0.40034656096E+03  0.40034656096E+03  0.00000000000E+00 0. -1.
         21   -1    0    0  502  503 -0.00000000000E+00 -0.00000000000E+00 -0.12505987442E+01  0.12505987442E+01  0.00000000000E+00 0. -1.
          5    1    1    2  501    0  0.19443560874E+01  0.20688715507E+02  0.12507532278E+03  0.12678974659E+03  0.00000000000E+00 0. -1.
         -5    1    1    2    0  503 -0.19443560874E+01 -0.20688715507E+02  0.27402063943E+03  0.27480741312E+03  0.00000000000E+00 0.  1.
<mgrwt>
<rscale>  2 0.20779881E+02</rscale>
<asrwt>0</asrwt>
<pdfrwt beam="1">  1       21 0.61591676E-01 0.20779881E+02</pdfrwt>
<pdfrwt beam="2">  1       21 0.19240013E-03 0.20779881E+02</pdfrwt>
<totfact> 0.83612747E+07</totfact>
</mgrwt>
</event>
<event>
 4    1  0.7595771E+004  0.2220340E+02  0.7546771E-02  0.1704758E+00
         21   -1    0    0  503  502  0.00000000000E+00  0.00000000000E+00  0.26336544632E+01  0.26336544632E+01  0.00000000000E+00 0.  1.
         21   -1    0    0  501  503 -0.00000000000E+00 -0.00000000000E+00 -0.22482778497E+03  0.22482778497E+03  0.00000000000E+00 0.  1.
          4    1    1    2  501    0 -0.88814854551E+01  0.20349693639E+02 -0.15763116513E+03  0.15918723264E+03  0.00000000000E+00 0.  1.
         -4    1    1    2    0  502  0.88814854551E+01 -0.20349693639E+02 -0.64562965377E+02  0.68274206794E+02  0.00000000000E+00 0. -1.
<mgrwt>
<rscale>  2 0.22203396E+02</rscale>
<asrwt>0</asrwt>
<pdfrwt beam="1">  1       21 0.40517758E-03 0.22203396E+02</pdfrwt>
<pdfrwt beam="2">  1       21 0.34588892E-01 0.22203396E+02</pdfrwt>
<totfact> 0.87291091E+07</totfact>
</mgrwt>
</event>
<event>
 4    1  0.7595771E+004  0.3028611E+02  0.7546771E-02  0.1594948E+00
         21   -1    0    0  503  502  0.00000000000E+00  0.00000000000E+00  0.29454468944E+01  0.29454468944E+01  0.00000000000E+00 0. -1.
         21   -1    0    0  501  503 -0.00000000000E+00 -0.00000000000E+00 -0.31778472663E+03  0.31778472663E+03  0.00000000000E+00 0. -1.
          1    1    1    2  501    0 -0.10231864167E+02  0.28505387988E+02 -0.18012864385E+03  0.18265699144E+03  0.00000000000E+00 0. -1.
         -1    1    1    2    0  502  0.10231864167E+02 -0.28505387988E+02 -0.13471063589E+03  0.13807318208E+03  0.00000000000E+00 0.  1.
<mgrwt>
<rscale>  2 0.30286106E+02</rscale>
<asrwt>0</asrwt>
<pdfrwt beam="1">  1       21 0.45314593E-03 0.30286106E+02</pdfrwt>
<pdfrwt beam="2">  1       21 0.48889930E-01 0.30286106E+02</pdfrwt>
<totfact> 0.41156503E+07</totfact>
</mgrwt>
</event>
<event>
 4    1  0.7595771E+004  0.2154553E+02  0.7546771E-02  0.1716232E+00
         21   -1    0    0  501  502  0.00000000000E+00  0.00000000000E+00  0.48840230734E+03  0.48840230734E+03  0.00000000000E+00 0.  1.
         21   -1    0    0  502  503 -0.00000000000E+00 -0.00000000000E+00 -0.14385103486E+01  0.14385103486E+01  0.00000000000E+00 0.  1.
          3    1    1    2  501    0  0.86512709027E+01 -0.19732338399E+02  0.38614058937E+03  0.38674121119E+03  0.00000000000E+00 0. -1.
         -3    1    1    2    0  503 -0.86512709027E+01  0.19732338399E+02  0.10082320762E+03  0.10309960651E+03  0.00000000000E+00 0.  1.
<mgrwt>
<rscale>  2 0.21545525E+02</rscale>
<asrwt>0</asrwt>
<pdfrwt beam="1">  1       21 0.75138684E-01 0.21545525E+02</pdfrwt>
<pdfrwt beam="2">  1       21 0.22130967E-03 0.21545525E+02</pdfrwt>
<totfact> 0.46024319E+07</totfact>
</mgrwt>
</event>
<event>
 4    1  0.7595771E+004  0.2099739E+02  0.7546771E-02  0.1726192E+00
         21   -1    0    0  503  502  0.00000000000E+00  0.00000000000E+00  0.19182056935E+02  0.19182056935E+02  0.00000000000E+00 0.  1.
         21   -1    0    0  501  503 -0.00000000000E+00 -0.00000000000E+00 -0.23030616229E+02  0.23030616229E+02  0.00000000000E+00 0.  1.
          3    1    1    2  501    0 -0.92044121315E+01  0.18872439687E+02 -0.28686430456E+01  0.21192434861E+02  0.00000000000E+00 0.  1.
         -3    1    1    2    0  502  0.92044121315E+01 -0.18872439687E+02 -0.97991624833E+00  0.21020238302E+02  0.00000000000E+00 0. -1.
<mgrwt>
<rscale>  2 0.20997385E+02</rscale>
<asrwt>0</asrwt>
<pdfrwt beam="1">  1       21 0.29510857E-02 0.20997385E+02</pdfrwt>
<pdfrwt beam="2">  1       21 0.35431717E-02 0.20997385E+02</pdfrwt>
<totfact> 0.19679910E+08</totfact>
</mgrwt>
</event>
<event>
 4    1  0.7595771E+004  0.3111883E+02  0.7546771E-02  0.1586041E+00
         21   -1    0    0  503  502  0.00000000000E+00  0.00000000000E+00  0.28811620817E+01  0.28811620817E+01  0.00000000000E+00 0.  1.
         21   -1    0    0  501  503 -0.00000000000E+00 -0.00000000000E+00 -0.38976726831E+03  0.38976726831E+03  0.00000000000E+00 0.  1.
          4    1    1    2  501    0  0.91207737439E+01 -0.29752190593E+02 -0.12059902817E+03  0.12454921499E+03  0.00000000000E+00 0.  1.
         -4    1    1    2    0  502 -0.91207737439E+01  0.29752190593E+02 -0.26628707806E+03  0.26809921540E+03  0.00000000000E+00 0. -1.
<mgrwt>
<rscale>  2 0.31118826E+02</rscale>
<asrwt>0</asrwt>
<pdfrwt beam="1">  1       21 0.44325565E-03 0.31118826E+02</pdfrwt>
<pdfrwt beam="2">  1       21 0.59964203E-01 0.31118826E+02</pdfrwt>
<totfact> 0.28462136E+07</totfact>
</mgrwt>
</event>
<event>
 4    1  0.7595771E+004  0.9890948E+02  0.7546771E-02  0.1282606E+00
         21   -1    0    0  501  502  0.00000000000E+00  0.00000000000E+00  0.37903227586E+03  0.37903227586E+03  0.00000000000E+00 0.  1.
         21   -1    0    0  502  503 -0.00000000000E+00 -0.00000000000E+00 -0.26609760553E+02  0.26609760553E+02  0.00000000000E+00 0.  1.
          4    1    1    2  501    0 -0.45920253851E+02 -0.87603743487E+02  0.14106457732E+03  0.17228552046E+03  0.00000000000E+00 0.  1.
         -4    1    1    2    0  503  0.45920253851E+02  0.87603743487E+02  0.21135793800E+03  0.23335651596E+03  0.00000000000E+00 0. -1.
<mgrwt>
<rscale>  2 0.98909482E+02</rscale>
<asrwt>0</asrwt>
<pdfrwt beam="1">  1       21 0.58312654E-01 0.98909482E+02</pdfrwt>
<pdfrwt beam="2">  1       21 0.40938096E-02 0.98909482E+02</pdfrwt>
<totfact> 0.10379390E+06</totfact>
</mgrwt>
</event>
<event>
 4    1  0.7595771E+004  0.4357375E+02  0.7546771E-02  0.1483447E+00
         21   -1    0    0  503  502  0.00000000000E+00  0.00000000000E+00  0.53683513443E+01  0.53683513443E+01  0.00000000000E+00 0. -1.
         21   -1    0    0  501  503 -0.00000000000E+00 -0.00000000000E+00 -0.35391128660E+03  0.35391128660E+03  0.00000000000E+00 0. -1.
          3    1    1    2  501    0 -0.10196382165E+01  0.43561823175E+02 -0.16966733763E+03  0.17517327867E+03  0.00000000000E+00 0. -1.
         -3    1    1    2    0  502  0.10196382165E+01 -0.43561823175E+02 -0.17887559763E+03  0.18410635928E+03  0.00000000000E+00 0.  1.
<mgrwt>
<rscale>  2 0.43573755E+02</rscale>
<asrwt>0</asrwt>
<pdfrwt beam="1">  1       21 0.82590009E-03 0.43573755E+02</pdfrwt>
<pdfrwt beam="2">  1       21 0.54447898E-01 0.43573755E+02</pdfrwt>
<totfact> 0.14276168E+07</totfact>
</mgrwt>
</event>
<event>
 4    1  0.7595771E+004  0.2934693E+02  0.7546771E-02  0.1605422E+00
         21   -1    0    0  501  502  0.00000000000E+00  0.00000000000E+00  0.21580366465E+03  0.21580366465E+03  0.00000000000E+00 0. -1.
         21   -1    0    0  502  503 -0.00000000000E+00 -0.00000000000E+00 -0.43341129044E+01  0.43341129044E+01  0.00000000000E+00 0. -1.
          5    1    1    2  501    0 -0.29303043384E+02 -0.16043013626E+01  0.74759027152E+02  0.80312852490E+02  0.00000000000E+00 0. -1.
         -5    1    1    2    0  503  0.29303043384E+02  0.16043013626E+01  0.13671052459E+03  0.13982492506E+03  0.00000000000E+00 0.  1.
<mgrwt>
<rscale>  2 0.29346927E+02</rscale>
<asrwt>0</asrwt>
<pdfrwt beam="1">  1       21 0.33200555E-01 0.29346927E+02</pdfrwt>
<pdfrwt beam="2">  1       21 0.66678677E-03 0.29346927E+02</pdfrwt>
<totfact> 0.48107497E+07</totfact>
</mgrwt>
</event>
<event>
 4    1  0.7595771E+004  0.4290187E+02  0.7546771E-02  0.1487882E+00
         21   -1    0    0  501  502  0.00000000000E+00  0.00000000000E+00  0.29347650990E+01  0.29347650990E+01  0.00000000000E+00 0.  1.
         21   -1    0    0  502  503 -0.00000000000E+00 -0.00000000000E+00 -0.62737463015E+03  0.62737463015E+03  0.00000000000E+00 0.  1.
          4    1    1    2  501    0  0.18813889515E+02 -0.38556560111E+02 -0.31803293198E+03  0.32091356561E+03  0.00000000000E+00 0.  1.
         -4    1    1    2    0  503 -0.18813889515E+02  0.38556560111E+02 -0.30640693307E+03  0.30939582964E+03  0.00000000000E+00 0. -1.
<mgrwt>
<rscale>  2 0.42901874E+02</rscale>
<asrwt>0</asrwt>
<pdfrwt beam="1">  1       21 0.45150173E-03 0.42901874E+02</pdfrwt>
<pdfrwt beam="2">  1       21 0.96519300E-01 0.42901874E+02</pdfrwt>
<totfact> 0.10556179E+07</totfact>
</mgrwt>
</event>
<event>
 4    1  0.7595771E+004  0.7127538E+02  0.7546771E-02  0.1355809E+00
         21   -1    0    0  503  502  0.00000000000E+00  0.00000000000E+00  0.34764506885E+03  0.34764506885E+03  0.00000000000E+00 0. -1.
         21   -1    0    0  501  503 -0.00000000000E+00 -0.00000000000E+00 -0.14616587176E+02  0.14616587176E+02  0.00000000000E+00 0. -1.
          4    1    1    2  501    0  0.62601631042E+02 -0.34076616742E+02  0.16372559412E+03  0.17856721476E+03  0.00000000000E+00 0.  1.
         -4    1    1    2    0  502 -0.62601631042E+02  0.34076616742E+02  0.16930288756E+03  0.18369444127E+03  0.00000000000E+00 0. -1.
<mgrwt>
<rscale>  2 0.71275382E+02</rscale>
<asrwt>0</asrwt>
<pdfrwt beam="1">  1       21 0.53483851E-01 0.71275382E+02</pdfrwt>
<pdfrwt beam="2">  1       21 0.22487060E-02 0.71275382E+02</pdfrwt>
<totfact> 0.32472415E+06</totfact>
</mgrwt>
</event>
<event>
 4    1  0.7595771E+004  0.3386817E+02  0.7546771E-02  0.1558887E+00
         21   -1    0    0  501  502  0.00000000000E+00  0.00000000000E+00  0.18715982907E+03  0.18715982907E+03  0.00000000000E+00 0.  1.
         21   -1    0    0  502  503 -0.00000000000E+00 -0.00000000000E+00 -0.75117579454E+01  0.75117579454E+01  0.00000000000E+00 0.  1.
          2    1    1    2  501    0  0.17157192937E+02  0.29200750154E+02  0.13158941233E+03  0.13587798392E+03  0.00000000000E+00 0. -1.
         -2    1    1    2    0  503 -0.17157192937E+02 -0.29200750154E+02  0.48058658803E+02  0.58793603095E+02  0.00000000000E+00 0.  1.
<mgrwt>
<rscale>  2 0.33868172E+02</rscale>
<asrwt>0</asrwt>
<pdfrwt beam="1">  1       21 0.28793816E-01 0.33868172E+02</pdfrwt>
<pdfrwt beam="2">  1       21 0.11556552E-02 0.33868172E+02</pdfrwt>
<totfact> 0.28012482E+07</totfact>
</mgrwt>
</event>
<event>
 4    1  0.7595771E+004  0.2194654E+02  0.7546771E-02  0.1709178E+00
         21   -1    0    0  503  502  0.00000000000E+00  0.00000000000E+00  0.64056434640E+01  0.64056434640E+01  0.00000000000E+00 0. -1.
         21   -1    0    0  501  503 -0.00000000000E+00 -0.00000000000E+00 -0.80755044838E+02  0.80755044838E+02  0.00000000000E+00 0. -1.
          3    1    1    2  501    0 -0.90217100094E+01 -0.20006478633E+02 -0.48613451111E+02  0.53337773366E+02  0.00000000000E+00 0. -1.
         -3    1    1    2    0  502  0.90217100094E+01  0.20006478633E+02 -0.25735950263E+02  0.33822914935E+02  0.00000000000E+00 0.  1.
<mgrwt>
<rscale>  2 0.21946536E+02</rscale>
<asrwt>0</asrwt>
<pdfrwt beam="1">  1       21 0.98548362E-03 0.21946536E+02</pdfrwt>
<pdfrwt beam="2">  1       21 0.12423853E-01 0.21946536E+02</pdfrwt>
<totfact> 0.14016887E+08</totfact>
</mgrwt>
</event>
<event>
 4    1  0.7595771E+004  0.2957012E+02  0.7546771E-02  0.1602890E+00
         21   -1    0    0  503  502  0.00000000000E+00  0.00000000000E+00  0.12853130170E+02  0.12853130170E+02  0.00000000000E+00 0. -1.
         21   -1    0    0  501  503 -0.00000000000E+00 -0.00000000000E+00 -0.23306604198E+03  0.23306604198E+03  0.00000000000E+00 0. -1.
          5    1    1    2  501    0  0.28272313455E+02  0.86641886263E+01 -0.21357610224E+03  0.21561341174E+03  0.00000000000E+00 0.  1.
         -5    1    1    2    0  502 -0.28272313455E+02 -0.86641886263E+01 -0.66368095626E+01  0.30305760407E+02  0.00000000000E+00 0. -1.
<mgrwt>
<rscale>  2 0.29570118E+02</rscale>
<asrwt>0</asrwt>
<pdfrwt beam="1">  1       21 0.19774047E-02 0.29570118E+02</pdfrwt>
<pdfrwt beam="2">  1       21 0.35856313E-01 0.29570118E+02</pdfrwt>
<totfact> 0.79821606E+06</totfact>
</mgrwt>
</event>
<event>
 4    1  0.7595771E+004  0.2016644E+02  0.7546771E-02  0.1742038E+00
         21   -1    0    0  503  502  0.00000000000E+00  0.00000000000E+00  0.20695349448E+01  0.20695349448E+01  0.00000000000E+00 0. -1.
         21   -1    0    0  501  503 -0.00000000000E+00 -0.00000000000E+00 -0.21290202615E+03  0.21290202615E+03  0.00000000000E+00 0. -1.
          5    1    1    2  501    0 -0.19526609750E+02 -0.50395367929E+01 -0.13524055169E+03  0.13673584841E+03  0.00000000000E+00 0.  1.
         -5    1    1    2    0  502  0.19526609750E+02  0.50395367929E+01 -0.75591939516E+02  0.78235712684E+02  0.00000000000E+00 0. -1.
<mgrwt>
<rscale>  2 0.20166443E+02</rscale>
<asrwt>0</asrwt>
<pdfrwt beam="1">  1       21 0.31839009E-03 0.20166443E+02</pdfrwt>
<pdfrwt beam="2">  1       21 0.32754148E-01 0.20166443E+02</pdfrwt>
<totfact> 0.13353345E+08</totfact>
</mgrwt>
</event>
<event>
 4    1  0.7595771E+004  0.2156543E+02  0.7546771E-02  0.1715878E+00
         21   -1    0    0  501  502  0.00000000000E+00  0.00000000000E+00  0.32000299550E+02  0.32000299550E+02  0.00000000000E+00 0. -1.
         21   -1    0    0  502  503 -0.00000000000E+00 -0.00000000000E+00 -0.27837703449E+02  0.27837703449E+02  0.00000000000E+00 0. -1.
          3    1    1    2  501    0 -0.68589530898E+01 -0.20445594647E+02 -0.18602453296E+02  0.28480148289E+02  0.00000000000E+00 0. -1.
         -3    1    1    2    0  503  0.68589530898E+01  0.20445594647E+02  0.22765049397E+02  0.31357854709E+02  0.00000000000E+00 0.  1.
<mgrwt>
<rscale>  2 0.21565426E+02</rscale>
<asrwt>0</asrwt>
<pdfrwt beam="1">  1       21 0.49231230E-02 0.21565426E+02</pdfrwt>
<pdfrwt beam="2">  1       21 0.42827236E-02 0.21565426E+02</pdfrwt>
<totfact> 0.66036325E+07</totfact>
</mgrwt>
</event>
<event>
 4    1  0.7595771E+004  0.2257478E+02  0.7546771E-02  0.1698497E+00
         21   -1    0    0  501  502  0.00000000000E+00  0.00000000000E+00  0.21848412586E+02  0.21848412586E+02  0.00000000000E+00 0.  1.
         21   -1    0    0  502  503 -0.00000000000E+00 -0.00000000000E+00 -0.30520180798E+02  0.30520180798E+02  0.00000000000E+00 0.  1.
          4    1    1    2  501    0 -0.16521289427E+02  0.15384000403E+02  0.83774536666E+01  0.24079082264E+02  0.00000000000E+00 0.  1.
         -4    1    1    2    0  503  0.16521289427E+02 -0.15384000403E+02 -0.17049221879E+02  0.28289511120E+02  0.00000000000E+00 0. -1.
<mgrwt>
<rscale>  2 0.22574775E+02</rscale>
<asrwt>0</asrwt>
<pdfrwt beam="1">  1       21 0.33612943E-02 0.22574775E+02</pdfrwt>
<pdfrwt beam="2">  1       21 0.46954124E-02 0.22574775E+02</pdfrwt>
<totfact> 0.10548761E+08</totfact>
</mgrwt>
</event>
<event>
 4    1  0.7595771E+004  0.2006905E+02  0.7546771E-02  0.1743958E+00
         21   -1    0    0  501  502  0.00000000000E+00  0.00000000000E+00  0.47650776554E+01  0.47650776554E+01  0.00000000000E+00 0. -1.
         21   -1    0    0  502  503 -0.00000000000E+00 -0.00000000000E+00 -0.10739087407E+03  0.10739087407E+03  0.00000000000E+00 0. -1.
          5    1    1    2  501    0  0.17315819504E+02  0.10145401225E+02 -0.25436408002E+02  0.32400271961E+02  0.00000000000E+00 0.  1.
         -5    1    1    2    0  503 -0.17315819504E+02 -0.10145401225E+02 -0.77189388409E+02  0.79755679760E+02  0.00000000000E+00 0. -1.
<mgrwt>
<rscale>  2 0.20069050E+02</rscale>
<asrwt>0</asrwt>
<pdfrwt beam="1">  1       21 0.73308888E-03 0.20069050E+02</pdfrwt>
<pdfrwt beam="2">  1       21 0.16521673E-01 0.20069050E+02</pdfrwt>
<totfact> 0.13100269E+08</totfact>
</mgrwt>
</event>
<event>
 4    1  0.7595771E+004  0.3202736E+02  0.7546771E-02  0.1576703E+00
         21   -1    0    0  503  502  0.00000000000E+00  0.00000000000E+00  0.51683607525E+02  0.51683607525E+02  0.00000000000E+00 0. -1.
         21   -1    0    0  501  503 -0.00000000000E+00 -0.00000000000E+00 -0.64385663200E+02  0.64385663200E+02  0.00000000000E+00 0. -1.
          1    1    1    2  501    0 -0.32020636553E+02  0.65622506087E+00 -0.54619379273E+02  0.63316888654E+02  0.00000000000E+00 0. -1.
         -1    1    1    2    0  502  0.32020636553E+02 -0.65622506087E+00  0.41917323598E+02  0.52752382071E+02  0.00000000000E+00 0.  1.
<mgrwt>
<rscale>  2 0.32027360E+02</rscale>
<asrwt>0</asrwt>
<pdfrwt beam="1">  1       21 0.79513242E-02 0.32027360E+02</pdfrwt>
<pdfrwt beam="2">  1       21 0.99054867E-02 0.32027360E+02</pdfrwt>
<totfact> 0.84770795E+06</totfact>
</mgrwt>
</event>
<event>
 4    1  0.7595771E+004  0.2555269E+02  0.7546771E-02  0.1653188E+00
         21   -1    0    0  503  502  0.00000000000E+00  0.00000000000E+00  0.16350598331E+02  0.16350598331E+02  0.00000000000E+00 0. -1.
         21   -1    0    0  501  503 -0.00000000000E+00 -0.00000000000E+00 -0.42197714114E+02  0.42197714114E+02  0.00000000000E+00 0. -1.
          3    1    1    2  501    0  0.73980692505E+00 -0.25541981000E+02 -0.61428005438E+01  0.26280679333E+02  0.00000000000E+00 0. -1.
         -3    1    1    2    0  502 -0.73980692505E+00  0.25541981000E+02 -0.19704315239E+02  0.32267633113E+02  0.00000000000E+00 0.  1.
<mgrwt>
<rscale>  2 0.25552693E+02</rscale>
<asrwt>0</asrwt>
<pdfrwt beam="1">  1       21 0.25154767E-02 0.25552693E+02</pdfrwt>
<pdfrwt beam="2">  1       21 0.64919559E-02 0.25552693E+02</pdfrwt>
<totfact> 0.10208637E+08</totfact>
</mgrwt>
</event>
<event>
 4    1  0.7595771E+004  0.2571339E+02  0.7546771E-02  0.1650962E+00
         21   -1    0    0  501  502  0.00000000000E+00  0.00000000000E+00  0.17170035304E+02  0.17170035304E+02  0.00000000000E+00 0. -1.
         21   -1    0    0  502  503 -0.00000000000E+00 -0.00000000000E+00 -0.42936122239E+02  0.42936122239E+02  0.00000000000E+00 0. -1.
          1    1    1    2  501    0 -0.24091018763E+02  0.89889572261E+01 -0.22534706733E+02  0.34190518344E+02  0.00000000000E+00 0. -1.
         -1    1    1    2    0  503  0.24091018763E+02 -0.89889572261E+01 -0.32313802018E+01  0.25915639198E+02  0.00000000000E+00 0.  1.
<mgrwt>
<rscale>  2 0.25713392E+02</rscale>
<asrwt>0</asrwt>
<pdfrwt beam="1">  1       21 0.26415439E-02 0.25713392E+02</pdfrwt>
<pdfrwt beam="2">  1       21 0.66055572E-02 0.25713392E+02</pdfrwt>
<totfact> 0.92142432E+07</totfact>
</mgrwt>
</event>
<event>
 4    1  0.7595771E+004  0.2104194E+02  0.7546771E-02  0.1725368E+00
         21   -1    0    0  503  502  0.00000000000E+00  0.00000000000E+00  0.41183427839E+00  0.41183427839E+00  0.00000000000E+00 0.  1.
         21   -1    0    0  501  503 -0.00000000000E+00 -0.00000000000E+00 -0.10765529140E+04  0.10765529140E+04  0.00000000000E+00 0.  1.
          1    1    1    2  501    0  0.13615591673E+02 -0.16043038859E+02 -0.51829498668E+03  0.51872194541E+03  0.00000000000E+00 0. -1.
         -1    1    1    2    0  502 -0.13615591673E+02  0.16043038859E+02 -0.55784609300E+03  0.55824280283E+03  0.00000000000E+00 0.  1.
<mgrwt>
<rscale>  2 0.21041945E+02</rscale>
<asrwt>0</asrwt>
<pdfrwt beam="1">  1       21 0.63359747E-04 0.21041945E+02</pdfrwt>
<pdfrwt beam="2">  1       21 0.16562189E+00 0.21041945E+02</pdfrwt>
<totfact> 0.46758606E+07</totfact>
</mgrwt>
</event>
<event>
 4    1  0.7595771E+004  0.2039250E+02  0.7546771E-02  0.1737634E+00
         21   -1    0    0  503  502  0.00000000000E+00  0.00000000000E+00  0.13109154010E+01  0.13109154010E+01  0.00000000000E+00 0. -1.
         21   -1    0    0  501  503 -0.00000000000E+00 -0.00000000000E+00 -0.65215075983E+03  0.65215075983E+03  0.00000000000E+00 0. -1.
          2    1    1    2  501    0 -0.19538624764E+02 -0.58391850326E+01 -0.55956821320E+03  0.55993967457E+03  0.00000000000E+00 0. -1.
         -2    1    1    2    0  502  0.19538624764E+02  0.58391850326E+01 -0.91271631234E+02  0.93522000661E+02  0.00000000000E+00 0.  1.
<mgrwt>
<rscale>  2 0.20392497E+02</rscale>
<asrwt>0</asrwt>
<pdfrwt beam="1">  1       21 0.20167884E-03 0.20392497E+02</pdfrwt>
<pdfrwt beam="2">  1       21 0.10033111E+00 0.20392497E+02</pdfrwt>
<totfact> 0.28159834E+07</totfact>
</mgrwt>
</event>
<event>
 4    1  0.7595771E+004  0.2089514E+02  0.7546771E-02  0.1728091E+00
         21   -1    0    0  503  502  0.00000000000E+00  0.00000000000E+00  0.32386283492E+02  0.32386283492E+02  0.00000000000E+00 0.  1.
         21   -1    0    0  501  503 -0.00000000000E+00 -0.00000000000E+00 -0.15449681214E+02  0.15449681214E+02  0.00000000000E+00 0.  1.
          2    1    1    2  501    0  0.20600392526E+02  0.34972499196E+01 -0.69128406436E-01  0.20895255633E+02  0.00000000000E+00 0. -1.
         -2    1    1    2    0  502 -0.20600392526E+02 -0.34972499196E+01  0.17005730685E+02  0.26940709073E+02  0.00000000000E+00 0.  1.
<mgrwt>
<rscale>  2 0.20895141E+02</rscale>
<asrwt>0</asrwt>
<pdfrwt beam="1">  1       21 0.49825051E-02 0.20895141E+02</pdfrwt>
<pdfrwt beam="2">  1       21 0.23768740E-02 0.20895141E+02</pdfrwt>
<totfact> 0.16051089E+08</totfact>
</mgrwt>
</event>
<event>
 4    1  0.7595771E+004  0.2430816E+02  0.7546771E-02  0.1671143E+00
         21   -1    0    0  503  502  0.00000000000E+00  0.00000000000E+00  0.12599742598E+03  0.12599742598E+03  0.00000000000E+00 0. -1.
         21   -1    0    0  501  503 -0.00000000000E+00 -0.00000000000E+00 -0.46921751607E+01  0.46921751607E+01  0.00000000000E+00 0. -1.
          2    1    1    2  501    0  0.90666027899E+01  0.22554010400E+02  0.62161731240E+02  0.66745542938E+02  0.00000000000E+00 0. -1.
         -2    1    1    2    0  502 -0.90666027899E+01 -0.22554010400E+02  0.59143519581E+02  0.63944058205E+02  0.00000000000E+00 0.  1.
<mgrwt>
<rscale>  2 0.24308161E+02</rscale>
<asrwt>0</asrwt>
<pdfrwt beam="1">  1       21 0.19384217E-01 0.24308161E+02</pdfrwt>
<pdfrwt beam="2">  1       21 0.72187320E-03 0.24308161E+02</pdfrwt>
<totfact> 0.10752471E+08</totfact>
</mgrwt>
</event>
<event>
 4    1  0.7595771E+004  0.2343143E+02  0.7546771E-02  0.1684611E+00
         21   -1    0    0  503  502  0.00000000000E+00  0.00000000000E+00  0.20907231254E+01  0.20907231254E+01  0.00000000000E+00 0. -1.
         21   -1    0    0  501  503 -0.00000000000E+00 -0.00000000000E+00 -0.37937784214E+03  0.37937784214E+03  0.00000000000E+00 0. -1.
          4    1    1    2  501    0 -0.10057121803E+02  0.21163321831E+02 -0.82824014591E+02  0.86074672714E+02  0.00000000000E+00 0. -1.
         -4    1    1    2    0  502  0.10057121803E+02 -0.21163321831E+02 -0.29446310442E+03  0.29539389255E+03  0.00000000000E+00 0.  1.
<mgrwt>
<rscale>  2 0.23431430E+02</rscale>
<asrwt>0</asrwt>
<pdfrwt beam="1">  1       21 0.32164987E-03 0.23431430E+02</pdfrwt>
<pdfrwt beam="2">  1       21 0.58365792E-01 0.23431430E+02</pdfrwt>
<totfact> 0.45521344E+07</totfact>
</mgrwt>
</event>
<event>
 4    1  0.7595771E+004  0.2378414E+02  0.7546771E-02  0.1679106E+00
         21   -1    0    0  503  502  0.00000000000E+00  0.00000000000E+00  0.67275100983E+03  0.67275100983E+03  0.00000000000E+00 0. -1.
         21   -1    0    0  501  503 -0.00000000000E+00 -0.00000000000E+00 -0.11300033538E+01  0.11300033538E+01  0.00000000000E+00 0. -1.
          3    1    1    2  501    0  0.23078214143E+02 -0.57516325260E+01  0.16536928894E+03  0.16707090402E+03  0.00000000000E+00 0. -1.
         -3    1    1    2    0  502 -0.23078214143E+02  0.57516325260E+01  0.50625171753E+03  0.50681010916E+03  0.00000000000E+00 0.  1.
<mgrwt>
<rscale>  2 0.23784139E+02</rscale>
<asrwt>0</asrwt>
<pdfrwt beam="1">  1       21 0.10349984E+00 0.23784139E+02</pdfrwt>
<pdfrwt beam="2">  1       21 0.17384721E-03 0.23784139E+02</pdfrwt>
<totfact> 0.33623086E+07</totfact>
</mgrwt>
</event>
<event>
 4    1  0.7595771E+004  0.2671835E+02  0.7546771E-02  0.1637480E+00
         21   -1    0    0  501  502  0.00000000000E+00  0.00000000000E+00  0.18330760317E+03  0.18330760317E+03  0.00000000000E+00 0. -1.
         21   -1    0    0  502  503 -0.00000000000E+00 -0.00000000000E+00 -0.40594122906E+01  0.40594122906E+01  0.00000000000E+00 0. -1.
          1    1    1    2  501    0 -0.26713298594E+02  0.51960700287E+00  0.70735053648E+02  0.75612949471E+02  0.00000000000E+00 0. -1.
         -1    1    1    2    0  503  0.26713298594E+02 -0.51960700287E+00  0.10851313723E+03  0.11175406599E+03  0.00000000000E+00 0.  1.
<mgrwt>
<rscale>  2 0.26718352E+02</rscale>
<asrwt>0</asrwt>
<pdfrwt beam="1">  1       21 0.28201163E-01 0.26718352E+02</pdfrwt>
<pdfrwt beam="2">  1       21 0.62452511E-03 0.26718352E+02</pdfrwt>
<totfact> 0.70116220E+07</totfact>
</mgrwt>
</event>
<event>
 4    1  0.7595771E+004  0.3157541E+02  0.7546771E-02  0.1581300E+00
         21   -1    0    0  503  502  0.00000000000E+00  0.00000000000E+00  0.52737150243E+02  0.52737150243E+02  0.00000000000E+00 0.  1.
         21   -1    0    0  501  503 -0.00000000000E+00 -0.00000000000E+00 -0.19044511589E+02  0.19044511589E+02  0.00000000000E+00 0.  1.
          1    1    1    2  501    0  0.23916016588E+02  0.20616268410E+02  0.13776645556E+02  0.34449997610E+02  0.00000000000E+00 0. -1.
         -1    1    1    2    0  502 -0.23916016588E+02 -0.20616268410E+02  0.19915993098E+02  0.37331664223E+02  0.00000000000E+00 0.  1.
<mgrwt>
<rscale>  2 0.31575408E+02</rscale>
<asrwt>0</asrwt>
<pdfrwt beam="1">  1       21 0.81134076E-02 0.31575408E+02</pdfrwt>
<pdfrwt beam="2">  1       21 0.29299249E-02 0.31575408E+02</pdfrwt>
<totfact> 0.58814687E+07</totfact>
</mgrwt>
</event>
<event>
 4    1  0.7595771E+004  0.2222564E+02  0.7546771E-02  0.1704379E+00
         21   -1    0    0  501  502  0.00000000000E+00  0.00000000000E+00  0.68433086639E+02  0.68433086639E+02  0.00000000000E+00 0.  1.
         21   -1    0    0  502  503 -0.00000000000E+00 -0.00000000000E+00 -0.11154665212E+02  0.11154665212E+02  0.00000000000E+00 0.  1.
          5    1    1    2  501    0  0.18767916361E+02 -0.11905649044E+02  0.52278189976E+02  0.56806586862E+02  0.00000000000E+00 0. -1.
         -5    1    1    2    0  503 -0.18767916361E+02  0.11905649044E+02  0.50002314507E+01  0.22781164989E+02  0.00000000000E+00 0.  1.
<mgrwt>
<rscale>  2 0.22225642E+02</rscale>
<asrwt>0</asrwt>
<pdfrwt beam="1">  1       21 0.10528167E-01 0.22225642E+02</pdfrwt>
<pdfrwt beam="2">  1       21 0.17161024E-02 0.22225642E+02</pdfrwt>
<totfact> 0.80157774E+07</totfact>
</mgrwt>
</event>
<event>
 4    1  0.7595771E+004  0.2292765E+02  0.7546771E-02  0.1692686E+00
         21   -1    0    0  501  502  0.00000000000E+00  0.00000000000E+00  0.20616412823E+02  0.20616412823E+02  0.00000000000E+00 0.  1.
         21   -1    0    0  502  503 -0.00000000000E+00 -0.00000000000E+00 -0.25534602411E+02  0.25534602411E+02  0.00000000000E+00 0.  1.
          2    1    1    2  501    0  0.92876635783E+01  0.20962266741E+02 -0.33327370972E+01  0.23168609328E+02  0.00000000000E+00 0.  1.
         -2    1    1    2    0  503 -0.92876635783E+01 -0.20962266741E+02 -0.15854524909E+01  0.22982405906E+02  0.00000000000E+00 0. -1.
<mgrwt>
<rscale>  2 0.22927654E+02</rscale>
<asrwt>0</asrwt>
<pdfrwt beam="1">  1       21 0.31717558E-02 0.22927654E+02</pdfrwt>
<pdfrwt beam="2">  1       21 0.39284004E-02 0.22927654E+02</pdfrwt>
<totfact> 0.15380916E+08</totfact>
</mgrwt>
</event>
<event>
 4    1  0.7595771E+004  0.2723435E+02  0.7546771E-02  0.1630839E+00
         21   -1    0    0  501  502  0.00000000000E+00  0.00000000000E+00  0.12435294623E+03  0.12435294623E+03  0.00000000000E+00 0.  1.
         21   -1    0    0  502  503 -0.00000000000E+00 -0.00000000000E+00 -0.60106372863E+01  0.60106372863E+01  0.00000000000E+00 0.  1.
          5    1    1    2  501    0  0.25333282720E+02 -0.99967216826E+01  0.64878649278E+02  0.70362978831E+02  0.00000000000E+00 0. -1.
         -5    1    1    2    0  503 -0.25333282720E+02  0.99967216826E+01  0.53463659665E+02  0.60000604685E+02  0.00000000000E+00 0.  1.
<mgrwt>
<rscale>  2 0.27234347E+02</rscale>
<asrwt>0</asrwt>
<pdfrwt beam="1">  1       21 0.19131221E-01 0.27234347E+02</pdfrwt>
<pdfrwt beam="2">  1       21 0.92471352E-03 0.27234347E+02</pdfrwt>
<totfact> 0.78109593E+07</totfact>
</mgrwt>
</event>
<event>
 4    1  0.7595771E+004  0.4804153E+02  0.7546771E-02  0.1456201E+00
         21   -1    0    0  501  502  0.00000000000E+00  0.00000000000E+00  0.22059603953E+02  0.22059603953E+02  0.00000000000E+00 0.  1.
         21   -1    0    0  502  503 -0.00000000000E+00 -0.00000000000E+00 -0.10502554166E+03  0.10502554166E+03  0.00000000000E+00 0.  1.
          4    1    1    2  501    0 -0.42580159151E+02  0.22246765585E+02 -0.45406530638E+02  0.66104020732E+02  0.00000000000E+00 0.  1.
         -4    1    1    2    0  503  0.42580159151E+02 -0.22246765585E+02 -0.37559407066E+02  0.60981124879E+02  0.00000000000E+00 0. -1.
<mgrwt>
<rscale>  2 0.48041529E+02</rscale>
<asrwt>0</asrwt>
<pdfrwt beam="1">  1       21 0.33937852E-02 0.48041529E+02</pdfrwt>
<pdfrwt beam="2">  1       21 0.16157776E-01 0.48041529E+02</pdfrwt>
<totfact> 0.15497848E+07</totfact>
</mgrwt>
</event>
<event>
 4    1  0.7595771E+004  0.3840218E+02  0.7546771E-02  0.1520310E+00
         21   -1    0    0  503  502  0.00000000000E+00  0.00000000000E+00  0.32731439508E+02  0.32731439508E+02  0.00000000000E+00 0.  1.
         21   -1    0    0  501  503 -0.00000000000E+00 -0.00000000000E+00 -0.46950131055E+02  0.46950131055E+02  0.00000000000E+00 0.  1.
          4    1    1    2  501    0 -0.17773377711E+02  0.34041662730E+02  0.89423759166E+00  0.38412594517E+02  0.00000000000E+00 0.  1.
         -4    1    1    2    0  502  0.17773377711E+02 -0.34041662730E+02 -0.15112929139E+02  0.41268976045E+02  0.00000000000E+00 0. -1.
<mgrwt>
<rscale>  2 0.38402184E+02</rscale>
<asrwt>0</asrwt>
<pdfrwt beam="1">  1       21 0.50356061E-02 0.38402184E+02</pdfrwt>
<pdfrwt beam="2">  1       21 0.72230971E-02 0.38402184E+02</pdfrwt>
<totfact> 0.31207592E+07</totfact>
</mgrwt>
</event>
<event>
 4    1  0.7595771E+004  0.3028538E+02  0.7546771E-02  0.1594955E+00
         21   -1    0    0  501  502  0.00000000000E+00  0.00000000000E+00  0.15926696400E+04  0.15926696400E+04  0.00000000000E+00 0.  1.
         21   -1    0    0  502  503 -0.00000000000E+00 -0.00000000000E+00 -0.60293974791E+00  0.60293974791E+00  0.00000000000E+00 0.  1.
          3    1    1    2  501    0  0.55525666137E+01 -0.29772024544E+02  0.96476441581E+03  0.96523965027E+03  0.00000000000E+00 0. -1.
         -3    1    1    2    0  503 -0.55525666137E+01  0.29772024544E+02  0.62730228444E+03  0.62803292948E+03  0.00000000000E+00 0.  1.
<mgrwt>
<rscale>  2 0.30285383E+02</rscale>
<asrwt>0</asrwt>
<pdfrwt beam="1">  1       21 0.24502273E+00 0.30285383E+02</pdfrwt>
<pdfrwt beam="2">  1       21 0.92761236E-04 0.30285383E+02</pdfrwt>
<totfact> 0.10223577E+07</totfact>
</mgrwt>
</event>
<event>
 4    1  0.7595771E+004  0.3205910E+02  0.7546771E-02  0.1576383E+00
         21   -1    0    0  501  502  0.00000000000E+00  0.00000000000E+00  0.20328727311E+03  0.20328727311E+03  0.00000000000E+00 0. -1.
         21   -1    0    0  502  503 -0.00000000000E+00 -0.00000000000E+00 -0.54728307114E+01  0.54728307114E+01  0.00000000000E+00 0. -1.
          2    1    1    2  501    0  0.26706241014E+02 -0.17735919295E+02  0.12771960976E+03  0.13168175599E+03  0.00000000000E+00 0.  1.
         -2    1    1    2    0  503 -0.26706241014E+02  0.17735919295E+02  0.70094832637E+02  0.77078347833E+02  0.00000000000E+00 0. -1.
<mgrwt>
<rscale>  2 0.32059104E+02</rscale>
<asrwt>0</asrwt>
<pdfrwt beam="1">  1       21 0.31274959E-01 0.32059104E+02</pdfrwt>
<pdfrwt beam="2">  1       21 0.84197411E-03 0.32059104E+02</pdfrwt>
<totfact> 0.38511727E+07</totfact>
</mgrwt>
</event>
<event>
 4    1  0.7595771E+004  0.3243404E+02  0.7546771E-02  0.1572644E+00
         21   -1    0    0  501  502  0.00000000000E+00  0.00000000000E+00  0.10453207410E+03  0.10453207410E+03  0.00000000000E+00 0.  1.
         21   -1    0    0  502  503 -0.00000000000E+00 -0.00000000000E+00 -0.14238194717E+02  0.14238194717E+02  0.00000000000E+00 0.  1.
          3    1    1    2  501    0 -0.13834506991E+02 -0.29335534934E+02  0.77302666384E+02  0.83831196005E+02  0.00000000000E+00 0.  1.
         -3    1    1    2    0  503  0.13834506991E+02  0.29335534934E+02  0.12991212994E+02  0.34939072807E+02  0.00000000000E+00 0. -1.
<mgrwt>
<rscale>  2 0.32434044E+02</rscale>
<asrwt>0</asrwt>
<pdfrwt beam="1">  1       21 0.16081857E-01 0.32434044E+02</pdfrwt>
<pdfrwt beam="2">  1       21 0.21904916E-02 0.32434044E+02</pdfrwt>
<totfact> 0.29300895E+07</totfact>
</mgrwt>
</event>
<event>
 4    1  0.7595771E+004  0.2663041E+02  0.7546771E-02  0.1638631E+00
         21   -1    0    0  501  502  0.00000000000E+00  0.00000000000E+00  0.65353096479E+03  0.65353096479E+03  0.00000000000E+00 0.  1.
         21   -1    0    0  502  503 -0.00000000000E+00 -0.00000000000E+00 -0.11326569965E+01  0.11326569965E+01  0.00000000000E+00 0.  1.
          2    1    1    2  501    0 -0.16341685514E+02  0.21026840663E+02  0.39323709702E+03  0.39413778452E+03  0.00000000000E+00 0.  1.
         -2    1    1    2    0  503  0.16341685514E+02 -0.21026840663E+02  0.25916121078E+03  0.26052583727E+03  0.00000000000E+00 0. -1.
<mgrwt>
<rscale>  2 0.26630410E+02</rscale>
<asrwt>0</asrwt>
<pdfrwt beam="1">  1       21 0.10054292E+00 0.26630410E+02</pdfrwt>
<pdfrwt beam="2">  1       21 0.17425544E-03 0.26630410E+02</pdfrwt>
<totfact> 0.36518416E+07</totfact>
</mgrwt>
</event>
<event>
 4    1  0.7595771E+004  0.2059439E+02  0.7546771E-02  0.1733760E+00
         21   -1    0    0  503  502  0.00000000000E+00  0.00000000000E+00  0.47987412249E+01  0.47987412249E+01  0.00000000000E+00 0.  1.
         21   -1    0    0  501  503 -0.00000000000E+00 -0.00000000000E+00 -0.90161071082E+02  0.90161071082E+02  0.00000000000E+00 0.  1.
          4    1    1    2  501    0  0.20546160448E+02 -0.14086565176E+01 -0.49348113652E+02  0.53473033796E+02  0.00000000000E+00 0.  1.
         -4    1    1    2    0  502 -0.20546160448E+02  0.14086565176E+01 -0.36014216205E+02  0.41486778510E+02  0.00000000000E+00 0. -1.
<mgrwt>
<rscale>  2 0.20594393E+02</rscale>
<asrwt>0</asrwt>
<pdfrwt beam="1">  1       21 0.73826784E-03 0.20594393E+02</pdfrwt>
<pdfrwt beam="2">  1       21 0.13870935E-01 0.20594393E+02</pdfrwt>
<totfact> 0.17576760E+08</totfact>
</mgrwt>
</event>
<event>
 4    1  0.7595771E+004  0.2207114E+02  0.7546771E-02  0.1707025E+00
         21   -1    0    0  501  502  0.00000000000E+00  0.00000000000E+00  0.15852696692E+02  0.15852696692E+02  0.00000000000E+00 0. -1.
         21   -1    0    0  502  503 -0.00000000000E+00 -0.00000000000E+00 -0.50909064311E+02  0.50909064311E+02  0.00000000000E+00 0. -1.
          3    1    1    2  501    0  0.22033867352E+02 -0.12821946218E+01  0.34884416857E+01  0.22345123828E+02  0.00000000000E+00 0. -1.
         -3    1    1    2    0  503 -0.22033867352E+02  0.12821946218E+01 -0.38544809306E+02  0.44416637175E+02  0.00000000000E+00 0.  1.
<mgrwt>
<rscale>  2 0.22071143E+02</rscale>
<asrwt>0</asrwt>
<pdfrwt beam="1">  1       21 0.24388764E-02 0.22071143E+02</pdfrwt>
<pdfrwt beam="2">  1       21 0.78321638E-02 0.22071143E+02</pdfrwt>
<totfact> 0.75846325E+07</totfact>
</mgrwt>
</event>
<event>
 4    1  0.7595771E+004  0.3513602E+02  0.7546771E-02  0.1547396E+00
         21   -1    0    0  503  502  0.00000000000E+00  0.00000000000E+00  0.54081261678E+03  0.54081261678E+03  0.00000000000E+00 0.  1.
         21   -1    0    0  501  503 -0.00000000000E+00 -0.00000000000E+00 -0.22847576082E+01  0.22847576082E+01  0.00000000000E+00 0.  1.
          5    1    1    2  501    0  0.34625419839E+02  0.59682399173E+01  0.27731493191E+03  0.27953194996E+03  0.00000000000E+00 0.  1.
         -5    1    1    2    0  502 -0.34625419839E+02 -0.59682399173E+01  0.26121292726E+03  0.26356542443E+03  0.00000000000E+00 0. -1.
<mgrwt>
<rscale>  2 0.35136016E+02</rscale>
<asrwt>0</asrwt>
<pdfrwt beam="1">  1       21 0.83201839E-01 0.35136016E+02</pdfrwt>
<pdfrwt beam="2">  1       21 0.35150160E-03 0.35136016E+02</pdfrwt>
<totfact> 0.20683149E+07</totfact>
</mgrwt>
</event>
<event>
 4    1  0.7595771E+004  0.2757539E+02  0.7546771E-02  0.1626547E+00
         21   -1    0    0  501  502  0.00000000000E+00  0.00000000000E+00  0.44125548249E+02  0.44125548249E+02  0.00000000000E+00 0. -1.
         21   -1    0    0  502  503 -0.00000000000E+00 -0.00000000000E+00 -0.17234691782E+02  0.17234691782E+02  0.00000000000E+00 0. -1.
          1    1    1    2  501    0 -0.25974240771E+02  0.92596537961E+01  0.13775178650E+02  0.30824631691E+02  0.00000000000E+00 0. -1.
         -1    1    1    2    0  503  0.25974240771E+02 -0.92596537961E+01  0.13115677818E+02  0.30535608340E+02  0.00000000000E+00 0.  1.
<mgrwt>
<rscale>  2 0.27575394E+02</rscale>
<asrwt>0</asrwt>
<pdfrwt beam="1">  1       21 0.67885458E-02 0.27575394E+02</pdfrwt>
<pdfrwt beam="2">  1       21 0.26514911E-02 0.27575394E+02</pdfrwt>
<totfact> 0.89225157E+07</totfact>
</mgrwt>
</event>
<event>
 4    1  0.7595771E+004  0.2427902E+02  0.7546771E-02  0.1671579E+00
         21   -1    0    0  501  502  0.00000000000E+00  0.00000000000E+00  0.41412081390E+03  0.41412081390E+03  0.00000000000E+00 0. -1.
         21   -1    0    0  502  503 -0.00000000000E+00 -0.00000000000E+00 -0.14361398953E+01  0.14361398953E+01  0.00000000000E+00 0. -1.
          2    1    1    2  501    0  0.24233477825E+02 -0.14863247273E+01  0.22589158951E+03  0.22719260732E+03  0.00000000000E+00 0.  1.
         -2    1    1    2    0  503 -0.24233477825E+02  0.14863247273E+01  0.18679308450E+03  0.18836434648E+03  0.00000000000E+00 0. -1.
<mgrwt>
<rscale>  2 0.24279016E+02</rscale>
<asrwt>0</asrwt>
<pdfrwt beam="1">  1       21 0.63710799E-01 0.24279016E+02</pdfrwt>
<pdfrwt beam="2">  1       21 0.22094493E-03 0.24279016E+02</pdfrwt>
<totfact> 0.66478454E+07</totfact>
</mgrwt>
</event>
<event>
 4    1  0.7595771E+004  0.2612521E+02  0.7546771E-02  0.1645347E+00
         21   -1    0    0  501  502  0.00000000000E+00  0.00000000000E+00  0.31082958651E+03  0.31082958651E+03  0.00000000000E+00 0. -1.
         21   -1    0    0  502  503 -0.00000000000E+00 -0.00000000000E+00 -0.30686932355E+01  0.30686932355E+01  0.00000000000E+00 0. -1.
          1    1    1    2  501    0  0.44291288616E+01  0.25747027043E+02  0.23758656075E+03  0.23901861942E+03  0.00000000000E+00 0.  1.
         -1    1    1    2    0  503 -0.44291288616E+01 -0.25747027043E+02  0.70174332523E+02  0.74879660316E+02  0.00000000000E+00 0. -1.
<mgrwt>
<rscale>  2 0.26125210E+02</rscale>
<asrwt>0</asrwt>
<pdfrwt beam="1">  1       21 0.47819911E-01 0.26125210E+02</pdfrwt>
<pdfrwt beam="2">  1       21 0.47210690E-03 0.26125210E+02</pdfrwt>
<totfact> 0.39241723E+07</totfact>
</mgrwt>
</event>
<event>
 4    1  0.7595771E+004  0.3202474E+02  0.7546771E-02  0.1576729E+00
         21   -1    0    0  503  502  0.00000000000E+00  0.00000000000E+00  0.62978548363E+02  0.62978548363E+02  0.00000000000E+00 0. -1.
         21   -1    0    0  501  503 -0.00000000000E+00 -0.00000000000E+00 -0.16385279981E+02  0.16385279981E+02  0.00000000000E+00 0. -1.
          5    1    1    2  501    0 -0.29977118025E+02 -0.11267505445E+02  0.26406248592E+02  0.41507520388E+02  0.00000000000E+00 0.  1.
         -5    1    1    2    0  502  0.29977118025E+02  0.11267505445E+02  0.20187019790E+02  0.37856307956E+02  0.00000000000E+00 0. -1.
<mgrwt>
<rscale>  2 0.32024745E+02</rscale>
<asrwt>0</asrwt>
<pdfrwt beam="1">  1       21 0.96890073E-02 0.32024745E+02</pdfrwt>
<pdfrwt beam="2">  1       21 0.25208123E-02 0.32024745E+02</pdfrwt>
<totfact> 0.55613866E+07</totfact>
</mgrwt>
</event>
<event>
 4    1  0.7595771E+004  0.2067890E+02  0.7546771E-02  0.1732155E+00
         21   -1    0    0  503  502  0.00000000000E+00  0.00000000000E+00  0.27210656494E+01  0.27210656494E+01  0.00000000000E+00 0. -1.
         21   -1    0    0  501  503 -0.00000000000E+00 -0.00000000000E+00 -0.15723266657E+03  0.15723266657E+03  0.00000000000E+00 0. -1.
          2    1    1    2  501    0  0.12278595801E+02 -0.16638894973E+02 -0.79084425336E+02  0.81743275390E+02  0.00000000000E+00 0.  1.
         -2    1    1    2    0  502 -0.12278595801E+02  0.16638894973E+02 -0.75427175585E+02  0.78210456830E+02  0.00000000000E+00 0. -1.
<mgrwt>
<rscale>  2 0.20678896E+02</rscale>
<asrwt>0</asrwt>
<pdfrwt beam="1">  1       21 0.41862545E-03 0.20678896E+02</pdfrwt>
<pdfrwt beam="2">  1       21 0.24189643E-01 0.20678896E+02</pdfrwt>
<totfact> 0.15561861E+08</totfact>
</mgrwt>
</event>
<event>
 4    1  0.7595771E+004  0.2012808E+02  0.7546771E-02  0.1742793E+00
         21   -1    0    0  501  502  0.00000000000E+00  0.00000000000E+00  0.89960605261E+00  0.89960605261E+00  0.00000000000E+00 0.  1.
         21   -1    0    0  502  503 -0.00000000000E+00 -0.00000000000E+00 -0.54402286152E+03  0.54402286152E+03  0.00000000000E+00 0.  1.
          2    1    1    2  501    0  0.19819257877E+02  0.35123545786E+01 -0.38461871747E+03  0.38514503430E+03  0.00000000000E+00 0.  1.
         -2    1    1    2    0  503 -0.19819257877E+02 -0.35123545786E+01 -0.15850453800E+03  0.15977743327E+03  0.00000000000E+00 0. -1.
<mgrwt>
<rscale>  2 0.20128080E+02</rscale>
<asrwt>0</asrwt>
<pdfrwt beam="1">  1       21 0.13840121E-03 0.20128080E+02</pdfrwt>
<pdfrwt beam="2">  1       21 0.83695654E-01 0.20128080E+02</pdfrwt>
<totfact> 0.70911366E+07</totfact>
</mgrwt>
</event>
<event>
 4    1  0.7595771E+004  0.2507606E+02  0.7546771E-02  0.1659912E+00
         21   -1    0    0  501  502  0.00000000000E+00  0.00000000000E+00  0.18854860454E+03  0.18854860454E+03  0.00000000000E+00 0. -1.
         21   -1    0    0  502  503 -0.00000000000E+00 -0.00000000000E+00 -0.34284531577E+01  0.34284531577E+01  0.00000000000E+00 0. -1.
          1    1    1    2  501    0 -0.23864530263E+02  0.77001822221E+01  0.10840825428E+03  0.11127065295E+03  0.00000000000E+00 0. -1.
         -1    1    1    2    0  503  0.23864530263E+02 -0.77001822221E+01  0.76711897097E+02  0.80706404747E+02  0.00000000000E+00 0.  1.
<mgrwt>
<rscale>  2 0.25076057E+02</rscale>
<asrwt>0</asrwt>
<pdfrwt beam="1">  1       21 0.29007470E-01 0.25076057E+02</pdfrwt>
<pdfrwt beam="2">  1       21 0.52745448E-03 0.25076057E+02</pdfrwt>
<totfact> 0.84321233E+07</totfact>
</mgrwt>
</event>
<event>
 4    1  0.7595771E+004  0.3629425E+02  0.7546771E-02  0.1537399E+00
         21   -1    0    0  503  502  0.00000000000E+00  0.00000000000E+00  0.23235453481E+03  0.23235453481E+03  0.00000000000E+00 0.  1.
         21   -1    0    0  501  503 -0.00000000000E+00 -0.00000000000E+00 -0.56692917605E+01  0.56692917605E+01  0.00000000000E+00 0.  1.
          1    1    1    2  501    0 -0.35074800653E+02  0.93290233746E+01  0.11372123298E+03  0.11937248907E+03  0.00000000000E+00 0.  1.
         -1    1    1    2    0  502  0.35074800653E+02 -0.93290233746E+01  0.11296401007E+03  0.11865133749E+03  0.00000000000E+00 0. -1.
<mgrwt>
<rscale>  2 0.36294246E+02</rscale>
<asrwt>0</asrwt>
<pdfrwt beam="1">  1       21 0.35746844E-01 0.36294246E+02</pdfrwt>
<pdfrwt beam="2">  1       21 0.87219891E-03 0.36294246E+02</pdfrwt>
<totfact> 0.29081509E+07</totfact>
</mgrwt>
</event>
<event>
 4    1  0.7595771E+004  0.4097604E+02  0.7546771E-02  0.1501149E+00
         21   -1    0    0  503  502  0.00000000000E+00  0.00000000000E+00  0.53049209144E+01  0.53049209144E+01  0.00000000000E+00 0. -1.
         21   -1    0    0  501  503 -0.00000000000E+00 -0.00000000000E+00 -0.32515211666E+03  0.32515211666E+03  0.00000000000E+00 0. -1.
          1    1    1    2  501    0 -0.13740707984E+01  0.40952999356E+02 -0.18686789172E+03  0.19130772379E+03  0.00000000000E+00 0. -1.
         -1    1    1    2    0  502  0.13740707984E+01 -0.40952999356E+02 -0.13297930403E+03  0.13914931378E+03  0.00000000000E+00 0.  1.
<mgrwt>
<rscale>  2 0.40976045E+02</rscale>
<asrwt>0</asrwt>
<pdfrwt beam="1">  1       21 0.81614175E-03 0.40976045E+02</pdfrwt>
<pdfrwt beam="2">  1       21 0.50023398E-01 0.40976045E+02</pdfrwt>
<totfact> 0.17085743E+07</totfact>
</mgrwt>
</event>
<event>
 4    1  0.7595771E+004  0.2032454E+02  0.7546771E-02  0.1738950E+00
         21   -1    0    0  501  502  0.00000000000E+00  0.00000000000E+00  0.49583852459E+03  0.49583852459E+03  0.00000000000E+00 0. -1.
         21   -1    0    0  502  503 -0.00000000000E+00 -0.00000000000E+00 -0.84221284440E+00  0.84221284440E+00  0.00000000000E+00 0. -1.
          4    1    1    2  501    0  0.11796529210E+02  0.16550790558E+02  0.22167640179E+03  0.22260618563E+03  0.00000000000E+00 0.  1.
         -4    1    1    2    0  503 -0.11796529210E+02 -0.16550790558E+02  0.27331990996E+03  0.27407455181E+03  0.00000000000E+00 0. -1.
<mgrwt>
<rscale>  2 0.20324536E+02</rscale>
<asrwt>0</asrwt>
<pdfrwt beam="1">  1       21 0.76282617E-01 0.20324536E+02</pdfrwt>
<pdfrwt beam="2">  1       21 0.12957160E-03 0.20324536E+02</pdfrwt>
<totfact> 0.94754119E+07</totfact>
</mgrwt>
</event>
<event>
 4    1  0.7595771E+004  0.2465728E+02  0.7546771E-02  0.1665974E+00
         21   -1    0    0  501  502  0.00000000000E+00  0.00000000000E+00  0.63324414654E+02  0.63324414654E+02  0.00000000000E+00 0.  1.
         21   -1    0    0  502  503 -0.00000000000E+00 -0.00000000000E+00 -0.96585552883E+01  0.96585552883E+01  0.00000000000E+00 0.  1.
          1    1    1    2  501    0 -0.23798091167E+02  0.64523035956E+01  0.24017401299E+02  0.34421169795E+02  0.00000000000E+00 0.  1.
         -1    1    1    2    0  503  0.23798091167E+02 -0.64523035956E+01  0.29648458066E+02  0.38561800147E+02  0.00000000000E+00 0. -1.
<mgrwt>
<rscale>  2 0.24657278E+02</rscale>
<asrwt>0</asrwt>
<pdfrwt beam="1">  1       21 0.97422174E-02 0.24657278E+02</pdfrwt>
<pdfrwt beam="2">  1       21 0.14859316E-02 0.24657278E+02</pdfrwt>
<totfact> 0.11688590E+08</totfact>
</mgrwt>
</event>
<event>
 4    1  0.7595771E+004  0.2285051E+02  0.7546771E-02  0.1693945E+00
         21   -1    0    0  503  502  0.00000000000E+00  0.00000000000E+00  0.75516821948E+03  0.75516821948E+03  0.00000000000E+00 0.  1.
         21   -1    0    0  501  503 -0.00000000000E+00 -0.00000000000E+00 -0.70708533160E+00  0.70708533160E+00  0.00000000000E+00 0.  1.
          5    1    1    2  501    0  0.15963914438E+02  0.16349292234E+02  0.43346678953E+03  0.43406866225E+03  0.00000000000E+00 0.  1.
         -5    1    1    2    0  502 -0.15963914438E+02 -0.16349292234E+02  0.32099434462E+03  0.32180664257E+03  0.00000000000E+00 0. -1.
<mgrwt>
<rscale>  2 0.22850512E+02</rscale>
<asrwt>0</asrwt>
<pdfrwt beam="1">  1       21 0.11617908E+00 0.22850512E+02</pdfrwt>
<pdfrwt beam="2">  1       21 0.10878296E-03 0.22850512E+02</pdfrwt>
<totfact> 0.50477213E+07</totfact>
</mgrwt>
</event>
<event>
 4    1  0.7595771E+004  0.2053946E+02  0.7546771E-02  0.1734808E+00
         21   -1    0    0  501  502  0.00000000000E+00  0.00000000000E+00  0.27109680039E+02  0.27109680039E+02  0.00000000000E+00 0. -1.
         21   -1    0    0  502  503 -0.00000000000E+00 -0.00000000000E+00 -0.16403607115E+02  0.16403607115E+02  0.00000000000E+00 0. -1.
          4    1    1    2  501    0  0.17257359891E+02  0.11137909594E+02  0.42374134541E+00  0.20543832584E+02  0.00000000000E+00 0.  1.
         -4    1    1    2    0  503 -0.17257359891E+02 -0.11137909594E+02  0.10282331578E+02  0.22969454569E+02  0.00000000000E+00 0. -1.
<mgrwt>
<rscale>  2 0.20539462E+02</rscale>
<asrwt>0</asrwt>
<pdfrwt beam="1">  1       21 0.41707200E-02 0.20539462E+02</pdfrwt>
<pdfrwt beam="2">  1       21 0.25236319E-02 0.20539462E+02</pdfrwt>
<totfact> 0.19275800E+08</totfact>
</mgrwt>
</event>
<event>
 4    1  0.7595771E+004  0.2203259E+02  0.7546771E-02  0.1707689E+00
         21   -1    0    0  501  502  0.00000000000E+00  0.00000000000E+00  0.23739525147E+02  0.23739525147E+02  0.00000000000E+00 0.  1.
         21   -1    0    0  502  503 -0.00000000000E+00 -0.00000000000E+00 -0.25632300189E+02  0.25632300189E+02  0.00000000000E+00 0.  1.
          2    1    1    2  501    0 -0.16379158235E+02  0.14736294810E+02  0.10155169253E+02  0.24260310628E+02  0.00000000000E+00 0. -1.
         -2    1    1    2    0  503  0.16379158235E+02 -0.14736294810E+02 -0.12047944294E+02  0.25111514708E+02  0.00000000000E+00 0.  1.
<mgrwt>
<rscale>  2 0.22032594E+02</rscale>
<asrwt>0</asrwt>
<pdfrwt beam="1">  1       21 0.36522346E-02 0.22032594E+02</pdfrwt>
<pdfrwt beam="2">  1       21 0.39434308E-02 0.22032594E+02</pdfrwt>
<totfact> 0.12115703E+08</totfact>
</mgrwt>
</event>
<event>
 4    1  0.7595771E+004  0.2574994E+02  0.7546771E-02  0.1650458E+00
         21   -1    0    0  501  502  0.00000000000E+00  0.00000000000E+00  0.65328947277E+03  0.65328947277E+03  0.00000000000E+00 0. -1.
         21   -1    0    0  502  503 -0.00000000000E+00 -0.00000000000E+00 -0.10286952533E+01  0.10286952533E+01  0.00000000000E+00 0. -1.
          1    1    1    2  501    0 -0.71568568091E+00 -0.25739994932E+02  0.28832010973E+03  0.28946769288E+03  0.00000000000E+00 0.  1.
         -1    1    1    2    0  503  0.71568568091E+00  0.25739994932E+02  0.36394066778E+03  0.36485047514E+03  0.00000000000E+00 0. -1.
<mgrwt>
<rscale>  2 0.25749943E+02</rscale>
<asrwt>0</asrwt>
<pdfrwt beam="1">  1       21 0.10050574E+00 0.25749943E+02</pdfrwt>
<pdfrwt beam="2">  1       21 0.15826133E-03 0.25749943E+02</pdfrwt>
<totfact> 0.41728279E+07</totfact>
</mgrwt>
</event>
<event>
 4    1  0.7595771E+004  0.3496616E+02  0.7546771E-02  0.1548901E+00
         21   -1    0    0  503  502  0.00000000000E+00  0.00000000000E+00  0.19210793982E+02  0.19210793982E+02  0.00000000000E+00 0. -1.
         21   -1    0    0  501  503 -0.00000000000E+00 -0.00000000000E+00 -0.82326694114E+02  0.82326694114E+02  0.00000000000E+00 0. -1.
          5    1    1    2  501    0  0.34676626310E+02  0.44903895776E+01 -0.55743601464E+02  0.65802592008E+02  0.00000000000E+00 0. -1.
         -5    1    1    2    0  502 -0.34676626310E+02 -0.44903895776E+01 -0.73722986672E+01  0.35734896088E+02  0.00000000000E+00 0.  1.
<mgrwt>
<rscale>  2 0.34966155E+02</rscale>
<asrwt>0</asrwt>
<pdfrwt beam="1">  1       21 0.29555067E-02 0.34966155E+02</pdfrwt>
<pdfrwt beam="2">  1       21 0.12665645E-01 0.34966155E+02</pdfrwt>
<totfact> 0.28029566E+07</totfact>
</mgrwt>
</event>
<event>
 4    1  0.7595771E+004  0.2335019E+02  0.7546771E-02  0.1685896E+00
         21   -1    0    0  503  502  0.00000000000E+00  0.00000000000E+00  0.27955247045E+02  0.27955247045E+02  0.00000000000E+00 0.  1.
         21   -1    0    0  501  503 -0.00000000000E+00 -0.00000000000E+00 -0.22291713383E+02  0.22291713383E+02  0.00000000000E+00 0.  1.
          4    1    1    2  501    0 -0.14321007119E+02 -0.18442889125E+02 -0.60531564841E+01  0.24122025363E+02  0.00000000000E+00 0.  1.
         -4    1    1    2    0  502  0.14321007119E+02  0.18442889125E+02  0.11716690145E+02  0.26124935065E+02  0.00000000000E+00 0. -1.
<mgrwt>
<rscale>  2 0.23350191E+02</rscale>
<asrwt>0</asrwt>
<pdfrwt beam="1">  1       21 0.43008073E-02 0.23350191E+02</pdfrwt>
<pdfrwt beam="2">  1       21 0.34294944E-02 0.23350191E+02</pdfrwt>
<totfact> 0.11864302E+08</totfact>
</mgrwt>
</event>
<event>
 4    1  0.7595771E+004  0.2072967E+02  0.7546771E-02  0.1731195E+00
         21   -1    0    0  503  502  0.00000000000E+00  0.00000000000E+00  0.71102564866E+02  0.71102564866E+02  0.00000000000E+00 0.  1.
         21   -1    0    0  501  503 -0.00000000000E+00 -0.00000000000E+00 -0.61842313662E+01  0.61842313662E+01  0.00000000000E+00 0.  1.
          1    1    1    2  501    0  0.11754074178E+02 -0.17075154407E+02  0.26632861327E+02  0.33749495704E+02  0.00000000000E+00 0. -1.
         -1    1    1    2    0  502 -0.11754074178E+02  0.17075154407E+02  0.38285472172E+02  0.43537300528E+02  0.00000000000E+00 0.  1.
<mgrwt>
<rscale>  2 0.20729669E+02</rscale>
<asrwt>0</asrwt>
<pdfrwt beam="1">  1       21 0.10938856E-01 0.20729669E+02</pdfrwt>
<pdfrwt beam="2">  1       21 0.95142026E-03 0.20729669E+02</pdfrwt>
<totfact> 0.17949191E+08</totfact>
</mgrwt>
</event>
<event>
 4    1  0.7595771E+004  0.2304488E+02  0.7546771E-02  0.1690784E+00
         21   -1    0    0  501  502  0.00000000000E+00  0.00000000000E+00  0.36581935909E+02  0.36581935909E+02  0.00000000000E+00 0. -1.
         21   -1    0    0  502  503 -0.00000000000E+00 -0.00000000000E+00 -0.14560319893E+02  0.14560319893E+02  0.00000000000E+00 0. -1.
          5    1    1    2  501    0  0.18713436987E+02 -0.13448938103E+02  0.96189702976E+01  0.24971809096E+02  0.00000000000E+00 0.  1.
         -5    1    1    2    0  503 -0.18713436987E+02  0.13448938103E+02  0.12402645719E+02  0.26170446706E+02  0.00000000000E+00 0. -1.
<mgrwt>
<rscale>  2 0.23044884E+02</rscale>
<asrwt>0</asrwt>
<pdfrwt beam="1">  1       21 0.56279901E-02 0.23044884E+02</pdfrwt>
<pdfrwt beam="2">  1       21 0.22400492E-02 0.23044884E+02</pdfrwt>
<totfact> 0.14926140E+08</totfact>
</mgrwt>
</event>
<event>
 4    1  0.7595771E+004  0.3574570E+02  0.7546771E-02  0.1542077E+00
         21   -1    0    0  503  502  0.00000000000E+00  0.00000000000E+00  0.11365655745E+03  0.11365655745E+03  0.00000000000E+00 0.  1.
         21   -1    0    0  501  503 -0.00000000000E+00 -0.00000000000E+00 -0.12911214062E+02  0.12911214062E+02  0.00000000000E+00 0.  1.
          2    1    1    2  501    0 -0.31428089681E+02  0.17030276038E+02  0.73125398098E+02  0.81394588087E+02  0.00000000000E+00 0. -1.
         -2    1    1    2    0  502  0.31428089681E+02 -0.17030276038E+02  0.27619945290E+02  0.45173183425E+02  0.00000000000E+00 0.  1.
<mgrwt>
<rscale>  2 0.35745701E+02</rscale>
<asrwt>0</asrwt>
<pdfrwt beam="1">  1       21 0.17485624E-01 0.35745701E+02</pdfrwt>
<pdfrwt beam="2">  1       21 0.19863407E-02 0.35745701E+02</pdfrwt>
<totfact> 0.30034869E+07</totfact>
</mgrwt>
</event>
<event>
 4    1  0.7595771E+004  0.2335482E+02  0.7546771E-02  0.1685822E+00
         21   -1    0    0  501  502  0.00000000000E+00  0.00000000000E+00  0.48893040241E+03  0.48893040241E+03  0.00000000000E+00 0. -1.
         21   -1    0    0  502  503 -0.00000000000E+00 -0.00000000000E+00 -0.11648801998E+01  0.11648801998E+01  0.00000000000E+00 0. -1.
          2    1    1    2  501    0 -0.63213407392E+00 -0.23346261854E+02  0.29428793887E+03  0.29521320854E+03  0.00000000000E+00 0. -1.
         -2    1    1    2    0  503  0.63213407392E+00  0.23346261854E+02  0.19347758334E+03  0.19488207407E+03  0.00000000000E+00 0.  1.
<mgrwt>
<rscale>  2 0.23354818E+02</rscale>
<asrwt>0</asrwt>
<pdfrwt beam="1">  1       21 0.75219898E-01 0.23354818E+02</pdfrwt>
<pdfrwt beam="2">  1       21 0.17921273E-03 0.23354818E+02</pdfrwt>
<totfact> 0.63432572E+07</totfact>
</mgrwt>
</event>
<event>
 4    1  0.7595771E+004  0.3419286E+02  0.7546771E-02  0.1555887E+00
         21   -1    0    0  501  502  0.00000000000E+00  0.00000000000E+00  0.22611381469E+02  0.22611381469E+02  0.00000000000E+00 0.  1.
         21   -1    0    0  502  503 -0.00000000000E+00 -0.00000000000E+00 -0.51923064120E+02  0.51923064120E+02  0.00000000000E+00 0.  1.
          4    1    1    2  501    0 -0.17871230393E+01 -0.34146126556E+02 -0.12248149130E+02  0.36320365150E+02  0.00000000000E+00 0. -1.
         -4    1    1    2    0  503  0.17871230393E+01  0.34146126556E+02 -0.17063533522E+02  0.38214080439E+02  0.00000000000E+00 0.  1.
<mgrwt>
<rscale>  2 0.34192861E+02</rscale>
<asrwt>0</asrwt>
<pdfrwt beam="1">  1       21 0.34786741E-02 0.34192861E+02</pdfrwt>
<pdfrwt beam="2">  1       21 0.79881636E-02 0.34192861E+02</pdfrwt>
<totfact> 0.46791265E+07</totfact>
</mgrwt>
</event>
<event>
 4    1  0.7595771E+004  0.2090068E+02  0.7546771E-02  0.1727988E+00
         21   -1    0    0  503  502  0.00000000000E+00  0.00000000000E+00  0.39640620493E+02  0.39640620493E+02  0.00000000000E+00 0. -1.
         21   -1    0    0  501  503 -0.00000000000E+00 -0.00000000000E+00 -0.11770976894E+02  0.11770976894E+02  0.00000000000E+00 0. -1.
          1    1    1    2  501    0 -0.16486737727E+01  0.20835555303E+02  0.74418052666E+01  0.22186008104E+02  0.00000000000E+00 0. -1.
         -1    1    1    2    0  502  0.16486737727E+01 -0.20835555303E+02  0.20427838333E+02  0.29225589283E+02  0.00000000000E+00 0.  1.
<mgrwt>
<rscale>  2 0.20900682E+02</rscale>
<asrwt>0</asrwt>
<pdfrwt beam="1">  1       21 0.60985569E-02 0.20900682E+02</pdfrwt>
<pdfrwt beam="2">  1       21 0.18109195E-02 0.20900682E+02</pdfrwt>
<totfact> 0.17639381E+08</totfact>
</mgrwt>
</event>
<event>
 4    1  0.7595771E+004  0.2342371E+02  0.7546771E-02  0.1684733E+00
         21   -1    0    0  501  502  0.00000000000E+00  0.00000000000E+00  0.76149297001E+00  0.76149297001E+00  0.00000000000E+00 0. -1.
         21   -1    0    0  502  503 -0.00000000000E+00 -0.00000000000E+00 -0.72401897709E+03  0.72401897709E+03  0.00000000000E+00 0. -1.
          5    1    1    2  501    0  0.22251134181E+02  0.73182772690E+01 -0.38682488195E+03  0.38753343010E+03  0.00000000000E+00 0. -1.
         -5    1    1    2    0  503 -0.22251134181E+02 -0.73182772690E+01 -0.33643260217E+03  0.33724703995E+03  0.00000000000E+00 0.  1.
<mgrwt>
<rscale>  2 0.23423709E+02</rscale>
<asrwt>0</asrwt>
<pdfrwt beam="1">  1       21 0.11715330E-03 0.23423709E+02</pdfrwt>
<pdfrwt beam="2">  1       21 0.11138703E+00 0.23423709E+02</pdfrwt>
<totfact> 0.50161062E+07</totfact>
</mgrwt>
</event>
<event>
 4    1  0.7595771E+004  0.3708366E+02  0.7546771E-02  0.1530839E+00
         21   -1    0    0  501  502  0.00000000000E+00  0.00000000000E+00  0.13396134318E+04  0.13396134318E+04  0.00000000000E+00 0.  1.
         21   -1    0    0  502  503 -0.00000000000E+00 -0.00000000000E+00 -0.10521532191E+01  0.10521532191E+01  0.00000000000E+00 0.  1.
          2    1    1    2  501    0 -0.19157852729E+01  0.37034141620E+02  0.56473977097E+03  0.56595601136E+03  0.00000000000E+00 0.  1.
         -2    1    1    2    0  503  0.19157852729E+01 -0.37034141620E+02  0.77382150766E+03  0.77470957371E+03  0.00000000000E+00 0. -1.
<mgrwt>
<rscale>  2 0.37083661E+02</rscale>
<asrwt>0</asrwt>
<pdfrwt beam="1">  1       21 0.20609301E+00 0.37083661E+02</pdfrwt>
<pdfrwt beam="2">  1       21 0.16187080E-03 0.37083661E+02</pdfrwt>
<totfact> 0.75072730E+06</totfact>
</mgrwt>
</event>
<event>
 4    1  0.7595771E+004  0.8813520E+02  0.7546771E-02  0.1307431E+00
         21   -1    0    0  503  502  0.00000000000E+00  0.00000000000E+00  0.48446094493E+03  0.48446094493E+03  0.00000000000E+00 0. -1.
         21   -1    0    0  501  503 -0.00000000000E+00 -0.00000000000E+00 -0.16364882246E+02  0.16364882246E+02  0.00000000000E+00 0. -1.
          3    1    1    2  501    0 -0.59950605880E+02 -0.64604469639E+02  0.26965895717E+03  0.28369660877E+03  0.00000000000E+00 0.  1.
         -3    1    1    2    0  502  0.59950605880E+02  0.64604469639E+02  0.19843710551E+03  0.21712921841E+03  0.00000000000E+00 0. -1.
<mgrwt>
<rscale>  2 0.88135195E+02</rscale>
<asrwt>0</asrwt>
<pdfrwt beam="1">  1       21 0.74532442E-01 0.88135195E+02</pdfrwt>
<pdfrwt beam="2">  1       21 0.25176746E-02 0.88135195E+02</pdfrwt>
<totfact> 0.13553032E+06</totfact>
</mgrwt>
</event>
<event>
 4    1  0.7595771E+004  0.3108137E+02  0.7546771E-02  0.1586434E+00
         21   -1    0    0  501  502  0.00000000000E+00  0.00000000000E+00  0.70832858696E+01  0.70832858696E+01  0.00000000000E+00 0. -1.
         21   -1    0    0  502  503 -0.00000000000E+00 -0.00000000000E+00 -0.15410636237E+03  0.15410636237E+03  0.00000000000E+00 0. -1.
          2    1    1    2  501    0  0.26480169214E+02 -0.16274272820E+02 -0.46180888102E+02  0.55666199289E+02  0.00000000000E+00 0.  1.
         -2    1    1    2    0  503 -0.26480169214E+02  0.16274272820E+02 -0.10084218840E+03  0.10552344895E+03  0.00000000000E+00 0. -1.
<mgrwt>
<rscale>  2 0.31081366E+02</rscale>
<asrwt>0</asrwt>
<pdfrwt beam="1">  1       21 0.10897363E-02 0.31081366E+02</pdfrwt>
<pdfrwt beam="2">  1       21 0.23708672E-01 0.31081366E+02</pdfrwt>
<totfact> 0.42895973E+07</totfact>
</mgrwt>
</event>
<event>
 4    1  0.7595771E+004  0.2043355E+02  0.7546771E-02  0.1736841E+00
         21   -1    0    0  501  502  0.00000000000E+00  0.00000000000E+00  0.31548920583E+02  0.31548920583E+02  0.00000000000E+00 0. -1.
         21   -1    0    0  502  503 -0.00000000000E+00 -0.00000000000E+00 -0.52142278680E+02  0.52142278680E+02  0.00000000000E+00 0. -1.
          2    1    1    2  501    0  0.10288241322E+02  0.17654521652E+02 -0.46443802638E+02  0.50740091129E+02  0.00000000000E+00 0. -1.
         -2    1    1    2    0  503 -0.10288241322E+02 -0.17654521652E+02  0.25850444542E+02  0.32951108134E+02  0.00000000000E+00 0.  1.
<mgrwt>
<rscale>  2 0.20433552E+02</rscale>
<asrwt>0</asrwt>
<pdfrwt beam="1">  1       21 0.48536801E-02 0.20433552E+02</pdfrwt>
<pdfrwt beam="2">  1       21 0.80218891E-02 0.20433552E+02</pdfrwt>
<totfact> 0.24418887E+07</totfact>
</mgrwt>
</event>
<event>
 4    1  0.7595771E+004  0.2887357E+02  0.7546771E-02  0.1610884E+00
         21   -1    0    0  503  502  0.00000000000E+00  0.00000000000E+00  0.20862400850E+01  0.20862400850E+01  0.00000000000E+00 0.  1.
         21   -1    0    0  501  503 -0.00000000000E+00 -0.00000000000E+00 -0.47854201988E+03  0.47854201988E+03  0.00000000000E+00 0.  1.
          3    1    1    2  501    0  0.28870989585E+02 -0.38576363331E+00 -0.33582686994E+03  0.33706582358E+03  0.00000000000E+00 0. -1.
         -3    1    1    2    0  502 -0.28870989585E+02  0.38576363331E+00 -0.14062890985E+03  0.14356243638E+03  0.00000000000E+00 0.  1.
<mgrwt>
<rscale>  2 0.28873567E+02</rscale>
<asrwt>0</asrwt>
<pdfrwt beam="1">  1       21 0.32095993E-03 0.28873567E+02</pdfrwt>
<pdfrwt beam="2">  1       21 0.73621869E-01 0.28873567E+02</pdfrwt>
<totfact> 0.29675347E+07</totfact>
</mgrwt>
</event>
<event>
 4    1  0.7595771E+004  0.8967457E+02  0.7546771E-02  0.1303642E+00
         21   -1    0    0  503  502  0.00000000000E+00  0.00000000000E+00  0.16450184431E+03  0.16450184431E+03  0.00000000000E+00 0. -1.
         21   -1    0    0  501  503 -0.00000000000E+00 -0.00000000000E+00 -0.67228668879E+02  0.67228668879E+02  0.00000000000E+00 0. -1.
          5    1    1    2  501    0 -0.43238607365E+02 -0.78561771044E+02 -0.11887661066E+02  0.90459082032E+02  0.00000000000E+00 0.  1.
         -5    1    1    2    0  502  0.43238607365E+02  0.78561771044E+02  0.10916083650E+03  0.14127143116E+03  0.00000000000E+00 0. -1.
<mgrwt>
<rscale>  2 0.89674573E+02</rscale>
<asrwt>0</asrwt>
<pdfrwt beam="1">  1       21 0.25307976E-01 0.89674573E+02</pdfrwt>
<pdfrwt beam="2">  1       21 0.10342872E-01 0.89674573E+02</pdfrwt>
<totfact> 0.11241291E+06</totfact>
</mgrwt>
</event>
<event>
 4    1  0.7595771E+004  0.2168111E+02  0.7546771E-02  0.1713826E+00
         21   -1    0    0  503  502  0.00000000000E+00  0.00000000000E+00  0.20319253531E+00  0.20319253531E+00  0.00000000000E+00 0. -1.
         21   -1    0    0  501  503 -0.00000000000E+00 -0.00000000000E+00 -0.23263910703E+04  0.23263910703E+04  0.00000000000E+00 0. -1.
          2    1    1    2  501    0  0.51131522427E+01  0.21069559178E+02 -0.10762465276E+04  0.10764648897E+04  0.00000000000E+00 0. -1.
         -2    1    1    2    0  502 -0.51131522427E+01 -0.21069559178E+02 -0.12499413502E+04  0.12501293732E+04  0.00000000000E+00 0.  1.
<mgrwt>
<rscale>  2 0.21681113E+02</rscale>
<asrwt>0</asrwt>
<pdfrwt beam="1">  1       21 0.31261116E-04 0.21681113E+02</pdfrwt>
<pdfrwt beam="2">  1       21 0.35789800E+00 0.21681113E+02</pdfrwt>
<totfact> 0.13050006E+07</totfact>
</mgrwt>
</event>
<event>
 4    1  0.7595771E+004  0.2733301E+02  0.7546771E-02  0.1629589E+00
         21   -1    0    0  503  502  0.00000000000E+00  0.00000000000E+00  0.23795272975E+02  0.23795272975E+02  0.00000000000E+00 0.  1.
         21   -1    0    0  501  503 -0.00000000000E+00 -0.00000000000E+00 -0.33650243093E+02  0.33650243093E+02  0.00000000000E+00 0.  1.
          3    1    1    2  501    0 -0.47641640228E+01  0.26914604473E+02  0.25055191749E+01  0.27447601336E+02  0.00000000000E+00 0. -1.
         -3    1    1    2    0  502  0.47641640228E+01 -0.26914604473E+02 -0.12360489292E+02  0.29997914732E+02  0.00000000000E+00 0.  1.
<mgrwt>
<rscale>  2 0.27333006E+02</rscale>
<asrwt>0</asrwt>
<pdfrwt beam="1">  1       21 0.36608113E-02 0.27333006E+02</pdfrwt>
<pdfrwt beam="2">  1       21 0.51769604E-02 0.27333006E+02</pdfrwt>
<totfact> 0.83145612E+07</totfact>
</mgrwt>
</event>
<event>
 4    1  0.7595771E+004  0.2315896E+02  0.7546771E-02  0.1688946E+00
         21   -1    0    0  501  502  0.00000000000E+00  0.00000000000E+00  0.34239415834E+01  0.34239415834E+01  0.00000000000E+00 0. -1.
         21   -1    0    0  502  503 -0.00000000000E+00 -0.00000000000E+00 -0.16255072644E+03  0.16255072644E+03  0.00000000000E+00 0. -1.
          5    1    1    2  501    0  0.15062102689E+02  0.17591779761E+02 -0.95383701780E+02  0.98154919479E+02  0.00000000000E+00 0.  1.
         -5    1    1    2    0  503 -0.15062102689E+02 -0.17591779761E+02 -0.63743083081E+02  0.67819748549E+02  0.00000000000E+00 0. -1.
<mgrwt>
<rscale>  2 0.23158965E+02</rscale>
<asrwt>0</asrwt>
<pdfrwt beam="1">  1       21 0.52676027E-03 0.23158965E+02</pdfrwt>
<pdfrwt beam="2">  1       21 0.25007803E-01 0.23158965E+02</pdfrwt>
<totfact> 0.10808540E+08</totfact>
</mgrwt>
</event>
<event>
 4    1  0.7595771E+004  0.2000091E+02  0.7546771E-02  0.1745310E+00
         21   -1    0    0  501  502  0.00000000000E+00  0.00000000000E+00  0.35961578599E+01  0.35961578599E+01  0.00000000000E+00 0. -1.
         21   -1    0    0  502  503 -0.00000000000E+00 -0.00000000000E+00 -0.16665429517E+03  0.16665429517E+03  0.00000000000E+00 0. -1.
          5    1    1    2  501    0 -0.19839996621E+02  0.25319835229E+01 -0.32442673067E+02  0.38112510311E+02  0.00000000000E+00 0. -1.
         -5    1    1    2    0  503  0.19839996621E+02 -0.25319835229E+01 -0.13061546424E+03  0.13213794272E+03  0.00000000000E+00 0.  1.
<mgrwt>
<rscale>  2 0.20000910E+02</rscale>
<asrwt>0</asrwt>
<pdfrwt beam="1">  1       21 0.55325519E-03 0.20000910E+02</pdfrwt>
<pdfrwt beam="2">  1       21 0.25639116E-01 0.20000910E+02</pdfrwt>
<totfact> 0.92326992E+07</totfact>
</mgrwt>
</event>
<event>
 4    1  0.7595771E+004  0.2185373E+02  0.7546771E-02  0.1710794E+00
         21   -1    0    0  501  502  0.00000000000E+00  0.00000000000E+00  0.51809790443E+00  0.51809790443E+00  0.00000000000E+00 0. -1.
         21   -1    0    0  502  503 -0.00000000000E+00 -0.00000000000E+00 -0.11681434883E+04  0.11681434883E+04  0.00000000000E+00 0. -1.
          5    1    1    2  501    0 -0.21620693784E+02  0.31829477178E+01 -0.31547834359E+03  0.31623436061E+03  0.00000000000E+00 0.  1.
         -5    1    1    2    0  503  0.21620693784E+02 -0.31829477178E+01 -0.85214704680E+03  0.85242722559E+03  0.00000000000E+00 0. -1.
<mgrwt>
<rscale>  2 0.21853731E+02</rscale>
<asrwt>0</asrwt>
<pdfrwt beam="1">  1       21 0.79707699E-04 0.21853731E+02</pdfrwt>
<pdfrwt beam="2">  1       21 0.17971364E+00 0.21853731E+02</pdfrwt>
<totfact> 0.27886858E+07</totfact>
</mgrwt>
</event>
<event>
 4    1  0.7595771E+004  0.2872475E+02  0.7546771E-02  0.1612628E+00
         21   -1    0    0  501  502  0.00000000000E+00  0.00000000000E+00  0.20207844996E+02  0.20207844996E+02  0.00000000000E+00 0. -1.
         21   -1    0    0  502  503 -0.00000000000E+00 -0.00000000000E+00 -0.41566130916E+02  0.41566130916E+02  0.00000000000E+00 0. -1.
          4    1    1    2  501    0 -0.18106334925E+02 -0.22299596794E+02 -0.14786070232E+02  0.32306953656E+02  0.00000000000E+00 0. -1.
         -4    1    1    2    0  503  0.18106334925E+02  0.22299596794E+02 -0.65722156880E+01  0.29467022256E+02  0.00000000000E+00 0.  1.
<mgrwt>
<rscale>  2 0.28724752E+02</rscale>
<asrwt>0</asrwt>
<pdfrwt beam="1">  1       21 0.31088992E-02 0.28724752E+02</pdfrwt>
<pdfrwt beam="2">  1       21 0.63947893E-02 0.28724752E+02</pdfrwt>
<totfact> 0.77437486E+07</totfact>
</mgrwt>
</event>
<event>
 4    1  0.7595771E+004  0.3205405E+02  0.7546771E-02  0.1576434E+00
         21   -1    0    0  503  502  0.00000000000E+00  0.00000000000E+00  0.43169696817E+02  0.43169696817E+02  0.00000000000E+00 0.  1.
         21   -1    0    0  501  503 -0.00000000000E+00 -0.00000000000E+00 -0.57715841377E+02  0.57715841377E+02  0.00000000000E+00 0.  1.
          1    1    1    2  501    0 -0.15969677103E+01  0.32014248200E+02  0.31394704253E+02  0.44867469829E+02  0.00000000000E+00 0.  1.
         -1    1    1    2    0  502  0.15969677103E+01 -0.32014248200E+02 -0.45940848813E+02  0.56018068365E+02  0.00000000000E+00 0. -1.
<mgrwt>
<rscale>  2 0.32054054E+02</rscale>
<asrwt>0</asrwt>
<pdfrwt beam="1">  1       21 0.66414918E-02 0.32054054E+02</pdfrwt>
<pdfrwt beam="2">  1       21 0.88793602E-02 0.32054054E+02</pdfrwt>
<totfact> 0.13679974E+07</totfact>
</mgrwt>
</event>
<event>
 4    1  0.7595771E+004  0.2231010E+02  0.7546771E-02  0.1702943E+00
         21   -1    0    0  501  502  0.00000000000E+00  0.00000000000E+00  0.94713456879E+01  0.94713456879E+01  0.00000000000E+00 0.  1.
         21   -1    0    0  502  503 -0.00000000000E+00 -0.00000000000E+00 -0.55487476767E+02  0.55487476767E+02  0.00000000000E+00 0.  1.
          4    1    1    2  501    0 -0.19896806421E+02  0.10092462494E+02 -0.15537902250E+02  0.27187627908E+02  0.00000000000E+00 0.  1.
         -4    1    1    2    0  503  0.19896806421E+02 -0.10092462494E+02 -0.30478228829E+02  0.37771194547E+02  0.00000000000E+00 0. -1.
<mgrwt>
<rscale>  2 0.22310103E+02</rscale>
<asrwt>0</asrwt>
<pdfrwt beam="1">  1       21 0.14571301E-02 0.22310103E+02</pdfrwt>
<pdfrwt beam="2">  1       21 0.85365351E-02 0.22310103E+02</pdfrwt>
<totfact> 0.14534902E+08</totfact>
</mgrwt>
</event>
<event>
 4    1  0.7595771E+004  0.2326115E+02  0.7546771E-02  0.1687312E+00
         21   -1    0    0  501  502  0.00000000000E+00  0.00000000000E+00  0.32926267831E+01  0.32926267831E+01  0.00000000000E+00 0. -1.
         21   -1    0    0  502  503 -0.00000000000E+00 -0.00000000000E+00 -0.20361308022E+03  0.20361308022E+03  0.00000000000E+00 0. -1.
          4    1    1    2  501    0  0.13822410968E+02  0.18708873994E+02 -0.54720441151E+02  0.59459294403E+02  0.00000000000E+00 0. -1.
         -4    1    1    2    0  503 -0.13822410968E+02 -0.18708873994E+02 -0.14560001229E+03  0.14744641260E+03  0.00000000000E+00 0.  1.
<mgrwt>
<rscale>  2 0.23261148E+02</rscale>
<asrwt>0</asrwt>
<pdfrwt beam="1">  1       21 0.50655809E-03 0.23261148E+02</pdfrwt>
<pdfrwt beam="2">  1       21 0.31325082E-01 0.23261148E+02</pdfrwt>
<totfact> 0.76335090E+07</totfact>
</mgrwt>
</event>
<event>
 4    1  0.7595771E+004  0.2348435E+02  0.7546771E-02  0.1683777E+00
         21   -1    0    0  503  502  0.00000000000E+00  0.00000000000E+00  0.21705938416E+03  0.21705938416E+03  0.00000000000E+00 0. -1.
         21   -1    0    0  501  503 -0.00000000000E+00 -0.00000000000E+00 -0.25814869618E+01  0.25814869618E+01  0.00000000000E+00 0. -1.
          2    1    1    2  501    0  0.23396444246E+02  0.20300114841E+01  0.12101828060E+03  0.12327586459E+03  0.00000000000E+00 0. -1.
         -2    1    1    2    0  502 -0.23396444246E+02 -0.20300114841E+01  0.93459616595E+02  0.96365006533E+02  0.00000000000E+00 0.  1.
<mgrwt>
<rscale>  2 0.23484347E+02</rscale>
<asrwt>0</asrwt>
<pdfrwt beam="1">  1       21 0.33393737E-01 0.23484347E+02</pdfrwt>
<pdfrwt beam="2">  1       21 0.39715201E-03 0.23484347E+02</pdfrwt>
<totfact> 0.97351376E+07</totfact>
</mgrwt>
</event>
<event>
 4    1  0.7595771E+004  0.2453382E+02  0.7546771E-02  0.1667789E+00
         21   -1    0    0  501  502  0.00000000000E+00  0.00000000000E+00  0.93336281577E+02  0.93336281577E+02  0.00000000000E+00 0. -1.
         21   -1    0    0  502  503 -0.00000000000E+00 -0.00000000000E+00 -0.69463474178E+01  0.69463474178E+01  0.00000000000E+00 0. -1.
          3    1    1    2  501    0  0.23513631095E+02 -0.70012649994E+01  0.56614193261E+02  0.61701502717E+02  0.00000000000E+00 0.  1.
         -3    1    1    2    0  503 -0.23513631095E+02  0.70012649994E+01  0.29775740898E+02  0.38581126278E+02  0.00000000000E+00 0. -1.
<mgrwt>
<rscale>  2 0.24533825E+02</rscale>
<asrwt>0</asrwt>
<pdfrwt beam="1">  1       21 0.14359427E-01 0.24533825E+02</pdfrwt>
<pdfrwt beam="2">  1       21 0.10686689E-02 0.24533825E+02</pdfrwt>
<totfact> 0.10033608E+08</totfact>
</mgrwt>
</event>
<event>
 4    1  0.7595771E+004  0.2112223E+02  0.7546771E-02  0.1723890E+00
         21   -1    0    0  501  502  0.00000000000E+00  0.00000000000E+00  0.24517519445E+01  0.24517519445E+01  0.00000000000E+00 0. -1.
         21   -1    0    0  502  503 -0.00000000000E+00 -0.00000000000E+00 -0.19610519558E+03  0.19610519558E+03  0.00000000000E+00 0. -1.
          5    1    1    2  501    0 -0.16814383083E+02  0.12783788706E+02 -0.12347934475E+03  0.12527289137E+03  0.00000000000E+00 0. -1.
         -5    1    1    2    0  503  0.16814383083E+02 -0.12783788706E+02 -0.70174098880E+02  0.73284056149E+02  0.00000000000E+00 0.  1.
<mgrwt>
<rscale>  2 0.21122233E+02</rscale>
<asrwt>0</asrwt>
<pdfrwt beam="1">  1       21 0.37719245E-03 0.21122233E+02</pdfrwt>
<pdfrwt beam="2">  1       21 0.30170043E-01 0.21122233E+02</pdfrwt>
<totfact> 0.12277754E+08</totfact>
</mgrwt>
</event>
<event>
 4    1  0.7595771E+004  0.2111660E+02  0.7546771E-02  0.1723993E+00
         21   -1    0    0  501  502  0.00000000000E+00  0.00000000000E+00  0.84045103082E+01  0.84045103082E+01  0.00000000000E+00 0.  1.
         21   -1    0    0  502  503 -0.00000000000E+00 -0.00000000000E+00 -0.59641096537E+02  0.59641096537E+02  0.00000000000E+00 0.  1.
          2    1    1    2  501    0 -0.20106437733E+02 -0.64530534137E+01 -0.14313196262E+02  0.25510357189E+02  0.00000000000E+00 0.  1.
         -2    1    1    2    0  503  0.20106437733E+02  0.64530534137E+01 -0.36923389966E+02  0.42535249656E+02  0.00000000000E+00 0. -1.
<mgrwt>
<rscale>  2 0.21116599E+02</rscale>
<asrwt>0</asrwt>
<pdfrwt beam="1">  1       21 0.12930016E-02 0.21116599E+02</pdfrwt>
<pdfrwt beam="2">  1       21 0.91755534E-02 0.21116599E+02</pdfrwt>
<totfact> 0.15216668E+08</totfact>
</mgrwt>
</event>
<event>
 4    1  0.7595771E+004  0.2396716E+02  0.7546771E-02  0.1676296E+00
         21   -1    0    0  503  502  0.00000000000E+00  0.00000000000E+00  0.58284538297E+02  0.58284538297E+02  0.00000000000E+00 0.  1.
         21   -1    0    0  501  503 -0.00000000000E+00 -0.00000000000E+00 -0.98678437777E+01  0.98678437777E+01  0.00000000000E+00 0.  1.
          3    1    1    2  501    0  0.28874751033E+01 -0.23792587003E+02  0.25412352610E+02  0.34931538385E+02  0.00000000000E+00 0.  1.
         -3    1    1    2    0  502 -0.28874751033E+01  0.23792587003E+02  0.23004341909E+02  0.33220843689E+02  0.00000000000E+00 0. -1.
<mgrwt>
<rscale>  2 0.23967159E+02</rscale>
<asrwt>0</asrwt>
<pdfrwt beam="1">  1       21 0.89668519E-02 0.23967159E+02</pdfrwt>
<pdfrwt beam="2">  1       21 0.15181298E-02 0.23967159E+02</pdfrwt>
<totfact> 0.12869069E+08</totfact>
</mgrwt>
</event>
<event>
 4    1  0.7595771E+004  0.2187997E+02  0.7546771E-02  0.1710336E+00
         21   -1    0    0  503  502  0.00000000000E+00  0.00000000000E+00  0.10789707365E+04  0.10789707365E+04  0.00000000000E+00 0.  1.
         21   -1    0    0  501  503 -0.00000000000E+00 -0.00000000000E+00 -0.64449052988E+00  0.64449052988E+00  0.00000000000E+00 0.  1.
          1    1    1    2  501    0 -0.79723952409E+01  0.20375823637E+02  0.23785669055E+03  0.23886091877E+03  0.00000000000E+00 0.  1.
         -1    1    1    2    0  502  0.79723952409E+01 -0.20375823637E+02  0.84046955543E+03  0.84075430827E+03  0.00000000000E+00 0. -1.
<mgrwt>
<rscale>  2 0.21879974E+02</rscale>
<asrwt>0</asrwt>
<pdfrwt beam="1">  1       21 0.16599405E+00 0.21879974E+02</pdfrwt>
<pdfrwt beam="2">  1       21 0.99153253E-04 0.21879974E+02</pdfrwt>
<totfact> 0.24860195E+07</totfact>
</mgrwt>
</event>
<event>
 4    1  0.7595771E+004  0.2541227E+02  0.7546771E-02  0.1655150E+00
         21   -1    0    0  501  502  0.00000000000E+00  0.00000000000E+00  0.19868689792E+01  0.19868689792E+01  0.00000000000E+00 0. -1.
         21   -1    0    0  502  503 -0.00000000000E+00 -0.00000000000E+00 -0.43207147899E+03  0.43207147899E+03  0.00000000000E+00 0. -1.
          5    1    1    2  501    0 -0.10351593238E+02  0.23208363484E+02 -0.10701713688E+03  0.10999295979E+03  0.00000000000E+00 0.  1.
         -5    1    1    2    0  503  0.10351593238E+02 -0.23208363484E+02 -0.32306747313E+03  0.32406538817E+03  0.00000000000E+00 0. -1.
<mgrwt>
<rscale>  2 0.25412273E+02</rscale>
<asrwt>0</asrwt>
<pdfrwt beam="1">  1       21 0.30567219E-03 0.25412273E+02</pdfrwt>
<pdfrwt beam="2">  1       21 0.66472528E-01 0.25412273E+02</pdfrwt>
<totfact> 0.38395039E+07</totfact>
</mgrwt>
</event>
<event>
 4    1  0.7595771E+004  0.6890127E+02  0.7546771E-02  0.1363870E+00
         21   -1    0    0  501  502  0.00000000000E+00  0.00000000000E+00  0.98595120141E+02  0.98595120141E+02  0.00000000000E+00 0.  1.
         21   -1    0    0  502  503 -0.00000000000E+00 -0.00000000000E+00 -0.50329533040E+02  0.50329533040E+02  0.00000000000E+00 0.  1.
          1    1    1    2  501    0 -0.64082297616E+02 -0.25314888060E+02  0.39627279724E+02  0.79483996650E+02  0.00000000000E+00 0. -1.
         -1    1    1    2    0  503  0.64082297616E+02  0.25314888060E+02  0.86383073771E+01  0.69440656531E+02  0.00000000000E+00 0.  1.
<mgrwt>
<rscale>  2 0.68901266E+02</rscale>
<asrwt>0</asrwt>
<pdfrwt beam="1">  1       21 0.15168480E-01 0.68901266E+02</pdfrwt>
<pdfrwt beam="2">  1       21 0.77430051E-02 0.68901266E+02</pdfrwt>
<totfact> 0.46281676E+06</totfact>
</mgrwt>
</event>
<event>
 4    1  0.7595771E+004  0.3115814E+02  0.7546771E-02  0.1585629E+00
         21   -1    0    0  503  502  0.00000000000E+00  0.00000000000E+00  0.73207562577E+03  0.73207562577E+03  0.00000000000E+00 0. -1.
         21   -1    0    0  501  503 -0.00000000000E+00 -0.00000000000E+00 -0.16503304779E+01  0.16503304779E+01  0.00000000000E+00 0. -1.
          4    1    1    2  501    0  0.30842667196E+02 -0.44225988454E+01  0.20261158621E+03  0.20499337640E+03  0.00000000000E+00 0. -1.
         -4    1    1    2    0  502 -0.30842667196E+02  0.44225988454E+01  0.52781370908E+03  0.52873257985E+03  0.00000000000E+00 0.  1.
<mgrwt>
<rscale>  2 0.31158137E+02</rscale>
<asrwt>0</asrwt>
<pdfrwt beam="1">  1       21 0.11262676E+00 0.31158137E+02</pdfrwt>
<pdfrwt beam="2">  1       21 0.25389758E-03 0.31158137E+02</pdfrwt>
<totfact> 0.16808565E+07</totfact>
</mgrwt>
</event>
<event>
 4    1  0.7595771E+004  0.2331649E+02  0.7546771E-02  0.1686431E+00
         21   -1    0    0  501  502  0.00000000000E+00  0.00000000000E+00  0.16493009532E+02  0.16493009532E+02  0.00000000000E+00 0. -1.
         21   -1    0    0  502  503 -0.00000000000E+00 -0.00000000000E+00 -0.35209478744E+02  0.35209478744E+02  0.00000000000E+00 0. -1.
          1    1    1    2  501    0 -0.58871300390E+01 -0.22561032407E+02 -0.15888130617E+02  0.28215087770E+02  0.00000000000E+00 0. -1.
         -1    1    1    2    0  503  0.58871300390E+01  0.22561032407E+02 -0.28283385948E+01  0.23487400507E+02  0.00000000000E+00 0.  1.
<mgrwt>
<rscale>  2 0.23316485E+02</rscale>
<asrwt>0</asrwt>
<pdfrwt beam="1">  1       21 0.25373861E-02 0.23316485E+02</pdfrwt>
<pdfrwt beam="2">  1       21 0.54168428E-02 0.23316485E+02</pdfrwt>
<totfact> 0.13135823E+08</totfact>
</mgrwt>
</event>
<event>
 4    1  0.7595771E+004  0.2716381E+02  0.7546771E-02  0.1631736E+00
         21   -1    0    0  501  502  0.00000000000E+00  0.00000000000E+00  0.26358636873E+02  0.26358636873E+02  0.00000000000E+00 0.  1.
         21   -1    0    0  502  503 -0.00000000000E+00 -0.00000000000E+00 -0.36028194183E+02  0.36028194183E+02  0.00000000000E+00 0.  1.
          5    1    1    2  501    0 -0.10789802568E+01  0.27142367665E+02 -0.19565516242E+02  0.33476585051E+02  0.00000000000E+00 0. -1.
         -5    1    1    2    0  503  0.10789802568E+01 -0.27142367665E+02  0.98959589325E+01  0.28910246005E+02  0.00000000000E+00 0.  1.
<mgrwt>
<rscale>  2 0.27163805E+02</rscale>
<asrwt>0</asrwt>
<pdfrwt beam="1">  1       21 0.40551749E-02 0.27163805E+02</pdfrwt>
<pdfrwt beam="2">  1       21 0.55427991E-02 0.27163805E+02</pdfrwt>
<totfact> 0.63260780E+07</totfact>
</mgrwt>
</event>
<event>
 4    1  0.7595771E+004  0.2939126E+02  0.7546771E-02  0.1604917E+00
         21   -1    0    0  501  502  0.00000000000E+00  0.00000000000E+00  0.35241956762E+03  0.35241956762E+03  0.00000000000E+00 0. -1.
         21   -1    0    0  502  503 -0.00000000000E+00 -0.00000000000E+00 -0.31221871513E+01  0.31221871513E+01  0.00000000000E+00 0. -1.
          2    1    1    2  501    0  0.12724647156E+02 -0.26493950226E+02  0.92236271624E+02  0.96805866800E+02  0.00000000000E+00 0.  1.
         -2    1    1    2    0  503 -0.12724647156E+02  0.26493950226E+02  0.25706110884E+03  0.25873588797E+03  0.00000000000E+00 0. -1.
<mgrwt>
<rscale>  2 0.29391258E+02</rscale>
<asrwt>0</asrwt>
<pdfrwt beam="1">  1       21 0.54218364E-01 0.29391258E+02</pdfrwt>
<pdfrwt beam="2">  1       21 0.48033676E-03 0.29391258E+02</pdfrwt>
<totfact> 0.30601402E+07</totfact>
</mgrwt>
</event>
<event>
 4    1  0.7595771E+004  0.2288115E+02  0.7546771E-02  0.1693444E+00
         21   -1    0    0  501  502  0.00000000000E+00  0.00000000000E+00  0.14284532367E+04  0.14284532367E+04  0.00000000000E+00 0.  1.
         21   -1    0    0  502  503 -0.00000000000E+00 -0.00000000000E+00 -0.37372085445E+00  0.37372085445E+00  0.00000000000E+00 0.  1.
          4    1    1    2  501    0  0.22875000430E+02 -0.53065146409E+00  0.81325246100E+03  0.81357428214E+03  0.00000000000E+00 0.  1.
         -4    1    1    2    0  503 -0.22875000430E+02  0.53065146409E+00  0.61482705486E+03  0.61525267543E+03  0.00000000000E+00 0. -1.
<mgrwt>
<rscale>  2 0.22881155E+02</rscale>
<asrwt>0</asrwt>
<pdfrwt beam="1">  1       21 0.21975767E+00 0.22881155E+02</pdfrwt>
<pdfrwt beam="2">  1       21 0.57496660E-04 0.22881155E+02</pdfrwt>
<totfact> 0.26587561E+07</totfact>
</mgrwt>
</event>
<event>
 4    1  0.7595771E+004  0.2890003E+02  0.7546771E-02  0.1610576E+00
         21   -1    0    0  501  502  0.00000000000E+00  0.00000000000E+00  0.57182927726E+02  0.57182927726E+02  0.00000000000E+00 0.  1.
         21   -1    0    0  502  503 -0.00000000000E+00 -0.00000000000E+00 -0.15335149722E+02  0.15335149722E+02  0.00000000000E+00 0.  1.
          5    1    1    2  501    0  0.14923926240E+02 -0.24748503172E+02  0.13017279080E+02  0.31696396299E+02  0.00000000000E+00 0. -1.
         -5    1    1    2    0  503 -0.14923926240E+02  0.24748503172E+02  0.28830498924E+02  0.40821681150E+02  0.00000000000E+00 0.  1.
<mgrwt>
<rscale>  2 0.28900034E+02</rscale>
<asrwt>0</asrwt>
<pdfrwt beam="1">  1       21 0.87973734E-02 0.28900034E+02</pdfrwt>
<pdfrwt beam="2">  1       21 0.23592538E-02 0.28900034E+02</pdfrwt>
<totfact> 0.70760715E+07</totfact>
</mgrwt>
</event>
<event>
 4    1  0.7595771E+004  0.2567441E+02  0.7546771E-02  0.1651500E+00
         21   -1    0    0  501  502  0.00000000000E+00  0.00000000000E+00  0.34730561215E+02  0.34730561215E+02  0.00000000000E+00 0.  1.
         21   -1    0    0  502  503 -0.00000000000E+00 -0.00000000000E+00 -0.19432346466E+02  0.19432346466E+02  0.00000000000E+00 0.  1.
          1    1    1    2  501    0  0.15924866715E+02  0.20138864591E+02  0.35158328773E+01  0.25914017977E+02  0.00000000000E+00 0. -1.
         -1    1    1    2    0  503 -0.15924866715E+02 -0.20138864591E+02  0.11782381872E+02  0.28248889703E+02  0.00000000000E+00 0.  1.
<mgrwt>
<rscale>  2 0.25674408E+02</rscale>
<asrwt>0</asrwt>
<pdfrwt beam="1">  1       21 0.53431632E-02 0.25674408E+02</pdfrwt>
<pdfrwt beam="2">  1       21 0.29895918E-02 0.25674408E+02</pdfrwt>
<totfact> 0.10690120E+08</totfact>
</mgrwt>
</event>
<event>
 4    1  0.7595771E+004  0.2531214E+02  0.7546771E-02  0.1656559E+00
         21   -1    0    0  503  502  0.00000000000E+00  0.00000000000E+00  0.13200562390E+03  0.13200562390E+03  0.00000000000E+00 0. -1.
         21   -1    0    0  501  503 -0.00000000000E+00 -0.00000000000E+00 -0.49609980745E+01  0.49609980745E+01  0.00000000000E+00 0. -1.
          4    1    1    2  501    0 -0.19234296667E+02 -0.16454375926E+02  0.53446841091E+02  0.59137716205E+02  0.00000000000E+00 0. -1.
         -4    1    1    2    0  502  0.19234296667E+02  0.16454375926E+02  0.73597784737E+02  0.77828905771E+02  0.00000000000E+00 0.  1.
<mgrwt>
<rscale>  2 0.25312144E+02</rscale>
<asrwt>0</asrwt>
<pdfrwt beam="1">  1       21 0.20308555E-01 0.25312144E+02</pdfrwt>
<pdfrwt beam="2">  1       21 0.76323057E-03 0.25312144E+02</pdfrwt>
<totfact> 0.92155397E+07</totfact>
</mgrwt>
</event>
<event>
 4    1  0.7595771E+004  0.2520758E+02  0.7546771E-02  0.1658038E+00
         21   -1    0    0  503  502  0.00000000000E+00  0.00000000000E+00  0.89968793453E+01  0.89968793453E+01  0.00000000000E+00 0. -1.
         21   -1    0    0  501  503 -0.00000000000E+00 -0.00000000000E+00 -0.71559096248E+02  0.71559096248E+02  0.00000000000E+00 0. -1.
          5    1    1    2  501    0 -0.19266720984E+02 -0.16254700922E+02 -0.26683993664E+02  0.36707728851E+02  0.00000000000E+00 0. -1.
         -5    1    1    2    0  502  0.19266720984E+02  0.16254700922E+02 -0.35878223238E+02  0.43848246741E+02  0.00000000000E+00 0.  1.
<mgrwt>
<rscale>  2 0.25207575E+02</rscale>
<asrwt>0</asrwt>
<pdfrwt beam="1">  1       21 0.13841353E-02 0.25207575E+02</pdfrwt>
<pdfrwt beam="2">  1       21 0.11009091E-01 0.25207575E+02</pdfrwt>
<totfact> 0.10688596E+08</totfact>
</mgrwt>
</event>
<event>
 4    1  0.7595771E+004  0.2295529E+02  0.7546771E-02  0.1692236E+00
         21   -1    0    0  501  502  0.00000000000E+00  0.00000000000E+00  0.82901052799E+03  0.82901052799E+03  0.00000000000E+00 0. -1.
         21   -1    0    0  502  503 -0.00000000000E+00 -0.00000000000E+00 -0.67264279754E+00  0.67264279754E+00  0.00000000000E+00 0. -1.
          2    1    1    2  501    0 -0.21186302457E+02  0.88366342623E+01  0.31685949921E+03  0.31768992391E+03  0.00000000000E+00 0. -1.
         -2    1    1    2    0  503  0.21186302457E+02 -0.88366342623E+01  0.51147838599E+03  0.51199324688E+03  0.00000000000E+00 0.  1.
<mgrwt>
<rscale>  2 0.22955294E+02</rscale>
<asrwt>0</asrwt>
<pdfrwt beam="1">  1       21 0.12753926E+00 0.22955294E+02</pdfrwt>
<pdfrwt beam="2">  1       21 0.10348417E-03 0.22955294E+02</pdfrwt>
<totfact> 0.43889552E+07</totfact>
</mgrwt>
</event>
<event>
 4    1  0.7595771E+004  0.2349053E+02  0.7546771E-02  0.1683680E+00
         21   -1    0    0  501  502  0.00000000000E+00  0.00000000000E+00  0.82307483547E+03  0.82307483547E+03  0.00000000000E+00 0.  1.
         21   -1    0    0  502  503 -0.00000000000E+00 -0.00000000000E+00 -0.70371925162E+00  0.70371925162E+00  0.00000000000E+00 0.  1.
          4    1    1    2  501    0  0.23177947246E+02  0.38194027028E+01  0.50078472955E+03  0.50133536722E+03  0.00000000000E+00 0. -1.
         -4    1    1    2    0  503 -0.23177947246E+02 -0.38194027028E+01  0.32158638667E+03  0.32244318751E+03  0.00000000000E+00 0.  1.
<mgrwt>
<rscale>  2 0.23490532E+02</rscale>
<asrwt>0</asrwt>
<pdfrwt beam="1">  1       21 0.12662613E+00 0.23490532E+02</pdfrwt>
<pdfrwt beam="2">  1       21 0.10826516E-03 0.23490532E+02</pdfrwt>
<totfact> 0.42031411E+07</totfact>
</mgrwt>
</event>
<event>
 4    1  0.7595771E+004  0.2253617E+02  0.7546771E-02  0.1699141E+00
         21   -1    0    0  501  502  0.00000000000E+00  0.00000000000E+00  0.24480534804E+04  0.24480534804E+04  0.00000000000E+00 0.  1.
         21   -1    0    0  502  503 -0.00000000000E+00 -0.00000000000E+00 -0.20872424952E+00  0.20872424952E+00  0.00000000000E+00 0.  1.
          1    1    1    2  501    0 -0.17582156811E+02  0.14097762381E+02  0.11287438899E+04  0.11289688429E+04  0.00000000000E+00 0.  1.
         -1    1    1    2    0  503  0.17582156811E+02 -0.14097762381E+02  0.13191008663E+04  0.13192933618E+04  0.00000000000E+00 0. -1.
<mgrwt>
<rscale>  2 0.22536174E+02</rscale>
<asrwt>0</asrwt>
<pdfrwt beam="1">  1       21 0.37660062E+00 0.22536174E+02</pdfrwt>
<pdfrwt beam="2">  1       21 0.32113383E-04 0.22536174E+02</pdfrwt>
<totfact> 0.10076802E+07</totfact>
</mgrwt>
</event>
<event>
 4    1  0.7595771E+004  0.2735368E+02  0.7546771E-02  0.1629328E+00
         21   -1    0    0  501  502  0.00000000000E+00  0.00000000000E+00  0.52195010767E+01  0.52195010767E+01  0.00000000000E+00 0.  1.
         21   -1    0    0  502  503 -0.00000000000E+00 -0.00000000000E+00 -0.14489208492E+03  0.14489208492E+03  0.00000000000E+00 0.  1.
          3    1    1    2  501    0  0.25702378121E+02 -0.93600991166E+01 -0.62097124687E+02  0.67854819954E+02  0.00000000000E+00 0. -1.
         -3    1    1    2    0  503 -0.25702378121E+02  0.93600991166E+01 -0.77575459154E+02  0.82256766040E+02  0.00000000000E+00 0.  1.
<mgrwt>
<rscale>  2 0.27353678E+02</rscale>
<asrwt>0</asrwt>
<pdfrwt beam="1">  1       21 0.80300014E-03 0.27353678E+02</pdfrwt>
<pdfrwt beam="2">  1       21 0.22291091E-01 0.27353678E+02</pdfrwt>
<totfact> 0.73849430E+07</totfact>
</mgrwt>
</event>
<event>
 4    1  0.7595771E+004  0.2252916E+02  0.7546771E-02  0.1699258E+00
         21   -1    0    0  503  502  0.00000000000E+00  0.00000000000E+00  0.98423641997E+01  0.98423641997E+01  0.00000000000E+00 0.  1.
         21   -1    0    0  501  503 -0.00000000000E+00 -0.00000000000E+00 -0.51675434226E+02  0.51675434226E+02  0.00000000000E+00 0.  1.
          4    1    1    2  501    0 -0.20365324713E+02 -0.96341362675E+01 -0.22311048285E+02  0.31707190160E+02  0.00000000000E+00 0.  1.
         -4    1    1    2    0  502  0.20365324713E+02  0.96341362675E+01 -0.19522021741E+02  0.29810608265E+02  0.00000000000E+00 0. -1.
<mgrwt>
<rscale>  2 0.22529160E+02</rscale>
<asrwt>0</asrwt>
<pdfrwt beam="1">  1       21 0.15142099E-02 0.22529160E+02</pdfrwt>
<pdfrwt beam="2">  1       21 0.79500668E-02 0.22529160E+02</pdfrwt>
<totfact> 0.15446441E+08</totfact>
</mgrwt>
</event>
<event>
 4    1  0.7595771E+004  0.2399047E+02  0.7546771E-02  0.1675940E+00
         21   -1    0    0  503  502  0.00000000000E+00  0.00000000000E+00  0.21976038830E+01  0.21976038830E+01  0.00000000000E+00 0.  1.
         21   -1    0    0  501  503 -0.00000000000E+00 -0.00000000000E+00 -0.26869631700E+03  0.26869631700E+03  0.00000000000E+00 0.  1.
          3    1    1    2  501    0  0.23502007066E+02 -0.48164397934E+01 -0.11170066148E+03  0.11424788928E+03  0.00000000000E+00 0.  1.
         -3    1    1    2    0  502 -0.23502007066E+02  0.48164397934E+01 -0.15479805164E+03  0.15664603161E+03  0.00000000000E+00 0. -1.
<mgrwt>
<rscale>  2 0.23990465E+02</rscale>
<asrwt>0</asrwt>
<pdfrwt beam="1">  1       21 0.33809306E-03 0.23990465E+02</pdfrwt>
<pdfrwt beam="2">  1       21 0.41337876E-01 0.23990465E+02</pdfrwt>
<totfact> 0.83172461E+07</totfact>
</mgrwt>
</event>
<event>
 4    1  0.7595771E+004  0.4018858E+02  0.7546771E-02  0.1506828E+00
         21   -1    0    0  503  502  0.00000000000E+00  0.00000000000E+00  0.34023026048E+01  0.34023026048E+01  0.00000000000E+00 0.  1.
         21   -1    0    0  501  503 -0.00000000000E+00 -0.00000000000E+00 -0.48207771555E+03  0.48207771555E+03  0.00000000000E+00 0.  1.
          1    1    1    2  501    0 -0.35370948647E+02 -0.19079254888E+02 -0.20933778624E+03  0.21316057498E+03  0.00000000000E+00 0. -1.
         -1    1    1    2    0  502  0.35370948647E+02  0.19079254888E+02 -0.26933762671E+03  0.27231944318E+03  0.00000000000E+00 0.  1.
<mgrwt>
<rscale>  2 0.40188580E+02</rscale>
<asrwt>0</asrwt>
<pdfrwt beam="1">  1       21 0.52343154E-03 0.40188580E+02</pdfrwt>
<pdfrwt beam="2">  1       21 0.74165749E-01 0.40188580E+02</pdfrwt>
<totfact> 0.14867931E+07</totfact>
</mgrwt>
</event>
<event>
 4    1  0.7595771E+004  0.2007072E+02  0.7546771E-02  0.1743925E+00
         21   -1    0    0  501  502  0.00000000000E+00  0.00000000000E+00  0.40875284109E+01  0.40875284109E+01  0.00000000000E+00 0. -1.
         21   -1    0    0  502  503 -0.00000000000E+00 -0.00000000000E+00 -0.10591333942E+03  0.10591333942E+03  0.00000000000E+00 0. -1.
          1    1    1    2  501    0  0.16402743731E+02 -0.11566497460E+02 -0.36412808784E+02  0.41577957008E+02  0.00000000000E+00 0.  1.
         -1    1    1    2    0  503 -0.16402743731E+02  0.11566497460E+02 -0.65413002228E+02  0.68422910826E+02  0.00000000000E+00 0. -1.
<mgrwt>
<rscale>  2 0.20070722E+02</rscale>
<asrwt>0</asrwt>
<pdfrwt beam="1">  1       21 0.62885055E-03 0.20070722E+02</pdfrwt>
<pdfrwt beam="2">  1       21 0.16294359E-01 0.20070722E+02</pdfrwt>
<totfact> 0.16829630E+08</totfact>
</mgrwt>
</event>
<event>
 4    1  0.7595771E+004  0.2168386E+02  0.7546771E-02  0.1713777E+00
         21   -1    0    0  501  502  0.00000000000E+00  0.00000000000E+00  0.19770193110E+01  0.19770193110E+01  0.00000000000E+00 0. -1.
         21   -1    0    0  502  503 -0.00000000000E+00 -0.00000000000E+00 -0.24165065643E+03  0.24165065643E+03  0.00000000000E+00 0. -1.
          1    1    1    2  501    0  0.20204796908E+02  0.78712133555E+01 -0.13515849442E+03  0.13688684536E+03  0.00000000000E+00 0.  1.
         -1    1    1    2    0  503 -0.20204796908E+02 -0.78712133555E+01 -0.10451514270E+03  0.10674083038E+03  0.00000000000E+00 0. -1.
<mgrwt>
<rscale>  2 0.21683861E+02</rscale>
<asrwt>0</asrwt>
<pdfrwt beam="1">  1       21 0.30415670E-03 0.21683861E+02</pdfrwt>
<pdfrwt beam="2">  1       21 0.37177039E-01 0.21683861E+02</pdfrwt>
<totfact> 0.11533202E+08</totfact>
</mgrwt>
</event>
<event>
 4    1  0.7595771E+004  0.2132569E+02  0.7546771E-02  0.1720182E+00
         21   -1    0    0  501  502  0.00000000000E+00  0.00000000000E+00  0.17785426348E+01  0.17785426348E+01  0.00000000000E+00 0. -1.
         21   -1    0    0  502  503 -0.00000000000E+00 -0.00000000000E+00 -0.25610942517E+03  0.25610942517E+03  0.00000000000E+00 0. -1.
          1    1    1    2  501    0 -0.11232625054E+02  0.18127685971E+02 -0.13228008089E+03  0.13398807658E+03  0.00000000000E+00 0. -1.
         -1    1    1    2    0  503  0.11232625054E+02 -0.18127685971E+02 -0.12205080164E+03  0.12389989122E+03  0.00000000000E+00 0.  1.
<mgrwt>
<rscale>  2 0.21325686E+02</rscale>
<asrwt>0</asrwt>
<pdfrwt beam="1">  1       21 0.27362212E-03 0.21325686E+02</pdfrwt>
<pdfrwt beam="2">  1       21 0.39401424E-01 0.21325686E+02</pdfrwt>
<totfact> 0.12010392E+08</totfact>
</mgrwt>
</event>
<event>
 4    1  0.7595771E+004  0.3581554E+02  0.7546771E-02  0.1541475E+00
         21   -1    0    0  503  502  0.00000000000E+00  0.00000000000E+00  0.59823928704E+02  0.59823928704E+02  0.00000000000E+00 0. -1.
         21   -1    0    0  501  503 -0.00000000000E+00 -0.00000000000E+00 -0.24318918017E+02  0.24318918017E+02  0.00000000000E+00 0. -1.
          3    1    1    2  501    0  0.35155995877E+02 -0.68417220250E+01  0.32825208669E+01  0.35965652359E+02  0.00000000000E+00 0.  1.
         -3    1    1    2    0  502 -0.35155995877E+02  0.68417220250E+01  0.32222489820E+02  0.48177194362E+02  0.00000000000E+00 0. -1.
<mgrwt>
<rscale>  2 0.35815544E+02</rscale>
<asrwt>0</asrwt>
<pdfrwt beam="1">  1       21 0.92036812E-02 0.35815544E+02</pdfrwt>
<pdfrwt beam="2">  1       21 0.37413720E-02 0.35815544E+02</pdfrwt>
<totfact> 0.33220576E+07</totfact>
</mgrwt>
</event>
<event>
 4    1  0.7595771E+004  0.2059115E+02  0.7546771E-02  0.1733822E+00
         21   -1    0    0  503  502  0.00000000000E+00  0.00000000000E+00  0.61696464553E+01  0.61696464553E+01  0.00000000000E+00 0. -1.
         21   -1    0    0  501  503 -0.00000000000E+00 -0.00000000000E+00 -0.69056157462E+02  0.69056157462E+02  0.00000000000E+00 0. -1.
          5    1    1    2  501    0 -0.18848710638E+01 -0.20504702478E+02 -0.34056447883E+02  0.39797452243E+02  0.00000000000E+00 0.  1.
         -5    1    1    2    0  502  0.18848710638E+01  0.20504702478E+02 -0.28830063123E+02  0.35428351674E+02  0.00000000000E+00 0. -1.
<mgrwt>
<rscale>  2 0.20591153E+02</rscale>
<asrwt>0</asrwt>
<pdfrwt beam="1">  1       21 0.94917640E-03 0.20591153E+02</pdfrwt>
<pdfrwt beam="2">  1       21 0.10624024E-01 0.20591153E+02</pdfrwt>
<totfact> 0.18864707E+08</totfact>
</mgrwt>
</event>
<event>
 4    1  0.7595771E+004  0.4417457E+02  0.7546771E-02  0.1479561E+00
         21   -1    0    0  503  502  0.00000000000E+00  0.00000000000E+00  0.14448802172E+01  0.14448802172E+01  0.00000000000E+00 0. -1.
         21   -1    0    0  501  503 -0.00000000000E+00 -0.00000000000E+00 -0.13519401892E+04  0.13519401892E+04  0.00000000000E+00 0. -1.
          3    1    1    2  501    0 -0.42569513792E+02  0.11799535638E+02 -0.65359990562E+03  0.65509100831E+03  0.00000000000E+00 0. -1.
         -3    1    1    2    0  502  0.42569513792E+02 -0.11799535638E+02 -0.69689540341E+03  0.69829406115E+03  0.00000000000E+00 0.  1.
<mgrwt>
<rscale>  2 0.44174569E+02</rscale>
<asrwt>0</asrwt>
<pdfrwt beam="1">  1       21 0.22228959E-03 0.44174569E+02</pdfrwt>
<pdfrwt beam="2">  1       21 0.20799049E+00 0.44174569E+02</pdfrwt>
<totfact> 0.46366207E+06</totfact>
</mgrwt>
</event>
<event>
 4    1  0.7595771E+004  0.2383186E+02  0.7546771E-02  0.1678370E+00
         21   -1    0    0  501  502  0.00000000000E+00  0.00000000000E+00  0.23271227334E+02  0.23271227334E+02  0.00000000000E+00 0. -1.
         21   -1    0    0  502  503 -0.00000000000E+00 -0.00000000000E+00 -0.25980070505E+02  0.25980070505E+02  0.00000000000E+00 0. -1.
          2    1    1    2  501    0 -0.12414836438E+01  0.23799498748E+02 -0.74159272125E+01  0.24959034411E+02  0.00000000000E+00 0.  1.
         -2    1    1    2    0  503  0.12414836438E+01 -0.23799498748E+02  0.47070840416E+01  0.24292263428E+02  0.00000000000E+00 0. -1.
<mgrwt>
<rscale>  2 0.23831857E+02</rscale>
<asrwt>0</asrwt>
<pdfrwt beam="1">  1       21 0.35801888E-02 0.23831857E+02</pdfrwt>
<pdfrwt beam="2">  1       21 0.39969339E-02 0.23831857E+02</pdfrwt>
<totfact> 0.12526822E+08</totfact>
</mgrwt>
</event>
<event>
 4    1  0.7595771E+004  0.2324206E+02  0.7546771E-02  0.1687616E+00
         21   -1    0    0  501  502  0.00000000000E+00  0.00000000000E+00  0.15430199679E+03  0.15430199679E+03  0.00000000000E+00 0.  1.
         21   -1    0    0  502  503 -0.00000000000E+00 -0.00000000000E+00 -0.45788887504E+01  0.45788887504E+01  0.00000000000E+00 0.  1.
          3    1    1    2  501    0  0.70568488868E+01 -0.22144844708E+02  0.11340691480E+03  0.11576407728E+03  0.00000000000E+00 0. -1.
         -3    1    1    2    0  503 -0.70568488868E+01  0.22144844708E+02  0.36316193234E+02  0.43116808258E+02  0.00000000000E+00 0.  1.
<mgrwt>
<rscale>  2 0.23242058E+02</rscale>
<asrwt>0</asrwt>
<pdfrwt beam="1">  1       21 0.23738765E-01 0.23242058E+02</pdfrwt>
<pdfrwt beam="2">  1       21 0.70444454E-03 0.23242058E+02</pdfrwt>
<totfact> 0.77136474E+07</totfact>
</mgrwt>
</event>
<event>
 4    1  0.7595771E+004  0.2792315E+02  0.7546771E-02  0.1622249E+00
         21   -1    0    0  503  502  0.00000000000E+00  0.00000000000E+00  0.16597048824E+02  0.16597048824E+02  0.00000000000E+00 0.  1.
         21   -1    0    0  501  503 -0.00000000000E+00 -0.00000000000E+00 -0.12182996774E+03  0.12182996774E+03  0.00000000000E+00 0.  1.
          4    1    1    2  501    0 -0.80632120479E+00  0.27911500857E+02  0.16353693562E+01  0.27970993313E+02  0.00000000000E+00 0.  1.
         -4    1    1    2    0  502  0.80632120479E+00 -0.27911500857E+02 -0.10686828827E+03  0.11045602325E+03  0.00000000000E+00 0. -1.
<mgrwt>
<rscale>  2 0.27923145E+02</rscale>
<asrwt>0</asrwt>
<pdfrwt beam="1">  1       21 0.25533921E-02 0.27923145E+02</pdfrwt>
<pdfrwt beam="2">  1       21 0.18743072E-01 0.27923145E+02</pdfrwt>
<totfact> 0.17178531E+07</totfact>
</mgrwt>
</event>
<event>
 4    1  0.7595771E+004  0.2364362E+02  0.7546771E-02  0.1681285E+00
         21   -1    0    0  501  502  0.00000000000E+00  0.00000000000E+00  0.56774476105E+03  0.56774476105E+03  0.00000000000E+00 0.  1.
         21   -1    0    0  502  503 -0.00000000000E+00 -0.00000000000E+00 -0.10018395134E+01  0.10018395134E+01  0.00000000000E+00 0.  1.
          4    1    1    2  501    0  0.23256315627E+02 -0.42619643433E+01  0.32063884049E+03  0.32150938802E+03  0.00000000000E+00 0. -1.
         -4    1    1    2    0  503 -0.23256315627E+02  0.42619643433E+01  0.24610408105E+03  0.24723721254E+03  0.00000000000E+00 0.  1.
<mgrwt>
<rscale>  2 0.23643616E+02</rscale>
<asrwt>0</asrwt>
<pdfrwt beam="1">  1       21 0.87345091E-01 0.23643616E+02</pdfrwt>
<pdfrwt beam="2">  1       21 0.15412961E-03 0.23643616E+02</pdfrwt>
<totfact> 0.57700439E+07</totfact>
</mgrwt>
</event>
<event>
 4    1  0.7595771E+004  0.2462093E+02  0.7546771E-02  0.1666507E+00
         21   -1    0    0  503  502  0.00000000000E+00  0.00000000000E+00  0.17497861320E+02  0.17497861320E+02  0.00000000000E+00 0. -1.
         21   -1    0    0  501  503 -0.00000000000E+00 -0.00000000000E+00 -0.34768599466E+02  0.34768599466E+02  0.00000000000E+00 0. -1.
          2    1    1    2  501    0 -0.23734149380E+02 -0.65483193842E+01 -0.10201802881E+02  0.26650837052E+02  0.00000000000E+00 0. -1.
         -2    1    1    2    0  502  0.23734149380E+02  0.65483193842E+01 -0.70689352648E+01  0.25615623735E+02  0.00000000000E+00 0.  1.
<mgrwt>
<rscale>  2 0.24620933E+02</rscale>
<asrwt>0</asrwt>
<pdfrwt beam="1">  1       21 0.26919787E-02 0.24620933E+02</pdfrwt>
<pdfrwt beam="2">  1       21 0.53490153E-02 0.24620933E+02</pdfrwt>
<totfact> 0.12424819E+08</totfact>
</mgrwt>
</event>
<event>
 4    1  0.7595771E+004  0.2475013E+02  0.7546771E-02  0.1664617E+00
         21   -1    0    0  501  502  0.00000000000E+00  0.00000000000E+00  0.38228795062E+02  0.38228795062E+02  0.00000000000E+00 0. -1.
         21   -1    0    0  502  503 -0.00000000000E+00 -0.00000000000E+00 -0.18053474141E+02  0.18053474141E+02  0.00000000000E+00 0. -1.
          5    1    1    2  501    0 -0.71373125080E+01 -0.23698684914E+02  0.19523467298E+02  0.31523557411E+02  0.00000000000E+00 0. -1.
         -5    1    1    2    0  503  0.71373125080E+01  0.23698684914E+02  0.65185362389E+00  0.24758711793E+02  0.00000000000E+00 0.  1.
<mgrwt>
<rscale>  2 0.24750129E+02</rscale>
<asrwt>0</asrwt>
<pdfrwt beam="1">  1       21 0.58813531E-02 0.24750129E+02</pdfrwt>
<pdfrwt beam="2">  1       21 0.27774576E-02 0.24750129E+02</pdfrwt>
<totfact> 0.10177528E+08</totfact>
</mgrwt>
</event>
<event>
 4    1  0.7595771E+004  0.2103983E+02  0.7546771E-02  0.1725407E+00
         21   -1    0    0  503  502  0.00000000000E+00  0.00000000000E+00  0.42777022298E+03  0.42777022298E+03  0.00000000000E+00 0. -1.
         21   -1    0    0  501  503 -0.00000000000E+00 -0.00000000000E+00 -0.10475383118E+01  0.10475383118E+01  0.00000000000E+00 0. -1.
          5    1    1    2  501    0 -0.20990935399E+02 -0.14335625343E+01  0.18975647823E+03  0.19091934292E+03  0.00000000000E+00 0.  1.
         -5    1    1    2    0  502  0.20990935399E+02  0.14335625343E+01  0.23696620644E+03  0.23789841837E+03  0.00000000000E+00 0. -1.
<mgrwt>
<rscale>  2 0.21039831E+02</rscale>
<asrwt>0</asrwt>
<pdfrwt beam="1">  1       21 0.65810664E-01 0.21039831E+02</pdfrwt>
<pdfrwt beam="2">  1       21 0.16116008E-03 0.21039831E+02</pdfrwt>
<totfact> 0.94686238E+07</totfact>
</mgrwt>
</event>
<event>
 4    1  0.7595771E+004  0.2366955E+02  0.7546771E-02  0.1680881E+00
         21   -1    0    0  503  502  0.00000000000E+00  0.00000000000E+00  0.51290502600E+03  0.51290502600E+03  0.00000000000E+00 0. -1.
         21   -1    0    0  501  503 -0.00000000000E+00 -0.00000000000E+00 -0.10972342534E+01  0.10972342534E+01  0.00000000000E+00 0. -1.
          1    1    1    2  501    0  0.16876108220E+02  0.16596527398E+02  0.27313287616E+03  0.27415655344E+03  0.00000000000E+00 0. -1.
         -1    1    1    2    0  502 -0.16876108220E+02 -0.16596527398E+02  0.23867491558E+03  0.23984570682E+03  0.00000000000E+00 0.  1.
<mgrwt>
<rscale>  2 0.23669553E+02</rscale>
<asrwt>0</asrwt>
<pdfrwt beam="1">  1       21 0.78908274E-01 0.23669553E+02</pdfrwt>
<pdfrwt beam="2">  1       21 0.16880568E-03 0.23669553E+02</pdfrwt>
<totfact> 0.62764806E+07</totfact>
</mgrwt>
</event>
<event>
 4    1  0.7595771E+004  0.4957111E+02  0.7546771E-02  0.1447669E+00
         21   -1    0    0  501  502  0.00000000000E+00  0.00000000000E+00  0.70968280658E+02  0.70968280658E+02  0.00000000000E+00 0. -1.
         21   -1    0    0  502  503 -0.00000000000E+00 -0.00000000000E+00 -0.36593892685E+02  0.36593892685E+02  0.00000000000E+00 0. -1.
          1    1    1    2  501    0  0.48830522031E+02 -0.85366708409E+01  0.29661271860E+02  0.57767514048E+02  0.00000000000E+00 0. -1.
         -1    1    1    2    0  503 -0.48830522031E+02  0.85366708409E+01  0.47131161118E+01  0.49794659295E+02  0.00000000000E+00 0.  1.
<mgrwt>
<rscale>  2 0.49571107E+02</rscale>
<asrwt>0</asrwt>
<pdfrwt beam="1">  1       21 0.10918197E-01 0.49571107E+02</pdfrwt>
<pdfrwt beam="2">  1       21 0.56298297E-02 0.49571107E+02</pdfrwt>
<totfact> 0.13503111E+07</totfact>
</mgrwt>
</event>
<event>
 4    1  0.7595771E+004  0.2611994E+02  0.7546771E-02  0.1645418E+00
         21   -1    0    0  503  502  0.00000000000E+00  0.00000000000E+00  0.22375352618E+03  0.22375352618E+03  0.00000000000E+00 0.  1.
         21   -1    0    0  501  503 -0.00000000000E+00 -0.00000000000E+00 -0.35392270366E+01  0.35392270366E+01  0.00000000000E+00 0.  1.
          3    1    1    2  501    0  0.27443454409E+00 -0.26118501871E+02  0.67816276784E+02  0.72672545374E+02  0.00000000000E+00 0.  1.
         -3    1    1    2    0  502 -0.27443454409E+00  0.26118501871E+02  0.15239802236E+03  0.15462020785E+03  0.00000000000E+00 0. -1.
<mgrwt>
<rscale>  2 0.26119944E+02</rscale>
<asrwt>0</asrwt>
<pdfrwt beam="1">  1       21 0.34423608E-01 0.26119944E+02</pdfrwt>
<pdfrwt beam="2">  1       21 0.54449664E-03 0.26119944E+02</pdfrwt>
<totfact> 0.59289820E+07</totfact>
</mgrwt>
</event>
<event>
 4    1  0.7595771E+004  0.2595060E+02  0.7546771E-02  0.1647712E+00
         21   -1    0    0  503  502  0.00000000000E+00  0.00000000000E+00  0.46413125631E+03  0.46413125631E+03  0.00000000000E+00 0.  1.
         21   -1    0    0  501  503 -0.00000000000E+00 -0.00000000000E+00 -0.20676985858E+01  0.20676985858E+01  0.00000000000E+00 0.  1.
          5    1    1    2  501    0  0.13813337419E+02 -0.21968730303E+02  0.10372541011E+03  0.10692237420E+03  0.00000000000E+00 0. -1.
         -5    1    1    2    0  502 -0.13813337419E+02  0.21968730303E+02  0.35833814762E+03  0.35927658070E+03  0.00000000000E+00 0.  1.
<mgrwt>
<rscale>  2 0.25950595E+02</rscale>
<asrwt>0</asrwt>
<pdfrwt beam="1">  1       21 0.71404726E-01 0.25950595E+02</pdfrwt>
<pdfrwt beam="2">  1       21 0.31810784E-03 0.25950595E+02</pdfrwt>
<totfact> 0.31396520E+07</totfact>
</mgrwt>
</event>
<event>
 4    1  0.7595771E+004  0.2740902E+02  0.7546771E-02  0.1628631E+00
         21   -1    0    0  501  502  0.00000000000E+00  0.00000000000E+00  0.89401584302E+01  0.89401584302E+01  0.00000000000E+00 0. -1.
         21   -1    0    0  502  503 -0.00000000000E+00 -0.00000000000E+00 -0.98799775854E+02  0.98799775854E+02  0.00000000000E+00 0. -1.
          1    1    1    2  501    0 -0.12754977238E+02 -0.24260361828E+02 -0.24102451783E+02  0.36499079198E+02  0.00000000000E+00 0.  1.
         -1    1    1    2    0  503  0.12754977238E+02  0.24260361828E+02 -0.65757165640E+02  0.71240855086E+02  0.00000000000E+00 0. -1.
<mgrwt>
<rscale>  2 0.27409024E+02</rscale>
<asrwt>0</asrwt>
<pdfrwt beam="1">  1       21 0.13754091E-02 0.27409024E+02</pdfrwt>
<pdfrwt beam="2">  1       21 0.15199965E-01 0.27409024E+02</pdfrwt>
<totfact> 0.63835055E+07</totfact>
</mgrwt>
</event>
<event>
 4    1  0.7595771E+004  0.3934969E+02  0.7546771E-02  0.1513052E+00
         21   -1    0    0  503  502  0.00000000000E+00  0.00000000000E+00  0.97981929326E+00  0.97981929326E+00  0.00000000000E+00 0.  1.
         21   -1    0    0  501  503 -0.00000000000E+00 -0.00000000000E+00 -0.16099812925E+04  0.16099812925E+04  0.00000000000E+00 0.  1.
          3    1    1    2  501    0  0.37738027298E+02 -0.11146259423E+02 -0.69511382157E+03  0.69622670355E+03  0.00000000000E+00 0.  1.
         -3    1    1    2    0  502 -0.37738027298E+02  0.11146259423E+02 -0.91388765168E+03  0.91473440828E+03  0.00000000000E+00 0. -1.
<mgrwt>
<rscale>  2 0.39349686E+02</rscale>
<asrwt>0</asrwt>
<pdfrwt beam="1">  1       21 0.15074332E-03 0.39349686E+02</pdfrwt>
<pdfrwt beam="2">  1       21 0.24768632E+00 0.39349686E+02</pdfrwt>
<totfact> 0.49553730E+06</totfact>
</mgrwt>
</event>
<event>
 4    1  0.7595771E+004  0.2881765E+02  0.7546771E-02  0.1611538E+00
         21   -1    0    0  503  502  0.00000000000E+00  0.00000000000E+00  0.72363738871E+01  0.72363738871E+01  0.00000000000E+00 0.  1.
         21   -1    0    0  501  503 -0.00000000000E+00 -0.00000000000E+00 -0.11501291747E+03  0.11501291747E+03  0.00000000000E+00 0.  1.
          2    1    1    2  501    0  0.26631417170E+02  0.11010214418E+02 -0.56746067670E+02  0.63644115188E+02  0.00000000000E+00 0. -1.
         -2    1    1    2    0  502 -0.26631417170E+02 -0.11010214418E+02 -0.51030475917E+02  0.58605176174E+02  0.00000000000E+00 0.  1.
<mgrwt>
<rscale>  2 0.28817654E+02</rscale>
<asrwt>0</asrwt>
<pdfrwt beam="1">  1       21 0.11132883E-02 0.28817654E+02</pdfrwt>
<pdfrwt beam="2">  1       21 0.17694296E-01 0.28817654E+02</pdfrwt>
<totfact> 0.68529001E+07</totfact>
</mgrwt>
</event>
<event>
 4    1  0.7595771E+004  0.2563872E+02  0.7546771E-02  0.1651994E+00
         21   -1    0    0  501  502  0.00000000000E+00  0.00000000000E+00  0.85887348997E+01  0.85887348997E+01  0.00000000000E+00 0.  1.
         21   -1    0    0  502  503 -0.00000000000E+00 -0.00000000000E+00 -0.10829224692E+03  0.10829224692E+03  0.00000000000E+00 0.  1.
          2    1    1    2  501    0 -0.86285852333E+01  0.24143149361E+02 -0.18204769528E+02  0.31444519041E+02  0.00000000000E+00 0.  1.
         -2    1    1    2    0  503  0.86285852333E+01 -0.24143149361E+02 -0.81498742494E+02  0.85436462780E+02  0.00000000000E+00 0. -1.
<mgrwt>
<rscale>  2 0.25638724E+02</rscale>
<asrwt>0</asrwt>
<pdfrwt beam="1">  1       21 0.13213438E-02 0.25638724E+02</pdfrwt>
<pdfrwt beam="2">  1       21 0.16660347E-01 0.25638724E+02</pdfrwt>
<totfact> 0.57030436E+07</totfact>
</mgrwt>
</event>
<event>
 4    1  0.7595771E+004  0.4621246E+02  0.7546771E-02  0.1466911E+00
         21   -1    0    0  503  502  0.00000000000E+00  0.00000000000E+00  0.42596028511E+02  0.42596028511E+02  0.00000000000E+00 0.  1.
         21   -1    0    0  501  503 -0.00000000000E+00 -0.00000000000E+00 -0.51278706187E+02  0.51278706187E+02  0.00000000000E+00 0.  1.
          2    1    1    2  501    0  0.26652180165E+02  0.37752514581E+02 -0.11348348992E+02  0.47585460905E+02  0.00000000000E+00 0. -1.
         -2    1    1    2    0  502 -0.26652180165E+02 -0.37752514581E+02  0.26656713163E+01  0.46289273793E+02  0.00000000000E+00 0.  1.
<mgrwt>
<rscale>  2 0.46212456E+02</rscale>
<asrwt>0</asrwt>
<pdfrwt beam="1">  1       21 0.65532352E-02 0.46212456E+02</pdfrwt>
<pdfrwt beam="2">  1       21 0.78890317E-02 0.46212456E+02</pdfrwt>
<totfact> 0.18035122E+07</totfact>
</mgrwt>
</event>
<event>
 4    1  0.7595771E+004  0.2359768E+02  0.7546771E-02  0.1682001E+00
         21   -1    0    0  501  502  0.00000000000E+00  0.00000000000E+00  0.14086804807E+03  0.14086804807E+03  0.00000000000E+00 0. -1.
         21   -1    0    0  502  503 -0.00000000000E+00 -0.00000000000E+00 -0.40417699673E+01  0.40417699673E+01  0.00000000000E+00 0. -1.
          2    1    1    2  501    0  0.18680095077E+02  0.14418902830E+02  0.79151225888E+02  0.82593990523E+02  0.00000000000E+00 0.  1.
         -2    1    1    2    0  503 -0.18680095077E+02 -0.14418902830E+02  0.57675052216E+02  0.62315827516E+02  0.00000000000E+00 0. -1.
<mgrwt>
<rscale>  2 0.23597684E+02</rscale>
<asrwt>0</asrwt>
<pdfrwt beam="1">  1       21 0.21672004E-01 0.23597684E+02</pdfrwt>
<pdfrwt beam="2">  1       21 0.62181087E-03 0.23597684E+02</pdfrwt>
<totfact> 0.10951799E+08</totfact>
</mgrwt>
</event>
<event>
 4    1  0.7595771E+004  0.4100038E+02  0.7546771E-02  0.1500976E+00
         21   -1    0    0  503  502  0.00000000000E+00  0.00000000000E+00  0.37165214281E+02  0.37165214281E+02  0.00000000000E+00 0.  1.
         21   -1    0    0  501  503 -0.00000000000E+00 -0.00000000000E+00 -0.96739580085E+02  0.96739580085E+02  0.00000000000E+00 0.  1.
          5    1    1    2  501    0 -0.40251567311E+02  0.78001697577E+01 -0.78641451459E+02  0.88687706064E+02  0.00000000000E+00 0.  1.
         -5    1    1    2    0  502  0.40251567311E+02 -0.78001697577E+01  0.19067085655E+02  0.45217088303E+02  0.00000000000E+00 0. -1.
<mgrwt>
<rscale>  2 0.41000382E+02</rscale>
<asrwt>0</asrwt>
<pdfrwt beam="1">  1       21 0.57177253E-02 0.41000382E+02</pdfrwt>
<pdfrwt beam="2">  1       21 0.14883012E-01 0.41000382E+02</pdfrwt>
<totfact> 0.75296121E+06</totfact>
</mgrwt>
</event>
<event>
 4    1  0.7595771E+004  0.3071375E+02  0.7546771E-02  0.1590330E+00
         21   -1    0    0  503  502  0.00000000000E+00  0.00000000000E+00  0.11579476533E+02  0.11579476533E+02  0.00000000000E+00 0.  1.
         21   -1    0    0  501  503 -0.00000000000E+00 -0.00000000000E+00 -0.81589318984E+02  0.81589318984E+02  0.00000000000E+00 0.  1.
          3    1    1    2  501    0  0.19285436654E+02  0.23904110370E+02 -0.33194422593E+02  0.45223934491E+02  0.00000000000E+00 0. -1.
         -3    1    1    2    0  502 -0.19285436654E+02 -0.23904110370E+02 -0.36815419857E+02  0.47944861026E+02  0.00000000000E+00 0.  1.
<mgrwt>
<rscale>  2 0.30713752E+02</rscale>
<asrwt>0</asrwt>
<pdfrwt beam="1">  1       21 0.17814579E-02 0.30713752E+02</pdfrwt>
<pdfrwt beam="2">  1       21 0.12552203E-01 0.30713752E+02</pdfrwt>
<totfact> 0.61104390E+07</totfact>
</mgrwt>
</event>
<event>
 4    1  0.7595771E+004  0.3379621E+02  0.7546771E-02  0.1559558E+00
         21   -1    0    0  501  502  0.00000000000E+00  0.00000000000E+00  0.49044715015E+01  0.49044715015E+01  0.00000000000E+00 0.  1.
         21   -1    0    0  502  503 -0.00000000000E+00 -0.00000000000E+00 -0.23713303759E+03  0.23713303759E+03  0.00000000000E+00 0.  1.
          3    1    1    2  501    0 -0.12132891944E+02  0.31543252317E+02 -0.13230956088E+03  0.13655769379E+03  0.00000000000E+00 0.  1.
         -3    1    1    2    0  503  0.12132891944E+02 -0.31543252317E+02 -0.99919005211E+02  0.10547981530E+03  0.00000000000E+00 0. -1.
<mgrwt>
<rscale>  2 0.33796210E+02</rscale>
<asrwt>0</asrwt>
<pdfrwt beam="1">  1       21 0.75453408E-03 0.33796210E+02</pdfrwt>
<pdfrwt beam="2">  1       21 0.36482005E-01 0.33796210E+02</pdfrwt>
<totfact> 0.34408493E+07</totfact>
</mgrwt>
</event>
<event>
 4    1  0.7595771E+004  0.2404087E+02  0.7546771E-02  0.1675173E+00
         21   -1    0    0  503  502  0.00000000000E+00  0.00000000000E+00  0.60250439967E+02  0.60250439967E+02  0.00000000000E+00 0.  1.
         21   -1    0    0  501  503 -0.00000000000E+00 -0.00000000000E+00 -0.95967006141E+01  0.95967006141E+01  0.00000000000E+00 0.  1.
          3    1    1    2  501    0 -0.22222577715E+02  0.91717234804E+01  0.26041286117E+02  0.35441671159E+02  0.00000000000E+00 0. -1.
         -3    1    1    2    0  502  0.22222577715E+02 -0.91717234804E+01  0.24612453236E+02  0.34405469423E+02  0.00000000000E+00 0.  1.
<mgrwt>
<rscale>  2 0.24040871E+02</rscale>
<asrwt>0</asrwt>
<pdfrwt beam="1">  1       21 0.92692982E-02 0.24040871E+02</pdfrwt>
<pdfrwt beam="2">  1       21 0.14764155E-02 0.24040871E+02</pdfrwt>
<totfact> 0.12723927E+08</totfact>
</mgrwt>
</event>
<event>
 4    1  0.7595771E+004  0.2642460E+02  0.7546771E-02  0.1641345E+00
         21   -1    0    0  503  502  0.00000000000E+00  0.00000000000E+00  0.10009370393E+03  0.10009370393E+03  0.00000000000E+00 0.  1.
         21   -1    0    0  501  503 -0.00000000000E+00 -0.00000000000E+00 -0.12956144383E+02  0.12956144383E+02  0.00000000000E+00 0.  1.
          4    1    1    2  501    0 -0.60340614611E+01 -0.25726432845E+02  0.51665966446E+01  0.26924950613E+02  0.00000000000E+00 0. -1.
         -4    1    1    2    0  502  0.60340614611E+01  0.25726432845E+02  0.81970962904E+02  0.86124897702E+02  0.00000000000E+00 0.  1.
<mgrwt>
<rscale>  2 0.26424595E+02</rscale>
<asrwt>0</asrwt>
<pdfrwt beam="1">  1       21 0.15399031E-01 0.26424595E+02</pdfrwt>
<pdfrwt beam="2">  1       21 0.19932531E-02 0.26424595E+02</pdfrwt>
<totfact> 0.35044489E+07</totfact>
</mgrwt>
</event>
<event>
 4    1  0.7595771E+004  0.2206556E+02  0.7546771E-02  0.1707121E+00
         21   -1    0    0  501  502  0.00000000000E+00  0.00000000000E+00  0.14506941411E+03  0.14506941411E+03  0.00000000000E+00 0. -1.
         21   -1    0    0  502  503 -0.00000000000E+00 -0.00000000000E+00 -0.37978328780E+01  0.37978328780E+01  0.00000000000E+00 0. -1.
          2    1    1    2  501    0  0.10835825438E+02  0.19221703847E+02  0.45254829779E+02  0.50347677504E+02  0.00000000000E+00 0.  1.
         -2    1    1    2    0  503 -0.10835825438E+02 -0.19221703847E+02  0.96016751450E+02  0.98519569481E+02  0.00000000000E+00 0. -1.
<mgrwt>
<rscale>  2 0.22065562E+02</rscale>
<asrwt>0</asrwt>
<pdfrwt beam="1">  1       21 0.22318367E-01 0.22065562E+02</pdfrwt>
<pdfrwt beam="2">  1       21 0.58428209E-03 0.22065562E+02</pdfrwt>
<totfact> 0.11192849E+08</totfact>
</mgrwt>
</event>
<event>
 4    1  0.7595771E+004  0.2222875E+02  0.7546771E-02  0.1704326E+00
         21   -1    0    0  503  502  0.00000000000E+00  0.00000000000E+00  0.19939437914E+03  0.19939437914E+03  0.00000000000E+00 0. -1.
         21   -1    0    0  501  503 -0.00000000000E+00 -0.00000000000E+00 -0.25964679336E+01  0.25964679336E+01  0.00000000000E+00 0. -1.
          3    1    1    2  501    0 -0.22107442602E+02  0.23191646851E+01  0.11996361431E+03  0.12200568144E+03  0.00000000000E+00 0.  1.
         -3    1    1    2    0  502  0.22107442602E+02 -0.23191646851E+01  0.76834296894E+02  0.79985165640E+02  0.00000000000E+00 0. -1.
<mgrwt>
<rscale>  2 0.22228755E+02</rscale>
<asrwt>0</asrwt>
<pdfrwt beam="1">  1       21 0.30676046E-01 0.22228755E+02</pdfrwt>
<pdfrwt beam="2">  1       21 0.39945676E-03 0.22228755E+02</pdfrwt>
<totfact> 0.11110992E+08</totfact>
</mgrwt>
</event>
<event>
 4    1  0.7595771E+004  0.2263105E+02  0.7546771E-02  0.1697561E+00
         21   -1    0    0  501  502  0.00000000000E+00  0.00000000000E+00  0.62582430354E+02  0.62582430354E+02  0.00000000000E+00 0.  1.
         21   -1    0    0  502  503 -0.00000000000E+00 -0.00000000000E+00 -0.97152398027E+01  0.97152398027E+01  0.00000000000E+00 0.  1.
          1    1    1    2  501    0  0.22366754016E+02 -0.34485887710E+01  0.40785586850E+02  0.46643633482E+02  0.00000000000E+00 0. -1.
         -1    1    1    2    0  503 -0.22366754016E+02  0.34485887710E+01  0.12081603701E+02  0.25654036675E+02  0.00000000000E+00 0.  1.
<mgrwt>
<rscale>  2 0.22631051E+02</rscale>
<asrwt>0</asrwt>
<pdfrwt beam="1">  1       21 0.96280659E-02 0.22631051E+02</pdfrwt>
<pdfrwt beam="2">  1       21 0.14946523E-02 0.22631051E+02</pdfrwt>
<totfact> 0.11525554E+08</totfact>
</mgrwt>
</event>
<event>
 4    1  0.7595771E+004  0.4236914E+02  0.7546771E-02  0.1491467E+00
         21   -1    0    0  501  502  0.00000000000E+00  0.00000000000E+00  0.12267108807E+04  0.12267108807E+04  0.00000000000E+00 0. -1.
         21   -1    0    0  502  503 -0.00000000000E+00 -0.00000000000E+00 -0.14635515779E+01  0.14635515779E+01  0.00000000000E+00 0. -1.
          5    1    1    2  501    0 -0.15953907333E+02  0.39250693511E+02  0.60597358108E+03  0.60745298178E+03  0.00000000000E+00 0. -1.
         -5    1    1    2    0  503  0.15953907333E+02 -0.39250693511E+02  0.61927374800E+03  0.62072145046E+03  0.00000000000E+00 0.  1.
<mgrwt>
<rscale>  2 0.42369141E+02</rscale>
<asrwt>0</asrwt>
<pdfrwt beam="1">  1       21 0.18872393E+00 0.42369141E+02</pdfrwt>
<pdfrwt beam="2">  1       21 0.22516276E-03 0.42369141E+02</pdfrwt>
<totfact> 0.59011008E+06</totfact>
</mgrwt>
</event>
<event>
 4    1  0.7595771E+004  0.3568094E+02  0.7546771E-02  0.1542635E+00
         21   -1    0    0  503  502  0.00000000000E+00  0.00000000000E+00  0.94236212551E+03  0.94236212551E+03  0.00000000000E+00 0.  1.
         21   -1    0    0  501  503 -0.00000000000E+00 -0.00000000000E+00 -0.14196084341E+01  0.14196084341E+01  0.00000000000E+00 0.  1.
          2    1    1    2  501    0 -0.25748842811E+02 -0.24700739852E+02  0.36672988217E+03  0.36846157999E+03  0.00000000000E+00 0. -1.
         -2    1    1    2    0  502  0.25748842811E+02  0.24700739852E+02  0.57421263491E+03  0.57532015395E+03  0.00000000000E+00 0.  1.
<mgrwt>
<rscale>  2 0.35680940E+02</rscale>
<asrwt>0</asrwt>
<pdfrwt beam="1">  1       21 0.14497829E+00 0.35680940E+02</pdfrwt>
<pdfrwt beam="2">  1       21 0.21840205E-03 0.35680940E+02</pdfrwt>
<totfact> 0.11817529E+07</totfact>
</mgrwt>
</event>
<event>
 4    1  0.7595771E+004  0.2029684E+02  0.7546771E-02  0.1739489E+00
         21   -1    0    0  501  502  0.00000000000E+00  0.00000000000E+00  0.54381971034E+03  0.54381971034E+03  0.00000000000E+00 0.  1.
         21   -1    0    0  502  503 -0.00000000000E+00 -0.00000000000E+00 -0.95867462283E+00  0.95867462283E+00  0.00000000000E+00 0.  1.
          1    1    1    2  501    0 -0.16444343053E+01  0.20230111642E+02  0.14666205482E+03  0.14805985245E+03  0.00000000000E+00 0. -1.
         -1    1    1    2    0  503  0.16444343053E+01 -0.20230111642E+02  0.39619898090E+03  0.39671853252E+03  0.00000000000E+00 0.  1.
<mgrwt>
<rscale>  2 0.20296837E+02</rscale>
<asrwt>0</asrwt>
<pdfrwt beam="1">  1       21 0.83664324E-01 0.20296837E+02</pdfrwt>
<pdfrwt beam="2">  1       21 0.14748884E-03 0.20296837E+02</pdfrwt>
<totfact> 0.64946137E+07</totfact>
</mgrwt>
</event>
<event>
 4    1  0.7595771E+004  0.2017332E+02  0.7546771E-02  0.1741903E+00
         21   -1    0    0  501  502  0.00000000000E+00  0.00000000000E+00  0.10034479782E+02  0.10034479782E+02  0.00000000000E+00 0.  1.
         21   -1    0    0  502  503 -0.00000000000E+00 -0.00000000000E+00 -0.42010918759E+02  0.42010918759E+02  0.00000000000E+00 0.  1.
          5    1    1    2  501    0  0.56454917483E+01  0.19367274705E+02 -0.11146239169E+02  0.23047810183E+02  0.00000000000E+00 0. -1.
         -5    1    1    2    0  503 -0.56454917483E+01 -0.19367274705E+02 -0.20830199808E+02  0.28997588359E+02  0.00000000000E+00 0.  1.
<mgrwt>
<rscale>  2 0.20173322E+02</rscale>
<asrwt>0</asrwt>
<pdfrwt beam="1">  1       21 0.15437662E-02 0.20173322E+02</pdfrwt>
<pdfrwt beam="2">  1       21 0.64632181E-02 0.20173322E+02</pdfrwt>
<totfact> 0.20249083E+08</totfact>
</mgrwt>
</event>
<event>
 4    1  0.7595771E+004  0.2556969E+02  0.7546771E-02  0.1652952E+00
         21   -1    0    0  501  502  0.00000000000E+00  0.00000000000E+00  0.56281267127E+02  0.56281267127E+02  0.00000000000E+00 0. -1.
         21   -1    0    0  502  503 -0.00000000000E+00 -0.00000000000E+00 -0.15857761324E+02  0.15857761324E+02  0.00000000000E+00 0. -1.
          5    1    1    2  501    0  0.73263290663E+01  0.24497629965E+02  0.38864844839E+02  0.46521878034E+02  0.00000000000E+00 0.  1.
         -5    1    1    2    0  503 -0.73263290663E+01 -0.24497629965E+02  0.15586609641E+01  0.25617150417E+02  0.00000000000E+00 0. -1.
<mgrwt>
<rscale>  2 0.25569689E+02</rscale>
<asrwt>0</asrwt>
<pdfrwt beam="1">  1       21 0.86586564E-02 0.25569689E+02</pdfrwt>
<pdfrwt beam="2">  1       21 0.24396556E-02 0.25569689E+02</pdfrwt>
<totfact> 0.66904982E+07</totfact>
</mgrwt>
</event>
<event>
 4    1  0.7595771E+004  0.3049010E+02  0.7546771E-02  0.1592734E+00
         21   -1    0    0  503  502  0.00000000000E+00  0.00000000000E+00  0.51334433489E+02  0.51334433489E+02  0.00000000000E+00 0. -1.
         21   -1    0    0  501  503 -0.00000000000E+00 -0.00000000000E+00 -0.18383330127E+02  0.18383330127E+02  0.00000000000E+00 0. -1.
          1    1    1    2  501    0 -0.30211572014E+02 -0.41118444295E+01  0.12221936919E+02  0.32848471657E+02  0.00000000000E+00 0.  1.
         -1    1    1    2    0  502  0.30211572014E+02  0.41118444295E+01  0.20729166442E+02  0.36869291959E+02  0.00000000000E+00 0. -1.
<mgrwt>
<rscale>  2 0.30490102E+02</rscale>
<asrwt>0</asrwt>
<pdfrwt beam="1">  1       21 0.78976051E-02 0.30490102E+02</pdfrwt>
<pdfrwt beam="2">  1       21 0.28282047E-02 0.30490102E+02</pdfrwt>
<totfact> 0.64500269E+07</totfact>
</mgrwt>
</event>
<event>
 4    1  0.7595771E+004  0.2082312E+02  0.7546771E-02  0.1729438E+00
         21   -1    0    0  503  502  0.00000000000E+00  0.00000000000E+00  0.46144714882E+02  0.46144714882E+02  0.00000000000E+00 0. -1.
         21   -1    0    0  501  503 -0.00000000000E+00 -0.00000000000E+00 -0.10299123060E+02  0.10299123060E+02  0.00000000000E+00 0. -1.
          5    1    1    2  501    0  0.14276903778E+02 -0.15158250042E+02  0.26277292265E+02  0.33527579909E+02  0.00000000000E+00 0.  1.
         -5    1    1    2    0  502 -0.14276903778E+02  0.15158250042E+02  0.95682995571E+01  0.22916258033E+02  0.00000000000E+00 0. -1.
<mgrwt>
<rscale>  2 0.20823125E+02</rscale>
<asrwt>0</asrwt>
<pdfrwt beam="1">  1       21 0.70991868E-02 0.20823125E+02</pdfrwt>
<pdfrwt beam="2">  1       21 0.15844805E-02 0.20823125E+02</pdfrwt>
<totfact> 0.16908114E+08</totfact>
</mgrwt>
</event>
<event>
 4    1  0.7595771E+004  0.3458506E+02  0.7546771E-02  0.1552317E+00
         21   -1    0    0  501  502  0.00000000000E+00  0.00000000000E+00  0.31526793665E+03  0.31526793665E+03  0.00000000000E+00 0. -1.
         21   -1    0    0  502  503 -0.00000000000E+00 -0.00000000000E+00 -0.40233127315E+01  0.40233127315E+01  0.00000000000E+00 0. -1.
          1    1    1    2  501    0 -0.20959059059E+01 -0.34521491288E+02  0.19373594234E+03  0.19679873358E+03  0.00000000000E+00 0. -1.
         -1    1    1    2    0  503  0.20959059059E+01  0.34521491288E+02  0.11750868157E+03  0.12249251580E+03  0.00000000000E+00 0.  1.
<mgrwt>
<rscale>  2 0.34585057E+02</rscale>
<asrwt>0</asrwt>
<pdfrwt beam="1">  1       21 0.48502740E-01 0.34585057E+02</pdfrwt>
<pdfrwt beam="2">  1       21 0.61897144E-03 0.34585057E+02</pdfrwt>
<totfact> 0.26879898E+07</totfact>
</mgrwt>
</event>
<event>
 4    1  0.7595771E+004  0.2731303E+02  0.7546771E-02  0.1629842E+00
         21   -1    0    0  503  502  0.00000000000E+00  0.00000000000E+00  0.20426315384E+02  0.20426315384E+02  0.00000000000E+00 0.  1.
         21   -1    0    0  501  503 -0.00000000000E+00 -0.00000000000E+00 -0.53715793608E+02  0.53715793608E+02  0.00000000000E+00 0.  1.
          3    1    1    2  501    0  0.16238337970E+02 -0.21961737799E+02 -0.37618434427E+02  0.46488150704E+02  0.00000000000E+00 0.  1.
         -3    1    1    2    0  502 -0.16238337970E+02  0.21961737799E+02  0.43289562036E+01  0.27653958288E+02  0.00000000000E+00 0. -1.
<mgrwt>
<rscale>  2 0.27313029E+02</rscale>
<asrwt>0</asrwt>
<pdfrwt beam="1">  1       21 0.31425101E-02 0.27313029E+02</pdfrwt>
<pdfrwt beam="2">  1       21 0.82639681E-02 0.27313029E+02</pdfrwt>
<totfact> 0.49448374E+07</totfact>
</mgrwt>
</event>
<event>
 4    1  0.7595771E+004  0.3330319E+02  0.7546771E-02  0.1564206E+00
         21   -1    0    0  503  502  0.00000000000E+00  0.00000000000E+00  0.12666029257E+01  0.12666029257E+01  0.00000000000E+00 0. -1.
         21   -1    0    0  501  503 -0.00000000000E+00 -0.00000000000E+00 -0.88153305393E+03  0.88153305393E+03  0.00000000000E+00 0. -1.
          1    1    1    2  501    0  0.17516141611E+02  0.28324679223E+02 -0.40407857546E+03  0.40544863771E+03  0.00000000000E+00 0.  1.
         -1    1    1    2    0  502 -0.17516141611E+02 -0.28324679223E+02 -0.47618787554E+03  0.47735101915E+03  0.00000000000E+00 0. -1.
<mgrwt>
<rscale>  2 0.33303193E+02</rscale>
<asrwt>0</asrwt>
<pdfrwt beam="1">  1       21 0.19486131E-03 0.33303193E+02</pdfrwt>
<pdfrwt beam="2">  1       21 0.13562094E+00 0.33303193E+02</pdfrwt>
<totfact> 0.16244929E+07</totfact>
</mgrwt>
</event>
<event>
 4    1  0.7595771E+004  0.3049295E+02  0.7546771E-02  0.1592703E+00
         21   -1    0    0  503  502  0.00000000000E+00  0.00000000000E+00  0.14432341255E+02  0.14432341255E+02  0.00000000000E+00 0.  1.
         21   -1    0    0  501  503 -0.00000000000E+00 -0.00000000000E+00 -0.65693223518E+02  0.65693223518E+02  0.00000000000E+00 0.  1.
          1    1    1    2  501    0 -0.19936112087E+02 -0.23073179086E+02 -0.20066506528E+02  0.36503216879E+02  0.00000000000E+00 0. -1.
         -1    1    1    2    0  502  0.19936112087E+02  0.23073179086E+02 -0.31194375735E+02  0.43622347894E+02  0.00000000000E+00 0.  1.
<mgrwt>
<rscale>  2 0.30492953E+02</rscale>
<asrwt>0</asrwt>
<pdfrwt beam="1">  1       21 0.22203602E-02 0.30492953E+02</pdfrwt>
<pdfrwt beam="2">  1       21 0.10106650E-01 0.30492953E+02</pdfrwt>
<totfact> 0.62497253E+07</totfact>
</mgrwt>
</event>
<event>
 4    1  0.7595771E+004  0.2480473E+02  0.7546771E-02  0.1663823E+00
         21   -1    0    0  501  502  0.00000000000E+00  0.00000000000E+00  0.41325007569E+02  0.41325007569E+02  0.00000000000E+00 0.  1.
         21   -1    0    0  502  503 -0.00000000000E+00 -0.00000000000E+00 -0.14888907971E+02  0.14888907971E+02  0.00000000000E+00 0.  1.
          4    1    1    2  501    0  0.24315728753E+02 -0.49010345102E+01  0.13108011301E+02  0.28055209219E+02  0.00000000000E+00 0. -1.
         -4    1    1    2    0  503 -0.24315728753E+02  0.49010345102E+01  0.13328088297E+02  0.28158706321E+02  0.00000000000E+00 0.  1.
<mgrwt>
<rscale>  2 0.24804734E+02</rscale>
<asrwt>0</asrwt>
<pdfrwt beam="1">  1       21 0.63576934E-02 0.24804734E+02</pdfrwt>
<pdfrwt beam="2">  1       21 0.22906012E-02 0.24804734E+02</pdfrwt>
<totfact> 0.12111550E+08</totfact>
</mgrwt>
</event>
<event>
 4    1  0.7595771E+004  0.3011349E+02  0.7546771E-02  0.1596838E+00
         21   -1    0    0  503  502  0.00000000000E+00  0.00000000000E+00  0.21052514430E+02  0.21052514430E+02  0.00000000000E+00 0. -1.
         21   -1    0    0  501  503 -0.00000000000E+00 -0.00000000000E+00 -0.49345643389E+02  0.49345643389E+02  0.00000000000E+00 0. -1.
          2    1    1    2  501    0  0.12319238618E+02  0.27478334254E+02 -0.26694922470E+02  0.40242283474E+02  0.00000000000E+00 0. -1.
         -2    1    1    2    0  502 -0.12319238618E+02 -0.27478334254E+02 -0.15982064895E+01  0.30155874345E+02  0.00000000000E+00 0.  1.
<mgrwt>
<rscale>  2 0.30113494E+02</rscale>
<asrwt>0</asrwt>
<pdfrwt beam="1">  1       21 0.32388484E-02 0.30113494E+02</pdfrwt>
<pdfrwt beam="2">  1       21 0.75916374E-02 0.30113494E+02</pdfrwt>
<totfact> 0.55456739E+07</totfact>
</mgrwt>
</event>
<event>
 4    1  0.7595771E+004  0.2897918E+02  0.7546771E-02  0.1609655E+00
         21   -1    0    0  501  502  0.00000000000E+00  0.00000000000E+00  0.74047774148E+02  0.74047774148E+02  0.00000000000E+00 0.  1.
         21   -1    0    0  502  503 -0.00000000000E+00 -0.00000000000E+00 -0.12184229352E+02  0.12184229352E+02  0.00000000000E+00 0.  1.
          5    1    1    2  501    0 -0.97013405725E+01 -0.27307079375E+02  0.19590705301E+02  0.34979827431E+02  0.00000000000E+00 0. -1.
         -5    1    1    2    0  503  0.97013405725E+01  0.27307079375E+02  0.42272839495E+02  0.51252176069E+02  0.00000000000E+00 0.  1.
<mgrwt>
<rscale>  2 0.28979175E+02</rscale>
<asrwt>0</asrwt>
<pdfrwt beam="1">  1       21 0.11391965E-01 0.28979175E+02</pdfrwt>
<pdfrwt beam="2">  1       21 0.18744969E-02 0.28979175E+02</pdfrwt>
<totfact> 0.65685431E+07</totfact>
</mgrwt>
</event>
<event>
 4    1  0.7595771E+004  0.2693646E+02  0.7546771E-02  0.1634651E+00
         21   -1    0    0  503  502  0.00000000000E+00  0.00000000000E+00  0.14744498820E+02  0.14744498820E+02  0.00000000000E+00 0. -1.
         21   -1    0    0  501  503 -0.00000000000E+00 -0.00000000000E+00 -0.51524857231E+02  0.51524857231E+02  0.00000000000E+00 0. -1.
          4    1    1    2  501    0  0.24059515732E+02 -0.12112489920E+02 -0.25413821778E+02  0.37032891416E+02  0.00000000000E+00 0.  1.
         -4    1    1    2    0  502 -0.24059515732E+02  0.12112489920E+02 -0.11366536632E+02  0.29236464634E+02  0.00000000000E+00 0. -1.
<mgrwt>
<rscale>  2 0.26936457E+02</rscale>
<asrwt>0</asrwt>
<pdfrwt beam="1">  1       21 0.22683845E-02 0.26936457E+02</pdfrwt>
<pdfrwt beam="2">  1       21 0.79269010E-02 0.26936457E+02</pdfrwt>
<totfact> 0.87743045E+07</totfact>
</mgrwt>
</event>
<event>
 4    1  0.7595771E+004  0.4302073E+02  0.7546771E-02  0.1487090E+00
         21   -1    0    0  501  502  0.00000000000E+00  0.00000000000E+00  0.22211985871E+03  0.22211985871E+03  0.00000000000E+00 0. -1.
         21   -1    0    0  502  503 -0.00000000000E+00 -0.00000000000E+00 -0.87052059697E+01  0.87052059697E+01  0.00000000000E+00 0. -1.
          2    1    1    2  501    0 -0.42207666996E+02 -0.83244118287E+01  0.82822217332E+02  0.93329002295E+02  0.00000000000E+00 0. -1.
         -2    1    1    2    0  503  0.42207666996E+02  0.83244118287E+01  0.13059243541E+03  0.13749606239E+03  0.00000000000E+00 0.  1.
<mgrwt>
<rscale>  2 0.43020727E+02</rscale>
<asrwt>0</asrwt>
<pdfrwt beam="1">  1       21 0.34172282E-01 0.43020727E+02</pdfrwt>
<pdfrwt beam="2">  1       21 0.13392626E-02 0.43020727E+02</pdfrwt>
<totfact> 0.16855838E+07</totfact>
</mgrwt>
</event>
<event>
 4    1  0.7595771E+004  0.2140056E+02  0.7546771E-02  0.1718830E+00
         21   -1    0    0  501  502  0.00000000000E+00  0.00000000000E+00  0.45056077501E+01  0.45056077501E+01  0.00000000000E+00 0. -1.
         21   -1    0    0  502  503 -0.00000000000E+00 -0.00000000000E+00 -0.10196488765E+03  0.10196488765E+03  0.00000000000E+00 0. -1.
          4    1    1    2  501    0  0.21273172875E+02  0.23315024653E+01 -0.45759579405E+02  0.50516560603E+02  0.00000000000E+00 0.  1.
         -4    1    1    2    0  503 -0.21273172875E+02 -0.23315024653E+01 -0.51699700498E+02  0.55953934799E+02  0.00000000000E+00 0. -1.
<mgrwt>
<rscale>  2 0.21400556E+02</rscale>
<asrwt>0</asrwt>
<pdfrwt beam="1">  1       21 0.69317042E-03 0.21400556E+02</pdfrwt>
<pdfrwt beam="2">  1       21 0.15686906E-01 0.21400556E+02</pdfrwt>
<totfact> 0.15854107E+08</totfact>
</mgrwt>
</event>
<event>
 4    1  0.7595771E+004  0.2068564E+02  0.7546771E-02  0.1732027E+00
         21   -1    0    0  503  502  0.00000000000E+00  0.00000000000E+00  0.78963485762E+01  0.78963485762E+01  0.00000000000E+00 0. -1.
         21   -1    0    0  501  503 -0.00000000000E+00 -0.00000000000E+00 -0.60702061767E+02  0.60702061767E+02  0.00000000000E+00 0. -1.
          4    1    1    2  501    0  0.20658549149E+02 -0.10584167217E+01 -0.15167881301E+02  0.25650741160E+02  0.00000000000E+00 0.  1.
         -4    1    1    2    0  502 -0.20658549149E+02  0.10584167217E+01 -0.37637831890E+02  0.42947669183E+02  0.00000000000E+00 0. -1.
<mgrwt>
<rscale>  2 0.20685645E+02</rscale>
<asrwt>0</asrwt>
<pdfrwt beam="1">  1       21 0.12148229E-02 0.20685645E+02</pdfrwt>
<pdfrwt beam="2">  1       21 0.93387786E-02 0.20685645E+02</pdfrwt>
<totfact> 0.16136413E+08</totfact>
</mgrwt>
</event>
<event>
 4    1  0.7595771E+004  0.2248995E+02  0.7546771E-02  0.1699914E+00
         21   -1    0    0  501  502  0.00000000000E+00  0.00000000000E+00  0.38149145039E+02  0.38149145039E+02  0.00000000000E+00 0.  1.
         21   -1    0    0  502  503 -0.00000000000E+00 -0.00000000000E+00 -0.13259218791E+02  0.13259218791E+02  0.00000000000E+00 0.  1.
          3    1    1    2  501    0 -0.16730306928E+01 -0.22427636281E+02  0.12642784291E+02  0.25799959214E+02  0.00000000000E+00 0. -1.
         -3    1    1    2    0  503  0.16730306928E+01  0.22427636281E+02  0.12247141958E+02  0.25608404616E+02  0.00000000000E+00 0.  1.
<mgrwt>
<rscale>  2 0.22489951E+02</rscale>
<asrwt>0</asrwt>
<pdfrwt beam="1">  1       21 0.58690992E-02 0.22489951E+02</pdfrwt>
<pdfrwt beam="2">  1       21 0.20398798E-02 0.22489951E+02</pdfrwt>
<totfact> 0.15996604E+08</totfact>
</mgrwt>
</event>
<event>
 4    1  0.7595771E+004  0.2457863E+02  0.7546771E-02  0.1667129E+00
         21   -1    0    0  503  502  0.00000000000E+00  0.00000000000E+00  0.18207789692E+02  0.18207789692E+02  0.00000000000E+00 0. -1.
         21   -1    0    0  501  503 -0.00000000000E+00 -0.00000000000E+00 -0.33532062075E+02  0.33532062075E+02  0.00000000000E+00 0. -1.
          4    1    1    2  501    0  0.15544445104E+02  0.19038894668E+02 -0.50061493813E+01  0.25083277605E+02  0.00000000000E+00 0. -1.
         -4    1    1    2    0  502 -0.15544445104E+02 -0.19038894668E+02 -0.10318123001E+02  0.26656574162E+02  0.00000000000E+00 0.  1.
<mgrwt>
<rscale>  2 0.24578635E+02</rscale>
<asrwt>0</asrwt>
<pdfrwt beam="1">  1       21 0.28011984E-02 0.24578635E+02</pdfrwt>
<pdfrwt beam="2">  1       21 0.51587788E-02 0.24578635E+02</pdfrwt>
<totfact> 0.12370162E+08</totfact>
</mgrwt>
</event>
<event>
 4    1  0.7595771E+004  0.2468004E+02  0.7546771E-02  0.1665641E+00
         21   -1    0    0  501  502  0.00000000000E+00  0.00000000000E+00  0.59419929321E+02  0.59419929321E+02  0.00000000000E+00 0. -1.
         21   -1    0    0  502  503 -0.00000000000E+00 -0.00000000000E+00 -0.10257276771E+02  0.10257276771E+02  0.00000000000E+00 0. -1.
          1    1    1    2  501    0  0.24333621060E+02  0.41205934864E+01  0.25453807070E+02  0.35454205660E+02  0.00000000000E+00 0. -1.
         -1    1    1    2    0  503 -0.24333621060E+02 -0.41205934864E+01  0.23708845480E+02  0.34223000432E+02  0.00000000000E+00 0.  1.
<mgrwt>
<rscale>  2 0.24680041E+02</rscale>
<asrwt>0</asrwt>
<pdfrwt beam="1">  1       21 0.91415274E-02 0.24680041E+02</pdfrwt>
<pdfrwt beam="2">  1       21 0.15780426E-02 0.24680041E+02</pdfrwt>
<totfact> 0.11850208E+08</totfact>
</mgrwt>
</event>
<event>
 4    1  0.7595771E+004  0.2217811E+02  0.7546771E-02  0.1705190E+00
         21   -1    0    0  503  502  0.00000000000E+00  0.00000000000E+00  0.20770212301E+00  0.20770212301E+00  0.00000000000E+00 0. -1.
         21   -1    0    0  501  503 -0.00000000000E+00 -0.00000000000E+00 -0.24461958500E+04  0.24461958500E+04  0.00000000000E+00 0. -1.
          3    1    1    2  501    0 -0.22173062457E+02 -0.47326265981E+00 -0.14414894335E+04  0.14416600346E+04  0.00000000000E+00 0. -1.
         -3    1    1    2    0  502  0.22173062457E+02  0.47326265981E+00 -0.10044987144E+04  0.10047435175E+04  0.00000000000E+00 0.  1.
<mgrwt>
<rscale>  2 0.22178113E+02</rscale>
<asrwt>0</asrwt>
<pdfrwt beam="1">  1       21 0.31951182E-04 0.22178113E+02</pdfrwt>
<pdfrwt beam="2">  1       21 0.37637305E+00 0.22178113E+02</pdfrwt>
<totfact> 0.10183030E+07</totfact>
</mgrwt>
</event>
<event>
 4    1  0.7595771E+004  0.2326302E+02  0.7546771E-02  0.1687282E+00
         21   -1    0    0  501  502  0.00000000000E+00  0.00000000000E+00  0.42208143356E+01  0.42208143356E+01  0.00000000000E+00 0. -1.
         21   -1    0    0  502  503 -0.00000000000E+00 -0.00000000000E+00 -0.25868842320E+03  0.25868842320E+03  0.00000000000E+00 0. -1.
          5    1    1    2  501    0  0.23020531027E+02 -0.33500945882E+01 -0.33876167251E+02  0.41094557914E+02  0.00000000000E+00 0.  1.
         -5    1    1    2    0  503 -0.23020531027E+02  0.33500945882E+01 -0.22059144161E+03  0.22181467962E+03  0.00000000000E+00 0. -1.
<mgrwt>
<rscale>  2 0.23263017E+02</rscale>
<asrwt>0</asrwt>
<pdfrwt beam="1">  1       21 0.64935592E-03 0.23263017E+02</pdfrwt>
<pdfrwt beam="2">  1       21 0.39798227E-01 0.23263017E+02</pdfrwt>
<totfact> 0.33895291E+07</totfact>
</mgrwt>
</event>
<event>
 4    1  0.7595771E+004  0.3038829E+02  0.7546771E-02  0.1593836E+00
         21   -1    0    0  501  502  0.00000000000E+00  0.00000000000E+00  0.14140422803E+04  0.14140422803E+04  0.00000000000E+00 0. -1.
         21   -1    0    0  502  503 -0.00000000000E+00 -0.00000000000E+00 -0.65609085871E+00  0.65609085871E+00  0.00000000000E+00 0. -1.
          5    1    1    2  501    0 -0.25275763097E+02  0.16869612036E+02  0.75480591585E+03  0.75541738040E+03  0.00000000000E+00 0.  1.
         -5    1    1    2    0  503  0.25275763097E+02 -0.16869612036E+02  0.65858027364E+03  0.65928099081E+03  0.00000000000E+00 0. -1.
<mgrwt>
<rscale>  2 0.30388287E+02</rscale>
<asrwt>0</asrwt>
<pdfrwt beam="1">  1       21 0.21754253E+00 0.30388287E+02</pdfrwt>
<pdfrwt beam="2">  1       21 0.10093819E-03 0.30388287E+02</pdfrwt>
<totfact> 0.12652387E+07</totfact>
</mgrwt>
</event>
<event>
 4    1  0.7595771E+004  0.2738797E+02  0.7546771E-02  0.1628896E+00
         21   -1    0    0  503  502  0.00000000000E+00  0.00000000000E+00  0.15905984476E+03  0.15905984476E+03  0.00000000000E+00 0.  1.
         21   -1    0    0  501  503 -0.00000000000E+00 -0.00000000000E+00 -0.47428862984E+01  0.47428862984E+01  0.00000000000E+00 0.  1.
          2    1    1    2  501    0  0.97775838897E+00 -0.27370511186E+02  0.70973790311E+02  0.76074830300E+02  0.00000000000E+00 0. -1.
         -2    1    1    2    0  502 -0.97775838897E+00  0.27370511186E+02  0.83343168145E+02  0.87727900753E+02  0.00000000000E+00 0.  1.
<mgrwt>
<rscale>  2 0.27387970E+02</rscale>
<asrwt>0</asrwt>
<pdfrwt beam="1">  1       21 0.24470741E-01 0.27387970E+02</pdfrwt>
<pdfrwt beam="2">  1       21 0.72967494E-03 0.27387970E+02</pdfrwt>
<totfact> 0.72207000E+07</totfact>
</mgrwt>
</event>
<event>
 4    1  0.7595771E+004  0.2398486E+02  0.7546771E-02  0.1676026E+00
         21   -1    0    0  501  502  0.00000000000E+00  0.00000000000E+00  0.89679116570E+02  0.89679116570E+02  0.00000000000E+00 0.  1.
         21   -1    0    0  502  503 -0.00000000000E+00 -0.00000000000E+00 -0.70800419052E+01  0.70800419052E+01  0.00000000000E+00 0.  1.
          3    1    1    2  501    0  0.14767610326E+02  0.18899503881E+02  0.26469778084E+02  0.35720060379E+02  0.00000000000E+00 0.  1.
         -3    1    1    2    0  503 -0.14767610326E+02 -0.18899503881E+02  0.56129296582E+02  0.61039098097E+02  0.00000000000E+00 0. -1.
<mgrwt>
<rscale>  2 0.23984861E+02</rscale>
<asrwt>0</asrwt>
<pdfrwt beam="1">  1       21 0.13796786E-01 0.23984861E+02</pdfrwt>
<pdfrwt beam="2">  1       21 0.10892373E-02 0.23984861E+02</pdfrwt>
<totfact> 0.10369166E+08</totfact>
</mgrwt>
</event>
<event>
 4    1  0.7595771E+004  0.2891267E+02  0.7546771E-02  0.1610428E+00
         21   -1    0    0  503  502  0.00000000000E+00  0.00000000000E+00  0.38873692793E+03  0.38873692793E+03  0.00000000000E+00 0.  1.
         21   -1    0    0  501  503 -0.00000000000E+00 -0.00000000000E+00 -0.21516521649E+01  0.21516521649E+01  0.00000000000E+00 0.  1.
          4    1    1    2  501    0 -0.28772974807E+02 -0.28387456805E+01  0.19799455446E+03  0.20009444308E+03  0.00000000000E+00 0. -1.
         -4    1    1    2    0  502  0.28772974807E+02  0.28387456805E+01  0.18859072130E+03  0.19079413701E+03  0.00000000000E+00 0.  1.
<mgrwt>
<rscale>  2 0.28912671E+02</rscale>
<asrwt>0</asrwt>
<pdfrwt beam="1">  1       21 0.59805625E-01 0.28912671E+02</pdfrwt>
<pdfrwt beam="2">  1       21 0.33102372E-03 0.28912671E+02</pdfrwt>
<totfact> 0.43455414E+07</totfact>
</mgrwt>
</event>
<event>
 4    1  0.7595771E+004  0.2052568E+02  0.7546771E-02  0.1735072E+00
         21   -1    0    0  501  502  0.00000000000E+00  0.00000000000E+00  0.71092815658E+00  0.71092815658E+00  0.00000000000E+00 0.  1.
         21   -1    0    0  502  503 -0.00000000000E+00 -0.00000000000E+00 -0.59872079439E+03  0.59872079439E+03  0.00000000000E+00 0.  1.
          4    1    1    2  501    0 -0.85971535701E+01  0.18638470547E+02 -0.26872733296E+03  0.26951007980E+03  0.00000000000E+00 0. -1.
         -4    1    1    2    0  503  0.85971535701E+01 -0.18638470547E+02 -0.32928253327E+03  0.32992164274E+03  0.00000000000E+00 0.  1.
<mgrwt>
<rscale>  2 0.20525682E+02</rscale>
<asrwt>0</asrwt>
<pdfrwt beam="1">  1       21 0.10937323E-03 0.20525682E+02</pdfrwt>
<pdfrwt beam="2">  1       21 0.92111172E-01 0.20525682E+02</pdfrwt>
<totfact> 0.81313183E+07</totfact>
</mgrwt>
</event>
<event>
 4    1  0.7595771E+004  0.2111362E+02  0.7546771E-02  0.1724048E+00
         21   -1    0    0  501  502  0.00000000000E+00  0.00000000000E+00  0.46095509392E+03  0.46095509392E+03  0.00000000000E+00 0.  1.
         21   -1    0    0  502  503 -0.00000000000E+00 -0.00000000000E+00 -0.98389665005E+00  0.98389665005E+00  0.00000000000E+00 0.  1.
          4    1    1    2  501    0 -0.72819426666E+01 -0.19818132764E+02  0.26017260772E+03  0.26102791208E+03  0.00000000000E+00 0.  1.
         -4    1    1    2    0  503  0.72819426666E+01  0.19818132764E+02  0.19979858954E+03  0.20091107849E+03  0.00000000000E+00 0. -1.
<mgrwt>
<rscale>  2 0.21113623E+02</rscale>
<asrwt>0</asrwt>
<pdfrwt beam="1">  1       21 0.70915996E-01 0.21113623E+02</pdfrwt>
<pdfrwt beam="2">  1       21 0.15136908E-03 0.21113623E+02</pdfrwt>
<totfact> 0.89056338E+07</totfact>
</mgrwt>
</event>
<event>
 4    1  0.7595771E+004  0.2738958E+02  0.7546771E-02  0.1628876E+00
         21   -1    0    0  501  502  0.00000000000E+00  0.00000000000E+00  0.28205529887E+02  0.28205529887E+02  0.00000000000E+00 0.  1.
         21   -1    0    0  502  503 -0.00000000000E+00 -0.00000000000E+00 -0.26746222328E+02  0.26746222328E+02  0.00000000000E+00 0.  1.
          2    1    1    2  501    0  0.77995930038E+01 -0.26255579528E+02  0.27803198996E+01  0.27530333926E+02  0.00000000000E+00 0. -1.
         -2    1    1    2    0  503 -0.77995930038E+01  0.26255579528E+02 -0.13210123401E+01  0.27421418289E+02  0.00000000000E+00 0.  1.
<mgrwt>
<rscale>  2 0.27389580E+02</rscale>
<asrwt>0</asrwt>
<pdfrwt beam="1">  1       21 0.43393123E-02 0.27389580E+02</pdfrwt>
<pdfrwt beam="2">  1       21 0.41148034E-02 0.27389580E+02</pdfrwt>
<totfact> 0.91662036E+07</totfact>
</mgrwt>
</event>
<event>
 4    1  0.7595771E+004  0.2113044E+02  0.7546771E-02  0.1723739E+00
         21   -1    0    0  501  502  0.00000000000E+00  0.00000000000E+00  0.15907725177E+03  0.15907725177E+03  0.00000000000E+00 0. -1.
         21   -1    0    0  502  503 -0.00000000000E+00 -0.00000000000E+00 -0.37436046833E+01  0.37436046833E+01  0.00000000000E+00 0. -1.
          4    1    1    2  501    0  0.18410522119E+02  0.10370545731E+02  0.36941626113E+02  0.42557952057E+02  0.00000000000E+00 0.  1.
         -4    1    1    2    0  503 -0.18410522119E+02 -0.10370545731E+02  0.11839202097E+03  0.12026290439E+03  0.00000000000E+00 0. -1.
<mgrwt>
<rscale>  2 0.21130441E+02</rscale>
<asrwt>0</asrwt>
<pdfrwt beam="1">  1       21 0.24473418E-01 0.21130441E+02</pdfrwt>
<pdfrwt beam="2">  1       21 0.57593931E-03 0.21130441E+02</pdfrwt>
<totfact> 0.95985917E+07</totfact>
</mgrwt>
</event>
<event>
 4    1  0.7595771E+004  0.2128238E+02  0.7546771E-02  0.1720967E+00
         21   -1    0    0  501  502  0.00000000000E+00  0.00000000000E+00  0.73502503053E+01  0.73502503053E+01  0.00000000000E+00 0.  1.
         21   -1    0    0  502  503 -0.00000000000E+00 -0.00000000000E+00 -0.67315497389E+02  0.67315497389E+02  0.00000000000E+00 0.  1.
          3    1    1    2  501    0  0.20752191246E+02 -0.47208370533E+01 -0.19125622925E+02  0.28613444327E+02  0.00000000000E+00 0.  1.
         -3    1    1    2    0  503 -0.20752191246E+02  0.47208370533E+01 -0.40839624159E+02  0.46052303367E+02  0.00000000000E+00 0. -1.
<mgrwt>
<rscale>  2 0.21282381E+02</rscale>
<asrwt>0</asrwt>
<pdfrwt beam="1">  1       21 0.11308077E-02 0.21282381E+02</pdfrwt>
<pdfrwt beam="2">  1       21 0.10356230E-01 0.21282381E+02</pdfrwt>
<totfact> 0.15292529E+08</totfact>
</mgrwt>
</event>
<event>
 4    1  0.7595771E+004  0.2049964E+02  0.7546771E-02  0.1735571E+00
         21   -1    0    0  501  502  0.00000000000E+00  0.00000000000E+00  0.11881469764E+03  0.11881469764E+03  0.00000000000E+00 0.  1.
         21   -1    0    0  502  503 -0.00000000000E+00 -0.00000000000E+00 -0.35430426677E+01  0.35430426677E+01  0.00000000000E+00 0.  1.
          3    1    1    2  501    0 -0.42972668315E+01  0.20044169245E+02  0.60184035505E+02  0.63579504187E+02  0.00000000000E+00 0. -1.
         -3    1    1    2    0  503  0.42972668315E+01 -0.20044169245E+02  0.55087619468E+02  0.58778236122E+02  0.00000000000E+00 0.  1.
<mgrwt>
<rscale>  2 0.20499640E+02</rscale>
<asrwt>0</asrwt>
<pdfrwt beam="1">  1       21 0.18279181E-01 0.20499640E+02</pdfrwt>
<pdfrwt beam="2">  1       21 0.54508358E-03 0.20499640E+02</pdfrwt>
<totfact> 0.17178140E+08</totfact>
</mgrwt>
</event>
<event>
 4    1  0.7595771E+004  0.3315983E+02  0.7546771E-02  0.1565576E+00
         21   -1    0    0  501  502  0.00000000000E+00  0.00000000000E+00  0.62309961989E+02  0.62309961989E+02  0.00000000000E+00 0.  1.
         21   -1    0    0  502  503 -0.00000000000E+00 -0.00000000000E+00 -0.26725729762E+02  0.26725729762E+02  0.00000000000E+00 0.  1.
          3    1    1    2  501    0  0.20755332803E+02  0.25860987178E+02 -0.81547857126E+01  0.34147840746E+02  0.00000000000E+00 0.  1.
         -3    1    1    2    0  503 -0.20755332803E+02 -0.25860987178E+02  0.43739017940E+02  0.54887851005E+02  0.00000000000E+00 0. -1.
<mgrwt>
<rscale>  2 0.33159833E+02</rscale>
<asrwt>0</asrwt>
<pdfrwt beam="1">  1       21 0.95861479E-02 0.33159833E+02</pdfrwt>
<pdfrwt beam="2">  1       21 0.41116508E-02 0.33159833E+02</pdfrwt>
<totfact> 0.26297395E+07</totfact>
</mgrwt>
</event>
<event>
 4    1  0.7595771E+004  0.2262241E+02  0.7546771E-02  0.1697705E+00
         21   -1    0    0  501  502  0.00000000000E+00  0.00000000000E+00  0.58215824614E+03  0.58215824614E+03  0.00000000000E+00 0.  1.
         21   -1    0    0  502  503 -0.00000000000E+00 -0.00000000000E+00 -0.89082920227E+00  0.89082920227E+00  0.00000000000E+00 0.  1.
          2    1    1    2  501    0  0.19478903299E+02 -0.11504158426E+02  0.25717762740E+03  0.25817069038E+03  0.00000000000E+00 0.  1.
         -2    1    1    2    0  503 -0.19478903299E+02  0.11504158426E+02  0.32408978953E+03  0.32487838496E+03  0.00000000000E+00 0. -1.
<mgrwt>
<rscale>  2 0.22622408E+02</rscale>
<asrwt>0</asrwt>
<pdfrwt beam="1">  1       21 0.89562503E-01 0.22622408E+02</pdfrwt>
<pdfrwt beam="2">  1       21 0.13705111E-03 0.22622408E+02</pdfrwt>
<totfact> 0.64078630E+07</totfact>
</mgrwt>
</event>
<event>
 4    1  0.7595771E+004  0.2034128E+02  0.7546771E-02  0.1738625E+00
         21   -1    0    0  501  502  0.00000000000E+00  0.00000000000E+00  0.87744325023E+02  0.87744325023E+02  0.00000000000E+00 0. -1.
         21   -1    0    0  502  503 -0.00000000000E+00 -0.00000000000E+00 -0.11563908107E+02  0.11563908107E+02  0.00000000000E+00 0. -1.
          5    1    1    2  501    0 -0.78671772641E+01 -0.18758336038E+02 -0.12131955952E+00  0.20341641218E+02  0.00000000000E+00 0. -1.
         -5    1    1    2    0  503  0.78671772641E+01  0.18758336038E+02  0.76301736476E+02  0.78966591912E+02  0.00000000000E+00 0.  1.
<mgrwt>
<rscale>  2 0.20341279E+02</rscale>
<asrwt>0</asrwt>
<pdfrwt beam="1">  1       21 0.13499126E-01 0.20341279E+02</pdfrwt>
<pdfrwt beam="2">  1       21 0.17790628E-02 0.20341279E+02</pdfrwt>
<totfact> 0.48935016E+07</totfact>
</mgrwt>
</event>
<event>
 4    1  0.7595771E+004  0.3821367E+02  0.7546771E-02  0.1521784E+00
         21   -1    0    0  503  502  0.00000000000E+00  0.00000000000E+00  0.11478048641E+03  0.11478048641E+03  0.00000000000E+00 0.  1.
         21   -1    0    0  501  503 -0.00000000000E+00 -0.00000000000E+00 -0.16702228698E+02  0.16702228698E+02  0.00000000000E+00 0.  1.
          3    1    1    2  501    0  0.27572833508E+01 -0.38114062023E+02  0.16948137499E+02  0.41803393404E+02  0.00000000000E+00 0.  1.
         -3    1    1    2    0  502 -0.27572833508E+01  0.38114062023E+02  0.81130120215E+02  0.89679321705E+02  0.00000000000E+00 0. -1.
<mgrwt>
<rscale>  2 0.38213667E+02</rscale>
<asrwt>0</asrwt>
<pdfrwt beam="1">  1       21 0.17658536E-01 0.38213667E+02</pdfrwt>
<pdfrwt beam="2">  1       21 0.25695737E-02 0.38213667E+02</pdfrwt>
<totfact> 0.19943716E+07</totfact>
</mgrwt>
</event>
<event>
 4    1  0.7595771E+004  0.2912114E+02  0.7546771E-02  0.1608011E+00
         21   -1    0    0  503  502  0.00000000000E+00  0.00000000000E+00  0.60377687035E+02  0.60377687035E+02  0.00000000000E+00 0.  1.
         21   -1    0    0  501  503 -0.00000000000E+00 -0.00000000000E+00 -0.14293810196E+02  0.14293810196E+02  0.00000000000E+00 0.  1.
          3    1    1    2  501    0  0.24141188133E+02  0.16286311416E+02  0.18121999005E+02  0.34299384134E+02  0.00000000000E+00 0.  1.
         -3    1    1    2    0  502 -0.24141188133E+02 -0.16286311416E+02  0.27961877834E+02  0.40372113098E+02  0.00000000000E+00 0. -1.
<mgrwt>
<rscale>  2 0.29121142E+02</rscale>
<asrwt>0</asrwt>
<pdfrwt beam="1">  1       21 0.92888748E-02 0.29121142E+02</pdfrwt>
<pdfrwt beam="2">  1       21 0.21990478E-02 0.29121142E+02</pdfrwt>
<totfact> 0.72261095E+07</totfact>
</mgrwt>
</event>
<event>
 4    1  0.7595771E+004  0.2016203E+02  0.7546771E-02  0.1742125E+00
         21   -1    0    0  501  502  0.00000000000E+00  0.00000000000E+00  0.43982993220E+02  0.43982993220E+02  0.00000000000E+00 0.  1.
         21   -1    0    0  502  503 -0.00000000000E+00 -0.00000000000E+00 -0.18123279098E+02  0.18123279098E+02  0.00000000000E+00 0.  1.
          2    1    1    2  501    0  0.11452085478E+02  0.16593886372E+02  0.34667660779E+02  0.40104289429E+02  0.00000000000E+00 0. -1.
         -2    1    1    2    0  503 -0.11452085478E+02 -0.16593886372E+02 -0.88079466564E+01  0.22001982889E+02  0.00000000000E+00 0.  1.
<mgrwt>
<rscale>  2 0.20162027E+02</rscale>
<asrwt>0</asrwt>
<pdfrwt beam="1">  1       21 0.67666143E-02 0.20162027E+02</pdfrwt>
<pdfrwt beam="2">  1       21 0.27881968E-02 0.20162027E+02</pdfrwt>
<totfact> 0.76175712E+07</totfact>
</mgrwt>
</event>
<event>
 4    1  0.7595771E+004  0.2018579E+02  0.7546771E-02  0.1741658E+00
         21   -1    0    0  501  502  0.00000000000E+00  0.00000000000E+00  0.50524356774E+01  0.50524356774E+01  0.00000000000E+00 0. -1.
         21   -1    0    0  502  503 -0.00000000000E+00 -0.00000000000E+00 -0.80677050973E+02  0.80677050973E+02  0.00000000000E+00 0. -1.
          4    1    1    2  501    0 -0.19498125212E+02  0.52239042107E+01 -0.38633351141E+02  0.43589011028E+02  0.00000000000E+00 0.  1.
         -4    1    1    2    0  503  0.19498125212E+02 -0.52239042107E+01 -0.36991264154E+02  0.42140475623E+02  0.00000000000E+00 0. -1.
<mgrwt>
<rscale>  2 0.20185789E+02</rscale>
<asrwt>0</asrwt>
<pdfrwt beam="1">  1       21 0.77729773E-03 0.20185789E+02</pdfrwt>
<pdfrwt beam="2">  1       21 0.12411855E-01 0.20185789E+02</pdfrwt>
<totfact> 0.19494958E+08</totfact>
</mgrwt>
</event>
<event>
 4    1  0.7595771E+004  0.2484049E+02  0.7546771E-02  0.1663304E+00
         21   -1    0    0  501  502  0.00000000000E+00  0.00000000000E+00  0.13411412318E+02  0.13411412318E+02  0.00000000000E+00 0. -1.
         21   -1    0    0  502  503 -0.00000000000E+00 -0.00000000000E+00 -0.53971839290E+02  0.53971839290E+02  0.00000000000E+00 0. -1.
          3    1    1    2  501    0 -0.48112589001E+00  0.24835834934E+02 -0.73393527163E+01  0.25902051604E+02  0.00000000000E+00 0.  1.
         -3    1    1    2    0  503  0.48112589001E+00 -0.24835834934E+02 -0.33221074256E+02  0.41481200003E+02  0.00000000000E+00 0. -1.
<mgrwt>
<rscale>  2 0.24840495E+02</rscale>
<asrwt>0</asrwt>
<pdfrwt beam="1">  1       21 0.20632942E-02 0.24840495E+02</pdfrwt>
<pdfrwt beam="2">  1       21 0.83033600E-02 0.24840495E+02</pdfrwt>
<totfact> 0.92180823E+07</totfact>
</mgrwt>
</event>
<event>
 4    1  0.7595771E+004  0.2373158E+02  0.7546771E-02  0.1679919E+00
         21   -1    0    0  503  502  0.00000000000E+00  0.00000000000E+00  0.90400417620E+00  0.90400417620E+00  0.00000000000E+00 0. -1.
         21   -1    0    0  501  503 -0.00000000000E+00 -0.00000000000E+00 -0.63936025491E+03  0.63936025491E+03  0.00000000000E+00 0. -1.
          4    1    1    2  501    0  0.25774930847E+01  0.23591196191E+02 -0.37044915026E+03  0.37120851409E+03  0.00000000000E+00 0. -1.
         -4    1    1    2    0  502 -0.25774930847E+01 -0.23591196191E+02 -0.26800710048E+03  0.26905574499E+03  0.00000000000E+00 0.  1.
<mgrwt>
<rscale>  2 0.23731583E+02</rscale>
<asrwt>0</asrwt>
<pdfrwt beam="1">  1       21 0.13907694E-03 0.23731583E+02</pdfrwt>
<pdfrwt beam="2">  1       21 0.98363559E-01 0.23731583E+02</pdfrwt>
<totfact> 0.51800269E+07</totfact>
</mgrwt>
</event>
<event>
 4    1  0.7595771E+004  0.2005739E+02  0.7546771E-02  0.1744189E+00
         21   -1    0    0  503  502  0.00000000000E+00  0.00000000000E+00  0.12646737830E+04  0.12646737830E+04  0.00000000000E+00 0.  1.
         21   -1    0    0  501  503 -0.00000000000E+00 -0.00000000000E+00 -0.31986445258E+00  0.31986445258E+00  0.00000000000E+00 0.  1.
          5    1    1    2  501    0  0.19144244729E+02  0.59830583555E+01  0.67908640048E+03  0.67938254203E+03  0.00000000000E+00 0.  1.
         -5    1    1    2    0  502 -0.19144244729E+02 -0.59830583555E+01  0.58526751808E+03  0.58561110544E+03  0.00000000000E+00 0. -1.
<mgrwt>
<rscale>  2 0.20057395E+02</rscale>
<asrwt>0</asrwt>
<pdfrwt beam="1">  1       21 0.19456119E+00 0.20057395E+02</pdfrwt>
<pdfrwt beam="2">  1       21 0.49210928E-04 0.20057395E+02</pdfrwt>
<totfact> 0.44411531E+07</totfact>
</mgrwt>
</event>
<event>
 4    1  0.7595771E+004  0.3124610E+02  0.7546771E-02  0.1584709E+00
         21   -1    0    0  503  502  0.00000000000E+00  0.00000000000E+00  0.11726017591E+02  0.11726017591E+02  0.00000000000E+00 0.  1.
         21   -1    0    0  501  503 -0.00000000000E+00 -0.00000000000E+00 -0.85639659692E+02  0.85639659692E+02  0.00000000000E+00 0.  1.
          4    1    1    2  501    0 -0.63036236646E+01  0.30603648695E+02 -0.45070393206E+02  0.54842130962E+02  0.00000000000E+00 0. -1.
         -4    1    1    2    0  502  0.63036236646E+01 -0.30603648695E+02 -0.28843248896E+02  0.42523546320E+02  0.00000000000E+00 0.  1.
<mgrwt>
<rscale>  2 0.31246104E+02</rscale>
<asrwt>0</asrwt>
<pdfrwt beam="1">  1       21 0.18040027E-02 0.31246104E+02</pdfrwt>
<pdfrwt beam="2">  1       21 0.13175332E-01 0.31246104E+02</pdfrwt>
<totfact> 0.55388921E+07</totfact>
</mgrwt>
</event>
<event>
 4    1  0.7595771E+004  0.2363668E+02  0.7546771E-02  0.1681393E+00
         21   -1    0    0  501  502  0.00000000000E+00  0.00000000000E+00  0.72183039126E+02  0.72183039126E+02  0.00000000000E+00 0.  1.
         21   -1    0    0  502  503 -0.00000000000E+00 -0.00000000000E+00 -0.11896347845E+02  0.11896347845E+02  0.00000000000E+00 0.  1.
          5    1    1    2  501    0  0.23555153905E+02  0.19614299627E+01  0.52941848824E+01  0.24222321866E+02  0.00000000000E+00 0.  1.
         -5    1    1    2    0  503 -0.23555153905E+02 -0.19614299627E+01  0.54992506398E+02  0.59857065105E+02  0.00000000000E+00 0. -1.
<mgrwt>
<rscale>  2 0.23636677E+02</rscale>
<asrwt>0</asrwt>
<pdfrwt beam="1">  1       21 0.11105083E-01 0.23636677E+02</pdfrwt>
<pdfrwt beam="2">  1       21 0.18302074E-02 0.23636677E+02</pdfrwt>
<totfact> 0.67611037E+07</totfact>
</mgrwt>
</event>
<event>
 4    1  0.7595771E+004  0.2276845E+02  0.7546771E-02  0.1695291E+00
         21   -1    0    0  501  502  0.00000000000E+00  0.00000000000E+00  0.34528089600E+03  0.34528089600E+03  0.00000000000E+00 0.  1.
         21   -1    0    0  502  503 -0.00000000000E+00 -0.00000000000E+00 -0.34881292518E+01  0.34881292518E+01  0.00000000000E+00 0.  1.
          4    1    1    2  501    0  0.22663933913E+02  0.21790553170E+01  0.39288538003E+02  0.45409155474E+02  0.00000000000E+00 0. -1.
         -4    1    1    2    0  503 -0.22663933913E+02 -0.21790553170E+01  0.30250422875E+03  0.30335986978E+03  0.00000000000E+00 0.  1.
<mgrwt>
<rscale>  2 0.22768447E+02</rscale>
<asrwt>0</asrwt>
<pdfrwt beam="1">  1       21 0.53120111E-01 0.22768447E+02</pdfrwt>
<pdfrwt beam="2">  1       21 0.53663554E-03 0.22768447E+02</pdfrwt>
<totfact> 0.25693338E+07</totfact>
</mgrwt>
</event>
<event>
 4    1  0.7595771E+004  0.2244258E+02  0.7546771E-02  0.1700708E+00
         21   -1    0    0  503  502  0.00000000000E+00  0.00000000000E+00  0.23489201440E+02  0.23489201440E+02  0.00000000000E+00 0.  1.
         21   -1    0    0  501  503 -0.00000000000E+00 -0.00000000000E+00 -0.21488545522E+02  0.21488545522E+02  0.00000000000E+00 0.  1.
          1    1    1    2  501    0 -0.57693990986E+01 -0.21688328601E+02 -0.39552060869E-01  0.22442618560E+02  0.00000000000E+00 0. -1.
         -1    1    1    2    0  502  0.57693990986E+01  0.21688328601E+02  0.20402079794E+01  0.22535128402E+02  0.00000000000E+00 0.  1.
<mgrwt>
<rscale>  2 0.22442584E+02</rscale>
<asrwt>0</asrwt>
<pdfrwt beam="1">  1       21 0.36137233E-02 0.22442584E+02</pdfrwt>
<pdfrwt beam="2">  1       21 0.33059301E-02 0.22442584E+02</pdfrwt>
<totfact> 0.16330278E+08</totfact>
</mgrwt>
</event>
<event>
 4    1  0.7595771E+004  0.2169152E+02  0.7546771E-02  0.1713642E+00
         21   -1    0    0  503  502  0.00000000000E+00  0.00000000000E+00  0.62595248573E+02  0.62595248573E+02  0.00000000000E+00 0. -1.
         21   -1    0    0  501  503 -0.00000000000E+00 -0.00000000000E+00 -0.87062913169E+01  0.87062913169E+01  0.00000000000E+00 0. -1.
          4    1    1    2  501    0 -0.19181715905E+02 -0.10128357002E+02  0.13767500766E+02  0.25691748052E+02  0.00000000000E+00 0.  1.
         -4    1    1    2    0  502  0.19181715905E+02  0.10128357002E+02  0.40121456490E+02  0.45609791838E+02  0.00000000000E+00 0. -1.
<mgrwt>
<rscale>  2 0.21691515E+02</rscale>
<asrwt>0</asrwt>
<pdfrwt beam="1">  1       21 0.96300380E-02 0.21691515E+02</pdfrwt>
<pdfrwt beam="2">  1       21 0.13394295E-02 0.21691515E+02</pdfrwt>
<totfact> 0.13434776E+08</totfact>
</mgrwt>
</event>
<event>
 4    1  0.7595771E+004  0.2209043E+02  0.7546771E-02  0.1706693E+00
         21   -1    0    0  503  502  0.00000000000E+00  0.00000000000E+00  0.51283181560E+00  0.51283181560E+00  0.00000000000E+00 0.  1.
         21   -1    0    0  501  503 -0.00000000000E+00 -0.00000000000E+00 -0.99923698486E+03  0.99923698486E+03  0.00000000000E+00 0.  1.
          4    1    1    2  501    0 -0.21575819709E+02  0.47403746711E+01 -0.60855863680E+03  0.60895944165E+03  0.00000000000E+00 0.  1.
         -4    1    1    2    0  502  0.21575819709E+02 -0.47403746711E+01 -0.39016551624E+03  0.39079037503E+03  0.00000000000E+00 0. -1.
<mgrwt>
<rscale>  2 0.22090431E+02</rscale>
<asrwt>0</asrwt>
<pdfrwt beam="1">  1       21 0.78897593E-04 0.22090431E+02</pdfrwt>
<pdfrwt beam="2">  1       21 0.15372801E+00 0.22090431E+02</pdfrwt>
<totfact> 0.41411787E+07</totfact>
</mgrwt>
</event>
<event>
 4    1  0.7595771E+004  0.2030548E+02  0.7546771E-02  0.1739321E+00
         21   -1    0    0  501  502  0.00000000000E+00  0.00000000000E+00  0.10592340249E+03  0.10592340249E+03  0.00000000000E+00 0. -1.
         21   -1    0    0  502  503 -0.00000000000E+00 -0.00000000000E+00 -0.42868257614E+01  0.42868257614E+01  0.00000000000E+00 0. -1.
          1    1    1    2  501    0 -0.17109602872E+02 -0.10934984480E+02  0.67530068008E+02  0.70516824100E+02  0.00000000000E+00 0. -1.
         -1    1    1    2    0  503  0.17109602872E+02  0.10934984480E+02  0.34106508721E+02  0.39693404152E+02  0.00000000000E+00 0.  1.
<mgrwt>
<rscale>  2 0.20305477E+02</rscale>
<asrwt>0</asrwt>
<pdfrwt beam="1">  1       21 0.16295906E-01 0.20305477E+02</pdfrwt>
<pdfrwt beam="2">  1       21 0.65951173E-03 0.20305477E+02</pdfrwt>
<totfact> 0.15742155E+08</totfact>
</mgrwt>
</event>
<event>
 4    1  0.7595771E+004  0.2874832E+02  0.7546771E-02  0.1612351E+00
         21   -1    0    0  503  502  0.00000000000E+00  0.00000000000E+00  0.35375102640E+01  0.35375102640E+01  0.00000000000E+00 0.  1.
         21   -1    0    0  501  503 -0.00000000000E+00 -0.00000000000E+00 -0.42170158886E+03  0.42170158886E+03  0.00000000000E+00 0.  1.
          2    1    1    2  501    0 -0.17158857597E+02  0.23065986263E+02 -0.67090339770E+02  0.72990272001E+02  0.00000000000E+00 0.  1.
         -2    1    1    2    0  502  0.17158857597E+02 -0.23065986263E+02 -0.35107373882E+03  0.35224882712E+03  0.00000000000E+00 0. -1.
<mgrwt>
<rscale>  2 0.28748324E+02</rscale>
<asrwt>0</asrwt>
<pdfrwt beam="1">  1       21 0.54423267E-03 0.28748324E+02</pdfrwt>
<pdfrwt beam="2">  1       21 0.64877129E-01 0.28748324E+02</pdfrwt>
<totfact> 0.17629609E+07</totfact>
</mgrwt>
</event>
<event>
 4    1  0.7595771E+004  0.2298882E+02  0.7546771E-02  0.1691691E+00
         21   -1    0    0  501  502  0.00000000000E+00  0.00000000000E+00  0.31821364412E+01  0.31821364412E+01  0.00000000000E+00 0. -1.
         21   -1    0    0  502  503 -0.00000000000E+00 -0.00000000000E+00 -0.17200611378E+03  0.17200611378E+03  0.00000000000E+00 0. -1.
          3    1    1    2  501    0 -0.21590695350E+02  0.78947850593E+01 -0.10067226445E+03  0.10326369442E+03  0.00000000000E+00 0.  1.
         -3    1    1    2    0  503  0.21590695350E+02 -0.78947850593E+01 -0.68151712893E+02  0.71924555801E+02  0.00000000000E+00 0. -1.
<mgrwt>
<rscale>  2 0.22988818E+02</rscale>
<asrwt>0</asrwt>
<pdfrwt beam="1">  1       21 0.48955939E-03 0.22988818E+02</pdfrwt>
<pdfrwt beam="2">  1       21 0.26462483E-01 0.22988818E+02</pdfrwt>
<totfact> 0.10862022E+08</totfact>
</mgrwt>
</event>
<event>
 4    1  0.7595771E+004  0.2036361E+02  0.7546771E-02  0.1738192E+00
         21   -1    0    0  501  502  0.00000000000E+00  0.00000000000E+00  0.67175109524E+03  0.67175109524E+03  0.00000000000E+00 0.  1.
         21   -1    0    0  502  503 -0.00000000000E+00 -0.00000000000E+00 -0.93331783578E+00  0.93331783578E+00  0.00000000000E+00 0.  1.
          1    1    1    2  501    0 -0.80990529573E-01  0.20363453058E+02  0.13969689362E+03  0.14117329374E+03  0.00000000000E+00 0.  1.
         -1    1    1    2    0  503  0.80990529573E-01 -0.20363453058E+02  0.53112088378E+03  0.53151111933E+03  0.00000000000E+00 0. -1.
<mgrwt>
<rscale>  2 0.20363614E+02</rscale>
<asrwt>0</asrwt>
<pdfrwt beam="1">  1       21 0.10334594E+00 0.20363614E+02</pdfrwt>
<pdfrwt beam="2">  1       21 0.14358790E-03 0.20363614E+02</pdfrwt>
<totfact> 0.42933402E+07</totfact>
</mgrwt>
</event>
<event>
 4    1  0.7595771E+004  0.2220636E+02  0.7546771E-02  0.1704707E+00
         21   -1    0    0  503  502  0.00000000000E+00  0.00000000000E+00  0.17909496464E+02  0.17909496464E+02  0.00000000000E+00 0.  1.
         21   -1    0    0  501  503 -0.00000000000E+00 -0.00000000000E+00 -0.36884572602E+02  0.36884572602E+02  0.00000000000E+00 0.  1.
          2    1    1    2  501    0  0.13447448535E+02 -0.17671688051E+02 -0.23281760636E+02  0.32173946121E+02  0.00000000000E+00 0. -1.
         -2    1    1    2    0  502 -0.13447448535E+02  0.17671688051E+02  0.43066844987E+01  0.22620122945E+02  0.00000000000E+00 0.  1.
<mgrwt>
<rscale>  2 0.22206360E+02</rscale>
<asrwt>0</asrwt>
<pdfrwt beam="1">  1       21 0.27553072E-02 0.22206360E+02</pdfrwt>
<pdfrwt beam="2">  1       21 0.56745495E-02 0.22206360E+02</pdfrwt>
<totfact> 0.10580154E+08</totfact>
</mgrwt>
</event>
<event>
 4    1  0.7595771E+004  0.2186984E+02  0.7546771E-02  0.1710513E+00
         21   -1    0    0  503  502  0.00000000000E+00  0.00000000000E+00  0.16752954660E+03  0.16752954660E+03  0.00000000000E+00 0.  1.
         21   -1    0    0  501  503 -0.00000000000E+00 -0.00000000000E+00 -0.28620654373E+01  0.28620654373E+01  0.00000000000E+00 0.  1.
          5    1    1    2  501    0  0.18891902660E+02  0.11017536279E+02  0.86578814492E+02  0.89298271040E+02  0.00000000000E+00 0.  1.
         -5    1    1    2    0  502 -0.18891902660E+02 -0.11017536279E+02  0.78088666672E+02  0.81093340999E+02  0.00000000000E+00 0. -1.
<mgrwt>
<rscale>  2 0.21869844E+02</rscale>
<asrwt>0</asrwt>
<pdfrwt beam="1">  1       21 0.25773769E-01 0.21869844E+02</pdfrwt>
<pdfrwt beam="2">  1       21 0.44031789E-03 0.21869844E+02</pdfrwt>
<totfact> 0.13123596E+08</totfact>
</mgrwt>
</event>
<event>
 4    1  0.7595771E+004  0.3999575E+02  0.7546771E-02  0.1508243E+00
         21   -1    0    0  501  502  0.00000000000E+00  0.00000000000E+00  0.81305834975E+02  0.81305834975E+02  0.00000000000E+00 0. -1.
         21   -1    0    0  502  503 -0.00000000000E+00 -0.00000000000E+00 -0.20068647499E+02  0.20068647499E+02  0.00000000000E+00 0. -1.
          5    1    1    2  501    0 -0.35350347947E+02 -0.18708638573E+02  0.37721084224E+02  0.54977635928E+02  0.00000000000E+00 0.  1.
         -5    1    1    2    0  503  0.35350347947E+02  0.18708638573E+02  0.23516103252E+02  0.46396846546E+02  0.00000000000E+00 0. -1.
<mgrwt>
<rscale>  2 0.39995753E+02</rscale>
<asrwt>0</asrwt>
<pdfrwt beam="1">  1       21 0.12508590E-01 0.39995753E+02</pdfrwt>
<pdfrwt beam="2">  1       21 0.30874843E-02 0.39995753E+02</pdfrwt>
<totfact> 0.27354759E+07</totfact>
</mgrwt>
</event>
<event>
 4    1  0.7595771E+004  0.2145880E+02  0.7546771E-02  0.1717783E+00
         21   -1    0    0  501  502  0.00000000000E+00  0.00000000000E+00  0.38998547530E+02  0.38998547530E+02  0.00000000000E+00 0. -1.
         21   -1    0    0  502  503 -0.00000000000E+00 -0.00000000000E+00 -0.17041964077E+02  0.17041964077E+02  0.00000000000E+00 0. -1.
          1    1    1    2  501    0 -0.16966827929E+02  0.13137994142E+02  0.26507284555E+02  0.34104490533E+02  0.00000000000E+00 0.  1.
         -1    1    1    2    0  503  0.16966827929E+02 -0.13137994142E+02 -0.45507011029E+01  0.21936021074E+02  0.00000000000E+00 0. -1.
<mgrwt>
<rscale>  2 0.21458801E+02</rscale>
<asrwt>0</asrwt>
<pdfrwt beam="1">  1       21 0.59997765E-02 0.21458801E+02</pdfrwt>
<pdfrwt beam="2">  1       21 0.26218406E-02 0.21458801E+02</pdfrwt>
<totfact> 0.10345892E+08</totfact>
</mgrwt>
</event>
<event>
 4    1  0.7595771E+004  0.2184100E+02  0.7546771E-02  0.1711016E+00
         21   -1    0    0  503  502  0.00000000000E+00  0.00000000000E+00  0.10368769707E+03  0.10368769707E+03  0.00000000000E+00 0.  1.
         21   -1    0    0  501  503 -0.00000000000E+00 -0.00000000000E+00 -0.56402876080E+01  0.56402876080E+01  0.00000000000E+00 0.  1.
          1    1    1    2  501    0  0.13293308408E+02 -0.17329663324E+02  0.25554694039E+02  0.33616538590E+02  0.00000000000E+00 0. -1.
         -1    1    1    2    0  502 -0.13293308408E+02  0.17329663324E+02  0.72492715422E+02  0.75711446087E+02  0.00000000000E+00 0.  1.
<mgrwt>
<rscale>  2 0.21841000E+02</rscale>
<asrwt>0</asrwt>
<pdfrwt beam="1">  1       21 0.15951952E-01 0.21841000E+02</pdfrwt>
<pdfrwt beam="2">  1       21 0.86773663E-03 0.21841000E+02</pdfrwt>
<totfact> 0.11095664E+08</totfact>
</mgrwt>
</event>
<event>
 4    1  0.7595771E+004  0.3149957E+02  0.7546771E-02  0.1582081E+00
         21   -1    0    0  501  502  0.00000000000E+00  0.00000000000E+00  0.20281423505E+02  0.20281423505E+02  0.00000000000E+00 0. -1.
         21   -1    0    0  502  503 -0.00000000000E+00 -0.00000000000E+00 -0.15338143258E+03  0.15338143258E+03  0.00000000000E+00 0. -1.
          5    1    1    2  501    0 -0.30713932973E+02  0.69912401288E+01 -0.13820769554E+03  0.14175186145E+03  0.00000000000E+00 0. -1.
         -5    1    1    2    0  503  0.30713932973E+02 -0.69912401288E+01  0.51076864723E+01  0.31910994631E+02  0.00000000000E+00 0.  1.
<mgrwt>
<rscale>  2 0.31499573E+02</rscale>
<asrwt>0</asrwt>
<pdfrwt beam="1">  1       21 0.31202191E-02 0.31499573E+02</pdfrwt>
<pdfrwt beam="2">  1       21 0.23597142E-01 0.31499573E+02</pdfrwt>
<totfact> 0.85117669E+06</totfact>
</mgrwt>
</event>
<event>
 4    1  0.7595771E+004  0.2089701E+02  0.7546771E-02  0.1728057E+00
         21   -1    0    0  503  502  0.00000000000E+00  0.00000000000E+00  0.95934779353E+00  0.95934779353E+00  0.00000000000E+00 0.  1.
         21   -1    0    0  501  503 -0.00000000000E+00 -0.00000000000E+00 -0.45545264272E+03  0.45545264272E+03  0.00000000000E+00 0.  1.
          2    1    1    2  501    0  0.64789727619E+01  0.19867257360E+02 -0.23273238490E+03  0.23366867138E+03  0.00000000000E+00 0. -1.
         -2    1    1    2    0  502 -0.64789727619E+01 -0.19867257360E+02 -0.22176091003E+03  0.22274331913E+03  0.00000000000E+00 0.  1.
<mgrwt>
<rscale>  2 0.20897009E+02</rscale>
<asrwt>0</asrwt>
<pdfrwt beam="1">  1       21 0.14759175E-03 0.20897009E+02</pdfrwt>
<pdfrwt beam="2">  1       21 0.70069739E-01 0.20897009E+02</pdfrwt>
<totfact> 0.94376787E+07</totfact>
</mgrwt>
</event>
<event>
 4    1  0.7595771E+004  0.2069301E+02  0.7546771E-02  0.1731888E+00
         21   -1    0    0  503  502  0.00000000000E+00  0.00000000000E+00  0.29921644796E+02  0.29921644796E+02  0.00000000000E+00 0.  1.
         21   -1    0    0  501  503 -0.00000000000E+00 -0.00000000000E+00 -0.23534685667E+02  0.23534685667E+02  0.00000000000E+00 0.  1.
          5    1    1    2  501    0  0.20641973273E+02  0.14524997529E+01  0.19926462335E+02  0.28727421000E+02  0.00000000000E+00 0.  1.
         -5    1    1    2    0  502 -0.20641973273E+02 -0.14524997529E+01 -0.13539503207E+02  0.24728909463E+02  0.00000000000E+00 0. -1.
<mgrwt>
<rscale>  2 0.20693014E+02</rscale>
<asrwt>0</asrwt>
<pdfrwt beam="1">  1       21 0.46033300E-02 0.20693014E+02</pdfrwt>
<pdfrwt beam="2">  1       21 0.36207209E-02 0.20693014E+02</pdfrwt>
<totfact> 0.94473485E+07</totfact>
</mgrwt>
</event>
<event>
 4    1  0.7595771E+004  0.2261539E+02  0.7546771E-02  0.1697821E+00
         21   -1    0    0  501  502  0.00000000000E+00  0.00000000000E+00  0.35198051188E+01  0.35198051188E+01  0.00000000000E+00 0. -1.
         21   -1    0    0  502  503 -0.00000000000E+00 -0.00000000000E+00 -0.14864381786E+03  0.14864381786E+03  0.00000000000E+00 0. -1.
          4    1    1    2  501    0  0.18612299215E+01 -0.22538674647E+02 -0.83959387721E+02  0.86951910952E+02  0.00000000000E+00 0.  1.
         -4    1    1    2    0  503 -0.18612299215E+01  0.22538674647E+02 -0.61164625022E+02  0.65211712029E+02  0.00000000000E+00 0. -1.
<mgrwt>
<rscale>  2 0.22615394E+02</rscale>
<asrwt>0</asrwt>
<pdfrwt beam="1">  1       21 0.54150855E-03 0.22615394E+02</pdfrwt>
<pdfrwt beam="2">  1       21 0.22868277E-01 0.22615394E+02</pdfrwt>
<totfact> 0.12081160E+08</totfact>
</mgrwt>
</event>
<event>
 4    1  0.7595771E+004  0.2484914E+02  0.7546771E-02  0.1663178E+00
         21   -1    0    0  503  502  0.00000000000E+00  0.00000000000E+00  0.40879595820E+02  0.40879595820E+02  0.00000000000E+00 0. -1.
         21   -1    0    0  501  503 -0.00000000000E+00 -0.00000000000E+00 -0.15200893639E+02  0.15200893639E+02  0.00000000000E+00 0. -1.
          1    1    1    2  501    0 -0.24180789791E+02 -0.57244387923E+01  0.10610392897E+02  0.27019626790E+02  0.00000000000E+00 0.  1.
         -1    1    1    2    0  502  0.24180789791E+02  0.57244387923E+01  0.15068309283E+02  0.29060862669E+02  0.00000000000E+00 0. -1.
<mgrwt>
<rscale>  2 0.24849141E+02</rscale>
<asrwt>0</asrwt>
<pdfrwt beam="1">  1       21 0.62891686E-02 0.24849141E+02</pdfrwt>
<pdfrwt beam="2">  1       21 0.23385990E-02 0.24849141E+02</pdfrwt>
<totfact> 0.11942261E+08</totfact>
</mgrwt>
</event>
<event>
 4    1  0.7595771E+004  0.3503877E+02  0.7546771E-02  0.1548257E+00
         21   -1    0    0  501  502  0.00000000000E+00  0.00000000000E+00  0.36287764439E+02  0.36287764439E+02  0.00000000000E+00 0. -1.
         21   -1    0    0  502  503 -0.00000000000E+00 -0.00000000000E+00 -0.59002580738E+02  0.59002580738E+02  0.00000000000E+00 0. -1.
          3    1    1    2  501    0  0.90906369561E+01 -0.33838968885E+02  0.19761431698E+02  0.40227225584E+02  0.00000000000E+00 0.  1.
         -3    1    1    2    0  503 -0.90906369561E+01  0.33838968885E+02 -0.42476247997E+02  0.55063119593E+02  0.00000000000E+00 0. -1.
<mgrwt>
<rscale>  2 0.35038771E+02</rscale>
<asrwt>0</asrwt>
<pdfrwt beam="1">  1       21 0.55827330E-02 0.35038771E+02</pdfrwt>
<pdfrwt beam="2">  1       21 0.90773200E-02 0.35038771E+02</pdfrwt>
<totfact> 0.17771283E+07</totfact>
</mgrwt>
</event>
<event>
 4    1  0.7595771E+004  0.2279681E+02  0.7546771E-02  0.1694825E+00
         21   -1    0    0  503  502  0.00000000000E+00  0.00000000000E+00  0.47361682986E+02  0.47361682986E+02  0.00000000000E+00 0.  1.
         21   -1    0    0  501  503 -0.00000000000E+00 -0.00000000000E+00 -0.13003037867E+02  0.13003037867E+02  0.00000000000E+00 0.  1.
          5    1    1    2  501    0  0.22714158619E+02 -0.19394170319E+01  0.52533153148E+01  0.23394265579E+02  0.00000000000E+00 0.  1.
         -5    1    1    2    0  502 -0.22714158619E+02  0.19394170319E+01  0.29105329803E+02  0.36970455274E+02  0.00000000000E+00 0. -1.
<mgrwt>
<rscale>  2 0.22796805E+02</rscale>
<asrwt>0</asrwt>
<pdfrwt beam="1">  1       21 0.72864127E-02 0.22796805E+02</pdfrwt>
<pdfrwt beam="2">  1       21 0.20004674E-02 0.22796805E+02</pdfrwt>
<totfact> 0.11676125E+08</totfact>
</mgrwt>
</event>
<event>
 4    1  0.7595771E+004  0.2054517E+02  0.7546771E-02  0.1734699E+00
         21   -1    0    0  501  502  0.00000000000E+00  0.00000000000E+00  0.44979556176E+02  0.44979556176E+02  0.00000000000E+00 0.  1.
         21   -1    0    0  502  503 -0.00000000000E+00 -0.00000000000E+00 -0.24338700608E+02  0.24338700608E+02  0.00000000000E+00 0.  1.
          3    1    1    2  501    0  0.19577394183E+02  0.62313595856E+01 -0.16847256567E+02  0.26569423387E+02  0.00000000000E+00 0.  1.
         -3    1    1    2    0  503 -0.19577394183E+02 -0.62313595856E+01  0.37488112135E+02  0.42748833396E+02  0.00000000000E+00 0. -1.
<mgrwt>
<rscale>  2 0.20545175E+02</rscale>
<asrwt>0</asrwt>
<pdfrwt beam="1">  1       21 0.69199317E-02 0.20545175E+02</pdfrwt>
<pdfrwt beam="2">  1       21 0.37444155E-02 0.20545175E+02</pdfrwt>
<totfact> 0.46705539E+07</totfact>
</mgrwt>
</event>
<event>
 4    1  0.7595771E+004  0.2030325E+02  0.7546771E-02  0.1739364E+00
         21   -1    0    0  503  502  0.00000000000E+00  0.00000000000E+00  0.75876226556E+03  0.75876226556E+03  0.00000000000E+00 0. -1.
         21   -1    0    0  501  503 -0.00000000000E+00 -0.00000000000E+00 -0.67379430609E+00  0.67379430609E+00  0.00000000000E+00 0. -1.
          1    1    1    2  501    0 -0.15303121653E+02  0.13343023715E+02  0.21192615877E+03  0.21289649736E+03  0.00000000000E+00 0.  1.
         -1    1    1    2    0  502  0.15303121653E+02 -0.13343023715E+02  0.54616231249E+03  0.54653956252E+03  0.00000000000E+00 0. -1.
<mgrwt>
<rscale>  2 0.20303246E+02</rscale>
<asrwt>0</asrwt>
<pdfrwt beam="1">  1       21 0.11673197E+00 0.20303246E+02</pdfrwt>
<pdfrwt beam="2">  1       21 0.10366127E-03 0.20303246E+02</pdfrwt>
<totfact> 0.52103366E+07</totfact>
</mgrwt>
</event>
<event>
 4    1  0.7595771E+004  0.2724620E+02  0.7546771E-02  0.1630688E+00
         21   -1    0    0  501  502  0.00000000000E+00  0.00000000000E+00  0.97731954390E+00  0.97731954390E+00  0.00000000000E+00 0. -1.
         21   -1    0    0  502  503 -0.00000000000E+00 -0.00000000000E+00 -0.78393932839E+03  0.78393932839E+03  0.00000000000E+00 0. -1.
          3    1    1    2  501    0  0.24616850303E+02 -0.11677596989E+02 -0.46065704209E+03  0.46146209597E+03  0.00000000000E+00 0. -1.
         -3    1    1    2    0  503 -0.24616850303E+02  0.11677596989E+02 -0.32230496676E+03  0.32345455197E+03  0.00000000000E+00 0.  1.
<mgrwt>
<rscale>  2 0.27246203E+02</rscale>
<asrwt>0</asrwt>
<pdfrwt beam="1">  1       21 0.15035624E-03 0.27246203E+02</pdfrwt>
<pdfrwt beam="2">  1       21 0.12060654E+00 0.27246203E+02</pdfrwt>
<totfact> 0.30163030E+07</totfact>
</mgrwt>
</event>
<event>
 4    1  0.7595771E+004  0.2529523E+02  0.7546771E-02  0.1656797E+00
         21   -1    0    0  503  502  0.00000000000E+00  0.00000000000E+00  0.25967680528E+01  0.25967680528E+01  0.00000000000E+00 0.  1.
         21   -1    0    0  501  503 -0.00000000000E+00 -0.00000000000E+00 -0.26277458790E+03  0.26277458790E+03  0.00000000000E+00 0.  1.
          5    1    1    2  501    0  0.18977290782E+02 -0.16724558313E+02 -0.16320912931E+03  0.16515770738E+03  0.00000000000E+00 0. -1.
         -5    1    1    2    0  502 -0.18977290782E+02  0.16724558313E+02 -0.96968690539E+02  0.10021364858E+03  0.00000000000E+00 0.  1.
<mgrwt>
<rscale>  2 0.25295225E+02</rscale>
<asrwt>0</asrwt>
<pdfrwt beam="1">  1       21 0.39950294E-03 0.25295225E+02</pdfrwt>
<pdfrwt beam="2">  1       21 0.40426843E-01 0.25295225E+02</pdfrwt>
<totfact> 0.68789920E+07</totfact>
</mgrwt>
</event>
<event>
 4    1  0.7595771E+004  0.2167883E+02  0.7546771E-02  0.1713866E+00
         21   -1    0    0  503  502  0.00000000000E+00  0.00000000000E+00  0.35732193654E+01  0.35732193654E+01  0.00000000000E+00 0. -1.
         21   -1    0    0  501  503 -0.00000000000E+00 -0.00000000000E+00 -0.14518409051E+03  0.14518409051E+03  0.00000000000E+00 0. -1.
          4    1    1    2  501    0  0.95426976680E+01  0.19465575070E+02 -0.93618405906E+02  0.96095669080E+02  0.00000000000E+00 0.  1.
         -4    1    1    2    0  502 -0.95426976680E+01 -0.19465575070E+02 -0.47992465243E+02  0.52661640799E+02  0.00000000000E+00 0. -1.
<mgrwt>
<rscale>  2 0.21678830E+02</rscale>
<asrwt>0</asrwt>
<pdfrwt beam="1">  1       21 0.54972595E-03 0.21678830E+02</pdfrwt>
<pdfrwt beam="2">  1       21 0.22336018E-01 0.21678830E+02</pdfrwt>
<totfact> 0.12169180E+08</totfact>
</mgrwt>
</event>
<event>
 4    1  0.7595771E+004  0.2400394E+02  0.7546771E-02  0.1675735E+00
         21   -1    0    0  503  502  0.00000000000E+00  0.00000000000E+00  0.81713612852E+02  0.81713612852E+02  0.00000000000E+00 0. -1.
         21   -1    0    0  501  503 -0.00000000000E+00 -0.00000000000E+00 -0.82118983372E+01  0.82118983372E+01  0.00000000000E+00 0. -1.
          2    1    1    2  501    0  0.12089865331E+02  0.20737023762E+02  0.19847693917E+02  0.31146748660E+02  0.00000000000E+00 0. -1.
         -2    1    1    2    0  502 -0.12089865331E+02 -0.20737023762E+02  0.53654020598E+02  0.58778762530E+02  0.00000000000E+00 0.  1.
<mgrwt>
<rscale>  2 0.24003937E+02</rscale>
<asrwt>0</asrwt>
<pdfrwt beam="1">  1       21 0.12571325E-01 0.24003937E+02</pdfrwt>
<pdfrwt beam="2">  1       21 0.12633690E-02 0.24003937E+02</pdfrwt>
<totfact> 0.96993384E+07</totfact>
</mgrwt>
</event>
<event>
 4    1  0.7595771E+004  0.3041939E+02  0.7546771E-02  0.1593499E+00
         21   -1    0    0  503  502  0.00000000000E+00  0.00000000000E+00  0.53148196686E+01  0.53148196686E+01  0.00000000000E+00 0. -1.
         21   -1    0    0  501  503 -0.00000000000E+00 -0.00000000000E+00 -0.18397167140E+03  0.18397167140E+03  0.00000000000E+00 0. -1.
          4    1    1    2  501    0 -0.16434674634E+02  0.25597673733E+02 -0.67411073889E+02  0.73956692150E+02  0.00000000000E+00 0.  1.
         -4    1    1    2    0  502  0.16434674634E+02 -0.25597673733E+02 -0.11124577784E+03  0.11532979892E+03  0.00000000000E+00 0. -1.
<mgrwt>
<rscale>  2 0.30419392E+02</rscale>
<asrwt>0</asrwt>
<pdfrwt beam="1">  1       21 0.81766461E-03 0.30419392E+02</pdfrwt>
<pdfrwt beam="2">  1       21 0.28303333E-01 0.30419392E+02</pdfrwt>
<totfact> 0.47871097E+07</totfact>
</mgrwt>
</event>
<event>
 4    1  0.7595771E+004  0.2177573E+02  0.7546771E-02  0.1712160E+00
         21   -1    0    0  501  502  0.00000000000E+00  0.00000000000E+00  0.31150790038E+00  0.31150790038E+00  0.00000000000E+00 0.  1.
         21   -1    0    0  502  503 -0.00000000000E+00 -0.00000000000E+00 -0.15816331313E+04  0.15816331313E+04  0.00000000000E+00 0.  1.
          5    1    1    2  501    0  0.16083734678E+02  0.14679776094E+02 -0.94396845626E+03  0.94421958715E+03  0.00000000000E+00 0. -1.
         -5    1    1    2    0  503 -0.16083734678E+02 -0.14679776094E+02 -0.63735316712E+03  0.63772505203E+03  0.00000000000E+00 0.  1.
<mgrwt>
<rscale>  2 0.21775728E+02</rscale>
<asrwt>0</asrwt>
<pdfrwt beam="1">  1       21 0.47924439E-04 0.21775728E+02</pdfrwt>
<pdfrwt beam="2">  1       21 0.24332743E+00 0.21775728E+02</pdfrwt>
<totfact> 0.25859470E+07</totfact>
</mgrwt>
</event>
<event>
 4    1  0.7595771E+004  0.2376382E+02  0.7546771E-02  0.1679420E+00
         21   -1    0    0  503  502  0.00000000000E+00  0.00000000000E+00  0.47526406324E+02  0.47526406324E+02  0.00000000000E+00 0. -1.
         21   -1    0    0  501  503 -0.00000000000E+00 -0.00000000000E+00 -0.17685506758E+02  0.17685506758E+02  0.00000000000E+00 0. -1.
          4    1    1    2  501    0 -0.23693536156E+02 -0.18263476079E+01 -0.37573285984E+01  0.24059025736E+02  0.00000000000E+00 0. -1.
         -4    1    1    2    0  502  0.23693536156E+02  0.18263476079E+01  0.33598228164E+02  0.41152887347E+02  0.00000000000E+00 0.  1.
<mgrwt>
<rscale>  2 0.23763821E+02</rscale>
<asrwt>0</asrwt>
<pdfrwt beam="1">  1       21 0.73117548E-02 0.23763821E+02</pdfrwt>
<pdfrwt beam="2">  1       21 0.27208472E-02 0.23763821E+02</pdfrwt>
<totfact> 0.73081370E+07</totfact>
</mgrwt>
</event>
<event>
 4    1  0.7595771E+004  0.2162985E+02  0.7546771E-02  0.1714733E+00
         21   -1    0    0  503  502  0.00000000000E+00  0.00000000000E+00  0.11492994473E+02  0.11492994473E+02  0.00000000000E+00 0.  1.
         21   -1    0    0  501  503 -0.00000000000E+00 -0.00000000000E+00 -0.42785798726E+02  0.42785798726E+02  0.00000000000E+00 0.  1.
          5    1    1    2  501    0 -0.21565495757E+02  0.16672197277E+01 -0.96648757681E+01  0.23690927641E+02  0.00000000000E+00 0. -1.
         -5    1    1    2    0  502  0.21565495757E+02 -0.16672197277E+01 -0.21627928485E+02  0.30587865558E+02  0.00000000000E+00 0.  1.
<mgrwt>
<rscale>  2 0.21629846E+02</rscale>
<asrwt>0</asrwt>
<pdfrwt beam="1">  1       21 0.17681530E-02 0.21629846E+02</pdfrwt>
<pdfrwt beam="2">  1       21 0.65824307E-02 0.21629846E+02</pdfrwt>
<totfact> 0.16357375E+08</totfact>
</mgrwt>
</event>
<event>
 4    1  0.7595771E+004  0.2325410E+02  0.7546771E-02  0.1687424E+00
         21   -1    0    0  501  502  0.00000000000E+00  0.00000000000E+00  0.48343012692E+02  0.48343012692E+02  0.00000000000E+00 0. -1.
         21   -1    0    0  502  503 -0.00000000000E+00 -0.00000000000E+00 -0.11206760529E+02  0.11206760529E+02  0.00000000000E+00 0. -1.
          2    1    1    2  501    0  0.19923262666E+02  0.11992367270E+02  0.19857087979E+02  0.30578705189E+02  0.00000000000E+00 0. -1.
         -2    1    1    2    0  503 -0.19923262666E+02 -0.11992367270E+02  0.17279164184E+02  0.28971068032E+02  0.00000000000E+00 0.  1.
<mgrwt>
<rscale>  2 0.23254102E+02</rscale>
<asrwt>0</asrwt>
<pdfrwt beam="1">  1       21 0.74373864E-02 0.23254102E+02</pdfrwt>
<pdfrwt beam="2">  1       21 0.17241170E-02 0.23254102E+02</pdfrwt>
<totfact> 0.14263024E+08</totfact>
</mgrwt>
</event>
<event>
 4    1  0.7595771E+004  0.2510820E+02  0.7546771E-02  0.1659453E+00
         21   -1    0    0  501  502  0.00000000000E+00  0.00000000000E+00  0.59031106812E+02  0.59031106812E+02  0.00000000000E+00 0. -1.
         21   -1    0    0  502  503 -0.00000000000E+00 -0.00000000000E+00 -0.11788330401E+02  0.11788330401E+02  0.00000000000E+00 0. -1.
          1    1    1    2  501    0 -0.12035683946E+02  0.22035515128E+02  0.34481455207E+02  0.42654335866E+02  0.00000000000E+00 0.  1.
         -1    1    1    2    0  503  0.12035683946E+02 -0.22035515128E+02  0.12761321204E+02  0.28165101346E+02  0.00000000000E+00 0. -1.
<mgrwt>
<rscale>  2 0.25108198E+02</rscale>
<asrwt>0</asrwt>
<pdfrwt beam="1">  1       21 0.90817085E-02 0.25108198E+02</pdfrwt>
<pdfrwt beam="2">  1       21 0.18135893E-02 0.25108198E+02</pdfrwt>
<totfact> 0.97266354E+07</totfact>
</mgrwt>
</event>
<event>
 4    1  0.7595771E+004  0.2802266E+02  0.7546771E-02  0.1621034E+00
         21   -1    0    0  501  502  0.00000000000E+00  0.00000000000E+00  0.73926782079E+01  0.73926782079E+01  0.00000000000E+00 0. -1.
         21   -1    0    0  502  503 -0.00000000000E+00 -0.00000000000E+00 -0.10725361833E+03  0.10725361833E+03  0.00000000000E+00 0. -1.
          1    1    1    2  501    0  0.42659193387E+00 -0.28019414407E+02 -0.55550717333E+02  0.62218580509E+02  0.00000000000E+00 0.  1.
         -1    1    1    2    0  503 -0.42659193387E+00  0.28019414407E+02 -0.44310222790E+02  0.52427716030E+02  0.00000000000E+00 0. -1.
<mgrwt>
<rscale>  2 0.28022662E+02</rscale>
<asrwt>0</asrwt>
<pdfrwt beam="1">  1       21 0.11373352E-02 0.28022662E+02</pdfrwt>
<pdfrwt beam="2">  1       21 0.16500555E-01 0.28022662E+02</pdfrwt>
<totfact> 0.74391390E+07</totfact>
</mgrwt>
</event>
<event>
 4    1  0.7595771E+004  0.2257065E+02  0.7546771E-02  0.1698566E+00
         21   -1    0    0  503  502  0.00000000000E+00  0.00000000000E+00  0.35589662989E+02  0.35589662989E+02  0.00000000000E+00 0. -1.
         21   -1    0    0  501  503 -0.00000000000E+00 -0.00000000000E+00 -0.27105112116E+02  0.27105112116E+02  0.00000000000E+00 0. -1.
          5    1    1    2  501    0 -0.20928698989E+02 -0.84512506024E+01  0.25776446798E+02  0.34261629962E+02  0.00000000000E+00 0. -1.
         -5    1    1    2    0  502  0.20928698989E+02  0.84512506024E+01 -0.17291895925E+02  0.28433145144E+02  0.00000000000E+00 0.  1.
<mgrwt>
<rscale>  2 0.22570646E+02</rscale>
<asrwt>0</asrwt>
<pdfrwt beam="1">  1       21 0.54753328E-02 0.22570646E+02</pdfrwt>
<pdfrwt beam="2">  1       21 0.41700173E-02 0.22570646E+02</pdfrwt>
<totfact> 0.58874238E+07</totfact>
</mgrwt>
</event>
<event>
 4    1  0.7595771E+004  0.2003108E+02  0.7546771E-02  0.1744711E+00
         21   -1    0    0  503  502  0.00000000000E+00  0.00000000000E+00  0.20717890390E+02  0.20717890390E+02  0.00000000000E+00 0.  1.
         21   -1    0    0  501  503 -0.00000000000E+00 -0.00000000000E+00 -0.21202517891E+02  0.21202517891E+02  0.00000000000E+00 0.  1.
          2    1    1    2  501    0  0.93266545171E+01  0.17727312464E+02  0.59247303515E+01  0.20888909053E+02  0.00000000000E+00 0.  1.
         -2    1    1    2    0  502 -0.93266545171E+01 -0.17727312464E+02 -0.64093578532E+01  0.21031499228E+02  0.00000000000E+00 0. -1.
<mgrwt>
<rscale>  2 0.20031078E+02</rscale>
<asrwt>0</asrwt>
<pdfrwt beam="1">  1       21 0.31873678E-02 0.20031078E+02</pdfrwt>
<pdfrwt beam="2">  1       21 0.32619258E-02 0.20031078E+02</pdfrwt>
<totfact> 0.19560940E+08</totfact>
</mgrwt>
</event>
<event>
 4    1  0.7595771E+004  0.2650614E+02  0.7546771E-02  0.1640266E+00
         21   -1    0    0  503  502  0.00000000000E+00  0.00000000000E+00  0.29537081882E+03  0.29537081882E+03  0.00000000000E+00 0. -1.
         21   -1    0    0  501  503 -0.00000000000E+00 -0.00000000000E+00 -0.23815370438E+01  0.23815370438E+01  0.00000000000E+00 0. -1.
          5    1    1    2  501    0  0.23722527049E+02  0.11824428977E+02  0.14128570824E+03  0.14375057134E+03  0.00000000000E+00 0.  1.
         -5    1    1    2    0  502 -0.23722527049E+02 -0.11824428977E+02  0.15170357354E+03  0.15400178452E+03  0.00000000000E+00 0. -1.
<mgrwt>
<rscale>  2 0.26506139E+02</rscale>
<asrwt>0</asrwt>
<pdfrwt beam="1">  1       21 0.45441635E-01 0.26506139E+02</pdfrwt>
<pdfrwt beam="2">  1       21 0.36639055E-03 0.26506139E+02</pdfrwt>
<totfact> 0.63148807E+07</totfact>
</mgrwt>
</event>
<event>
 4    1  0.7595771E+004  0.2083979E+02  0.7546771E-02  0.1729126E+00
         21   -1    0    0  501  502  0.00000000000E+00  0.00000000000E+00  0.77275095955E+01  0.77275095955E+01  0.00000000000E+00 0.  1.
         21   -1    0    0  502  503 -0.00000000000E+00 -0.00000000000E+00 -0.95223228094E+02  0.95223228094E+02  0.00000000000E+00 0.  1.
          5    1    1    2  501    0  0.14439903192E+02 -0.15026175860E+02 -0.76699867641E+02  0.79480604309E+02  0.00000000000E+00 0.  1.
         -5    1    1    2    0  503 -0.14439903192E+02  0.15026175860E+02 -0.10795850858E+02  0.23470133381E+02  0.00000000000E+00 0. -1.
<mgrwt>
<rscale>  2 0.20839788E+02</rscale>
<asrwt>0</asrwt>
<pdfrwt beam="1">  1       21 0.11888476E-02 0.20839788E+02</pdfrwt>
<pdfrwt beam="2">  1       21 0.14649727E-01 0.20839788E+02</pdfrwt>
<totfact> 0.78947774E+07</totfact>
</mgrwt>
</event>
<event>
 4    1  0.7595771E+004  0.2192569E+02  0.7546771E-02  0.1709540E+00
         21   -1    0    0  503  502  0.00000000000E+00  0.00000000000E+00  0.86435170492E+02  0.86435170492E+02  0.00000000000E+00 0.  1.
         21   -1    0    0  501  503 -0.00000000000E+00 -0.00000000000E+00 -0.55703491577E+01  0.55703491577E+01  0.00000000000E+00 0.  1.
          2    1    1    2  501    0  0.39812182142E+01 -0.21561206864E+02  0.42233873915E+02  0.47586088784E+02  0.00000000000E+00 0.  1.
         -2    1    1    2    0  502 -0.39812182142E+01  0.21561206864E+02  0.38630947419E+02  0.44419430865E+02  0.00000000000E+00 0. -1.
<mgrwt>
<rscale>  2 0.21925687E+02</rscale>
<asrwt>0</asrwt>
<pdfrwt beam="1">  1       21 0.13297718E-01 0.21925687E+02</pdfrwt>
<pdfrwt beam="2">  1       21 0.85697685E-03 0.21925687E+02</pdfrwt>
<totfact> 0.15407146E+08</totfact>
</mgrwt>
</event>
<event>
 4    1  0.7595771E+004  0.2258027E+02  0.7546771E-02  0.1698406E+00
         21   -1    0    0  501  502  0.00000000000E+00  0.00000000000E+00  0.42287689652E+01  0.42287689652E+01  0.00000000000E+00 0.  1.
         21   -1    0    0  502  503 -0.00000000000E+00 -0.00000000000E+00 -0.12460049121E+03  0.12460049121E+03  0.00000000000E+00 0.  1.
          1    1    1    2  501    0 -0.22300514218E+02  0.35433804995E+01 -0.48602631900E+02  0.53591830603E+02  0.00000000000E+00 0.  1.
         -1    1    1    2    0  503  0.22300514218E+02 -0.35433804995E+01 -0.71769090341E+02  0.75237429569E+02  0.00000000000E+00 0. -1.
<mgrwt>
<rscale>  2 0.22580267E+02</rscale>
<asrwt>0</asrwt>
<pdfrwt beam="1">  1       21 0.65057982E-03 0.22580267E+02</pdfrwt>
<pdfrwt beam="2">  1       21 0.19169307E-01 0.22580267E+02</pdfrwt>
<totfact> 0.12535040E+08</totfact>
</mgrwt>
</event>
<event>
 4    1  0.7595771E+004  0.2110388E+02  0.7546771E-02  0.1724227E+00
         21   -1    0    0  503  502  0.00000000000E+00  0.00000000000E+00  0.60660992329E+01  0.60660992329E+01  0.00000000000E+00 0.  1.
         21   -1    0    0  501  503 -0.00000000000E+00 -0.00000000000E+00 -0.75176666725E+02  0.75176666725E+02  0.00000000000E+00 0.  1.
          2    1    1    2  501    0 -0.15045752770E+02 -0.14798622388E+02 -0.28346027044E+02  0.35339371106E+02  0.00000000000E+00 0.  1.
         -2    1    1    2    0  502  0.15045752770E+02  0.14798622388E+02 -0.40764540448E+02  0.45903394852E+02  0.00000000000E+00 0. -1.
<mgrwt>
<rscale>  2 0.21103884E+02</rscale>
<asrwt>0</asrwt>
<pdfrwt beam="1">  1       21 0.93324606E-03 0.21103884E+02</pdfrwt>
<pdfrwt beam="2">  1       21 0.11565641E-01 0.21103884E+02</pdfrwt>
<totfact> 0.16935483E+08</totfact>
</mgrwt>
</event>
<event>
 4    1  0.7595771E+004  0.4580831E+02  0.7546771E-02  0.1469358E+00
         21   -1    0    0  503  502  0.00000000000E+00  0.00000000000E+00  0.47233073117E+01  0.47233073117E+01  0.00000000000E+00 0. -1.
         21   -1    0    0  501  503 -0.00000000000E+00 -0.00000000000E+00 -0.45130742942E+03  0.45130742942E+03  0.00000000000E+00 0. -1.
          4    1    1    2  501    0  0.44994894410E+02 -0.85942402089E+01 -0.25177469966E+03  0.25590799299E+03  0.00000000000E+00 0.  1.
         -4    1    1    2    0  502 -0.44994894410E+02  0.85942402089E+01 -0.19480942245E+03  0.20012274375E+03  0.00000000000E+00 0. -1.
<mgrwt>
<rscale>  2 0.45808312E+02</rscale>
<asrwt>0</asrwt>
<pdfrwt beam="1">  1       21 0.72666286E-03 0.45808312E+02</pdfrwt>
<pdfrwt beam="2">  1       21 0.69431894E-01 0.45808312E+02</pdfrwt>
<totfact> 0.10573371E+07</totfact>
</mgrwt>
</event>
<event>
 4    1  0.7595771E+004  0.2157878E+02  0.7546771E-02  0.1715640E+00
         21   -1    0    0  503  502  0.00000000000E+00  0.00000000000E+00  0.58373827093E+02  0.58373827093E+02  0.00000000000E+00 0. -1.
         21   -1    0    0  501  503 -0.00000000000E+00 -0.00000000000E+00 -0.98385960901E+01  0.98385960901E+01  0.00000000000E+00 0. -1.
          2    1    1    2  501    0  0.10249837458E+02  0.18989067721E+02  0.39103654070E+02  0.44662508018E+02  0.00000000000E+00 0.  1.
         -2    1    1    2    0  502 -0.10249837458E+02 -0.18989067721E+02  0.94315769328E+01  0.23549915165E+02  0.00000000000E+00 0. -1.
<mgrwt>
<rscale>  2 0.21578783E+02</rscale>
<asrwt>0</asrwt>
<pdfrwt beam="1">  1       21 0.89805886E-02 0.21578783E+02</pdfrwt>
<pdfrwt beam="2">  1       21 0.15136302E-02 0.21578783E+02</pdfrwt>
<totfact> 0.12501255E+08</totfact>
</mgrwt>
</event>
<event>
 4    1  0.7595771E+004  0.2515023E+02  0.7546771E-02  0.1658853E+00
         21   -1    0    0  503  502  0.00000000000E+00  0.00000000000E+00  0.44336789757E+02  0.44336789757E+02  0.00000000000E+00 0. -1.
         21   -1    0    0  501  503 -0.00000000000E+00 -0.00000000000E+00 -0.14317201013E+02  0.14317201013E+02  0.00000000000E+00 0. -1.
          3    1    1    2  501    0 -0.24390387863E+02  0.61353971268E+01  0.16753716738E+02  0.30219549013E+02  0.00000000000E+00 0.  1.
         -3    1    1    2    0  502  0.24390387863E+02 -0.61353971268E+01  0.13265872006E+02  0.28434441758E+02  0.00000000000E+00 0. -1.
<mgrwt>
<rscale>  2 0.25150231E+02</rscale>
<asrwt>0</asrwt>
<pdfrwt beam="1">  1       21 0.68210445E-02 0.25150231E+02</pdfrwt>
<pdfrwt beam="2">  1       21 0.22026463E-02 0.25150231E+02</pdfrwt>
<totfact> 0.11524623E+08</totfact>
</mgrwt>
</event>
<event>
 4    1  0.7595771E+004  0.2275789E+02  0.7546771E-02  0.1695465E+00
         21   -1    0    0  503  502  0.00000000000E+00  0.00000000000E+00  0.31683569125E+02  0.31683569125E+02  0.00000000000E+00 0.  1.
         21   -1    0    0  501  503 -0.00000000000E+00 -0.00000000000E+00 -0.16387381079E+02  0.16387381079E+02  0.00000000000E+00 0.  1.
          3    1    1    2  501    0  0.99092786543E+01  0.20487257067E+02  0.64504061184E+01  0.23654370520E+02  0.00000000000E+00 0.  1.
         -3    1    1    2    0  502 -0.99092786543E+01 -0.20487257067E+02  0.88457819270E+01  0.24416579684E+02  0.00000000000E+00 0. -1.
<mgrwt>
<rscale>  2 0.22757889E+02</rscale>
<asrwt>0</asrwt>
<pdfrwt beam="1">  1       21 0.48743952E-02 0.22757889E+02</pdfrwt>
<pdfrwt beam="2">  1       21 0.25211356E-02 0.22757889E+02</pdfrwt>
<totfact> 0.15582698E+08</totfact>
</mgrwt>
</event>
<event>
 4    1  0.7595771E+004  0.5101033E+02  0.7546771E-02  0.1439967E+00
         21   -1    0    0  501  502  0.00000000000E+00  0.00000000000E+00  0.16686192353E+02  0.16686192353E+02  0.00000000000E+00 0.  1.
         21   -1    0    0  502  503 -0.00000000000E+00 -0.00000000000E+00 -0.18496782474E+03  0.18496782474E+03  0.00000000000E+00 0.  1.
          2    1    1    2  501    0 -0.37487890206E+02  0.34593518655E+02 -0.44198598537E+02  0.67494959498E+02  0.00000000000E+00 0. -1.
         -2    1    1    2    0  503  0.37487890206E+02 -0.34593518655E+02 -0.12408303385E+03  0.13415905760E+03  0.00000000000E+00 0.  1.
<mgrwt>
<rscale>  2 0.51010327E+02</rscale>
<asrwt>0</asrwt>
<pdfrwt beam="1">  1       21 0.25671064E-02 0.51010327E+02</pdfrwt>
<pdfrwt beam="2">  1       21 0.28456589E-01 0.51010327E+02</pdfrwt>
<totfact> 0.87572231E+06</totfact>
</mgrwt>
</event>
<event>
 4    1  0.7595771E+004  0.2309725E+02  0.7546771E-02  0.1689939E+00
         21   -1    0    0  501  502  0.00000000000E+00  0.00000000000E+00  0.23902602720E+03  0.23902602720E+03  0.00000000000E+00 0.  1.
         21   -1    0    0  502  503 -0.00000000000E+00 -0.00000000000E+00 -0.26176290762E+01  0.26176290762E+01  0.00000000000E+00 0.  1.
          2    1    1    2  501    0  0.33981708497E+01 -0.22845903515E+02  0.16458421900E+03  0.16619701567E+03  0.00000000000E+00 0.  1.
         -2    1    1    2    0  503 -0.33981708497E+01  0.22845903515E+02  0.71824179123E+02  0.75446640610E+02  0.00000000000E+00 0. -1.
<mgrwt>
<rscale>  2 0.23097248E+02</rscale>
<asrwt>0</asrwt>
<pdfrwt beam="1">  1       21 0.36773218E-01 0.23097248E+02</pdfrwt>
<pdfrwt beam="2">  1       21 0.40271235E-03 0.23097248E+02</pdfrwt>
<totfact> 0.79431969E+07</totfact>
</mgrwt>
</event>
<event>
 4    1  0.7595771E+004  0.2609766E+02  0.7546771E-02  0.1645719E+00
         21   -1    0    0  501  502  0.00000000000E+00  0.00000000000E+00  0.56848466345E+03  0.56848466345E+03  0.00000000000E+00 0.  1.
         21   -1    0    0  502  503 -0.00000000000E+00 -0.00000000000E+00 -0.12642963102E+01  0.12642963102E+01  0.00000000000E+00 0.  1.
          5    1    1    2  501    0 -0.26086388628E+02  0.76677185136E+00  0.34880693997E+03  0.34978188773E+03  0.00000000000E+00 0.  1.
         -5    1    1    2    0  503  0.26086388628E+02 -0.76677185136E+00  0.21841342717E+03  0.21996707203E+03  0.00000000000E+00 0. -1.
<mgrwt>
<rscale>  2 0.26097655E+02</rscale>
<asrwt>0</asrwt>
<pdfrwt beam="1">  1       21 0.87458975E-01 0.26097655E+02</pdfrwt>
<pdfrwt beam="2">  1       21 0.19450758E-03 0.26097655E+02</pdfrwt>
<totfact> 0.41995955E+07</totfact>
</mgrwt>
</event>
<event>
 4    1  0.7595771E+004  0.2549608E+02  0.7546771E-02  0.1653977E+00
         21   -1    0    0  503  502  0.00000000000E+00  0.00000000000E+00  0.13139439234E+01  0.13139439234E+01  0.00000000000E+00 0. -1.
         21   -1    0    0  501  503 -0.00000000000E+00 -0.00000000000E+00 -0.52384162096E+03  0.52384162096E+03  0.00000000000E+00 0. -1.
          4    1    1    2  501    0 -0.19408906492E+02  0.16533132436E+02 -0.32316177484E+03  0.32416598039E+03  0.00000000000E+00 0. -1.
         -4    1    1    2    0  502  0.19408906492E+02 -0.16533132436E+02 -0.19936590219E+03  0.20098958450E+03  0.00000000000E+00 0.  1.
<mgrwt>
<rscale>  2 0.25496080E+02</rscale>
<asrwt>0</asrwt>
<pdfrwt beam="1">  1       21 0.20214537E-03 0.25496080E+02</pdfrwt>
<pdfrwt beam="2">  1       21 0.80590957E-01 0.25496080E+02</pdfrwt>
<totfact> 0.47035301E+07</totfact>
</mgrwt>
</event>
<event>
 4    1  0.7595771E+004  0.3073678E+02  0.7546771E-02  0.1590084E+00
         21   -1    0    0  503  502  0.00000000000E+00  0.00000000000E+00  0.94354509604E+03  0.94354509604E+03  0.00000000000E+00 0.  1.
         21   -1    0    0  501  503 -0.00000000000E+00 -0.00000000000E+00 -0.10146283145E+01  0.10146283145E+01  0.00000000000E+00 0.  1.
          2    1    1    2  501    0  0.20372681803E+02 -0.23015284508E+02  0.41708799266E+03  0.41821901333E+03  0.00000000000E+00 0. -1.
         -2    1    1    2    0  502 -0.20372681803E+02  0.23015284508E+02  0.52544247506E+03  0.52634071103E+03  0.00000000000E+00 0.  1.
<mgrwt>
<rscale>  2 0.30736777E+02</rscale>
<asrwt>0</asrwt>
<pdfrwt beam="1">  1       21 0.14516008E+00 0.30736777E+02</pdfrwt>
<pdfrwt beam="2">  1       21 0.15609742E-03 0.30736777E+02</pdfrwt>
<totfact> 0.18873423E+07</totfact>
</mgrwt>
</event>
<event>
 4    1  0.7595771E+004  0.2620180E+02  0.7546771E-02  0.1644317E+00
         21   -1    0    0  501  502  0.00000000000E+00  0.00000000000E+00  0.60663100682E+01  0.60663100682E+01  0.00000000000E+00 0. -1.
         21   -1    0    0  502  503 -0.00000000000E+00 -0.00000000000E+00 -0.11318735615E+03  0.11318735615E+03  0.00000000000E+00 0. -1.
          1    1    1    2  501    0  0.23922051106E+02  0.10689703110E+02 -0.54263052351E+02  0.60257888548E+02  0.00000000000E+00 0. -1.
         -1    1    1    2    0  503 -0.23922051106E+02 -0.10689703110E+02 -0.52857993728E+02  0.58995777668E+02  0.00000000000E+00 0.  1.
<mgrwt>
<rscale>  2 0.26201799E+02</rscale>
<asrwt>0</asrwt>
<pdfrwt beam="1">  1       21 0.93327854E-03 0.26201799E+02</pdfrwt>
<pdfrwt beam="2">  1       21 0.17413438E-01 0.26201799E+02</pdfrwt>
<totfact> 0.89879230E+07</totfact>
</mgrwt>
</event>
<event>
 4    1  0.7595771E+004  0.2152734E+02  0.7546771E-02  0.1716557E+00
         21   -1    0    0  501  502  0.00000000000E+00  0.00000000000E+00  0.23872744592E+02  0.23872744592E+02  0.00000000000E+00 0.  1.
         21   -1    0    0  502  503 -0.00000000000E+00 -0.00000000000E+00 -0.19516541314E+02  0.19516541314E+02  0.00000000000E+00 0.  1.
          2    1    1    2  501    0  0.11565404364E+02 -0.18156758731E+02  0.37631137677E+01  0.21853775211E+02  0.00000000000E+00 0.  1.
         -2    1    1    2    0  503 -0.11565404364E+02  0.18156758731E+02  0.59308951074E+00  0.21535510695E+02  0.00000000000E+00 0. -1.
<mgrwt>
<rscale>  2 0.21527342E+02</rscale>
<asrwt>0</asrwt>
<pdfrwt beam="1">  1       21 0.36727299E-02 0.21527342E+02</pdfrwt>
<pdfrwt beam="2">  1       21 0.30025448E-02 0.21527342E+02</pdfrwt>
<totfact> 0.18256915E+08</totfact>
</mgrwt>
</event>
<event>
 4    1  0.7595771E+004  0.3326137E+02  0.7546771E-02  0.1564605E+00
         21   -1    0    0  503  502  0.00000000000E+00  0.00000000000E+00  0.14284656364E+03  0.14284656364E+03  0.00000000000E+00 0.  1.
         21   -1    0    0  501  503 -0.00000000000E+00 -0.00000000000E+00 -0.77449737528E+01  0.77449737528E+01  0.00000000000E+00 0.  1.
          4    1    1    2  501    0 -0.28989770596E+02  0.16306813004E+02  0.67901026738E+02  0.75609975411E+02  0.00000000000E+00 0.  1.
         -4    1    1    2    0  502  0.28989770596E+02 -0.16306813004E+02  0.67200563145E+02  0.74981561978E+02  0.00000000000E+00 0. -1.
<mgrwt>
<rscale>  2 0.33261373E+02</rscale>
<asrwt>0</asrwt>
<pdfrwt beam="1">  1       21 0.21976392E-01 0.33261373E+02</pdfrwt>
<pdfrwt beam="2">  1       21 0.11915345E-02 0.33261373E+02</pdfrwt>
<totfact> 0.43471878E+07</totfact>
</mgrwt>
</event>
<event>
 4    1  0.7595771E+004  0.2051311E+02  0.7546771E-02  0.1735313E+00
         21   -1    0    0  503  502  0.00000000000E+00  0.00000000000E+00  0.34275610328E+02  0.34275610328E+02  0.00000000000E+00 0.  1.
         21   -1    0    0  501  503 -0.00000000000E+00 -0.00000000000E+00 -0.15475953492E+02  0.15475953492E+02  0.00000000000E+00 0.  1.
          2    1    1    2  501    0 -0.76694887663E+01 -0.19025420301E+02 -0.19106169161E+01  0.20601896335E+02  0.00000000000E+00 0. -1.
         -2    1    1    2    0  502  0.76694887663E+01  0.19025420301E+02  0.20710273752E+02  0.29149667485E+02  0.00000000000E+00 0.  1.
<mgrwt>
<rscale>  2 0.20513110E+02</rscale>
<asrwt>0</asrwt>
<pdfrwt beam="1">  1       21 0.52731708E-02 0.20513110E+02</pdfrwt>
<pdfrwt beam="2">  1       21 0.23809159E-02 0.20513110E+02</pdfrwt>
<totfact> 0.14547795E+08</totfact>
</mgrwt>
</event>
<event>
 4    1  0.7595771E+004  0.2224151E+02  0.7546771E-02  0.1704108E+00
         21   -1    0    0  503  502  0.00000000000E+00  0.00000000000E+00  0.20624762894E+01  0.20624762894E+01  0.00000000000E+00 0.  1.
         21   -1    0    0  501  503 -0.00000000000E+00 -0.00000000000E+00 -0.36060713991E+03  0.36060713991E+03  0.00000000000E+00 0.  1.
          1    1    1    2  501    0  0.22178211687E+02  0.16767854079E+01 -0.28420739973E+03  0.28507635949E+03  0.00000000000E+00 0. -1.
         -1    1    1    2    0  502 -0.22178211687E+02 -0.16767854079E+01 -0.74337263895E+02  0.77593256707E+02  0.00000000000E+00 0.  1.
<mgrwt>
<rscale>  2 0.22241508E+02</rscale>
<asrwt>0</asrwt>
<pdfrwt beam="1">  1       21 0.31730418E-03 0.22241508E+02</pdfrwt>
<pdfrwt beam="2">  1       21 0.55477997E-01 0.22241508E+02</pdfrwt>
<totfact> 0.50726435E+07</totfact>
</mgrwt>
</event>
<event>
 4    1  0.7595771E+004  0.2124049E+02  0.7546771E-02  0.1721728E+00
         21   -1    0    0  503  502  0.00000000000E+00  0.00000000000E+00  0.41373544160E+02  0.41373544160E+02  0.00000000000E+00 0. -1.
         21   -1    0    0  501  503 -0.00000000000E+00 -0.00000000000E+00 -0.11005139896E+02  0.11005139896E+02  0.00000000000E+00 0. -1.
          5    1    1    2  501    0 -0.20348860938E+02 -0.60895172013E+01  0.12679919954E+02  0.24737395402E+02  0.00000000000E+00 0. -1.
         -5    1    1    2    0  502  0.20348860938E+02  0.60895172013E+01  0.17688484309E+02  0.27641288653E+02  0.00000000000E+00 0.  1.
<mgrwt>
<rscale>  2 0.21240489E+02</rscale>
<asrwt>0</asrwt>
<pdfrwt beam="1">  1       21 0.63651605E-02 0.21240489E+02</pdfrwt>
<pdfrwt beam="2">  1       21 0.16930985E-02 0.21240489E+02</pdfrwt>
<totfact> 0.18339014E+08</totfact>
</mgrwt>
</event>
<event>
 4    1  0.7595771E+004  0.3271585E+02  0.7546771E-02  0.1569873E+00
         21   -1    0    0  501  502  0.00000000000E+00  0.00000000000E+00  0.14246007596E+02  0.14246007596E+02  0.00000000000E+00 0. -1.
         21   -1    0    0  502  503 -0.00000000000E+00 -0.00000000000E+00 -0.75221689658E+02  0.75221689658E+02  0.00000000000E+00 0. -1.
          5    1    1    2  501    0 -0.23972794307E+02 -0.22262794086E+02 -0.32035033471E+02  0.45788319874E+02  0.00000000000E+00 0.  1.
         -5    1    1    2    0  503  0.23972794307E+02  0.22262794086E+02 -0.28940648592E+02  0.43679377380E+02  0.00000000000E+00 0. -1.
<mgrwt>
<rscale>  2 0.32715850E+02</rscale>
<asrwt>0</asrwt>
<pdfrwt beam="1">  1       21 0.21916935E-02 0.32715850E+02</pdfrwt>
<pdfrwt beam="2">  1       21 0.11572567E-01 0.32715850E+02</pdfrwt>
<totfact> 0.51551412E+07</totfact>
</mgrwt>
</event>
<event>
 4    1  0.7595771E+004  0.2744755E+02  0.7546771E-02  0.1628147E+00
         21   -1    0    0  503  502  0.00000000000E+00  0.00000000000E+00  0.44770390350E+01  0.44770390350E+01  0.00000000000E+00 0.  1.
         21   -1    0    0  501  503 -0.00000000000E+00 -0.00000000000E+00 -0.18768947057E+03  0.18768947057E+03  0.00000000000E+00 0.  1.
          2    1    1    2  501    0 -0.26832176672E+02  0.57794750866E+01 -0.60702921092E+02  0.66619911936E+02  0.00000000000E+00 0.  1.
         -2    1    1    2    0  502  0.26832176672E+02 -0.57794750866E+01 -0.12250951044E+03  0.12554659766E+03  0.00000000000E+00 0. -1.
<mgrwt>
<rscale>  2 0.27447551E+02</rscale>
<asrwt>0</asrwt>
<pdfrwt beam="1">  1       21 0.68877543E-03 0.27447551E+02</pdfrwt>
<pdfrwt beam="2">  1       21 0.28875295E-01 0.27447551E+02</pdfrwt>
<totfact> 0.58390140E+07</totfact>
</mgrwt>
</event>
<event>
 4    1  0.7595771E+004  0.2512607E+02  0.7546771E-02  0.1659198E+00
         21   -1    0    0  503  502  0.00000000000E+00  0.00000000000E+00  0.34598506973E+01  0.34598506973E+01  0.00000000000E+00 0. -1.
         21   -1    0    0  501  503 -0.00000000000E+00 -0.00000000000E+00 -0.18267686045E+03  0.18267686045E+03  0.00000000000E+00 0. -1.
          4    1    1    2  501    0  0.24565948461E+02 -0.52757685868E+01 -0.86477984664E+02  0.90054213614E+02  0.00000000000E+00 0. -1.
         -4    1    1    2    0  502 -0.24565948461E+02  0.52757685868E+01 -0.92739025093E+02  0.96082497538E+02  0.00000000000E+00 0.  1.
<mgrwt>
<rscale>  2 0.25126073E+02</rscale>
<asrwt>0</asrwt>
<pdfrwt beam="1">  1       21 0.53228464E-03 0.25126073E+02</pdfrwt>
<pdfrwt beam="2">  1       21 0.28104136E-01 0.25126073E+02</pdfrwt>
<totfact> 0.88152410E+07</totfact>
</mgrwt>
</event>
<event>
 4    1  0.7595771E+004  0.2237215E+02  0.7546771E-02  0.1701894E+00
         21   -1    0    0  501  502  0.00000000000E+00  0.00000000000E+00  0.47618865467E+02  0.47618865467E+02  0.00000000000E+00 0. -1.
         21   -1    0    0  502  503 -0.00000000000E+00 -0.00000000000E+00 -0.14017212769E+02  0.14017212769E+02  0.00000000000E+00 0. -1.
          1    1    1    2  501    0  0.13128530649E+02 -0.18115046968E+02  0.13872096737E+01  0.22415119770E+02  0.00000000000E+00 0. -1.
         -1    1    1    2    0  503 -0.13128530649E+02  0.18115046968E+02  0.32214443024E+02  0.39220958466E+02  0.00000000000E+00 0.  1.
<mgrwt>
<rscale>  2 0.22372153E+02</rscale>
<asrwt>0</asrwt>
<pdfrwt beam="1">  1       21 0.73259792E-02 0.22372153E+02</pdfrwt>
<pdfrwt beam="2">  1       21 0.21564943E-02 0.22372153E+02</pdfrwt>
<totfact> 0.10257048E+08</totfact>
</mgrwt>
</event>
<event>
 4    1  0.7595771E+004  0.2827837E+02  0.7546771E-02  0.1617938E+00
         21   -1    0    0  501  502  0.00000000000E+00  0.00000000000E+00  0.19124109985E+04  0.19124109985E+04  0.00000000000E+00 0.  1.
         21   -1    0    0  502  503 -0.00000000000E+00 -0.00000000000E+00 -0.53952993313E+00  0.53952993313E+00  0.00000000000E+00 0.  1.
          5    1    1    2  501    0 -0.28215022363E+02  0.18917004077E+01  0.50225796215E+03  0.50305340329E+03  0.00000000000E+00 0.  1.
         -5    1    1    2    0  503  0.28215022363E+02 -0.18917004077E+01  0.14096135064E+04  0.14098971251E+04  0.00000000000E+00 0. -1.
<mgrwt>
<rscale>  2 0.28278367E+02</rscale>
<asrwt>0</asrwt>
<pdfrwt beam="1">  1       21 0.29421165E+00 0.28278367E+02</pdfrwt>
<pdfrwt beam="2">  1       21 0.83006136E-04 0.28278367E+02</pdfrwt>
<totfact> 0.67770186E+06</totfact>
</mgrwt>
</event>
<event>
 4    1  0.7595771E+004  0.3959571E+02  0.7546771E-02  0.1511208E+00
         21   -1    0    0  503  502  0.00000000000E+00  0.00000000000E+00  0.79670200758E+01  0.79670200758E+01  0.00000000000E+00 0.  1.
         21   -1    0    0  501  503 -0.00000000000E+00 -0.00000000000E+00 -0.33309900498E+03  0.33309900498E+03  0.00000000000E+00 0.  1.
          5    1    1    2  501    0  0.31225945965E+02  0.24346668680E+02 -0.53475713960E+02  0.66539251279E+02  0.00000000000E+00 0.  1.
         -5    1    1    2    0  502 -0.31225945965E+02 -0.24346668680E+02 -0.27165627094E+03  0.27452677378E+03  0.00000000000E+00 0. -1.
<mgrwt>
<rscale>  2 0.39595707E+02</rscale>
<asrwt>0</asrwt>
<pdfrwt beam="1">  1       21 0.12256953E-02 0.39595707E+02</pdfrwt>
<pdfrwt beam="2">  1       21 0.51246004E-01 0.39595707E+02</pdfrwt>
<totfact> 0.87023933E+06</totfact>
</mgrwt>
</event>
<event>
 4    1  0.7595771E+004  0.2205878E+02  0.7546771E-02  0.1707237E+00
         21   -1    0    0  503  502  0.00000000000E+00  0.00000000000E+00  0.22836570635E+03  0.22836570635E+03  0.00000000000E+00 0. -1.
         21   -1    0    0  501  503 -0.00000000000E+00 -0.00000000000E+00 -0.21984910197E+01  0.21984910197E+01  0.00000000000E+00 0. -1.
          3    1    1    2  501    0  0.55290323943E+01  0.21354612962E+02  0.13331999103E+03  0.13513256344E+03  0.00000000000E+00 0.  1.
         -3    1    1    2    0  502 -0.55290323943E+01 -0.21354612962E+02  0.92847224301E+02  0.95431633929E+02  0.00000000000E+00 0. -1.
<mgrwt>
<rscale>  2 0.22058778E+02</rscale>
<asrwt>0</asrwt>
<pdfrwt beam="1">  1       21 0.35133167E-01 0.22058778E+02</pdfrwt>
<pdfrwt beam="2">  1       21 0.33822957E-03 0.22058778E+02</pdfrwt>
<totfact> 0.11024848E+08</totfact>
</mgrwt>
</event>
<event>
 4    1  0.7595771E+004  0.2035473E+02  0.7546771E-02  0.1738364E+00
         21   -1    0    0  503  502  0.00000000000E+00  0.00000000000E+00  0.13960854780E+02  0.13960854780E+02  0.00000000000E+00 0. -1.
         21   -1    0    0  501  503 -0.00000000000E+00 -0.00000000000E+00 -0.30516512017E+02  0.30516512017E+02  0.00000000000E+00 0. -1.
          1    1    1    2  501    0 -0.42408374947E+01  0.19908051109E+02 -0.45891128024E+01  0.20865645400E+02  0.00000000000E+00 0.  1.
         -1    1    1    2    0  502  0.42408374947E+01 -0.19908051109E+02 -0.11966544435E+02  0.23611721397E+02  0.00000000000E+00 0. -1.
<mgrwt>
<rscale>  2 0.20354734E+02</rscale>
<asrwt>0</asrwt>
<pdfrwt beam="1">  1       21 0.21478238E-02 0.20354734E+02</pdfrwt>
<pdfrwt beam="2">  1       21 0.46948480E-02 0.20354734E+02</pdfrwt>
<totfact> 0.20430591E+08</totfact>
</mgrwt>
</event>
<event>
 4    1  0.7595771E+004  0.3601939E+02  0.7546771E-02  0.1539730E+00
         21   -1    0    0  501  502  0.00000000000E+00  0.00000000000E+00  0.85664313435E+01  0.85664313435E+01  0.00000000000E+00 0. -1.
         21   -1    0    0  502  503 -0.00000000000E+00 -0.00000000000E+00 -0.15785461969E+03  0.15785461969E+03  0.00000000000E+00 0. -1.
          4    1    1    2  501    0 -0.17746262429E+01  0.35975644860E+02 -0.91403381324E+02  0.98244462637E+02  0.00000000000E+00 0.  1.
         -4    1    1    2    0  503  0.17746262429E+01 -0.35975644860E+02 -0.57884807024E+02  0.68176588398E+02  0.00000000000E+00 0. -1.
<mgrwt>
<rscale>  2 0.36019388E+02</rscale>
<asrwt>0</asrwt>
<pdfrwt beam="1">  1       21 0.13179124E-02 0.36019388E+02</pdfrwt>
<pdfrwt beam="2">  1       21 0.24285329E-01 0.36019388E+02</pdfrwt>
<totfact> 0.31599816E+07</totfact>
</mgrwt>
</event>
<event>
 4    1  0.7595771E+004  0.2417034E+02  0.7546771E-02  0.1673213E+00
         21   -1    0    0  501  502  0.00000000000E+00  0.00000000000E+00  0.48654135335E+02  0.48654135335E+02  0.00000000000E+00 0. -1.
         21   -1    0    0  502  503 -0.00000000000E+00 -0.00000000000E+00 -0.14057243655E+02  0.14057243655E+02  0.00000000000E+00 0. -1.
          5    1    1    2  501    0  0.85784971805E+01 -0.22596788543E+02  0.53245416583E+01  0.24749872933E+02  0.00000000000E+00 0.  1.
         -5    1    1    2    0  503 -0.85784971805E+01  0.22596788543E+02  0.29272350022E+02  0.37961506057E+02  0.00000000000E+00 0. -1.
<mgrwt>
<rscale>  2 0.24170343E+02</rscale>
<asrwt>0</asrwt>
<pdfrwt beam="1">  1       21 0.74852515E-02 0.24170343E+02</pdfrwt>
<pdfrwt beam="2">  1       21 0.21626529E-02 0.24170343E+02</pdfrwt>
<totfact> 0.10082727E+08</totfact>
</mgrwt>
</event>
<event>
 4    1  0.7595771E+004  0.2317611E+02  0.7546771E-02  0.1688671E+00
         21   -1    0    0  503  502  0.00000000000E+00  0.00000000000E+00  0.13699019609E+02  0.13699019609E+02  0.00000000000E+00 0. -1.
         21   -1    0    0  501  503 -0.00000000000E+00 -0.00000000000E+00 -0.43881211138E+02  0.43881211138E+02  0.00000000000E+00 0. -1.
          2    1    1    2  501    0  0.20407213507E+02  0.10985350983E+02 -0.24484869413E+02  0.33714108761E+02  0.00000000000E+00 0.  1.
         -2    1    1    2    0  502 -0.20407213507E+02 -0.10985350983E+02 -0.56973221166E+01  0.23866121986E+02  0.00000000000E+00 0. -1.
<mgrwt>
<rscale>  2 0.23176115E+02</rscale>
<asrwt>0</asrwt>
<pdfrwt beam="1">  1       21 0.21075415E-02 0.23176115E+02</pdfrwt>
<pdfrwt beam="2">  1       21 0.67509555E-02 0.23176115E+02</pdfrwt>
<totfact> 0.12255183E+08</totfact>
</mgrwt>
</event>
<event>
 4    1  0.7595771E+004  0.3480765E+02  0.7546771E-02  0.1550315E+00
         21   -1    0    0  501  502  0.00000000000E+00  0.00000000000E+00  0.40335773278E+01  0.40335773278E+01  0.00000000000E+00 0. -1.
         21   -1    0    0  502  503 -0.00000000000E+00 -0.00000000000E+00 -0.47232088230E+03  0.47232088230E+03  0.00000000000E+00 0. -1.
          4    1    1    2  501    0  0.10968982784E+02  0.33034129967E+02 -0.37785192591E+03  0.37945177591E+03  0.00000000000E+00 0.  1.
         -4    1    1    2    0  503 -0.10968982784E+02 -0.33034129967E+02 -0.90435379066E+02  0.96902683723E+02  0.00000000000E+00 0. -1.
<mgrwt>
<rscale>  2 0.34807648E+02</rscale>
<asrwt>0</asrwt>
<pdfrwt beam="1">  1       21 0.62055073E-03 0.34807648E+02</pdfrwt>
<pdfrwt beam="2">  1       21 0.72664708E-01 0.34807648E+02</pdfrwt>
<totfact> 0.11793332E+07</totfact>
</mgrwt>
</event>
<event>
 4    1  0.7595771E+004  0.4345345E+02  0.7546771E-02  0.1484234E+00
         21   -1    0    0  503  502  0.00000000000E+00  0.00000000000E+00  0.27758688413E+02  0.27758688413E+02  0.00000000000E+00 0. -1.
         21   -1    0    0  501  503 -0.00000000000E+00 -0.00000000000E+00 -0.10289622542E+03  0.10289622542E+03  0.00000000000E+00 0. -1.
          1    1    1    2  501    0 -0.18427885101E+02  0.39352455277E+02  0.46313393960E+00  0.43455922250E+02  0.00000000000E+00 0. -1.
         -1    1    1    2    0  502  0.18427885101E+02 -0.39352455277E+02 -0.75600670949E+02  0.87198991585E+02  0.00000000000E+00 0.  1.
<mgrwt>
<rscale>  2 0.43453454E+02</rscale>
<asrwt>0</asrwt>
<pdfrwt beam="1">  1       21 0.42705675E-02 0.43453454E+02</pdfrwt>
<pdfrwt beam="2">  1       21 0.15830188E-01 0.43453454E+02</pdfrwt>
<totfact> 0.10949991E+07</totfact>
</mgrwt>
</event>
<event>
 4    1  0.7595771E+004  0.4543163E+02  0.7546771E-02  0.1471665E+00
         21   -1    0    0  503  502  0.00000000000E+00  0.00000000000E+00  0.62494104515E+03  0.62494104515E+03  0.00000000000E+00 0.  1.
         21   -1    0    0  501  503 -0.00000000000E+00 -0.00000000000E+00 -0.47238367237E+01  0.47238367237E+01  0.00000000000E+00 0.  1.
          2    1    1    2  501    0  0.43857547795E+02 -0.11855308945E+02  0.13742934617E+03  0.14474411227E+03  0.00000000000E+00 0.  1.
         -2    1    1    2    0  502 -0.43857547795E+02  0.11855308945E+02  0.48278786226E+03  0.48492076960E+03  0.00000000000E+00 0. -1.
<mgrwt>
<rscale>  2 0.45431628E+02</rscale>
<asrwt>0</asrwt>
<pdfrwt beam="1">  1       21 0.96144711E-01 0.45431628E+02</pdfrwt>
<pdfrwt beam="2">  1       21 0.72674461E-03 0.45431628E+02</pdfrwt>
<totfact> 0.52176766E+06</totfact>
</mgrwt>
</event>
<event>
 4    1  0.7595771E+004  0.5006527E+02  0.7546771E-02  0.1444990E+00
         21   -1    0    0  503  502  0.00000000000E+00  0.00000000000E+00  0.98826065733E+02  0.98826065733E+02  0.00000000000E+00 0. -1.
         21   -1    0    0  501  503 -0.00000000000E+00 -0.00000000000E+00 -0.25898525830E+02  0.25898525830E+02  0.00000000000E+00 0. -1.
          2    1    1    2  501    0  0.28963827291E+02 -0.40836595071E+02  0.45430892528E+02  0.67605449368E+02  0.00000000000E+00 0. -1.
         -2    1    1    2    0  502 -0.28963827291E+02  0.40836595071E+02  0.27496647375E+02  0.57119142196E+02  0.00000000000E+00 0.  1.
<mgrwt>
<rscale>  2 0.50065265E+02</rscale>
<asrwt>0</asrwt>
<pdfrwt beam="1">  1       21 0.15204010E-01 0.50065265E+02</pdfrwt>
<pdfrwt beam="2">  1       21 0.39843886E-02 0.50065265E+02</pdfrwt>
<totfact> 0.13390957E+07</totfact>
</mgrwt>
</event>
<event>
 4    1  0.7595771E+004  0.2128578E+02  0.7546771E-02  0.1720905E+00
         21   -1    0    0  503  502  0.00000000000E+00  0.00000000000E+00  0.15430197461E+02  0.15430197461E+02  0.00000000000E+00 0. -1.
         21   -1    0    0  501  503 -0.00000000000E+00 -0.00000000000E+00 -0.30101436039E+02  0.30101436039E+02  0.00000000000E+00 0. -1.
          1    1    1    2  501    0 -0.14275458072E+02 -0.15789098404E+02 -0.37710737441E+01  0.21617246095E+02  0.00000000000E+00 0.  1.
         -1    1    1    2    0  502  0.14275458072E+02  0.15789098404E+02 -0.10900164834E+02  0.23914387405E+02  0.00000000000E+00 0. -1.
<mgrwt>
<rscale>  2 0.21285778E+02</rscale>
<asrwt>0</asrwt>
<pdfrwt beam="1">  1       21 0.23738765E-02 0.21285778E+02</pdfrwt>
<pdfrwt beam="2">  1       21 0.46309901E-02 0.21285778E+02</pdfrwt>
<totfact> 0.18163118E+08</totfact>
</mgrwt>
</event>
<event>
 4    1  0.7595771E+004  0.2049667E+02  0.7546771E-02  0.1735628E+00
         21   -1    0    0  501  502  0.00000000000E+00  0.00000000000E+00  0.32161064750E+03  0.32161064750E+03  0.00000000000E+00 0.  1.
         21   -1    0    0  502  503 -0.00000000000E+00 -0.00000000000E+00 -0.13187742713E+01  0.13187742713E+01  0.00000000000E+00 0.  1.
          5    1    1    2  501    0 -0.10100049370E+02  0.17835422817E+02  0.17586264101E+03  0.17705304800E+03  0.00000000000E+00 0. -1.
         -5    1    1    2    0  503  0.10100049370E+02 -0.17835422817E+02  0.14442923222E+03  0.14587637377E+03  0.00000000000E+00 0.  1.
<mgrwt>
<rscale>  2 0.20496666E+02</rscale>
<asrwt>0</asrwt>
<pdfrwt beam="1">  1       21 0.49478499E-01 0.20496666E+02</pdfrwt>
<pdfrwt beam="2">  1       21 0.20288860E-03 0.20496666E+02</pdfrwt>
<totfact> 0.11865614E+08</totfact>
</mgrwt>
</event>
<event>
 4    1  0.7595771E+004  0.2232867E+02  0.7546771E-02  0.1702629E+00
         21   -1    0    0  503  502  0.00000000000E+00  0.00000000000E+00  0.30619931690E+01  0.30619931690E+01  0.00000000000E+00 0. -1.
         21   -1    0    0  501  503 -0.00000000000E+00 -0.00000000000E+00 -0.16610629132E+03  0.16610629132E+03  0.00000000000E+00 0. -1.
          3    1    1    2  501    0  0.44894417668E+01  0.21872687924E+02 -0.93410097738E+02  0.96041740529E+02  0.00000000000E+00 0. -1.
         -3    1    1    2    0  502 -0.44894417668E+01 -0.21872687924E+02 -0.69634200412E+02  0.73126543960E+02  0.00000000000E+00 0.  1.
<mgrwt>
<rscale>  2 0.22328671E+02</rscale>
<asrwt>0</asrwt>
<pdfrwt beam="1">  1       21 0.47107573E-03 0.22328671E+02</pdfrwt>
<pdfrwt beam="2">  1       21 0.25554822E-01 0.22328671E+02</pdfrwt>
<totfact> 0.12137427E+08</totfact>
</mgrwt>
</event>
<event>
 4    1  0.7595771E+004  0.2720853E+02  0.7546771E-02  0.1631167E+00
         21   -1    0    0  501  502  0.00000000000E+00  0.00000000000E+00  0.55490293910E+01  0.55490293910E+01  0.00000000000E+00 0.  1.
         21   -1    0    0  502  503 -0.00000000000E+00 -0.00000000000E+00 -0.14208861146E+03  0.14208861146E+03  0.00000000000E+00 0.  1.
          4    1    1    2  501    0  0.26323717652E+02  0.68822762709E+01 -0.86511994484E+02  0.90689740474E+02  0.00000000000E+00 0. -1.
         -4    1    1    2    0  503 -0.26323717652E+02 -0.68822762709E+01 -0.50027587584E+02  0.56947900376E+02  0.00000000000E+00 0.  1.
<mgrwt>
<rscale>  2 0.27208525E+02</rscale>
<asrwt>0</asrwt>
<pdfrwt beam="1">  1       21 0.85369686E-03 0.27208525E+02</pdfrwt>
<pdfrwt beam="2">  1       21 0.21859786E-01 0.27208525E+02</pdfrwt>
<totfact> 0.69644859E+07</totfact>
</mgrwt>
</event>
<event>
 4    1  0.7595771E+004  0.2149243E+02  0.7546771E-02  0.1717181E+00
         21   -1    0    0  501  502  0.00000000000E+00  0.00000000000E+00  0.89470196503E+00  0.89470196503E+00  0.00000000000E+00 0.  1.
         21   -1    0    0  502  503 -0.00000000000E+00 -0.00000000000E+00 -0.51811512095E+03  0.51811512095E+03  0.00000000000E+00 0.  1.
          4    1    1    2  501    0  0.17376040163E+02  0.12649022598E+02 -0.24320282590E+03  0.24415064831E+03  0.00000000000E+00 0. -1.
         -4    1    1    2    0  503 -0.17376040163E+02 -0.12649022598E+02 -0.27401759308E+03  0.27485917460E+03  0.00000000000E+00 0.  1.
<mgrwt>
<rscale>  2 0.21492430E+02</rscale>
<asrwt>0</asrwt>
<pdfrwt beam="1">  1       21 0.13764626E-03 0.21492430E+02</pdfrwt>
<pdfrwt beam="2">  1       21 0.79710134E-01 0.21492430E+02</pdfrwt>
<totfact> 0.80472274E+07</totfact>
</mgrwt>
</event>
<event>
 4    1  0.7595771E+004  0.2748667E+02  0.7546771E-02  0.1627656E+00
         21   -1    0    0  503  502  0.00000000000E+00  0.00000000000E+00  0.36824276046E+02  0.36824276046E+02  0.00000000000E+00 0.  1.
         21   -1    0    0  501  503 -0.00000000000E+00 -0.00000000000E+00 -0.21776228263E+02  0.21776228263E+02  0.00000000000E+00 0.  1.
          4    1    1    2  501    0  0.17029617224E+02  0.21575655469E+02  0.14570379687E+02  0.31109688779E+02  0.00000000000E+00 0. -1.
         -4    1    1    2    0  502 -0.17029617224E+02 -0.21575655469E+02  0.47766809595E+00  0.27490815530E+02  0.00000000000E+00 0.  1.
<mgrwt>
<rscale>  2 0.27486665E+02</rscale>
<asrwt>0</asrwt>
<pdfrwt beam="1">  1       21 0.56652732E-02 0.27486665E+02</pdfrwt>
<pdfrwt beam="2">  1       21 0.33501890E-02 0.27486665E+02</pdfrwt>
<totfact> 0.82835671E+07</totfact>
</mgrwt>
</event>
<event>
 4    1  0.7595771E+004  0.2091962E+02  0.7546771E-02  0.1727635E+00
         21   -1    0    0  501  502  0.00000000000E+00  0.00000000000E+00  0.26413075905E+03  0.26413075905E+03  0.00000000000E+00 0. -1.
         21   -1    0    0  502  503 -0.00000000000E+00 -0.00000000000E+00 -0.16644256173E+01  0.16644256173E+01  0.00000000000E+00 0. -1.
          3    1    1    2  501    0 -0.29844474106E+01  0.20705637223E+02  0.14018720563E+03  0.14173948977E+03  0.00000000000E+00 0. -1.
         -3    1    1    2    0  503  0.29844474106E+01 -0.20705637223E+02  0.12227912781E+03  0.12405569490E+03  0.00000000000E+00 0.  1.
<mgrwt>
<rscale>  2 0.20919616E+02</rscale>
<asrwt>0</asrwt>
<pdfrwt beam="1">  1       21 0.40635468E-01 0.20919616E+02</pdfrwt>
<pdfrwt beam="2">  1       21 0.25606569E-03 0.20919616E+02</pdfrwt>
<totfact> 0.12411059E+08</totfact>
</mgrwt>
</event>
<event>
 4    1  0.7595771E+004  0.2272064E+02  0.7546771E-02  0.1696079E+00
         21   -1    0    0  501  502  0.00000000000E+00  0.00000000000E+00  0.72186649394E+01  0.72186649394E+01  0.00000000000E+00 0. -1.
         21   -1    0    0  502  503 -0.00000000000E+00 -0.00000000000E+00 -0.13434261391E+03  0.13434261391E+03  0.00000000000E+00 0. -1.
          5    1    1    2  501    0  0.68103421086E+00  0.22710426557E+02 -0.15156965110E+02  0.27312284294E+02  0.00000000000E+00 0.  1.
         -5    1    1    2    0  503 -0.68103421086E+00 -0.22710426557E+02 -0.11196698386E+03  0.11424899455E+03  0.00000000000E+00 0. -1.
<mgrwt>
<rscale>  2 0.22720636E+02</rscale>
<asrwt>0</asrwt>
<pdfrwt beam="1">  1       21 0.11105638E-02 0.22720636E+02</pdfrwt>
<pdfrwt beam="2">  1       21 0.20668095E-01 0.22720636E+02</pdfrwt>
<totfact> 0.49518560E+07</totfact>
</mgrwt>
</event>
<event>
 4    1  0.7595771E+004  0.7863607E+02  0.7546771E-02  0.1332967E+00
         21   -1    0    0  503  502  0.00000000000E+00  0.00000000000E+00  0.73433954442E+02  0.73433954442E+02  0.00000000000E+00 0. -1.
         21   -1    0    0  501  503 -0.00000000000E+00 -0.00000000000E+00 -0.85170187583E+02  0.85170187583E+02  0.00000000000E+00 0. -1.
          5    1    1    2  501    0  0.76807738618E+02  0.16858308123E+02  0.25664523144E+01  0.78677938089E+02  0.00000000000E+00 0.  1.
         -5    1    1    2    0  502 -0.76807738618E+02 -0.16858308123E+02 -0.14302685455E+02  0.79926203936E+02  0.00000000000E+00 0. -1.
<mgrwt>
<rscale>  2 0.78636068E+02</rscale>
<asrwt>0</asrwt>
<pdfrwt beam="1">  1       21 0.11297531E-01 0.78636068E+02</pdfrwt>
<pdfrwt beam="2">  1       21 0.13103106E-01 0.78636068E+02</pdfrwt>
<totfact> 0.31630220E+06</totfact>
</mgrwt>
</event>
<event>
 4    1  0.7595771E+004  0.2739398E+02  0.7546771E-02  0.1628821E+00
         21   -1    0    0  501  502  0.00000000000E+00  0.00000000000E+00  0.25444113885E+02  0.25444113885E+02  0.00000000000E+00 0.  1.
         21   -1    0    0  502  503 -0.00000000000E+00 -0.00000000000E+00 -0.38949302792E+02  0.38949302792E+02  0.00000000000E+00 0.  1.
          4    1    1    2  501    0 -0.15000954567E+01  0.27352874530E+02 -0.22616722071E+02  0.35523881385E+02  0.00000000000E+00 0. -1.
         -4    1    1    2    0  503  0.15000954567E+01 -0.27352874530E+02  0.91115331634E+01  0.28869535292E+02  0.00000000000E+00 0.  1.
<mgrwt>
<rscale>  2 0.27393978E+02</rscale>
<asrwt>0</asrwt>
<pdfrwt beam="1">  1       21 0.39144791E-02 0.27393978E+02</pdfrwt>
<pdfrwt beam="2">  1       21 0.59922004E-02 0.27393978E+02</pdfrwt>
<totfact> 0.59117031E+07</totfact>
</mgrwt>
</event>
<event>
 4    1  0.7595771E+004  0.2037994E+02  0.7546771E-02  0.1737876E+00
         21   -1    0    0  501  502  0.00000000000E+00  0.00000000000E+00  0.28568361645E+02  0.28568361645E+02  0.00000000000E+00 0.  1.
         21   -1    0    0  502  503 -0.00000000000E+00 -0.00000000000E+00 -0.28455591342E+02  0.28455591342E+02  0.00000000000E+00 0.  1.
          1    1    1    2  501    0  0.86122694172E+00 -0.20361729951E+02 -0.19883259298E+02  0.28472543946E+02  0.00000000000E+00 0. -1.
         -1    1    1    2    0  503 -0.86122694172E+00  0.20361729951E+02  0.19996029601E+02  0.28551409041E+02  0.00000000000E+00 0.  1.
<mgrwt>
<rscale>  2 0.20379935E+02</rscale>
<asrwt>0</asrwt>
<pdfrwt beam="1">  1       21 0.43951326E-02 0.20379935E+02</pdfrwt>
<pdfrwt beam="2">  1       21 0.43777832E-02 0.20379935E+02</pdfrwt>
<totfact> 0.75123112E+07</totfact>
</mgrwt>
</event>
<event>
 4    1  0.7595771E+004  0.2126124E+02  0.7546771E-02  0.1721351E+00
         21   -1    0    0  501  502  0.00000000000E+00  0.00000000000E+00  0.19317117988E+01  0.19317117988E+01  0.00000000000E+00 0. -1.
         21   -1    0    0  502  503 -0.00000000000E+00 -0.00000000000E+00 -0.32822094414E+03  0.32822094414E+03  0.00000000000E+00 0. -1.
          2    1    1    2  501    0  0.19132698109E+02  0.92725547824E+01 -0.74704012385E+02  0.77670650027E+02  0.00000000000E+00 0. -1.
         -2    1    1    2    0  503 -0.19132698109E+02 -0.92725547824E+01 -0.25158521996E+03  0.25248200591E+03  0.00000000000E+00 0.  1.
<mgrwt>
<rscale>  2 0.21261242E+02</rscale>
<asrwt>0</asrwt>
<pdfrwt beam="1">  1       21 0.29718638E-03 0.21261242E+02</pdfrwt>
<pdfrwt beam="2">  1       21 0.50495538E-01 0.21261242E+02</pdfrwt>
<totfact> 0.66334360E+07</totfact>
</mgrwt>
</event>
<event>
 4    1  0.7595771E+004  0.3302025E+02  0.7546771E-02  0.1566918E+00
         21   -1    0    0  501  502  0.00000000000E+00  0.00000000000E+00  0.18839553742E+02  0.18839553742E+02  0.00000000000E+00 0.  1.
         21   -1    0    0  502  503 -0.00000000000E+00 -0.00000000000E+00 -0.58034126180E+02  0.58034126180E+02  0.00000000000E+00 0.  1.
          3    1    1    2  501    0 -0.21753742971E+02  0.24841735049E+02 -0.21610660123E+02  0.39463372441E+02  0.00000000000E+00 0. -1.
         -3    1    1    2    0  503  0.21753742971E+02 -0.24841735049E+02 -0.17583912315E+02  0.37410307481E+02  0.00000000000E+00 0.  1.
<mgrwt>
<rscale>  2 0.33020253E+02</rscale>
<asrwt>0</asrwt>
<pdfrwt beam="1">  1       21 0.28983929E-02 0.33020253E+02</pdfrwt>
<pdfrwt beam="2">  1       21 0.89283270E-02 0.33020253E+02</pdfrwt>
<totfact> 0.51537120E+07</totfact>
</mgrwt>
</event>
<event>
 4    1  0.7595771E+004  0.3285134E+02  0.7546771E-02  0.1568553E+00
         21   -1    0    0  501  502  0.00000000000E+00  0.00000000000E+00  0.13408804923E+03  0.13408804923E+03  0.00000000000E+00 0. -1.
         21   -1    0    0  502  503 -0.00000000000E+00 -0.00000000000E+00 -0.97478888768E+01  0.97478888768E+01  0.00000000000E+00 0. -1.
          4    1    1    2  501    0 -0.18631950838E+02  0.27056623259E+02  0.92198042106E+02  0.97875887850E+02  0.00000000000E+00 0.  1.
         -4    1    1    2    0  503  0.18631950838E+02 -0.27056623259E+02  0.32142118247E+02  0.45960050257E+02  0.00000000000E+00 0. -1.
<mgrwt>
<rscale>  2 0.32851339E+02</rscale>
<asrwt>0</asrwt>
<pdfrwt beam="1">  1       21 0.20628929E-01 0.32851339E+02</pdfrwt>
<pdfrwt beam="2">  1       21 0.14996753E-02 0.32851339E+02</pdfrwt>
<totfact> 0.34112001E+07</totfact>
</mgrwt>
</event>
<event>
 4    1  0.7595771E+004  0.2041165E+02  0.7546771E-02  0.1737264E+00
         21   -1    0    0  501  502  0.00000000000E+00  0.00000000000E+00  0.33584531270E+01  0.33584531270E+01  0.00000000000E+00 0. -1.
         21   -1    0    0  502  503 -0.00000000000E+00 -0.00000000000E+00 -0.12790816171E+03  0.12790816171E+03  0.00000000000E+00 0. -1.
          1    1    1    2  501    0 -0.16428055137E+02 -0.12114227855E+02 -0.73665280840E+02  0.76440886398E+02  0.00000000000E+00 0.  1.
         -1    1    1    2    0  503  0.16428055137E+02  0.12114227855E+02 -0.50884427741E+02  0.54825728437E+02  0.00000000000E+00 0. -1.
<mgrwt>
<rscale>  2 0.20411651E+02</rscale>
<asrwt>0</asrwt>
<pdfrwt beam="1">  1       21 0.51668508E-03 0.20411651E+02</pdfrwt>
<pdfrwt beam="2">  1       21 0.19678179E-01 0.20411651E+02</pdfrwt>
<totfact> 0.16340237E+08</totfact>
</mgrwt>
</event>
<event>
 4    1  0.7595771E+004  0.2039087E+02  0.7546771E-02  0.1737665E+00
         21   -1    0    0  503  502  0.00000000000E+00  0.00000000000E+00  0.20955820244E+02  0.20955820244E+02  0.00000000000E+00 0.  1.
         21   -1    0    0  501  503 -0.00000000000E+00 -0.00000000000E+00 -0.20274784539E+02  0.20274784539E+02  0.00000000000E+00 0.  1.
          3    1    1    2  501    0 -0.45702079180E+00  0.20385743903E+02  0.33554470076E+01  0.20665102156E+02  0.00000000000E+00 0.  1.
         -3    1    1    2    0  502  0.45702079180E+00 -0.20385743903E+02 -0.26744113023E+01  0.20565502627E+02  0.00000000000E+00 0. -1.
<mgrwt>
<rscale>  2 0.20390866E+02</rscale>
<asrwt>0</asrwt>
<pdfrwt beam="1">  1       21 0.32239723E-02 0.20390866E+02</pdfrwt>
<pdfrwt beam="2">  1       21 0.31191976E-02 0.20390866E+02</pdfrwt>
<totfact> 0.20723607E+08</totfact>
</mgrwt>
</event>
<event>
 4    1  0.7595771E+004  0.2471127E+02  0.7546771E-02  0.1665184E+00
         21   -1    0    0  503  502  0.00000000000E+00  0.00000000000E+00  0.17037597467E+02  0.17037597467E+02  0.00000000000E+00 0. -1.
         21   -1    0    0  501  503 -0.00000000000E+00 -0.00000000000E+00 -0.37810451915E+02  0.37810451915E+02  0.00000000000E+00 0. -1.
          2    1    1    2  501    0 -0.23756084690E+02 -0.68040572261E+01 -0.41277355553E+01  0.25053641559E+02  0.00000000000E+00 0.  1.
         -2    1    1    2    0  502  0.23756084690E+02  0.68040572261E+01 -0.16645118893E+02  0.29794407823E+02  0.00000000000E+00 0. -1.
<mgrwt>
<rscale>  2 0.24711268E+02</rscale>
<asrwt>0</asrwt>
<pdfrwt beam="1">  1       21 0.26211689E-02 0.24711268E+02</pdfrwt>
<pdfrwt beam="2">  1       21 0.58169926E-02 0.24711268E+02</pdfrwt>
<totfact> 0.11330785E+08</totfact>
</mgrwt>
</event>
<event>
 4    1  0.7595771E+004  0.2052517E+02  0.7546771E-02  0.1735082E+00
         21   -1    0    0  503  502  0.00000000000E+00  0.00000000000E+00  0.61596326755E+01  0.61596326755E+01  0.00000000000E+00 0. -1.
         21   -1    0    0  501  503 -0.00000000000E+00 -0.00000000000E+00 -0.85984561722E+02  0.85984561722E+02  0.00000000000E+00 0. -1.
          3    1    1    2  501    0  0.34894025803E+01  0.20226390167E+02 -0.19073993685E+02  0.28019636412E+02  0.00000000000E+00 0.  1.
         -3    1    1    2    0  502 -0.34894025803E+01 -0.20226390167E+02 -0.60750935361E+02  0.64124557985E+02  0.00000000000E+00 0. -1.
<mgrwt>
<rscale>  2 0.20525175E+02</rscale>
<asrwt>0</asrwt>
<pdfrwt beam="1">  1       21 0.94763580E-03 0.20525175E+02</pdfrwt>
<pdfrwt beam="2">  1       21 0.13228394E-01 0.20525175E+02</pdfrwt>
<totfact> 0.13113713E+08</totfact>
</mgrwt>
</event>
<event>
 4    1  0.7595771E+004  0.3941980E+02  0.7546771E-02  0.1512525E+00
         21   -1    0    0  501  502  0.00000000000E+00  0.00000000000E+00  0.17556552196E+02  0.17556552196E+02  0.00000000000E+00 0. -1.
         21   -1    0    0  502  503 -0.00000000000E+00 -0.00000000000E+00 -0.13850064729E+03  0.13850064729E+03  0.00000000000E+00 0. -1.
          2    1    1    2  501    0  0.19494285613E+02  0.34262123537E+02 -0.13593429102E+02  0.41697740893E+02  0.00000000000E+00 0. -1.
         -2    1    1    2    0  503 -0.19494285613E+02 -0.34262123537E+02 -0.10735066599E+03  0.11435945860E+03  0.00000000000E+00 0.  1.
<mgrwt>
<rscale>  2 0.39419796E+02</rscale>
<asrwt>0</asrwt>
<pdfrwt beam="1">  1       21 0.27010081E-02 0.39419796E+02</pdfrwt>
<pdfrwt beam="2">  1       21 0.21307792E-01 0.39419796E+02</pdfrwt>
<totfact> 0.13266180E+07</totfact>
</mgrwt>
</event>
<event>
 4    1  0.7595771E+004  0.2953596E+02  0.7546771E-02  0.1603275E+00
         21   -1    0    0  501  502  0.00000000000E+00  0.00000000000E+00  0.21595671753E+01  0.21595671753E+01  0.00000000000E+00 0. -1.
         21   -1    0    0  502  503 -0.00000000000E+00 -0.00000000000E+00 -0.57314922556E+03  0.57314922556E+03  0.00000000000E+00 0. -1.
          5    1    1    2  501    0  0.19354635964E+02 -0.22310785500E+02 -0.12920637926E+03  0.13253928295E+03  0.00000000000E+00 0. -1.
         -5    1    1    2    0  503 -0.19354635964E+02  0.22310785500E+02 -0.44178327913E+03  0.44276950979E+03  0.00000000000E+00 0.  1.
<mgrwt>
<rscale>  2 0.29535963E+02</rscale>
<asrwt>0</asrwt>
<pdfrwt beam="1">  1       21 0.33224103E-03 0.29535963E+02</pdfrwt>
<pdfrwt beam="2">  1       21 0.88176822E-01 0.29535963E+02</pdfrwt>
<totfact> 0.19308521E+07</totfact>
</mgrwt>
</event>
<event>
 4    1  0.7595771E+004  0.2452382E+02  0.7546771E-02  0.1667937E+00
         21   -1    0    0  503  502  0.00000000000E+00  0.00000000000E+00  0.19166408995E+04  0.19166408995E+04  0.00000000000E+00 0.  1.
         21   -1    0    0  501  503 -0.00000000000E+00 -0.00000000000E+00 -0.37288822994E+00  0.37288822994E+00  0.00000000000E+00 0.  1.
          5    1    1    2  501    0 -0.97650677183E+01  0.22495809307E+02  0.13397286515E+04  0.13399530878E+04  0.00000000000E+00 0. -1.
         -5    1    1    2    0  502  0.97650677183E+01 -0.22495809307E+02  0.57653935981E+03  0.57706069992E+03  0.00000000000E+00 0.  1.
<mgrwt>
<rscale>  2 0.24523825E+02</rscale>
<asrwt>0</asrwt>
<pdfrwt beam="1">  1       21 0.29485994E+00 0.24523825E+02</pdfrwt>
<pdfrwt beam="2">  1       21 0.57368955E-04 0.24523825E+02</pdfrwt>
<totfact> 0.11332250E+07</totfact>
</mgrwt>
</event>
<event>
 4    1  0.7595771E+004  0.3039871E+02  0.7546771E-02  0.1593723E+00
         21   -1    0    0  501  502  0.00000000000E+00  0.00000000000E+00  0.50340287688E+01  0.50340287688E+01  0.00000000000E+00 0.  1.
         21   -1    0    0  502  503 -0.00000000000E+00 -0.00000000000E+00 -0.18372945055E+03  0.18372945055E+03  0.00000000000E+00 0.  1.
          2    1    1    2  501    0 -0.11575615661E+02 -0.28108484574E+02 -0.86541633130E+02  0.91725329369E+02  0.00000000000E+00 0.  1.
         -2    1    1    2    0  503  0.11575615661E+02  0.28108484574E+02 -0.92153788654E+02  0.97038149953E+02  0.00000000000E+00 0. -1.
<mgrwt>
<rscale>  2 0.30398714E+02</rscale>
<asrwt>0</asrwt>
<pdfrwt beam="1">  1       21 0.77446596E-03 0.30398714E+02</pdfrwt>
<pdfrwt beam="2">  1       21 0.28266069E-01 0.30398714E+02</pdfrwt>
<totfact> 0.52068091E+07</totfact>
</mgrwt>
</event>
<event>
 4    1  0.7595771E+004  0.2185302E+02  0.7546771E-02  0.1710806E+00
         21   -1    0    0  503  502  0.00000000000E+00  0.00000000000E+00  0.50071295751E+03  0.50071295751E+03  0.00000000000E+00 0. -1.
         21   -1    0    0  501  503 -0.00000000000E+00 -0.00000000000E+00 -0.95695496464E+00  0.95695496464E+00  0.00000000000E+00 0. -1.
          5    1    1    2  501    0  0.21852998113E+02 -0.30067767736E-01  0.26439673349E+03  0.26529829836E+03  0.00000000000E+00 0. -1.
         -5    1    1    2    0  502 -0.21852998113E+02  0.30067767736E-01  0.23535926905E+03  0.23637161411E+03  0.00000000000E+00 0.  1.
<mgrwt>
<rscale>  2 0.21853019E+02</rscale>
<asrwt>0</asrwt>
<pdfrwt beam="1">  1       21 0.77032553E-01 0.21853019E+02</pdfrwt>
<pdfrwt beam="2">  1       21 0.14722424E-03 0.21853019E+02</pdfrwt>
<totfact> 0.78808992E+07</totfact>
</mgrwt>
</event>
<event>
 4    1  0.7595771E+004  0.2664129E+02  0.7546771E-02  0.1638488E+00
         21   -1    0    0  503  502  0.00000000000E+00  0.00000000000E+00  0.35390847127E+03  0.35390847127E+03  0.00000000000E+00 0. -1.
         21   -1    0    0  501  503 -0.00000000000E+00 -0.00000000000E+00 -0.20261456611E+01  0.20261456611E+01  0.00000000000E+00 0. -1.
          2    1    1    2  501    0 -0.28616694737E+01 -0.26487153685E+02  0.19391195189E+03  0.19573350134E+03  0.00000000000E+00 0. -1.
         -2    1    1    2    0  502  0.28616694737E+01  0.26487153685E+02  0.15797037372E+03  0.16020111559E+03  0.00000000000E+00 0.  1.
<mgrwt>
<rscale>  2 0.26641292E+02</rscale>
<asrwt>0</asrwt>
<pdfrwt beam="1">  1       21 0.54447408E-01 0.26641292E+02</pdfrwt>
<pdfrwt beam="2">  1       21 0.31171500E-03 0.26641292E+02</pdfrwt>
<totfact> 0.56289645E+07</totfact>
</mgrwt>
</event>
<event>
 4    1  0.7595771E+004  0.2068365E+02  0.7546771E-02  0.1732065E+00
         21   -1    0    0  503  502  0.00000000000E+00  0.00000000000E+00  0.15561871375E+03  0.15561871375E+03  0.00000000000E+00 0.  1.
         21   -1    0    0  501  503 -0.00000000000E+00 -0.00000000000E+00 -0.33329760143E+01  0.33329760143E+01  0.00000000000E+00 0.  1.
          2    1    1    2  501    0 -0.33522239226E+01 -0.20410193615E+02  0.42878859783E+02  0.47606827503E+02  0.00000000000E+00 0. -1.
         -2    1    1    2    0  502  0.33522239226E+01  0.20410193615E+02  0.10940687795E+03  0.11134486226E+03  0.00000000000E+00 0.  1.
<mgrwt>
<rscale>  2 0.20683651E+02</rscale>
<asrwt>0</asrwt>
<pdfrwt beam="1">  1       21 0.23941335E-01 0.20683651E+02</pdfrwt>
<pdfrwt beam="2">  1       21 0.51276566E-03 0.20683651E+02</pdfrwt>
<totfact> 0.11770713E+08</totfact>
</mgrwt>
</event>
<event>
 4    1  0.7595771E+004  0.2396039E+02  0.7546771E-02  0.1676399E+00
         21   -1    0    0  501  502  0.00000000000E+00  0.00000000000E+00  0.66799093290E+00  0.66799093290E+00  0.00000000000E+00 0. -1.
         21   -1    0    0  502  503 -0.00000000000E+00 -0.00000000000E+00 -0.89956838110E+03  0.89956838110E+03  0.00000000000E+00 0. -1.
          5    1    1    2  501    0  0.23917988222E+02  0.14248111668E+01 -0.54451463928E+03  0.54504155130E+03  0.00000000000E+00 0.  1.
         -5    1    1    2    0  503 -0.23917988222E+02 -0.14248111668E+01 -0.35438575088E+03  0.35519482073E+03  0.00000000000E+00 0. -1.
<mgrwt>
<rscale>  2 0.23960389E+02</rscale>
<asrwt>0</asrwt>
<pdfrwt beam="1">  1       21 0.10276781E-03 0.23960389E+02</pdfrwt>
<pdfrwt beam="2">  1       21 0.13839518E+00 0.23960389E+02</pdfrwt>
<totfact> 0.37009105E+07</totfact>
</mgrwt>
</event>
<event>
 4    1  0.7595771E+004  0.3901547E+02  0.7546771E-02  0.1515584E+00
         21   -1    0    0  503  502  0.00000000000E+00  0.00000000000E+00  0.69868726934E+02  0.69868726934E+02  0.00000000000E+00 0. -1.
         21   -1    0    0  501  503 -0.00000000000E+00 -0.00000000000E+00 -0.26953878393E+02  0.26953878393E+02  0.00000000000E+00 0. -1.
          3    1    1    2  501    0  0.32168758961E+02  0.22076627519E+02  0.26091514748E+00  0.39016337763E+02  0.00000000000E+00 0.  1.
         -3    1    1    2    0  502 -0.32168758961E+02 -0.22076627519E+02  0.42653933394E+02  0.57806267564E+02  0.00000000000E+00 0. -1.
<mgrwt>
<rscale>  2 0.39015465E+02</rscale>
<asrwt>0</asrwt>
<pdfrwt beam="1">  1       21 0.10749035E-01 0.39015465E+02</pdfrwt>
<pdfrwt beam="2">  1       21 0.41467505E-02 0.39015465E+02</pdfrwt>
<totfact> 0.22012703E+07</totfact>
</mgrwt>
</event>
<event>
 4    1  0.7595771E+004  0.2863125E+02  0.7546771E-02  0.1613730E+00
         21   -1    0    0  503  502  0.00000000000E+00  0.00000000000E+00  0.11043059430E+04  0.11043059430E+04  0.00000000000E+00 0.  1.
         21   -1    0    0  501  503 -0.00000000000E+00 -0.00000000000E+00 -0.74363528895E+00  0.74363528895E+00  0.00000000000E+00 0.  1.
          2    1    1    2  501    0  0.27769333276E+02 -0.69722872143E+01  0.57501610099E+03  0.57572846469E+03  0.00000000000E+00 0.  1.
         -2    1    1    2    0  502 -0.27769333276E+02  0.69722872143E+01  0.52854620668E+03  0.52932111356E+03  0.00000000000E+00 0. -1.
<mgrwt>
<rscale>  2 0.28631253E+02</rscale>
<asrwt>0</asrwt>
<pdfrwt beam="1">  1       21 0.16989191E+00 0.28631253E+02</pdfrwt>
<pdfrwt beam="2">  1       21 0.11440631E-03 0.28631253E+02</pdfrwt>
<totfact> 0.19947754E+07</totfact>
</mgrwt>
</event>
<event>
 4    1  0.7595771E+004  0.2185333E+02  0.7546771E-02  0.1710801E+00
         21   -1    0    0  503  502  0.00000000000E+00  0.00000000000E+00  0.52332493384E+02  0.52332493384E+02  0.00000000000E+00 0. -1.
         21   -1    0    0  501  503 -0.00000000000E+00 -0.00000000000E+00 -0.91326383503E+01  0.91326383503E+01  0.00000000000E+00 0. -1.
          3    1    1    2  501    0 -0.85100389797E+01 -0.20128274740E+02  0.22449842844E+02  0.31329916233E+02  0.00000000000E+00 0.  1.
         -3    1    1    2    0  502  0.85100389797E+01  0.20128274740E+02  0.20750012189E+02  0.30135215501E+02  0.00000000000E+00 0. -1.
<mgrwt>
<rscale>  2 0.21853334E+02</rscale>
<asrwt>0</asrwt>
<pdfrwt beam="1">  1       21 0.80511527E-02 0.21853334E+02</pdfrwt>
<pdfrwt beam="2">  1       21 0.14050213E-02 0.21853334E+02</pdfrwt>
<totfact> 0.16793288E+08</totfact>
</mgrwt>
</event>
<event>
 4    1  0.7595771E+004  0.4649924E+02  0.7546771E-02  0.1465193E+00
         21   -1    0    0  503  502  0.00000000000E+00  0.00000000000E+00  0.10197525825E+02  0.10197525825E+02  0.00000000000E+00 0.  1.
         21   -1    0    0  501  503 -0.00000000000E+00 -0.00000000000E+00 -0.22411785426E+03  0.22411785426E+03  0.00000000000E+00 0.  1.
          1    1    1    2  501    0 -0.10147912809E+02  0.45378402868E+02 -0.13416902668E+03  0.14199826513E+03  0.00000000000E+00 0. -1.
         -1    1    1    2    0  502  0.10147912809E+02 -0.45378402868E+02 -0.79751301759E+02  0.92317114954E+02  0.00000000000E+00 0.  1.
<mgrwt>
<rscale>  2 0.46499243E+02</rscale>
<asrwt>0</asrwt>
<pdfrwt beam="1">  1       21 0.15688502E-02 0.46499243E+02</pdfrwt>
<pdfrwt beam="2">  1       21 0.34479668E-01 0.46499243E+02</pdfrwt>
<totfact> 0.13095835E+07</totfact>
</mgrwt>
</event>
<event>
 4    1  0.7595771E+004  0.2082369E+02  0.7546771E-02  0.1729427E+00
         21   -1    0    0  503  502  0.00000000000E+00  0.00000000000E+00  0.90016075833E+01  0.90016075833E+01  0.00000000000E+00 0. -1.
         21   -1    0    0  501  503 -0.00000000000E+00 -0.00000000000E+00 -0.50574656003E+02  0.50574656003E+02  0.00000000000E+00 0. -1.
          1    1    1    2  501    0 -0.10304628161E+01 -0.20798183000E+02 -0.27279058768E+02  0.34318702146E+02  0.00000000000E+00 0. -1.
         -1    1    1    2    0  502  0.10304628161E+01  0.20798183000E+02 -0.14293989651E+02  0.25257561440E+02  0.00000000000E+00 0.  1.
<mgrwt>
<rscale>  2 0.20823695E+02</rscale>
<asrwt>0</asrwt>
<pdfrwt beam="1">  1       21 0.13848627E-02 0.20823695E+02</pdfrwt>
<pdfrwt beam="2">  1       21 0.77807162E-02 0.20823695E+02</pdfrwt>
<totfact> 0.17873632E+08</totfact>
</mgrwt>
</event>
<event>
 4    1  0.7595771E+004  0.2718913E+02  0.7546771E-02  0.1631414E+00
         21   -1    0    0  503  502  0.00000000000E+00  0.00000000000E+00  0.66464959378E+01  0.66464959378E+01  0.00000000000E+00 0. -1.
         21   -1    0    0  501  503 -0.00000000000E+00 -0.00000000000E+00 -0.11891319732E+03  0.11891319732E+03  0.00000000000E+00 0. -1.
          2    1    1    2  501    0 -0.17836381220E+02  0.20521016069E+02 -0.40169005294E+02  0.48505644845E+02  0.00000000000E+00 0. -1.
         -2    1    1    2    0  502  0.17836381220E+02 -0.20521016069E+02 -0.72097696087E+02  0.77054048411E+02  0.00000000000E+00 0.  1.
<mgrwt>
<rscale>  2 0.27189126E+02</rscale>
<asrwt>0</asrwt>
<pdfrwt beam="1">  1       21 0.10225379E-02 0.27189126E+02</pdfrwt>
<pdfrwt beam="2">  1       21 0.18294337E-01 0.27189126E+02</pdfrwt>
<totfact> 0.72532551E+07</totfact>
</mgrwt>
</event>
<event>
 4    1  0.7595771E+004  0.2488141E+02  0.7546771E-02  0.1662711E+00
         21   -1    0    0  503  502  0.00000000000E+00  0.00000000000E+00  0.74215251569E+02  0.74215251569E+02  0.00000000000E+00 0. -1.
         21   -1    0    0  501  503 -0.00000000000E+00 -0.00000000000E+00 -0.83662937147E+01  0.83662937147E+01  0.00000000000E+00 0. -1.
          3    1    1    2  501    0 -0.14300258137E+02 -0.20361416742E+02  0.35161161282E+02  0.43074260728E+02  0.00000000000E+00 0. -1.
         -3    1    1    2    0  502  0.14300258137E+02  0.20361416742E+02  0.30687796572E+02  0.39507284556E+02  0.00000000000E+00 0.  1.
<mgrwt>
<rscale>  2 0.24881412E+02</rscale>
<asrwt>0</asrwt>
<pdfrwt beam="1">  1       21 0.11417731E-01 0.24881412E+02</pdfrwt>
<pdfrwt beam="2">  1       21 0.12871222E-02 0.24881412E+02</pdfrwt>
<totfact> 0.11191511E+08</totfact>
</mgrwt>
</event>
<event>
 4    1  0.7595771E+004  0.3740731E+02  0.7546771E-02  0.1528206E+00
         21   -1    0    0  501  502  0.00000000000E+00  0.00000000000E+00  0.48774991038E+02  0.48774991038E+02  0.00000000000E+00 0. -1.
         21   -1    0    0  502  503 -0.00000000000E+00 -0.00000000000E+00 -0.30821575097E+02  0.30821575097E+02  0.00000000000E+00 0. -1.
          4    1    1    2  501    0 -0.35266525628E+02 -0.12473117029E+02 -0.14918654041E+01  0.37437042360E+02  0.00000000000E+00 0. -1.
         -4    1    1    2    0  503  0.35266525628E+02  0.12473117029E+02  0.19445281345E+02  0.42159523774E+02  0.00000000000E+00 0.  1.
<mgrwt>
<rscale>  2 0.37407305E+02</rscale>
<asrwt>0</asrwt>
<pdfrwt beam="1">  1       21 0.75038447E-02 0.37407305E+02</pdfrwt>
<pdfrwt beam="2">  1       21 0.47417808E-02 0.37407305E+02</pdfrwt>
<totfact> 0.32144346E+07</totfact>
</mgrwt>
</event>
<event>
 4    1  0.7595771E+004  0.2290730E+02  0.7546771E-02  0.1693017E+00
         21   -1    0    0  503  502  0.00000000000E+00  0.00000000000E+00  0.29459707217E+03  0.29459707217E+03  0.00000000000E+00 0. -1.
         21   -1    0    0  501  503 -0.00000000000E+00 -0.00000000000E+00 -0.19486438593E+01  0.19486438593E+01  0.00000000000E+00 0. -1.
          4    1    1    2  501    0 -0.32505600290E+01 -0.22675497897E+02  0.10286372227E+03  0.10538353621E+03  0.00000000000E+00 0.  1.
         -4    1    1    2    0  502  0.32505600290E+01  0.22675497897E+02  0.18978470604E+03  0.19116217982E+03  0.00000000000E+00 0. -1.
<mgrwt>
<rscale>  2 0.22907299E+02</rscale>
<asrwt>0</asrwt>
<pdfrwt beam="1">  1       21 0.45322591E-01 0.22907299E+02</pdfrwt>
<pdfrwt beam="2">  1       21 0.29979160E-03 0.22907299E+02</pdfrwt>
<totfact> 0.82211576E+07</totfact>
</mgrwt>
</event>
<event>
 4    1  0.7595771E+004  0.8988533E+02  0.7546771E-02  0.1303130E+00
         21   -1    0    0  503  502  0.00000000000E+00  0.00000000000E+00  0.55725368813E+02  0.55725368813E+02  0.00000000000E+00 0.  1.
         21   -1    0    0  501  503 -0.00000000000E+00 -0.00000000000E+00 -0.15215449103E+03  0.15215449103E+03  0.00000000000E+00 0.  1.
          5    1    1    2  501    0  0.78220402199E+02  0.44282508697E+02 -0.25653045564E+02  0.93474331468E+02  0.00000000000E+00 0.  1.
         -5    1    1    2    0  502 -0.78220402199E+02 -0.44282508697E+02 -0.70776076654E+02  0.11440552838E+03  0.00000000000E+00 0. -1.
<mgrwt>
<rscale>  2 0.89885326E+02</rscale>
<asrwt>0</asrwt>
<pdfrwt beam="1">  1       21 0.85731338E-02 0.89885326E+02</pdfrwt>
<pdfrwt beam="2">  1       21 0.23408383E-01 0.89885326E+02</pdfrwt>
<totfact> 0.17977006E+06</totfact>
</mgrwt>
</event>
<event>
 4    1  0.7595771E+004  0.2256561E+02  0.7546771E-02  0.1698650E+00
         21   -1    0    0  503  502  0.00000000000E+00  0.00000000000E+00  0.12962078336E+03  0.12962078336E+03  0.00000000000E+00 0. -1.
         21   -1    0    0  501  503 -0.00000000000E+00 -0.00000000000E+00 -0.40764807807E+01  0.40764807807E+01  0.00000000000E+00 0. -1.
          4    1    1    2  501    0 -0.12277262693E+02 -0.18933450384E+02  0.50032751492E+02  0.54886090629E+02  0.00000000000E+00 0. -1.
         -4    1    1    2    0  502  0.12277262693E+02  0.18933450384E+02  0.75511551088E+02  0.78811173512E+02  0.00000000000E+00 0.  1.
<mgrwt>
<rscale>  2 0.22565609E+02</rscale>
<asrwt>0</asrwt>
<pdfrwt beam="1">  1       21 0.19941656E-01 0.22565609E+02</pdfrwt>
<pdfrwt beam="2">  1       21 0.62715099E-03 0.22565609E+02</pdfrwt>
<totfact> 0.12354293E+08</totfact>
</mgrwt>
</event>
<event>
 4    1  0.7595771E+004  0.3473616E+02  0.7546771E-02  0.1550956E+00
         21   -1    0    0  501  502  0.00000000000E+00  0.00000000000E+00  0.39466135473E+02  0.39466135473E+02  0.00000000000E+00 0.  1.
         21   -1    0    0  502  503 -0.00000000000E+00 -0.00000000000E+00 -0.30856266003E+02  0.30856266003E+02  0.00000000000E+00 0.  1.
          3    1    1    2  501    0 -0.28852508541E+02  0.19342535702E+02  0.76734250228E+01  0.35573619271E+02  0.00000000000E+00 0.  1.
         -3    1    1    2    0  503  0.28852508541E+02 -0.19342535702E+02  0.93644444726E+00  0.34748782204E+02  0.00000000000E+00 0. -1.
<mgrwt>
<rscale>  2 0.34736162E+02</rscale>
<asrwt>0</asrwt>
<pdfrwt beam="1">  1       21 0.60717131E-02 0.34736162E+02</pdfrwt>
<pdfrwt beam="2">  1       21 0.47471179E-02 0.34736162E+02</pdfrwt>
<totfact> 0.44810615E+07</totfact>
</mgrwt>
</event>
<event>
 4    1  0.7595771E+004  0.3245618E+02  0.7546771E-02  0.1572425E+00
         21   -1    0    0  501  502  0.00000000000E+00  0.00000000000E+00  0.42344594007E+03  0.42344594007E+03  0.00000000000E+00 0.  1.
         21   -1    0    0  502  503 -0.00000000000E+00 -0.00000000000E+00 -0.37715863059E+01  0.37715863059E+01  0.00000000000E+00 0.  1.
          5    1    1    2  501    0  0.32386857070E+02  0.21201880682E+01  0.33446684105E+03  0.33603790184E+03  0.00000000000E+00 0. -1.
         -5    1    1    2    0  503 -0.32386857070E+02 -0.21201880682E+01  0.85207512711E+02  0.91179624537E+02  0.00000000000E+00 0.  1.
<mgrwt>
<rscale>  2 0.32456181E+02</rscale>
<asrwt>0</asrwt>
<pdfrwt beam="1">  1       21 0.65145492E-01 0.32456181E+02</pdfrwt>
<pdfrwt beam="2">  1       21 0.58024438E-03 0.32456181E+02</pdfrwt>
<totfact> 0.16198750E+07</totfact>
</mgrwt>
</event>
<event>
 4    1  0.7595771E+004  0.2727490E+02  0.7546771E-02  0.1630324E+00
         21   -1    0    0  501  502  0.00000000000E+00  0.00000000000E+00  0.63894950772E+01  0.63894950772E+01  0.00000000000E+00 0. -1.
         21   -1    0    0  502  503 -0.00000000000E+00 -0.00000000000E+00 -0.11839551012E+03  0.11839551012E+03  0.00000000000E+00 0. -1.
          1    1    1    2  501    0  0.13935167450E+02  0.23446344850E+02 -0.47961141436E+02  0.55174188409E+02  0.00000000000E+00 0.  1.
         -1    1    1    2    0  503 -0.13935167450E+02 -0.23446344850E+02 -0.64044873607E+02  0.69610816788E+02  0.00000000000E+00 0. -1.
<mgrwt>
<rscale>  2 0.27274896E+02</rscale>
<asrwt>0</asrwt>
<pdfrwt beam="1">  1       21 0.98299938E-03 0.27274896E+02</pdfrwt>
<pdfrwt beam="2">  1       21 0.18214691E-01 0.27274896E+02</pdfrwt>
<totfact> 0.77632299E+07</totfact>
</mgrwt>
</event>
<event>
 4    1  0.7595771E+004  0.2763135E+02  0.7546771E-02  0.1625851E+00
         21   -1    0    0  503  502  0.00000000000E+00  0.00000000000E+00  0.11251895032E+03  0.11251895032E+03  0.00000000000E+00 0.  1.
         21   -1    0    0  501  503 -0.00000000000E+00 -0.00000000000E+00 -0.67883874132E+01  0.67883874132E+01  0.00000000000E+00 0.  1.
          5    1    1    2  501    0 -0.25108204668E+01 -0.27517036889E+02  0.54106504741E+02  0.60753645108E+02  0.00000000000E+00 0.  1.
         -5    1    1    2    0  502  0.25108204668E+01  0.27517036889E+02  0.51624058162E+02  0.58553692622E+02  0.00000000000E+00 0. -1.
<mgrwt>
<rscale>  2 0.27631351E+02</rscale>
<asrwt>0</asrwt>
<pdfrwt beam="1">  1       21 0.17310606E-01 0.27631351E+02</pdfrwt>
<pdfrwt beam="2">  1       21 0.10443674E-02 0.27631351E+02</pdfrwt>
<totfact> 0.77643513E+07</totfact>
</mgrwt>
</event>
<event>
 4    1  0.7595771E+004  0.2142462E+02  0.7546771E-02  0.1718397E+00
         21   -1    0    0  503  502  0.00000000000E+00  0.00000000000E+00  0.79049236887E+01  0.79049236887E+01  0.00000000000E+00 0.  1.
         21   -1    0    0  501  503 -0.00000000000E+00 -0.00000000000E+00 -0.79193848547E+02  0.79193848547E+02  0.00000000000E+00 0.  1.
          1    1    1    2  501    0 -0.21743515468E+01  0.21314001379E+02 -0.58137838301E+02  0.61959847496E+02  0.00000000000E+00 0.  1.
         -1    1    1    2    0  502  0.21743515468E+01 -0.21314001379E+02 -0.13151086558E+02  0.25138924740E+02  0.00000000000E+00 0. -1.
<mgrwt>
<rscale>  2 0.21424623E+02</rscale>
<asrwt>0</asrwt>
<pdfrwt beam="1">  1       21 0.12161422E-02 0.21424623E+02</pdfrwt>
<pdfrwt beam="2">  1       21 0.12183668E-01 0.21424623E+02</pdfrwt>
<totfact> 0.10483925E+08</totfact>
</mgrwt>
</event>
<event>
 4    1  0.7595771E+004  0.3226119E+02  0.7546771E-02  0.1574360E+00
         21   -1    0    0  503  502  0.00000000000E+00  0.00000000000E+00  0.62105699223E+03  0.62105699223E+03  0.00000000000E+00 0. -1.
         21   -1    0    0  501  503 -0.00000000000E+00 -0.00000000000E+00 -0.19619747177E+01  0.19619747177E+01  0.00000000000E+00 0. -1.
          5    1    1    2  501    0 -0.55270540806E+00  0.32256455593E+02  0.19058248278E+03  0.19329373284E+03  0.00000000000E+00 0. -1.
         -5    1    1    2    0  502  0.55270540806E+00 -0.32256455593E+02  0.42851253474E+03  0.42972523412E+03  0.00000000000E+00 0.  1.
<mgrwt>
<rscale>  2 0.32261190E+02</rscale>
<asrwt>0</asrwt>
<pdfrwt beam="1">  1       21 0.95547073E-01 0.32261190E+02</pdfrwt>
<pdfrwt beam="2">  1       21 0.30184276E-03 0.32261190E+02</pdfrwt>
<totfact> 0.18928923E+07</totfact>
</mgrwt>
</event>
<event>
 4    1  0.7595771E+004  0.2674394E+02  0.7546771E-02  0.1637147E+00
         21   -1    0    0  503  502  0.00000000000E+00  0.00000000000E+00  0.55663969523E+01  0.55663969523E+01  0.00000000000E+00 0.  1.
         21   -1    0    0  501  503 -0.00000000000E+00 -0.00000000000E+00 -0.18629863466E+03  0.18629863466E+03  0.00000000000E+00 0.  1.
          5    1    1    2  501    0  0.19812772863E+02  0.17963645764E+02 -0.36928250521E+02  0.45595331167E+02  0.00000000000E+00 0. -1.
         -5    1    1    2    0  502 -0.19812772863E+02 -0.17963645764E+02 -0.14380398718E+03  0.14626970044E+03  0.00000000000E+00 0.  1.
<mgrwt>
<rscale>  2 0.26743944E+02</rscale>
<asrwt>0</asrwt>
<pdfrwt beam="1">  1       21 0.85636876E-03 0.26743944E+02</pdfrwt>
<pdfrwt beam="2">  1       21 0.28661328E-01 0.26743944E+02</pdfrwt>
<totfact> 0.42450703E+07</totfact>
</mgrwt>
</event>
<event>
 4    1  0.7595771E+004  0.2099330E+02  0.7546771E-02  0.1726267E+00
         21   -1    0    0  501  502  0.00000000000E+00  0.00000000000E+00  0.11559918829E+01  0.11559918829E+01  0.00000000000E+00 0. -1.
         21   -1    0    0  502  503 -0.00000000000E+00 -0.00000000000E+00 -0.44168702140E+03  0.44168702140E+03  0.00000000000E+00 0. -1.
          1    1    1    2  501    0 -0.19741177265E+02  0.71417438385E+01 -0.13835789059E+03  0.13994150376E+03  0.00000000000E+00 0. -1.
         -1    1    1    2    0  503  0.19741177265E+02 -0.71417438385E+01 -0.30217313892E+03  0.30290150952E+03  0.00000000000E+00 0.  1.
<mgrwt>
<rscale>  2 0.20993299E+02</rscale>
<asrwt>0</asrwt>
<pdfrwt beam="1">  1       21 0.17784481E-03 0.20993299E+02</pdfrwt>
<pdfrwt beam="2">  1       21 0.67951885E-01 0.20993299E+02</pdfrwt>
<totfact> 0.77000434E+07</totfact>
</mgrwt>
</event>
<event>
 4    1  0.7595771E+004  0.2289729E+02  0.7546771E-02  0.1693180E+00
         21   -1    0    0  501  502  0.00000000000E+00  0.00000000000E+00  0.11283106343E+01  0.11283106343E+01  0.00000000000E+00 0. -1.
         21   -1    0    0  502  503 -0.00000000000E+00 -0.00000000000E+00 -0.59184124694E+03  0.59184124694E+03  0.00000000000E+00 0. -1.
          3    1    1    2  501    0 -0.22482745558E+02  0.43372847218E+01 -0.15791947063E+03  0.15957081529E+03  0.00000000000E+00 0.  1.
         -3    1    1    2    0  503  0.22482745558E+02 -0.43372847218E+01 -0.43279346567E+03  0.43339874229E+03  0.00000000000E+00 0. -1.
<mgrwt>
<rscale>  2 0.22897290E+02</rscale>
<asrwt>0</asrwt>
<pdfrwt beam="1">  1       21 0.17358554E-03 0.22897290E+02</pdfrwt>
<pdfrwt beam="2">  1       21 0.91052875E-01 0.22897290E+02</pdfrwt>
<totfact> 0.44179855E+07</totfact>
</mgrwt>
</event>
<event>
 4    1  0.7595771E+004  0.2199957E+02  0.7546771E-02  0.1708259E+00
         21   -1    0    0  501  502  0.00000000000E+00  0.00000000000E+00  0.21755641550E+01  0.21755641550E+01  0.00000000000E+00 0.  1.
         21   -1    0    0  502  503 -0.00000000000E+00 -0.00000000000E+00 -0.24583312512E+03  0.24583312512E+03  0.00000000000E+00 0.  1.
          3    1    1    2  501    0  0.35397928195E+01  0.21712917633E+02 -0.16006316174E+03  0.16156793206E+03  0.00000000000E+00 0. -1.
         -3    1    1    2    0  503 -0.35397928195E+01 -0.21712917633E+02 -0.83594399230E+02  0.86440757216E+02  0.00000000000E+00 0.  1.
<mgrwt>
<rscale>  2 0.21999566E+02</rscale>
<asrwt>0</asrwt>
<pdfrwt beam="1">  1       21 0.33470225E-03 0.21999566E+02</pdfrwt>
<pdfrwt beam="2">  1       21 0.37820473E-01 0.21999566E+02</pdfrwt>
<totfact> 0.97549604E+07</totfact>
</mgrwt>
</event>
<event>
 4    1  0.7595771E+004  0.2759612E+02  0.7546771E-02  0.1626289E+00
         21   -1    0    0  503  502  0.00000000000E+00  0.00000000000E+00  0.42466257957E+01  0.42466257957E+01  0.00000000000E+00 0. -1.
         21   -1    0    0  501  503 -0.00000000000E+00 -0.00000000000E+00 -0.18064590608E+03  0.18064590608E+03  0.00000000000E+00 0. -1.
          3    1    1    2  501    0 -0.68408167832E+00  0.27587644672E+02 -0.80308528663E+02  0.84917641761E+02  0.00000000000E+00 0. -1.
         -3    1    1    2    0  502  0.68408167832E+00 -0.27587644672E+02 -0.96090751624E+02  0.99974890117E+02  0.00000000000E+00 0.  1.
<mgrwt>
<rscale>  2 0.27596125E+02</rscale>
<asrwt>0</asrwt>
<pdfrwt beam="1">  1       21 0.65332708E-03 0.27596125E+02</pdfrwt>
<pdfrwt beam="2">  1       21 0.27791676E-01 0.27596125E+02</pdfrwt>
<totfact> 0.67832081E+07</totfact>
</mgrwt>
</event>
<event>
 4    1  0.7595771E+004  0.2318259E+02  0.7546771E-02  0.1688567E+00
         21   -1    0    0  501  502  0.00000000000E+00  0.00000000000E+00  0.84667438358E+03  0.84667438358E+03  0.00000000000E+00 0.  1.
         21   -1    0    0  502  503 -0.00000000000E+00 -0.00000000000E+00 -0.63895756185E+00  0.63895756185E+00  0.00000000000E+00 0.  1.
          3    1    1    2  501    0  0.11493068295E+02  0.20133100208E+02  0.45736882676E+03  0.45795597608E+03  0.00000000000E+00 0. -1.
         -3    1    1    2    0  503 -0.11493068295E+02 -0.20133100208E+02  0.38866659926E+03  0.38935736506E+03  0.00000000000E+00 0.  1.
<mgrwt>
<rscale>  2 0.23182587E+02</rscale>
<asrwt>0</asrwt>
<pdfrwt beam="1">  1       21 0.13025670E+00 0.23182587E+02</pdfrwt>
<pdfrwt beam="2">  1       21 0.98301841E-04 0.23182587E+02</pdfrwt>
<totfact> 0.45079108E+07</totfact>
</mgrwt>
</event>
<event>
 4    1  0.7595771E+004  0.2243331E+02  0.7546771E-02  0.1700864E+00
         21   -1    0    0  503  502  0.00000000000E+00  0.00000000000E+00  0.35715853768E+01  0.35715853768E+01  0.00000000000E+00 0. -1.
         21   -1    0    0  501  503 -0.00000000000E+00 -0.00000000000E+00 -0.15257372844E+03  0.15257372844E+03  0.00000000000E+00 0. -1.
          3    1    1    2  501    0  0.63823692917E+01 -0.21506248157E+02 -0.52909936033E+02  0.57469249852E+02  0.00000000000E+00 0. -1.
         -3    1    1    2    0  502 -0.63823692917E+01  0.21506248157E+02 -0.96092207033E+02  0.98676063967E+02  0.00000000000E+00 0.  1.
<mgrwt>
<rscale>  2 0.22433309E+02</rscale>
<asrwt>0</asrwt>
<pdfrwt beam="1">  1       21 0.54947463E-03 0.22433309E+02</pdfrwt>
<pdfrwt beam="2">  1       21 0.23472883E-01 0.22433309E+02</pdfrwt>
<totfact> 0.11264745E+08</totfact>
</mgrwt>
</event>
<event>
 4    1  0.7595771E+004  0.2289439E+02  0.7546771E-02  0.1693228E+00
         21   -1    0    0  501  502  0.00000000000E+00  0.00000000000E+00  0.16352607636E+03  0.16352607636E+03  0.00000000000E+00 0. -1.
         21   -1    0    0  502  503 -0.00000000000E+00 -0.00000000000E+00 -0.35115525769E+01  0.35115525769E+01  0.00000000000E+00 0. -1.
          3    1    1    2  501    0  0.14417433756E+02  0.17784558278E+02  0.55343315415E+02  0.59891864810E+02  0.00000000000E+00 0. -1.
         -3    1    1    2    0  503 -0.14417433756E+02 -0.17784558278E+02  0.10467120837E+03  0.10714576413E+03  0.00000000000E+00 0.  1.
<mgrwt>
<rscale>  2 0.22894386E+02</rscale>
<asrwt>0</asrwt>
<pdfrwt beam="1">  1       21 0.25157852E-01 0.22894386E+02</pdfrwt>
<pdfrwt beam="2">  1       21 0.54023898E-03 0.22894386E+02</pdfrwt>
<totfact> 0.10269610E+08</totfact>
</mgrwt>
</event>
<event>
 4    1  0.7595771E+004  0.2404607E+02  0.7546771E-02  0.1675094E+00
         21   -1    0    0  501  502  0.00000000000E+00  0.00000000000E+00  0.18406552890E+02  0.18406552890E+02  0.00000000000E+00 0. -1.
         21   -1    0    0  502  503 -0.00000000000E+00 -0.00000000000E+00 -0.42763669065E+02  0.42763669065E+02  0.00000000000E+00 0. -1.
          2    1    1    2  501    0  0.23583829415E+02  0.46921776494E+01  0.35784762731E+01  0.24310883024E+02  0.00000000000E+00 0.  1.
         -2    1    1    2    0  503 -0.23583829415E+02 -0.46921776494E+01 -0.27935592448E+02  0.36859338930E+02  0.00000000000E+00 0. -1.
<mgrwt>
<rscale>  2 0.24046071E+02</rscale>
<asrwt>0</asrwt>
<pdfrwt beam="1">  1       21 0.28317774E-02 0.24046071E+02</pdfrwt>
<pdfrwt beam="2">  1       21 0.65790259E-02 0.24046071E+02</pdfrwt>
<totfact> 0.81769550E+07</totfact>
</mgrwt>
</event>
<event>
 4    1  0.7595771E+004  0.2887337E+02  0.7546771E-02  0.1610887E+00
         21   -1    0    0  503  502  0.00000000000E+00  0.00000000000E+00  0.19899588359E+03  0.19899588359E+03  0.00000000000E+00 0. -1.
         21   -1    0    0  501  503 -0.00000000000E+00 -0.00000000000E+00 -0.54031413130E+01  0.54031413130E+01  0.00000000000E+00 0. -1.
          5    1    1    2  501    0  0.20903784442E+02 -0.19917407471E+02  0.48357885890E+02  0.56321900289E+02  0.00000000000E+00 0.  1.
         -5    1    1    2    0  502 -0.20903784442E+02  0.19917407471E+02  0.14523485638E+03  0.14807712461E+03  0.00000000000E+00 0. -1.
<mgrwt>
<rscale>  2 0.28873367E+02</rscale>
<asrwt>0</asrwt>
<pdfrwt beam="1">  1       21 0.30614746E-01 0.28873367E+02</pdfrwt>
<pdfrwt beam="2">  1       21 0.83125266E-03 0.28873367E+02</pdfrwt>
<totfact> 0.40000526E+07</totfact>
</mgrwt>
</event>
<event>
 4    1  0.7595771E+004  0.3264498E+02  0.7546771E-02  0.1570567E+00
         21   -1    0    0  503  502  0.00000000000E+00  0.00000000000E+00  0.38986584229E+03  0.38986584229E+03  0.00000000000E+00 0. -1.
         21   -1    0    0  501  503 -0.00000000000E+00 -0.00000000000E+00 -0.29253505923E+01  0.29253505923E+01  0.00000000000E+00 0. -1.
          5    1    1    2  501    0 -0.29565792331E+02 -0.13840476737E+02  0.24376633871E+03  0.24594251922E+03  0.00000000000E+00 0. -1.
         -5    1    1    2    0  502  0.29565792331E+02  0.13840476737E+02  0.14317415299E+03  0.14684867366E+03  0.00000000000E+00 0.  1.
<mgrwt>
<rscale>  2 0.32644982E+02</rscale>
<asrwt>0</asrwt>
<pdfrwt beam="1">  1       21 0.59979319E-01 0.32644982E+02</pdfrwt>
<pdfrwt beam="2">  1       21 0.45005425E-03 0.32644982E+02</pdfrwt>
<totfact> 0.28043563E+07</totfact>
</mgrwt>
</event>
<event>
 4    1  0.7595771E+004  0.3316812E+02  0.7546771E-02  0.1565497E+00
         21   -1    0    0  503  502  0.00000000000E+00  0.00000000000E+00  0.14983266487E+03  0.14983266487E+03  0.00000000000E+00 0. -1.
         21   -1    0    0  501  503 -0.00000000000E+00 -0.00000000000E+00 -0.75155356784E+01  0.75155356784E+01  0.00000000000E+00 0. -1.
          4    1    1    2  501    0  0.29318387073E+02  0.15509869707E+02  0.83101407007E+02  0.89476073481E+02  0.00000000000E+00 0. -1.
         -4    1    1    2    0  502 -0.29318387073E+02 -0.15509869707E+02  0.59215722184E+02  0.67872127068E+02  0.00000000000E+00 0.  1.
<mgrwt>
<rscale>  2 0.33168115E+02</rscale>
<asrwt>0</asrwt>
<pdfrwt beam="1">  1       21 0.23051177E-01 0.33168115E+02</pdfrwt>
<pdfrwt beam="2">  1       21 0.11562364E-02 0.33168115E+02</pdfrwt>
<totfact> 0.41761739E+07</totfact>
</mgrwt>
</event>
<event>
 4    1  0.7595771E+004  0.2068779E+02  0.7546771E-02  0.1731987E+00
         21   -1    0    0  501  502  0.00000000000E+00  0.00000000000E+00  0.12798778070E+03  0.12798778070E+03  0.00000000000E+00 0. -1.
         21   -1    0    0  502  503 -0.00000000000E+00 -0.00000000000E+00 -0.46781831352E+01  0.46781831352E+01  0.00000000000E+00 0. -1.
          5    1    1    2  501    0 -0.17400019893E+02  0.11190347227E+02  0.97079565265E+02  0.99259390263E+02  0.00000000000E+00 0.  1.
         -5    1    1    2    0  503  0.17400019893E+02 -0.11190347227E+02  0.26230032295E+02  0.33406573567E+02  0.00000000000E+00 0. -1.
<mgrwt>
<rscale>  2 0.20687788E+02</rscale>
<asrwt>0</asrwt>
<pdfrwt beam="1">  1       21 0.19690425E-01 0.20687788E+02</pdfrwt>
<pdfrwt beam="2">  1       21 0.71972058E-03 0.20687788E+02</pdfrwt>
<totfact> 0.10046030E+08</totfact>
</mgrwt>
</event>
<event>
 4    1  0.7595771E+004  0.3605430E+02  0.7546771E-02  0.1539433E+00
         21   -1    0    0  501  502  0.00000000000E+00  0.00000000000E+00  0.25090795788E+04  0.25090795788E+04  0.00000000000E+00 0. -1.
         21   -1    0    0  502  503 -0.00000000000E+00 -0.00000000000E+00 -0.52206667836E+00  0.52206667836E+00  0.00000000000E+00 0. -1.
          2    1    1    2  501    0 -0.98351634463E+01 -0.34686920080E+02  0.11446754237E+04  0.11452430914E+04  0.00000000000E+00 0.  1.
         -2    1    1    2    0  503  0.98351634463E+01  0.34686920080E+02  0.13638820884E+04  0.13643585541E+04  0.00000000000E+00 0. -1.
<mgrwt>
<rscale>  2 0.36054304E+02</rscale>
<asrwt>0</asrwt>
<pdfrwt beam="1">  1       21 0.38600259E+00 0.36054304E+02</pdfrwt>
<pdfrwt beam="2">  1       21 0.80319959E-04 0.36054304E+02</pdfrwt>
<totfact> 0.23556293E+06</totfact>
</mgrwt>
</event>
<event>
 4    1  0.7595771E+004  0.4185897E+02  0.7546771E-02  0.1494961E+00
         21   -1    0    0  503  502  0.00000000000E+00  0.00000000000E+00  0.96290208100E+00  0.96290208100E+00  0.00000000000E+00 0. -1.
         21   -1    0    0  501  503 -0.00000000000E+00 -0.00000000000E+00 -0.18548542508E+04  0.18548542508E+04  0.00000000000E+00 0. -1.
          3    1    1    2  501    0  0.33650558590E+02 -0.24896044303E+02 -0.79916469685E+03  0.80026019881E+03  0.00000000000E+00 0. -1.
         -3    1    1    2    0  502 -0.33650558590E+02  0.24896044303E+02 -0.10547266519E+04  0.10555569541E+04  0.00000000000E+00 0.  1.
<mgrwt>
<rscale>  2 0.41858967E+02</rscale>
<asrwt>0</asrwt>
<pdfrwt beam="1">  1       21 0.14814011E-03 0.41858967E+02</pdfrwt>
<pdfrwt beam="2">  1       21 0.28535964E+00 0.41858967E+02</pdfrwt>
<totfact> 0.32403211E+06</totfact>
</mgrwt>
</event>
<event>
 4    1  0.7595771E+004  0.2039878E+02  0.7546771E-02  0.1737512E+00
         21   -1    0    0  501  502  0.00000000000E+00  0.00000000000E+00  0.48618972611E+02  0.48618972611E+02  0.00000000000E+00 0.  1.
         21   -1    0    0  502  503 -0.00000000000E+00 -0.00000000000E+00 -0.15956940361E+02  0.15956940361E+02  0.00000000000E+00 0.  1.
          3    1    1    2  501    0  0.20205987403E+02  0.27979433856E+01  0.38316339433E+02  0.43407974862E+02  0.00000000000E+00 0.  1.
         -3    1    1    2    0  503 -0.20205987403E+02 -0.27979433856E+01 -0.56543071829E+01  0.21167938110E+02  0.00000000000E+00 0. -1.
<mgrwt>
<rscale>  2 0.20398785E+02</rscale>
<asrwt>0</asrwt>
<pdfrwt beam="1">  1       21 0.74798419E-02 0.20398785E+02</pdfrwt>
<pdfrwt beam="2">  1       21 0.24549139E-02 0.20398785E+02</pdfrwt>
<totfact> 0.79129311E+07</totfact>
</mgrwt>
</event>
<event>
 4    1  0.7595771E+004  0.2636941E+02  0.7546771E-02  0.1642077E+00
         21   -1    0    0  501  502  0.00000000000E+00  0.00000000000E+00  0.54782444269E+02  0.54782444269E+02  0.00000000000E+00 0.  1.
         21   -1    0    0  502  503 -0.00000000000E+00 -0.00000000000E+00 -0.12836750728E+02  0.12836750728E+02  0.00000000000E+00 0.  1.
          2    1    1    2  501    0 -0.23615819404E+02  0.11731950977E+02  0.24552467367E+02  0.36030115926E+02  0.00000000000E+00 0.  1.
         -2    1    1    2    0  503  0.23615819404E+02 -0.11731950977E+02  0.17393226173E+02  0.31589079071E+02  0.00000000000E+00 0. -1.
<mgrwt>
<rscale>  2 0.26369407E+02</rscale>
<asrwt>0</asrwt>
<pdfrwt beam="1">  1       21 0.84280683E-02 0.26369407E+02</pdfrwt>
<pdfrwt beam="2">  1       21 0.19748847E-02 0.26369407E+02</pdfrwt>
<totfact> 0.97742990E+07</totfact>
</mgrwt>
</event>
<event>
 4    1  0.7595771E+004  0.3773796E+02  0.7546771E-02  0.1525550E+00
         21   -1    0    0  503  502  0.00000000000E+00  0.00000000000E+00  0.47389088321E+01  0.47389088321E+01  0.00000000000E+00 0.  1.
         21   -1    0    0  501  503 -0.00000000000E+00 -0.00000000000E+00 -0.32755776107E+03  0.32755776107E+03  0.00000000000E+00 0.  1.
          2    1    1    2  501    0 -0.26124625305E+02 -0.27233390273E+02 -0.11367748604E+03  0.11977781274E+03  0.00000000000E+00 0. -1.
         -2    1    1    2    0  502  0.26124625305E+02  0.27233390273E+02 -0.20914136620E+03  0.21251885716E+03  0.00000000000E+00 0.  1.
<mgrwt>
<rscale>  2 0.37737960E+02</rscale>
<asrwt>0</asrwt>
<pdfrwt beam="1">  1       21 0.72906311E-03 0.37737960E+02</pdfrwt>
<pdfrwt beam="2">  1       21 0.50393487E-01 0.37737960E+02</pdfrwt>
<totfact> 0.19743574E+07</totfact>
</mgrwt>
</event>
<event>
 4    1  0.7595771E+004  0.2826003E+02  0.7546771E-02  0.1618158E+00
         21   -1    0    0  503  502  0.00000000000E+00  0.00000000000E+00  0.13100622897E+02  0.13100622897E+02  0.00000000000E+00 0.  1.
         21   -1    0    0  501  503 -0.00000000000E+00 -0.00000000000E+00 -0.73143170711E+02  0.73143170711E+02  0.00000000000E+00 0.  1.
          3    1    1    2  501    0  0.13283949250E+01 -0.28228787608E+02 -0.12422979878E+02  0.30870042306E+02  0.00000000000E+00 0. -1.
         -3    1    1    2    0  502 -0.13283949250E+01  0.28228787608E+02 -0.47619567936E+02  0.55373751303E+02  0.00000000000E+00 0.  1.
<mgrwt>
<rscale>  2 0.28260026E+02</rscale>
<asrwt>0</asrwt>
<pdfrwt beam="1">  1       21 0.20154804E-02 0.28260026E+02</pdfrwt>
<pdfrwt beam="2">  1       21 0.11252796E-01 0.28260026E+02</pdfrwt>
<totfact> 0.59591617E+07</totfact>
</mgrwt>
</event>
<event>
 4    1  0.7595771E+004  0.2032627E+02  0.7546771E-02  0.1738917E+00
         21   -1    0    0  503  502  0.00000000000E+00  0.00000000000E+00  0.20424239660E+02  0.20424239660E+02  0.00000000000E+00 0. -1.
         21   -1    0    0  501  503 -0.00000000000E+00 -0.00000000000E+00 -0.25763914304E+02  0.25763914304E+02  0.00000000000E+00 0. -1.
          2    1    1    2  501    0  0.11040908476E+02  0.17066214066E+02  0.80344809621E+01  0.21856582689E+02  0.00000000000E+00 0.  1.
         -2    1    1    2    0  502 -0.11040908476E+02 -0.17066214066E+02 -0.13374155605E+02  0.24331571274E+02  0.00000000000E+00 0. -1.
<mgrwt>
<rscale>  2 0.20326272E+02</rscale>
<asrwt>0</asrwt>
<pdfrwt beam="1">  1       21 0.31421907E-02 0.20326272E+02</pdfrwt>
<pdfrwt beam="2">  1       21 0.39636791E-02 0.20326272E+02</pdfrwt>
<totfact> 0.14827402E+08</totfact>
</mgrwt>
</event>
<event>
 4    1  0.7595771E+004  0.2446180E+02  0.7546771E-02  0.1668855E+00
         21   -1    0    0  501  502  0.00000000000E+00  0.00000000000E+00  0.98638626431E+02  0.98638626431E+02  0.00000000000E+00 0.  1.
         21   -1    0    0  502  503 -0.00000000000E+00 -0.00000000000E+00 -0.75810881389E+01  0.75810881389E+01  0.00000000000E+00 0.  1.
          3    1    1    2  501    0 -0.22729663628E+02 -0.90411366495E+01  0.69268364023E+02  0.73460778753E+02  0.00000000000E+00 0. -1.
         -3    1    1    2    0  503  0.22729663628E+02  0.90411366495E+01  0.21789174269E+02  0.32758935817E+02  0.00000000000E+00 0.  1.
<mgrwt>
<rscale>  2 0.24461802E+02</rscale>
<asrwt>0</asrwt>
<pdfrwt beam="1">  1       21 0.15175172E-01 0.24461802E+02</pdfrwt>
<pdfrwt beam="2">  1       21 0.11663213E-02 0.24461802E+02</pdfrwt>
<totfact> 0.79959552E+07</totfact>
</mgrwt>
</event>
<event>
 4    1  0.7595771E+004  0.2587020E+02  0.7546771E-02  0.1648809E+00
         21   -1    0    0  501  502  0.00000000000E+00  0.00000000000E+00  0.72423656429E+02  0.72423656429E+02  0.00000000000E+00 0.  1.
         21   -1    0    0  502  503 -0.00000000000E+00 -0.00000000000E+00 -0.93795491516E+01  0.93795491516E+01  0.00000000000E+00 0.  1.
          3    1    1    2  501    0  0.10436567490E+02 -0.23671611286E+02  0.36493111739E+02  0.44732698625E+02  0.00000000000E+00 0. -1.
         -3    1    1    2    0  503 -0.10436567490E+02  0.23671611286E+02  0.26550995539E+02  0.37070506956E+02  0.00000000000E+00 0.  1.
<mgrwt>
<rscale>  2 0.25870198E+02</rscale>
<asrwt>0</asrwt>
<pdfrwt beam="1">  1       21 0.11142101E-01 0.25870198E+02</pdfrwt>
<pdfrwt beam="2">  1       21 0.14430076E-02 0.25870198E+02</pdfrwt>
<totfact> 0.98992285E+07</totfact>
</mgrwt>
</event>
<event>
 4    1  0.7595771E+004  0.2081991E+02  0.7546771E-02  0.1729498E+00
         21   -1    0    0  501  502  0.00000000000E+00  0.00000000000E+00  0.10317069377E+04  0.10317069377E+04  0.00000000000E+00 0. -1.
         21   -1    0    0  502  503 -0.00000000000E+00 -0.00000000000E+00 -0.42244314166E+00  0.42244314166E+00  0.00000000000E+00 0. -1.
          4    1    1    2  501    0  0.17743190675E+02  0.10892563530E+02  0.55368770167E+03  0.55407900135E+03  0.00000000000E+00 0. -1.
         -4    1    1    2    0  503 -0.17743190675E+02 -0.10892563530E+02  0.47759679290E+03  0.47805037950E+03  0.00000000000E+00 0.  1.
<mgrwt>
<rscale>  2 0.20819912E+02</rscale>
<asrwt>0</asrwt>
<pdfrwt beam="1">  1       21 0.15872213E+00 0.20819912E+02</pdfrwt>
<pdfrwt beam="2">  1       21 0.64992079E-04 0.20819912E+02</pdfrwt>
<totfact> 0.49859350E+07</totfact>
</mgrwt>
</event>
<event>
 4    1  0.7595771E+004  0.2093098E+02  0.7546771E-02  0.1727424E+00
         21   -1    0    0  501  502  0.00000000000E+00  0.00000000000E+00  0.12942121718E+02  0.12942121718E+02  0.00000000000E+00 0.  1.
         21   -1    0    0  502  503 -0.00000000000E+00 -0.00000000000E+00 -0.34255558935E+02  0.34255558935E+02  0.00000000000E+00 0.  1.
          2    1    1    2  501    0  0.20732112365E+01 -0.20828053714E+02 -0.13220742768E+02  0.24756697390E+02  0.00000000000E+00 0. -1.
         -2    1    1    2    0  503 -0.20732112365E+01  0.20828053714E+02 -0.80926944490E+01  0.22440983262E+02  0.00000000000E+00 0.  1.
<mgrwt>
<rscale>  2 0.20930982E+02</rscale>
<asrwt>0</asrwt>
<pdfrwt beam="1">  1       21 0.19910957E-02 0.20930982E+02</pdfrwt>
<pdfrwt beam="2">  1       21 0.52700859E-02 0.20930982E+02</pdfrwt>
<totfact> 0.19274508E+08</totfact>
</mgrwt>
</event>
<event>
 4    1  0.7595771E+004  0.2020333E+02  0.7546771E-02  0.1741315E+00
         21   -1    0    0  503  502  0.00000000000E+00  0.00000000000E+00  0.45635215951E+03  0.45635215951E+03  0.00000000000E+00 0. -1.
         21   -1    0    0  501  503 -0.00000000000E+00 -0.00000000000E+00 -0.94946967628E+00  0.94946967628E+00  0.00000000000E+00 0. -1.
          1    1    1    2  501    0 -0.46656193280E+01  0.19657226483E+02  0.28275352318E+03  0.28347438936E+03  0.00000000000E+00 0.  1.
         -1    1    1    2    0  502  0.46656193280E+01 -0.19657226483E+02  0.17264916666E+03  0.17382723982E+03  0.00000000000E+00 0. -1.
<mgrwt>
<rscale>  2 0.20203330E+02</rscale>
<asrwt>0</asrwt>
<pdfrwt beam="1">  1       21 0.70207849E-01 0.20203330E+02</pdfrwt>
<pdfrwt beam="2">  1       21 0.14607262E-03 0.20203330E+02</pdfrwt>
<totfact> 0.94555378E+07</totfact>
</mgrwt>
</event>
<event>
 4    1  0.7595771E+004  0.2464407E+02  0.7546771E-02  0.1666167E+00
         21   -1    0    0  501  502  0.00000000000E+00  0.00000000000E+00  0.76679556104E+01  0.76679556104E+01  0.00000000000E+00 0. -1.
         21   -1    0    0  502  503 -0.00000000000E+00 -0.00000000000E+00 -0.15012325812E+03  0.15012325812E+03  0.00000000000E+00 0. -1.
          4    1    1    2  501    0 -0.23590463508E+02 -0.71288409561E+01 -0.12545419024E+03  0.12785180558E+03  0.00000000000E+00 0.  1.
         -4    1    1    2    0  503  0.23590463508E+02  0.71288409561E+01 -0.17001112273E+02  0.29939408151E+02  0.00000000000E+00 0. -1.
<mgrwt>
<rscale>  2 0.24644073E+02</rscale>
<asrwt>0</asrwt>
<pdfrwt beam="1">  1       21 0.11796856E-02 0.24644073E+02</pdfrwt>
<pdfrwt beam="2">  1       21 0.23095884E-01 0.24644073E+02</pdfrwt>
<totfact> 0.37912598E+07</totfact>
</mgrwt>
</event>
<event>
 4    1  0.7595771E+004  0.2012394E+02  0.7546771E-02  0.1742875E+00
         21   -1    0    0  503  502  0.00000000000E+00  0.00000000000E+00  0.50959763132E+01  0.50959763132E+01  0.00000000000E+00 0. -1.
         21   -1    0    0  501  503 -0.00000000000E+00 -0.00000000000E+00 -0.14648944274E+03  0.14648944274E+03  0.00000000000E+00 0. -1.
          3    1    1    2  501    0  0.20065004646E+02 -0.15389590324E+01 -0.12196250420E+03  0.12361159022E+03  0.00000000000E+00 0. -1.
         -3    1    1    2    0  502 -0.20065004646E+02  0.15389590324E+01 -0.19430962220E+02  0.27973828825E+02  0.00000000000E+00 0.  1.
<mgrwt>
<rscale>  2 0.20123936E+02</rscale>
<asrwt>0</asrwt>
<pdfrwt beam="1">  1       21 0.78399623E-03 0.20123936E+02</pdfrwt>
<pdfrwt beam="2">  1       21 0.22536841E-01 0.20123936E+02</pdfrwt>
<totfact> 0.69377483E+07</totfact>
</mgrwt>
</event>
<event>
 4    1  0.7595771E+004  0.2521455E+02  0.7546771E-02  0.1657939E+00
         21   -1    0    0  503  502  0.00000000000E+00  0.00000000000E+00  0.39956159151E+01  0.39956159151E+01  0.00000000000E+00 0.  1.
         21   -1    0    0  501  503 -0.00000000000E+00 -0.00000000000E+00 -0.16739043276E+03  0.16739043276E+03  0.00000000000E+00 0.  1.
          3    1    1    2  501    0  0.69245813294E+01  0.24245074128E+02 -0.10074776594E+03  0.10385511922E+03  0.00000000000E+00 0. -1.
         -3    1    1    2    0  502 -0.69245813294E+01 -0.24245074128E+02 -0.62647050899E+02  0.67530929451E+02  0.00000000000E+00 0.  1.
<mgrwt>
<rscale>  2 0.25214548E+02</rscale>
<asrwt>0</asrwt>
<pdfrwt beam="1">  1       21 0.61471008E-03 0.25214548E+02</pdfrwt>
<pdfrwt beam="2">  1       21 0.25752377E-01 0.25214548E+02</pdfrwt>
<totfact> 0.83418718E+07</totfact>
</mgrwt>
</event>
<event>
 4    1  0.7595771E+004  0.2180302E+02  0.7546771E-02  0.1711681E+00
         21   -1    0    0  503  502  0.00000000000E+00  0.00000000000E+00  0.16181345114E+03  0.16181345114E+03  0.00000000000E+00 0. -1.
         21   -1    0    0  501  503 -0.00000000000E+00 -0.00000000000E+00 -0.33691742303E+01  0.33691742303E+01  0.00000000000E+00 0. -1.
          2    1    1    2  501    0  0.49018945966E+01 -0.21244836020E+02  0.10877584478E+03  0.11093942507E+03  0.00000000000E+00 0. -1.
         -2    1    1    2    0  502 -0.49018945966E+01  0.21244836020E+02  0.49668432129E+02  0.54243200295E+02  0.00000000000E+00 0.  1.
<mgrwt>
<rscale>  2 0.21803019E+02</rscale>
<asrwt>0</asrwt>
<pdfrwt beam="1">  1       21 0.24894371E-01 0.21803019E+02</pdfrwt>
<pdfrwt beam="2">  1       21 0.51833462E-03 0.21803019E+02</pdfrwt>
<totfact> 0.10973496E+08</totfact>
</mgrwt>
</event>
<event>
 4    1  0.7595771E+004  0.2952780E+02  0.7546771E-02  0.1603368E+00
         21   -1    0    0  501  502  0.00000000000E+00  0.00000000000E+00  0.34357358950E+03  0.34357358950E+03  0.00000000000E+00 0.  1.
         21   -1    0    0  502  503 -0.00000000000E+00 -0.00000000000E+00 -0.32673914906E+01  0.32673914906E+01  0.00000000000E+00 0.  1.
          4    1    1    2  501    0  0.11731626919E+02  0.27097228691E+02  0.25210628620E+03  0.25382960902E+03  0.00000000000E+00 0.  1.
         -4    1    1    2    0  503 -0.11731626919E+02 -0.27097228691E+02  0.88199911806E+02  0.93011371968E+02  0.00000000000E+00 0. -1.
<mgrwt>
<rscale>  2 0.29527798E+02</rscale>
<asrwt>0</asrwt>
<pdfrwt beam="1">  1       21 0.52857447E-01 0.29527798E+02</pdfrwt>
<pdfrwt beam="2">  1       21 0.50267588E-03 0.29527798E+02</pdfrwt>
<totfact> 0.30107938E+07</totfact>
</mgrwt>
</event>
<event>
 4    1  0.7595771E+004  0.3659498E+02  0.7546771E-02  0.1534876E+00
         21   -1    0    0  503  502  0.00000000000E+00  0.00000000000E+00  0.14613749595E+03  0.14613749595E+03  0.00000000000E+00 0.  1.
         21   -1    0    0  501  503 -0.00000000000E+00 -0.00000000000E+00 -0.10393148077E+02  0.10393148077E+02  0.00000000000E+00 0.  1.
          5    1    1    2  501    0  0.36158640280E+02 -0.56342844443E+01  0.40956086752E+02  0.54923523832E+02  0.00000000000E+00 0.  1.
         -5    1    1    2    0  502 -0.36158640280E+02  0.56342844443E+01  0.94788261123E+02  0.10160712020E+03  0.00000000000E+00 0. -1.
<mgrwt>
<rscale>  2 0.36594978E+02</rscale>
<asrwt>0</asrwt>
<pdfrwt beam="1">  1       21 0.22482690E-01 0.36594978E+02</pdfrwt>
<pdfrwt beam="2">  1       21 0.15989460E-02 0.36594978E+02</pdfrwt>
<totfact> 0.27028142E+07</totfact>
</mgrwt>
</event>
<event>
 4    1  0.7595771E+004  0.2896545E+02  0.7546771E-02  0.1609814E+00
         21   -1    0    0  503  502  0.00000000000E+00  0.00000000000E+00  0.20405368350E+01  0.20405368350E+01  0.00000000000E+00 0. -1.
         21   -1    0    0  501  503 -0.00000000000E+00 -0.00000000000E+00 -0.45604372078E+03  0.45604372078E+03  0.00000000000E+00 0. -1.
          3    1    1    2  501    0  0.28496437286E+02  0.51913974132E+01 -0.29885243213E+03  0.30025284967E+03  0.00000000000E+00 0. -1.
         -3    1    1    2    0  502 -0.28496437286E+02 -0.51913974132E+01 -0.15515075181E+03  0.15783140794E+03  0.00000000000E+00 0.  1.
<mgrwt>
<rscale>  2 0.28965454E+02</rscale>
<asrwt>0</asrwt>
<pdfrwt beam="1">  1       21 0.31392915E-03 0.28965454E+02</pdfrwt>
<pdfrwt beam="2">  1       21 0.70160483E-01 0.28965454E+02</pdfrwt>
<totfact> 0.33907018E+07</totfact>
</mgrwt>
</event>
<event>
 4    1  0.7595771E+004  0.2253361E+02  0.7546771E-02  0.1699184E+00
         21   -1    0    0  501  502  0.00000000000E+00  0.00000000000E+00  0.49360776550E+01  0.49360776550E+01  0.00000000000E+00 0.  1.
         21   -1    0    0  502  503 -0.00000000000E+00 -0.00000000000E+00 -0.10967460378E+03  0.10967460378E+03  0.00000000000E+00 0.  1.
          2    1    1    2  501    0 -0.45430023992E+01 -0.22070899845E+02 -0.66645488842E+02  0.70351863328E+02  0.00000000000E+00 0. -1.
         -2    1    1    2    0  503  0.45430023992E+01  0.22070899845E+02 -0.38093037281E+02  0.44258818105E+02  0.00000000000E+00 0.  1.
<mgrwt>
<rscale>  2 0.22533608E+02</rscale>
<asrwt>0</asrwt>
<pdfrwt beam="1">  1       21 0.75939660E-03 0.22533608E+02</pdfrwt>
<pdfrwt beam="2">  1       21 0.16873015E-01 0.22533608E+02</pdfrwt>
<totfact> 0.12407753E+08</totfact>
</mgrwt>
</event>
<event>
 4    1  0.7595771E+004  0.2013691E+02  0.7546771E-02  0.1742619E+00
         21   -1    0    0  501  502  0.00000000000E+00  0.00000000000E+00  0.32649850926E+01  0.32649850926E+01  0.00000000000E+00 0. -1.
         21   -1    0    0  502  503 -0.00000000000E+00 -0.00000000000E+00 -0.12666253565E+03  0.12666253565E+03  0.00000000000E+00 0. -1.
          4    1    1    2  501    0 -0.14689037593E+02 -0.13774150163E+02 -0.52631579316E+02  0.56352268627E+02  0.00000000000E+00 0. -1.
         -4    1    1    2    0  503  0.14689037593E+02  0.13774150163E+02 -0.70765971246E+02  0.73575252120E+02  0.00000000000E+00 0.  1.
<mgrwt>
<rscale>  2 0.20136907E+02</rscale>
<asrwt>0</asrwt>
<pdfrwt beam="1">  1       21 0.50230537E-03 0.20136907E+02</pdfrwt>
<pdfrwt beam="2">  1       21 0.19486545E-01 0.20136907E+02</pdfrwt>
<totfact> 0.17250509E+08</totfact>
</mgrwt>
</event>
<event>
 4    1  0.7595771E+004  0.2255450E+02  0.7546771E-02  0.1698835E+00
         21   -1    0    0  501  502  0.00000000000E+00  0.00000000000E+00  0.15617768013E+03  0.15617768013E+03  0.00000000000E+00 0.  1.
         21   -1    0    0  502  503 -0.00000000000E+00 -0.00000000000E+00 -0.34846580026E+01  0.34846580026E+01  0.00000000000E+00 0.  1.
          1    1    1    2  501    0  0.20702543525E+02  0.89504174130E+01  0.55951563248E+02  0.60326467742E+02  0.00000000000E+00 0.  1.
         -1    1    1    2    0  503 -0.20702543525E+02 -0.89504174130E+01  0.96741458878E+02  0.99335870390E+02  0.00000000000E+00 0. -1.
<mgrwt>
<rscale>  2 0.22554496E+02</rscale>
<asrwt>0</asrwt>
<pdfrwt beam="1">  1       21 0.24027330E-01 0.22554496E+02</pdfrwt>
<pdfrwt beam="2">  1       21 0.53610135E-03 0.22554496E+02</pdfrwt>
<totfact> 0.11225652E+08</totfact>
</mgrwt>
</event>
<event>
 4    1  0.7595771E+004  0.2735981E+02  0.7546771E-02  0.1629251E+00
         21   -1    0    0  501  502  0.00000000000E+00  0.00000000000E+00  0.33555970405E+02  0.33555970405E+02  0.00000000000E+00 0.  1.
         21   -1    0    0  502  503 -0.00000000000E+00 -0.00000000000E+00 -0.26858956700E+02  0.26858956700E+02  0.00000000000E+00 0.  1.
          5    1    1    2  501    0  0.21476329599E+00  0.27358962875E+02 -0.90860946005E+01  0.28829084064E+02  0.00000000000E+00 0. -1.
         -5    1    1    2    0  503 -0.21476329599E+00 -0.27358962875E+02  0.15783108305E+02  0.31585843041E+02  0.00000000000E+00 0.  1.
<mgrwt>
<rscale>  2 0.27359806E+02</rscale>
<asrwt>0</asrwt>
<pdfrwt beam="1">  1       21 0.51624570E-02 0.27359806E+02</pdfrwt>
<pdfrwt beam="2">  1       21 0.41321472E-02 0.27359806E+02</pdfrwt>
<totfact> 0.68956256E+07</totfact>
</mgrwt>
</event>
<event>
 4    1  0.7595771E+004  0.2480724E+02  0.7546771E-02  0.1663786E+00
         21   -1    0    0  503  502  0.00000000000E+00  0.00000000000E+00  0.17435432828E+02  0.17435432828E+02  0.00000000000E+00 0. -1.
         21   -1    0    0  501  503 -0.00000000000E+00 -0.00000000000E+00 -0.38400621235E+02  0.38400621235E+02  0.00000000000E+00 0. -1.
          5    1    1    2  501    0 -0.61386692057E+01  0.24035718346E+02 -0.25442848808E+01  0.24937369580E+02  0.00000000000E+00 0.  1.
         -5    1    1    2    0  502  0.61386692057E+01 -0.24035718346E+02 -0.18420903527E+02  0.30898684482E+02  0.00000000000E+00 0. -1.
<mgrwt>
<rscale>  2 0.24807237E+02</rscale>
<asrwt>0</asrwt>
<pdfrwt beam="1">  1       21 0.26823743E-02 0.24807237E+02</pdfrwt>
<pdfrwt beam="2">  1       21 0.59077879E-02 0.24807237E+02</pdfrwt>
<totfact> 0.10673632E+08</totfact>
</mgrwt>
</event>
<event>
 4    1  0.7595771E+004  0.4902549E+02  0.7546771E-02  0.1450670E+00
         21   -1    0    0  501  502  0.00000000000E+00  0.00000000000E+00  0.19080280530E+02  0.19080280530E+02  0.00000000000E+00 0.  1.
         21   -1    0    0  502  503 -0.00000000000E+00 -0.00000000000E+00 -0.12656126457E+03  0.12656126457E+03  0.00000000000E+00 0.  1.
          4    1    1    2  501    0  0.13395621034E+02  0.47159899843E+02 -0.48753445503E+02  0.69140417011E+02  0.00000000000E+00 0. -1.
         -4    1    1    2    0  503 -0.13395621034E+02 -0.47159899843E+02 -0.58727538538E+02  0.76501128089E+02  0.00000000000E+00 0.  1.
<mgrwt>
<rscale>  2 0.49025491E+02</rscale>
<asrwt>0</asrwt>
<pdfrwt beam="1">  1       21 0.29354279E-02 0.49025491E+02</pdfrwt>
<pdfrwt beam="2">  1       21 0.19470963E-01 0.49025491E+02</pdfrwt>
<totfact> 0.14075648E+07</totfact>
</mgrwt>
</event>
<event>
 4    1  0.7595771E+004  0.2060258E+02  0.7546771E-02  0.1733604E+00
         21   -1    0    0  503  502  0.00000000000E+00  0.00000000000E+00  0.27466625067E+03  0.27466625067E+03  0.00000000000E+00 0. -1.
         21   -1    0    0  501  503 -0.00000000000E+00 -0.00000000000E+00 -0.25900924221E+01  0.25900924221E+01  0.00000000000E+00 0. -1.
          4    1    1    2  501    0  0.47265052603E+01 -0.20053088701E+02  0.22408017267E+03  0.22502530969E+03  0.00000000000E+00 0. -1.
         -4    1    1    2    0  502 -0.47265052603E+01  0.20053088701E+02  0.47995985583E+02  0.52231033404E+02  0.00000000000E+00 0.  1.
<mgrwt>
<rscale>  2 0.20602578E+02</rscale>
<asrwt>0</asrwt>
<pdfrwt beam="1">  1       21 0.42256323E-01 0.20602578E+02</pdfrwt>
<pdfrwt beam="2">  1       21 0.39847597E-03 0.20602578E+02</pdfrwt>
<totfact> 0.60359896E+07</totfact>
</mgrwt>
</event>
<event>
 4    1  0.7595771E+004  0.2009912E+02  0.7546771E-02  0.1743364E+00
         21   -1    0    0  501  502  0.00000000000E+00  0.00000000000E+00  0.98308481224E+02  0.98308481224E+02  0.00000000000E+00 0.  1.
         21   -1    0    0  502  503 -0.00000000000E+00 -0.00000000000E+00 -0.57579954028E+01  0.57579954028E+01  0.00000000000E+00 0.  1.
          2    1    1    2  501    0 -0.56345829284E+01 -0.19293161004E+02  0.18431899674E+02  0.27271037969E+02  0.00000000000E+00 0.  1.
         -2    1    1    2    0  503  0.56345829284E+01  0.19293161004E+02  0.74118586147E+02  0.76795438658E+02  0.00000000000E+00 0. -1.
<mgrwt>
<rscale>  2 0.20099119E+02</rscale>
<asrwt>0</asrwt>
<pdfrwt beam="1">  1       21 0.15124381E-01 0.20099119E+02</pdfrwt>
<pdfrwt beam="2">  1       21 0.88584552E-03 0.20099119E+02</pdfrwt>
<totfact> 0.11496721E+08</totfact>
</mgrwt>
</event>
<event>
 4    1  0.7595771E+004  0.2015012E+02  0.7546771E-02  0.1742359E+00
         21   -1    0    0  503  502  0.00000000000E+00  0.00000000000E+00  0.42075370502E+03  0.42075370502E+03  0.00000000000E+00 0.  1.
         21   -1    0    0  501  503 -0.00000000000E+00 -0.00000000000E+00 -0.10288364708E+01  0.10288364708E+01  0.00000000000E+00 0.  1.
          2    1    1    2  501    0 -0.17614766136E+02 -0.97850513923E+01  0.26239404779E+03  0.26316660793E+03  0.00000000000E+00 0. -1.
         -2    1    1    2    0  502  0.17614766136E+02  0.97850513923E+01  0.15733082076E+03  0.15861593356E+03  0.00000000000E+00 0.  1.
<mgrwt>
<rscale>  2 0.20150117E+02</rscale>
<asrwt>0</asrwt>
<pdfrwt beam="1">  1       21 0.64731202E-01 0.20150117E+02</pdfrwt>
<pdfrwt beam="2">  1       21 0.15828287E-03 0.20150117E+02</pdfrwt>
<totfact> 0.99310404E+07</totfact>
</mgrwt>
</event>
<event>
 4    1  0.7595771E+004  0.2563878E+02  0.7546771E-02  0.1651993E+00
         21   -1    0    0  503  502  0.00000000000E+00  0.00000000000E+00  0.10503986607E+02  0.10503986607E+02  0.00000000000E+00 0. -1.
         21   -1    0    0  501  503 -0.00000000000E+00 -0.00000000000E+00 -0.62948928712E+02  0.62948928712E+02  0.00000000000E+00 0. -1.
          3    1    1    2  501    0  0.22940145948E+02  0.11449748237E+02 -0.29031347797E+02  0.38731978851E+02  0.00000000000E+00 0. -1.
         -3    1    1    2    0  502 -0.22940145948E+02 -0.11449748237E+02 -0.23413594308E+02  0.34720936468E+02  0.00000000000E+00 0.  1.
<mgrwt>
<rscale>  2 0.25638780E+02</rscale>
<asrwt>0</asrwt>
<pdfrwt beam="1">  1       21 0.16159979E-02 0.25638780E+02</pdfrwt>
<pdfrwt beam="2">  1       21 0.96844507E-02 0.25638780E+02</pdfrwt>
<totfact> 0.10493793E+08</totfact>
</mgrwt>
</event>
<event>
 4    1  0.7595771E+004  0.2133032E+02  0.7546771E-02  0.1720098E+00
         21   -1    0    0  503  502  0.00000000000E+00  0.00000000000E+00  0.71591844741E+02  0.71591844741E+02  0.00000000000E+00 0. -1.
         21   -1    0    0  501  503 -0.00000000000E+00 -0.00000000000E+00 -0.83819689038E+01  0.83819689038E+01  0.00000000000E+00 0. -1.
          5    1    1    2  501    0 -0.39127527037E+01  0.20968378725E+02  0.51267668961E+02  0.55527978720E+02  0.00000000000E+00 0.  1.
         -5    1    1    2    0  502  0.39127527037E+01 -0.20968378725E+02  0.11942206876E+02  0.24445834924E+02  0.00000000000E+00 0. -1.
<mgrwt>
<rscale>  2 0.21330320E+02</rscale>
<asrwt>0</asrwt>
<pdfrwt beam="1">  1       21 0.11014130E-01 0.21330320E+02</pdfrwt>
<pdfrwt beam="2">  1       21 0.12895337E-02 0.21330320E+02</pdfrwt>
<totfact> 0.11339090E+08</totfact>
</mgrwt>
</event>
<event>
 4    1  0.7595771E+004  0.2109851E+02  0.7546771E-02  0.1724326E+00
         21   -1    0    0  501  502  0.00000000000E+00  0.00000000000E+00  0.38867628506E+02  0.38867628506E+02  0.00000000000E+00 0.  1.
         21   -1    0    0  502  503 -0.00000000000E+00 -0.00000000000E+00 -0.24893691402E+02  0.24893691402E+02  0.00000000000E+00 0.  1.
          2    1    1    2  501    0 -0.17766927130E+02 -0.11379085508E+02  0.30412798139E+02  0.37014667056E+02  0.00000000000E+00 0.  1.
         -2    1    1    2    0  503  0.17766927130E+02  0.11379085508E+02 -0.16438861035E+02  0.26746652852E+02  0.00000000000E+00 0. -1.
<mgrwt>
<rscale>  2 0.21098514E+02</rscale>
<asrwt>0</asrwt>
<pdfrwt beam="1">  1       21 0.59796352E-02 0.21098514E+02</pdfrwt>
<pdfrwt beam="2">  1       21 0.38297987E-02 0.21098514E+02</pdfrwt>
<totfact> 0.57406343E+07</totfact>
</mgrwt>
</event>
<event>
 4    1  0.7595771E+004  0.2259740E+02  0.7546771E-02  0.1698120E+00
         21   -1    0    0  501  502  0.00000000000E+00  0.00000000000E+00  0.10847231636E+04  0.10847231636E+04  0.00000000000E+00 0. -1.
         21   -1    0    0  502  503 -0.00000000000E+00 -0.00000000000E+00 -0.47315015384E+00  0.47315015384E+00  0.00000000000E+00 0. -1.
          5    1    1    2  501    0 -0.19893882908E+02  0.10718014804E+02  0.58070368175E+03  0.58114319097E+03  0.00000000000E+00 0. -1.
         -5    1    1    2    0  503  0.19893882908E+02 -0.10718014804E+02  0.50354633166E+03  0.50405312274E+03  0.00000000000E+00 0.  1.
<mgrwt>
<rscale>  2 0.22597398E+02</rscale>
<asrwt>0</asrwt>
<pdfrwt beam="1">  1       21 0.16687850E+00 0.22597398E+02</pdfrwt>
<pdfrwt beam="2">  1       21 0.72793200E-04 0.22597398E+02</pdfrwt>
<totfact> 0.38260787E+07</totfact>
</mgrwt>
</event>
<event>
 4    1  0.7595771E+004  0.2064040E+02  0.7546771E-02  0.1732885E+00
         21   -1    0    0  501  502  0.00000000000E+00  0.00000000000E+00  0.71166037750E+01  0.71166037750E+01  0.00000000000E+00 0. -1.
         21   -1    0    0  502  503 -0.00000000000E+00 -0.00000000000E+00 -0.64914335858E+02  0.64914335858E+02  0.00000000000E+00 0. -1.
          4    1    1    2  501    0  0.14234640275E+02  0.14946610663E+02 -0.38944845449E+02  0.44076378494E+02  0.00000000000E+00 0. -1.
         -4    1    1    2    0  503 -0.14234640275E+02 -0.14946610663E+02 -0.18852886634E+02  0.27954561139E+02  0.00000000000E+00 0.  1.
<mgrwt>
<rscale>  2 0.20640401E+02</rscale>
<asrwt>0</asrwt>
<pdfrwt beam="1">  1       21 0.10948621E-02 0.20640401E+02</pdfrwt>
<pdfrwt beam="2">  1       21 0.99868208E-02 0.20640401E+02</pdfrwt>
<totfact> 0.16883587E+08</totfact>
</mgrwt>
</event>
<event>
 4    1  0.7595771E+004  0.2443054E+02  0.7546771E-02  0.1669319E+00
         21   -1    0    0  503  502  0.00000000000E+00  0.00000000000E+00  0.11777356516E+02  0.11777356516E+02  0.00000000000E+00 0.  1.
         21   -1    0    0  501  503 -0.00000000000E+00 -0.00000000000E+00 -0.53482000219E+02  0.53482000219E+02  0.00000000000E+00 0.  1.
          4    1    1    2  501    0  0.33415036574E+01  0.24200938150E+02 -0.13380784744E+02  0.27854917957E+02  0.00000000000E+00 0.  1.
         -4    1    1    2    0  502 -0.33415036574E+01 -0.24200938150E+02 -0.28323858959E+02  0.37404438778E+02  0.00000000000E+00 0. -1.
<mgrwt>
<rscale>  2 0.24430535E+02</rscale>
<asrwt>0</asrwt>
<pdfrwt beam="1">  1       21 0.18119011E-02 0.24430535E+02</pdfrwt>
<pdfrwt beam="2">  1       21 0.82279998E-02 0.24430535E+02</pdfrwt>
<totfact> 0.11373810E+08</totfact>
</mgrwt>
</event>
<event>
 4    1  0.7595771E+004  0.2043027E+02  0.7546771E-02  0.1736905E+00
         21   -1    0    0  503  502  0.00000000000E+00  0.00000000000E+00  0.52393542843E+03  0.52393542843E+03  0.00000000000E+00 0. -1.
         21   -1    0    0  501  503 -0.00000000000E+00 -0.00000000000E+00 -0.11631346187E+01  0.11631346187E+01  0.00000000000E+00 0. -1.
          5    1    1    2  501    0 -0.94877705328E+01 -0.18093589387E+02  0.11401218113E+03  0.11582820560E+03  0.00000000000E+00 0. -1.
         -5    1    1    2    0  502  0.94877705328E+01  0.18093589387E+02  0.40876011268E+03  0.40927035745E+03  0.00000000000E+00 0.  1.
<mgrwt>
<rscale>  2 0.20430266E+02</rscale>
<asrwt>0</asrwt>
<pdfrwt beam="1">  1       21 0.80605262E-01 0.20430266E+02</pdfrwt>
<pdfrwt beam="2">  1       21 0.17894421E-03 0.20430266E+02</pdfrwt>
<totfact> 0.53328108E+07</totfact>
</mgrwt>
</event>
<event>
 4    1  0.7595771E+004  0.2421042E+02  0.7546771E-02  0.1672609E+00
         21   -1    0    0  501  502  0.00000000000E+00  0.00000000000E+00  0.32153554340E+02  0.32153554340E+02  0.00000000000E+00 0. -1.
         21   -1    0    0  502  503 -0.00000000000E+00 -0.00000000000E+00 -0.18236609106E+02  0.18236609106E+02  0.00000000000E+00 0. -1.
          1    1    1    2  501    0  0.32516442585E+01 -0.23991061371E+02  0.64621069103E+01  0.25057993572E+02  0.00000000000E+00 0.  1.
         -1    1    1    2    0  503 -0.32516442585E+01  0.23991061371E+02  0.74548383238E+01  0.25332169874E+02  0.00000000000E+00 0. -1.
<mgrwt>
<rscale>  2 0.24210415E+02</rscale>
<asrwt>0</asrwt>
<pdfrwt beam="1">  1       21 0.49467007E-02 0.24210415E+02</pdfrwt>
<pdfrwt beam="2">  1       21 0.28056322E-02 0.24210415E+02</pdfrwt>
<totfact> 0.13138051E+08</totfact>
</mgrwt>
</event>
<event>
 4    1  0.7595771E+004  0.2525593E+02  0.7546771E-02  0.1657353E+00
         21   -1    0    0  501  502  0.00000000000E+00  0.00000000000E+00  0.25410890670E+01  0.25410890670E+01  0.00000000000E+00 0. -1.
         21   -1    0    0  502  503 -0.00000000000E+00 -0.00000000000E+00 -0.25748149000E+03  0.25748149000E+03  0.00000000000E+00 0. -1.
          3    1    1    2  501    0 -0.17675492741E+02 -0.18039922548E+02 -0.10687314261E+03  0.10981680409E+03  0.00000000000E+00 0. -1.
         -3    1    1    2    0  503  0.17675492741E+02  0.18039922548E+02 -0.14806725833E+03  0.15020577498E+03  0.00000000000E+00 0.  1.
<mgrwt>
<rscale>  2 0.25255927E+02</rscale>
<asrwt>0</asrwt>
<pdfrwt beam="1">  1       21 0.39093677E-03 0.25255927E+02</pdfrwt>
<pdfrwt beam="2">  1       21 0.39612538E-01 0.25255927E+02</pdfrwt>
<totfact> 0.73779771E+07</totfact>
</mgrwt>
</event>
<event>
 4    1  0.7595771E+004  0.3045552E+02  0.7546771E-02  0.1593107E+00
         21   -1    0    0  503  502  0.00000000000E+00  0.00000000000E+00  0.21624665960E+03  0.21624665960E+03  0.00000000000E+00 0. -1.
         21   -1    0    0  501  503 -0.00000000000E+00 -0.00000000000E+00 -0.43795244589E+01  0.43795244589E+01  0.00000000000E+00 0. -1.
          4    1    1    2  501    0 -0.27977624801E+02 -0.12032929020E+02  0.12177023975E+03  0.12552103472E+03  0.00000000000E+00 0. -1.
         -4    1    1    2    0  502  0.27977624801E+02  0.12032929020E+02  0.90096895398E+02  0.95105149338E+02  0.00000000000E+00 0.  1.
<mgrwt>
<rscale>  2 0.30455523E+02</rscale>
<asrwt>0</asrwt>
<pdfrwt beam="1">  1       21 0.33268709E-01 0.30455523E+02</pdfrwt>
<pdfrwt beam="2">  1       21 0.67377316E-03 0.30455523E+02</pdfrwt>
<totfact> 0.47539790E+07</totfact>
</mgrwt>
</event>
<event>
 4    1  0.7595771E+004  0.3158654E+02  0.7546771E-02  0.1581186E+00
         21   -1    0    0  503  502  0.00000000000E+00  0.00000000000E+00  0.11995648103E+02  0.11995648103E+02  0.00000000000E+00 0. -1.
         21   -1    0    0  501  503 -0.00000000000E+00 -0.00000000000E+00 -0.83421184072E+02  0.83421184072E+02  0.00000000000E+00 0. -1.
          5    1    1    2  501    0  0.28033668180E+02  0.14554147235E+02 -0.33108676788E+02  0.45759089065E+02  0.00000000000E+00 0. -1.
         -5    1    1    2    0  502 -0.28033668180E+02 -0.14554147235E+02 -0.38316859180E+02  0.49657743110E+02  0.00000000000E+00 0.  1.
<mgrwt>
<rscale>  2 0.31586544E+02</rscale>
<asrwt>0</asrwt>
<pdfrwt beam="1">  1       21 0.18454843E-02 0.31586544E+02</pdfrwt>
<pdfrwt beam="2">  1       21 0.12834028E-01 0.31586544E+02</pdfrwt>
<totfact> 0.56054265E+07</totfact>
</mgrwt>
</event>
<event>
 4    1  0.7595771E+004  0.2414643E+02  0.7546771E-02  0.1673574E+00
         21   -1    0    0  503  502  0.00000000000E+00  0.00000000000E+00  0.84972406544E+00  0.84972406544E+00  0.00000000000E+00 0.  1.
         21   -1    0    0  501  503 -0.00000000000E+00 -0.00000000000E+00 -0.92017867924E+03  0.92017867924E+03  0.00000000000E+00 0.  1.
          4    1    1    2  501    0 -0.10090744024E+02 -0.21936885795E+02 -0.69189991167E+03  0.69232112336E+03  0.00000000000E+00 0. -1.
         -4    1    1    2    0  502  0.10090744024E+02  0.21936885795E+02 -0.22742904350E+03  0.22870727994E+03  0.00000000000E+00 0.  1.
<mgrwt>
<rscale>  2 0.24146430E+02</rscale>
<asrwt>0</asrwt>
<pdfrwt beam="1">  1       21 0.13072683E-03 0.24146430E+02</pdfrwt>
<pdfrwt beam="2">  1       21 0.14156590E+00 0.24146430E+02</pdfrwt>
<totfact> 0.24912948E+07</totfact>
</mgrwt>
</event>
<event>
 4    1  0.7595771E+004  0.2413900E+02  0.7546771E-02  0.1673686E+00
         21   -1    0    0  501  502  0.00000000000E+00  0.00000000000E+00  0.24363099480E+03  0.24363099480E+03  0.00000000000E+00 0. -1.
         21   -1    0    0  502  503 -0.00000000000E+00 -0.00000000000E+00 -0.24251043656E+01  0.24251043656E+01  0.00000000000E+00 0. -1.
          1    1    1    2  501    0  0.24128024901E+02  0.72790793814E+00  0.10616310882E+03  0.10887284836E+03  0.00000000000E+00 0.  1.
         -1    1    1    2    0  503 -0.24128024901E+02 -0.72790793814E+00  0.13504278161E+03  0.13718325081E+03  0.00000000000E+00 0. -1.
<mgrwt>
<rscale>  2 0.24139002E+02</rscale>
<asrwt>0</asrwt>
<pdfrwt beam="1">  1       21 0.37481672E-01 0.24139002E+02</pdfrwt>
<pdfrwt beam="2">  1       21 0.37309317E-03 0.24139002E+02</pdfrwt>
<totfact> 0.86718522E+07</totfact>
</mgrwt>
</event>
<event>
 4    1  0.7595771E+004  0.2586299E+02  0.7546771E-02  0.1648907E+00
         21   -1    0    0  501  502  0.00000000000E+00  0.00000000000E+00  0.72588156271E+01  0.72588156271E+01  0.00000000000E+00 0.  1.
         21   -1    0    0  502  503 -0.00000000000E+00 -0.00000000000E+00 -0.10559065145E+03  0.10559065145E+03  0.00000000000E+00 0.  1.
          5    1    1    2  501    0  0.38584321718E+01  0.25573555404E+02 -0.69297572078E+02  0.73966531152E+02  0.00000000000E+00 0.  1.
         -5    1    1    2    0  503 -0.38584321718E+01 -0.25573555404E+02 -0.29034263741E+02  0.38882935921E+02  0.00000000000E+00 0. -1.
<mgrwt>
<rscale>  2 0.25862990E+02</rscale>
<asrwt>0</asrwt>
<pdfrwt beam="1">  1       21 0.11167408E-02 0.25862990E+02</pdfrwt>
<pdfrwt beam="2">  1       21 0.16244717E-01 0.25862990E+02</pdfrwt>
<totfact> 0.77041287E+07</totfact>
</mgrwt>
</event>
<event>
 4    1  0.7595771E+004  0.2380315E+02  0.7546771E-02  0.1678813E+00
         21   -1    0    0  501  502  0.00000000000E+00  0.00000000000E+00  0.91899660450E+02  0.91899660450E+02  0.00000000000E+00 0.  1.
         21   -1    0    0  502  503 -0.00000000000E+00 -0.00000000000E+00 -0.89003316833E+01  0.89003316833E+01  0.00000000000E+00 0.  1.
          2    1    1    2  501    0 -0.23645342493E+02 -0.27363333834E+01  0.69438475806E+02  0.73404983920E+02  0.00000000000E+00 0.  1.
         -2    1    1    2    0  503  0.23645342493E+02  0.27363333834E+01  0.13560852960E+02  0.27395008213E+02  0.00000000000E+00 0. -1.
<mgrwt>
<rscale>  2 0.23803146E+02</rscale>
<asrwt>0</asrwt>
<pdfrwt beam="1">  1       21 0.14138409E-01 0.23803146E+02</pdfrwt>
<pdfrwt beam="2">  1       21 0.13692819E-02 0.23803146E+02</pdfrwt>
<totfact> 0.70228382E+07</totfact>
</mgrwt>
</event>
<event>
 4    1  0.7595771E+004  0.2146607E+02  0.7546771E-02  0.1717653E+00
         21   -1    0    0  501  502  0.00000000000E+00  0.00000000000E+00  0.20787638148E+01  0.20787638148E+01  0.00000000000E+00 0.  1.
         21   -1    0    0  502  503 -0.00000000000E+00 -0.00000000000E+00 -0.23471780900E+03  0.23471780900E+03  0.00000000000E+00 0.  1.
          2    1    1    2  501    0 -0.20098674737E+02  0.75389139960E+01 -0.14423867457E+03  0.14582725119E+03  0.00000000000E+00 0. -1.
         -2    1    1    2    0  503  0.20098674737E+02 -0.75389139960E+01 -0.88400370621E+02  0.90969321622E+02  0.00000000000E+00 0.  1.
<mgrwt>
<rscale>  2 0.21466065E+02</rscale>
<asrwt>0</asrwt>
<pdfrwt beam="1">  1       21 0.31981008E-03 0.21466065E+02</pdfrwt>
<pdfrwt beam="2">  1       21 0.36110402E-01 0.21466065E+02</pdfrwt>
<totfact> 0.11285139E+08</totfact>
</mgrwt>
</event>
<event>
 4    1  0.7595771E+004  0.2255833E+02  0.7546771E-02  0.1698771E+00
         21   -1    0    0  503  502  0.00000000000E+00  0.00000000000E+00  0.22386463838E+02  0.22386463838E+02  0.00000000000E+00 0. -1.
         21   -1    0    0  501  503 -0.00000000000E+00 -0.00000000000E+00 -0.23380329827E+02  0.23380329827E+02  0.00000000000E+00 0. -1.
          5    1    1    2  501    0 -0.20912466214E+02  0.84585482800E+01 -0.43089506719E+01  0.22966178133E+02  0.00000000000E+00 0. -1.
         -5    1    1    2    0  502  0.20912466214E+02 -0.84585482800E+01  0.33150846823E+01  0.22800615531E+02  0.00000000000E+00 0.  1.
<mgrwt>
<rscale>  2 0.22558331E+02</rscale>
<asrwt>0</asrwt>
<pdfrwt beam="1">  1       21 0.34440714E-02 0.22558331E+02</pdfrwt>
<pdfrwt beam="2">  1       21 0.35969738E-02 0.22558331E+02</pdfrwt>
<totfact> 0.15454406E+08</totfact>
</mgrwt>
</event>
<event>
 4    1  0.7595771E+004  0.2594487E+02  0.7546771E-02  0.1647790E+00
         21   -1    0    0  503  502  0.00000000000E+00  0.00000000000E+00  0.36452018775E+01  0.36452018775E+01  0.00000000000E+00 0. -1.
         21   -1    0    0  501  503 -0.00000000000E+00 -0.00000000000E+00 -0.20579020311E+03  0.20579020311E+03  0.00000000000E+00 0. -1.
          2    1    1    2  501    0  0.20818242183E+02 -0.15483451609E+02 -0.67520260360E+02  0.72333408881E+02  0.00000000000E+00 0. -1.
         -2    1    1    2    0  502 -0.20818242183E+02  0.15483451609E+02 -0.13462474087E+03  0.13710199610E+03  0.00000000000E+00 0.  1.
<mgrwt>
<rscale>  2 0.25944874E+02</rscale>
<asrwt>0</asrwt>
<pdfrwt beam="1">  1       21 0.56080042E-03 0.25944874E+02</pdfrwt>
<pdfrwt beam="2">  1       21 0.31660024E-01 0.25944874E+02</pdfrwt>
<totfact> 0.66142971E+07</totfact>
</mgrwt>
</event>
<event>
 4    1  0.7595771E+004  0.2013283E+02  0.7546771E-02  0.1742699E+00
         21   -1    0    0  503  502  0.00000000000E+00  0.00000000000E+00  0.44742270723E+01  0.44742270723E+01  0.00000000000E+00 0.  1.
         21   -1    0    0  501  503 -0.00000000000E+00 -0.00000000000E+00 -0.10436148590E+03  0.10436148590E+03  0.00000000000E+00 0.  1.
          3    1    1    2  501    0  0.68502428675E+01  0.18931592470E+02 -0.30177407141E+02  0.36276809708E+02  0.00000000000E+00 0. -1.
         -3    1    1    2    0  502 -0.68502428675E+01 -0.18931592470E+02 -0.69709851682E+02  0.72558903260E+02  0.00000000000E+00 0.  1.
<mgrwt>
<rscale>  2 0.20132834E+02</rscale>
<asrwt>0</asrwt>
<pdfrwt beam="1">  1       21 0.68834264E-03 0.20132834E+02</pdfrwt>
<pdfrwt beam="2">  1       21 0.16055613E-01 0.20132834E+02</pdfrwt>
<totfact> 0.15114695E+08</totfact>
</mgrwt>
</event>
<event>
 4    1  0.7595771E+004  0.2369341E+02  0.7546771E-02  0.1680511E+00
         21   -1    0    0  501  502  0.00000000000E+00  0.00000000000E+00  0.91796010155E+01  0.91796010155E+01  0.00000000000E+00 0.  1.
         21   -1    0    0  502  503 -0.00000000000E+00 -0.00000000000E+00 -0.67800509795E+02  0.67800509795E+02  0.00000000000E+00 0.  1.
          2    1    1    2  501    0  0.23692983814E+02 -0.14269698213E+00 -0.41360773328E+02  0.47666460061E+02  0.00000000000E+00 0.  1.
         -2    1    1    2    0  503 -0.23692983814E+02  0.14269698213E+00 -0.17260135451E+02  0.29313650749E+02  0.00000000000E+00 0. -1.
<mgrwt>
<rscale>  2 0.23693414E+02</rscale>
<asrwt>0</asrwt>
<pdfrwt beam="1">  1       21 0.14122464E-02 0.23693414E+02</pdfrwt>
<pdfrwt beam="2">  1       21 0.10430847E-01 0.23693414E+02</pdfrwt>
<totfact> 0.11150005E+08</totfact>
</mgrwt>
</event>
<event>
 4    1  0.7595771E+004  0.2511034E+02  0.7546771E-02  0.1659422E+00
         21   -1    0    0  501  502  0.00000000000E+00  0.00000000000E+00  0.26604061169E+02  0.26604061169E+02  0.00000000000E+00 0. -1.
         21   -1    0    0  502  503 -0.00000000000E+00 -0.00000000000E+00 -0.27950691432E+02  0.27950691432E+02  0.00000000000E+00 0. -1.
          1    1    1    2  501    0 -0.24571146294E+02 -0.51756945568E+01  0.99634981888E+01  0.27014817054E+02  0.00000000000E+00 0.  1.
         -1    1    1    2    0  503  0.24571146294E+02  0.51756945568E+01 -0.11310128452E+02  0.27539935547E+02  0.00000000000E+00 0. -1.
<mgrwt>
<rscale>  2 0.25110337E+02</rscale>
<asrwt>0</asrwt>
<pdfrwt beam="1">  1       21 0.40929325E-02 0.25110337E+02</pdfrwt>
<pdfrwt beam="2">  1       21 0.43001064E-02 0.25110337E+02</pdfrwt>
<totfact> 0.91682391E+07</totfact>
</mgrwt>
</event>
<event>
 4    1  0.7595771E+004  0.2121195E+02  0.7546771E-02  0.1722248E+00
         21   -1    0    0  501  502  0.00000000000E+00  0.00000000000E+00  0.46535283331E+01  0.46535283331E+01  0.00000000000E+00 0.  1.
         21   -1    0    0  502  503 -0.00000000000E+00 -0.00000000000E+00 -0.96802247240E+02  0.96802247240E+02  0.00000000000E+00 0.  1.
          3    1    1    2  501    0 -0.60905158947E+01 -0.20318767571E+02 -0.47806634692E+02  0.52301252567E+02  0.00000000000E+00 0.  1.
         -3    1    1    2    0  503  0.60905158947E+01  0.20318767571E+02 -0.44342084214E+02  0.49154523006E+02  0.00000000000E+00 0. -1.
<mgrwt>
<rscale>  2 0.21211947E+02</rscale>
<asrwt>0</asrwt>
<pdfrwt beam="1">  1       21 0.71592749E-03 0.21211947E+02</pdfrwt>
<pdfrwt beam="2">  1       21 0.14892652E-01 0.21211947E+02</pdfrwt>
<totfact> 0.16463112E+08</totfact>
</mgrwt>
</event>
<event>
 4    1  0.7595771E+004  0.2269206E+02  0.7546771E-02  0.1696551E+00
         21   -1    0    0  503  502  0.00000000000E+00  0.00000000000E+00  0.21334903174E+02  0.21334903174E+02  0.00000000000E+00 0. -1.
         21   -1    0    0  501  503 -0.00000000000E+00 -0.00000000000E+00 -0.28331180139E+02  0.28331180139E+02  0.00000000000E+00 0. -1.
          3    1    1    2  501    0  0.19234458868E+01  0.22610395544E+02  0.60583020590E+01  0.23486861318E+02  0.00000000000E+00 0. -1.
         -3    1    1    2    0  502 -0.19234458868E+01 -0.22610395544E+02 -0.13054579024E+02  0.26179221995E+02  0.00000000000E+00 0.  1.
<mgrwt>
<rscale>  2 0.22692061E+02</rscale>
<asrwt>0</asrwt>
<pdfrwt beam="1">  1       21 0.32822928E-02 0.22692061E+02</pdfrwt>
<pdfrwt beam="2">  1       21 0.43586431E-02 0.22692061E+02</pdfrwt>
<totfact> 0.12336520E+08</totfact>
</mgrwt>
</event>
<event>
 4    1  0.7595771E+004  0.2060251E+02  0.7546771E-02  0.1733605E+00
         21   -1    0    0  501  502  0.00000000000E+00  0.00000000000E+00  0.49124846060E+01  0.49124846060E+01  0.00000000000E+00 0.  1.
         21   -1    0    0  502  503 -0.00000000000E+00 -0.00000000000E+00 -0.88909850325E+02  0.88909850325E+02  0.00000000000E+00 0.  1.
          5    1    1    2  501    0  0.15650217034E+01 -0.20542987192E+02 -0.34124863865E+02  0.39861885926E+02  0.00000000000E+00 0. -1.
         -5    1    1    2    0  503 -0.15650217034E+01  0.20542987192E+02 -0.49872501854E+02  0.53960449005E+02  0.00000000000E+00 0.  1.
<mgrwt>
<rscale>  2 0.20602515E+02</rscale>
<asrwt>0</asrwt>
<pdfrwt beam="1">  1       21 0.75576695E-03 0.20602515E+02</pdfrwt>
<pdfrwt beam="2">  1       21 0.13678437E-01 0.20602515E+02</pdfrwt>
<totfact> 0.17382378E+08</totfact>
</mgrwt>
</event>
<event>
 4    1  0.7595771E+004  0.2498797E+02  0.7546771E-02  0.1661175E+00
         21   -1    0    0  501  502  0.00000000000E+00  0.00000000000E+00  0.67768764886E+02  0.67768764886E+02  0.00000000000E+00 0.  1.
         21   -1    0    0  502  503 -0.00000000000E+00 -0.00000000000E+00 -0.10137750878E+02  0.10137750878E+02  0.00000000000E+00 0.  1.
          2    1    1    2  501    0  0.22504135009E+02  0.10861066457E+02  0.17054931064E+02  0.30253421801E+02  0.00000000000E+00 0.  1.
         -2    1    1    2    0  503 -0.22504135009E+02 -0.10861066457E+02  0.40576082944E+02  0.47653093962E+02  0.00000000000E+00 0. -1.
<mgrwt>
<rscale>  2 0.24987974E+02</rscale>
<asrwt>0</asrwt>
<pdfrwt beam="1">  1       21 0.10425964E-01 0.24987974E+02</pdfrwt>
<pdfrwt beam="2">  1       21 0.15596540E-02 0.24987974E+02</pdfrwt>
<totfact> 0.97346651E+07</totfact>
</mgrwt>
</event>
<event>
 4    1  0.7595771E+004  0.2213667E+02  0.7546771E-02  0.1705899E+00
         21   -1    0    0  501  502  0.00000000000E+00  0.00000000000E+00  0.17985222962E+02  0.17985222962E+02  0.00000000000E+00 0. -1.
         21   -1    0    0  502  503 -0.00000000000E+00 -0.00000000000E+00 -0.27429950132E+02  0.27429950132E+02  0.00000000000E+00 0. -1.
          1    1    1    2  501    0  0.13955558823E+02 -0.17183559345E+02 -0.28647647038E+01  0.22321272603E+02  0.00000000000E+00 0. -1.
         -1    1    1    2    0  503 -0.13955558823E+02  0.17183559345E+02 -0.65799624659E+01  0.23093900491E+02  0.00000000000E+00 0.  1.
<mgrwt>
<rscale>  2 0.22136674E+02</rscale>
<asrwt>0</asrwt>
<pdfrwt beam="1">  1       21 0.27669574E-02 0.22136674E+02</pdfrwt>
<pdfrwt beam="2">  1       21 0.42199923E-02 0.22136674E+02</pdfrwt>
<totfact> 0.16807525E+08</totfact>
</mgrwt>
</event>
<event>
 4    1  0.7595771E+004  0.2510787E+02  0.7546771E-02  0.1659457E+00
         21   -1    0    0  501  502  0.00000000000E+00  0.00000000000E+00  0.14034718082E+02  0.14034718082E+02  0.00000000000E+00 0.  1.
         21   -1    0    0  502  503 -0.00000000000E+00 -0.00000000000E+00 -0.49877330530E+02  0.49877330530E+02  0.00000000000E+00 0.  1.
          4    1    1    2  501    0  0.14724468272E+01  0.25064655436E+02 -0.27998339244E+02  0.37607340404E+02  0.00000000000E+00 0.  1.
         -4    1    1    2    0  503 -0.14724468272E+01 -0.25064655436E+02 -0.78442732040E+01  0.26304708208E+02  0.00000000000E+00 0. -1.
<mgrwt>
<rscale>  2 0.25107868E+02</rscale>
<asrwt>0</asrwt>
<pdfrwt beam="1">  1       21 0.21591874E-02 0.25107868E+02</pdfrwt>
<pdfrwt beam="2">  1       21 0.76734355E-02 0.25107868E+02</pdfrwt>
<totfact> 0.98067693E+07</totfact>
</mgrwt>
</event>
<event>
 4    1  0.7595771E+004  0.2742495E+02  0.7546771E-02  0.1628431E+00
         21   -1    0    0  501  502  0.00000000000E+00  0.00000000000E+00  0.10933729841E+02  0.10933729841E+02  0.00000000000E+00 0. -1.
         21   -1    0    0  502  503 -0.00000000000E+00 -0.00000000000E+00 -0.75433056616E+02  0.75433056616E+02  0.00000000000E+00 0. -1.
          3    1    1    2  501    0  0.27231730399E+02  0.32496875465E+01 -0.45065024517E+02  0.52753995530E+02  0.00000000000E+00 0.  1.
         -3    1    1    2    0  503 -0.27231730399E+02 -0.32496875465E+01 -0.19434302258E+02  0.33612790928E+02  0.00000000000E+00 0. -1.
<mgrwt>
<rscale>  2 0.27424945E+02</rscale>
<asrwt>0</asrwt>
<pdfrwt beam="1">  1       21 0.16821123E-02 0.27424945E+02</pdfrwt>
<pdfrwt beam="2">  1       21 0.11605085E-01 0.27424945E+02</pdfrwt>
<totfact> 0.74213335E+07</totfact>
</mgrwt>
</event>
<event>
 4    1  0.7595771E+004  0.2523958E+02  0.7546771E-02  0.1657584E+00
         21   -1    0    0  501  502  0.00000000000E+00  0.00000000000E+00  0.84105946263E+02  0.84105946263E+02  0.00000000000E+00 0.  1.
         21   -1    0    0  502  503 -0.00000000000E+00 -0.00000000000E+00 -0.79041883584E+01  0.79041883584E+01  0.00000000000E+00 0.  1.
          5    1    1    2  501    0 -0.22789698544E+02 -0.10847392556E+02  0.28701085609E+02  0.38220264260E+02  0.00000000000E+00 0.  1.
         -5    1    1    2    0  503  0.22789698544E+02  0.10847392556E+02  0.47500672295E+02  0.53789870361E+02  0.00000000000E+00 0. -1.
<mgrwt>
<rscale>  2 0.25239578E+02</rscale>
<asrwt>0</asrwt>
<pdfrwt beam="1">  1       21 0.12939376E-01 0.25239578E+02</pdfrwt>
<pdfrwt beam="2">  1       21 0.12160290E-02 0.25239578E+02</pdfrwt>
<totfact> 0.99209475E+07</totfact>
</mgrwt>
</event>
<event>
 4    1  0.7595771E+004  0.2027769E+02  0.7546771E-02  0.1739862E+00
         21   -1    0    0  503  502  0.00000000000E+00  0.00000000000E+00  0.38107478320E+01  0.38107478320E+01  0.00000000000E+00 0.  1.
         21   -1    0    0  501  503 -0.00000000000E+00 -0.00000000000E+00 -0.13343077028E+03  0.13343077028E+03  0.00000000000E+00 0.  1.
          3    1    1    2  501    0 -0.13069609814E+02  0.15503867591E+02 -0.94825712807E+02  0.96969585027E+02  0.00000000000E+00 0.  1.
         -3    1    1    2    0  502  0.13069609814E+02 -0.15503867591E+02 -0.34794309640E+02  0.40271933084E+02  0.00000000000E+00 0. -1.
<mgrwt>
<rscale>  2 0.20277688E+02</rscale>
<asrwt>0</asrwt>
<pdfrwt beam="1">  1       21 0.58626893E-03 0.20277688E+02</pdfrwt>
<pdfrwt beam="2">  1       21 0.20527810E-01 0.20277688E+02</pdfrwt>
<totfact> 0.12582199E+08</totfact>
</mgrwt>
</event>
<event>
 4    1  0.7595771E+004  0.2007971E+02  0.7546771E-02  0.1743748E+00
         21   -1    0    0  503  502  0.00000000000E+00  0.00000000000E+00  0.10647342553E+03  0.10647342553E+03  0.00000000000E+00 0.  1.
         21   -1    0    0  501  503 -0.00000000000E+00 -0.00000000000E+00 -0.81444249168E+01  0.81444249168E+01  0.00000000000E+00 0.  1.
          2    1    1    2  501    0  0.18808194505E+02  0.70318210599E+01  0.91084034707E+02  0.93271089124E+02  0.00000000000E+00 0.  1.
         -2    1    1    2    0  502 -0.18808194505E+02 -0.70318210599E+01  0.72449659058E+01  0.21346761322E+02  0.00000000000E+00 0. -1.
<mgrwt>
<rscale>  2 0.20079708E+02</rscale>
<asrwt>0</asrwt>
<pdfrwt beam="1">  1       21 0.16380526E-01 0.20079708E+02</pdfrwt>
<pdfrwt beam="2">  1       21 0.12529885E-02 0.20079708E+02</pdfrwt>
<totfact> 0.59727535E+07</totfact>
</mgrwt>
</event>
<event>
 4    1  0.7595771E+004  0.2353411E+02  0.7546771E-02  0.1682996E+00
         21   -1    0    0  501  502  0.00000000000E+00  0.00000000000E+00  0.18191575180E+03  0.18191575180E+03  0.00000000000E+00 0.  1.
         21   -1    0    0  502  503 -0.00000000000E+00 -0.00000000000E+00 -0.34310774623E+01  0.34310774623E+01  0.00000000000E+00 0.  1.
          2    1    1    2  501    0  0.13911108310E+02  0.18982506135E+02  0.58137981181E+02  0.62720645160E+02  0.00000000000E+00 0.  1.
         -2    1    1    2    0  503 -0.13911108310E+02 -0.18982506135E+02  0.12034669315E+03  0.12262618410E+03  0.00000000000E+00 0. -1.
<mgrwt>
<rscale>  2 0.23534113E+02</rscale>
<asrwt>0</asrwt>
<pdfrwt beam="1">  1       21 0.27987031E-01 0.23534113E+02</pdfrwt>
<pdfrwt beam="2">  1       21 0.52785821E-03 0.23534113E+02</pdfrwt>
<totfact> 0.88426450E+07</totfact>
</mgrwt>
</event>
<event>
 4    1  0.7595771E+004  0.2924295E+02  0.7546771E-02  0.1606611E+00
         21   -1    0    0  501  502  0.00000000000E+00  0.00000000000E+00  0.10766508089E+03  0.10766508089E+03  0.00000000000E+00 0.  1.
         21   -1    0    0  502  503 -0.00000000000E+00 -0.00000000000E+00 -0.79554250021E+01  0.79554250021E+01  0.00000000000E+00 0.  1.
          4    1    1    2  501    0 -0.71029079129E+01 -0.28367212491E+02  0.47541577155E+02  0.55815334844E+02  0.00000000000E+00 0. -1.
         -4    1    1    2    0  503  0.71029079129E+01  0.28367212491E+02  0.52168078729E+02  0.59805171044E+02  0.00000000000E+00 0.  1.
<mgrwt>
<rscale>  2 0.29242949E+02</rscale>
<asrwt>0</asrwt>
<pdfrwt beam="1">  1       21 0.16563858E-01 0.29242949E+02</pdfrwt>
<pdfrwt beam="2">  1       21 0.12239116E-02 0.29242949E+02</pdfrwt>
<totfact> 0.66777711E+07</totfact>
</mgrwt>
</event>
<event>
 4    1  0.7595771E+004  0.4463239E+02  0.7546771E-02  0.1476650E+00
         21   -1    0    0  501  502  0.00000000000E+00  0.00000000000E+00  0.60644585050E+01  0.60644585050E+01  0.00000000000E+00 0.  1.
         21   -1    0    0  502  503 -0.00000000000E+00 -0.00000000000E+00 -0.42096507304E+03  0.42096507304E+03  0.00000000000E+00 0.  1.
          1    1    1    2  501    0 -0.40195300452E+02  0.19400713440E+02 -0.30752909758E+03  0.31075101885E+03  0.00000000000E+00 0. -1.
         -1    1    1    2    0  503  0.40195300452E+02 -0.19400713440E+02 -0.10737151695E+03  0.11627851269E+03  0.00000000000E+00 0.  1.
<mgrwt>
<rscale>  2 0.44632386E+02</rscale>
<asrwt>0</asrwt>
<pdfrwt beam="1">  1       21 0.93299369E-03 0.44632386E+02</pdfrwt>
<pdfrwt beam="2">  1       21 0.64763852E-01 0.44632386E+02</pdfrwt>
<totfact> 0.83284125E+06</totfact>
</mgrwt>
</event>
<event>
 4    1  0.7595771E+004  0.2924640E+02  0.7546771E-02  0.1606571E+00
         21   -1    0    0  503  502  0.00000000000E+00  0.00000000000E+00  0.15887399003E+04  0.15887399003E+04  0.00000000000E+00 0. -1.
         21   -1    0    0  501  503 -0.00000000000E+00 -0.00000000000E+00 -0.85512505924E+00  0.85512505924E+00  0.00000000000E+00 0. -1.
          1    1    1    2  501    0 -0.25622630852E+02 -0.14100799302E+02  0.31022239998E+03  0.31159796084E+03  0.00000000000E+00 0.  1.
         -1    1    1    2    0  502  0.25622630852E+02  0.14100799302E+02  0.12776623753E+04  0.12779970645E+04  0.00000000000E+00 0. -1.
<mgrwt>
<rscale>  2 0.29246397E+02</rscale>
<asrwt>0</asrwt>
<pdfrwt beam="1">  1       21 0.24441916E+00 0.29246397E+02</pdfrwt>
<pdfrwt beam="2">  1       21 0.13155897E-03 0.29246397E+02</pdfrwt>
<totfact> 0.62181336E+06</totfact>
</mgrwt>
</event>
<event>
 4    1  0.7595771E+004  0.2446740E+02  0.7546771E-02  0.1668772E+00
         21   -1    0    0  503  502  0.00000000000E+00  0.00000000000E+00  0.52453433322E+01  0.52453433322E+01  0.00000000000E+00 0.  1.
         21   -1    0    0  501  503 -0.00000000000E+00 -0.00000000000E+00 -0.12991668848E+03  0.12991668848E+03  0.00000000000E+00 0.  1.
          3    1    1    2  501    0 -0.13736447290E+02 -0.20247562107E+02 -0.85893250103E+02  0.89310157142E+02  0.00000000000E+00 0.  1.
         -3    1    1    2    0  502  0.13736447290E+02  0.20247562107E+02 -0.38778095039E+02  0.45851874665E+02  0.00000000000E+00 0. -1.
<mgrwt>
<rscale>  2 0.24467402E+02</rscale>
<asrwt>0</asrwt>
<pdfrwt beam="1">  1       21 0.80697601E-03 0.24467402E+02</pdfrwt>
<pdfrwt beam="2">  1       21 0.19987180E-01 0.24467402E+02</pdfrwt>
<totfact> 0.86441541E+07</totfact>
</mgrwt>
</event>
<event>
 4    1  0.7595771E+004  0.3424316E+02  0.7546771E-02  0.1555426E+00
         21   -1    0    0  501  502  0.00000000000E+00  0.00000000000E+00  0.34735067766E+01  0.34735067766E+01  0.00000000000E+00 0.  1.
         21   -1    0    0  502  503 -0.00000000000E+00 -0.00000000000E+00 -0.34517154292E+03  0.34517154292E+03  0.00000000000E+00 0.  1.
          3    1    1    2  501    0 -0.34231253513E+02 -0.90276056240E+00 -0.19669786147E+03  0.19965631070E+03  0.00000000000E+00 0.  1.
         -3    1    1    2    0  503  0.34231253513E+02  0.90276056240E+00 -0.14500017467E+03  0.14898873899E+03  0.00000000000E+00 0. -1.
<mgrwt>
<rscale>  2 0.34243155E+02</rscale>
<asrwt>0</asrwt>
<pdfrwt beam="1">  1       21 0.53438549E-03 0.34243155E+02</pdfrwt>
<pdfrwt beam="2">  1       21 0.53103331E-01 0.34243155E+02</pdfrwt>
<totfact> 0.27952887E+07</totfact>
</mgrwt>
</event>
<event>
 4    1  0.7595771E+004  0.2024995E+02  0.7546771E-02  0.1740403E+00
         21   -1    0    0  503  502  0.00000000000E+00  0.00000000000E+00  0.25378777855E+03  0.25378777855E+03  0.00000000000E+00 0. -1.
         21   -1    0    0  501  503 -0.00000000000E+00 -0.00000000000E+00 -0.21830904934E+01  0.21830904934E+01  0.00000000000E+00 0. -1.
          4    1    1    2  501    0 -0.74283217418E+01  0.18838273074E+02  0.60558099643E+02  0.63854083101E+02  0.00000000000E+00 0.  1.
         -4    1    1    2    0  502  0.74283217418E+01 -0.18838273074E+02  0.19104658841E+03  0.19211678594E+03  0.00000000000E+00 0. -1.
<mgrwt>
<rscale>  2 0.20249951E+02</rscale>
<asrwt>0</asrwt>
<pdfrwt beam="1">  1       21 0.39044250E-01 0.20249951E+02</pdfrwt>
<pdfrwt beam="2">  1       21 0.33586028E-03 0.20249951E+02</pdfrwt>
<totfact> 0.89434434E+07</totfact>
</mgrwt>
</event>
<event>
 4    1  0.7595771E+004  0.3498314E+02  0.7546771E-02  0.1548750E+00
         21   -1    0    0  503  502  0.00000000000E+00  0.00000000000E+00  0.13020529144E+02  0.13020529144E+02  0.00000000000E+00 0. -1.
         21   -1    0    0  501  503 -0.00000000000E+00 -0.00000000000E+00 -0.95781607443E+02  0.95781607443E+02  0.00000000000E+00 0. -1.
          4    1    1    2  501    0  0.11782763937E+01  0.34963287955E+02 -0.33943523453E+02  0.48744052194E+02  0.00000000000E+00 0. -1.
         -4    1    1    2    0  502 -0.11782763937E+01 -0.34963287955E+02 -0.48817554846E+02  0.60058084394E+02  0.00000000000E+00 0.  1.
<mgrwt>
<rscale>  2 0.34983137E+02</rscale>
<asrwt>0</asrwt>
<pdfrwt beam="1">  1       21 0.20031583E-02 0.34983137E+02</pdfrwt>
<pdfrwt beam="2">  1       21 0.14735632E-01 0.34983137E+02</pdfrwt>
<totfact> 0.39769466E+07</totfact>
</mgrwt>
</event>
<event>
 4    1  0.7595771E+004  0.3794052E+02  0.7546771E-02  0.1523938E+00
         21   -1    0    0  501  502  0.00000000000E+00  0.00000000000E+00  0.56689659198E+01  0.56689659198E+01  0.00000000000E+00 0. -1.
         21   -1    0    0  502  503 -0.00000000000E+00 -0.00000000000E+00 -0.26271750403E+03  0.26271750403E+03  0.00000000000E+00 0. -1.
          3    1    1    2  501    0  0.26767747988E+02  0.26888116874E+02 -0.10397256426E+03  0.11067871196E+03  0.00000000000E+00 0. -1.
         -3    1    1    2    0  503 -0.26767747988E+02 -0.26888116874E+02 -0.15307597385E+03  0.15770775800E+03  0.00000000000E+00 0.  1.
<mgrwt>
<rscale>  2 0.37940521E+02</rscale>
<asrwt>0</asrwt>
<pdfrwt beam="1">  1       21 0.87214862E-03 0.37940521E+02</pdfrwt>
<pdfrwt beam="2">  1       21 0.40418077E-01 0.37940521E+02</pdfrwt>
<totfact> 0.23173866E+07</totfact>
</mgrwt>
</event>
<event>
 4    1  0.7595771E+004  0.2435050E+02  0.7546771E-02  0.1670510E+00
         21   -1    0    0  503  502  0.00000000000E+00  0.00000000000E+00  0.77916213707E+01  0.77916213707E+01  0.00000000000E+00 0.  1.
         21   -1    0    0  501  503 -0.00000000000E+00 -0.00000000000E+00 -0.80016013410E+02  0.80016013410E+02  0.00000000000E+00 0.  1.
          3    1    1    2  501    0  0.22752205568E+02 -0.86766459243E+01 -0.45824064053E+02  0.51892117793E+02  0.00000000000E+00 0. -1.
         -3    1    1    2    0  502 -0.22752205568E+02  0.86766459243E+01 -0.26400327987E+02  0.35915516988E+02  0.00000000000E+00 0.  1.
<mgrwt>
<rscale>  2 0.24350504E+02</rscale>
<asrwt>0</asrwt>
<pdfrwt beam="1">  1       21 0.11987110E-02 0.24350504E+02</pdfrwt>
<pdfrwt beam="2">  1       21 0.12310156E-01 0.24350504E+02</pdfrwt>
<totfact> 0.10923460E+08</totfact>
</mgrwt>
</event>
<event>
 4    1  0.7595771E+004  0.2108244E+02  0.7546771E-02  0.1724621E+00
         21   -1    0    0  501  502  0.00000000000E+00  0.00000000000E+00  0.70800418125E+03  0.70800418125E+03  0.00000000000E+00 0. -1.
         21   -1    0    0  502  503 -0.00000000000E+00 -0.00000000000E+00 -0.72316217849E+00  0.72316217849E+00  0.00000000000E+00 0. -1.
          4    1    1    2  501    0  0.19133344973E+02 -0.88535020293E+01  0.22494312876E+03  0.22592892813E+03  0.00000000000E+00 0. -1.
         -4    1    1    2    0  503 -0.19133344973E+02  0.88535020293E+01  0.48233789030E+03  0.48279841530E+03  0.00000000000E+00 0.  1.
<mgrwt>
<rscale>  2 0.21082443E+02</rscale>
<asrwt>0</asrwt>
<pdfrwt beam="1">  1       21 0.10892317E+00 0.21082443E+02</pdfrwt>
<pdfrwt beam="2">  1       21 0.11125629E-03 0.21082443E+02</pdfrwt>
<totfact> 0.55441454E+07</totfact>
</mgrwt>
</event>
<event>
 4    1  0.7595771E+004  0.2290126E+02  0.7546771E-02  0.1693116E+00
         21   -1    0    0  501  502  0.00000000000E+00  0.00000000000E+00  0.64124128783E+02  0.64124128783E+02  0.00000000000E+00 0.  1.
         21   -1    0    0  502  503 -0.00000000000E+00 -0.00000000000E+00 -0.87264564987E+01  0.87264564987E+01  0.00000000000E+00 0.  1.
          2    1    1    2  501    0 -0.69497201515E+01  0.21821302814E+02  0.36822721422E+02  0.43363356415E+02  0.00000000000E+00 0.  1.
         -2    1    1    2    0  503  0.69497201515E+01 -0.21821302814E+02  0.18574950862E+02  0.29487228867E+02  0.00000000000E+00 0. -1.
<mgrwt>
<rscale>  2 0.22901263E+02</rscale>
<asrwt>0</asrwt>
<pdfrwt beam="1">  1       21 0.98652502E-02 0.22901263E+02</pdfrwt>
<pdfrwt beam="2">  1       21 0.13425318E-02 0.22901263E+02</pdfrwt>
<totfact> 0.13074768E+08</totfact>
</mgrwt>
</event>
<event>
 4    1  0.7595771E+004  0.2481117E+02  0.7546771E-02  0.1663729E+00
         21   -1    0    0  503  502  0.00000000000E+00  0.00000000000E+00  0.31754271548E+01  0.31754271548E+01  0.00000000000E+00 0.  1.
         21   -1    0    0  501  503 -0.00000000000E+00 -0.00000000000E+00 -0.22668514193E+03  0.22668514193E+03  0.00000000000E+00 0.  1.
          4    1    1    2  501    0 -0.20336792172E+01  0.24727682487E+02 -0.15548834648E+03  0.15745545409E+03  0.00000000000E+00 0. -1.
         -4    1    1    2    0  502  0.20336792172E+01 -0.24727682487E+02 -0.68021368295E+02  0.72405114993E+02  0.00000000000E+00 0.  1.
<mgrwt>
<rscale>  2 0.24811170E+02</rscale>
<asrwt>0</asrwt>
<pdfrwt beam="1">  1       21 0.48852708E-03 0.24811170E+02</pdfrwt>
<pdfrwt beam="2">  1       21 0.34874650E-01 0.24811170E+02</pdfrwt>
<totfact> 0.67152301E+07</totfact>
</mgrwt>
</event>
<event>
 4    1  0.7595771E+004  0.2979215E+02  0.7546771E-02  0.1600398E+00
         21   -1    0    0  503  502  0.00000000000E+00  0.00000000000E+00  0.21883033322E+01  0.21883033322E+01  0.00000000000E+00 0. -1.
         21   -1    0    0  501  503 -0.00000000000E+00 -0.00000000000E+00 -0.43154562819E+03  0.43154562819E+03  0.00000000000E+00 0. -1.
          3    1    1    2  501    0  0.28293928587E+02 -0.93287701594E+01 -0.26785586191E+03  0.26950757894E+03  0.00000000000E+00 0.  1.
         -3    1    1    2    0  502 -0.28293928587E+02  0.93287701594E+01 -0.16150146295E+03  0.16422635258E+03  0.00000000000E+00 0. -1.
<mgrwt>
<rscale>  2 0.29792152E+02</rscale>
<asrwt>0</asrwt>
<pdfrwt beam="1">  1       21 0.33666241E-03 0.29792152E+02</pdfrwt>
<pdfrwt beam="2">  1       21 0.66391565E-01 0.29792152E+02</pdfrwt>
<totfact> 0.34464358E+07</totfact>
</mgrwt>
</event>
<event>
 4    1  0.7595771E+004  0.5616245E+02  0.7546771E-02  0.1414680E+00
         21   -1    0    0  503  502  0.00000000000E+00  0.00000000000E+00  0.28335387377E+03  0.28335387377E+03  0.00000000000E+00 0.  1.
         21   -1    0    0  501  503 -0.00000000000E+00 -0.00000000000E+00 -0.13629411945E+02  0.13629411945E+02  0.00000000000E+00 0.  1.
          5    1    1    2  501    0 -0.25610263535E+02  0.49983354583E+02  0.19842916249E+03  0.20622403802E+03  0.00000000000E+00 0.  1.
         -5    1    1    2    0  502  0.25610263535E+02 -0.49983354583E+02  0.71295299338E+02  0.90759247691E+02  0.00000000000E+00 0. -1.
<mgrwt>
<rscale>  2 0.56162455E+02</rscale>
<asrwt>0</asrwt>
<pdfrwt beam="1">  1       21 0.43592899E-01 0.56162455E+02</pdfrwt>
<pdfrwt beam="2">  1       21 0.20968328E-02 0.56162455E+02</pdfrwt>
<totfact> 0.53813492E+06</totfact>
</mgrwt>
</event>
<event>
 4    1  0.7595771E+004  0.2979508E+02  0.7546771E-02  0.1600365E+00
         21   -1    0    0  503  502  0.00000000000E+00  0.00000000000E+00  0.22708804458E+03  0.22708804458E+03  0.00000000000E+00 0. -1.
         21   -1    0    0  501  503 -0.00000000000E+00 -0.00000000000E+00 -0.39314896280E+01  0.39314896280E+01  0.00000000000E+00 0. -1.
          3    1    1    2  501    0  0.11544789667E+02  0.27467523345E+02  0.10289323574E+03  0.10712032939E+03  0.00000000000E+00 0.  1.
         -3    1    1    2    0  502 -0.11544789667E+02 -0.27467523345E+02  0.12026331921E+03  0.12389920482E+03  0.00000000000E+00 0. -1.
<mgrwt>
<rscale>  2 0.29795084E+02</rscale>
<asrwt>0</asrwt>
<pdfrwt beam="1">  1       21 0.34936612E-01 0.29795084E+02</pdfrwt>
<pdfrwt beam="2">  1       21 0.60484473E-03 0.29795084E+02</pdfrwt>
<totfact> 0.50772525E+07</totfact>
</mgrwt>
</event>
<event>
 4    1  0.7595771E+004  0.2867068E+02  0.7546771E-02  0.1613265E+00
         21   -1    0    0  503  502  0.00000000000E+00  0.00000000000E+00  0.31553449354E+02  0.31553449354E+02  0.00000000000E+00 0.  1.
         21   -1    0    0  501  503 -0.00000000000E+00 -0.00000000000E+00 -0.27352612178E+02  0.27352612178E+02  0.00000000000E+00 0.  1.
          5    1    1    2  501    0 -0.15164996810E+02 -0.24331679833E+02 -0.43238623610E+01  0.28994888471E+02  0.00000000000E+00 0. -1.
         -5    1    1    2    0  502  0.15164996810E+02  0.24331679833E+02  0.85246995370E+01  0.29911173062E+02  0.00000000000E+00 0.  1.
<mgrwt>
<rscale>  2 0.28670678E+02</rscale>
<asrwt>0</asrwt>
<pdfrwt beam="1">  1       21 0.48543768E-02 0.28670678E+02</pdfrwt>
<pdfrwt beam="2">  1       21 0.42080942E-02 0.28670678E+02</pdfrwt>
<totfact> 0.74803032E+07</totfact>
</mgrwt>
</event>
<event>
 4    1  0.7595771E+004  0.3588619E+02  0.7546771E-02  0.1540869E+00
         21   -1    0    0  501  502  0.00000000000E+00  0.00000000000E+00  0.26707236949E+03  0.26707236949E+03  0.00000000000E+00 0. -1.
         21   -1    0    0  502  503 -0.00000000000E+00 -0.00000000000E+00 -0.79112219923E+01  0.79112219923E+01  0.00000000000E+00 0. -1.
          4    1    1    2  501    0  0.30815194736E+02  0.18391366379E+02  0.43663255902E+02  0.56518125410E+02  0.00000000000E+00 0. -1.
         -4    1    1    2    0  503 -0.30815194736E+02 -0.18391366379E+02  0.21549789159E+03  0.21846546607E+03  0.00000000000E+00 0.  1.
<mgrwt>
<rscale>  2 0.35886189E+02</rscale>
<asrwt>0</asrwt>
<pdfrwt beam="1">  1       21 0.41088050E-01 0.35886189E+02</pdfrwt>
<pdfrwt beam="2">  1       21 0.12171113E-02 0.35886189E+02</pdfrwt>
<totfact> 0.13385898E+07</totfact>
</mgrwt>
</event>
<event>
 4    1  0.7595771E+004  0.3149213E+02  0.7546771E-02  0.1582157E+00
         21   -1    0    0  503  502  0.00000000000E+00  0.00000000000E+00  0.13038392644E+02  0.13038392644E+02  0.00000000000E+00 0.  1.
         21   -1    0    0  501  503 -0.00000000000E+00 -0.00000000000E+00 -0.76567759214E+02  0.76567759214E+02  0.00000000000E+00 0.  1.
          2    1    1    2  501    0  0.27088785704E+02  0.16060889981E+02 -0.35398170406E+02  0.47379161727E+02  0.00000000000E+00 0.  1.
         -2    1    1    2    0  502 -0.27088785704E+02 -0.16060889981E+02 -0.28131196164E+02  0.42226990131E+02  0.00000000000E+00 0. -1.
<mgrwt>
<rscale>  2 0.31492134E+02</rscale>
<asrwt>0</asrwt>
<pdfrwt beam="1">  1       21 0.20059065E-02 0.31492134E+02</pdfrwt>
<pdfrwt beam="2">  1       21 0.11779655E-01 0.31492134E+02</pdfrwt>
<totfact> 0.56947452E+07</totfact>
</mgrwt>
</event>
<event>
 4    1  0.7595771E+004  0.3894702E+02  0.7546771E-02  0.1516106E+00
         21   -1    0    0  503  502  0.00000000000E+00  0.00000000000E+00  0.55369213668E+01  0.55369213668E+01  0.00000000000E+00 0.  1.
         21   -1    0    0  501  503 -0.00000000000E+00 -0.00000000000E+00 -0.35566125780E+03  0.35566125780E+03  0.00000000000E+00 0.  1.
          2    1    1    2  501    0 -0.22410925216E+01  0.38882488510E+02 -0.88500933764E+02  0.96691704326E+02  0.00000000000E+00 0.  1.
         -2    1    1    2    0  502  0.22410925216E+01 -0.38882488510E+02 -0.26162340267E+03  0.26450647485E+03  0.00000000000E+00 0. -1.
<mgrwt>
<rscale>  2 0.38947021E+02</rscale>
<asrwt>0</asrwt>
<pdfrwt beam="1">  1       21 0.85183396E-03 0.38947021E+02</pdfrwt>
<pdfrwt beam="2">  1       21 0.54717123E-01 0.38947021E+02</pdfrwt>
<totfact> 0.13285920E+07</totfact>
</mgrwt>
</event>
<event>
 4    1  0.7595771E+004  0.3861889E+02  0.7546771E-02  0.1518628E+00
         21   -1    0    0  501  502  0.00000000000E+00  0.00000000000E+00  0.89367651419E+02  0.89367651419E+02  0.00000000000E+00 0. -1.
         21   -1    0    0  502  503 -0.00000000000E+00 -0.00000000000E+00 -0.17262842419E+02  0.17262842419E+02  0.00000000000E+00 0. -1.
          5    1    1    2  501    0 -0.30866934291E+02 -0.23208850905E+02  0.26328204434E+02  0.46739627101E+02  0.00000000000E+00 0. -1.
         -5    1    1    2    0  503  0.30866934291E+02  0.23208850905E+02  0.45776604566E+02  0.59890866736E+02  0.00000000000E+00 0.  1.
<mgrwt>
<rscale>  2 0.38618886E+02</rscale>
<asrwt>0</asrwt>
<pdfrwt beam="1">  1       21 0.13748869E-01 0.38618886E+02</pdfrwt>
<pdfrwt beam="2">  1       21 0.26558220E-02 0.38618886E+02</pdfrwt>
<totfact> 0.29333260E+07</totfact>
</mgrwt>
</event>
<event>
 4    1  0.7595771E+004  0.2680013E+02  0.7546771E-02  0.1636416E+00
         21   -1    0    0  501  502  0.00000000000E+00  0.00000000000E+00  0.11847575146E+03  0.11847575146E+03  0.00000000000E+00 0.  1.
         21   -1    0    0  502  503 -0.00000000000E+00 -0.00000000000E+00 -0.61293227821E+01  0.61293227821E+01  0.00000000000E+00 0.  1.
          5    1    1    2  501    0  0.22543931516E+02 -0.14492004776E+02  0.49662990389E+02  0.56432788917E+02  0.00000000000E+00 0. -1.
         -5    1    1    2    0  503 -0.22543931516E+02  0.14492004776E+02  0.62683438292E+02  0.68172285327E+02  0.00000000000E+00 0.  1.
<mgrwt>
<rscale>  2 0.26800132E+02</rscale>
<asrwt>0</asrwt>
<pdfrwt beam="1">  1       21 0.18227037E-01 0.26800132E+02</pdfrwt>
<pdfrwt beam="2">  1       21 0.94297282E-03 0.26800132E+02</pdfrwt>
<totfact> 0.82204829E+07</totfact>
</mgrwt>
</event>
<event>
 4    1  0.7595771E+004  0.5503948E+02  0.7546771E-02  0.1419912E+00
         21   -1    0    0  501  502  0.00000000000E+00  0.00000000000E+00  0.11835454292E+02  0.11835454292E+02  0.00000000000E+00 0.  1.
         21   -1    0    0  502  503 -0.00000000000E+00 -0.00000000000E+00 -0.34568349008E+03  0.34568349008E+03  0.00000000000E+00 0.  1.
          4    1    1    2  501    0  0.53688814081E+02  0.12118383181E+02 -0.75849921651E+02  0.93715284681E+02  0.00000000000E+00 0. -1.
         -4    1    1    2    0  503 -0.53688814081E+02 -0.12118383181E+02 -0.25799811413E+03  0.26380365969E+03  0.00000000000E+00 0.  1.
<mgrwt>
<rscale>  2 0.55039476E+02</rscale>
<asrwt>0</asrwt>
<pdfrwt beam="1">  1       21 0.18208392E-02 0.55039476E+02</pdfrwt>
<pdfrwt beam="2">  1       21 0.53182073E-01 0.55039476E+02</pdfrwt>
<totfact> 0.45101318E+06</totfact>
</mgrwt>
</event>
<event>
 4    1  0.7595771E+004  0.2376588E+02  0.7546771E-02  0.1679388E+00
         21   -1    0    0  501  502  0.00000000000E+00  0.00000000000E+00  0.75299202554E+02  0.75299202554E+02  0.00000000000E+00 0.  1.
         21   -1    0    0  502  503 -0.00000000000E+00 -0.00000000000E+00 -0.77712558324E+01  0.77712558324E+01  0.00000000000E+00 0.  1.
          5    1    1    2  501    0 -0.54591079051E+01  0.23130395864E+02  0.26017883785E+02  0.35238435672E+02  0.00000000000E+00 0. -1.
         -5    1    1    2    0  503  0.54591079051E+01 -0.23130395864E+02  0.41510062937E+02  0.47832022714E+02  0.00000000000E+00 0.  1.
<mgrwt>
<rscale>  2 0.23765880E+02</rscale>
<asrwt>0</asrwt>
<pdfrwt beam="1">  1       21 0.11584492E-01 0.23765880E+02</pdfrwt>
<pdfrwt beam="2">  1       21 0.11955779E-02 0.23765880E+02</pdfrwt>
<totfact> 0.12059138E+08</totfact>
</mgrwt>
</event>
<event>
 4    1  0.7595771E+004  0.2021295E+02  0.7546771E-02  0.1741126E+00
         21   -1    0    0  503  502  0.00000000000E+00  0.00000000000E+00  0.30693108260E+02  0.30693108260E+02  0.00000000000E+00 0.  1.
         21   -1    0    0  501  503 -0.00000000000E+00 -0.00000000000E+00 -0.13894673129E+02  0.13894673129E+02  0.00000000000E+00 0.  1.
          4    1    1    2  501    0 -0.82112315067E+01 -0.18469947087E+02  0.12967553124E+02  0.24015009937E+02  0.00000000000E+00 0. -1.
         -4    1    1    2    0  502  0.82112315067E+01  0.18469947087E+02  0.38308820075E+01  0.20572771452E+02  0.00000000000E+00 0.  1.
<mgrwt>
<rscale>  2 0.20212948E+02</rscale>
<asrwt>0</asrwt>
<pdfrwt beam="1">  1       21 0.47220166E-02 0.20212948E+02</pdfrwt>
<pdfrwt beam="2">  1       21 0.21376420E-02 0.20212948E+02</pdfrwt>
<totfact> 0.20346403E+08</totfact>
</mgrwt>
</event>
<event>
 4    1  0.7595771E+004  0.2452830E+02  0.7546771E-02  0.1667871E+00
         21   -1    0    0  501  502  0.00000000000E+00  0.00000000000E+00  0.10681559094E+04  0.10681559094E+04  0.00000000000E+00 0. -1.
         21   -1    0    0  502  503 -0.00000000000E+00 -0.00000000000E+00 -0.57579182401E+00  0.57579182401E+00  0.00000000000E+00 0. -1.
          5    1    1    2  501    0  0.14941305460E+02 -0.19452371908E+02  0.45492047528E+03  0.45558125095E+03  0.00000000000E+00 0.  1.
         -5    1    1    2    0  503 -0.14941305460E+02  0.19452371908E+02  0.61265964232E+03  0.61315045030E+03  0.00000000000E+00 0. -1.
<mgrwt>
<rscale>  2 0.24528298E+02</rscale>
<asrwt>0</asrwt>
<pdfrwt beam="1">  1       21 0.16433009E+00 0.24528298E+02</pdfrwt>
<pdfrwt beam="2">  1       21 0.88584213E-04 0.24528298E+02</pdfrwt>
<totfact> 0.30492827E+07</totfact>
</mgrwt>
</event>
<event>
 4    1  0.7595771E+004  0.2049755E+02  0.7546771E-02  0.1735611E+00
         21   -1    0    0  503  502  0.00000000000E+00  0.00000000000E+00  0.70468120259E+00  0.70468120259E+00  0.00000000000E+00 0. -1.
         21   -1    0    0  501  503 -0.00000000000E+00 -0.00000000000E+00 -0.61381610132E+03  0.61381610132E+03  0.00000000000E+00 0. -1.
          2    1    1    2  501    0  0.23048671107E+01  0.20367549398E+02 -0.35856939819E+03  0.35915478947E+03  0.00000000000E+00 0. -1.
         -2    1    1    2    0  502 -0.23048671107E+01 -0.20367549398E+02 -0.25454202193E+03  0.25536599305E+03  0.00000000000E+00 0.  1.
<mgrwt>
<rscale>  2 0.20497548E+02</rscale>
<asrwt>0</asrwt>
<pdfrwt beam="1">  1       21 0.10841269E-03 0.20497548E+02</pdfrwt>
<pdfrwt beam="2">  1       21 0.94433078E-01 0.20497548E+02</pdfrwt>
<totfact> 0.78031092E+07</totfact>
</mgrwt>
</event>
<event>
 4    1  0.7595771E+004  0.2582993E+02  0.7546771E-02  0.1649360E+00
         21   -1    0    0  501  502  0.00000000000E+00  0.00000000000E+00  0.36642290246E+03  0.36642290246E+03  0.00000000000E+00 0.  1.
         21   -1    0    0  502  503 -0.00000000000E+00 -0.00000000000E+00 -0.18264488940E+01  0.18264488940E+01  0.00000000000E+00 0.  1.
          3    1    1    2  501    0  0.59416145688E+01 -0.25137275603E+02  0.19253158820E+03  0.19425652592E+03  0.00000000000E+00 0.  1.
         -3    1    1    2    0  503 -0.59416145688E+01  0.25137275603E+02  0.17206486537E+03  0.17399282543E+03  0.00000000000E+00 0. -1.
<mgrwt>
<rscale>  2 0.25829932E+02</rscale>
<asrwt>0</asrwt>
<pdfrwt beam="1">  1       21 0.56372696E-01 0.25829932E+02</pdfrwt>
<pdfrwt beam="2">  1       21 0.28099243E-03 0.25829932E+02</pdfrwt>
<totfact> 0.60736326E+07</totfact>
</mgrwt>
</event>
<event>
 4    1  0.7595771E+004  0.2059848E+02  0.7546771E-02  0.1733682E+00
         21   -1    0    0  501  502  0.00000000000E+00  0.00000000000E+00  0.14031474331E+03  0.14031474331E+03  0.00000000000E+00 0.  1.
         21   -1    0    0  502  503 -0.00000000000E+00 -0.00000000000E+00 -0.33419100758E+01  0.33419100758E+01  0.00000000000E+00 0.  1.
          4    1    1    2  501    0  0.20549934968E+02  0.14133998287E+01  0.46328959908E+02  0.50701775634E+02  0.00000000000E+00 0. -1.
         -4    1    1    2    0  503 -0.20549934968E+02 -0.14133998287E+01  0.90643873321E+02  0.92954877747E+02  0.00000000000E+00 0.  1.
<mgrwt>
<rscale>  2 0.20598484E+02</rscale>
<asrwt>0</asrwt>
<pdfrwt beam="1">  1       21 0.21586879E-01 0.20598484E+02</pdfrwt>
<pdfrwt beam="2">  1       21 0.51414012E-03 0.20598484E+02</pdfrwt>
<totfact> 0.14047443E+08</totfact>
</mgrwt>
</event>
<event>
 4    1  0.7595771E+004  0.2116313E+02  0.7546771E-02  0.1723140E+00
         21   -1    0    0  503  502  0.00000000000E+00  0.00000000000E+00  0.61319385306E+01  0.61319385306E+01  0.00000000000E+00 0.  1.
         21   -1    0    0  501  503 -0.00000000000E+00 -0.00000000000E+00 -0.73055624212E+02  0.73055624212E+02  0.00000000000E+00 0.  1.
          4    1    1    2  501    0 -0.91089057959E+01  0.19102506766E+02 -0.34037417417E+02  0.40080215992E+02  0.00000000000E+00 0.  1.
         -4    1    1    2    0  502  0.91089057959E+01 -0.19102506766E+02 -0.32886268264E+02  0.39107346750E+02  0.00000000000E+00 0. -1.
<mgrwt>
<rscale>  2 0.21163127E+02</rscale>
<asrwt>0</asrwt>
<pdfrwt beam="1">  1       21 0.94337522E-03 0.21163127E+02</pdfrwt>
<pdfrwt beam="2">  1       21 0.11239326E-01 0.21163127E+02</pdfrwt>
<totfact> 0.17491625E+08</totfact>
</mgrwt>
</event>
<event>
 4    1  0.7595771E+004  0.2723415E+02  0.7546771E-02  0.1630841E+00
         21   -1    0    0  503  502  0.00000000000E+00  0.00000000000E+00  0.70870907701E+01  0.70870907701E+01  0.00000000000E+00 0.  1.
         21   -1    0    0  501  503 -0.00000000000E+00 -0.00000000000E+00 -0.10737972531E+03  0.10737972531E+03  0.00000000000E+00 0.  1.
          5    1    1    2  501    0  0.80491637118E+01 -0.26017496166E+02 -0.41029281379E+02  0.49245315246E+02  0.00000000000E+00 0. -1.
         -5    1    1    2    0  502 -0.80491637118E+01  0.26017496166E+02 -0.59263353162E+02  0.65221500835E+02  0.00000000000E+00 0.  1.
<mgrwt>
<rscale>  2 0.27234154E+02</rscale>
<asrwt>0</asrwt>
<pdfrwt beam="1">  1       21 0.10903216E-02 0.27234154E+02</pdfrwt>
<pdfrwt beam="2">  1       21 0.16519958E-01 0.27234154E+02</pdfrwt>
<totfact> 0.78598186E+07</totfact>
</mgrwt>
</event>
<event>
 4    1  0.7595771E+004  0.2298587E+02  0.7546771E-02  0.1691739E+00
         21   -1    0    0  501  502  0.00000000000E+00  0.00000000000E+00  0.39166373189E+02  0.39166373189E+02  0.00000000000E+00 0. -1.
         21   -1    0    0  502  503 -0.00000000000E+00 -0.00000000000E+00 -0.13491082701E+02  0.13491082701E+02  0.00000000000E+00 0. -1.
          4    1    1    2  501    0  0.15144671854E+02  0.17291304564E+02  0.12590708298E+02  0.26208323764E+02  0.00000000000E+00 0.  1.
         -4    1    1    2    0  503 -0.15144671854E+02 -0.17291304564E+02  0.13084582191E+02  0.26449132125E+02  0.00000000000E+00 0. -1.
<mgrwt>
<rscale>  2 0.22985872E+02</rscale>
<asrwt>0</asrwt>
<pdfrwt beam="1">  1       21 0.60255958E-02 0.22985872E+02</pdfrwt>
<pdfrwt beam="2">  1       21 0.20755512E-02 0.22985872E+02</pdfrwt>
<totfact> 0.15032222E+08</totfact>
</mgrwt>
</event>
<event>
 4    1  0.7595771E+004  0.2269773E+02  0.7546771E-02  0.1696457E+00
         21   -1    0    0  503  502  0.00000000000E+00  0.00000000000E+00  0.41003212132E+03  0.41003212132E+03  0.00000000000E+00 0. -1.
         21   -1    0    0  501  503 -0.00000000000E+00 -0.00000000000E+00 -0.12575168595E+01  0.12575168595E+01  0.00000000000E+00 0. -1.
          3    1    1    2  501    0 -0.21610823764E+02 -0.69396881291E+01  0.19841197884E+03  0.19970603476E+03  0.00000000000E+00 0.  1.
         -3    1    1    2    0  502  0.21610823764E+02  0.69396881291E+01  0.21036262563E+03  0.21158360342E+03  0.00000000000E+00 0. -1.
<mgrwt>
<rscale>  2 0.22697731E+02</rscale>
<asrwt>0</asrwt>
<pdfrwt beam="1">  1       21 0.63081758E-01 0.22697731E+02</pdfrwt>
<pdfrwt beam="2">  1       21 0.19346446E-03 0.22697731E+02</pdfrwt>
<totfact> 0.80857676E+07</totfact>
</mgrwt>
</event>
<event>
 4    1  0.7595771E+004  0.3645126E+02  0.7546771E-02  0.1536078E+00
         21   -1    0    0  503  502  0.00000000000E+00  0.00000000000E+00  0.34036971006E+01  0.34036971006E+01  0.00000000000E+00 0. -1.
         21   -1    0    0  501  503 -0.00000000000E+00 -0.00000000000E+00 -0.41638306674E+03  0.41638306674E+03  0.00000000000E+00 0. -1.
          4    1    1    2  501    0  0.13557036492E+02  0.33836382188E+02 -0.15402515967E+03  0.15827963801E+03  0.00000000000E+00 0. -1.
         -4    1    1    2    0  502 -0.13557036492E+02 -0.33836382188E+02 -0.25895420997E+03  0.26150712582E+03  0.00000000000E+00 0.  1.
<mgrwt>
<rscale>  2 0.36451255E+02</rscale>
<asrwt>0</asrwt>
<pdfrwt beam="1">  1       21 0.52364586E-03 0.36451255E+02</pdfrwt>
<pdfrwt beam="2">  1       21 0.64058915E-01 0.36451255E+02</pdfrwt>
<totfact> 0.19904862E+07</totfact>
</mgrwt>
</event>
<event>
 4    1  0.7595771E+004  0.2779185E+02  0.7546771E-02  0.1623863E+00
         21   -1    0    0  503  502  0.00000000000E+00  0.00000000000E+00  0.82667920225E+02  0.82667920225E+02  0.00000000000E+00 0.  1.
         21   -1    0    0  501  503 -0.00000000000E+00 -0.00000000000E+00 -0.96548639373E+01  0.96548639373E+01  0.00000000000E+00 0.  1.
          2    1    1    2  501    0 -0.70301440309E+01 -0.26887986042E+02  0.28213426030E+02  0.39602829783E+02  0.00000000000E+00 0.  1.
         -2    1    1    2    0  502  0.70301440309E+01  0.26887986042E+02  0.44799630258E+02  0.52719954379E+02  0.00000000000E+00 0. -1.
<mgrwt>
<rscale>  2 0.27791846E+02</rscale>
<asrwt>0</asrwt>
<pdfrwt beam="1">  1       21 0.12718141E-01 0.27791846E+02</pdfrwt>
<pdfrwt beam="2">  1       21 0.14853637E-02 0.27791846E+02</pdfrwt>
<totfact> 0.77186659E+07</totfact>
</mgrwt>
</event>
<event>
 4    1  0.7595771E+004  0.2273162E+02  0.7546771E-02  0.1695898E+00
         21   -1    0    0  503  502  0.00000000000E+00  0.00000000000E+00  0.33776165936E+02  0.33776165936E+02  0.00000000000E+00 0. -1.
         21   -1    0    0  501  503 -0.00000000000E+00 -0.00000000000E+00 -0.18367588405E+02  0.18367588405E+02  0.00000000000E+00 0. -1.
          3    1    1    2  501    0 -0.21085741210E+01 -0.22633616005E+02 -0.29530010402E+01  0.22922627978E+02  0.00000000000E+00 0. -1.
         -3    1    1    2    0  502  0.21085741210E+01  0.22633616005E+02  0.18361578571E+02  0.29221126363E+02  0.00000000000E+00 0.  1.
<mgrwt>
<rscale>  2 0.22731622E+02</rscale>
<asrwt>0</asrwt>
<pdfrwt beam="1">  1       21 0.51963332E-02 0.22731622E+02</pdfrwt>
<pdfrwt beam="2">  1       21 0.28257828E-02 0.22731622E+02</pdfrwt>
<totfact> 0.11789917E+08</totfact>
</mgrwt>
</event>
<event>
 4    1  0.7595771E+004  0.2314158E+02  0.7546771E-02  0.1689225E+00
         21   -1    0    0  501  502  0.00000000000E+00  0.00000000000E+00  0.40167751704E+03  0.40167751704E+03  0.00000000000E+00 0.  1.
         21   -1    0    0  502  503 -0.00000000000E+00 -0.00000000000E+00 -0.25605725003E+01  0.25605725003E+01  0.00000000000E+00 0.  1.
          4    1    1    2  501    0 -0.23008512133E+02 -0.24781543228E+01  0.33949131704E+03  0.34027913134E+03  0.00000000000E+00 0. -1.
         -4    1    1    2    0  503  0.23008512133E+02  0.24781543228E+01  0.59625627501E+02  0.63958958202E+02  0.00000000000E+00 0.  1.
<mgrwt>
<rscale>  2 0.23141583E+02</rscale>
<asrwt>0</asrwt>
<pdfrwt beam="1">  1       21 0.61796491E-01 0.23141583E+02</pdfrwt>
<pdfrwt beam="2">  1       21 0.39393455E-03 0.23141583E+02</pdfrwt>
<totfact> 0.30098417E+07</totfact>
</mgrwt>
</event>
<event>
 4    1  0.7595771E+004  0.2062311E+02  0.7546771E-02  0.1733213E+00
         21   -1    0    0  501  502  0.00000000000E+00  0.00000000000E+00  0.16722212732E+03  0.16722212732E+03  0.00000000000E+00 0.  1.
         21   -1    0    0  502  503 -0.00000000000E+00 -0.00000000000E+00 -0.29684916716E+01  0.29684916716E+01  0.00000000000E+00 0.  1.
          3    1    1    2  501    0  0.13238477736E+02 -0.15813136841E+02  0.49925064454E+02  0.54016892267E+02  0.00000000000E+00 0. -1.
         -3    1    1    2    0  503 -0.13238477736E+02  0.15813136841E+02  0.11432857120E+03  0.11617372673E+03  0.00000000000E+00 0.  1.
<mgrwt>
<rscale>  2 0.20623108E+02</rscale>
<asrwt>0</asrwt>
<pdfrwt beam="1">  1       21 0.25726474E-01 0.20623108E+02</pdfrwt>
<pdfrwt beam="2">  1       21 0.45669116E-03 0.20623108E+02</pdfrwt>
<totfact> 0.12271701E+08</totfact>
</mgrwt>
</event>
<event>
 4    1  0.7595771E+004  0.2320690E+02  0.7546771E-02  0.1688178E+00
         21   -1    0    0  501  502  0.00000000000E+00  0.00000000000E+00  0.18436739668E+03  0.18436739668E+03  0.00000000000E+00 0. -1.
         21   -1    0    0  502  503 -0.00000000000E+00 -0.00000000000E+00 -0.31512493404E+01  0.31512493404E+01  0.00000000000E+00 0. -1.
          4    1    1    2  501    0 -0.12467488410E+02 -0.19573501476E+02  0.65271127009E+02  0.69273950720E+02  0.00000000000E+00 0.  1.
         -4    1    1    2    0  503  0.12467488410E+02  0.19573501476E+02  0.11594502033E+03  0.11824469530E+03  0.00000000000E+00 0. -1.
<mgrwt>
<rscale>  2 0.23206900E+02</rscale>
<asrwt>0</asrwt>
<pdfrwt beam="1">  1       21 0.28364207E-01 0.23206900E+02</pdfrwt>
<pdfrwt beam="2">  1       21 0.48480773E-03 0.23206900E+02</pdfrwt>
<totfact> 0.97496764E+07</totfact>
</mgrwt>
</event>
<event>
 4    1  0.7595771E+004  0.2064422E+02  0.7546771E-02  0.1732812E+00
         21   -1    0    0  503  502  0.00000000000E+00  0.00000000000E+00  0.30885717745E+01  0.30885717745E+01  0.00000000000E+00 0. -1.
         21   -1    0    0  501  503 -0.00000000000E+00 -0.00000000000E+00 -0.13853619453E+03  0.13853619453E+03  0.00000000000E+00 0. -1.
          5    1    1    2  501    0 -0.83456336679E+01  0.18882118774E+02 -0.72180678377E+02  0.75074858253E+02  0.00000000000E+00 0.  1.
         -5    1    1    2    0  502  0.83456336679E+01 -0.18882118774E+02 -0.63266944380E+02  0.66549908053E+02  0.00000000000E+00 0. -1.
<mgrwt>
<rscale>  2 0.20644225E+02</rscale>
<asrwt>0</asrwt>
<pdfrwt beam="1">  1       21 0.47516486E-03 0.20644225E+02</pdfrwt>
<pdfrwt beam="2">  1       21 0.21313262E-01 0.20644225E+02</pdfrwt>
<totfact> 0.16138341E+08</totfact>
</mgrwt>
</event>
<event>
 4    1  0.7595771E+004  0.7833387E+02  0.7546771E-02  0.1333847E+00
         21   -1    0    0  501  502  0.00000000000E+00  0.00000000000E+00  0.41125073190E+02  0.41125073190E+02  0.00000000000E+00 0.  1.
         21   -1    0    0  502  503 -0.00000000000E+00 -0.00000000000E+00 -0.17051452333E+03  0.17051452333E+03  0.00000000000E+00 0.  1.
          4    1    1    2  501    0  0.24802161526E+02  0.74303757926E+02 -0.27288738413E+02  0.82951015078E+02  0.00000000000E+00 0. -1.
         -4    1    1    2    0  503 -0.24802161526E+02 -0.74303757926E+02 -0.10210071172E+03  0.12868858144E+03  0.00000000000E+00 0.  1.
<mgrwt>
<rscale>  2 0.78333873E+02</rscale>
<asrwt>0</asrwt>
<pdfrwt beam="1">  1       21 0.63269344E-02 0.78333873E+02</pdfrwt>
<pdfrwt beam="2">  1       21 0.26233004E-01 0.78333873E+02</pdfrwt>
<totfact> 0.24193815E+06</totfact>
</mgrwt>
</event>
<event>
 4    1  0.7595771E+004  0.2567101E+02  0.7546771E-02  0.1651547E+00
         21   -1    0    0  501  502  0.00000000000E+00  0.00000000000E+00  0.10290080748E+02  0.10290080748E+02  0.00000000000E+00 0.  1.
         21   -1    0    0  502  503 -0.00000000000E+00 -0.00000000000E+00 -0.11093158374E+03  0.11093158374E+03  0.00000000000E+00 0.  1.
          3    1    1    2  501    0  0.14927145250E+02  0.20884948560E+02 -0.89726474796E+02  0.93326529031E+02  0.00000000000E+00 0.  1.
         -3    1    1    2    0  503 -0.14927145250E+02 -0.20884948560E+02 -0.10915028196E+02  0.27895135457E+02  0.00000000000E+00 0. -1.
<mgrwt>
<rscale>  2 0.25671010E+02</rscale>
<asrwt>0</asrwt>
<pdfrwt beam="1">  1       21 0.15830893E-02 0.25671010E+02</pdfrwt>
<pdfrwt beam="2">  1       21 0.17066398E-01 0.25671010E+02</pdfrwt>
<totfact> 0.41546519E+07</totfact>
</mgrwt>
</event>
<event>
 4    1  0.7595771E+004  0.3050154E+02  0.7546771E-02  0.1592610E+00
         21   -1    0    0  503  502  0.00000000000E+00  0.00000000000E+00  0.20198618161E+04  0.20198618161E+04  0.00000000000E+00 0. -1.
         21   -1    0    0  501  503 -0.00000000000E+00 -0.00000000000E+00 -0.52092953335E+00  0.52092953335E+00  0.00000000000E+00 0. -1.
          5    1    1    2  501    0 -0.23608914823E+02 -0.19312252217E+02  0.13534555058E+04  0.13537991543E+04  0.00000000000E+00 0. -1.
         -5    1    1    2    0  502  0.23608914823E+02  0.19312252217E+02  0.66588538074E+03  0.66658359133E+03  0.00000000000E+00 0.  1.
<mgrwt>
<rscale>  2 0.30501540E+02</rscale>
<asrwt>0</asrwt>
<pdfrwt beam="1">  1       21 0.31074170E+00 0.30501540E+02</pdfrwt>
<pdfrwt beam="2">  1       21 0.80144622E-04 0.30501540E+02</pdfrwt>
<totfact> 0.58967406E+06</totfact>
</mgrwt>
</event>
<event>
 4    1  0.7595771E+004  0.2676769E+02  0.7546771E-02  0.1636837E+00
         21   -1    0    0  501  502  0.00000000000E+00  0.00000000000E+00  0.30750495498E+02  0.30750495498E+02  0.00000000000E+00 0.  1.
         21   -1    0    0  502  503 -0.00000000000E+00 -0.00000000000E+00 -0.23505949093E+02  0.23505949093E+02  0.00000000000E+00 0.  1.
          4    1    1    2  501    0 -0.25666469466E+01  0.26644349870E+02  0.61570465624E+01  0.27466675789E+02  0.00000000000E+00 0.  1.
         -4    1    1    2    0  503  0.25666469466E+01 -0.26644349870E+02  0.10874998428E+01  0.26789768802E+02  0.00000000000E+00 0. -1.
<mgrwt>
<rscale>  2 0.26767687E+02</rscale>
<asrwt>0</asrwt>
<pdfrwt beam="1">  1       21 0.47308455E-02 0.26767687E+02</pdfrwt>
<pdfrwt beam="2">  1       21 0.36162999E-02 0.26767687E+02</pdfrwt>
<totfact> 0.97397558E+07</totfact>
</mgrwt>
</event>
<event>
 4    1  0.7595771E+004  0.2053404E+02  0.7546771E-02  0.1734912E+00
         21   -1    0    0  501  502  0.00000000000E+00  0.00000000000E+00  0.88430345226E+01  0.88430345226E+01  0.00000000000E+00 0.  1.
         21   -1    0    0  502  503 -0.00000000000E+00 -0.00000000000E+00 -0.11101211069E+03  0.11101211069E+03  0.00000000000E+00 0.  1.
          4    1    1    2  501    0  0.79692888164E+01  0.18924511736E+02 -0.96348158859E+02  0.98512001422E+02  0.00000000000E+00 0. -1.
         -4    1    1    2    0  503 -0.79692888164E+01 -0.18924511736E+02 -0.58209173122E+01  0.21343143794E+02  0.00000000000E+00 0.  1.
<mgrwt>
<rscale>  2 0.20534038E+02</rscale>
<asrwt>0</asrwt>
<pdfrwt beam="1">  1       21 0.13604669E-02 0.20534038E+02</pdfrwt>
<pdfrwt beam="2">  1       21 0.17078786E-01 0.20534038E+02</pdfrwt>
<totfact> 0.49429851E+07</totfact>
</mgrwt>
</event>
<event>
 4    1  0.7595771E+004  0.2012777E+02  0.7546771E-02  0.1742799E+00
         21   -1    0    0  503  502  0.00000000000E+00  0.00000000000E+00  0.13202333964E+03  0.13202333964E+03  0.00000000000E+00 0.  1.
         21   -1    0    0  501  503 -0.00000000000E+00 -0.00000000000E+00 -0.33219808165E+01  0.33219808165E+01  0.00000000000E+00 0.  1.
          2    1    1    2  501    0 -0.15769181851E+02 -0.12508395478E+02  0.83040280752E+02  0.85444808392E+02  0.00000000000E+00 0.  1.
         -2    1    1    2    0  502  0.15769181851E+02  0.12508395478E+02  0.45661078071E+02  0.49900512064E+02  0.00000000000E+00 0. -1.
<mgrwt>
<rscale>  2 0.20127768E+02</rscale>
<asrwt>0</asrwt>
<pdfrwt beam="1">  1       21 0.20311279E-01 0.20127768E+02</pdfrwt>
<pdfrwt beam="2">  1       21 0.51107407E-03 0.20127768E+02</pdfrwt>
<totfact> 0.15648974E+08</totfact>
</mgrwt>
</event>
<event>
 4    1  0.7595771E+004  0.2099920E+02  0.7546771E-02  0.1726158E+00
         21   -1    0    0  501  502  0.00000000000E+00  0.00000000000E+00  0.86917920875E+00  0.86917920875E+00  0.00000000000E+00 0. -1.
         21   -1    0    0  502  503 -0.00000000000E+00 -0.00000000000E+00 -0.59676710895E+03  0.59676710895E+03  0.00000000000E+00 0. -1.
          4    1    1    2  501    0  0.42914918845E+01  0.20556004050E+02 -0.18227170600E+03  0.18347735831E+03  0.00000000000E+00 0. -1.
         -4    1    1    2    0  503 -0.42914918845E+01 -0.20556004050E+02 -0.41362622374E+03  0.41415892984E+03  0.00000000000E+00 0.  1.
<mgrwt>
<rscale>  2 0.20999195E+02</rscale>
<asrwt>0</asrwt>
<pdfrwt beam="1">  1       21 0.13371925E-03 0.20999195E+02</pdfrwt>
<pdfrwt beam="2">  1       21 0.91810756E-01 0.20999195E+02</pdfrwt>
<totfact> 0.61850132E+07</totfact>
</mgrwt>
</event>
<event>
 4    1  0.7595771E+004  0.2120392E+02  0.7546771E-02  0.1722395E+00
         21   -1    0    0  503  502  0.00000000000E+00  0.00000000000E+00  0.17487377862E+02  0.17487377862E+02  0.00000000000E+00 0.  1.
         21   -1    0    0  501  503 -0.00000000000E+00 -0.00000000000E+00 -0.28810659308E+02  0.28810659308E+02  0.00000000000E+00 0.  1.
          1    1    1    2  501    0 -0.20600421094E+02  0.50228342534E+01 -0.13255456694E+02  0.25006266122E+02  0.00000000000E+00 0.  1.
         -1    1    1    2    0  502  0.20600421094E+02 -0.50228342534E+01  0.19321752484E+01  0.21291771048E+02  0.00000000000E+00 0. -1.
<mgrwt>
<rscale>  2 0.21203920E+02</rscale>
<asrwt>0</asrwt>
<pdfrwt beam="1">  1       21 0.26903658E-02 0.21203920E+02</pdfrwt>
<pdfrwt beam="2">  1       21 0.44324091E-02 0.21203920E+02</pdfrwt>
<totfact> 0.16028719E+08</totfact>
</mgrwt>
</event>
<event>
 4    1  0.7595771E+004  0.2737243E+02  0.7546771E-02  0.1629092E+00
         21   -1    0    0  503  502  0.00000000000E+00  0.00000000000E+00  0.10641475311E+02  0.10641475311E+02  0.00000000000E+00 0.  1.
         21   -1    0    0  501  503 -0.00000000000E+00 -0.00000000000E+00 -0.72851989669E+02  0.72851989669E+02  0.00000000000E+00 0.  1.
          2    1    1    2  501    0  0.27220689852E+02 -0.28782203094E+01 -0.38750807592E+02  0.47443389394E+02  0.00000000000E+00 0.  1.
         -2    1    1    2    0  502 -0.27220689852E+02  0.28782203094E+01 -0.23459706766E+02  0.36050075586E+02  0.00000000000E+00 0. -1.
<mgrwt>
<rscale>  2 0.27372433E+02</rscale>
<asrwt>0</asrwt>
<pdfrwt beam="1">  1       21 0.16371500E-02 0.27372433E+02</pdfrwt>
<pdfrwt beam="2">  1       21 0.11207998E-01 0.27372433E+02</pdfrwt>
<totfact> 0.81985955E+07</totfact>
</mgrwt>
</event>
<event>
 4    1  0.7595771E+004  0.2915152E+02  0.7546771E-02  0.1607661E+00
         21   -1    0    0  503  502  0.00000000000E+00  0.00000000000E+00  0.42961537160E+03  0.42961537160E+03  0.00000000000E+00 0.  1.
         21   -1    0    0  501  503 -0.00000000000E+00 -0.00000000000E+00 -0.37854328837E+01  0.37854328837E+01  0.00000000000E+00 0.  1.
          5    1    1    2  501    0 -0.29136743481E+02  0.92807661724E+00  0.36265023564E+03  0.36382001671E+03  0.00000000000E+00 0. -1.
         -5    1    1    2    0  502  0.29136743481E+02 -0.92807661724E+00  0.63179703080E+02  0.69580787781E+02  0.00000000000E+00 0.  1.
<mgrwt>
<rscale>  2 0.29151520E+02</rscale>
<asrwt>0</asrwt>
<pdfrwt beam="1">  1       21 0.66094634E-01 0.29151520E+02</pdfrwt>
<pdfrwt beam="2">  1       21 0.58237463E-03 0.29151520E+02</pdfrwt>
<totfact> 0.15377386E+07</totfact>
</mgrwt>
</event>
<event>
 4    1  0.7595771E+004  0.3852031E+02  0.7546771E-02  0.1519391E+00
         21   -1    0    0  501  502  0.00000000000E+00  0.00000000000E+00  0.12961475698E+04  0.12961475698E+04  0.00000000000E+00 0.  1.
         21   -1    0    0  502  503 -0.00000000000E+00 -0.00000000000E+00 -0.12612042320E+01  0.12612042320E+01  0.00000000000E+00 0.  1.
          1    1    1    2  501    0  0.38430433886E+02 -0.26298866735E+01  0.84453126538E+03  0.84540929304E+03  0.00000000000E+00 0. -1.
         -1    1    1    2    0  503 -0.38430433886E+02  0.26298866735E+01  0.45035510021E+03  0.45199948102E+03  0.00000000000E+00 0.  1.
<mgrwt>
<rscale>  2 0.38520314E+02</rscale>
<asrwt>0</asrwt>
<pdfrwt beam="1">  1       21 0.19940625E+00 0.38520314E+02</pdfrwt>
<pdfrwt beam="2">  1       21 0.19403246E-03 0.38520314E+02</pdfrwt>
<totfact> 0.63094265E+06</totfact>
</mgrwt>
</event>
<event>
 4    1  0.7595771E+004  0.2527033E+02  0.7546771E-02  0.1657149E+00
         21   -1    0    0  503  502  0.00000000000E+00  0.00000000000E+00  0.18422844920E+02  0.18422844920E+02  0.00000000000E+00 0.  1.
         21   -1    0    0  501  503 -0.00000000000E+00 -0.00000000000E+00 -0.43559600997E+02  0.43559600997E+02  0.00000000000E+00 0.  1.
          2    1    1    2  501    0 -0.20981320386E+02 -0.14084523402E+02  0.14375138829E+01  0.25311184301E+02  0.00000000000E+00 0.  1.
         -2    1    1    2    0  502  0.20981320386E+02  0.14084523402E+02 -0.26574269959E+02  0.36671261615E+02  0.00000000000E+00 0. -1.
<mgrwt>
<rscale>  2 0.25270331E+02</rscale>
<asrwt>0</asrwt>
<pdfrwt beam="1">  1       21 0.28342838E-02 0.25270331E+02</pdfrwt>
<pdfrwt beam="2">  1       21 0.67014770E-02 0.25270331E+02</pdfrwt>
<totfact> 0.80299221E+07</totfact>
</mgrwt>
</event>
<event>
 4    1  0.7595771E+004  0.3055036E+02  0.7546771E-02  0.1592084E+00
         21   -1    0    0  503  502  0.00000000000E+00  0.00000000000E+00  0.33310826747E+01  0.33310826747E+01  0.00000000000E+00 0.  1.
         21   -1    0    0  501  503 -0.00000000000E+00 -0.00000000000E+00 -0.28035476191E+03  0.28035476191E+03  0.00000000000E+00 0.  1.
          5    1    1    2  501    0  0.25876707653E+02 -0.16239468193E+02 -0.14198699015E+03  0.14523646132E+03  0.00000000000E+00 0.  1.
         -5    1    1    2    0  502 -0.25876707653E+02  0.16239468193E+02 -0.13503668909E+03  0.13844938326E+03  0.00000000000E+00 0. -1.
<mgrwt>
<rscale>  2 0.30550357E+02</rscale>
<asrwt>0</asrwt>
<pdfrwt beam="1">  1       21 0.51247414E-03 0.30550357E+02</pdfrwt>
<pdfrwt beam="2">  1       21 0.43131511E-01 0.30550357E+02</pdfrwt>
<totfact> 0.43797591E+07</totfact>
</mgrwt>
</event>
<event>
 4    1  0.7595771E+004  0.2595620E+02  0.7546771E-02  0.1647636E+00
         21   -1    0    0  503  502  0.00000000000E+00  0.00000000000E+00  0.25433047825E+02  0.25433047825E+02  0.00000000000E+00 0. -1.
         21   -1    0    0  501  503 -0.00000000000E+00 -0.00000000000E+00 -0.61297429344E+02  0.61297429344E+02  0.00000000000E+00 0. -1.
          4    1    1    2  501    0  0.86618472273E+01  0.24468280240E+02  0.14745839713E+02  0.29852372169E+02  0.00000000000E+00 0. -1.
         -4    1    1    2    0  502 -0.86618472273E+01 -0.24468280240E+02 -0.50610221232E+02  0.56878105000E+02  0.00000000000E+00 0.  1.
<mgrwt>
<rscale>  2 0.25956200E+02</rscale>
<asrwt>0</asrwt>
<pdfrwt beam="1">  1       21 0.39127766E-02 0.25956200E+02</pdfrwt>
<pdfrwt beam="2">  1       21 0.94303737E-02 0.25956200E+02</pdfrwt>
<totfact> 0.27827508E+07</totfact>
</mgrwt>
</event>
<event>
 4    1  0.7595771E+004  0.2443400E+02  0.7546771E-02  0.1669267E+00
         21   -1    0    0  503  502  0.00000000000E+00  0.00000000000E+00  0.30268196606E+03  0.30268196606E+03  0.00000000000E+00 0.  1.
         21   -1    0    0  501  503 -0.00000000000E+00 -0.00000000000E+00 -0.20129451254E+01  0.20129451254E+01  0.00000000000E+00 0.  1.
          3    1    1    2  501    0  0.22034694784E+02  0.10559013252E+02  0.12872223592E+03  0.13102074093E+03  0.00000000000E+00 0. -1.
         -3    1    1    2    0  502 -0.22034694784E+02 -0.10559013252E+02  0.17194678501E+03  0.17367417025E+03  0.00000000000E+00 0.  1.
<mgrwt>
<rscale>  2 0.24434004E+02</rscale>
<asrwt>0</asrwt>
<pdfrwt beam="1">  1       21 0.46566420E-01 0.24434004E+02</pdfrwt>
<pdfrwt beam="2">  1       21 0.30968411E-03 0.24434004E+02</pdfrwt>
<totfact> 0.75643604E+07</totfact>
</mgrwt>
</event>
<event>
 4    1  0.7595771E+004  0.4182606E+02  0.7546771E-02  0.1495188E+00
         21   -1    0    0  503  502  0.00000000000E+00  0.00000000000E+00  0.54898281084E+03  0.54898281084E+03  0.00000000000E+00 0.  1.
         21   -1    0    0  501  503 -0.00000000000E+00 -0.00000000000E+00 -0.32641446524E+01  0.32641446524E+01  0.00000000000E+00 0.  1.
          1    1    1    2  501    0  0.16440130481E+02 -0.38459611247E+02  0.23031550449E+03  0.23408257346E+03  0.00000000000E+00 0. -1.
         -1    1    1    2    0  502 -0.16440130481E+02  0.38459611247E+02  0.31540316170E+03  0.31816438204E+03  0.00000000000E+00 0.  1.
<mgrwt>
<rscale>  2 0.41826063E+02</rscale>
<asrwt>0</asrwt>
<pdfrwt beam="1">  1       21 0.84458821E-01 0.41826063E+02</pdfrwt>
<pdfrwt beam="2">  1       21 0.50217654E-03 0.41826063E+02</pdfrwt>
<totfact> 0.12034345E+07</totfact>
</mgrwt>
</event>
<event>
 4    1  0.7595771E+004  0.2047459E+02  0.7546771E-02  0.1736052E+00
         21   -1    0    0  503  502  0.00000000000E+00  0.00000000000E+00  0.62899326909E+02  0.62899326909E+02  0.00000000000E+00 0.  1.
         21   -1    0    0  501  503 -0.00000000000E+00 -0.00000000000E+00 -0.72363531838E+01  0.72363531838E+01  0.00000000000E+00 0.  1.
          3    1    1    2  501    0 -0.20197751781E+02  0.33555542361E+01  0.37687304078E+02  0.42889880040E+02  0.00000000000E+00 0. -1.
         -3    1    1    2    0  502  0.20197751781E+02 -0.33555542361E+01  0.17975669648E+02  0.27245800053E+02  0.00000000000E+00 0.  1.
<mgrwt>
<rscale>  2 0.20474592E+02</rscale>
<asrwt>0</asrwt>
<pdfrwt beam="1">  1       21 0.96768192E-02 0.20474592E+02</pdfrwt>
<pdfrwt beam="2">  1       21 0.11132851E-02 0.20474592E+02</pdfrwt>
<totfact> 0.17299071E+08</totfact>
</mgrwt>
</event>
<event>
 4    1  0.7595771E+004  0.3375255E+02  0.7546771E-02  0.1559966E+00
         21   -1    0    0  503  502  0.00000000000E+00  0.00000000000E+00  0.15565721760E+02  0.15565721760E+02  0.00000000000E+00 0. -1.
         21   -1    0    0  501  503 -0.00000000000E+00 -0.00000000000E+00 -0.74352359858E+02  0.74352359858E+02  0.00000000000E+00 0. -1.
          2    1    1    2  501    0 -0.32699819161E+02  0.83639992505E+01 -0.23768791030E+02  0.41281837212E+02  0.00000000000E+00 0.  1.
         -2    1    1    2    0  502  0.32699819161E+02 -0.83639992505E+01 -0.35017847069E+02  0.48636244406E+02  0.00000000000E+00 0. -1.
<mgrwt>
<rscale>  2 0.33752550E+02</rscale>
<asrwt>0</asrwt>
<pdfrwt beam="1">  1       21 0.23947265E-02 0.33752550E+02</pdfrwt>
<pdfrwt beam="2">  1       21 0.11438824E-01 0.33752550E+02</pdfrwt>
<totfact> 0.46082530E+07</totfact>
</mgrwt>
</event>
<event>
 4    1  0.7595771E+004  0.3780087E+02  0.7546771E-02  0.1525048E+00
         21   -1    0    0  501  502  0.00000000000E+00  0.00000000000E+00  0.24847025492E+03  0.24847025492E+03  0.00000000000E+00 0. -1.
         21   -1    0    0  502  503 -0.00000000000E+00 -0.00000000000E+00 -0.25717563411E+02  0.25717563411E+02  0.00000000000E+00 0. -1.
          1    1    1    2  501    0 -0.15478698860E+02  0.34486461454E+02  0.23217356523E+03  0.23523067516E+03  0.00000000000E+00 0.  1.
         -1    1    1    2    0  503  0.15478698860E+02 -0.34486461454E+02 -0.94208737292E+01  0.38957143168E+02  0.00000000000E+00 0. -1.
<mgrwt>
<rscale>  2 0.37800875E+02</rscale>
<asrwt>0</asrwt>
<pdfrwt beam="1">  1       21 0.38226192E-01 0.37800875E+02</pdfrwt>
<pdfrwt beam="2">  1       21 0.39565484E-02 0.37800875E+02</pdfrwt>
<totfact> 0.24413567E+06</totfact>
</mgrwt>
</event>
<event>
 4    1  0.7595771E+004  0.2242426E+02  0.7546771E-02  0.1701016E+00
         21   -1    0    0  503  502  0.00000000000E+00  0.00000000000E+00  0.99555414340E+01  0.99555414340E+01  0.00000000000E+00 0.  1.
         21   -1    0    0  501  503 -0.00000000000E+00 -0.00000000000E+00 -0.50829461743E+02  0.50829461743E+02  0.00000000000E+00 0.  1.
          3    1    1    2  501    0  0.13278936572E+02 -0.18069786985E+02 -0.18024843914E+02  0.28770511923E+02  0.00000000000E+00 0.  1.
         -3    1    1    2    0  502 -0.13278936572E+02  0.18069786985E+02 -0.22849076395E+02  0.32014491255E+02  0.00000000000E+00 0. -1.
<mgrwt>
<rscale>  2 0.22424258E+02</rscale>
<asrwt>0</asrwt>
<pdfrwt beam="1">  1       21 0.15316218E-02 0.22424258E+02</pdfrwt>
<pdfrwt beam="2">  1       21 0.78199171E-02 0.22424258E+02</pdfrwt>
<totfact> 0.15571909E+08</totfact>
</mgrwt>
</event>
<event>
 4    1  0.7595771E+004  0.2182943E+02  0.7546771E-02  0.1711219E+00
         21   -1    0    0  501  502  0.00000000000E+00  0.00000000000E+00  0.74121060287E+02  0.74121060287E+02  0.00000000000E+00 0.  1.
         21   -1    0    0  502  503 -0.00000000000E+00 -0.00000000000E+00 -0.74755991311E+01  0.74755991311E+01  0.00000000000E+00 0.  1.
          1    1    1    2  501    0  0.13092684723E+02 -0.17467271241E+02  0.48588212313E+02  0.53266671885E+02  0.00000000000E+00 0. -1.
         -1    1    1    2    0  503 -0.13092684723E+02  0.17467271241E+02  0.18057248842E+02  0.28329987533E+02  0.00000000000E+00 0.  1.
<mgrwt>
<rscale>  2 0.21829429E+02</rscale>
<asrwt>0</asrwt>
<pdfrwt beam="1">  1       21 0.11403240E-01 0.21829429E+02</pdfrwt>
<pdfrwt beam="2">  1       21 0.11500922E-02 0.21829429E+02</pdfrwt>
<totfact> 0.12804780E+08</totfact>
</mgrwt>
</event>
<event>
 4    1  0.7595771E+004  0.2254351E+02  0.7546771E-02  0.1699018E+00
         21   -1    0    0  501  502  0.00000000000E+00  0.00000000000E+00  0.27149074596E+02  0.27149074596E+02  0.00000000000E+00 0. -1.
         21   -1    0    0  502  503 -0.00000000000E+00 -0.00000000000E+00 -0.24133600582E+02  0.24133600582E+02  0.00000000000E+00 0. -1.
          4    1    1    2  501    0  0.16379268859E+02 -0.15489659635E+02 -0.10637423584E+02  0.24927189662E+02  0.00000000000E+00 0. -1.
         -4    1    1    2    0  503 -0.16379268859E+02  0.15489659635E+02  0.13652897598E+02  0.26355485516E+02  0.00000000000E+00 0.  1.
<mgrwt>
<rscale>  2 0.22543514E+02</rscale>
<asrwt>0</asrwt>
<pdfrwt beam="1">  1       21 0.41767807E-02 0.22543514E+02</pdfrwt>
<pdfrwt beam="2">  1       21 0.37128616E-02 0.22543514E+02</pdfrwt>
<totfact> 0.10858386E+08</totfact>
</mgrwt>
</event>
<event>
 4    1  0.7595771E+004  0.2153720E+02  0.7546771E-02  0.1716381E+00
         21   -1    0    0  501  502  0.00000000000E+00  0.00000000000E+00  0.69815682803E+02  0.69815682803E+02  0.00000000000E+00 0.  1.
         21   -1    0    0  502  503 -0.00000000000E+00 -0.00000000000E+00 -0.73239256161E+01  0.73239256161E+01  0.00000000000E+00 0.  1.
          5    1    1    2  501    0 -0.18424944076E+02 -0.11152232264E+02  0.42998289745E+02  0.48090578803E+02  0.00000000000E+00 0. -1.
         -5    1    1    2    0  503  0.18424944076E+02  0.11152232264E+02  0.19493467442E+02  0.29049029616E+02  0.00000000000E+00 0.  1.
<mgrwt>
<rscale>  2 0.21537197E+02</rscale>
<asrwt>0</asrwt>
<pdfrwt beam="1">  1       21 0.10740874E-01 0.21537197E+02</pdfrwt>
<pdfrwt beam="2">  1       21 0.11267578E-02 0.21537197E+02</pdfrwt>
<totfact> 0.14527172E+08</totfact>
</mgrwt>
</event>
<event>
 4    1  0.7595771E+004  0.2262914E+02  0.7546771E-02  0.1697593E+00
         21   -1    0    0  501  502  0.00000000000E+00  0.00000000000E+00  0.27651899673E+03  0.27651899673E+03  0.00000000000E+00 0.  1.
         21   -1    0    0  502  503 -0.00000000000E+00 -0.00000000000E+00 -0.19222814154E+01  0.19222814154E+01  0.00000000000E+00 0.  1.
          1    1    1    2  501    0  0.21908155815E+02 -0.56666146995E+01  0.16394301996E+03  0.16549740665E+03  0.00000000000E+00 0.  1.
         -1    1    1    2    0  503 -0.21908155815E+02  0.56666146995E+01  0.11065369535E+03  0.11294387150E+03  0.00000000000E+00 0. -1.
<mgrwt>
<rscale>  2 0.22629136E+02</rscale>
<asrwt>0</asrwt>
<pdfrwt beam="1">  1       21 0.42541352E-01 0.22629136E+02</pdfrwt>
<pdfrwt beam="2">  1       21 0.29573582E-03 0.22629136E+02</pdfrwt>
<totfact> 0.94327498E+07</totfact>
</mgrwt>
</event>
<event>
 4    1  0.7595771E+004  0.3183557E+02  0.7546771E-02  0.1578642E+00
         21   -1    0    0  503  502  0.00000000000E+00  0.00000000000E+00  0.20888744185E+01  0.20888744185E+01  0.00000000000E+00 0.  1.
         21   -1    0    0  501  503 -0.00000000000E+00 -0.00000000000E+00 -0.49848241759E+03  0.49848241759E+03  0.00000000000E+00 0.  1.
          3    1    1    2  501    0  0.31025948581E+02  0.71340213422E+01 -0.20732802008E+03  0.20975798353E+03  0.00000000000E+00 0.  1.
         -3    1    1    2    0  502 -0.31025948581E+02 -0.71340213422E+01 -0.28906552309E+03  0.29081330848E+03  0.00000000000E+00 0. -1.
<mgrwt>
<rscale>  2 0.31835574E+02</rscale>
<asrwt>0</asrwt>
<pdfrwt beam="1">  1       21 0.32136512E-03 0.31835574E+02</pdfrwt>
<pdfrwt beam="2">  1       21 0.76689644E-01 0.31835574E+02</pdfrwt>
<totfact> 0.27654342E+07</totfact>
</mgrwt>
</event>
<event>
 4    1  0.7595771E+004  0.2354810E+02  0.7546771E-02  0.1682777E+00
         21   -1    0    0  503  502  0.00000000000E+00  0.00000000000E+00  0.71562372285E+03  0.71562372285E+03  0.00000000000E+00 0. -1.
         21   -1    0    0  501  503 -0.00000000000E+00 -0.00000000000E+00 -0.84401448827E+00  0.84401448827E+00  0.00000000000E+00 0. -1.
          3    1    1    2  501    0  0.23269768653E+02 -0.36098012324E+01  0.45992711048E+03  0.46052954275E+03  0.00000000000E+00 0. -1.
         -3    1    1    2    0  502 -0.23269768653E+02  0.36098012324E+01  0.25485259788E+03  0.25593819458E+03  0.00000000000E+00 0.  1.
<mgrwt>
<rscale>  2 0.23548095E+02</rscale>
<asrwt>0</asrwt>
<pdfrwt beam="1">  1       21 0.11009547E+00 0.23548095E+02</pdfrwt>
<pdfrwt beam="2">  1       21 0.12984896E-03 0.23548095E+02</pdfrwt>
<totfact> 0.44487232E+07</totfact>
</mgrwt>
</event>
<event>
 4    1  0.7595771E+004  0.2673457E+02  0.7546771E-02  0.1637269E+00
         21   -1    0    0  501  502  0.00000000000E+00  0.00000000000E+00  0.23675259477E+03  0.23675259477E+03  0.00000000000E+00 0.  1.
         21   -1    0    0  502  503 -0.00000000000E+00 -0.00000000000E+00 -0.30415087534E+01  0.30415087534E+01  0.00000000000E+00 0.  1.
          2    1    1    2  501    0  0.24577603961E+02 -0.10520390131E+02  0.10652301027E+03  0.10982663130E+03  0.00000000000E+00 0. -1.
         -2    1    1    2    0  503 -0.24577603961E+02  0.10520390131E+02  0.12718807575E+03  0.12996747223E+03  0.00000000000E+00 0.  1.
<mgrwt>
<rscale>  2 0.26734570E+02</rscale>
<asrwt>0</asrwt>
<pdfrwt beam="1">  1       21 0.36423462E-01 0.26734570E+02</pdfrwt>
<pdfrwt beam="2">  1       21 0.46792461E-03 0.26734570E+02</pdfrwt>
<totfact> 0.67156555E+07</totfact>
</mgrwt>
</event>
<event>
 4    1  0.7595771E+004  0.2478713E+02  0.7546771E-02  0.1664078E+00
         21   -1    0    0  503  502  0.00000000000E+00  0.00000000000E+00  0.51463716313E+01  0.51463716313E+01  0.00000000000E+00 0.  1.
         21   -1    0    0  501  503 -0.00000000000E+00 -0.00000000000E+00 -0.12176318351E+03  0.12176318351E+03  0.00000000000E+00 0.  1.
          1    1    1    2  501    0 -0.21733518064E+02 -0.11918735355E+02 -0.67175574372E+02  0.71602792209E+02  0.00000000000E+00 0.  1.
         -1    1    1    2    0  502  0.21733518064E+02  0.11918735355E+02 -0.49441237505E+02  0.55306762931E+02  0.00000000000E+00 0. -1.
<mgrwt>
<rscale>  2 0.24787135E+02</rscale>
<asrwt>0</asrwt>
<pdfrwt beam="1">  1       21 0.79174953E-03 0.24787135E+02</pdfrwt>
<pdfrwt beam="2">  1       21 0.18732796E-01 0.24787135E+02</pdfrwt>
<totfact> 0.99920793E+07</totfact>
</mgrwt>
</event>
<event>
 4    1  0.7595771E+004  0.2361875E+02  0.7546771E-02  0.1681672E+00
         21   -1    0    0  503  502  0.00000000000E+00  0.00000000000E+00  0.25050887707E+01  0.25050887707E+01  0.00000000000E+00 0. -1.
         21   -1    0    0  501  503 -0.00000000000E+00 -0.00000000000E+00 -0.22305745464E+03  0.22305745464E+03  0.00000000000E+00 0. -1.
          3    1    1    2  501    0 -0.17139506943E+02  0.16250614251E+02 -0.10566631073E+03  0.10827379362E+03  0.00000000000E+00 0.  1.
         -3    1    1    2    0  502  0.17139506943E+02 -0.16250614251E+02 -0.11488605514E+03  0.11728874979E+03  0.00000000000E+00 0. -1.
<mgrwt>
<rscale>  2 0.23618746E+02</rscale>
<asrwt>0</asrwt>
<pdfrwt beam="1">  1       21 0.38539813E-03 0.23618746E+02</pdfrwt>
<pdfrwt beam="2">  1       21 0.34316544E-01 0.23618746E+02</pdfrwt>
<totfact> 0.96890048E+07</totfact>
</mgrwt>
</event>
<event>
 4    1  0.7595771E+004  0.2168887E+02  0.7546771E-02  0.1713689E+00
         21   -1    0    0  501  502  0.00000000000E+00  0.00000000000E+00  0.23723864865E+03  0.23723864865E+03  0.00000000000E+00 0.  1.
         21   -1    0    0  502  503 -0.00000000000E+00 -0.00000000000E+00 -0.26888646120E+01  0.26888646120E+01  0.00000000000E+00 0.  1.
          2    1    1    2  501    0 -0.17724679385E+02 -0.12499719024E+02  0.55803326380E+02  0.59870013112E+02  0.00000000000E+00 0. -1.
         -2    1    1    2    0  503  0.17724679385E+02  0.12499719024E+02  0.17874645765E+03  0.18005750015E+03  0.00000000000E+00 0.  1.
<mgrwt>
<rscale>  2 0.21688874E+02</rscale>
<asrwt>0</asrwt>
<pdfrwt beam="1">  1       21 0.36498237E-01 0.21688874E+02</pdfrwt>
<pdfrwt beam="2">  1       21 0.41367166E-03 0.21688874E+02</pdfrwt>
<totfact> 0.76185890E+07</totfact>
</mgrwt>
</event>
<event>
 4    1  0.7595771E+004  0.3420466E+02  0.7546771E-02  0.1555779E+00
         21   -1    0    0  503  502  0.00000000000E+00  0.00000000000E+00  0.31203901953E+02  0.31203901953E+02  0.00000000000E+00 0. -1.
         21   -1    0    0  501  503 -0.00000000000E+00 -0.00000000000E+00 -0.41208278128E+02  0.41208278128E+02  0.00000000000E+00 0. -1.
          2    1    1    2  501    0  0.33008748067E+02 -0.89655496928E+01  0.58677650231E+01  0.34704310923E+02  0.00000000000E+00 0. -1.
         -2    1    1    2    0  502 -0.33008748067E+02  0.89655496928E+01 -0.15872141198E+02  0.37707869159E+02  0.00000000000E+00 0.  1.
<mgrwt>
<rscale>  2 0.34204657E+02</rscale>
<asrwt>0</asrwt>
<pdfrwt beam="1">  1       21 0.48006003E-02 0.34204657E+02</pdfrwt>
<pdfrwt beam="2">  1       21 0.63397351E-02 0.34204657E+02</pdfrwt>
<totfact> 0.40878717E+07</totfact>
</mgrwt>
</event>
<event>
 4    1  0.7595771E+004  0.2148345E+02  0.7546771E-02  0.1717342E+00
         21   -1    0    0  501  502  0.00000000000E+00  0.00000000000E+00  0.54977627237E+01  0.54977627237E+01  0.00000000000E+00 0.  1.
         21   -1    0    0  502  503 -0.00000000000E+00 -0.00000000000E+00 -0.86369392646E+02  0.86369392646E+02  0.00000000000E+00 0.  1.
          4    1    1    2  501    0 -0.10302398666E+02 -0.18852039048E+02 -0.48123174078E+02  0.52700841339E+02  0.00000000000E+00 0. -1.
         -4    1    1    2    0  503  0.10302398666E+02  0.18852039048E+02 -0.32748455844E+02  0.39166314030E+02  0.00000000000E+00 0.  1.
<mgrwt>
<rscale>  2 0.21483454E+02</rscale>
<asrwt>0</asrwt>
<pdfrwt beam="1">  1       21 0.84580963E-03 0.21483454E+02</pdfrwt>
<pdfrwt beam="2">  1       21 0.13287599E-01 0.21483454E+02</pdfrwt>
<totfact> 0.15635442E+08</totfact>
</mgrwt>
</event>
<event>
 4    1  0.7595771E+004  0.2099881E+02  0.7546771E-02  0.1726165E+00
         21   -1    0    0  503  502  0.00000000000E+00  0.00000000000E+00  0.14894959457E+04  0.14894959457E+04  0.00000000000E+00 0.  1.
         21   -1    0    0  501  503 -0.00000000000E+00 -0.00000000000E+00 -0.31821909392E+00  0.31821909392E+00  0.00000000000E+00 0.  1.
          2    1    1    2  501    0 -0.18085674827E+02  0.10670440077E+02  0.94124788416E+03  0.94148209190E+03  0.00000000000E+00 0. -1.
         -2    1    1    2    0  502  0.18085674827E+02 -0.10670440077E+02  0.54792984241E+03  0.54833207286E+03  0.00000000000E+00 0.  1.
<mgrwt>
<rscale>  2 0.20998808E+02</rscale>
<asrwt>0</asrwt>
<pdfrwt beam="1">  1       21 0.22914764E+00 0.20998808E+02</pdfrwt>
<pdfrwt beam="2">  1       21 0.48957976E-04 0.20998808E+02</pdfrwt>
<totfact> 0.29445477E+07</totfact>
</mgrwt>
</event>
<event>
 4    1  0.7595771E+004  0.2181019E+02  0.7546771E-02  0.1711555E+00
         21   -1    0    0  503  502  0.00000000000E+00  0.00000000000E+00  0.22160655348E+03  0.22160655348E+03  0.00000000000E+00 0. -1.
         21   -1    0    0  501  503 -0.00000000000E+00 -0.00000000000E+00 -0.22634047559E+01  0.22634047559E+01  0.00000000000E+00 0. -1.
          2    1    1    2  501    0  0.13784836693E+02  0.16901558425E+02  0.13510770617E+03  0.13685677428E+03  0.00000000000E+00 0. -1.
         -2    1    1    2    0  502 -0.13784836693E+02 -0.16901558425E+02  0.84235442553E+02  0.87013183955E+02  0.00000000000E+00 0.  1.
<mgrwt>
<rscale>  2 0.21810190E+02</rscale>
<asrwt>0</asrwt>
<pdfrwt beam="1">  1       21 0.34093299E-01 0.21810190E+02</pdfrwt>
<pdfrwt beam="2">  1       21 0.34821629E-03 0.21810190E+02</pdfrwt>
<totfact> 0.11134353E+08</totfact>
</mgrwt>
</event>
<event>
 4    1  0.7595771E+004  0.2593550E+02  0.7546771E-02  0.1647917E+00
         21   -1    0    0  501  502  0.00000000000E+00  0.00000000000E+00  0.49770290873E+02  0.49770290873E+02  0.00000000000E+00 0. -1.
         21   -1    0    0  502  503 -0.00000000000E+00 -0.00000000000E+00 -0.14957266973E+02  0.14957266973E+02  0.00000000000E+00 0. -1.
          3    1    1    2  501    0 -0.33395555830E+01  0.25719598331E+02  0.73570885705E+01  0.26958804165E+02  0.00000000000E+00 0. -1.
         -3    1    1    2    0  503  0.33395555830E+01 -0.25719598331E+02  0.27455935330E+02  0.37768753681E+02  0.00000000000E+00 0.  1.
<mgrwt>
<rscale>  2 0.25935504E+02</rscale>
<asrwt>0</asrwt>
<pdfrwt beam="1">  1       21 0.76569677E-02 0.25935504E+02</pdfrwt>
<pdfrwt beam="2">  1       21 0.23011180E-02 0.25935504E+02</pdfrwt>
<totfact> 0.89946483E+07</totfact>
</mgrwt>
</event>
<event>
 4    1  0.7595771E+004  0.2291817E+02  0.7546771E-02  0.1692840E+00
         21   -1    0    0  501  502  0.00000000000E+00  0.00000000000E+00  0.58505322223E+03  0.58505322223E+03  0.00000000000E+00 0. -1.
         21   -1    0    0  502  503 -0.00000000000E+00 -0.00000000000E+00 -0.11450139413E+01  0.11450139413E+01  0.00000000000E+00 0. -1.
          5    1    1    2  501    0 -0.21905847545E+02 -0.67362044545E+01  0.42815278162E+03  0.42876572509E+03  0.00000000000E+00 0.  1.
         -5    1    1    2    0  503  0.21905847545E+02  0.67362044545E+01  0.15575542667E+03  0.15743251108E+03  0.00000000000E+00 0. -1.
<mgrwt>
<rscale>  2 0.22918172E+02</rscale>
<asrwt>0</asrwt>
<pdfrwt beam="1">  1       21 0.90007949E-01 0.22918172E+02</pdfrwt>
<pdfrwt beam="2">  1       21 0.17615646E-03 0.22918172E+02</pdfrwt>
<totfact> 0.44347086E+07</totfact>
</mgrwt>
</event>
<event>
 4    1  0.7595771E+004  0.2438536E+02  0.7546771E-02  0.1669990E+00
         21   -1    0    0  503  502  0.00000000000E+00  0.00000000000E+00  0.33479287510E+02  0.33479287510E+02  0.00000000000E+00 0.  1.
         21   -1    0    0  501  503 -0.00000000000E+00 -0.00000000000E+00 -0.18091824480E+02  0.18091824480E+02  0.00000000000E+00 0.  1.
          5    1    1    2  501    0  0.13231121860E+02  0.20483725771E+02  0.42100212394E+01  0.24746108502E+02  0.00000000000E+00 0. -1.
         -5    1    1    2    0  502 -0.13231121860E+02 -0.20483725771E+02  0.11177441791E+02  0.26825003488E+02  0.00000000000E+00 0.  1.
<mgrwt>
<rscale>  2 0.24385356E+02</rscale>
<asrwt>0</asrwt>
<pdfrwt beam="1">  1       21 0.51506596E-02 0.24385356E+02</pdfrwt>
<pdfrwt beam="2">  1       21 0.27833576E-02 0.24385356E+02</pdfrwt>
<totfact> 0.12497778E+08</totfact>
</mgrwt>
</event>
<event>
 4    1  0.7595771E+004  0.2867212E+02  0.7546771E-02  0.1613248E+00
         21   -1    0    0  501  502  0.00000000000E+00  0.00000000000E+00  0.27877597927E+03  0.27877597927E+03  0.00000000000E+00 0.  1.
         21   -1    0    0  502  503 -0.00000000000E+00 -0.00000000000E+00 -0.30039008702E+01  0.30039008702E+01  0.00000000000E+00 0.  1.
          2    1    1    2  501    0  0.28660957164E+02  0.80000965461E+00  0.11882666222E+03  0.12223692623E+03  0.00000000000E+00 0.  1.
         -2    1    1    2    0  503 -0.28660957164E+02 -0.80000965461E+00  0.15694541618E+03  0.15954295390E+03  0.00000000000E+00 0. -1.
<mgrwt>
<rscale>  2 0.28672120E+02</rscale>
<asrwt>0</asrwt>
<pdfrwt beam="1">  1       21 0.42888592E-01 0.28672120E+02</pdfrwt>
<pdfrwt beam="2">  1       21 0.46213882E-03 0.28672120E+02</pdfrwt>
<totfact> 0.50965780E+07</totfact>
</mgrwt>
</event>
<event>
 4    1  0.7595771E+004  0.2416446E+02  0.7546771E-02  0.1673301E+00
         21   -1    0    0  503  502  0.00000000000E+00  0.00000000000E+00  0.12361746057E+04  0.12361746057E+04  0.00000000000E+00 0. -1.
         21   -1    0    0  501  503 -0.00000000000E+00 -0.00000000000E+00 -0.57396757382E+00  0.57396757382E+00  0.00000000000E+00 0. -1.
          5    1    1    2  501    0  0.60774441827E+00  0.24156811474E+02  0.87797693771E+03  0.87830941248E+03  0.00000000000E+00 0. -1.
         -5    1    1    2    0  502 -0.60774441827E+00 -0.24156811474E+02  0.35762370042E+03  0.35843916080E+03  0.00000000000E+00 0.  1.
<mgrwt>
<rscale>  2 0.24164455E+02</rscale>
<asrwt>0</asrwt>
<pdfrwt beam="1">  1       21 0.19017858E+00 0.24164455E+02</pdfrwt>
<pdfrwt beam="2">  1       21 0.88303693E-04 0.24164455E+02</pdfrwt>
<totfact> 0.21250069E+07</totfact>
</mgrwt>
</event>
<event>
 4    1  0.7595771E+004  0.3011676E+02  0.7546771E-02  0.1596802E+00
         21   -1    0    0  503  502  0.00000000000E+00  0.00000000000E+00  0.14846112888E+01  0.14846112888E+01  0.00000000000E+00 0. -1.
         21   -1    0    0  501  503 -0.00000000000E+00 -0.00000000000E+00 -0.64008767641E+03  0.64008767641E+03  0.00000000000E+00 0. -1.
          1    1    1    2  501    0 -0.16572742175E+01  0.30071129327E+02 -0.38774670980E+03  0.38891455403E+03  0.00000000000E+00 0.  1.
         -1    1    1    2    0  502  0.16572742175E+01 -0.30071129327E+02 -0.25085635533E+03  0.25265773367E+03  0.00000000000E+00 0. -1.
<mgrwt>
<rscale>  2 0.30116762E+02</rscale>
<asrwt>0</asrwt>
<pdfrwt beam="1">  1       21 0.22840176E-03 0.30116762E+02</pdfrwt>
<pdfrwt beam="2">  1       21 0.98475017E-01 0.30116762E+02</pdfrwt>
<totfact> 0.26371839E+07</totfact>
</mgrwt>
</event>
<event>
 4    1  0.7595771E+004  0.2189658E+02  0.7546771E-02  0.1710047E+00
         21   -1    0    0  503  502  0.00000000000E+00  0.00000000000E+00  0.51999755898E+03  0.51999755898E+03  0.00000000000E+00 0.  1.
         21   -1    0    0  501  503 -0.00000000000E+00 -0.00000000000E+00 -0.12575506657E+01  0.12575506657E+01  0.00000000000E+00 0.  1.
          3    1    1    2  501    0 -0.41695744440E+01 -0.21495925493E+02  0.12475026660E+03  0.12665736923E+03  0.00000000000E+00 0. -1.
         -3    1    1    2    0  502  0.41695744440E+01  0.21495925493E+02  0.39398974172E+03  0.39459774042E+03  0.00000000000E+00 0.  1.
<mgrwt>
<rscale>  2 0.21896579E+02</rscale>
<asrwt>0</asrwt>
<pdfrwt beam="1">  1       21 0.79999453E-01 0.21896579E+02</pdfrwt>
<pdfrwt beam="2">  1       21 0.19346975E-03 0.21896579E+02</pdfrwt>
<totfact> 0.49221954E+07</totfact>
</mgrwt>
</event>
<event>
 4    1  0.7595771E+004  0.2776008E+02  0.7546771E-02  0.1624255E+00
         21   -1    0    0  503  502  0.00000000000E+00  0.00000000000E+00  0.39745216703E+01  0.39745216703E+01  0.00000000000E+00 0. -1.
         21   -1    0    0  501  503 -0.00000000000E+00 -0.00000000000E+00 -0.46304864527E+03  0.46304864527E+03  0.00000000000E+00 0. -1.
          5    1    1    2  501    0  0.22008962797E+01  0.27672695013E+02 -0.51504728642E+02  0.58509478430E+02  0.00000000000E+00 0. -1.
         -5    1    1    2    0  502 -0.22008962797E+01 -0.27672695013E+02 -0.40756939495E+03  0.40851368851E+03  0.00000000000E+00 0.  1.
<mgrwt>
<rscale>  2 0.27760079E+02</rscale>
<asrwt>0</asrwt>
<pdfrwt beam="1">  1       21 0.61146495E-03 0.27760079E+02</pdfrwt>
<pdfrwt beam="2">  1       21 0.71238244E-01 0.27760079E+02</pdfrwt>
<totfact> 0.12154093E+07</totfact>
</mgrwt>
</event>
<event>
 4    1  0.7595771E+004  0.2030646E+02  0.7546771E-02  0.1739301E+00
         21   -1    0    0  501  502  0.00000000000E+00  0.00000000000E+00  0.65532994491E+01  0.65532994491E+01  0.00000000000E+00 0. -1.
         21   -1    0    0  502  503 -0.00000000000E+00 -0.00000000000E+00 -0.65248848700E+02  0.65248848700E+02  0.00000000000E+00 0. -1.
          2    1    1    2  501    0 -0.59498466212E+00  0.20297742295E+02 -0.36126136346E+02  0.41442129244E+02  0.00000000000E+00 0.  1.
         -2    1    1    2    0  503  0.59498466212E+00 -0.20297742295E+02 -0.22569412905E+02  0.30360018905E+02  0.00000000000E+00 0. -1.
<mgrwt>
<rscale>  2 0.20306461E+02</rscale>
<asrwt>0</asrwt>
<pdfrwt beam="1">  1       21 0.10081999E-02 0.20306461E+02</pdfrwt>
<pdfrwt beam="2">  1       21 0.10038285E-01 0.20306461E+02</pdfrwt>
<totfact> 0.18845365E+08</totfact>
</mgrwt>
</event>
<event>
 4    1  0.7595771E+004  0.2093598E+02  0.7546771E-02  0.1727331E+00
         21   -1    0    0  503  502  0.00000000000E+00  0.00000000000E+00  0.25263587168E+02  0.25263587168E+02  0.00000000000E+00 0.  1.
         21   -1    0    0  501  503 -0.00000000000E+00 -0.00000000000E+00 -0.27553090647E+02  0.27553090647E+02  0.00000000000E+00 0.  1.
          3    1    1    2  501    0  0.11915697190E+02 -0.17214274030E+02 -0.17215225393E+02  0.27104963665E+02  0.00000000000E+00 0. -1.
         -3    1    1    2    0  502 -0.11915697190E+02  0.17214274030E+02  0.14925721914E+02  0.25711714151E+02  0.00000000000E+00 0.  1.
<mgrwt>
<rscale>  2 0.20935975E+02</rscale>
<asrwt>0</asrwt>
<pdfrwt beam="1">  1       21 0.38867057E-02 0.20935975E+02</pdfrwt>
<pdfrwt beam="2">  1       21 0.42389370E-02 0.20935975E+02</pdfrwt>
<totfact> 0.96620810E+07</totfact>
</mgrwt>
</event>
<event>
 4    1  0.7595771E+004  0.2461367E+02  0.7546771E-02  0.1666614E+00
         21   -1    0    0  503  502  0.00000000000E+00  0.00000000000E+00  0.53629704117E+02  0.53629704117E+02  0.00000000000E+00 0. -1.
         21   -1    0    0  501  503 -0.00000000000E+00 -0.00000000000E+00 -0.11299613001E+02  0.11299613001E+02  0.00000000000E+00 0. -1.
          2    1    1    2  501    0 -0.18470189785E+02 -0.16269133841E+02  0.20633791167E+02  0.32118311981E+02  0.00000000000E+00 0. -1.
         -2    1    1    2    0  502  0.18470189785E+02  0.16269133841E+02  0.21696299948E+02  0.32811005136E+02  0.00000000000E+00 0.  1.
<mgrwt>
<rscale>  2 0.24613667E+02</rscale>
<asrwt>0</asrwt>
<pdfrwt beam="1">  1       21 0.82507236E-02 0.24613667E+02</pdfrwt>
<pdfrwt beam="2">  1       21 0.17384020E-02 0.24613667E+02</pdfrwt>
<totfact> 0.12088434E+08</totfact>
</mgrwt>
</event>
<event>
 4    1  0.7595771E+004  0.2256137E+02  0.7546771E-02  0.1698720E+00
         21   -1    0    0  501  502  0.00000000000E+00  0.00000000000E+00  0.50840211663E+02  0.50840211663E+02  0.00000000000E+00 0. -1.
         21   -1    0    0  502  503 -0.00000000000E+00 -0.00000000000E+00 -0.10164079644E+02  0.10164079644E+02  0.00000000000E+00 0. -1.
          2    1    1    2  501    0 -0.20663986020E+02 -0.90562236047E+01  0.24068325664E+02  0.32989389271E+02  0.00000000000E+00 0. -1.
         -2    1    1    2    0  503  0.20663986020E+02  0.90562236047E+01  0.16607806355E+02  0.28014902037E+02  0.00000000000E+00 0.  1.
<mgrwt>
<rscale>  2 0.22561372E+02</rscale>
<asrwt>0</asrwt>
<pdfrwt beam="1">  1       21 0.78215709E-02 0.22561372E+02</pdfrwt>
<pdfrwt beam="2">  1       21 0.15637046E-02 0.22561372E+02</pdfrwt>
<totfact> 0.15111558E+08</totfact>
</mgrwt>
</event>
<event>
 4    1  0.7595771E+004  0.2397243E+02  0.7546771E-02  0.1676216E+00
         21   -1    0    0  501  502  0.00000000000E+00  0.00000000000E+00  0.20267210138E+01  0.20267210138E+01  0.00000000000E+00 0.  1.
         21   -1    0    0  502  503 -0.00000000000E+00 -0.00000000000E+00 -0.29035479322E+03  0.29035479322E+03  0.00000000000E+00 0.  1.
          3    1    1    2  501    0 -0.69179812803E+01  0.22952534363E+02 -0.16654372986E+03  0.16826018916E+03  0.00000000000E+00 0.  1.
         -3    1    1    2    0  503  0.69179812803E+01 -0.22952534363E+02 -0.12178434235E+03  0.12412132508E+03  0.00000000000E+00 0. -1.
<mgrwt>
<rscale>  2 0.23972428E+02</rscale>
<asrwt>0</asrwt>
<pdfrwt beam="1">  1       21 0.31180316E-03 0.23972428E+02</pdfrwt>
<pdfrwt beam="2">  1       21 0.44669979E-01 0.23972428E+02</pdfrwt>
<totfact> 0.80743872E+07</totfact>
</mgrwt>
</event>
<event>
 4    1  0.7595771E+004  0.2736564E+02  0.7546771E-02  0.1629178E+00
         21   -1    0    0  503  502  0.00000000000E+00  0.00000000000E+00  0.44208524323E+01  0.44208524323E+01  0.00000000000E+00 0.  1.
         21   -1    0    0  501  503 -0.00000000000E+00 -0.00000000000E+00 -0.17498917044E+03  0.17498917044E+03  0.00000000000E+00 0.  1.
          5    1    1    2  501    0  0.18172567302E+02 -0.20460595421E+02 -0.10132066897E+03  0.10495120832E+03  0.00000000000E+00 0.  1.
         -5    1    1    2    0  502 -0.18172567302E+02  0.20460595421E+02 -0.69247649038E+02  0.74458814553E+02  0.00000000000E+00 0. -1.
<mgrwt>
<rscale>  2 0.27365638E+02</rscale>
<asrwt>0</asrwt>
<pdfrwt beam="1">  1       21 0.68013116E-03 0.27365638E+02</pdfrwt>
<pdfrwt beam="2">  1       21 0.26921410E-01 0.27365638E+02</pdfrwt>
<totfact> 0.67538152E+07</totfact>
</mgrwt>
</event>
<event>
 4    1  0.7595771E+004  0.2160922E+02  0.7546771E-02  0.1715099E+00
         21   -1    0    0  503  502  0.00000000000E+00  0.00000000000E+00  0.10249542394E+03  0.10249542394E+03  0.00000000000E+00 0. -1.
         21   -1    0    0  501  503 -0.00000000000E+00 -0.00000000000E+00 -0.48774474400E+01  0.48774474400E+01  0.00000000000E+00 0. -1.
          2    1    1    2  501    0  0.19768555776E+02 -0.87271253299E+01  0.62593562493E+02  0.66218672438E+02  0.00000000000E+00 0.  1.
         -2    1    1    2    0  502 -0.19768555776E+02  0.87271253299E+01  0.35024414012E+02  0.41154198946E+02  0.00000000000E+00 0. -1.
<mgrwt>
<rscale>  2 0.21609223E+02</rscale>
<asrwt>0</asrwt>
<pdfrwt beam="1">  1       21 0.15768525E-01 0.21609223E+02</pdfrwt>
<pdfrwt beam="2">  1       21 0.75037661E-03 0.21609223E+02</pdfrwt>
<totfact> 0.14009109E+08</totfact>
</mgrwt>
</event>
<event>
 4    1  0.7595771E+004  0.3686428E+02  0.7546771E-02  0.1532642E+00
         21   -1    0    0  503  502  0.00000000000E+00  0.00000000000E+00  0.35479845076E+03  0.35479845076E+03  0.00000000000E+00 0. -1.
         21   -1    0    0  501  503 -0.00000000000E+00 -0.00000000000E+00 -0.38434295216E+01  0.38434295216E+01  0.00000000000E+00 0. -1.
          1    1    1    2  501    0 -0.12269281999E+02 -0.34762626025E+02  0.18596853211E+03  0.18958710501E+03  0.00000000000E+00 0. -1.
         -1    1    1    2    0  502  0.12269281999E+02  0.34762626025E+02  0.16498648913E+03  0.16905477527E+03  0.00000000000E+00 0.  1.
<mgrwt>
<rscale>  2 0.36864284E+02</rscale>
<asrwt>0</asrwt>
<pdfrwt beam="1">  1       21 0.54584352E-01 0.36864284E+02</pdfrwt>
<pdfrwt beam="2">  1       21 0.59129713E-03 0.36864284E+02</pdfrwt>
<totfact> 0.23004675E+07</totfact>
</mgrwt>
</event>
<event>
 4    1  0.7595771E+004  0.3004012E+02  0.7546771E-02  0.1597646E+00
         21   -1    0    0  501  502  0.00000000000E+00  0.00000000000E+00  0.14984767842E+03  0.14984767842E+03  0.00000000000E+00 0. -1.
         21   -1    0    0  502  503 -0.00000000000E+00 -0.00000000000E+00 -0.66354063466E+01  0.66354063466E+01  0.00000000000E+00 0. -1.
          2    1    1    2  501    0 -0.10315420983E+02 -0.28213487322E+02  0.47820421272E+02  0.56473015393E+02  0.00000000000E+00 0.  1.
         -2    1    1    2    0  503  0.10315420983E+02  0.28213487322E+02  0.95391850800E+02  0.10001006937E+03  0.00000000000E+00 0. -1.
<mgrwt>
<rscale>  2 0.30040119E+02</rscale>
<asrwt>0</asrwt>
<pdfrwt beam="1">  1       21 0.23053486E-01 0.30040119E+02</pdfrwt>
<pdfrwt beam="2">  1       21 0.10208319E-02 0.30040119E+02</pdfrwt>
<totfact> 0.49462816E+07</totfact>
</mgrwt>
</event>
<event>
 4    1  0.7595771E+004  0.2569142E+02  0.7546771E-02  0.1651265E+00
         21   -1    0    0  503  502  0.00000000000E+00  0.00000000000E+00  0.12589661683E+02  0.12589661683E+02  0.00000000000E+00 0. -1.
         21   -1    0    0  501  503 -0.00000000000E+00 -0.00000000000E+00 -0.14962711091E+03  0.14962711091E+03  0.00000000000E+00 0. -1.
          3    1    1    2  501    0  0.18387680091E+02 -0.17942746109E+02 -0.31466763023E+01  0.25883401802E+02  0.00000000000E+00 0. -1.
         -3    1    1    2    0  502 -0.18387680091E+02  0.17942746109E+02 -0.13389077293E+03  0.13633337079E+03  0.00000000000E+00 0.  1.
<mgrwt>
<rscale>  2 0.25691417E+02</rscale>
<asrwt>0</asrwt>
<pdfrwt beam="1">  1       21 0.19368711E-02 0.25691417E+02</pdfrwt>
<pdfrwt beam="2">  1       21 0.23019555E-01 0.25691417E+02</pdfrwt>
<totfact> 0.18055219E+07</totfact>
</mgrwt>
</event>
<event>
 4    1  0.7595771E+004  0.2741897E+02  0.7546771E-02  0.1628506E+00
         21   -1    0    0  503  502  0.00000000000E+00  0.00000000000E+00  0.35884260361E+01  0.35884260361E+01  0.00000000000E+00 0.  1.
         21   -1    0    0  501  503 -0.00000000000E+00 -0.00000000000E+00 -0.21043143599E+03  0.21043143599E+03  0.00000000000E+00 0.  1.
          2    1    1    2  501    0  0.18345492063E+02  0.20377505135E+02 -0.11051475217E+03  0.11386531623E+03  0.00000000000E+00 0.  1.
         -2    1    1    2    0  502 -0.18345492063E+02 -0.20377505135E+02 -0.96328257788E+02  0.10015454579E+03  0.00000000000E+00 0. -1.
<mgrwt>
<rscale>  2 0.27418968E+02</rscale>
<asrwt>0</asrwt>
<pdfrwt beam="1">  1       21 0.55206547E-03 0.27418968E+02</pdfrwt>
<pdfrwt beam="2">  1       21 0.32374071E-01 0.27418968E+02</pdfrwt>
<totfact> 0.65813523E+07</totfact>
</mgrwt>
</event>
<event>
 4    1  0.7595771E+004  0.2251350E+02  0.7546771E-02  0.1699520E+00
         21   -1    0    0  501  502  0.00000000000E+00  0.00000000000E+00  0.87234245335E+02  0.87234245335E+02  0.00000000000E+00 0.  1.
         21   -1    0    0  502  503 -0.00000000000E+00 -0.00000000000E+00 -0.58393803539E+01  0.58393803539E+01  0.00000000000E+00 0.  1.
          3    1    1    2  501    0 -0.11108594816E+02  0.19582049030E+02  0.37413607974E+02  0.43665038470E+02  0.00000000000E+00 0.  1.
         -3    1    1    2    0  503  0.11108594816E+02 -0.19582049030E+02  0.43981257008E+02  0.49408587219E+02  0.00000000000E+00 0. -1.
<mgrwt>
<rscale>  2 0.22513496E+02</rscale>
<asrwt>0</asrwt>
<pdfrwt beam="1">  1       21 0.13420652E-01 0.22513496E+02</pdfrwt>
<pdfrwt beam="2">  1       21 0.89836627E-03 0.22513496E+02</pdfrwt>
<totfact> 0.14249408E+08</totfact>
</mgrwt>
</event>
<event>
 4    1  0.7595771E+004  0.2559870E+02  0.7546771E-02  0.1652549E+00
         21   -1    0    0  501  502  0.00000000000E+00  0.00000000000E+00  0.51367410061E+03  0.51367410061E+03  0.00000000000E+00 0. -1.
         21   -1    0    0  502  503 -0.00000000000E+00 -0.00000000000E+00 -0.13065568432E+01  0.13065568432E+01  0.00000000000E+00 0. -1.
          1    1    1    2  501    0  0.12253974270E+02 -0.22475179250E+02  0.29575496295E+03  0.29686072774E+03  0.00000000000E+00 0.  1.
         -1    1    1    2    0  503 -0.12253974270E+02  0.22475179250E+02  0.21661258082E+03  0.21811992971E+03  0.00000000000E+00 0. -1.
<mgrwt>
<rscale>  2 0.25598702E+02</rscale>
<asrwt>0</asrwt>
<pdfrwt beam="1">  1       21 0.79026624E-01 0.25598702E+02</pdfrwt>
<pdfrwt beam="2">  1       21 0.20100915E-03 0.25598702E+02</pdfrwt>
<totfact> 0.49461519E+07</totfact>
</mgrwt>
</event>
<event>
 4    1  0.7595771E+004  0.2089637E+02  0.7546771E-02  0.1728069E+00
         21   -1    0    0  501  502  0.00000000000E+00  0.00000000000E+00  0.20341950489E+04  0.20341950489E+04  0.00000000000E+00 0.  1.
         21   -1    0    0  502  503 -0.00000000000E+00 -0.00000000000E+00 -0.22222749171E+00  0.22222749171E+00  0.00000000000E+00 0.  1.
          1    1    1    2  501    0 -0.92357716250E+01  0.18744562760E+02  0.12047096917E+04  0.12048909077E+04  0.00000000000E+00 0.  1.
         -1    1    1    2    0  503  0.92357716250E+01 -0.18744562760E+02  0.82926312964E+03  0.82952636866E+03  0.00000000000E+00 0. -1.
<mgrwt>
<rscale>  2 0.20896366E+02</rscale>
<asrwt>0</asrwt>
<pdfrwt beam="1">  1       21 0.31293817E+00 0.20896366E+02</pdfrwt>
<pdfrwt beam="2">  1       21 0.34190474E-04 0.20896366E+02</pdfrwt>
<totfact> 0.19071064E+07</totfact>
</mgrwt>
</event>
<event>
 4    1  0.7595771E+004  0.2053882E+02  0.7546771E-02  0.1734820E+00
         21   -1    0    0  503  502  0.00000000000E+00  0.00000000000E+00  0.21779526448E+01  0.21779526448E+01  0.00000000000E+00 0. -1.
         21   -1    0    0  501  503 -0.00000000000E+00 -0.00000000000E+00 -0.24006304249E+03  0.24006304249E+03  0.00000000000E+00 0. -1.
          1    1    1    2  501    0  0.15464972541E+02 -0.13515838216E+02 -0.65707548942E+02  0.68842757399E+02  0.00000000000E+00 0.  1.
         -1    1    1    2    0  502 -0.15464972541E+02  0.13515838216E+02 -0.17217754090E+03  0.17339823774E+03  0.00000000000E+00 0. -1.
<mgrwt>
<rscale>  2 0.20538823E+02</rscale>
<asrwt>0</asrwt>
<pdfrwt beam="1">  1       21 0.33506985E-03 0.20538823E+02</pdfrwt>
<pdfrwt beam="2">  1       21 0.36932752E-01 0.20538823E+02</pdfrwt>
<totfact> 0.99912045E+07</totfact>
</mgrwt>
</event>
<event>
 4    1  0.7595771E+004  0.2736323E+02  0.7546771E-02  0.1629208E+00
         21   -1    0    0  503  502  0.00000000000E+00  0.00000000000E+00  0.14234101964E+03  0.14234101964E+03  0.00000000000E+00 0.  1.
         21   -1    0    0  501  503 -0.00000000000E+00 -0.00000000000E+00 -0.74795285434E+01  0.74795285434E+01  0.00000000000E+00 0.  1.
          3    1    1    2  501    0  0.24342624987E+02  0.12497316403E+02  0.26625849947E+02  0.38179604423E+02  0.00000000000E+00 0.  1.
         -3    1    1    2    0  502 -0.24342624987E+02 -0.12497316403E+02  0.10823564115E+03  0.11164094376E+03  0.00000000000E+00 0. -1.
<mgrwt>
<rscale>  2 0.27363229E+02</rscale>
<asrwt>0</asrwt>
<pdfrwt beam="1">  1       21 0.21898616E-01 0.27363229E+02</pdfrwt>
<pdfrwt beam="2">  1       21 0.11506968E-02 0.27363229E+02</pdfrwt>
<totfact> 0.44284123E+07</totfact>
</mgrwt>
</event>
<event>
 4    1  0.7595771E+004  0.2169873E+02  0.7546771E-02  0.1713515E+00
         21   -1    0    0  503  502  0.00000000000E+00  0.00000000000E+00  0.84797518263E+02  0.84797518263E+02  0.00000000000E+00 0. -1.
         21   -1    0    0  501  503 -0.00000000000E+00 -0.00000000000E+00 -0.55720242284E+01  0.55720242284E+01  0.00000000000E+00 0. -1.
          1    1    1    2  501    0 -0.41851253835E+01  0.21291301736E+02  0.36935304761E+02  0.42837501583E+02  0.00000000000E+00 0.  1.
         -1    1    1    2    0  502  0.41851253835E+01 -0.21291301736E+02  0.42290189274E+02  0.47532040908E+02  0.00000000000E+00 0. -1.
<mgrwt>
<rscale>  2 0.21698728E+02</rscale>
<asrwt>0</asrwt>
<pdfrwt beam="1">  1       21 0.13045771E-01 0.21698728E+02</pdfrwt>
<pdfrwt beam="2">  1       21 0.85723456E-03 0.21698728E+02</pdfrwt>
<totfact> 0.15854000E+08</totfact>
</mgrwt>
</event>
<event>
 4    1  0.7595771E+004  0.6563881E+02  0.7546771E-02  0.1375585E+00
         21   -1    0    0  503  502  0.00000000000E+00  0.00000000000E+00  0.15466023433E+03  0.15466023433E+03  0.00000000000E+00 0.  1.
         21   -1    0    0  501  503 -0.00000000000E+00 -0.00000000000E+00 -0.43135244709E+02  0.43135244709E+02  0.00000000000E+00 0.  1.
          4    1    1    2  501    0  0.65563986969E+02 -0.31331693115E+01 -0.30946697704E+01  0.65711719794E+02  0.00000000000E+00 0. -1.
         -4    1    1    2    0  502 -0.65563986969E+02  0.31331693115E+01  0.11461965939E+03  0.13208375924E+03  0.00000000000E+00 0.  1.
<mgrwt>
<rscale>  2 0.65638808E+02</rscale>
<asrwt>0</asrwt>
<pdfrwt beam="1">  1       21 0.23793882E-01 0.65638808E+02</pdfrwt>
<pdfrwt beam="2">  1       21 0.66361916E-02 0.65638808E+02</pdfrwt>
<totfact> 0.26515051E+06</totfact>
</mgrwt>
</event>
<event>
 4    1  0.7595771E+004  0.2916250E+02  0.7546771E-02  0.1607535E+00
         21   -1    0    0  501  502  0.00000000000E+00  0.00000000000E+00  0.16768844464E+01  0.16768844464E+01  0.00000000000E+00 0.  1.
         21   -1    0    0  502  503 -0.00000000000E+00 -0.00000000000E+00 -0.65978427515E+03  0.65978427515E+03  0.00000000000E+00 0.  1.
          4    1    1    2  501    0  0.28691296583E+02 -0.52212103594E+01 -0.16998570830E+03  0.17246910612E+03  0.00000000000E+00 0.  1.
         -4    1    1    2    0  503 -0.28691296583E+02  0.52212103594E+01 -0.48812168240E+03  0.48899205348E+03  0.00000000000E+00 0. -1.
<mgrwt>
<rscale>  2 0.29162502E+02</rscale>
<asrwt>0</asrwt>
<pdfrwt beam="1">  1       21 0.25798252E-03 0.29162502E+02</pdfrwt>
<pdfrwt beam="2">  1       21 0.10150515E+00 0.29162502E+02</pdfrwt>
<totfact> 0.20529982E+07</totfact>
</mgrwt>
</event>
<event>
 4    1  0.7595771E+004  0.2872283E+02  0.7546771E-02  0.1612651E+00
         21   -1    0    0  503  502  0.00000000000E+00  0.00000000000E+00  0.31891735110E+02  0.31891735110E+02  0.00000000000E+00 0. -1.
         21   -1    0    0  501  503 -0.00000000000E+00 -0.00000000000E+00 -0.30108491107E+02  0.30108491107E+02  0.00000000000E+00 0. -1.
          4    1    1    2  501    0  0.12094576267E+02  0.26052297704E+02 -0.10741218481E+02  0.30665530571E+02  0.00000000000E+00 0. -1.
         -4    1    1    2    0  502 -0.12094576267E+02 -0.26052297704E+02  0.12524462485E+02  0.31334695647E+02  0.00000000000E+00 0.  1.
<mgrwt>
<rscale>  2 0.28722830E+02</rscale>
<asrwt>0</asrwt>
<pdfrwt beam="1">  1       21 0.49064208E-02 0.28722830E+02</pdfrwt>
<pdfrwt beam="2">  1       21 0.46320756E-02 0.28722830E+02</pdfrwt>
<totfact> 0.63115517E+07</totfact>
</mgrwt>
</event>
<event>
 4    1  0.7595771E+004  0.2912981E+02  0.7546771E-02  0.1607911E+00
         21   -1    0    0  501  502  0.00000000000E+00  0.00000000000E+00  0.37786702721E+02  0.37786702721E+02  0.00000000000E+00 0.  1.
         21   -1    0    0  502  503 -0.00000000000E+00 -0.00000000000E+00 -0.51796787631E+02  0.51796787631E+02  0.00000000000E+00 0.  1.
          2    1    1    2  501    0  0.27911350939E+02  0.83368193545E+01  0.26706677677E+02  0.39519523033E+02  0.00000000000E+00 0.  1.
         -2    1    1    2    0  503 -0.27911350939E+02 -0.83368193545E+01 -0.40716762587E+02  0.50063967319E+02  0.00000000000E+00 0. -1.
<mgrwt>
<rscale>  2 0.29129814E+02</rscale>
<asrwt>0</asrwt>
<pdfrwt beam="1">  1       21 0.58133389E-02 0.29129814E+02</pdfrwt>
<pdfrwt beam="2">  1       21 0.79687365E-02 0.29129814E+02</pdfrwt>
<totfact> 0.19979640E+07</totfact>
</mgrwt>
</event>
<event>
 4    1  0.7595771E+004  0.2126737E+02  0.7546771E-02  0.1721239E+00
         21   -1    0    0  501  502  0.00000000000E+00  0.00000000000E+00  0.15079266719E+01  0.15079266719E+01  0.00000000000E+00 0. -1.
         21   -1    0    0  502  503 -0.00000000000E+00 -0.00000000000E+00 -0.30506463427E+03  0.30506463427E+03  0.00000000000E+00 0. -1.
          2    1    1    2  501    0  0.18204540003E+02  0.10995265082E+02 -0.17162815453E+03  0.17294081230E+03  0.00000000000E+00 0.  1.
         -2    1    1    2    0  503 -0.18204540003E+02 -0.10995265082E+02 -0.13192855306E+03  0.13363174864E+03  0.00000000000E+00 0. -1.
<mgrwt>
<rscale>  2 0.21267372E+02</rscale>
<asrwt>0</asrwt>
<pdfrwt beam="1">  1       21 0.23198884E-03 0.21267372E+02</pdfrwt>
<pdfrwt beam="2">  1       21 0.46932995E-01 0.21267372E+02</pdfrwt>
<totfact> 0.10937564E+08</totfact>
</mgrwt>
</event>
<event>
 4    1  0.7595771E+004  0.2043406E+02  0.7546771E-02  0.1736831E+00
         21   -1    0    0  501  502  0.00000000000E+00  0.00000000000E+00  0.92667986601E+01  0.92667986601E+01  0.00000000000E+00 0. -1.
         21   -1    0    0  502  503 -0.00000000000E+00 -0.00000000000E+00 -0.55636105965E+02  0.55636105965E+02  0.00000000000E+00 0. -1.
          4    1    1    2  501    0  0.20647463357E+01  0.20329477181E+02 -0.90350809386E+01  0.22342414987E+02  0.00000000000E+00 0. -1.
         -4    1    1    2    0  503 -0.20647463357E+01 -0.20329477181E+02 -0.37334226366E+02  0.42560489638E+02  0.00000000000E+00 0.  1.
<mgrwt>
<rscale>  2 0.20434060E+02</rscale>
<asrwt>0</asrwt>
<pdfrwt beam="1">  1       21 0.14256613E-02 0.20434060E+02</pdfrwt>
<pdfrwt beam="2">  1       21 0.85594011E-02 0.20434060E+02</pdfrwt>
<totfact> 0.14562962E+08</totfact>
</mgrwt>
</event>
<event>
 4    1  0.7595771E+004  0.4632537E+02  0.7546771E-02  0.1466233E+00
         21   -1    0    0  501  502  0.00000000000E+00  0.00000000000E+00  0.40697620833E+01  0.40697620833E+01  0.00000000000E+00 0.  1.
         21   -1    0    0  502  503 -0.00000000000E+00 -0.00000000000E+00 -0.54079578551E+03  0.54079578551E+03  0.00000000000E+00 0.  1.
          4    1    1    2  501    0  0.37353158918E+02 -0.27400383522E+02 -0.31137884901E+03  0.31480601505E+03  0.00000000000E+00 0.  1.
         -4    1    1    2    0  503 -0.37353158918E+02  0.27400383522E+02 -0.22534717441E+03  0.23005953255E+03  0.00000000000E+00 0. -1.
<mgrwt>
<rscale>  2 0.46325366E+02</rscale>
<asrwt>0</asrwt>
<pdfrwt beam="1">  1       21 0.62611717E-03 0.46325366E+02</pdfrwt>
<pdfrwt beam="2">  1       21 0.83199361E-01 0.46325366E+02</pdfrwt>
<totfact> 0.90137346E+06</totfact>
</mgrwt>
</event>
<event>
 4    1  0.7595771E+004  0.2967657E+02  0.7546771E-02  0.1601692E+00
         21   -1    0    0  501  502  0.00000000000E+00  0.00000000000E+00  0.15123519826E+03  0.15123519826E+03  0.00000000000E+00 0.  1.
         21   -1    0    0  502  503 -0.00000000000E+00 -0.00000000000E+00 -0.73679580830E+01  0.73679580830E+01  0.00000000000E+00 0.  1.
          1    1    1    2  501    0  0.66959970881E+00  0.29669012532E+02  0.10824263411E+03  0.11223709952E+03  0.00000000000E+00 0.  1.
         -1    1    1    2    0  503 -0.66959970881E+00 -0.29669012532E+02  0.35624606068E+02  0.46366056829E+02  0.00000000000E+00 0. -1.
<mgrwt>
<rscale>  2 0.29676568E+02</rscale>
<asrwt>0</asrwt>
<pdfrwt beam="1">  1       21 0.23266951E-01 0.29676568E+02</pdfrwt>
<pdfrwt beam="2">  1       21 0.11335321E-02 0.29676568E+02</pdfrwt>
<totfact> 0.41397284E+07</totfact>
</mgrwt>
</event>
<event>
 4    1  0.7595771E+004  0.5149262E+02  0.7546771E-02  0.1437453E+00
         21   -1    0    0  501  502  0.00000000000E+00  0.00000000000E+00  0.38606275821E+01  0.38606275821E+01  0.00000000000E+00 0.  1.
         21   -1    0    0  502  503 -0.00000000000E+00 -0.00000000000E+00 -0.76023302653E+03  0.76023302653E+03  0.00000000000E+00 0.  1.
          4    1    1    2  501    0 -0.42497851677E+02 -0.29076152981E+02 -0.49692167175E+03  0.49958246358E+03  0.00000000000E+00 0.  1.
         -4    1    1    2    0  503  0.42497851677E+02  0.29076152981E+02 -0.25945072720E+03  0.26451119052E+03  0.00000000000E+00 0. -1.
<mgrwt>
<rscale>  2 0.51492622E+02</rscale>
<asrwt>0</asrwt>
<pdfrwt beam="1">  1       21 0.59394285E-03 0.51492622E+02</pdfrwt>
<pdfrwt beam="2">  1       21 0.11695890E+00 0.51492622E+02</pdfrwt>
<totfact> 0.45736182E+06</totfact>
</mgrwt>
</event>
<event>
 4    1  0.7595771E+004  0.2101111E+02  0.7546771E-02  0.1725938E+00
         21   -1    0    0  501  502  0.00000000000E+00  0.00000000000E+00  0.50127144016E+03  0.50127144016E+03  0.00000000000E+00 0.  1.
         21   -1    0    0  502  503 -0.00000000000E+00 -0.00000000000E+00 -0.88101769308E+00  0.88101769308E+00  0.00000000000E+00 0.  1.
          4    1    1    2  501    0 -0.95578427904E+01  0.18711343037E+02  0.24538212426E+03  0.24628003090E+03  0.00000000000E+00 0.  1.
         -4    1    1    2    0  503  0.95578427904E+01 -0.18711343037E+02  0.25500829821E+03  0.25587242695E+03  0.00000000000E+00 0. -1.
<mgrwt>
<rscale>  2 0.21011109E+02</rscale>
<asrwt>0</asrwt>
<pdfrwt beam="1">  1       21 0.77118455E-01 0.21011109E+02</pdfrwt>
<pdfrwt beam="2">  1       21 0.13554158E-03 0.21011109E+02</pdfrwt>
<totfact> 0.87624403E+07</totfact>
</mgrwt>
</event>
<event>
 4    1  0.7595771E+004  0.3129882E+02  0.7546771E-02  0.1584160E+00
         21   -1    0    0  503  502  0.00000000000E+00  0.00000000000E+00  0.20628867798E+01  0.20628867798E+01  0.00000000000E+00 0.  1.
         21   -1    0    0  501  503 -0.00000000000E+00 -0.00000000000E+00 -0.51026991742E+03  0.51026991742E+03  0.00000000000E+00 0.  1.
          2    1    1    2  501    0 -0.87210264095E+01  0.30059269897E+02 -0.18663754672E+03  0.18924373135E+03  0.00000000000E+00 0.  1.
         -2    1    1    2    0  502  0.87210264095E+01 -0.30059269897E+02 -0.32156948391E+03  0.32308907285E+03  0.00000000000E+00 0. -1.
<mgrwt>
<rscale>  2 0.31298818E+02</rscale>
<asrwt>0</asrwt>
<pdfrwt beam="1">  1       21 0.31736676E-03 0.31298818E+02</pdfrwt>
<pdfrwt beam="2">  1       21 0.78503172E-01 0.31298818E+02</pdfrwt>
<totfact> 0.26734233E+07</totfact>
</mgrwt>
</event>
<event>
 4    1  0.7595771E+004  0.2000725E+02  0.7546771E-02  0.1745184E+00
         21   -1    0    0  501  502  0.00000000000E+00  0.00000000000E+00  0.58704685544E+00  0.58704685544E+00  0.00000000000E+00 0.  1.
         21   -1    0    0  502  503 -0.00000000000E+00 -0.00000000000E+00 -0.83181638793E+03  0.83181638793E+03  0.00000000000E+00 0.  1.
          3    1    1    2  501    0 -0.17060114393E+02 -0.10451908324E+02 -0.59232320125E+03  0.59266100313E+03  0.00000000000E+00 0. -1.
         -3    1    1    2    0  503  0.17060114393E+02  0.10451908324E+02 -0.23890613982E+03  0.23974243165E+03  0.00000000000E+00 0.  1.
<mgrwt>
<rscale>  2 0.20007246E+02</rscale>
<asrwt>0</asrwt>
<pdfrwt beam="1">  1       21 0.90315451E-04 0.20007246E+02</pdfrwt>
<pdfrwt beam="2">  1       21 0.12797097E+00 0.20007246E+02</pdfrwt>
<totfact> 0.51285993E+07</totfact>
</mgrwt>
</event>
<event>
 4    1  0.7595771E+004  0.2144184E+02  0.7546771E-02  0.1718088E+00
         21   -1    0    0  501  502  0.00000000000E+00  0.00000000000E+00  0.32048996207E+02  0.32048996207E+02  0.00000000000E+00 0. -1.
         21   -1    0    0  502  503 -0.00000000000E+00 -0.00000000000E+00 -0.18848329222E+02  0.18848329222E+02  0.00000000000E+00 0. -1.
          2    1    1    2  501    0 -0.20672143732E+02  0.56934330142E+01 -0.58385258498E+01  0.22222535635E+02  0.00000000000E+00 0.  1.
         -2    1    1    2    0  503  0.20672143732E+02 -0.56934330142E+01  0.19039192835E+02  0.28674789794E+02  0.00000000000E+00 0. -1.
<mgrwt>
<rscale>  2 0.21441845E+02</rscale>
<asrwt>0</asrwt>
<pdfrwt beam="1">  1       21 0.49306148E-02 0.21441845E+02</pdfrwt>
<pdfrwt beam="2">  1       21 0.28997430E-02 0.21441845E+02</pdfrwt>
<totfact> 0.12100247E+08</totfact>
</mgrwt>
</event>
<event>
 4    1  0.7595771E+004  0.2355347E+02  0.7546771E-02  0.1682693E+00
         21   -1    0    0  503  502  0.00000000000E+00  0.00000000000E+00  0.14982840547E+01  0.14982840547E+01  0.00000000000E+00 0.  1.
         21   -1    0    0  501  503 -0.00000000000E+00 -0.00000000000E+00 -0.45375860012E+03  0.45375860012E+03  0.00000000000E+00 0.  1.
          4    1    1    2  501    0  0.23155636871E+02 -0.43107212258E+01 -0.32377162111E+03  0.32462721462E+03  0.00000000000E+00 0. -1.
         -4    1    1    2    0  502 -0.23155636871E+02  0.43107212258E+01 -0.12848869496E+03  0.13062966956E+03  0.00000000000E+00 0.  1.
<mgrwt>
<rscale>  2 0.23553468E+02</rscale>
<asrwt>0</asrwt>
<pdfrwt beam="1">  1       21 0.23050506E-03 0.23553468E+02</pdfrwt>
<pdfrwt beam="2">  1       21 0.69809069E-01 0.23553468E+02</pdfrwt>
<totfact> 0.51533488E+07</totfact>
</mgrwt>
</event>
<event>
 4    1  0.7595771E+004  0.2633564E+02  0.7546771E-02  0.1642527E+00
         21   -1    0    0  503  502  0.00000000000E+00  0.00000000000E+00  0.12639547404E+03  0.12639547404E+03  0.00000000000E+00 0. -1.
         21   -1    0    0  501  503 -0.00000000000E+00 -0.00000000000E+00 -0.80076114114E+01  0.80076114114E+01  0.00000000000E+00 0. -1.
          2    1    1    2  501    0 -0.23650991935E+02 -0.11584313656E+02  0.21492514193E+02  0.33992556666E+02  0.00000000000E+00 0. -1.
         -2    1    1    2    0  502  0.23650991935E+02  0.11584313656E+02  0.96895348433E+02  0.10041052878E+03  0.00000000000E+00 0.  1.
<mgrwt>
<rscale>  2 0.26335636E+02</rscale>
<asrwt>0</asrwt>
<pdfrwt beam="1">  1       21 0.19445456E-01 0.26335636E+02</pdfrwt>
<pdfrwt beam="2">  1       21 0.12319403E-02 0.26335636E+02</pdfrwt>
<totfact> 0.48799332E+07</totfact>
</mgrwt>
</event>
<event>
 4    1  0.7595771E+004  0.2276420E+02  0.7546771E-02  0.1695361E+00
         21   -1    0    0  503  502  0.00000000000E+00  0.00000000000E+00  0.32963858678E+01  0.32963858678E+01  0.00000000000E+00 0.  1.
         21   -1    0    0  501  503 -0.00000000000E+00 -0.00000000000E+00 -0.16537611616E+03  0.16537611616E+03  0.00000000000E+00 0.  1.
          4    1    1    2  501    0  0.87563848682E+01  0.21012719490E+02 -0.99786185835E+02  0.10234984875E+03  0.00000000000E+00 0. -1.
         -4    1    1    2    0  502 -0.87563848682E+01 -0.21012719490E+02 -0.62293544459E+02  0.66322653276E+02  0.00000000000E+00 0.  1.
<mgrwt>
<rscale>  2 0.22764197E+02</rscale>
<asrwt>0</asrwt>
<pdfrwt beam="1">  1       21 0.50713637E-03 0.22764197E+02</pdfrwt>
<pdfrwt beam="2">  1       21 0.25442475E-01 0.22764197E+02</pdfrwt>
<totfact> 0.11032963E+08</totfact>
</mgrwt>
</event>
<event>
 4    1  0.7595771E+004  0.2041117E+02  0.7546771E-02  0.1737273E+00
         21   -1    0    0  501  502  0.00000000000E+00  0.00000000000E+00  0.55786348563E+02  0.55786348563E+02  0.00000000000E+00 0. -1.
         21   -1    0    0  502  503 -0.00000000000E+00 -0.00000000000E+00 -0.89804583942E+01  0.89804583942E+01  0.00000000000E+00 0. -1.
          2    1    1    2  501    0 -0.15313003395E+02  0.13495478018E+02  0.10113531326E+02  0.22779366009E+02  0.00000000000E+00 0.  1.
         -2    1    1    2    0  503  0.15313003395E+02 -0.13495478018E+02  0.36692358843E+02  0.41987440948E+02  0.00000000000E+00 0. -1.
<mgrwt>
<rscale>  2 0.20411173E+02</rscale>
<asrwt>0</asrwt>
<pdfrwt beam="1">  1       21 0.85825149E-02 0.20411173E+02</pdfrwt>
<pdfrwt beam="2">  1       21 0.13816090E-02 0.20411173E+02</pdfrwt>
<totfact> 0.15197701E+08</totfact>
</mgrwt>
</event>
<event>
 4    1  0.7595771E+004  0.4312909E+02  0.7546771E-02  0.1486371E+00
         21   -1    0    0  501  502  0.00000000000E+00  0.00000000000E+00  0.98348280612E+01  0.98348280612E+01  0.00000000000E+00 0. -1.
         21   -1    0    0  502  503 -0.00000000000E+00 -0.00000000000E+00 -0.22634573434E+03  0.22634573434E+03  0.00000000000E+00 0. -1.
          3    1    1    2  501    0  0.42577249171E+02 -0.68772547010E+01 -0.15613577184E+03  0.16198301772E+03  0.00000000000E+00 0.  1.
         -3    1    1    2    0  503 -0.42577249171E+02  0.68772547010E+01 -0.60375134435E+02  0.74197544685E+02  0.00000000000E+00 0. -1.
<mgrwt>
<rscale>  2 0.43129094E+02</rscale>
<asrwt>0</asrwt>
<pdfrwt beam="1">  1       21 0.15130506E-02 0.43129094E+02</pdfrwt>
<pdfrwt beam="2">  1       21 0.34822418E-01 0.43129094E+02</pdfrwt>
<totfact> 0.13467490E+07</totfact>
</mgrwt>
</event>
<event>
 4    1  0.7595771E+004  0.2033209E+02  0.7546771E-02  0.1738804E+00
         21   -1    0    0  501  502  0.00000000000E+00  0.00000000000E+00  0.72479409578E+01  0.72479409578E+01  0.00000000000E+00 0.  1.
         21   -1    0    0  502  503 -0.00000000000E+00 -0.00000000000E+00 -0.74321205418E+02  0.74321205418E+02  0.00000000000E+00 0.  1.
          2    1    1    2  501    0  0.20169632556E+02  0.25650993768E+01 -0.53205365257E+02  0.56957920471E+02  0.00000000000E+00 0. -1.
         -2    1    1    2    0  503 -0.20169632556E+02 -0.25650993768E+01 -0.13867899204E+02  0.24611225906E+02  0.00000000000E+00 0.  1.
<mgrwt>
<rscale>  2 0.20332088E+02</rscale>
<asrwt>0</asrwt>
<pdfrwt beam="1">  1       21 0.11150678E-02 0.20332088E+02</pdfrwt>
<pdfrwt beam="2">  1       21 0.11434032E-01 0.20332088E+02</pdfrwt>
<totfact> 0.13073447E+08</totfact>
</mgrwt>
</event>
<event>
 4    1  0.7595771E+004  0.3485205E+02  0.7546771E-02  0.1549918E+00
         21   -1    0    0  503  502  0.00000000000E+00  0.00000000000E+00  0.68108052833E+02  0.68108052833E+02  0.00000000000E+00 0. -1.
         21   -1    0    0  501  503 -0.00000000000E+00 -0.00000000000E+00 -0.38052880524E+02  0.38052880524E+02  0.00000000000E+00 0. -1.
          1    1    1    2  501    0 -0.10703041247E+02  0.33167912860E+02  0.53719065460E+02  0.64034393332E+02  0.00000000000E+00 0.  1.
         -1    1    1    2    0  502  0.10703041247E+02 -0.33167912860E+02 -0.23663893151E+02  0.42126540025E+02  0.00000000000E+00 0. -1.
<mgrwt>
<rscale>  2 0.34852052E+02</rscale>
<asrwt>0</asrwt>
<pdfrwt beam="1">  1       21 0.10478162E-01 0.34852052E+02</pdfrwt>
<pdfrwt beam="2">  1       21 0.58542893E-02 0.34852052E+02</pdfrwt>
<totfact> 0.12915855E+07</totfact>
</mgrwt>
</event>
<event>
 4    1  0.7595771E+004  0.2136930E+02  0.7546771E-02  0.1719394E+00
         21   -1    0    0  503  502  0.00000000000E+00  0.00000000000E+00  0.10964220407E+02  0.10964220407E+02  0.00000000000E+00 0.  1.
         21   -1    0    0  501  503 -0.00000000000E+00 -0.00000000000E+00 -0.63581745285E+02  0.63581745285E+02  0.00000000000E+00 0.  1.
          5    1    1    2  501    0 -0.16469507581E+02 -0.13616249515E+02 -0.48200292996E+02  0.52724900908E+02  0.00000000000E+00 0.  1.
         -5    1    1    2    0  502  0.16469507581E+02  0.13616249515E+02 -0.44172318816E+01  0.21821064784E+02  0.00000000000E+00 0. -1.
<mgrwt>
<rscale>  2 0.21369299E+02</rscale>
<asrwt>0</asrwt>
<pdfrwt beam="1">  1       21 0.16868032E-02 0.21369299E+02</pdfrwt>
<pdfrwt beam="2">  1       21 0.97818066E-02 0.21369299E+02</pdfrwt>
<totfact> 0.91891372E+07</totfact>
</mgrwt>
</event>
<event>
 4    1  0.7595771E+004  0.2274568E+02  0.7546771E-02  0.1695666E+00
         21   -1    0    0  501  502  0.00000000000E+00  0.00000000000E+00  0.10611495967E+04  0.10611495967E+04  0.00000000000E+00 0.  1.
         21   -1    0    0  502  503 -0.00000000000E+00 -0.00000000000E+00 -0.49778082347E+00  0.49778082347E+00  0.00000000000E+00 0.  1.
          2    1    1    2  501    0 -0.16777503250E+02  0.15358428472E+02  0.45423418647E+03  0.45480332244E+03  0.00000000000E+00 0.  1.
         -2    1    1    2    0  503  0.16777503250E+02 -0.15358428472E+02  0.60641762942E+03  0.60684405510E+03  0.00000000000E+00 0. -1.
<mgrwt>
<rscale>  2 0.22745680E+02</rscale>
<asrwt>0</asrwt>
<pdfrwt beam="1">  1       21 0.16325197E+00 0.22745680E+02</pdfrwt>
<pdfrwt beam="2">  1       21 0.76582515E-04 0.22745680E+02</pdfrwt>
<totfact> 0.37601857E+07</totfact>
</mgrwt>
</event>
<event>
 4    1  0.7595771E+004  0.2641428E+02  0.7546771E-02  0.1641481E+00
         21   -1    0    0  501  502  0.00000000000E+00  0.00000000000E+00  0.72631260307E+02  0.72631260307E+02  0.00000000000E+00 0.  1.
         21   -1    0    0  502  503 -0.00000000000E+00 -0.00000000000E+00 -0.97563174504E+01  0.97563174504E+01  0.00000000000E+00 0.  1.
          5    1    1    2  501    0 -0.26351871153E+02 -0.18146985352E+01  0.26328563803E+02  0.37294872516E+02  0.00000000000E+00 0. -1.
         -5    1    1    2    0  503  0.26351871153E+02  0.18146985352E+01  0.36546379053E+02  0.45092705241E+02  0.00000000000E+00 0.  1.
<mgrwt>
<rscale>  2 0.26414281E+02</rscale>
<asrwt>0</asrwt>
<pdfrwt beam="1">  1       21 0.11174040E-01 0.26414281E+02</pdfrwt>
<pdfrwt beam="2">  1       21 0.15009720E-02 0.26414281E+02</pdfrwt>
<totfact> 0.93272348E+07</totfact>
</mgrwt>
</event>
<event>
 4    1  0.7595771E+004  0.2666101E+02  0.7546771E-02  0.1638230E+00
         21   -1    0    0  501  502  0.00000000000E+00  0.00000000000E+00  0.69013020435E+03  0.69013020435E+03  0.00000000000E+00 0. -1.
         21   -1    0    0  502  503 -0.00000000000E+00 -0.00000000000E+00 -0.10308825037E+01  0.10308825037E+01  0.00000000000E+00 0. -1.
          1    1    1    2  501    0 -0.13338407908E+02  0.23084542010E+02  0.35486553103E+03  0.35586564082E+03  0.00000000000E+00 0. -1.
         -1    1    1    2    0  503  0.13338407908E+02 -0.23084542010E+02  0.33423379082E+03  0.33529544603E+03  0.00000000000E+00 0.  1.
<mgrwt>
<rscale>  2 0.26661005E+02</rscale>
<asrwt>0</asrwt>
<pdfrwt beam="1">  1       21 0.10617351E+00 0.26661005E+02</pdfrwt>
<pdfrwt beam="2">  1       21 0.15859786E-03 0.26661005E+02</pdfrwt>
<totfact> 0.37079873E+07</totfact>
</mgrwt>
</event>
<event>
 4    1  0.7595771E+004  0.2333243E+02  0.7546771E-02  0.1686178E+00
         21   -1    0    0  503  502  0.00000000000E+00  0.00000000000E+00  0.79458057306E+01  0.79458057306E+01  0.00000000000E+00 0. -1.
         21   -1    0    0  501  503 -0.00000000000E+00 -0.00000000000E+00 -0.68524786542E+02  0.68524786542E+02  0.00000000000E+00 0. -1.
          4    1    1    2  501    0 -0.84216405892E+01 -0.21759551484E+02 -0.29818752488E+02  0.37862383852E+02  0.00000000000E+00 0. -1.
         -4    1    1    2    0  502  0.84216405892E+01  0.21759551484E+02 -0.30760228323E+02  0.38608208421E+02  0.00000000000E+00 0.  1.
<mgrwt>
<rscale>  2 0.23332426E+02</rscale>
<asrwt>0</asrwt>
<pdfrwt beam="1">  1       21 0.12224316E-02 0.23332426E+02</pdfrwt>
<pdfrwt beam="2">  1       21 0.10542275E-01 0.23332426E+02</pdfrwt>
<totfact> 0.13572036E+08</totfact>
</mgrwt>
</event>
<event>
 4    1  0.7595771E+004  0.2486727E+02  0.7546771E-02  0.1662916E+00
         21   -1    0    0  501  502  0.00000000000E+00  0.00000000000E+00  0.49989871004E+01  0.49989871004E+01  0.00000000000E+00 0. -1.
         21   -1    0    0  502  503 -0.00000000000E+00 -0.00000000000E+00 -0.12922313312E+03  0.12922313312E+03  0.00000000000E+00 0. -1.
          5    1    1    2  501    0  0.20507607150E+02  0.14064827970E+02 -0.75984886623E+02  0.79950511768E+02  0.00000000000E+00 0.  1.
         -5    1    1    2    0  503 -0.20507607150E+02 -0.14064827970E+02 -0.48239259392E+02  0.54271608448E+02  0.00000000000E+00 0. -1.
<mgrwt>
<rscale>  2 0.24867274E+02</rscale>
<asrwt>0</asrwt>
<pdfrwt beam="1">  1       21 0.76907489E-03 0.24867274E+02</pdfrwt>
<pdfrwt beam="2">  1       21 0.19880483E-01 0.24867274E+02</pdfrwt>
<totfact> 0.94150910E+07</totfact>
</mgrwt>
</event>
<event>
 4    1  0.7595771E+004  0.2880381E+02  0.7546771E-02  0.1611700E+00
         21   -1    0    0  501  502  0.00000000000E+00  0.00000000000E+00  0.88649297104E+02  0.88649297104E+02  0.00000000000E+00 0.  1.
         21   -1    0    0  502  503 -0.00000000000E+00 -0.00000000000E+00 -0.99645570502E+01  0.99645570502E+01  0.00000000000E+00 0.  1.
          3    1    1    2  501    0  0.27787866562E+02 -0.75824606169E+01  0.27186248458E+02  0.39607465740E+02  0.00000000000E+00 0.  1.
         -3    1    1    2    0  503 -0.27787866562E+02  0.75824606169E+01  0.51498491595E+02  0.59006388414E+02  0.00000000000E+00 0. -1.
<mgrwt>
<rscale>  2 0.28803806E+02</rscale>
<asrwt>0</asrwt>
<pdfrwt beam="1">  1       21 0.13638353E-01 0.28803806E+02</pdfrwt>
<pdfrwt beam="2">  1       21 0.15330088E-02 0.28803806E+02</pdfrwt>
<totfact> 0.65877022E+07</totfact>
</mgrwt>
</event>
<event>
 4    1  0.7595771E+004  0.2379004E+02  0.7546771E-02  0.1679015E+00
         21   -1    0    0  501  502  0.00000000000E+00  0.00000000000E+00  0.49368250627E+01  0.49368250627E+01  0.00000000000E+00 0.  1.
         21   -1    0    0  502  503 -0.00000000000E+00 -0.00000000000E+00 -0.12073338101E+03  0.12073338101E+03  0.00000000000E+00 0.  1.
          2    1    1    2  501    0  0.23761485011E+02 -0.11652260830E+01 -0.72012531712E+02  0.75840428831E+02  0.00000000000E+00 0. -1.
         -2    1    1    2    0  503 -0.23761485011E+02  0.11652260830E+01 -0.43784024239E+02  0.49829777245E+02  0.00000000000E+00 0.  1.
<mgrwt>
<rscale>  2 0.23790038E+02</rscale>
<asrwt>0</asrwt>
<pdfrwt beam="1">  1       21 0.75951157E-03 0.23790038E+02</pdfrwt>
<pdfrwt beam="2">  1       21 0.18574366E-01 0.23790038E+02</pdfrwt>
<totfact> 0.10671751E+08</totfact>
</mgrwt>
</event>
<event>
 4    1  0.7595771E+004  0.2106850E+02  0.7546771E-02  0.1724878E+00
         21   -1    0    0  503  502  0.00000000000E+00  0.00000000000E+00  0.54500255751E+00  0.54500255751E+00  0.00000000000E+00 0.  1.
         21   -1    0    0  501  503 -0.00000000000E+00 -0.00000000000E+00 -0.82901616570E+03  0.82901616570E+03  0.00000000000E+00 0.  1.
          3    1    1    2  501    0  0.20220608519E+02 -0.59168195114E+01 -0.35927031239E+03  0.35988753677E+03  0.00000000000E+00 0.  1.
         -3    1    1    2    0  502 -0.20220608519E+02  0.59168195114E+01 -0.46920085076E+03  0.46967363148E+03  0.00000000000E+00 0. -1.
<mgrwt>
<rscale>  2 0.21068502E+02</rscale>
<asrwt>0</asrwt>
<pdfrwt beam="1">  1       21 0.83846627E-04 0.21068502E+02</pdfrwt>
<pdfrwt beam="2">  1       21 0.12754083E+00 0.21068502E+02</pdfrwt>
<totfact> 0.58089955E+07</totfact>
</mgrwt>
</event>
<event>
 4    1  0.7595771E+004  0.2792184E+02  0.7546771E-02  0.1622265E+00
         21   -1    0    0  503  502  0.00000000000E+00  0.00000000000E+00  0.81174826897E+01  0.81174826897E+01  0.00000000000E+00 0.  1.
         21   -1    0    0  501  503 -0.00000000000E+00 -0.00000000000E+00 -0.11049342561E+03  0.11049342561E+03  0.00000000000E+00 0.  1.
          4    1    1    2  501    0 -0.22212203963E+02 -0.16918847103E+02 -0.72634797530E+02  0.77816728307E+02  0.00000000000E+00 0. -1.
         -4    1    1    2    0  502  0.22212203963E+02  0.16918847103E+02 -0.29741145392E+02  0.40794179994E+02  0.00000000000E+00 0.  1.
<mgrwt>
<rscale>  2 0.27921844E+02</rscale>
<asrwt>0</asrwt>
<pdfrwt beam="1">  1       21 0.12488436E-02 0.27921844E+02</pdfrwt>
<pdfrwt beam="2">  1       21 0.16998987E-01 0.27921844E+02</pdfrwt>
<totfact> 0.61239900E+07</totfact>
</mgrwt>
</event>
<event>
 4    1  0.7595771E+004  0.2566104E+02  0.7546771E-02  0.1651685E+00
         21   -1    0    0  503  502  0.00000000000E+00  0.00000000000E+00  0.53331856580E+01  0.53331856580E+01  0.00000000000E+00 0.  1.
         21   -1    0    0  501  503 -0.00000000000E+00 -0.00000000000E+00 -0.14378093273E+03  0.14378093273E+03  0.00000000000E+00 0.  1.
          3    1    1    2  501    0  0.19747059082E+02 -0.16387275273E+02 -0.97246036322E+02  0.10057475187E+03  0.00000000000E+00 0.  1.
         -3    1    1    2    0  502 -0.19747059082E+02  0.16387275273E+02 -0.41201710746E+02  0.48539366515E+02  0.00000000000E+00 0. -1.
<mgrwt>
<rscale>  2 0.25661043E+02</rscale>
<asrwt>0</asrwt>
<pdfrwt beam="1">  1       21 0.82049020E-03 0.25661043E+02</pdfrwt>
<pdfrwt beam="2">  1       21 0.22120141E-01 0.25661043E+02</pdfrwt>
<totfact> 0.71376227E+07</totfact>
</mgrwt>
</event>
<event>
 4    1  0.7595771E+004  0.2129137E+02  0.7546771E-02  0.1720804E+00
         21   -1    0    0  503  502  0.00000000000E+00  0.00000000000E+00  0.12016070985E+02  0.12016070985E+02  0.00000000000E+00 0.  1.
         21   -1    0    0  501  503 -0.00000000000E+00 -0.00000000000E+00 -0.38050182567E+02  0.38050182567E+02  0.00000000000E+00 0.  1.
          2    1    1    2  501    0 -0.18818442421E+02  0.99593488084E+01 -0.10707638928E+02  0.23832245703E+02  0.00000000000E+00 0.  1.
         -2    1    1    2    0  502  0.18818442421E+02 -0.99593488084E+01 -0.15326472654E+02  0.26234007850E+02  0.00000000000E+00 0. -1.
<mgrwt>
<rscale>  2 0.21291369E+02</rscale>
<asrwt>0</asrwt>
<pdfrwt beam="1">  1       21 0.18486263E-02 0.21291369E+02</pdfrwt>
<pdfrwt beam="2">  1       21 0.58538742E-02 0.21291369E+02</pdfrwt>
<totfact> 0.18358319E+08</totfact>
</mgrwt>
</event>
<event>
 4    1  0.7595771E+004  0.2304957E+02  0.7546771E-02  0.1690708E+00
         21   -1    0    0  503  502  0.00000000000E+00  0.00000000000E+00  0.17258695682E+03  0.17258695682E+03  0.00000000000E+00 0.  1.
         21   -1    0    0  501  503 -0.00000000000E+00 -0.00000000000E+00 -0.53619415634E+01  0.53619415634E+01  0.00000000000E+00 0.  1.
          1    1    1    2  501    0 -0.21600523951E+02 -0.80436430960E+01  0.14167739810E+03  0.14354012666E+03  0.00000000000E+00 0. -1.
         -1    1    1    2    0  502  0.21600523951E+02  0.80436430960E+01  0.25547617161E+02  0.34408771727E+02  0.00000000000E+00 0.  1.
<mgrwt>
<rscale>  2 0.23049573E+02</rscale>
<asrwt>0</asrwt>
<pdfrwt beam="1">  1       21 0.26551835E-01 0.23049573E+02</pdfrwt>
<pdfrwt beam="2">  1       21 0.82491422E-03 0.23049573E+02</pdfrwt>
<totfact> 0.49810487E+07</totfact>
</mgrwt>
</event>
<event>
 4    1  0.7595771E+004  0.2059964E+02  0.7546771E-02  0.1733660E+00
         21   -1    0    0  501  502  0.00000000000E+00  0.00000000000E+00  0.30532852514E+02  0.30532852514E+02  0.00000000000E+00 0.  1.
         21   -1    0    0  502  503 -0.00000000000E+00 -0.00000000000E+00 -0.17072528345E+02  0.17072528345E+02  0.00000000000E+00 0.  1.
          3    1    1    2  501    0 -0.80408902156E+01  0.18965475642E+02 -0.35338613124E+01  0.20900558786E+02  0.00000000000E+00 0. -1.
         -3    1    1    2    0  503  0.80408902156E+01 -0.18965475642E+02  0.16994185481E+02  0.26704822073E+02  0.00000000000E+00 0.  1.
<mgrwt>
<rscale>  2 0.20599640E+02</rscale>
<asrwt>0</asrwt>
<pdfrwt beam="1">  1       21 0.46973619E-02 0.20599640E+02</pdfrwt>
<pdfrwt beam="2">  1       21 0.26265428E-02 0.20599640E+02</pdfrwt>
<totfact> 0.15040800E+08</totfact>
</mgrwt>
</event>
<event>
 4    1  0.7595771E+004  0.2461606E+02  0.7546771E-02  0.1666579E+00
         21   -1    0    0  501  502  0.00000000000E+00  0.00000000000E+00  0.72860474621E+02  0.72860474621E+02  0.00000000000E+00 0.  1.
         21   -1    0    0  502  503 -0.00000000000E+00 -0.00000000000E+00 -0.84791373519E+01  0.84791373519E+01  0.00000000000E+00 0.  1.
          1    1    1    2  501    0 -0.24358541152E+02  0.35512924965E+01  0.26559543431E+02  0.36212698777E+02  0.00000000000E+00 0.  1.
         -1    1    1    2    0  503  0.24358541152E+02 -0.35512924965E+01  0.37821793838E+02  0.45126913196E+02  0.00000000000E+00 0. -1.
<mgrwt>
<rscale>  2 0.24616056E+02</rscale>
<asrwt>0</asrwt>
<pdfrwt beam="1">  1       21 0.11209303E-01 0.24616056E+02</pdfrwt>
<pdfrwt beam="2">  1       21 0.13044827E-02 0.24616056E+02</pdfrwt>
<totfact> 0.11277232E+08</totfact>
</mgrwt>
</event>
<event>
 4    1  0.7595771E+004  0.3270556E+02  0.7546771E-02  0.1569974E+00
         21   -1    0    0  503  502  0.00000000000E+00  0.00000000000E+00  0.20529964321E+03  0.20529964321E+03  0.00000000000E+00 0.  1.
         21   -1    0    0  501  503 -0.00000000000E+00 -0.00000000000E+00 -0.52230052982E+01  0.52230052982E+01  0.00000000000E+00 0.  1.
          3    1    1    2  501    0 -0.18447546882E+02 -0.27006322294E+02  0.94827548684E+02  0.10030910935E+03  0.00000000000E+00 0. -1.
         -3    1    1    2    0  502  0.18447546882E+02  0.27006322294E+02  0.10524908923E+03  0.11021353915E+03  0.00000000000E+00 0.  1.
<mgrwt>
<rscale>  2 0.32705557E+02</rscale>
<asrwt>0</asrwt>
<pdfrwt beam="1">  1       21 0.31584554E-01 0.32705557E+02</pdfrwt>
<pdfrwt beam="2">  1       21 0.80353944E-03 0.32705557E+02</pdfrwt>
<totfact> 0.40737592E+07</totfact>
</mgrwt>
</event>
<event>
 4    1  0.7595771E+004  0.2655789E+02  0.7546771E-02  0.1639584E+00
         21   -1    0    0  501  502  0.00000000000E+00  0.00000000000E+00  0.92254468028E+01  0.92254468028E+01  0.00000000000E+00 0.  1.
         21   -1    0    0  502  503 -0.00000000000E+00 -0.00000000000E+00 -0.80829207823E+02  0.80829207823E+02  0.00000000000E+00 0.  1.
          4    1    1    2  501    0  0.24953157327E+02 -0.90918418244E+01 -0.25325894484E+02  0.36697718999E+02  0.00000000000E+00 0.  1.
         -4    1    1    2    0  503 -0.24953157327E+02  0.90918418244E+01 -0.46277866536E+02  0.53356935626E+02  0.00000000000E+00 0. -1.
<mgrwt>
<rscale>  2 0.26557892E+02</rscale>
<asrwt>0</asrwt>
<pdfrwt beam="1">  1       21 0.14192996E-02 0.26557892E+02</pdfrwt>
<pdfrwt beam="2">  1       21 0.12435262E-01 0.26557892E+02</pdfrwt>
<totfact> 0.84981169E+07</totfact>
</mgrwt>
</event>
<event>
 4    1  0.7595771E+004  0.3125641E+02  0.7546771E-02  0.1584602E+00
         21   -1    0    0  503  502  0.00000000000E+00  0.00000000000E+00  0.33710598387E+03  0.33710598387E+03  0.00000000000E+00 0. -1.
         21   -1    0    0  501  503 -0.00000000000E+00 -0.00000000000E+00 -0.29054628608E+01  0.29054628608E+01  0.00000000000E+00 0. -1.
          2    1    1    2  501    0  0.53484355538E+01 -0.30795416006E+02  0.15853619278E+03  0.16158801883E+03  0.00000000000E+00 0.  1.
         -2    1    1    2    0  502 -0.53484355538E+01  0.30795416006E+02  0.17566432823E+03  0.17842342790E+03  0.00000000000E+00 0. -1.
<mgrwt>
<rscale>  2 0.31256414E+02</rscale>
<asrwt>0</asrwt>
<pdfrwt beam="1">  1       21 0.51862428E-01 0.31256414E+02</pdfrwt>
<pdfrwt beam="2">  1       21 0.44699455E-03 0.31256414E+02</pdfrwt>
<totfact> 0.37614866E+07</totfact>
</mgrwt>
</event>
<event>
 4    1  0.7595771E+004  0.2277726E+02  0.7546771E-02  0.1695146E+00
         21   -1    0    0  503  502  0.00000000000E+00  0.00000000000E+00  0.32782556745E+01  0.32782556745E+01  0.00000000000E+00 0. -1.
         21   -1    0    0  501  503 -0.00000000000E+00 -0.00000000000E+00 -0.15845185080E+03  0.15845185080E+03  0.00000000000E+00 0. -1.
          2    1    1    2  501    0 -0.32523452753E+01  0.22543862425E+02 -0.74743484546E+02  0.78137007653E+02  0.00000000000E+00 0. -1.
         -2    1    1    2    0  502  0.32523452753E+01 -0.22543862425E+02 -0.80430110579E+02  0.83593098822E+02  0.00000000000E+00 0.  1.
<mgrwt>
<rscale>  2 0.22777258E+02</rscale>
<asrwt>0</asrwt>
<pdfrwt beam="1">  1       21 0.50434709E-03 0.22777258E+02</pdfrwt>
<pdfrwt beam="2">  1       21 0.24377205E-01 0.22777258E+02</pdfrwt>
<totfact> 0.12005599E+08</totfact>
</mgrwt>
</event>
<event>
 4    1  0.7595771E+004  0.2523057E+02  0.7546771E-02  0.1657712E+00
         21   -1    0    0  503  502  0.00000000000E+00  0.00000000000E+00  0.11056119346E+03  0.11056119346E+03  0.00000000000E+00 0. -1.
         21   -1    0    0  501  503 -0.00000000000E+00 -0.00000000000E+00 -0.61091326174E+01  0.61091326174E+01  0.00000000000E+00 0. -1.
          2    1    1    2  501    0 -0.12564994882E+01  0.25199262305E+02  0.38235231541E+02  0.45809546414E+02  0.00000000000E+00 0. -1.
         -2    1    1    2    0  502  0.12564994882E+01 -0.25199262305E+02  0.66216829301E+02  0.70860779663E+02  0.00000000000E+00 0.  1.
<mgrwt>
<rscale>  2 0.25230569E+02</rscale>
<asrwt>0</asrwt>
<pdfrwt beam="1">  1       21 0.17009413E-01 0.25230569E+02</pdfrwt>
<pdfrwt beam="2">  1       21 0.93986664E-03 0.25230569E+02</pdfrwt>
<totfact> 0.91736693E+07</totfact>
</mgrwt>
</event>
<event>
 4    1  0.7595771E+004  0.2070486E+02  0.7546771E-02  0.1731664E+00
         21   -1    0    0  501  502  0.00000000000E+00  0.00000000000E+00  0.22335749722E+02  0.22335749722E+02  0.00000000000E+00 0. -1.
         21   -1    0    0  502  503 -0.00000000000E+00 -0.00000000000E+00 -0.19542060554E+02  0.19542060554E+02  0.00000000000E+00 0. -1.
          3    1    1    2  501    0  0.88131257279E+01  0.18735524787E+02 -0.14014310951E+01  0.20752230802E+02  0.00000000000E+00 0.  1.
         -3    1    1    2    0  503 -0.88131257279E+01 -0.18735524787E+02  0.41951202631E+01  0.21125579475E+02  0.00000000000E+00 0. -1.
<mgrwt>
<rscale>  2 0.20704856E+02</rscale>
<asrwt>0</asrwt>
<pdfrwt beam="1">  1       21 0.34362692E-02 0.20704856E+02</pdfrwt>
<pdfrwt beam="2">  1       21 0.30064709E-02 0.20704856E+02</pdfrwt>
<totfact> 0.19966543E+08</totfact>
</mgrwt>
</event>
<event>
 4    1  0.7595771E+004  0.2065631E+02  0.7546771E-02  0.1732583E+00
         21   -1    0    0  503  502  0.00000000000E+00  0.00000000000E+00  0.17466765066E+01  0.17466765066E+01  0.00000000000E+00 0. -1.
         21   -1    0    0  501  503 -0.00000000000E+00 -0.00000000000E+00 -0.25361929890E+03  0.25361929890E+03  0.00000000000E+00 0. -1.
          4    1    1    2  501    0  0.19104129331E+02 -0.78559256082E+01 -0.10143834907E+03  0.10352015256E+03  0.00000000000E+00 0. -1.
         -4    1    1    2    0  502 -0.19104129331E+02  0.78559256082E+01 -0.15043427333E+03  0.15184582285E+03  0.00000000000E+00 0.  1.
<mgrwt>
<rscale>  2 0.20656314E+02</rscale>
<asrwt>0</asrwt>
<pdfrwt beam="1">  1       21 0.26871966E-03 0.20656314E+02</pdfrwt>
<pdfrwt beam="2">  1       21 0.39018324E-01 0.20656314E+02</pdfrwt>
<totfact> 0.12445267E+08</totfact>
</mgrwt>
</event>
<event>
 4    1  0.7595771E+004  0.2783367E+02  0.7546771E-02  0.1623348E+00
         21   -1    0    0  503  502  0.00000000000E+00  0.00000000000E+00  0.74377783504E+02  0.74377783504E+02  0.00000000000E+00 0.  1.
         21   -1    0    0  501  503 -0.00000000000E+00 -0.00000000000E+00 -0.10502739591E+02  0.10502739591E+02  0.00000000000E+00 0.  1.
          1    1    1    2  501    0 -0.11189703573E+02 -0.25485361292E+02  0.28078888862E+02  0.39536528755E+02  0.00000000000E+00 0. -1.
         -1    1    1    2    0  502  0.11189703573E+02  0.25485361292E+02  0.35796155052E+02  0.45343994340E+02  0.00000000000E+00 0.  1.
<mgrwt>
<rscale>  2 0.27833669E+02</rscale>
<asrwt>0</asrwt>
<pdfrwt beam="1">  1       21 0.11442736E-01 0.27833669E+02</pdfrwt>
<pdfrwt beam="2">  1       21 0.16158061E-02 0.27833669E+02</pdfrwt>
<totfact> 0.81128277E+07</totfact>
</mgrwt>
</event>
<event>
 4    1  0.7595771E+004  0.3401834E+02  0.7546771E-02  0.1557495E+00
         21   -1    0    0  503  502  0.00000000000E+00  0.00000000000E+00  0.18852889087E+03  0.18852889087E+03  0.00000000000E+00 0.  1.
         21   -1    0    0  501  503 -0.00000000000E+00 -0.00000000000E+00 -0.61815866530E+01  0.61815866530E+01  0.00000000000E+00 0.  1.
          4    1    1    2  501    0  0.33791900391E+02  0.39185114123E+01  0.99320252717E+02  0.10498456965E+03  0.00000000000E+00 0. -1.
         -4    1    1    2    0  502 -0.33791900391E+02 -0.39185114123E+01  0.83027051495E+02  0.89725907873E+02  0.00000000000E+00 0.  1.
<mgrwt>
<rscale>  2 0.34018337E+02</rscale>
<asrwt>0</asrwt>
<pdfrwt beam="1">  1       21 0.29004440E-01 0.34018337E+02</pdfrwt>
<pdfrwt beam="2">  1       21 0.95101348E-03 0.34018337E+02</pdfrwt>
<totfact> 0.37226373E+07</totfact>
</mgrwt>
</event>
<event>
 4    1  0.7595771E+004  0.2513764E+02  0.7546771E-02  0.1659033E+00
         21   -1    0    0  501  502  0.00000000000E+00  0.00000000000E+00  0.14633751368E+01  0.14633751368E+01  0.00000000000E+00 0. -1.
         21   -1    0    0  502  503 -0.00000000000E+00 -0.00000000000E+00 -0.43830080687E+03  0.43830080687E+03  0.00000000000E+00 0. -1.
          5    1    1    2  501    0  0.50107149727E+01 -0.24633186919E+02 -0.24517506785E+03  0.24646037218E+03  0.00000000000E+00 0. -1.
         -5    1    1    2    0  503 -0.50107149727E+01  0.24633186919E+02 -0.19166236389E+03  0.19330380983E+03  0.00000000000E+00 0.  1.
<mgrwt>
<rscale>  2 0.25137644E+02</rscale>
<asrwt>0</asrwt>
<pdfrwt beam="1">  1       21 0.22513401E-03 0.25137644E+02</pdfrwt>
<pdfrwt beam="2">  1       21 0.67431080E-01 0.25137644E+02</pdfrwt>
<totfact> 0.58089498E+07</totfact>
</mgrwt>
</event>
<event>
 4    1  0.7595771E+004  0.3170758E+02  0.7546771E-02  0.1579946E+00
         21   -1    0    0  503  502  0.00000000000E+00  0.00000000000E+00  0.22624559882E+02  0.22624559882E+02  0.00000000000E+00 0.  1.
         21   -1    0    0  501  503 -0.00000000000E+00 -0.00000000000E+00 -0.47016232705E+02  0.47016232705E+02  0.00000000000E+00 0.  1.
          2    1    1    2  501    0  0.20822716790E+02 -0.23912030258E+02 -0.40404732116E+01  0.31963982064E+02  0.00000000000E+00 0.  1.
         -2    1    1    2    0  502 -0.20822716790E+02  0.23912030258E+02 -0.20351199612E+02  0.37676810524E+02  0.00000000000E+00 0. -1.
<mgrwt>
<rscale>  2 0.31707582E+02</rscale>
<asrwt>0</asrwt>
<pdfrwt beam="1">  1       21 0.34807015E-02 0.31707582E+02</pdfrwt>
<pdfrwt beam="2">  1       21 0.72332666E-02 0.31707582E+02</pdfrwt>
<totfact> 0.54186932E+07</totfact>
</mgrwt>
</event>
<event>
 4    1  0.7595771E+004  0.2114619E+02  0.7546771E-02  0.1723451E+00
         21   -1    0    0  501  502  0.00000000000E+00  0.00000000000E+00  0.91746109212E+00  0.91746109212E+00  0.00000000000E+00 0. -1.
         21   -1    0    0  502  503 -0.00000000000E+00 -0.00000000000E+00 -0.62791477592E+03  0.62791477592E+03  0.00000000000E+00 0. -1.
          5    1    1    2  501    0 -0.39574815856E+01  0.20772572020E+02 -0.16475761464E+03  0.16610909966E+03  0.00000000000E+00 0.  1.
         -5    1    1    2    0  503  0.39574815856E+01 -0.20772572020E+02 -0.46223970019E+03  0.46272313735E+03  0.00000000000E+00 0. -1.
<mgrwt>
<rscale>  2 0.21146191E+02</rscale>
<asrwt>0</asrwt>
<pdfrwt beam="1">  1       21 0.14114754E-03 0.21146191E+02</pdfrwt>
<pdfrwt beam="2">  1       21 0.96602490E-01 0.21146191E+02</pdfrwt>
<totfact> 0.51403277E+07</totfact>
</mgrwt>
</event>
<event>
 4    1  0.7595771E+004  0.2173312E+02  0.7546771E-02  0.1712909E+00
         21   -1    0    0  503  502  0.00000000000E+00  0.00000000000E+00  0.11712095232E+02  0.11712095232E+02  0.00000000000E+00 0.  1.
         21   -1    0    0  501  503 -0.00000000000E+00 -0.00000000000E+00 -0.42167759904E+02  0.42167759904E+02  0.00000000000E+00 0.  1.
          4    1    1    2  501    0  0.13860390521E+02 -0.16739717880E+02 -0.96011234492E+01  0.23759422375E+02  0.00000000000E+00 0.  1.
         -4    1    1    2    0  502 -0.13860390521E+02  0.16739717880E+02 -0.20854541222E+02  0.30120432761E+02  0.00000000000E+00 0. -1.
<mgrwt>
<rscale>  2 0.21733122E+02</rscale>
<asrwt>0</asrwt>
<pdfrwt beam="1">  1       21 0.18018608E-02 0.21733122E+02</pdfrwt>
<pdfrwt beam="2">  1       21 0.64873476E-02 0.21733122E+02</pdfrwt>
<totfact> 0.16293645E+08</totfact>
</mgrwt>
</event>
<event>
 4    1  0.7595771E+004  0.2085917E+02  0.7546771E-02  0.1728763E+00
         21   -1    0    0  501  502  0.00000000000E+00  0.00000000000E+00  0.10699920357E+03  0.10699920357E+03  0.00000000000E+00 0. -1.
         21   -1    0    0  502  503 -0.00000000000E+00 -0.00000000000E+00 -0.40666038495E+01  0.40666038495E+01  0.00000000000E+00 0. -1.
          2    1    1    2  501    0  0.20739802655E+02  0.22283363383E+01  0.51828167195E+02  0.55868271960E+02  0.00000000000E+00 0. -1.
         -2    1    1    2    0  503 -0.20739802655E+02 -0.22283363383E+01  0.51104432525E+02  0.55197535459E+02  0.00000000000E+00 0.  1.
<mgrwt>
<rscale>  2 0.20859168E+02</rscale>
<asrwt>0</asrwt>
<pdfrwt beam="1">  1       21 0.16461414E-01 0.20859168E+02</pdfrwt>
<pdfrwt beam="2">  1       21 0.62563144E-03 0.20859168E+02</pdfrwt>
<totfact> 0.16865353E+08</totfact>
</mgrwt>
</event>
<event>
 4    1  0.7595771E+004  0.2691216E+02  0.7546771E-02  0.1634964E+00
         21   -1    0    0  503  502  0.00000000000E+00  0.00000000000E+00  0.66441875976E+03  0.66441875976E+03  0.00000000000E+00 0.  1.
         21   -1    0    0  501  503 -0.00000000000E+00 -0.00000000000E+00 -0.13422255413E+01  0.13422255413E+01  0.00000000000E+00 0.  1.
          5    1    1    2  501    0  0.10096916584E+02  0.24946279764E+02  0.18725773767E+03  0.18918172458E+03  0.00000000000E+00 0. -1.
         -5    1    1    2    0  502 -0.10096916584E+02 -0.24946279764E+02  0.47581879655E+03  0.47657926072E+03  0.00000000000E+00 0.  1.
<mgrwt>
<rscale>  2 0.26912165E+02</rscale>
<asrwt>0</asrwt>
<pdfrwt beam="1">  1       21 0.10221801E+00 0.26912165E+02</pdfrwt>
<pdfrwt beam="2">  1       21 0.20649677E-03 0.26912165E+02</pdfrwt>
<totfact> 0.27581343E+07</totfact>
</mgrwt>
</event>
<event>
 4    1  0.7595771E+004  0.2170040E+02  0.7546771E-02  0.1713485E+00
         21   -1    0    0  503  502  0.00000000000E+00  0.00000000000E+00  0.18434117006E+02  0.18434117006E+02  0.00000000000E+00 0.  1.
         21   -1    0    0  501  503 -0.00000000000E+00 -0.00000000000E+00 -0.28593447254E+02  0.28593447254E+02  0.00000000000E+00 0.  1.
          1    1    1    2  501    0  0.10780841483E+02 -0.18832975312E+02  0.25974441614E+01  0.21855301837E+02  0.00000000000E+00 0. -1.
         -1    1    1    2    0  502 -0.10780841483E+02  0.18832975312E+02 -0.12756774410E+02  0.25172262424E+02  0.00000000000E+00 0.  1.
<mgrwt>
<rscale>  2 0.21700403E+02</rscale>
<asrwt>0</asrwt>
<pdfrwt beam="1">  1       21 0.28360180E-02 0.21700403E+02</pdfrwt>
<pdfrwt beam="2">  1       21 0.43989919E-02 0.21700403E+02</pdfrwt>
<totfact> 0.15057685E+08</totfact>
</mgrwt>
</event>
<event>
 4    1  0.7595771E+004  0.2543510E+02  0.7546771E-02  0.1654830E+00
         21   -1    0    0  501  502  0.00000000000E+00  0.00000000000E+00  0.34747858848E+03  0.34747858848E+03  0.00000000000E+00 0.  1.
         21   -1    0    0  502  503 -0.00000000000E+00 -0.00000000000E+00 -0.21270880073E+01  0.21270880073E+01  0.00000000000E+00 0.  1.
          4    1    1    2  501    0 -0.15424717248E+02  0.20224298503E+02  0.11094600316E+03  0.11382424948E+03  0.00000000000E+00 0. -1.
         -4    1    1    2    0  503  0.15424717248E+02 -0.20224298503E+02  0.23440549731E+03  0.23578142701E+03  0.00000000000E+00 0.  1.
<mgrwt>
<rscale>  2 0.25435097E+02</rscale>
<asrwt>0</asrwt>
<pdfrwt beam="1">  1       21 0.53458199E-01 0.25435097E+02</pdfrwt>
<pdfrwt beam="2">  1       21 0.32724458E-03 0.25435097E+02</pdfrwt>
<totfact> 0.53805488E+07</totfact>
</mgrwt>
</event>
<event>
 4    1  0.7595771E+004  0.2688006E+02  0.7546771E-02  0.1635379E+00
         21   -1    0    0  501  502  0.00000000000E+00  0.00000000000E+00  0.15910142497E+03  0.15910142497E+03  0.00000000000E+00 0. -1.
         21   -1    0    0  502  503 -0.00000000000E+00 -0.00000000000E+00 -0.48915125940E+01  0.48915125940E+01  0.00000000000E+00 0. -1.
          4    1    1    2  501    0  0.25099570692E+02 -0.96202415181E+01  0.55166821018E+02  0.61367056610E+02  0.00000000000E+00 0.  1.
         -4    1    1    2    0  503 -0.25099570692E+02  0.96202415181E+01  0.99043091358E+02  0.10262588095E+03  0.00000000000E+00 0. -1.
<mgrwt>
<rscale>  2 0.26880058E+02</rscale>
<asrwt>0</asrwt>
<pdfrwt beam="1">  1       21 0.24477138E-01 0.26880058E+02</pdfrwt>
<pdfrwt beam="2">  1       21 0.75254052E-03 0.26880058E+02</pdfrwt>
<totfact> 0.68607883E+07</totfact>
</mgrwt>
</event>
<event>
 4    1  0.7595771E+004  0.2191549E+02  0.7546771E-02  0.1709718E+00
         21   -1    0    0  501  502  0.00000000000E+00  0.00000000000E+00  0.31237617970E+03  0.31237617970E+03  0.00000000000E+00 0. -1.
         21   -1    0    0  502  503 -0.00000000000E+00 -0.00000000000E+00 -0.15667192488E+01  0.15667192488E+01  0.00000000000E+00 0. -1.
          4    1    1    2  501    0  0.20841329753E+02 -0.67769850145E+01  0.17682956025E+03  0.17818244001E+03  0.00000000000E+00 0. -1.
         -4    1    1    2    0  503 -0.20841329753E+02  0.67769850145E+01  0.13397990021E+03  0.13576045894E+03  0.00000000000E+00 0.  1.
<mgrwt>
<rscale>  2 0.21915487E+02</rscale>
<asrwt>0</asrwt>
<pdfrwt beam="1">  1       21 0.48057824E-01 0.21915487E+02</pdfrwt>
<pdfrwt beam="2">  1       21 0.24103398E-03 0.21915487E+02</pdfrwt>
<totfact> 0.99678148E+07</totfact>
</mgrwt>
</event>
<event>
 4    1  0.7595771E+004  0.2710813E+02  0.7546771E-02  0.1632447E+00
         21   -1    0    0  503  502  0.00000000000E+00  0.00000000000E+00  0.30813519042E+03  0.30813519042E+03  0.00000000000E+00 0. -1.
         21   -1    0    0  501  503 -0.00000000000E+00 -0.00000000000E+00 -0.25618907184E+01  0.25618907184E+01  0.00000000000E+00 0. -1.
          1    1    1    2  501    0 -0.22371032451E+02  0.15309729854E+02  0.19362653442E+03  0.19551492463E+03  0.00000000000E+00 0.  1.
         -1    1    1    2    0  502  0.22371032451E+02 -0.15309729854E+02  0.11194676528E+03  0.11518215651E+03  0.00000000000E+00 0. -1.
<mgrwt>
<rscale>  2 0.27108134E+02</rscale>
<asrwt>0</asrwt>
<pdfrwt beam="1">  1       21 0.47405385E-01 0.27108134E+02</pdfrwt>
<pdfrwt beam="2">  1       21 0.39413728E-03 0.27108134E+02</pdfrwt>
<totfact> 0.52513214E+07</totfact>
</mgrwt>
</event>
<event>
 4    1  0.7595771E+004  0.2138734E+02  0.7546771E-02  0.1719068E+00
         21   -1    0    0  503  502  0.00000000000E+00  0.00000000000E+00  0.21285334431E+01  0.21285334431E+01  0.00000000000E+00 0.  1.
         21   -1    0    0  501  503 -0.00000000000E+00 -0.00000000000E+00 -0.32750860243E+03  0.32750860243E+03  0.00000000000E+00 0.  1.
          5    1    1    2  501    0  0.20847821148E+02 -0.47735587060E+01 -0.25933596667E+03  0.26021637558E+03  0.00000000000E+00 0. -1.
         -5    1    1    2    0  502 -0.20847821148E+02  0.47735587060E+01 -0.66044102319E+02  0.69420760299E+02  0.00000000000E+00 0.  1.
<mgrwt>
<rscale>  2 0.21387345E+02</rscale>
<asrwt>0</asrwt>
<pdfrwt beam="1">  1       21 0.32746683E-03 0.21387345E+02</pdfrwt>
<pdfrwt beam="2">  1       21 0.50385916E-01 0.21387345E+02</pdfrwt>
<totfact> 0.57931345E+07</totfact>
</mgrwt>
</event>
<event>
 4    1  0.7595771E+004  0.2331998E+02  0.7546771E-02  0.1686375E+00
         21   -1    0    0  503  502  0.00000000000E+00  0.00000000000E+00  0.20921887401E+04  0.20921887401E+04  0.00000000000E+00 0. -1.
         21   -1    0    0  501  503 -0.00000000000E+00 -0.00000000000E+00 -0.26341304116E+00  0.26341304116E+00  0.00000000000E+00 0. -1.
          4    1    1    2  501    0 -0.17731932138E+02  0.15145957075E+02  0.92564717164E+03  0.92594087706E+03  0.00000000000E+00 0.  1.
         -4    1    1    2    0  502  0.17731932138E+02 -0.15145957075E+02  0.11662781555E+04  0.11665112761E+04  0.00000000000E+00 0. -1.
<mgrwt>
<rscale>  2 0.23319979E+02</rscale>
<asrwt>0</asrwt>
<pdfrwt beam="1">  1       21 0.32186188E+00 0.23319979E+02</pdfrwt>
<pdfrwt beam="2">  1       21 0.40526759E-04 0.23319979E+02</pdfrwt>
<totfact> 0.13659017E+07</totfact>
</mgrwt>
</event>
<event>
 4    1  0.7595771E+004  0.2500767E+02  0.7546771E-02  0.1660892E+00
         21   -1    0    0  501  502  0.00000000000E+00  0.00000000000E+00  0.23409216802E+02  0.23409216802E+02  0.00000000000E+00 0. -1.
         21   -1    0    0  502  503 -0.00000000000E+00 -0.00000000000E+00 -0.28664773495E+02  0.28664773495E+02  0.00000000000E+00 0. -1.
          2    1    1    2  501    0  0.14751422305E+02  0.20193542142E+02  0.41623556238E+01  0.25351702283E+02  0.00000000000E+00 0.  1.
         -2    1    1    2    0  503 -0.14751422305E+02 -0.20193542142E+02 -0.94179123167E+01  0.26722288014E+02  0.00000000000E+00 0. -1.
<mgrwt>
<rscale>  2 0.25007671E+02</rscale>
<asrwt>0</asrwt>
<pdfrwt beam="1">  1       21 0.36014180E-02 0.25007671E+02</pdfrwt>
<pdfrwt beam="2">  1       21 0.44099651E-02 0.25007671E+02</pdfrwt>
<totfact> 0.10767372E+08</totfact>
</mgrwt>
</event>
<event>
 4    1  0.7595771E+004  0.4816754E+02  0.7546771E-02  0.1455484E+00
         21   -1    0    0  503  502  0.00000000000E+00  0.00000000000E+00  0.75064657918E+01  0.75064657918E+01  0.00000000000E+00 0.  1.
         21   -1    0    0  501  503 -0.00000000000E+00 -0.00000000000E+00 -0.41077715068E+03  0.41077715068E+03  0.00000000000E+00 0.  1.
          1    1    1    2  501    0 -0.48019306171E+02 -0.37760245993E+01 -0.97574288355E+02  0.10881568763E+03  0.00000000000E+00 0.  1.
         -1    1    1    2    0  502  0.48019306171E+02  0.37760245993E+01 -0.30569639653E+03  0.30946792884E+03  0.00000000000E+00 0. -1.
<mgrwt>
<rscale>  2 0.48167542E+02</rscale>
<asrwt>0</asrwt>
<pdfrwt beam="1">  1       21 0.11548409E-02 0.48167542E+02</pdfrwt>
<pdfrwt beam="2">  1       21 0.63196485E-01 0.48167542E+02</pdfrwt>
<totfact> 0.63615577E+06</totfact>
</mgrwt>
</event>
<event>
 4    1  0.7595771E+004  0.2651752E+02  0.7546771E-02  0.1640116E+00
         21   -1    0    0  503  502  0.00000000000E+00  0.00000000000E+00  0.11559355319E+04  0.11559355319E+04  0.00000000000E+00 0.  1.
         21   -1    0    0  501  503 -0.00000000000E+00 -0.00000000000E+00 -0.78313608303E+00  0.78313608303E+00  0.00000000000E+00 0.  1.
          1    1    1    2  501    0  0.24027673815E+02  0.11218269988E+02  0.85083228010E+03  0.85124540971E+03  0.00000000000E+00 0. -1.
         -1    1    1    2    0  502 -0.24027673815E+02 -0.11218269988E+02  0.30432011568E+03  0.30547325823E+03  0.00000000000E+00 0.  1.
<mgrwt>
<rscale>  2 0.26517517E+02</rscale>
<asrwt>0</asrwt>
<pdfrwt beam="1">  1       21 0.17783487E+00 0.26517517E+02</pdfrwt>
<pdfrwt beam="2">  1       21 0.12048340E-03 0.26517517E+02</pdfrwt>
<totfact> 0.16356350E+07</totfact>
</mgrwt>
</event>
<event>
 4    1  0.7595771E+004  0.2265705E+02  0.7546771E-02  0.1697130E+00
         21   -1    0    0  503  502  0.00000000000E+00  0.00000000000E+00  0.22567417807E+03  0.22567417807E+03  0.00000000000E+00 0.  1.
         21   -1    0    0  501  503 -0.00000000000E+00 -0.00000000000E+00 -0.22804404873E+01  0.22804404873E+01  0.00000000000E+00 0.  1.
          1    1    1    2  501    0 -0.16274773704E+02  0.15763045810E+02  0.10598016087E+03  0.10837498037E+03  0.00000000000E+00 0. -1.
         -1    1    1    2    0  502  0.16274773704E+02 -0.15763045810E+02  0.11741357672E+03  0.11957963819E+03  0.00000000000E+00 0.  1.
<mgrwt>
<rscale>  2 0.22657049E+02</rscale>
<asrwt>0</asrwt>
<pdfrwt beam="1">  1       21 0.34719087E-01 0.22657049E+02</pdfrwt>
<pdfrwt beam="2">  1       21 0.35083718E-03 0.22657049E+02</pdfrwt>
<totfact> 0.10760741E+08</totfact>
</mgrwt>
</event>
<event>
 4    1  0.7595771E+004  0.3703383E+02  0.7546771E-02  0.1531247E+00
         21   -1    0    0  501  502  0.00000000000E+00  0.00000000000E+00  0.18763183016E+03  0.18763183016E+03  0.00000000000E+00 0. -1.
         21   -1    0    0  502  503 -0.00000000000E+00 -0.00000000000E+00 -0.80399110254E+01  0.80399110254E+01  0.00000000000E+00 0. -1.
          2    1    1    2  501    0 -0.36596836072E+02  0.56724173001E+01  0.11928363379E+03  0.12490032033E+03  0.00000000000E+00 0.  1.
         -2    1    1    2    0  503  0.36596836072E+02 -0.56724173001E+01  0.60308285339E+02  0.70771420849E+02  0.00000000000E+00 0. -1.
<mgrwt>
<rscale>  2 0.37033832E+02</rscale>
<asrwt>0</asrwt>
<pdfrwt beam="1">  1       21 0.28866432E-01 0.37033832E+02</pdfrwt>
<pdfrwt beam="2">  1       21 0.12369095E-02 0.37033832E+02</pdfrwt>
<totfact> 0.25519853E+07</totfact>
</mgrwt>
</event>
<event>
 4    1  0.7595771E+004  0.2079058E+02  0.7546771E-02  0.1730049E+00
         21   -1    0    0  503  502  0.00000000000E+00  0.00000000000E+00  0.29939955083E+01  0.29939955083E+01  0.00000000000E+00 0.  1.
         21   -1    0    0  501  503 -0.00000000000E+00 -0.00000000000E+00 -0.14437213958E+03  0.14437213958E+03  0.00000000000E+00 0.  1.
          2    1    1    2  501    0 -0.18592657906E+02  0.93038289341E+01 -0.70820565606E+02  0.73809218080E+02  0.00000000000E+00 0.  1.
         -2    1    1    2    0  502  0.18592657906E+02 -0.93038289341E+01 -0.70557578466E+02  0.73556917009E+02  0.00000000000E+00 0. -1.
<mgrwt>
<rscale>  2 0.20790579E+02</rscale>
<asrwt>0</asrwt>
<pdfrwt beam="1">  1       21 0.46061483E-03 0.20790579E+02</pdfrwt>
<pdfrwt beam="2">  1       21 0.22211092E-01 0.20790579E+02</pdfrwt>
<totfact> 0.15747914E+08</totfact>
</mgrwt>
</event>
<event>
 4    1  0.7595771E+004  0.2252184E+02  0.7546771E-02  0.1699380E+00
         21   -1    0    0  503  502  0.00000000000E+00  0.00000000000E+00  0.68631609371E+02  0.68631609371E+02  0.00000000000E+00 0. -1.
         21   -1    0    0  501  503 -0.00000000000E+00 -0.00000000000E+00 -0.95561428482E+01  0.95561428482E+01  0.00000000000E+00 0. -1.
          5    1    1    2  501    0 -0.19530067851E+02  0.11216500068E+02  0.10927834532E+02  0.25032998054E+02  0.00000000000E+00 0. -1.
         -5    1    1    2    0  502  0.19530067851E+02 -0.11216500068E+02  0.48147631991E+02  0.53154754165E+02  0.00000000000E+00 0.  1.
<mgrwt>
<rscale>  2 0.22521843E+02</rscale>
<asrwt>0</asrwt>
<pdfrwt beam="1">  1       21 0.10558709E-01 0.22521843E+02</pdfrwt>
<pdfrwt beam="2">  1       21 0.14701759E-02 0.22521843E+02</pdfrwt>
<totfact> 0.10131499E+08</totfact>
</mgrwt>
</event>
<event>
 4    1  0.7595771E+004  0.2544604E+02  0.7546771E-02  0.1654677E+00
         21   -1    0    0  501  502  0.00000000000E+00  0.00000000000E+00  0.57919506529E+00  0.57919506529E+00  0.00000000000E+00 0.  1.
         21   -1    0    0  502  503 -0.00000000000E+00 -0.00000000000E+00 -0.13435074559E+04  0.13435074559E+04  0.00000000000E+00 0.  1.
          3    1    1    2  501    0 -0.23463197699E+02 -0.98477950862E+01 -0.39609000804E+03  0.39690653205E+03  0.00000000000E+00 0. -1.
         -3    1    1    2    0  503  0.23463197699E+02  0.98477950862E+01 -0.94683825282E+03  0.94718011894E+03  0.00000000000E+00 0.  1.
<mgrwt>
<rscale>  2 0.25446035E+02</rscale>
<asrwt>0</asrwt>
<pdfrwt beam="1">  1       21 0.89107854E-04 0.25446035E+02</pdfrwt>
<pdfrwt beam="2">  1       21 0.20669132E+00 0.25446035E+02</pdfrwt>
<totfact> 0.17031470E+07</totfact>
</mgrwt>
</event>
<event>
 4    1  0.7595771E+004  0.3977880E+02  0.7546771E-02  0.1509846E+00
         21   -1    0    0  501  502  0.00000000000E+00  0.00000000000E+00  0.43387801905E+02  0.43387801905E+02  0.00000000000E+00 0.  1.
         21   -1    0    0  502  503 -0.00000000000E+00 -0.00000000000E+00 -0.36618976934E+02  0.36618976934E+02  0.00000000000E+00 0.  1.
          1    1    1    2  501    0  0.50438308428E+01  0.39457733803E+02  0.59359867273E+01  0.40219260620E+02  0.00000000000E+00 0.  1.
         -1    1    1    2    0  503 -0.50438308428E+01 -0.39457733803E+02  0.83283824388E+00  0.39787518218E+02  0.00000000000E+00 0. -1.
<mgrwt>
<rscale>  2 0.39778801E+02</rscale>
<asrwt>0</asrwt>
<pdfrwt beam="1">  1       21 0.66750464E-02 0.39778801E+02</pdfrwt>
<pdfrwt beam="2">  1       21 0.56336888E-02 0.39778801E+02</pdfrwt>
<totfact> 0.29798813E+07</totfact>
</mgrwt>
</event>
<event>
 4    1  0.7595771E+004  0.2522770E+02  0.7546771E-02  0.1657753E+00
         21   -1    0    0  503  502  0.00000000000E+00  0.00000000000E+00  0.17144246702E+02  0.17144246702E+02  0.00000000000E+00 0. -1.
         21   -1    0    0  501  503 -0.00000000000E+00 -0.00000000000E+00 -0.41918470870E+02  0.41918470870E+02  0.00000000000E+00 0. -1.
          2    1    1    2  501    0 -0.13716046113E+02  0.21173260321E+02 -0.22376068170E+02  0.33721288533E+02  0.00000000000E+00 0. -1.
         -2    1    1    2    0  502  0.13716046113E+02 -0.21173260321E+02 -0.23981559982E+01  0.25341429040E+02  0.00000000000E+00 0.  1.
<mgrwt>
<rscale>  2 0.25227701E+02</rscale>
<asrwt>0</asrwt>
<pdfrwt beam="1">  1       21 0.26375764E-02 0.25227701E+02</pdfrwt>
<pdfrwt beam="2">  1       21 0.64489955E-02 0.25227701E+02</pdfrwt>
<totfact> 0.95539184E+07</totfact>
</mgrwt>
</event>
<event>
 4    1  0.7595771E+004  0.2295411E+02  0.7546771E-02  0.1692255E+00
         21   -1    0    0  503  502  0.00000000000E+00  0.00000000000E+00  0.30663749210E+01  0.30663749210E+01  0.00000000000E+00 0.  1.
         21   -1    0    0  501  503 -0.00000000000E+00 -0.00000000000E+00 -0.19600691187E+03  0.19600691187E+03  0.00000000000E+00 0.  1.
          2    1    1    2  501    0 -0.22794251026E+02 -0.27043123926E+01 -0.61511230054E+02  0.65654570352E+02  0.00000000000E+00 0. -1.
         -2    1    1    2    0  502  0.22794251026E+02  0.27043123926E+01 -0.13142930690E+03  0.13341871644E+03  0.00000000000E+00 0.  1.
<mgrwt>
<rscale>  2 0.22954110E+02</rscale>
<asrwt>0</asrwt>
<pdfrwt beam="1">  1       21 0.47174999E-03 0.22954110E+02</pdfrwt>
<pdfrwt beam="2">  1       21 0.30154909E-01 0.22954110E+02</pdfrwt>
<totfact> 0.90564385E+07</totfact>
</mgrwt>
</event>
<event>
 4    1  0.7595771E+004  0.2144769E+02  0.7546771E-02  0.1717983E+00
         21   -1    0    0  501  502  0.00000000000E+00  0.00000000000E+00  0.32671551500E+03  0.32671551500E+03  0.00000000000E+00 0.  1.
         21   -1    0    0  502  503 -0.00000000000E+00 -0.00000000000E+00 -0.15592819963E+01  0.15592819963E+01  0.00000000000E+00 0.  1.
          4    1    1    2  501    0  0.18046049943E+02  0.11590662732E+02  0.11144622814E+03  0.11349125582E+03  0.00000000000E+00 0.  1.
         -4    1    1    2    0  503 -0.18046049943E+02 -0.11590662732E+02  0.21371000487E+03  0.21478354118E+03  0.00000000000E+00 0. -1.
<mgrwt>
<rscale>  2 0.21447689E+02</rscale>
<asrwt>0</asrwt>
<pdfrwt beam="1">  1       21 0.50263871E-01 0.21447689E+02</pdfrwt>
<pdfrwt beam="2">  1       21 0.23988980E-03 0.21447689E+02</pdfrwt>
<totfact> 0.91501104E+07</totfact>
</mgrwt>
</event>
<event>
 4    1  0.7595771E+004  0.2940441E+02  0.7546771E-02  0.1604767E+00
         21   -1    0    0  503  502  0.00000000000E+00  0.00000000000E+00  0.40591503898E+02  0.40591503898E+02  0.00000000000E+00 0.  1.
         21   -1    0    0  501  503 -0.00000000000E+00 -0.00000000000E+00 -0.41247253700E+02  0.41247253700E+02  0.00000000000E+00 0.  1.
          5    1    1    2  501    0 -0.17815626069E+02  0.23392787409E+02 -0.28783472086E+02  0.41147385097E+02  0.00000000000E+00 0. -1.
         -5    1    1    2    0  502  0.17815626069E+02 -0.23392787409E+02  0.28127722285E+02  0.40691372500E+02  0.00000000000E+00 0.  1.
<mgrwt>
<rscale>  2 0.29404405E+02</rscale>
<asrwt>0</asrwt>
<pdfrwt beam="1">  1       21 0.62448467E-02 0.29404405E+02</pdfrwt>
<pdfrwt beam="2">  1       21 0.63457314E-02 0.29404405E+02</pdfrwt>
<totfact> 0.25872988E+07</totfact>
</mgrwt>
</event>
<event>
 4    1  0.7595771E+004  0.2109527E+02  0.7546771E-02  0.1724385E+00
         21   -1    0    0  501  502  0.00000000000E+00  0.00000000000E+00  0.90040108433E+02  0.90040108433E+02  0.00000000000E+00 0. -1.
         21   -1    0    0  502  503 -0.00000000000E+00 -0.00000000000E+00 -0.49427448523E+01  0.49427448523E+01  0.00000000000E+00 0. -1.
          1    1    1    2  501    0 -0.13244788254E+02  0.16419068920E+02  0.42127267118E+02  0.47113871365E+02  0.00000000000E+00 0.  1.
         -1    1    1    2    0  503  0.13244788254E+02 -0.16419068920E+02  0.42970096463E+02  0.47868981921E+02  0.00000000000E+00 0. -1.
<mgrwt>
<rscale>  2 0.21095266E+02</rscale>
<asrwt>0</asrwt>
<pdfrwt beam="1">  1       21 0.13852323E-01 0.21095266E+02</pdfrwt>
<pdfrwt beam="2">  1       21 0.76042235E-03 0.21095266E+02</pdfrwt>
<totfact> 0.16985012E+08</totfact>
</mgrwt>
</event>
<event>
 4    1  0.7595771E+004  0.2229905E+02  0.7546771E-02  0.1703131E+00
         21   -1    0    0  503  502  0.00000000000E+00  0.00000000000E+00  0.79905393163E+02  0.79905393163E+02  0.00000000000E+00 0.  1.
         21   -1    0    0  501  503 -0.00000000000E+00 -0.00000000000E+00 -0.62886485610E+01  0.62886485610E+01  0.00000000000E+00 0.  1.
          2    1    1    2  501    0  0.15761213360E+02  0.15774407771E+02  0.32403584653E+02  0.39334972804E+02  0.00000000000E+00 0.  1.
         -2    1    1    2    0  502 -0.15761213360E+02 -0.15774407771E+02  0.41213159949E+02  0.46859068921E+02  0.00000000000E+00 0. -1.
<mgrwt>
<rscale>  2 0.22299054E+02</rscale>
<asrwt>0</asrwt>
<pdfrwt beam="1">  1       21 0.12293137E-01 0.22299054E+02</pdfrwt>
<pdfrwt beam="2">  1       21 0.96748445E-03 0.22299054E+02</pdfrwt>
<totfact> 0.14737034E+08</totfact>
</mgrwt>
</event>
<event>
 4    1  0.7595771E+004  0.2743373E+02  0.7546771E-02  0.1628321E+00
         21   -1    0    0  503  502  0.00000000000E+00  0.00000000000E+00  0.57048743339E+02  0.57048743339E+02  0.00000000000E+00 0. -1.
         21   -1    0    0  501  503 -0.00000000000E+00 -0.00000000000E+00 -0.15066704510E+02  0.15066704510E+02  0.00000000000E+00 0. -1.
          4    1    1    2  501    0 -0.19749037337E+02  0.19041660438E+02  0.82732679784E+01  0.28654079483E+02  0.00000000000E+00 0.  1.
         -4    1    1    2    0  502  0.19749037337E+02 -0.19041660438E+02  0.33708770851E+02  0.43461368366E+02  0.00000000000E+00 0. -1.
<mgrwt>
<rscale>  2 0.27433726E+02</rscale>
<asrwt>0</asrwt>
<pdfrwt beam="1">  1       21 0.87767296E-02 0.27433726E+02</pdfrwt>
<pdfrwt beam="2">  1       21 0.23179546E-02 0.27433726E+02</pdfrwt>
<totfact> 0.72081912E+07</totfact>
</mgrwt>
</event>
<event>
 4    1  0.7595771E+004  0.2471368E+02  0.7546771E-02  0.1665149E+00
         21   -1    0    0  501  502  0.00000000000E+00  0.00000000000E+00  0.71453228706E+03  0.71453228706E+03  0.00000000000E+00 0.  1.
         21   -1    0    0  502  503 -0.00000000000E+00 -0.00000000000E+00 -0.86005785508E+00  0.86005785508E+00  0.00000000000E+00 0.  1.
          5    1    1    2  501    0 -0.23239903434E+02  0.84067257904E+01  0.32880887005E+03  0.32973631765E+03  0.00000000000E+00 0.  1.
         -5    1    1    2    0  503  0.23239903434E+02 -0.84067257904E+01  0.38486335915E+03  0.38565602726E+03  0.00000000000E+00 0. -1.
<mgrwt>
<rscale>  2 0.24713683E+02</rscale>
<asrwt>0</asrwt>
<pdfrwt beam="1">  1       21 0.10992757E+00 0.24713683E+02</pdfrwt>
<pdfrwt beam="2">  1       21 0.13231716E-03 0.24713683E+02</pdfrwt>
<totfact> 0.43881921E+07</totfact>
</mgrwt>
</event>
<event>
 4    1  0.7595771E+004  0.2503845E+02  0.7546771E-02  0.1660450E+00
         21   -1    0    0  503  502  0.00000000000E+00  0.00000000000E+00  0.10553569848E+02  0.10553569848E+02  0.00000000000E+00 0.  1.
         21   -1    0    0  501  503 -0.00000000000E+00 -0.00000000000E+00 -0.64761309358E+02  0.64761309358E+02  0.00000000000E+00 0.  1.
          5    1    1    2  501    0  0.23819657640E+02 -0.77167367171E+01 -0.16272910864E+02  0.29861877765E+02  0.00000000000E+00 0.  1.
         -5    1    1    2    0  502 -0.23819657640E+02  0.77167367171E+01 -0.37934828646E+02  0.45453001442E+02  0.00000000000E+00 0. -1.
<mgrwt>
<rscale>  2 0.25038453E+02</rscale>
<asrwt>0</asrwt>
<pdfrwt beam="1">  1       21 0.16236261E-02 0.25038453E+02</pdfrwt>
<pdfrwt beam="2">  1       21 0.99632788E-02 0.25038453E+02</pdfrwt>
<totfact> 0.98775109E+07</totfact>
</mgrwt>
</event>
<event>
 4    1  0.7595771E+004  0.3499676E+02  0.7546771E-02  0.1548629E+00
         21   -1    0    0  503  502  0.00000000000E+00  0.00000000000E+00  0.18251422326E+04  0.18251422326E+04  0.00000000000E+00 0. -1.
         21   -1    0    0  501  503 -0.00000000000E+00 -0.00000000000E+00 -0.12410832393E+01  0.12410832393E+01  0.00000000000E+00 0. -1.
          5    1    1    2  501    0 -0.19876218260E+02 -0.28804667851E+02  0.29306662022E+03  0.29514880455E+03  0.00000000000E+00 0. -1.
         -5    1    1    2    0  502  0.19876218260E+02  0.28804667851E+02  0.15308345291E+04  0.15312345113E+04  0.00000000000E+00 0.  1.
<mgrwt>
<rscale>  2 0.34996756E+02</rscale>
<asrwt>0</asrwt>
<pdfrwt beam="1">  1       21 0.28078897E+00 0.34996756E+02</pdfrwt>
<pdfrwt beam="2">  1       21 0.19093734E-03 0.34996756E+02</pdfrwt>
<totfact> 0.23706594E+06</totfact>
</mgrwt>
</event>
<event>
 4    1  0.7595771E+004  0.2736026E+02  0.7546771E-02  0.1629245E+00
         21   -1    0    0  501  502  0.00000000000E+00  0.00000000000E+00  0.62875680039E+02  0.62875680039E+02  0.00000000000E+00 0. -1.
         21   -1    0    0  502  503 -0.00000000000E+00 -0.00000000000E+00 -0.17984723783E+02  0.17984723783E+02  0.00000000000E+00 0. -1.
          3    1    1    2  501    0  0.27338876316E+02  0.10814387425E+01  0.45950912666E+02  0.53479622687E+02  0.00000000000E+00 0. -1.
         -3    1    1    2    0  503 -0.27338876316E+02 -0.10814387425E+01 -0.10599564087E+01  0.27380781135E+02  0.00000000000E+00 0.  1.
<mgrwt>
<rscale>  2 0.27360257E+02</rscale>
<asrwt>0</asrwt>
<pdfrwt beam="1">  1       21 0.96731814E-02 0.27360257E+02</pdfrwt>
<pdfrwt beam="2">  1       21 0.27668806E-02 0.27360257E+02</pdfrwt>
<totfact> 0.46538909E+07</totfact>
</mgrwt>
</event>
<event>
 4    1  0.7595771E+004  0.2214014E+02  0.7546771E-02  0.1705840E+00
         21   -1    0    0  503  502  0.00000000000E+00  0.00000000000E+00  0.18832466773E+01  0.18832466773E+01  0.00000000000E+00 0. -1.
         21   -1    0    0  501  503 -0.00000000000E+00 -0.00000000000E+00 -0.27798178033E+03  0.27798178033E+03  0.00000000000E+00 0. -1.
          1    1    1    2  501    0  0.20833743106E+02  0.74927242303E+01 -0.17335340596E+03  0.17476152073E+03  0.00000000000E+00 0. -1.
         -1    1    1    2    0  502 -0.20833743106E+02 -0.74927242303E+01 -0.10274512769E+03  0.10510350628E+03  0.00000000000E+00 0.  1.
<mgrwt>
<rscale>  2 0.22140139E+02</rscale>
<asrwt>0</asrwt>
<pdfrwt beam="1">  1       21 0.28973008E-03 0.22140139E+02</pdfrwt>
<pdfrwt beam="2">  1       21 0.42766453E-01 0.22140139E+02</pdfrwt>
<totfact> 0.95665132E+07</totfact>
</mgrwt>
</event>
<event>
 4    1  0.7595771E+004  0.2622385E+02  0.7546771E-02  0.1644021E+00
         21   -1    0    0  503  502  0.00000000000E+00  0.00000000000E+00  0.92982392967E+01  0.92982392967E+01  0.00000000000E+00 0. -1.
         21   -1    0    0  501  503 -0.00000000000E+00 -0.00000000000E+00 -0.74239817421E+02  0.74239817421E+02  0.00000000000E+00 0. -1.
          2    1    1    2  501    0  0.19693813568E+02 -0.17316005037E+02 -0.35038786668E+02  0.43765361811E+02  0.00000000000E+00 0.  1.
         -2    1    1    2    0  502 -0.19693813568E+02  0.17316005037E+02 -0.29902791457E+02  0.39772694907E+02  0.00000000000E+00 0. -1.
<mgrwt>
<rscale>  2 0.26223850E+02</rscale>
<asrwt>0</asrwt>
<pdfrwt beam="1">  1       21 0.14304983E-02 0.26223850E+02</pdfrwt>
<pdfrwt beam="2">  1       21 0.11421510E-01 0.26223850E+02</pdfrwt>
<totfact> 0.96576169E+07</totfact>
</mgrwt>
</event>
<event>
 4    1  0.7595771E+004  0.2195902E+02  0.7546771E-02  0.1708962E+00
         21   -1    0    0  503  502  0.00000000000E+00  0.00000000000E+00  0.79136046231E+01  0.79136046231E+01  0.00000000000E+00 0. -1.
         21   -1    0    0  501  503 -0.00000000000E+00 -0.00000000000E+00 -0.68975686674E+02  0.68975686674E+02  0.00000000000E+00 0. -1.
          2    1    1    2  501    0  0.21914670240E+02  0.13949914519E+01 -0.17403255182E+02  0.28019137456E+02  0.00000000000E+00 0. -1.
         -2    1    1    2    0  502 -0.21914670240E+02 -0.13949914519E+01 -0.43658826870E+02  0.48870153842E+02  0.00000000000E+00 0.  1.
<mgrwt>
<rscale>  2 0.21959025E+02</rscale>
<asrwt>0</asrwt>
<pdfrwt beam="1">  1       21 0.12174776E-02 0.21959025E+02</pdfrwt>
<pdfrwt beam="2">  1       21 0.10611644E-01 0.21959025E+02</pdfrwt>
<totfact> 0.13267275E+08</totfact>
</mgrwt>
</event>
<event>
 4    1  0.7595771E+004  0.2105654E+02  0.7546771E-02  0.1725099E+00
         21   -1    0    0  501  502  0.00000000000E+00  0.00000000000E+00  0.11146546995E+03  0.11146546995E+03  0.00000000000E+00 0. -1.
         21   -1    0    0  502  503 -0.00000000000E+00 -0.00000000000E+00 -0.46482873241E+01  0.46482873241E+01  0.00000000000E+00 0. -1.
          3    1    1    2  501    0 -0.20495042873E+02 -0.48302478743E+01  0.31357534055E+02  0.37771325353E+02  0.00000000000E+00 0. -1.
         -3    1    1    2    0  503  0.20495042873E+02  0.48302478743E+01  0.75459648571E+02  0.78342431922E+02  0.00000000000E+00 0.  1.
<mgrwt>
<rscale>  2 0.21056545E+02</rscale>
<asrwt>0</asrwt>
<pdfrwt beam="1">  1       21 0.17148532E-01 0.21056545E+02</pdfrwt>
<pdfrwt beam="2">  1       21 0.71512121E-03 0.21056545E+02</pdfrwt>
<totfact> 0.12937344E+08</totfact>
</mgrwt>
</event>
