<event>
 4    1  0.7478314E+004  0.2533639E+02  0.7546771E-02  0.1656217E+00
         21   -1    0    0  503  502  0.00000000000E+00  0.00000000000E+00  0.38519130548E+03  0.38519130548E+03  0.00000000000E+00 0. -1.
         21   -1    0    0  501  503 -0.00000000000E+00 -0.00000000000E+00 -0.20177423314E+01  0.20177423314E+01  0.00000000000E+00 0. -1.
          4    1    1    2  501    0  0.25189268592E+02 -0.27264195517E+01  0.11081346257E+03  0.11367302276E+03  0.00000000000E+00 0.  1.
         -4    1    1    2    0  502 -0.25189268592E+02  0.27264195517E+01  0.27236010057E+03  0.27353602505E+03  0.00000000000E+00 0. -1.
<mgrwt>
<rscale>  2 0.25336389E+02</rscale>
<asrwt>0</asrwt>
<pdfrwt beam="1">  1       21 0.59260142E-01 0.25336389E+02</pdfrwt>
<pdfrwt beam="2">  1       21 0.31042220E-03 0.25336389E+02</pdfrwt>
<totfact> 0.47324461E+07</totfact>
</mgrwt>
</event>
<event>
 4    1  0.7478314E+004  0.2930049E+02  0.7546771E-02  0.1605952E+00
         21   -1    0    0  503  502  0.00000000000E+00  0.00000000000E+00  0.52052102066E+02  0.52052102066E+02  0.00000000000E+00 0. -1.
         21   -1    0    0  501  503 -0.00000000000E+00 -0.00000000000E+00 -0.18154200828E+02  0.18154200828E+02  0.00000000000E+00 0. -1.
          5    1    1    2  501    0  0.24809657270E+02 -0.15588443924E+02  0.27566149245E+02  0.40229482497E+02  0.00000000000E+00 0. -1.
         -5    1    1    2    0  502 -0.24809657270E+02  0.15588443924E+02  0.63317519936E+01  0.29976820397E+02  0.00000000000E+00 0.  1.
<mgrwt>
<rscale>  2 0.29300489E+02</rscale>
<asrwt>0</asrwt>
<pdfrwt beam="1">  1       21 0.80080156E-02 0.29300489E+02</pdfrwt>
<pdfrwt beam="2">  1       21 0.27929540E-02 0.29300489E+02</pdfrwt>
<totfact> 0.63715243E+07</totfact>
</mgrwt>
</event>
<event>
 4    1  0.7478314E+004  0.2165237E+02  0.7546771E-02  0.1714334E+00
         21   -1    0    0  501  502  0.00000000000E+00  0.00000000000E+00  0.86775999389E+02  0.86775999389E+02  0.00000000000E+00 0. -1.
         21   -1    0    0  502  503 -0.00000000000E+00 -0.00000000000E+00 -0.54332444294E+01  0.54332444294E+01  0.00000000000E+00 0. -1.
          3    1    1    2  501    0 -0.28607799458E+01 -0.21462549976E+02  0.44127955149E+02  0.49153855790E+02  0.00000000000E+00 0.  1.
         -3    1    1    2    0  503  0.28607799458E+01  0.21462549976E+02  0.37214799811E+02  0.43055388029E+02  0.00000000000E+00 0. -1.
<mgrwt>
<rscale>  2 0.21652370E+02</rscale>
<asrwt>0</asrwt>
<pdfrwt beam="1">  1       21 0.13350153E-01 0.21652370E+02</pdfrwt>
<pdfrwt beam="2">  1       21 0.83588382E-03 0.21652370E+02</pdfrwt>
<totfact> 0.15825313E+08</totfact>
</mgrwt>
</event>
<event>
 4    1  0.7478314E+004  0.2634697E+02  0.7546771E-02  0.1642376E+00
         21   -1    0    0  503  502  0.00000000000E+00  0.00000000000E+00  0.89974344131E+03  0.89974344131E+03  0.00000000000E+00 0. -1.
         21   -1    0    0  501  503 -0.00000000000E+00 -0.00000000000E+00 -0.82135780256E+00  0.82135780256E+00  0.00000000000E+00 0. -1.
          4    1    1    2  501    0 -0.29924942296E+01 -0.26176477114E+02  0.33853525364E+03  0.33955895060E+03  0.00000000000E+00 0.  1.
         -4    1    1    2    0  502  0.29924942296E+01  0.26176477114E+02  0.56038682987E+03  0.56100584852E+03  0.00000000000E+00 0. -1.
<mgrwt>
<rscale>  2 0.26346973E+02</rscale>
<asrwt>0</asrwt>
<pdfrwt beam="1">  1       21 0.13842128E+00 0.26346973E+02</pdfrwt>
<pdfrwt beam="2">  1       21 0.12636346E-03 0.26346973E+02</pdfrwt>
<totfact> 0.27991125E+07</totfact>
</mgrwt>
</event>
<event>
 4    1  0.7478314E+004  0.2542831E+02  0.7546771E-02  0.1654925E+00
         21   -1    0    0  501  502  0.00000000000E+00  0.00000000000E+00  0.26811546793E+01  0.26811546793E+01  0.00000000000E+00 0.  1.
         21   -1    0    0  502  503 -0.00000000000E+00 -0.00000000000E+00 -0.24262273299E+03  0.24262273299E+03  0.00000000000E+00 0.  1.
          1    1    1    2  501    0  0.15070011613E+02  0.20481542789E+02 -0.12948009802E+03  0.13195338051E+03  0.00000000000E+00 0. -1.
         -1    1    1    2    0  503 -0.15070011613E+02 -0.20481542789E+02 -0.11046148029E+03  0.11335050716E+03  0.00000000000E+00 0.  1.
<mgrwt>
<rscale>  2 0.25428308E+02</rscale>
<asrwt>0</asrwt>
<pdfrwt beam="1">  1       21 0.41248546E-03 0.25428308E+02</pdfrwt>
<pdfrwt beam="2">  1       21 0.37326563E-01 0.25428308E+02</pdfrwt>
<totfact> 0.76370267E+07</totfact>
</mgrwt>
</event>
<event>
 4    1  0.7478314E+004  0.2446577E+02  0.7546771E-02  0.1668796E+00
         21   -1    0    0  501  502  0.00000000000E+00  0.00000000000E+00  0.88986578575E+02  0.88986578575E+02  0.00000000000E+00 0. -1.
         21   -1    0    0  502  503 -0.00000000000E+00 -0.00000000000E+00 -0.67901395010E+01  0.67901395010E+01  0.00000000000E+00 0. -1.
          3    1    1    2  501    0 -0.64976552058E+01 -0.23587163236E+02  0.45732050979E+02  0.51865154771E+02  0.00000000000E+00 0. -1.
         -3    1    1    2    0  503  0.64976552058E+01  0.23587163236E+02  0.36464388095E+02  0.43911563305E+02  0.00000000000E+00 0.  1.
<mgrwt>
<rscale>  2 0.24465768E+02</rscale>
<asrwt>0</asrwt>
<pdfrwt beam="1">  1       21 0.13690242E-01 0.24465768E+02</pdfrwt>
<pdfrwt beam="2">  1       21 0.10446369E-02 0.24465768E+02</pdfrwt>
<totfact> 0.11252069E+08</totfact>
</mgrwt>
</event>
<event>
 4    1  0.7478314E+004  0.2066230E+02  0.7546771E-02  0.1732469E+00
         21   -1    0    0  501  502  0.00000000000E+00  0.00000000000E+00  0.22001452446E+00  0.22001452446E+00  0.00000000000E+00 0.  1.
         21   -1    0    0  502  503 -0.00000000000E+00 -0.00000000000E+00 -0.20836529382E+04  0.20836529382E+04  0.00000000000E+00 0.  1.
          4    1    1    2  501    0  0.10355333348E+02  0.17880089368E+02 -0.76857886091E+03  0.76885655096E+03  0.00000000000E+00 0.  1.
         -4    1    1    2    0  503 -0.10355333348E+02 -0.17880089368E+02 -0.13148540628E+04  0.13150164018E+04  0.00000000000E+00 0. -1.
<mgrwt>
<rscale>  2 0.20662297E+02</rscale>
<asrwt>0</asrwt>
<pdfrwt beam="1">  1       21 0.33849187E-04 0.20662297E+02</pdfrwt>
<pdfrwt beam="2">  1       21 0.32055443E+00 0.20662297E+02</pdfrwt>
<totfact> 0.17770332E+07</totfact>
</mgrwt>
</event>
<event>
 4    1  0.7478314E+004  0.2928988E+02  0.7546771E-02  0.1606073E+00
         21   -1    0    0  503  502  0.00000000000E+00  0.00000000000E+00  0.38729355352E+02  0.38729355352E+02  0.00000000000E+00 0.  1.
         21   -1    0    0  501  503 -0.00000000000E+00 -0.00000000000E+00 -0.22625848926E+02  0.22625848926E+02  0.00000000000E+00 0.  1.
          2    1    1    2  501    0 -0.25484297382E+02  0.14437722622E+02  0.36079198605E+01  0.29511257738E+02  0.00000000000E+00 0.  1.
         -2    1    1    2    0  502  0.25484297382E+02 -0.14437722622E+02  0.12495586565E+02  0.31843946539E+02  0.00000000000E+00 0. -1.
<mgrwt>
<rscale>  2 0.29289883E+02</rscale>
<asrwt>0</asrwt>
<pdfrwt beam="1">  1       21 0.59583623E-02 0.29289883E+02</pdfrwt>
<pdfrwt beam="2">  1       21 0.34808998E-02 0.29289883E+02</pdfrwt>
<totfact> 0.73030071E+07</totfact>
</mgrwt>
</event>
<event>
 4    1  0.7478314E+004  0.2755641E+02  0.7546771E-02  0.1626784E+00
         21   -1    0    0  503  502  0.00000000000E+00  0.00000000000E+00  0.73342005769E+02  0.73342005769E+02  0.00000000000E+00 0.  1.
         21   -1    0    0  501  503 -0.00000000000E+00 -0.00000000000E+00 -0.10355723319E+02  0.10355723319E+02  0.00000000000E+00 0.  1.
          2    1    1    2  501    0  0.19013260469E+02 -0.19946225701E+02  0.32088128998E+02  0.42296619440E+02  0.00000000000E+00 0. -1.
         -2    1    1    2    0  502 -0.19013260469E+02  0.19946225701E+02  0.30898153452E+02  0.41401109649E+02  0.00000000000E+00 0.  1.
<mgrwt>
<rscale>  2 0.27556415E+02</rscale>
<asrwt>0</asrwt>
<pdfrwt beam="1">  1       21 0.11283385E-01 0.27556415E+02</pdfrwt>
<pdfrwt beam="2">  1       21 0.15931882E-02 0.27556415E+02</pdfrwt>
<totfact> 0.84665690E+07</totfact>
</mgrwt>
</event>
<event>
 4    1  0.7478314E+004  0.4358281E+02  0.7546771E-02  0.1483388E+00
         21   -1    0    0  503  502  0.00000000000E+00  0.00000000000E+00  0.22293758181E+03  0.22293758181E+03  0.00000000000E+00 0.  1.
         21   -1    0    0  501  503 -0.00000000000E+00 -0.00000000000E+00 -0.85527077067E+01  0.85527077067E+01  0.00000000000E+00 0.  1.
          5    1    1    2  501    0 -0.42730835678E+02  0.85753771802E+01  0.11433385805E+03  0.12235886771E+03  0.00000000000E+00 0. -1.
         -5    1    1    2    0  502  0.42730835678E+02 -0.85753771802E+01  0.10005101605E+03  0.10913142180E+03  0.00000000000E+00 0.  1.
<mgrwt>
<rscale>  2 0.43582811E+02</rscale>
<asrwt>0</asrwt>
<pdfrwt beam="1">  1       21 0.34298085E-01 0.43582811E+02</pdfrwt>
<pdfrwt beam="2">  1       21 0.13158014E-02 0.43582811E+02</pdfrwt>
<totfact> 0.17232856E+07</totfact>
</mgrwt>
</event>
<event>
 4    1  0.7478314E+004  0.2072027E+02  0.7546771E-02  0.1731373E+00
         21   -1    0    0  501  502  0.00000000000E+00  0.00000000000E+00  0.22702419666E+02  0.22702419666E+02  0.00000000000E+00 0.  1.
         21   -1    0    0  502  503 -0.00000000000E+00 -0.00000000000E+00 -0.22010222746E+02  0.22010222746E+02  0.00000000000E+00 0.  1.
          1    1    1    2  501    0 -0.20474451151E+02 -0.31822275294E+01 -0.80427308578E+01  0.22226453645E+02  0.00000000000E+00 0.  1.
         -1    1    1    2    0  503  0.20474451151E+02  0.31822275294E+01  0.87349277777E+01  0.22486188767E+02  0.00000000000E+00 0. -1.
<mgrwt>
<rscale>  2 0.20720273E+02</rscale>
<asrwt>0</asrwt>
<pdfrwt beam="1">  1       21 0.34926800E-02 0.20720273E+02</pdfrwt>
<pdfrwt beam="2">  1       21 0.33861881E-02 0.20720273E+02</pdfrwt>
<totfact> 0.16183351E+08</totfact>
</mgrwt>
</event>
<event>
 4    1  0.7478314E+004  0.3378795E+02  0.7546771E-02  0.1559635E+00
         21   -1    0    0  503  502  0.00000000000E+00  0.00000000000E+00  0.46459405233E+00  0.46459405233E+00  0.00000000000E+00 0.  1.
         21   -1    0    0  501  503 -0.00000000000E+00 -0.00000000000E+00 -0.29290874512E+04  0.29290874512E+04  0.00000000000E+00 0.  1.
          3    1    1    2  501    0  0.30360167306E+02 -0.14828556139E+02 -0.20522056300E+04  0.20524837572E+04  0.00000000000E+00 0.  1.
         -3    1    1    2    0  502 -0.30360167306E+02  0.14828556139E+02 -0.87641722718E+03  0.87706828807E+03  0.00000000000E+00 0. -1.
<mgrwt>
<rscale>  2 0.33787954E+02</rscale>
<asrwt>0</asrwt>
<pdfrwt beam="1">  1       21 0.71474166E-04 0.33787954E+02</pdfrwt>
<pdfrwt beam="2">  1       21 0.45064045E+00 0.33787954E+02</pdfrwt>
<totfact> 0.11828219E+06</totfact>
</mgrwt>
</event>
<event>
 4    1  0.7478314E+004  0.2478858E+02  0.7546771E-02  0.1664057E+00
         21   -1    0    0  501  502  0.00000000000E+00  0.00000000000E+00  0.70409694340E+00  0.70409694340E+00  0.00000000000E+00 0. -1.
         21   -1    0    0  502  503 -0.00000000000E+00 -0.00000000000E+00 -0.87549533485E+03  0.87549533485E+03  0.00000000000E+00 0. -1.
          2    1    1    2  501    0  0.13312856554E+02  0.20910326145E+02 -0.41269404483E+03  0.41343784119E+03  0.00000000000E+00 0. -1.
         -2    1    1    2    0  503 -0.13312856554E+02 -0.20910326145E+02 -0.46209719308E+03  0.46276159060E+03  0.00000000000E+00 0.  1.
<mgrwt>
<rscale>  2 0.24788584E+02</rscale>
<asrwt>0</asrwt>
<pdfrwt beam="1">  1       21 0.10832237E-03 0.24788584E+02</pdfrwt>
<pdfrwt beam="2">  1       21 0.13469188E+00 0.24788584E+02</pdfrwt>
<totfact> 0.36802897E+07</totfact>
</mgrwt>
</event>
<event>
 4    1  0.7478314E+004  0.3024667E+02  0.7546771E-02  0.1595378E+00
         21   -1    0    0  501  502  0.00000000000E+00  0.00000000000E+00  0.53697608512E+02  0.53697608512E+02  0.00000000000E+00 0. -1.
         21   -1    0    0  502  503 -0.00000000000E+00 -0.00000000000E+00 -0.22003746961E+02  0.22003746961E+02  0.00000000000E+00 0. -1.
          4    1    1    2  501    0  0.21880187616E+02  0.20883454564E+02 -0.21355265659E+01  0.30321968247E+02  0.00000000000E+00 0. -1.
         -4    1    1    2    0  503 -0.21880187616E+02 -0.20883454564E+02  0.33829388117E+02  0.45379387226E+02  0.00000000000E+00 0.  1.
<mgrwt>
<rscale>  2 0.30246674E+02</rscale>
<asrwt>0</asrwt>
<pdfrwt beam="1">  1       21 0.82611705E-02 0.30246674E+02</pdfrwt>
<pdfrwt beam="2">  1       21 0.33851919E-02 0.30246674E+02</pdfrwt>
<totfact> 0.45035975E+07</totfact>
</mgrwt>
</event>
<event>
 4    1  0.7478314E+004  0.2403092E+02  0.7546771E-02  0.1675324E+00
         21   -1    0    0  503  502  0.00000000000E+00  0.00000000000E+00  0.26104495280E+03  0.26104495280E+03  0.00000000000E+00 0. -1.
         21   -1    0    0  501  503 -0.00000000000E+00 -0.00000000000E+00 -0.31120951578E+01  0.31120951578E+01  0.00000000000E+00 0. -1.
          4    1    1    2  501    0 -0.23986164559E+02  0.14659832444E+01  0.57943219098E+02  0.62728795912E+02  0.00000000000E+00 0. -1.
         -4    1    1    2    0  502  0.23986164559E+02 -0.14659832444E+01  0.19998963855E+03  0.20142825205E+03  0.00000000000E+00 0.  1.
<mgrwt>
<rscale>  2 0.24030922E+02</rscale>
<asrwt>0</asrwt>
<pdfrwt beam="1">  1       21 0.40160745E-01 0.24030922E+02</pdfrwt>
<pdfrwt beam="2">  1       21 0.47878408E-03 0.24030922E+02</pdfrwt>
<totfact> 0.52710626E+07</totfact>
</mgrwt>
</event>
<event>
 4    1  0.7478314E+004  0.2159403E+02  0.7546771E-02  0.1715369E+00
         21   -1    0    0  501  502  0.00000000000E+00  0.00000000000E+00  0.24268010675E+01  0.24268010675E+01  0.00000000000E+00 0.  1.
         21   -1    0    0  502  503 -0.00000000000E+00 -0.00000000000E+00 -0.19461667297E+03  0.19461667297E+03  0.00000000000E+00 0.  1.
          4    1    1    2  501    0 -0.21637514382E+01 -0.21485349649E+02 -0.84996060798E+02  0.87696250895E+02  0.00000000000E+00 0.  1.
         -4    1    1    2    0  503  0.21637514382E+01  0.21485349649E+02 -0.10719381110E+03  0.10934722314E+03  0.00000000000E+00 0. -1.
<mgrwt>
<rscale>  2 0.21594029E+02</rscale>
<asrwt>0</asrwt>
<pdfrwt beam="1">  1       21 0.37335383E-03 0.21594029E+02</pdfrwt>
<pdfrwt beam="2">  1       21 0.29941041E-01 0.21594029E+02</pdfrwt>
<totfact> 0.12715316E+08</totfact>
</mgrwt>
</event>
<event>
 4    1  0.7478314E+004  0.2241302E+02  0.7546771E-02  0.1701205E+00
         21   -1    0    0  503  502  0.00000000000E+00  0.00000000000E+00  0.68783339235E+01  0.68783339235E+01  0.00000000000E+00 0. -1.
         21   -1    0    0  501  503 -0.00000000000E+00 -0.00000000000E+00 -0.85492751998E+02  0.85492751998E+02  0.00000000000E+00 0. -1.
          5    1    1    2  501    0 -0.20919050945E+02  0.80459202011E+01 -0.56939175808E+02  0.61191611076E+02  0.00000000000E+00 0.  1.
         -5    1    1    2    0  502  0.20919050945E+02 -0.80459202011E+01 -0.21675242266E+02  0.31179474845E+02  0.00000000000E+00 0. -1.
<mgrwt>
<rscale>  2 0.22413021E+02</rscale>
<asrwt>0</asrwt>
<pdfrwt beam="1">  1       21 0.10582052E-02 0.22413021E+02</pdfrwt>
<pdfrwt beam="2">  1       21 0.13152731E-01 0.22413021E+02</pdfrwt>
<totfact> 0.11517022E+08</totfact>
</mgrwt>
</event>
<event>
 4    1  0.7478314E+004  0.2531077E+02  0.7546771E-02  0.1656578E+00
         21   -1    0    0  501  502  0.00000000000E+00  0.00000000000E+00  0.53034290864E+02  0.53034290864E+02  0.00000000000E+00 0.  1.
         21   -1    0    0  502  503 -0.00000000000E+00 -0.00000000000E+00 -0.12121959880E+02  0.12121959880E+02  0.00000000000E+00 0.  1.
          3    1    1    2  501    0 -0.16752637196E+02 -0.18973255514E+02  0.18531307581E+02  0.31369485786E+02  0.00000000000E+00 0. -1.
         -3    1    1    2    0  503  0.16752637196E+02  0.18973255514E+02  0.22381023403E+02  0.33786764959E+02  0.00000000000E+00 0.  1.
<mgrwt>
<rscale>  2 0.25310774E+02</rscale>
<asrwt>0</asrwt>
<pdfrwt beam="1">  1       21 0.81591216E-02 0.25310774E+02</pdfrwt>
<pdfrwt beam="2">  1       21 0.18649169E-02 0.25310774E+02</pdfrwt>
<totfact> 0.11137961E+08</totfact>
</mgrwt>
</event>
<event>
 4    1  0.7478314E+004  0.2138200E+02  0.7546771E-02  0.1719164E+00
         21   -1    0    0  503  502  0.00000000000E+00  0.00000000000E+00  0.13709297383E+01  0.13709297383E+01  0.00000000000E+00 0.  1.
         21   -1    0    0  501  503 -0.00000000000E+00 -0.00000000000E+00 -0.38225468531E+03  0.38225468531E+03  0.00000000000E+00 0.  1.
          4    1    1    2  501    0  0.68674399786E+01 -0.20249151285E+02 -0.12193111946E+03  0.12379171116E+03  0.00000000000E+00 0. -1.
         -4    1    1    2    0  502 -0.68674399786E+01  0.20249151285E+02 -0.25895263611E+03  0.25983390389E+03  0.00000000000E+00 0.  1.
<mgrwt>
<rscale>  2 0.21381998E+02</rscale>
<asrwt>0</asrwt>
<pdfrwt beam="1">  1       21 0.21091207E-03 0.21381998E+02</pdfrwt>
<pdfrwt beam="2">  1       21 0.58808469E-01 0.21381998E+02</pdfrwt>
<totfact> 0.80917339E+07</totfact>
</mgrwt>
</event>
<event>
 4    1  0.7478314E+004  0.2132006E+02  0.7546771E-02  0.1720284E+00
         21   -1    0    0  501  502  0.00000000000E+00  0.00000000000E+00  0.21079294478E+04  0.21079294478E+04  0.00000000000E+00 0.  1.
         21   -1    0    0  502  503 -0.00000000000E+00 -0.00000000000E+00 -0.22201507863E+00  0.22201507863E+00  0.00000000000E+00 0.  1.
          1    1    1    2  501    0  0.86937399855E+01  0.19466996657E+02  0.12325296361E+04  0.12327140175E+04  0.00000000000E+00 0.  1.
         -1    1    1    2    0  503 -0.86937399855E+01 -0.19466996657E+02  0.87517779662E+03  0.87543744538E+03  0.00000000000E+00 0. -1.
<mgrwt>
<rscale>  2 0.21320063E+02</rscale>
<asrwt>0</asrwt>
<pdfrwt beam="1">  1       21 0.32428081E+00 0.21320063E+02</pdfrwt>
<pdfrwt beam="2">  1       21 0.34157854E-04 0.21320063E+02</pdfrwt>
<totfact> 0.16860079E+07</totfact>
</mgrwt>
</event>
<event>
 4    1  0.7478314E+004  0.2175478E+02  0.7546771E-02  0.1712528E+00
         21   -1    0    0  501  502  0.00000000000E+00  0.00000000000E+00  0.39848380994E+02  0.39848380994E+02  0.00000000000E+00 0. -1.
         21   -1    0    0  502  503 -0.00000000000E+00 -0.00000000000E+00 -0.22566276011E+02  0.22566276011E+02  0.00000000000E+00 0. -1.
          4    1    1    2  501    0 -0.18221305209E+02 -0.11885056506E+02  0.30119615396E+02  0.37154565847E+02  0.00000000000E+00 0. -1.
         -4    1    1    2    0  503  0.18221305209E+02  0.11885056506E+02 -0.12837510414E+02  0.25260091158E+02  0.00000000000E+00 0.  1.
<mgrwt>
<rscale>  2 0.21754782E+02</rscale>
<asrwt>0</asrwt>
<pdfrwt beam="1">  1       21 0.61305201E-02 0.21754782E+02</pdfrwt>
<pdfrwt beam="2">  1       21 0.34717348E-02 0.21754782E+02</pdfrwt>
<totfact> 0.64858577E+07</totfact>
</mgrwt>
</event>
<event>
 4    1  0.7478314E+004  0.3115800E+02  0.7546771E-02  0.1585630E+00
         21   -1    0    0  503  502  0.00000000000E+00  0.00000000000E+00  0.82989784427E+03  0.82989784427E+03  0.00000000000E+00 0.  1.
         21   -1    0    0  501  503 -0.00000000000E+00 -0.00000000000E+00 -0.14171128447E+01  0.14171128447E+01  0.00000000000E+00 0.  1.
          4    1    1    2  501    0  0.30014655872E+02  0.83630991667E+01  0.24060033877E+03  0.24260944749E+03  0.00000000000E+00 0. -1.
         -4    1    1    2    0  502 -0.30014655872E+02 -0.83630991667E+01  0.58788039265E+03  0.58870550962E+03  0.00000000000E+00 0.  1.
<mgrwt>
<rscale>  2 0.31158000E+02</rscale>
<asrwt>0</asrwt>
<pdfrwt beam="1">  1       21 0.12767620E+00 0.31158000E+02</pdfrwt>
<pdfrwt beam="2">  1       21 0.21801802E-03 0.31158000E+02</pdfrwt>
<totfact> 0.15744548E+07</totfact>
</mgrwt>
</event>
<event>
 4    1  0.7478314E+004  0.9284061E+02  0.7546771E-02  0.1296115E+00
         21   -1    0    0  501  502  0.00000000000E+00  0.00000000000E+00  0.38696912579E+02  0.38696912579E+02  0.00000000000E+00 0.  1.
         21   -1    0    0  502  503 -0.00000000000E+00 -0.00000000000E+00 -0.30482069649E+03  0.30482069649E+03  0.00000000000E+00 0.  1.
          2    1    1    2  501    0  0.68477873190E+02 -0.62690987840E+02 -0.43933651461E+02  0.10271097704E+03  0.00000000000E+00 0.  1.
         -2    1    1    2    0  503 -0.68477873190E+02  0.62690987840E+02 -0.22219013245E+03  0.24080663204E+03  0.00000000000E+00 0. -1.
<mgrwt>
<rscale>  2 0.92840611E+02</rscale>
<asrwt>0</asrwt>
<pdfrwt beam="1">  1       21 0.59533712E-02 0.92840611E+02</pdfrwt>
<pdfrwt beam="2">  1       21 0.46895492E-01 0.92840611E+02</pdfrwt>
<totfact> 0.87060254E+05</totfact>
</mgrwt>
</event>
<event>
 4    1  0.7478314E+004  0.5237053E+02  0.7546771E-02  0.1432959E+00
         21   -1    0    0  503  502  0.00000000000E+00  0.00000000000E+00  0.71084999154E+02  0.71084999154E+02  0.00000000000E+00 0. -1.
         21   -1    0    0  501  503 -0.00000000000E+00 -0.00000000000E+00 -0.38646889068E+02  0.38646889068E+02  0.00000000000E+00 0. -1.
          2    1    1    2  501    0 -0.51890672617E+02  0.70732027316E+01  0.18449949299E+02  0.55525424183E+02  0.00000000000E+00 0. -1.
         -2    1    1    2    0  502  0.51890672617E+02 -0.70732027316E+01  0.13988160786E+02  0.54206464040E+02  0.00000000000E+00 0.  1.
<mgrwt>
<rscale>  2 0.52370527E+02</rscale>
<asrwt>0</asrwt>
<pdfrwt beam="1">  1       21 0.10936154E-01 0.52370527E+02</pdfrwt>
<pdfrwt beam="2">  1       21 0.59456752E-02 0.52370527E+02</pdfrwt>
<totfact> 0.12393404E+07</totfact>
</mgrwt>
</event>
<event>
 4    1  0.7478314E+004  0.2612579E+02  0.7546771E-02  0.1645339E+00
         21   -1    0    0  503  502  0.00000000000E+00  0.00000000000E+00  0.13719085061E+02  0.13719085061E+02  0.00000000000E+00 0. -1.
         21   -1    0    0  501  503 -0.00000000000E+00 -0.00000000000E+00 -0.80496081851E+02  0.80496081851E+02  0.00000000000E+00 0. -1.
          3    1    1    2  501    0 -0.56655816833E+01 -0.25504081947E+02 -0.62501138915E+02  0.67741784575E+02  0.00000000000E+00 0. -1.
         -3    1    1    2    0  502  0.56655816833E+01  0.25504081947E+02 -0.42758578754E+01  0.26473382337E+02  0.00000000000E+00 0.  1.
<mgrwt>
<rscale>  2 0.26125792E+02</rscale>
<asrwt>0</asrwt>
<pdfrwt beam="1">  1       21 0.21106285E-02 0.26125792E+02</pdfrwt>
<pdfrwt beam="2">  1       21 0.12384012E-01 0.26125792E+02</pdfrwt>
<totfact> 0.46361190E+07</totfact>
</mgrwt>
</event>
<event>
 4    1  0.7478314E+004  0.2048034E+02  0.7546771E-02  0.1735941E+00
         21   -1    0    0  501  502  0.00000000000E+00  0.00000000000E+00  0.33466208018E+00  0.33466208018E+00  0.00000000000E+00 0. -1.
         21   -1    0    0  502  503 -0.00000000000E+00 -0.00000000000E+00 -0.12774166793E+04  0.12774166793E+04  0.00000000000E+00 0. -1.
          1    1    1    2  501    0 -0.19878633909E+02  0.49279125194E+01 -0.72625610030E+03  0.72654481460E+03  0.00000000000E+00 0. -1.
         -1    1    1    2    0  503  0.19878633909E+02 -0.49279125194E+01 -0.55082591689E+03  0.55120652675E+03  0.00000000000E+00 0.  1.
<mgrwt>
<rscale>  2 0.20480342E+02</rscale>
<asrwt>0</asrwt>
<pdfrwt beam="1">  1       21 0.51485939E-04 0.20480342E+02</pdfrwt>
<pdfrwt beam="2">  1       21 0.19652768E+00 0.20480342E+02</pdfrwt>
<totfact> 0.40792165E+07</totfact>
</mgrwt>
</event>
<event>
 4    1  0.7478314E+004  0.2042269E+02  0.7546771E-02  0.1737051E+00
         21   -1    0    0  501  502  0.00000000000E+00  0.00000000000E+00  0.38558304071E+02  0.38558304071E+02  0.00000000000E+00 0.  1.
         21   -1    0    0  502  503 -0.00000000000E+00 -0.00000000000E+00 -0.24256302514E+02  0.24256302514E+02  0.00000000000E+00 0.  1.
          5    1    1    2  501    0 -0.12165052032E+02  0.16404200706E+02 -0.16226939523E+02  0.26084475422E+02  0.00000000000E+00 0.  1.
         -5    1    1    2    0  503  0.12165052032E+02 -0.16404200706E+02  0.30528941080E+02  0.36730131162E+02  0.00000000000E+00 0. -1.
<mgrwt>
<rscale>  2 0.20422691E+02</rscale>
<asrwt>0</asrwt>
<pdfrwt beam="1">  1       21 0.59320468E-02 0.20422691E+02</pdfrwt>
<pdfrwt beam="2">  1       21 0.37317389E-02 0.20422691E+02</pdfrwt>
<totfact> 0.60019227E+07</totfact>
</mgrwt>
</event>
<event>
 4    1  0.7478314E+004  0.2348473E+02  0.7546771E-02  0.1683771E+00
         21   -1    0    0  503  502  0.00000000000E+00  0.00000000000E+00  0.65410313714E+02  0.65410313714E+02  0.00000000000E+00 0. -1.
         21   -1    0    0  501  503 -0.00000000000E+00 -0.00000000000E+00 -0.87461056345E+01  0.87461056345E+01  0.00000000000E+00 0. -1.
          3    1    1    2  501    0 -0.18562216941E+02 -0.14386688878E+02  0.21304233301E+02  0.31708091573E+02  0.00000000000E+00 0. -1.
         -3    1    1    2    0  502  0.18562216941E+02  0.14386688878E+02  0.35359974779E+02  0.42448327776E+02  0.00000000000E+00 0.  1.
<mgrwt>
<rscale>  2 0.23484734E+02</rscale>
<asrwt>0</asrwt>
<pdfrwt beam="1">  1       21 0.10063125E-01 0.23484734E+02</pdfrwt>
<pdfrwt beam="2">  1       21 0.13455548E-02 0.23484734E+02</pdfrwt>
<totfact> 0.12702640E+08</totfact>
</mgrwt>
</event>
<event>
 4    1  0.7478314E+004  0.2009146E+02  0.7546771E-02  0.1743515E+00
         21   -1    0    0  503  502  0.00000000000E+00  0.00000000000E+00  0.17641609893E+02  0.17641609893E+02  0.00000000000E+00 0.  1.
         21   -1    0    0  501  503 -0.00000000000E+00 -0.00000000000E+00 -0.30096513889E+02  0.30096513889E+02  0.00000000000E+00 0.  1.
          3    1    1    2  501    0 -0.74495740461E+01 -0.18659334847E+02 -0.17914238213E+02  0.26918151147E+02  0.00000000000E+00 0.  1.
         -3    1    1    2    0  502  0.74495740461E+01  0.18659334847E+02  0.54593342173E+01  0.20819972635E+02  0.00000000000E+00 0. -1.
<mgrwt>
<rscale>  2 0.20091464E+02</rscale>
<asrwt>0</asrwt>
<pdfrwt beam="1">  1       21 0.27140939E-02 0.20091464E+02</pdfrwt>
<pdfrwt beam="2">  1       21 0.46302328E-02 0.20091464E+02</pdfrwt>
<totfact> 0.14512126E+08</totfact>
</mgrwt>
</event>
<event>
 4    1  0.7478314E+004  0.2148639E+02  0.7546771E-02  0.1717289E+00
         21   -1    0    0  503  502  0.00000000000E+00  0.00000000000E+00  0.16217415809E+01  0.16217415809E+01  0.00000000000E+00 0. -1.
         21   -1    0    0  501  503 -0.00000000000E+00 -0.00000000000E+00 -0.28490076737E+03  0.28490076737E+03  0.00000000000E+00 0. -1.
          3    1    1    2  501    0  0.21414620542E+02  0.17547050594E+01 -0.14569609846E+03  0.14727191880E+03  0.00000000000E+00 0. -1.
         -3    1    1    2    0  502 -0.21414620542E+02 -0.17547050594E+01 -0.13758292733E+03  0.13925059015E+03  0.00000000000E+00 0.  1.
<mgrwt>
<rscale>  2 0.21486390E+02</rscale>
<asrwt>0</asrwt>
<pdfrwt beam="1">  1       21 0.24949905E-03 0.21486390E+02</pdfrwt>
<pdfrwt beam="2">  1       21 0.43830827E-01 0.21486390E+02</pdfrwt>
<totfact> 0.11250464E+08</totfact>
</mgrwt>
</event>
<event>
 4    1  0.7478314E+004  0.2019723E+02  0.7546771E-02  0.1741434E+00
         21   -1    0    0  503  502  0.00000000000E+00  0.00000000000E+00  0.25304999502E+01  0.25304999502E+01  0.00000000000E+00 0. -1.
         21   -1    0    0  501  503 -0.00000000000E+00 -0.00000000000E+00 -0.16987388340E+03  0.16987388340E+03  0.00000000000E+00 0. -1.
          4    1    1    2  501    0  0.19168167669E+02  0.63646965962E+01 -0.10314540429E+03  0.10510424559E+03  0.00000000000E+00 0.  1.
         -4    1    1    2    0  502 -0.19168167669E+02 -0.63646965962E+01 -0.64197979154E+02  0.67300137756E+02  0.00000000000E+00 0. -1.
<mgrwt>
<rscale>  2 0.20197228E+02</rscale>
<asrwt>0</asrwt>
<pdfrwt beam="1">  1       21 0.38930775E-03 0.20197228E+02</pdfrwt>
<pdfrwt beam="2">  1       21 0.26134439E-01 0.20197228E+02</pdfrwt>
<totfact> 0.14979128E+08</totfact>
</mgrwt>
</event>
<event>
 4    1  0.7478314E+004  0.3053108E+02  0.7546771E-02  0.1592291E+00
         21   -1    0    0  501  502  0.00000000000E+00  0.00000000000E+00  0.54826417005E+03  0.54826417005E+03  0.00000000000E+00 0. -1.
         21   -1    0    0  502  503 -0.00000000000E+00 -0.00000000000E+00 -0.17430711837E+01  0.17430711837E+01  0.00000000000E+00 0. -1.
          2    1    1    2  501    0 -0.28978500289E+02 -0.96121326982E+01  0.31640013521E+03  0.31786977229E+03  0.00000000000E+00 0. -1.
         -2    1    1    2    0  503  0.28978500289E+02  0.96121326982E+01  0.23012096365E+03  0.23213746894E+03  0.00000000000E+00 0.  1.
<mgrwt>
<rscale>  2 0.30531076E+02</rscale>
<asrwt>0</asrwt>
<pdfrwt beam="1">  1       21 0.84348196E-01 0.30531076E+02</pdfrwt>
<pdfrwt beam="2">  1       21 0.26816523E-03 0.30531076E+02</pdfrwt>
<totfact> 0.29262555E+07</totfact>
</mgrwt>
</event>
<event>
 4    1  0.7478314E+004  0.3372678E+02  0.7546771E-02  0.1560207E+00
         21   -1    0    0  501  502  0.00000000000E+00  0.00000000000E+00  0.63880604531E+02  0.63880604531E+02  0.00000000000E+00 0. -1.
         21   -1    0    0  502  503 -0.00000000000E+00 -0.00000000000E+00 -0.17948916021E+02  0.17948916021E+02  0.00000000000E+00 0. -1.
          1    1    1    2  501    0  0.18247311975E+02 -0.28364262742E+02  0.19322488441E+02  0.38869709991E+02  0.00000000000E+00 0.  1.
         -1    1    1    2    0  503 -0.18247311975E+02  0.28364262742E+02  0.26609200069E+02  0.42959810562E+02  0.00000000000E+00 0. -1.
<mgrwt>
<rscale>  2 0.33726782E+02</rscale>
<asrwt>0</asrwt>
<pdfrwt beam="1">  1       21 0.98277852E-02 0.33726782E+02</pdfrwt>
<pdfrwt beam="2">  1       21 0.27613717E-02 0.33726782E+02</pdfrwt>
<totfact> 0.47588161E+07</totfact>
</mgrwt>
</event>
<event>
 4    1  0.7478314E+004  0.3007867E+02  0.7546771E-02  0.1597221E+00
         21   -1    0    0  503  502  0.00000000000E+00  0.00000000000E+00  0.45413901050E+02  0.45413901050E+02  0.00000000000E+00 0. -1.
         21   -1    0    0  501  503 -0.00000000000E+00 -0.00000000000E+00 -0.22042586231E+02  0.22042586231E+02  0.00000000000E+00 0. -1.
          5    1    1    2  501    0  0.18579964508E+02 -0.23653996330E+02  0.12237476800E+01  0.30103557628E+02  0.00000000000E+00 0.  1.
         -5    1    1    2    0  502 -0.18579964508E+02  0.23653996330E+02  0.22147567139E+02  0.37352929653E+02  0.00000000000E+00 0. -1.
<mgrwt>
<rscale>  2 0.30078674E+02</rscale>
<asrwt>0</asrwt>
<pdfrwt beam="1">  1       21 0.69867540E-02 0.30078674E+02</pdfrwt>
<pdfrwt beam="2">  1       21 0.33911671E-02 0.30078674E+02</pdfrwt>
<totfact> 0.59084305E+07</totfact>
</mgrwt>
</event>
<event>
 4    1  0.7478314E+004  0.2334396E+02  0.7546771E-02  0.1685995E+00
         21   -1    0    0  503  502  0.00000000000E+00  0.00000000000E+00  0.17298921716E+03  0.17298921716E+03  0.00000000000E+00 0. -1.
         21   -1    0    0  501  503 -0.00000000000E+00 -0.00000000000E+00 -0.32050619895E+01  0.32050619895E+01  0.00000000000E+00 0. -1.
          1    1    1    2  501    0 -0.15108820100E+02  0.17795056287E+02  0.96424264720E+02  0.99209774215E+02  0.00000000000E+00 0.  1.
         -1    1    1    2    0  502  0.15108820100E+02 -0.17795056287E+02  0.73359890448E+02  0.76984504932E+02  0.00000000000E+00 0. -1.
<mgrwt>
<rscale>  2 0.23343960E+02</rscale>
<asrwt>0</asrwt>
<pdfrwt beam="1">  1       21 0.26613718E-01 0.23343960E+02</pdfrwt>
<pdfrwt beam="2">  1       21 0.49308659E-03 0.23343960E+02</pdfrwt>
<totfact> 0.10683004E+08</totfact>
</mgrwt>
</event>
<event>
 4    1  0.7478314E+004  0.4976587E+02  0.7546771E-02  0.1446608E+00
         21   -1    0    0  503  502  0.00000000000E+00  0.00000000000E+00  0.12018544728E+03  0.12018544728E+03  0.00000000000E+00 0.  1.
         21   -1    0    0  501  503 -0.00000000000E+00 -0.00000000000E+00 -0.34583241569E+02  0.34583241569E+02  0.00000000000E+00 0.  1.
          4    1    1    2  501    0 -0.11870062389E+02  0.48329529022E+02 -0.63935626186E+01  0.50174888137E+02  0.00000000000E+00 0.  1.
         -4    1    1    2    0  502  0.11870062389E+02 -0.48329529022E+02  0.91995768329E+02  0.10459380071E+03  0.00000000000E+00 0. -1.
<mgrwt>
<rscale>  2 0.49765869E+02</rscale>
<asrwt>0</asrwt>
<pdfrwt beam="1">  1       21 0.18490069E-01 0.49765869E+02</pdfrwt>
<pdfrwt beam="2">  1       21 0.53204988E-02 0.49765869E+02</pdfrwt>
<totfact> 0.59088541E+06</totfact>
</mgrwt>
</event>
<event>
 4    1  0.7478314E+004  0.3188516E+02  0.7546771E-02  0.1578139E+00
         21   -1    0    0  503  502  0.00000000000E+00  0.00000000000E+00  0.52146295096E+02  0.52146295096E+02  0.00000000000E+00 0.  1.
         21   -1    0    0  501  503 -0.00000000000E+00 -0.00000000000E+00 -0.21159704922E+02  0.21159704922E+02  0.00000000000E+00 0.  1.
          4    1    1    2  501    0  0.68509939343E+01 -0.31140446150E+02  0.25769777270E+02  0.40996889210E+02  0.00000000000E+00 0.  1.
         -4    1    1    2    0  502 -0.68509939343E+01  0.31140446150E+02  0.52168129038E+01  0.32309110808E+02  0.00000000000E+00 0. -1.
<mgrwt>
<rscale>  2 0.31885161E+02</rscale>
<asrwt>0</asrwt>
<pdfrwt beam="1">  1       21 0.80225069E-02 0.31885161E+02</pdfrwt>
<pdfrwt beam="2">  1       21 0.32553392E-02 0.31885161E+02</pdfrwt>
<totfact> 0.50855287E+07</totfact>
</mgrwt>
</event>
<event>
 4    1  0.7478314E+004  0.2751057E+02  0.7546771E-02  0.1627357E+00
         21   -1    0    0  503  502  0.00000000000E+00  0.00000000000E+00  0.78673702957E+02  0.78673702957E+02  0.00000000000E+00 0.  1.
         21   -1    0    0  501  503 -0.00000000000E+00 -0.00000000000E+00 -0.10815162908E+02  0.10815162908E+02  0.00000000000E+00 0.  1.
          4    1    1    2  501    0 -0.16599366115E+01  0.27460442470E+02  0.19054217661E+02  0.33464824830E+02  0.00000000000E+00 0. -1.
         -4    1    1    2    0  502  0.16599366115E+01 -0.27460442470E+02  0.48804322388E+02  0.56024041036E+02  0.00000000000E+00 0.  1.
<mgrwt>
<rscale>  2 0.27510567E+02</rscale>
<asrwt>0</asrwt>
<pdfrwt beam="1">  1       21 0.12103646E-01 0.27510567E+02</pdfrwt>
<pdfrwt beam="2">  1       21 0.16638713E-02 0.27510567E+02</pdfrwt>
<totfact> 0.70355919E+07</totfact>
</mgrwt>
</event>
<event>
 4    1  0.7478314E+004  0.2525559E+02  0.7546771E-02  0.1657358E+00
         21   -1    0    0  503  502  0.00000000000E+00  0.00000000000E+00  0.42046282277E+01  0.42046282277E+01  0.00000000000E+00 0.  1.
         21   -1    0    0  501  503 -0.00000000000E+00 -0.00000000000E+00 -0.17383800616E+03  0.17383800616E+03  0.00000000000E+00 0.  1.
          2    1    1    2  501    0 -0.95879068022E+01  0.23364865467E+02 -0.53049090400E+02  0.58754156341E+02  0.00000000000E+00 0. -1.
         -2    1    1    2    0  502  0.95879068022E+01 -0.23364865467E+02 -0.11658428754E+03  0.11928847805E+03  0.00000000000E+00 0.  1.
<mgrwt>
<rscale>  2 0.25255591E+02</rscale>
<asrwt>0</asrwt>
<pdfrwt beam="1">  1       21 0.64686586E-03 0.25255591E+02</pdfrwt>
<pdfrwt beam="2">  1       21 0.26744310E-01 0.25255591E+02</pdfrwt>
<totfact> 0.72269501E+07</totfact>
</mgrwt>
</event>
<event>
 4    1  0.7478314E+004  0.2408488E+02  0.7546771E-02  0.1674505E+00
         21   -1    0    0  503  502  0.00000000000E+00  0.00000000000E+00  0.20923102700E+02  0.20923102700E+02  0.00000000000E+00 0.  1.
         21   -1    0    0  501  503 -0.00000000000E+00 -0.00000000000E+00 -0.34416218397E+02  0.34416218397E+02  0.00000000000E+00 0.  1.
          4    1    1    2  501    0  0.11378433804E+01 -0.24057988237E+02  0.54543670168E+01  0.24694768780E+02  0.00000000000E+00 0. -1.
         -4    1    1    2    0  502 -0.11378433804E+01  0.24057988237E+02 -0.18947482713E+02  0.30644552317E+02  0.00000000000E+00 0.  1.
<mgrwt>
<rscale>  2 0.24084881E+02</rscale>
<asrwt>0</asrwt>
<pdfrwt beam="1">  1       21 0.32189389E-02 0.24084881E+02</pdfrwt>
<pdfrwt beam="2">  1       21 0.52948028E-02 0.24084881E+02</pdfrwt>
<totfact> 0.94971705E+07</totfact>
</mgrwt>
</event>
<event>
 4    1  0.7478314E+004  0.2014073E+02  0.7546771E-02  0.1742544E+00
         21   -1    0    0  503  502  0.00000000000E+00  0.00000000000E+00  0.23494441285E+02  0.23494441285E+02  0.00000000000E+00 0.  1.
         21   -1    0    0  501  503 -0.00000000000E+00 -0.00000000000E+00 -0.23496337777E+02  0.23496337777E+02  0.00000000000E+00 0.  1.
          4    1    1    2  501    0 -0.15670153071E+02  0.12652872307E+02 -0.12099892566E+02  0.23495877830E+02  0.00000000000E+00 0. -1.
         -4    1    1    2    0  502  0.15670153071E+02 -0.12652872307E+02  0.12097996074E+02  0.23494901232E+02  0.00000000000E+00 0.  1.
<mgrwt>
<rscale>  2 0.20140727E+02</rscale>
<asrwt>0</asrwt>
<pdfrwt beam="1">  1       21 0.36145294E-02 0.20140727E+02</pdfrwt>
<pdfrwt beam="2">  1       21 0.36148212E-02 0.20140727E+02</pdfrwt>
<totfact> 0.13730699E+08</totfact>
</mgrwt>
</event>
<event>
 4    1  0.7478314E+004  0.2652073E+02  0.7546771E-02  0.1640073E+00
         21   -1    0    0  501  502  0.00000000000E+00  0.00000000000E+00  0.22556633591E+03  0.22556633591E+03  0.00000000000E+00 0. -1.
         21   -1    0    0  502  503 -0.00000000000E+00 -0.00000000000E+00 -0.34160303573E+01  0.34160303573E+01  0.00000000000E+00 0. -1.
          5    1    1    2  501    0  0.23889909322E+02 -0.11516135444E+02  0.77266036440E+02  0.81690816681E+02  0.00000000000E+00 0. -1.
         -5    1    1    2    0  503 -0.23889909322E+02  0.11516135444E+02  0.14488426911E+03  0.14729154958E+03  0.00000000000E+00 0.  1.
<mgrwt>
<rscale>  2 0.26520730E+02</rscale>
<asrwt>0</asrwt>
<pdfrwt beam="1">  1       21 0.34702501E-01 0.26520730E+02</pdfrwt>
<pdfrwt beam="2">  1       21 0.52554331E-03 0.26520730E+02</pdfrwt>
<totfact> 0.61774318E+07</totfact>
</mgrwt>
</event>
<event>
 4    1  0.7478314E+004  0.2009653E+02  0.7546771E-02  0.1743415E+00
         21   -1    0    0  503  502  0.00000000000E+00  0.00000000000E+00  0.13738742571E+01  0.13738742571E+01  0.00000000000E+00 0.  1.
         21   -1    0    0  501  503 -0.00000000000E+00 -0.00000000000E+00 -0.30032868803E+03  0.30032868803E+03  0.00000000000E+00 0.  1.
          4    1    1    2  501    0 -0.14240396220E+02  0.14180329365E+02 -0.12751838472E+03  0.12909225022E+03  0.00000000000E+00 0.  1.
         -4    1    1    2    0  502  0.14240396220E+02 -0.14180329365E+02 -0.17143642906E+03  0.17261031207E+03  0.00000000000E+00 0. -1.
<mgrwt>
<rscale>  2 0.20096533E+02</rscale>
<asrwt>0</asrwt>
<pdfrwt beam="1">  1       21 0.21136506E-03 0.20096533E+02</pdfrwt>
<pdfrwt beam="2">  1       21 0.46204459E-01 0.20096533E+02</pdfrwt>
<totfact> 0.12688081E+08</totfact>
</mgrwt>
</event>
<event>
 4    1  0.7478314E+004  0.3796913E+02  0.7546771E-02  0.1523711E+00
         21   -1    0    0  501  502  0.00000000000E+00  0.00000000000E+00  0.11471553365E+02  0.11471553365E+02  0.00000000000E+00 0. -1.
         21   -1    0    0  502  503 -0.00000000000E+00 -0.00000000000E+00 -0.13548462061E+03  0.13548462061E+03  0.00000000000E+00 0. -1.
          5    1    1    2  501    0  0.81066744100E+01  0.37093618197E+02 -0.81780883192E+02  0.90165223544E+02  0.00000000000E+00 0.  1.
         -5    1    1    2    0  503 -0.81066744100E+01 -0.37093618197E+02 -0.42232184050E+02  0.56790950428E+02  0.00000000000E+00 0. -1.
<mgrwt>
<rscale>  2 0.37969128E+02</rscale>
<asrwt>0</asrwt>
<pdfrwt beam="1">  1       21 0.17648544E-02 0.37969128E+02</pdfrwt>
<pdfrwt beam="2">  1       21 0.20843787E-01 0.37969128E+02</pdfrwt>
<totfact> 0.26725870E+07</totfact>
</mgrwt>
</event>
<event>
 4    1  0.7478314E+004  0.2068824E+02  0.7546771E-02  0.1731978E+00
         21   -1    0    0  503  502  0.00000000000E+00  0.00000000000E+00  0.10412178762E+02  0.10412178762E+02  0.00000000000E+00 0. -1.
         21   -1    0    0  501  503 -0.00000000000E+00 -0.00000000000E+00 -0.41222341018E+02  0.41222341018E+02  0.00000000000E+00 0. -1.
          4    1    1    2  501    0  0.20235015827E+02  0.43066676617E+01 -0.16776495579E+02  0.26635578758E+02  0.00000000000E+00 0. -1.
         -4    1    1    2    0  502 -0.20235015827E+02 -0.43066676617E+01 -0.14033666677E+02  0.24998941023E+02  0.00000000000E+00 0.  1.
<mgrwt>
<rscale>  2 0.20688239E+02</rscale>
<asrwt>0</asrwt>
<pdfrwt beam="1">  1       21 0.16018736E-02 0.20688239E+02</pdfrwt>
<pdfrwt beam="2">  1       21 0.63418987E-02 0.20688239E+02</pdfrwt>
<totfact> 0.19899090E+08</totfact>
</mgrwt>
</event>
<event>
 4    1  0.7478314E+004  0.3375256E+02  0.7546771E-02  0.1559966E+00
         21   -1    0    0  501  502  0.00000000000E+00  0.00000000000E+00  0.13356099222E+02  0.13356099222E+02  0.00000000000E+00 0.  1.
         21   -1    0    0  502  503 -0.00000000000E+00 -0.00000000000E+00 -0.85493941770E+02  0.85493941770E+02  0.00000000000E+00 0.  1.
          5    1    1    2  501    0  0.27358188107E+02 -0.19767772058E+02 -0.33696771773E+02  0.47693895799E+02  0.00000000000E+00 0. -1.
         -5    1    1    2    0  503 -0.27358188107E+02  0.19767772058E+02 -0.38441070776E+02  0.51156145193E+02  0.00000000000E+00 0.  1.
<mgrwt>
<rscale>  2 0.33752559E+02</rscale>
<asrwt>0</asrwt>
<pdfrwt beam="1">  1       21 0.20547845E-02 0.33752559E+02</pdfrwt>
<pdfrwt beam="2">  1       21 0.13152914E-01 0.33752559E+02</pdfrwt>
<totfact> 0.46139682E+07</totfact>
</mgrwt>
</event>
<event>
 4    1  0.7478314E+004  0.3627414E+02  0.7546771E-02  0.1537568E+00
         21   -1    0    0  503  502  0.00000000000E+00  0.00000000000E+00  0.43497983363E+01  0.43497983363E+01  0.00000000000E+00 0.  1.
         21   -1    0    0  501  503 -0.00000000000E+00 -0.00000000000E+00 -0.30276880386E+03  0.30276880386E+03  0.00000000000E+00 0.  1.
          3    1    1    2  501    0  0.35016060374E+02 -0.94704001456E+01 -0.14463198322E+03  0.14911144669E+03  0.00000000000E+00 0.  1.
         -3    1    1    2    0  502 -0.35016060374E+02  0.94704001456E+01 -0.15378702230E+03  0.15800715551E+03  0.00000000000E+00 0. -1.
<mgrwt>
<rscale>  2 0.36274136E+02</rscale>
<asrwt>0</asrwt>
<pdfrwt beam="1">  1       21 0.66919960E-03 0.36274136E+02</pdfrwt>
<pdfrwt beam="2">  1       21 0.46579826E-01 0.36274136E+02</pdfrwt>
<totfact> 0.26084584E+07</totfact>
</mgrwt>
</event>
<event>
 4    1  0.7478314E+004  0.2726029E+02  0.7546771E-02  0.1630510E+00
         21   -1    0    0  501  502  0.00000000000E+00  0.00000000000E+00  0.91170322983E+02  0.91170322983E+02  0.00000000000E+00 0.  1.
         21   -1    0    0  502  503 -0.00000000000E+00 -0.00000000000E+00 -0.85219606513E+01  0.85219606513E+01  0.00000000000E+00 0.  1.
          2    1    1    2  501    0 -0.19655276507E+02  0.18888972851E+02  0.30923424100E+02  0.41223553316E+02  0.00000000000E+00 0.  1.
         -2    1    1    2    0  503  0.19655276507E+02 -0.18888972851E+02  0.51724938232E+02  0.58468730318E+02  0.00000000000E+00 0. -1.
<mgrwt>
<rscale>  2 0.27260286E+02</rscale>
<asrwt>0</asrwt>
<pdfrwt beam="1">  1       21 0.14026203E-01 0.27260286E+02</pdfrwt>
<pdfrwt beam="2">  1       21 0.13110709E-02 0.27260286E+02</pdfrwt>
<totfact> 0.78690022E+07</totfact>
</mgrwt>
</event>
<event>
 4    1  0.7478314E+004  0.2129240E+02  0.7546771E-02  0.1720785E+00
         21   -1    0    0  501  502  0.00000000000E+00  0.00000000000E+00  0.14661294629E+02  0.14661294629E+02  0.00000000000E+00 0.  1.
         21   -1    0    0  502  503 -0.00000000000E+00 -0.00000000000E+00 -0.45715705393E+02  0.45715705393E+02  0.00000000000E+00 0.  1.
          4    1    1    2  501    0 -0.13106516308E+02  0.16780508107E+02  0.16454566880E+01  0.21355883259E+02  0.00000000000E+00 0.  1.
         -4    1    1    2    0  503  0.13106516308E+02 -0.16780508107E+02 -0.32699867452E+02  0.39021116763E+02  0.00000000000E+00 0. -1.
<mgrwt>
<rscale>  2 0.21292398E+02</rscale>
<asrwt>0</asrwt>
<pdfrwt beam="1">  1       21 0.22555838E-02 0.21292398E+02</pdfrwt>
<pdfrwt beam="2">  1       21 0.70331855E-02 0.21292398E+02</pdfrwt>
<totfact> 0.10079957E+08</totfact>
</mgrwt>
</event>
<event>
 4    1  0.7478314E+004  0.2400787E+02  0.7546771E-02  0.1675675E+00
         21   -1    0    0  501  502  0.00000000000E+00  0.00000000000E+00  0.53154889803E+00  0.53154889803E+00  0.00000000000E+00 0. -1.
         21   -1    0    0  502  503 -0.00000000000E+00 -0.00000000000E+00 -0.11684542723E+04  0.11684542723E+04  0.00000000000E+00 0. -1.
          3    1    1    2  501    0 -0.77004697264E+01 -0.22739409168E+02 -0.42713581012E+03  0.42780997913E+03  0.00000000000E+00 0. -1.
         -3    1    1    2    0  503  0.77004697264E+01  0.22739409168E+02 -0.74078691332E+03  0.74117584210E+03  0.00000000000E+00 0.  1.
<mgrwt>
<rscale>  2 0.24007873E+02</rscale>
<asrwt>0</asrwt>
<pdfrwt beam="1">  1       21 0.81777022E-04 0.24007873E+02</pdfrwt>
<pdfrwt beam="2">  1       21 0.17976161E+00 0.24007873E+02</pdfrwt>
<totfact> 0.27288589E+07</totfact>
</mgrwt>
</event>
<event>
 4    1  0.7478314E+004  0.2281403E+02  0.7546771E-02  0.1694542E+00
         21   -1    0    0  503  502  0.00000000000E+00  0.00000000000E+00  0.17991976887E+01  0.17991976887E+01  0.00000000000E+00 0.  1.
         21   -1    0    0  501  503 -0.00000000000E+00 -0.00000000000E+00 -0.30778227855E+03  0.30778227855E+03  0.00000000000E+00 0.  1.
          5    1    1    2  501    0 -0.17192362812E+02 -0.14996752718E+02 -0.11504401788E+03  0.11728429554E+03  0.00000000000E+00 0. -1.
         -5    1    1    2    0  502  0.17192362812E+02  0.14996752718E+02 -0.19093906298E+03  0.19229718069E+03  0.00000000000E+00 0.  1.
<mgrwt>
<rscale>  2 0.22814029E+02</rscale>
<asrwt>0</asrwt>
<pdfrwt beam="1">  1       21 0.27679970E-03 0.22814029E+02</pdfrwt>
<pdfrwt beam="2">  1       21 0.47351110E-01 0.22814029E+02</pdfrwt>
<totfact> 0.84794610E+07</totfact>
</mgrwt>
</event>
<event>
 4    1  0.7478314E+004  0.6364300E+02  0.7546771E-02  0.1383150E+00
         21   -1    0    0  501  502  0.00000000000E+00  0.00000000000E+00  0.28281579785E+02  0.28281579785E+02  0.00000000000E+00 0.  1.
         21   -1    0    0  502  503 -0.00000000000E+00 -0.00000000000E+00 -0.14364388766E+03  0.14364388766E+03  0.00000000000E+00 0.  1.
          3    1    1    2  501    0 -0.61175919194E+02  0.17548185016E+02 -0.53000532873E+02  0.82822028298E+02  0.00000000000E+00 0. -1.
         -3    1    1    2    0  503  0.61175919194E+02 -0.17548185016E+02 -0.62361775005E+02  0.89103439150E+02  0.00000000000E+00 0.  1.
<mgrwt>
<rscale>  2 0.63643003E+02</rscale>
<asrwt>0</asrwt>
<pdfrwt beam="1">  1       21 0.43510122E-02 0.63643003E+02</pdfrwt>
<pdfrwt beam="2">  1       21 0.22099060E-01 0.63643003E+02</pdfrwt>
<totfact> 0.60940258E+06</totfact>
</mgrwt>
</event>
<event>
 4    1  0.7478314E+004  0.2963495E+02  0.7546771E-02  0.1602159E+00
         21   -1    0    0  501  502  0.00000000000E+00  0.00000000000E+00  0.72101021085E+02  0.72101021085E+02  0.00000000000E+00 0. -1.
         21   -1    0    0  502  503 -0.00000000000E+00 -0.00000000000E+00 -0.18109078220E+02  0.18109078220E+02  0.00000000000E+00 0. -1.
          2    1    1    2  501    0 -0.88393255584E+01  0.28285975643E+02  0.11882039272E+01  0.29658757947E+02  0.00000000000E+00 0.  1.
         -2    1    1    2    0  503  0.88393255584E+01 -0.28285975643E+02  0.52803738938E+02  0.60551341358E+02  0.00000000000E+00 0. -1.
<mgrwt>
<rscale>  2 0.29634947E+02</rscale>
<asrwt>0</asrwt>
<pdfrwt beam="1">  1       21 0.11092465E-01 0.29634947E+02</pdfrwt>
<pdfrwt beam="2">  1       21 0.27860121E-02 0.29634947E+02</pdfrwt>
<totfact> 0.37281972E+07</totfact>
</mgrwt>
</event>
<event>
 4    1  0.7478314E+004  0.2532974E+02  0.7546771E-02  0.1656310E+00
         21   -1    0    0  501  502  0.00000000000E+00  0.00000000000E+00  0.12043396491E+02  0.12043396491E+02  0.00000000000E+00 0. -1.
         21   -1    0    0  502  503 -0.00000000000E+00 -0.00000000000E+00 -0.53444220104E+02  0.53444220104E+02  0.00000000000E+00 0. -1.
          2    1    1    2  501    0 -0.14214691703E+00  0.25329343787E+02 -0.22550157342E+02  0.33913204782E+02  0.00000000000E+00 0. -1.
         -2    1    1    2    0  503  0.14214691703E+00 -0.25329343787E+02 -0.18850666271E+02  0.31574411813E+02  0.00000000000E+00 0.  1.
<mgrwt>
<rscale>  2 0.25329743E+02</rscale>
<asrwt>0</asrwt>
<pdfrwt beam="1">  1       21 0.18528302E-02 0.25329743E+02</pdfrwt>
<pdfrwt beam="2">  1       21 0.82221876E-02 0.25329743E+02</pdfrwt>
<totfact> 0.11110792E+08</totfact>
</mgrwt>
</event>
<event>
 4    1  0.7478314E+004  0.2640930E+02  0.7546771E-02  0.1641547E+00
         21   -1    0    0  503  502  0.00000000000E+00  0.00000000000E+00  0.17952430205E+01  0.17952430205E+01  0.00000000000E+00 0.  1.
         21   -1    0    0  501  503 -0.00000000000E+00 -0.00000000000E+00 -0.49285898058E+03  0.49285898058E+03  0.00000000000E+00 0.  1.
          3    1    1    2  501    0 -0.23170005926E+02 -0.12672879343E+02 -0.13172294699E+03  0.13434428089E+03  0.00000000000E+00 0. -1.
         -3    1    1    2    0  502  0.23170005926E+02  0.12672879343E+02 -0.35934079057E+03  0.36030994271E+03  0.00000000000E+00 0.  1.
<mgrwt>
<rscale>  2 0.26409298E+02</rscale>
<asrwt>0</asrwt>
<pdfrwt beam="1">  1       21 0.27619113E-03 0.26409298E+02</pdfrwt>
<pdfrwt beam="2">  1       21 0.75824488E-01 0.26409298E+02</pdfrwt>
<totfact> 0.34190175E+07</totfact>
</mgrwt>
</event>
<event>
 4    1  0.7478314E+004  0.2026354E+02  0.7546771E-02  0.1740138E+00
         21   -1    0    0  501  502  0.00000000000E+00  0.00000000000E+00  0.15425495262E+03  0.15425495262E+03  0.00000000000E+00 0.  1.
         21   -1    0    0  502  503 -0.00000000000E+00 -0.00000000000E+00 -0.28077524381E+01  0.28077524381E+01  0.00000000000E+00 0.  1.
          4    1    1    2  501    0  0.10356883384E+02 -0.17416826317E+02  0.57824786592E+02  0.61272480094E+02  0.00000000000E+00 0. -1.
         -4    1    1    2    0  503 -0.10356883384E+02  0.17416826317E+02  0.93622413591E+02  0.95790224965E+02  0.00000000000E+00 0.  1.
<mgrwt>
<rscale>  2 0.20263536E+02</rscale>
<asrwt>0</asrwt>
<pdfrwt beam="1">  1       21 0.23731525E-01 0.20263536E+02</pdfrwt>
<pdfrwt beam="2">  1       21 0.43196203E-03 0.20263536E+02</pdfrwt>
<totfact> 0.15281796E+08</totfact>
</mgrwt>
</event>
<event>
 4    1  0.7478314E+004  0.2524329E+02  0.7546771E-02  0.1657532E+00
         21   -1    0    0  503  502  0.00000000000E+00  0.00000000000E+00  0.64290411387E+01  0.64290411387E+01  0.00000000000E+00 0. -1.
         21   -1    0    0  501  503 -0.00000000000E+00 -0.00000000000E+00 -0.10048803432E+03  0.10048803432E+03  0.00000000000E+00 0. -1.
          3    1    1    2  501    0 -0.23209464309E+02 -0.99269564588E+01 -0.53275066234E+02  0.58953001452E+02  0.00000000000E+00 0. -1.
         -3    1    1    2    0  502  0.23209464309E+02  0.99269564588E+01 -0.40783926948E+02  0.47964074007E+02  0.00000000000E+00 0.  1.
<mgrwt>
<rscale>  2 0.25243290E+02</rscale>
<asrwt>0</asrwt>
<pdfrwt beam="1">  1       21 0.98908337E-03 0.25243290E+02</pdfrwt>
<pdfrwt beam="2">  1       21 0.15459696E-01 0.25243290E+02</pdfrwt>
<totfact> 0.10013590E+08</totfact>
</mgrwt>
</event>
<event>
 4    1  0.7478314E+004  0.2010191E+02  0.7546771E-02  0.1743309E+00
         21   -1    0    0  503  502  0.00000000000E+00  0.00000000000E+00  0.63715195700E+01  0.63715195700E+01  0.00000000000E+00 0. -1.
         21   -1    0    0  501  503 -0.00000000000E+00 -0.00000000000E+00 -0.68320898264E+02  0.68320898264E+02  0.00000000000E+00 0. -1.
          5    1    1    2  501    0 -0.50459895802E+01  0.19458279569E+02 -0.40976384641E+02  0.45641546347E+02  0.00000000000E+00 0.  1.
         -5    1    1    2    0  502  0.50459895802E+01 -0.19458279569E+02 -0.20972994052E+02  0.29050871487E+02  0.00000000000E+00 0. -1.
<mgrwt>
<rscale>  2 0.20101907E+02</rscale>
<asrwt>0</asrwt>
<pdfrwt beam="1">  1       21 0.98023372E-03 0.20101907E+02</pdfrwt>
<pdfrwt beam="2">  1       21 0.10510908E-01 0.20101907E+02</pdfrwt>
<totfact> 0.18159170E+08</totfact>
</mgrwt>
</event>
<event>
 4    1  0.7478314E+004  0.2253367E+02  0.7546771E-02  0.1699183E+00
         21   -1    0    0  501  502  0.00000000000E+00  0.00000000000E+00  0.30351924068E+00  0.30351924068E+00  0.00000000000E+00 0.  1.
         21   -1    0    0  502  503 -0.00000000000E+00 -0.00000000000E+00 -0.17119818939E+04  0.17119818939E+04  0.00000000000E+00 0.  1.
          3    1    1    2  501    0 -0.12039496578E+02  0.19047756195E+02 -0.98514459886E+03  0.98540227682E+03  0.00000000000E+00 0.  1.
         -3    1    1    2    0  503  0.12039496578E+02 -0.19047756195E+02 -0.72653377581E+03  0.72688313633E+03  0.00000000000E+00 0. -1.
<mgrwt>
<rscale>  2 0.22533675E+02</rscale>
<asrwt>0</asrwt>
<pdfrwt beam="1">  1       21 0.46696270E-04 0.22533675E+02</pdfrwt>
<pdfrwt beam="2">  1       21 0.26337618E+00 0.22533675E+02</pdfrwt>
<totfact> 0.21440588E+07</totfact>
</mgrwt>
</event>
<event>
 4    1  0.7478314E+004  0.2131901E+02  0.7546771E-02  0.1720303E+00
         21   -1    0    0  503  502  0.00000000000E+00  0.00000000000E+00  0.14856979346E+02  0.14856979346E+02  0.00000000000E+00 0. -1.
         21   -1    0    0  501  503 -0.00000000000E+00 -0.00000000000E+00 -0.30673253913E+02  0.30673253913E+02  0.00000000000E+00 0. -1.
          5    1    1    2  501    0 -0.21318687495E+02  0.11665614163E+00 -0.67341862748E+01  0.22357309989E+02  0.00000000000E+00 0.  1.
         -5    1    1    2    0  502  0.21318687495E+02 -0.11665614163E+00 -0.90820882926E+01  0.23172923271E+02  0.00000000000E+00 0. -1.
<mgrwt>
<rscale>  2 0.21319007E+02</rscale>
<asrwt>0</asrwt>
<pdfrwt beam="1">  1       21 0.22856891E-02 0.21319007E+02</pdfrwt>
<pdfrwt beam="2">  1       21 0.47189621E-02 0.21319007E+02</pdfrwt>
<totfact> 0.18696595E+08</totfact>
</mgrwt>
</event>
<event>
 4    1  0.7478314E+004  0.2486788E+02  0.7546771E-02  0.1662907E+00
         21   -1    0    0  501  502  0.00000000000E+00  0.00000000000E+00  0.44521621899E+02  0.44521621899E+02  0.00000000000E+00 0.  1.
         21   -1    0    0  502  503 -0.00000000000E+00 -0.00000000000E+00 -0.15009216502E+02  0.15009216502E+02  0.00000000000E+00 0.  1.
          4    1    1    2  501    0 -0.23773754941E+02 -0.72952135050E+01  0.22883812925E+02  0.33794680914E+02  0.00000000000E+00 0. -1.
         -4    1    1    2    0  503  0.23773754941E+02  0.72952135050E+01  0.66285924716E+01  0.25736157488E+02  0.00000000000E+00 0.  1.
<mgrwt>
<rscale>  2 0.24867882E+02</rscale>
<asrwt>0</asrwt>
<pdfrwt beam="1">  1       21 0.68494802E-02 0.24867882E+02</pdfrwt>
<pdfrwt beam="2">  1       21 0.23091102E-02 0.24867882E+02</pdfrwt>
<totfact> 0.10609411E+08</totfact>
</mgrwt>
</event>
<event>
 4    1  0.7478314E+004  0.2504948E+02  0.7546771E-02  0.1660292E+00
         21   -1    0    0  503  502  0.00000000000E+00  0.00000000000E+00  0.21361139372E+03  0.21361139372E+03  0.00000000000E+00 0. -1.
         21   -1    0    0  501  503 -0.00000000000E+00 -0.00000000000E+00 -0.29374731433E+01  0.29374731433E+01  0.00000000000E+00 0. -1.
          1    1    1    2  501    0 -0.20407771351E+02 -0.14525810177E+02  0.10517297430E+03  0.10811489636E+03  0.00000000000E+00 0.  1.
         -1    1    1    2    0  502  0.20407771351E+02  0.14525810177E+02  0.10550094628E+03  0.10843397050E+03  0.00000000000E+00 0. -1.
<mgrwt>
<rscale>  2 0.25049477E+02</rscale>
<asrwt>0</asrwt>
<pdfrwt beam="1">  1       21 0.32863279E-01 0.25049477E+02</pdfrwt>
<pdfrwt beam="2">  1       21 0.45191911E-03 0.25049477E+02</pdfrwt>
<totfact> 0.84288334E+07</totfact>
</mgrwt>
</event>
<event>
 4    1  0.7478314E+004  0.3753445E+02  0.7546771E-02  0.1527181E+00
         21   -1    0    0  503  502  0.00000000000E+00  0.00000000000E+00  0.37388389911E+03  0.37388389911E+03  0.00000000000E+00 0.  1.
         21   -1    0    0  501  503 -0.00000000000E+00 -0.00000000000E+00 -0.44077574576E+01  0.44077574576E+01  0.00000000000E+00 0.  1.
          5    1    1    2  501    0 -0.71975486993E+01 -0.36837895532E+02  0.25679215939E+03  0.25952080529E+03  0.00000000000E+00 0. -1.
         -5    1    1    2    0  502  0.71975486993E+01  0.36837895532E+02  0.11268398226E+03  0.11877085128E+03  0.00000000000E+00 0.  1.
<mgrwt>
<rscale>  2 0.37534454E+02</rscale>
<asrwt>0</asrwt>
<pdfrwt beam="1">  1       21 0.57520575E-01 0.37534454E+02</pdfrwt>
<pdfrwt beam="2">  1       21 0.67811683E-03 0.37534454E+02</pdfrwt>
<totfact> 0.16883279E+07</totfact>
</mgrwt>
</event>
<event>
 4    1  0.7478314E+004  0.4151453E+02  0.7546771E-02  0.1497353E+00
         21   -1    0    0  503  502  0.00000000000E+00  0.00000000000E+00  0.11856758564E+02  0.11856758564E+02  0.00000000000E+00 0.  1.
         21   -1    0    0  501  503 -0.00000000000E+00 -0.00000000000E+00 -0.14549810677E+03  0.14549810677E+03  0.00000000000E+00 0.  1.
          1    1    1    2  501    0  0.55271230504E+01  0.41144948122E+02 -0.69275966944E+02  0.80762710710E+02  0.00000000000E+00 0. -1.
         -1    1    1    2    0  502 -0.55271230504E+01 -0.41144948122E+02 -0.64365381266E+02  0.76592154629E+02  0.00000000000E+00 0.  1.
<mgrwt>
<rscale>  2 0.41514526E+02</rscale>
<asrwt>0</asrwt>
<pdfrwt beam="1">  1       21 0.18241167E-02 0.41514526E+02</pdfrwt>
<pdfrwt beam="2">  1       21 0.22384324E-01 0.41514526E+02</pdfrwt>
<totfact> 0.22664286E+07</totfact>
</mgrwt>
</event>
<event>
 4    1  0.7478314E+004  0.2175111E+02  0.7546771E-02  0.1712592E+00
         21   -1    0    0  503  502  0.00000000000E+00  0.00000000000E+00  0.51899704724E+01  0.51899704724E+01  0.00000000000E+00 0.  1.
         21   -1    0    0  501  503 -0.00000000000E+00 -0.00000000000E+00 -0.11428086219E+03  0.11428086219E+03  0.00000000000E+00 0.  1.
          2    1    1    2  501    0  0.82395334498E+01  0.20130094482E+02 -0.81414970819E+02  0.84270446117E+02  0.00000000000E+00 0.  1.
         -2    1    1    2    0  502 -0.82395334498E+01 -0.20130094482E+02 -0.27675920898E+02  0.35200386545E+02  0.00000000000E+00 0. -1.
<mgrwt>
<rscale>  2 0.21751106E+02</rscale>
<asrwt>0</asrwt>
<pdfrwt beam="1">  1       21 0.79845717E-03 0.21751106E+02</pdfrwt>
<pdfrwt beam="2">  1       21 0.17581667E-01 0.21751106E+02</pdfrwt>
<totfact> 0.10620391E+08</totfact>
</mgrwt>
</event>
<event>
 4    1  0.7478314E+004  0.2023448E+02  0.7546771E-02  0.1740705E+00
         21   -1    0    0  501  502  0.00000000000E+00  0.00000000000E+00  0.14299954075E+03  0.14299954075E+03  0.00000000000E+00 0. -1.
         21   -1    0    0  502  503 -0.00000000000E+00 -0.00000000000E+00 -0.30827213117E+01  0.30827213117E+01  0.00000000000E+00 0. -1.
          2    1    1    2  501    0  0.18686131437E+01 -0.20148010464E+02  0.50466507409E+02  0.54371889896E+02  0.00000000000E+00 0. -1.
         -2    1    1    2    0  503 -0.18686131437E+01  0.20148010464E+02  0.89450312034E+02  0.91710372171E+02  0.00000000000E+00 0.  1.
<mgrwt>
<rscale>  2 0.20234477E+02</rscale>
<asrwt>0</asrwt>
<pdfrwt beam="1">  1       21 0.21999924E-01 0.20234477E+02</pdfrwt>
<pdfrwt beam="2">  1       21 0.47426493E-03 0.20234477E+02</pdfrwt>
<totfact> 0.15218450E+08</totfact>
</mgrwt>
</event>
<event>
 4    1  0.7478314E+004  0.2284033E+02  0.7546771E-02  0.1694111E+00
         21   -1    0    0  503  502  0.00000000000E+00  0.00000000000E+00  0.58739492197E+02  0.58739492197E+02  0.00000000000E+00 0.  1.
         21   -1    0    0  501  503 -0.00000000000E+00 -0.00000000000E+00 -0.96256562564E+01  0.96256562564E+01  0.00000000000E+00 0.  1.
          2    1    1    2  501    0  0.22472246541E+02  0.40839832179E+01  0.34062775021E+02  0.41011625494E+02  0.00000000000E+00 0.  1.
         -2    1    1    2    0  502 -0.22472246541E+02 -0.40839832179E+01  0.15051060920E+02  0.27353522960E+02  0.00000000000E+00 0. -1.
<mgrwt>
<rscale>  2 0.22840332E+02</rscale>
<asrwt>0</asrwt>
<pdfrwt beam="1">  1       21 0.90368447E-02 0.22840332E+02</pdfrwt>
<pdfrwt beam="2">  1       21 0.14808702E-02 0.22840332E+02</pdfrwt>
<totfact> 0.13009321E+08</totfact>
</mgrwt>
</event>
<event>
 4    1  0.7478314E+004  0.2179204E+02  0.7546771E-02  0.1711874E+00
         21   -1    0    0  503  502  0.00000000000E+00  0.00000000000E+00  0.16713647976E+02  0.16713647976E+02  0.00000000000E+00 0.  1.
         21   -1    0    0  501  503 -0.00000000000E+00 -0.00000000000E+00 -0.28711780217E+02  0.28711780217E+02  0.00000000000E+00 0.  1.
          4    1    1    2  501    0 -0.92952994748E+01  0.19710163641E+02 -0.83140889597E+01  0.23324176691E+02  0.00000000000E+00 0. -1.
         -4    1    1    2    0  502  0.92952994748E+01 -0.19710163641E+02 -0.36840432809E+01  0.22101251502E+02  0.00000000000E+00 0.  1.
<mgrwt>
<rscale>  2 0.21792043E+02</rscale>
<asrwt>0</asrwt>
<pdfrwt beam="1">  1       21 0.25713305E-02 0.21792043E+02</pdfrwt>
<pdfrwt beam="2">  1       21 0.44171969E-02 0.21792043E+02</pdfrwt>
<totfact> 0.17431858E+08</totfact>
</mgrwt>
</event>
<event>
 4    1  0.7478314E+004  0.3055760E+02  0.7546771E-02  0.1592006E+00
         21   -1    0    0  501  502  0.00000000000E+00  0.00000000000E+00  0.86084302639E+02  0.86084302639E+02  0.00000000000E+00 0.  1.
         21   -1    0    0  502  503 -0.00000000000E+00 -0.00000000000E+00 -0.12626270506E+02  0.12626270506E+02  0.00000000000E+00 0.  1.
          2    1    1    2  501    0  0.21827355413E+02 -0.21385358939E+02  0.55255888371E+02  0.63142538918E+02  0.00000000000E+00 0.  1.
         -2    1    1    2    0  503 -0.21827355413E+02  0.21385358939E+02  0.18202143762E+02  0.35568034228E+02  0.00000000000E+00 0. -1.
<mgrwt>
<rscale>  2 0.30557602E+02</rscale>
<asrwt>0</asrwt>
<pdfrwt beam="1">  1       21 0.13243738E-01 0.30557602E+02</pdfrwt>
<pdfrwt beam="2">  1       21 0.19425032E-02 0.30557602E+02</pdfrwt>
<totfact> 0.48733179E+07</totfact>
</mgrwt>
</event>
<event>
 4    1  0.7478314E+004  0.3453984E+02  0.7546771E-02  0.1552725E+00
         21   -1    0    0  503  502  0.00000000000E+00  0.00000000000E+00  0.69112181781E+02  0.69112181781E+02  0.00000000000E+00 0.  1.
         21   -1    0    0  501  503 -0.00000000000E+00 -0.00000000000E+00 -0.30523586697E+02  0.30523586697E+02  0.00000000000E+00 0.  1.
          1    1    1    2  501    0 -0.25040203654E+02  0.23790511859E+02 -0.13543091048E+02  0.37100075049E+02  0.00000000000E+00 0. -1.
         -1    1    1    2    0  502  0.25040203654E+02 -0.23790511859E+02  0.52131686133E+02  0.62535693429E+02  0.00000000000E+00 0.  1.
<mgrwt>
<rscale>  2 0.34539836E+02</rscale>
<asrwt>0</asrwt>
<pdfrwt beam="1">  1       21 0.10632643E-01 0.34539836E+02</pdfrwt>
<pdfrwt beam="2">  1       21 0.46959364E-02 0.34539836E+02</pdfrwt>
<totfact> 0.17984093E+07</totfact>
</mgrwt>
</event>
<event>
 4    1  0.7478314E+004  0.3112100E+02  0.7546771E-02  0.1586018E+00
         21   -1    0    0  501  502  0.00000000000E+00  0.00000000000E+00  0.42140000637E+01  0.42140000637E+01  0.00000000000E+00 0. -1.
         21   -1    0    0  502  503 -0.00000000000E+00 -0.00000000000E+00 -0.28920217010E+03  0.28920217010E+03  0.00000000000E+00 0. -1.
          2    1    1    2  501    0 -0.28130562508E+02  0.13311210914E+02 -0.76022928128E+02  0.82146226233E+02  0.00000000000E+00 0. -1.
         -2    1    1    2    0  503  0.28130562508E+02 -0.13311210914E+02 -0.20896524191E+03  0.21126994393E+03  0.00000000000E+00 0.  1.
<mgrwt>
<rscale>  2 0.31121004E+02</rscale>
<asrwt>0</asrwt>
<pdfrwt beam="1">  1       21 0.64830763E-03 0.31121004E+02</pdfrwt>
<pdfrwt beam="2">  1       21 0.44492646E-01 0.31121004E+02</pdfrwt>
<totfact> 0.29128387E+07</totfact>
</mgrwt>
</event>
<event>
 4    1  0.7478314E+004  0.2510591E+02  0.7546771E-02  0.1659485E+00
         21   -1    0    0  501  502  0.00000000000E+00  0.00000000000E+00  0.23834151473E+02  0.23834151473E+02  0.00000000000E+00 0.  1.
         21   -1    0    0  502  503 -0.00000000000E+00 -0.00000000000E+00 -0.28967814509E+02  0.28967814509E+02  0.00000000000E+00 0.  1.
          4    1    1    2  501    0  0.25049275323E+02 -0.16854247472E+01 -0.10357217370E+02  0.27158402060E+02  0.00000000000E+00 0. -1.
         -4    1    1    2    0  503 -0.25049275323E+02  0.16854247472E+01  0.52235543342E+01  0.25643563923E+02  0.00000000000E+00 0.  1.
<mgrwt>
<rscale>  2 0.25105913E+02</rscale>
<asrwt>0</asrwt>
<pdfrwt beam="1">  1       21 0.36667925E-02 0.25105913E+02</pdfrwt>
<pdfrwt beam="2">  1       21 0.44565868E-02 0.25105913E+02</pdfrwt>
<totfact> 0.10304089E+08</totfact>
</mgrwt>
</event>
<event>
 4    1  0.7478314E+004  0.3042245E+02  0.7546771E-02  0.1593465E+00
         21   -1    0    0  501  502  0.00000000000E+00  0.00000000000E+00  0.67945767915E+02  0.67945767915E+02  0.00000000000E+00 0. -1.
         21   -1    0    0  502  503 -0.00000000000E+00 -0.00000000000E+00 -0.13919393191E+02  0.13919393191E+02  0.00000000000E+00 0. -1.
          4    1    1    2  501    0  0.65229977888E+01 -0.29714910391E+02  0.33000976453E+02  0.44884182588E+02  0.00000000000E+00 0. -1.
         -4    1    1    2    0  503 -0.65229977888E+01  0.29714910391E+02  0.21025398271E+02  0.36980978518E+02  0.00000000000E+00 0.  1.
<mgrwt>
<rscale>  2 0.30422449E+02</rscale>
<asrwt>0</asrwt>
<pdfrwt beam="1">  1       21 0.10453195E-01 0.30422449E+02</pdfrwt>
<pdfrwt beam="2">  1       21 0.21414451E-02 0.30422449E+02</pdfrwt>
<totfact> 0.62450279E+07</totfact>
</mgrwt>
</event>
<event>
 4    1  0.7478314E+004  0.3037040E+02  0.7546771E-02  0.1594030E+00
         21   -1    0    0  501  502  0.00000000000E+00  0.00000000000E+00  0.79387661245E+01  0.79387661245E+01  0.00000000000E+00 0. -1.
         21   -1    0    0  502  503 -0.00000000000E+00 -0.00000000000E+00 -0.11770704742E+03  0.11770704742E+03  0.00000000000E+00 0. -1.
          1    1    1    2  501    0 -0.48680238585E+01  0.29977716081E+02 -0.47739006563E+02  0.56580684561E+02  0.00000000000E+00 0.  1.
         -1    1    1    2    0  503  0.48680238585E+01 -0.29977716081E+02 -0.62029274730E+02  0.69065128981E+02  0.00000000000E+00 0. -1.
<mgrwt>
<rscale>  2 0.30370399E+02</rscale>
<asrwt>0</asrwt>
<pdfrwt beam="1">  1       21 0.12213485E-02 0.30370399E+02</pdfrwt>
<pdfrwt beam="2">  1       21 0.18108779E-01 0.30370399E+02</pdfrwt>
<totfact> 0.57841275E+07</totfact>
</mgrwt>
</event>
<event>
 4    1  0.7478314E+004  0.2426262E+02  0.7546771E-02  0.1671825E+00
         21   -1    0    0  501  502  0.00000000000E+00  0.00000000000E+00  0.51329299279E+02  0.51329299279E+02  0.00000000000E+00 0. -1.
         21   -1    0    0  502  503 -0.00000000000E+00 -0.00000000000E+00 -0.11822666478E+02  0.11822666478E+02  0.00000000000E+00 0. -1.
          2    1    1    2  501    0 -0.89913831042E+01  0.22535077335E+02  0.25217783181E+02  0.34994446262E+02  0.00000000000E+00 0.  1.
         -2    1    1    2    0  503  0.89913831042E+01 -0.22535077335E+02  0.14288849620E+02  0.28157519495E+02  0.00000000000E+00 0. -1.
<mgrwt>
<rscale>  2 0.24262619E+02</rscale>
<asrwt>0</asrwt>
<pdfrwt beam="1">  1       21 0.78968152E-02 0.24262619E+02</pdfrwt>
<pdfrwt beam="2">  1       21 0.18188718E-02 0.24262619E+02</pdfrwt>
<totfact> 0.12069229E+08</totfact>
</mgrwt>
</event>
<event>
 4    1  0.7478314E+004  0.3737249E+02  0.7546771E-02  0.1528488E+00
         21   -1    0    0  503  502  0.00000000000E+00  0.00000000000E+00  0.12379025720E+03  0.12379025720E+03  0.00000000000E+00 0.  1.
         21   -1    0    0  501  503 -0.00000000000E+00 -0.00000000000E+00 -0.11925194956E+02  0.11925194956E+02  0.00000000000E+00 0.  1.
          2    1    1    2  501    0 -0.24919236443E+02 -0.27852019312E+02  0.71681803370E+02  0.80839249495E+02  0.00000000000E+00 0. -1.
         -2    1    1    2    0  502  0.24919236443E+02  0.27852019312E+02  0.40183258871E+02  0.54876202658E+02  0.00000000000E+00 0.  1.
<mgrwt>
<rscale>  2 0.37372494E+02</rscale>
<asrwt>0</asrwt>
<pdfrwt beam="1">  1       21 0.19044654E-01 0.37372494E+02</pdfrwt>
<pdfrwt beam="2">  1       21 0.18346455E-02 0.37372494E+02</pdfrwt>
<totfact> 0.29465377E+07</totfact>
</mgrwt>
</event>
<event>
 4    1  0.7478314E+004  0.2749245E+02  0.7546771E-02  0.1627584E+00
         21   -1    0    0  501  502  0.00000000000E+00  0.00000000000E+00  0.16965665708E+02  0.16965665708E+02  0.00000000000E+00 0.  1.
         21   -1    0    0  502  503 -0.00000000000E+00 -0.00000000000E+00 -0.46106767714E+02  0.46106767714E+02  0.00000000000E+00 0.  1.
          1    1    1    2  501    0  0.25469512552E+02  0.10350796574E+02 -0.87773491208E+01  0.28859607013E+02  0.00000000000E+00 0. -1.
         -1    1    1    2    0  503 -0.25469512552E+02 -0.10350796574E+02 -0.20363752885E+02  0.34212826409E+02  0.00000000000E+00 0.  1.
<mgrwt>
<rscale>  2 0.27492455E+02</rscale>
<asrwt>0</asrwt>
<pdfrwt beam="1">  1       21 0.26101025E-02 0.27492455E+02</pdfrwt>
<pdfrwt beam="2">  1       21 0.70933488E-02 0.27492455E+02</pdfrwt>
<totfact> 0.85057277E+07</totfact>
</mgrwt>
</event>
<event>
 4    1  0.7478314E+004  0.2352414E+02  0.7546771E-02  0.1683152E+00
         21   -1    0    0  503  502  0.00000000000E+00  0.00000000000E+00  0.44367583559E+03  0.44367583559E+03  0.00000000000E+00 0.  1.
         21   -1    0    0  501  503 -0.00000000000E+00 -0.00000000000E+00 -0.12587798384E+01  0.12587798384E+01  0.00000000000E+00 0.  1.
          1    1    1    2  501    0  0.13354702924E+02 -0.19365876943E+02  0.24247780598E+03  0.24361623853E+03  0.00000000000E+00 0.  1.
         -1    1    1    2    0  502 -0.13354702924E+02  0.19365876943E+02  0.19993924977E+03  0.20131837690E+03  0.00000000000E+00 0. -1.
<mgrwt>
<rscale>  2 0.23524142E+02</rscale>
<asrwt>0</asrwt>
<pdfrwt beam="1">  1       21 0.68257696E-01 0.23524142E+02</pdfrwt>
<pdfrwt beam="2">  1       21 0.19365879E-03 0.23524142E+02</pdfrwt>
<totfact> 0.69403393E+07</totfact>
</mgrwt>
</event>
<event>
 4    1  0.7478314E+004  0.2825789E+02  0.7546771E-02  0.1618184E+00
         21   -1    0    0  501  502  0.00000000000E+00  0.00000000000E+00  0.21680270595E+03  0.21680270595E+03  0.00000000000E+00 0.  1.
         21   -1    0    0  502  503 -0.00000000000E+00 -0.00000000000E+00 -0.44292231478E+01  0.44292231478E+01  0.00000000000E+00 0.  1.
          5    1    1    2  501    0  0.13420819868E+02 -0.24867449471E+02  0.60786719591E+02  0.67033825251E+02  0.00000000000E+00 0.  1.
         -5    1    1    2    0  503 -0.13420819868E+02  0.24867449471E+02  0.15158676321E+03  0.15419810385E+03  0.00000000000E+00 0. -1.
<mgrwt>
<rscale>  2 0.28257892E+02</rscale>
<asrwt>0</asrwt>
<pdfrwt beam="1">  1       21 0.33354254E-01 0.28257892E+02</pdfrwt>
<pdfrwt beam="2">  1       21 0.68141911E-03 0.28257892E+02</pdfrwt>
<totfact> 0.45796355E+07</totfact>
</mgrwt>
</event>
<event>
 4    1  0.7478314E+004  0.2776832E+02  0.7546771E-02  0.1624153E+00
         21   -1    0    0  503  502  0.00000000000E+00  0.00000000000E+00  0.21051436560E+02  0.21051436560E+02  0.00000000000E+00 0. -1.
         21   -1    0    0  501  503 -0.00000000000E+00 -0.00000000000E+00 -0.41096333315E+02  0.41096333315E+02  0.00000000000E+00 0. -1.
          3    1    1    2  501    0  0.20168529103E+02 -0.19086910522E+02  0.22342579055E+00  0.27769221065E+02  0.00000000000E+00 0. -1.
         -3    1    1    2    0  502 -0.20168529103E+02  0.19086910522E+02 -0.20268322546E+02  0.34378548810E+02  0.00000000000E+00 0.  1.
<mgrwt>
<rscale>  2 0.27768322E+02</rscale>
<asrwt>0</asrwt>
<pdfrwt beam="1">  1       21 0.32386826E-02 0.27768322E+02</pdfrwt>
<pdfrwt beam="2">  1       21 0.63225128E-02 0.27768322E+02</pdfrwt>
<totfact> 0.73343446E+07</totfact>
</mgrwt>
</event>
<event>
 4    1  0.7478314E+004  0.2252917E+02  0.7546771E-02  0.1699258E+00
         21   -1    0    0  501  502  0.00000000000E+00  0.00000000000E+00  0.41212707367E+01  0.41212707367E+01  0.00000000000E+00 0.  1.
         21   -1    0    0  502  503 -0.00000000000E+00 -0.00000000000E+00 -0.17573455230E+03  0.17573455230E+03  0.00000000000E+00 0.  1.
          5    1    1    2  501    0  0.30330294162E+00  0.22527124793E+02 -0.13499542698E+03  0.13686244427E+03  0.00000000000E+00 0. -1.
         -5    1    1    2    0  503 -0.30330294162E+00 -0.22527124793E+02 -0.36617854585E+02  0.42993378776E+02  0.00000000000E+00 0.  1.
<mgrwt>
<rscale>  2 0.22529167E+02</rscale>
<asrwt>0</asrwt>
<pdfrwt beam="1">  1       21 0.63404163E-03 0.22529167E+02</pdfrwt>
<pdfrwt beam="2">  1       21 0.27036086E-01 0.22529167E+02</pdfrwt>
<totfact> 0.70927193E+07</totfact>
</mgrwt>
</event>
<event>
 4    1  0.7478314E+004  0.3060321E+02  0.7546771E-02  0.1591515E+00
         21   -1    0    0  501  502  0.00000000000E+00  0.00000000000E+00  0.15806611177E+02  0.15806611177E+02  0.00000000000E+00 0.  1.
         21   -1    0    0  502  503 -0.00000000000E+00 -0.00000000000E+00 -0.85089357412E+02  0.85089357412E+02  0.00000000000E+00 0.  1.
          2    1    1    2  501    0 -0.50816166405E+01 -0.30178364535E+02 -0.62441013720E+02  0.69537304435E+02  0.00000000000E+00 0.  1.
         -2    1    1    2    0  503  0.50816166405E+01  0.30178364535E+02 -0.68417325146E+01  0.31358664153E+02  0.00000000000E+00 0. -1.
<mgrwt>
<rscale>  2 0.30603211E+02</rscale>
<asrwt>0</asrwt>
<pdfrwt beam="1">  1       21 0.24317863E-02 0.30603211E+02</pdfrwt>
<pdfrwt beam="2">  1       21 0.13090671E-01 0.30603211E+02</pdfrwt>
<totfact> 0.35066529E+07</totfact>
</mgrwt>
</event>
<event>
 4    1  0.7478314E+004  0.2025427E+02  0.7546771E-02  0.1740318E+00
         21   -1    0    0  501  502  0.00000000000E+00  0.00000000000E+00  0.42586035652E+01  0.42586035652E+01  0.00000000000E+00 0.  1.
         21   -1    0    0  502  503 -0.00000000000E+00 -0.00000000000E+00 -0.96489388080E+02  0.96489388080E+02  0.00000000000E+00 0.  1.
          1    1    1    2  501    0  0.15188049958E+02  0.13399952325E+02 -0.44074529653E+02  0.48505667174E+02  0.00000000000E+00 0.  1.
         -1    1    1    2    0  503 -0.15188049958E+02 -0.13399952325E+02 -0.48156254862E+02  0.52242324472E+02  0.00000000000E+00 0. -1.
<mgrwt>
<rscale>  2 0.20254273E+02</rscale>
<asrwt>0</asrwt>
<pdfrwt beam="1">  1       21 0.65516978E-03 0.20254273E+02</pdfrwt>
<pdfrwt beam="2">  1       21 0.14844521E-01 0.20254273E+02</pdfrwt>
<totfact> 0.18610814E+08</totfact>
</mgrwt>
</event>
<event>
 4    1  0.7478314E+004  0.2945341E+02  0.7546771E-02  0.1604210E+00
         21   -1    0    0  503  502  0.00000000000E+00  0.00000000000E+00  0.23124091468E+02  0.23124091468E+02  0.00000000000E+00 0. -1.
         21   -1    0    0  501  503 -0.00000000000E+00 -0.00000000000E+00 -0.38266079291E+02  0.38266079291E+02  0.00000000000E+00 0. -1.
          4    1    1    2  501    0 -0.26742685273E+02  0.12342302294E+02 -0.32710492539E+01  0.29634496871E+02  0.00000000000E+00 0. -1.
         -4    1    1    2    0  502  0.26742685273E+02 -0.12342302294E+02 -0.11870938569E+02  0.31755673888E+02  0.00000000000E+00 0.  1.
<mgrwt>
<rscale>  2 0.29453415E+02</rscale>
<asrwt>0</asrwt>
<pdfrwt beam="1">  1       21 0.35575526E-02 0.29453415E+02</pdfrwt>
<pdfrwt beam="2">  1       21 0.58870890E-02 0.29453415E+02</pdfrwt>
<totfact> 0.72045224E+07</totfact>
</mgrwt>
</event>
<event>
 4    1  0.7478314E+004  0.2136998E+02  0.7546771E-02  0.1719381E+00
         21   -1    0    0  503  502  0.00000000000E+00  0.00000000000E+00  0.48110255652E+02  0.48110255652E+02  0.00000000000E+00 0.  1.
         21   -1    0    0  501  503 -0.00000000000E+00 -0.00000000000E+00 -0.12331821571E+02  0.12331821571E+02  0.00000000000E+00 0.  1.
          1    1    1    2  501    0  0.21186994407E+02  0.27905485723E+01  0.33874781070E+01  0.21636795079E+02  0.00000000000E+00 0. -1.
         -1    1    1    2    0  502 -0.21186994407E+02 -0.27905485723E+01  0.32390955975E+02  0.38805282144E+02  0.00000000000E+00 0.  1.
<mgrwt>
<rscale>  2 0.21369976E+02</rscale>
<asrwt>0</asrwt>
<pdfrwt beam="1">  1       21 0.74015777E-02 0.21369976E+02</pdfrwt>
<pdfrwt beam="2">  1       21 0.18972033E-02 0.21369976E+02</pdfrwt>
<totfact> 0.12110912E+08</totfact>
</mgrwt>
</event>
<event>
 4    1  0.7478314E+004  0.2342563E+02  0.7546771E-02  0.1684702E+00
         21   -1    0    0  503  502  0.00000000000E+00  0.00000000000E+00  0.76158772534E+02  0.76158772534E+02  0.00000000000E+00 0. -1.
         21   -1    0    0  501  503 -0.00000000000E+00 -0.00000000000E+00 -0.74273606133E+01  0.74273606133E+01  0.00000000000E+00 0. -1.
          5    1    1    2  501    0 -0.12239109582E+02 -0.19974094100E+02  0.27142164308E+02  0.35853274910E+02  0.00000000000E+00 0.  1.
         -5    1    1    2    0  502  0.12239109582E+02  0.19974094100E+02  0.41589247612E+02  0.47732858236E+02  0.00000000000E+00 0. -1.
<mgrwt>
<rscale>  2 0.23425632E+02</rscale>
<asrwt>0</asrwt>
<pdfrwt beam="1">  1       21 0.11716734E-01 0.23425632E+02</pdfrwt>
<pdfrwt beam="2">  1       21 0.11426709E-02 0.23425632E+02</pdfrwt>
<totfact> 0.12616525E+08</totfact>
</mgrwt>
</event>
<event>
 4    1  0.7478314E+004  0.2299779E+02  0.7546771E-02  0.1691546E+00
         21   -1    0    0  501  502  0.00000000000E+00  0.00000000000E+00  0.41641033033E+00  0.41641033033E+00  0.00000000000E+00 0. -1.
         21   -1    0    0  502  503 -0.00000000000E+00 -0.00000000000E+00 -0.12744908371E+04  0.12744908371E+04  0.00000000000E+00 0. -1.
          4    1    1    2  501    0 -0.20550409780E+02 -0.10323704151E+02 -0.59977991853E+03  0.60022066682E+03  0.00000000000E+00 0.  1.
         -4    1    1    2    0  503  0.20550409780E+02  0.10323704151E+02 -0.67429450829E+03  0.67468658066E+03  0.00000000000E+00 0. -1.
<mgrwt>
<rscale>  2 0.22997787E+02</rscale>
<asrwt>0</asrwt>
<pdfrwt beam="1">  1       21 0.64064028E-04 0.22997787E+02</pdfrwt>
<pdfrwt beam="2">  1       21 0.19607276E+00 0.22997787E+02</pdfrwt>
<totfact> 0.30760011E+07</totfact>
</mgrwt>
</event>
<event>
 4    1  0.7478314E+004  0.2505966E+02  0.7546771E-02  0.1660146E+00
         21   -1    0    0  501  502  0.00000000000E+00  0.00000000000E+00  0.11566854527E+02  0.11566854527E+02  0.00000000000E+00 0. -1.
         21   -1    0    0  502  503 -0.00000000000E+00 -0.00000000000E+00 -0.54711935828E+02  0.54711935828E+02  0.00000000000E+00 0. -1.
          1    1    1    2  501    0  0.21456310671E+02 -0.12946561427E+02 -0.24476143873E+02  0.35029535243E+02  0.00000000000E+00 0.  1.
         -1    1    1    2    0  503 -0.21456310671E+02  0.12946561427E+02 -0.18668937428E+02  0.31249255113E+02  0.00000000000E+00 0. -1.
<mgrwt>
<rscale>  2 0.25059663E+02</rscale>
<asrwt>0</asrwt>
<pdfrwt beam="1">  1       21 0.17795161E-02 0.25059663E+02</pdfrwt>
<pdfrwt beam="2">  1       21 0.84172208E-02 0.25059663E+02</pdfrwt>
<totfact> 0.11342009E+08</totfact>
</mgrwt>
</event>
<event>
 4    1  0.7478314E+004  0.4706968E+02  0.7546771E-02  0.1461820E+00
         21   -1    0    0  503  502  0.00000000000E+00  0.00000000000E+00  0.76018147147E+02  0.76018147147E+02  0.00000000000E+00 0. -1.
         21   -1    0    0  501  503 -0.00000000000E+00 -0.00000000000E+00 -0.29937201214E+02  0.29937201214E+02  0.00000000000E+00 0. -1.
          4    1    1    2  501    0  0.40901874948E+02 -0.23293591788E+02  0.14422923443E+02  0.49229823413E+02  0.00000000000E+00 0. -1.
         -4    1    1    2    0  502 -0.40901874948E+02  0.23293591788E+02  0.31658022489E+02  0.56725524948E+02  0.00000000000E+00 0.  1.
<mgrwt>
<rscale>  2 0.47069680E+02</rscale>
<asrwt>0</asrwt>
<pdfrwt beam="1">  1       21 0.11695099E-01 0.47069680E+02</pdfrwt>
<pdfrwt beam="2">  1       21 0.46057233E-02 0.47069680E+02</pdfrwt>
<totfact> 0.16551553E+07</totfact>
</mgrwt>
</event>
<event>
 4    1  0.7478314E+004  0.2469377E+02  0.7546771E-02  0.1665440E+00
         21   -1    0    0  503  502  0.00000000000E+00  0.00000000000E+00  0.23283032569E+01  0.23283032569E+01  0.00000000000E+00 0. -1.
         21   -1    0    0  501  503 -0.00000000000E+00 -0.00000000000E+00 -0.26519205357E+03  0.26519205357E+03  0.00000000000E+00 0. -1.
          3    1    1    2  501    0 -0.12585344523E+02 -0.21245969883E+02 -0.11652818157E+03  0.11911590671E+03  0.00000000000E+00 0.  1.
         -3    1    1    2    0  502  0.12585344523E+02  0.21245969883E+02 -0.14633556875E+03  0.14840445012E+03  0.00000000000E+00 0. -1.
<mgrwt>
<rscale>  2 0.24693767E+02</rscale>
<asrwt>0</asrwt>
<pdfrwt beam="1">  1       21 0.35820068E-03 0.24693767E+02</pdfrwt>
<pdfrwt beam="2">  1       21 0.40798758E-01 0.24693767E+02</pdfrwt>
<totfact> 0.78911549E+07</totfact>
</mgrwt>
</event>
<event>
 4    1  0.7478314E+004  0.2619743E+02  0.7546771E-02  0.1644375E+00
         21   -1    0    0  501  502  0.00000000000E+00  0.00000000000E+00  0.14907219778E+02  0.14907219778E+02  0.00000000000E+00 0. -1.
         21   -1    0    0  502  503 -0.00000000000E+00 -0.00000000000E+00 -0.57510780137E+02  0.57510780137E+02  0.00000000000E+00 0. -1.
          2    1    1    2  501    0  0.74793596687E+01 -0.25107063439E+02 -0.51296394562E+01  0.26694918178E+02  0.00000000000E+00 0. -1.
         -2    1    1    2    0  503 -0.74793596687E+01  0.25107063439E+02 -0.37473920903E+02  0.45723081736E+02  0.00000000000E+00 0.  1.
<mgrwt>
<rscale>  2 0.26197432E+02</rscale>
<asrwt>0</asrwt>
<pdfrwt beam="1">  1       21 0.22934185E-02 0.26197432E+02</pdfrwt>
<pdfrwt beam="2">  1       21 0.88478122E-02 0.26197432E+02</pdfrwt>
<totfact> 0.71487149E+07</totfact>
</mgrwt>
</event>
<event>
 4    1  0.7478314E+004  0.2946289E+02  0.7546771E-02  0.1604103E+00
         21   -1    0    0  501  502  0.00000000000E+00  0.00000000000E+00  0.92608071387E+01  0.92608071387E+01  0.00000000000E+00 0. -1.
         21   -1    0    0  502  503 -0.00000000000E+00 -0.00000000000E+00 -0.18912422560E+03  0.18912422560E+03  0.00000000000E+00 0. -1.
          1    1    1    2  501    0 -0.28391084079E+02  0.78745322814E+01 -0.19485934533E+02  0.35323696840E+02  0.00000000000E+00 0.  1.
         -1    1    1    2    0  503  0.28391084079E+02 -0.78745322814E+01 -0.16037748393E+03  0.16306133590E+03  0.00000000000E+00 0. -1.
<mgrwt>
<rscale>  2 0.29462890E+02</rscale>
<asrwt>0</asrwt>
<pdfrwt beam="1">  1       21 0.14247396E-02 0.29462890E+02</pdfrwt>
<pdfrwt beam="2">  1       21 0.29096034E-01 0.29462890E+02</pdfrwt>
<totfact> 0.19461906E+07</totfact>
</mgrwt>
</event>
<event>
 4    1  0.7478314E+004  0.2170363E+02  0.7546771E-02  0.1713428E+00
         21   -1    0    0  501  502  0.00000000000E+00  0.00000000000E+00  0.15532936085E+03  0.15532936085E+03  0.00000000000E+00 0.  1.
         21   -1    0    0  502  503 -0.00000000000E+00 -0.00000000000E+00 -0.30445700527E+01  0.30445700527E+01  0.00000000000E+00 0.  1.
          4    1    1    2  501    0  0.16480781733E+02 -0.14122024660E+02  0.71171737501E+02  0.74407418756E+02  0.00000000000E+00 0.  1.
         -4    1    1    2    0  503 -0.16480781733E+02  0.14122024660E+02  0.81113053298E+02  0.83966512148E+02  0.00000000000E+00 0. -1.
<mgrwt>
<rscale>  2 0.21703634E+02</rscale>
<asrwt>0</asrwt>
<pdfrwt beam="1">  1       21 0.23896819E-01 0.21703634E+02</pdfrwt>
<pdfrwt beam="2">  1       21 0.46839551E-03 0.21703634E+02</pdfrwt>
<totfact> 0.13678406E+08</totfact>
</mgrwt>
</event>
<event>
 4    1  0.7478314E+004  0.3205235E+02  0.7546771E-02  0.1576451E+00
         21   -1    0    0  501  502  0.00000000000E+00  0.00000000000E+00  0.39089993671E+02  0.39089993671E+02  0.00000000000E+00 0.  1.
         21   -1    0    0  502  503 -0.00000000000E+00 -0.00000000000E+00 -0.31915106457E+02  0.31915106457E+02  0.00000000000E+00 0.  1.
          5    1    1    2  501    0 -0.30273893019E+02 -0.10528278592E+02 -0.11328310182E+02  0.33995350568E+02  0.00000000000E+00 0. -1.
         -5    1    1    2    0  503  0.30273893019E+02  0.10528278592E+02  0.18503197396E+02  0.37009749560E+02  0.00000000000E+00 0.  1.
<mgrwt>
<rscale>  2 0.32052352E+02</rscale>
<asrwt>0</asrwt>
<pdfrwt beam="1">  1       21 0.60138452E-02 0.32052352E+02</pdfrwt>
<pdfrwt beam="2">  1       21 0.49100164E-02 0.32052352E+02</pdfrwt>
<totfact> 0.42390813E+07</totfact>
</mgrwt>
</event>
<event>
 4    1  0.7478314E+004  0.2445643E+02  0.7546771E-02  0.1668934E+00
         21   -1    0    0  503  502  0.00000000000E+00  0.00000000000E+00  0.23893766743E+03  0.23893766743E+03  0.00000000000E+00 0. -1.
         21   -1    0    0  501  503 -0.00000000000E+00 -0.00000000000E+00 -0.28039190869E+01  0.28039190869E+01  0.00000000000E+00 0. -1.
          1    1    1    2  501    0 -0.86911316013E+01  0.22860036001E+02  0.78485195298E+02  0.82207316556E+02  0.00000000000E+00 0. -1.
         -1    1    1    2    0  502  0.86911316013E+01 -0.22860036001E+02  0.15764855305E+03  0.15953426996E+03  0.00000000000E+00 0.  1.
<mgrwt>
<rscale>  2 0.24456431E+02</rscale>
<asrwt>0</asrwt>
<pdfrwt beam="1">  1       21 0.36759625E-01 0.24456431E+02</pdfrwt>
<pdfrwt beam="2">  1       21 0.43137235E-03 0.24456431E+02</pdfrwt>
<totfact> 0.72895358E+07</totfact>
</mgrwt>
</event>
<event>
 4    1  0.7478314E+004  0.4119246E+02  0.7546771E-02  0.1499615E+00
         21   -1    0    0  503  502  0.00000000000E+00  0.00000000000E+00  0.31293344053E+02  0.31293344053E+02  0.00000000000E+00 0.  1.
         21   -1    0    0  501  503 -0.00000000000E+00 -0.00000000000E+00 -0.54382476676E+02  0.54382476676E+02  0.00000000000E+00 0.  1.
          2    1    1    2  501    0  0.36671957302E+02 -0.18761304840E+02 -0.13864345419E+02  0.43463077267E+02  0.00000000000E+00 0. -1.
         -2    1    1    2    0  502 -0.36671957302E+02  0.18761304840E+02 -0.92247872032E+01  0.42212743462E+02  0.00000000000E+00 0.  1.
<mgrwt>
<rscale>  2 0.41192463E+02</rscale>
<asrwt>0</asrwt>
<pdfrwt beam="1">  1       21 0.48143606E-02 0.41192463E+02</pdfrwt>
<pdfrwt beam="2">  1       21 0.83665348E-02 0.41192463E+02</pdfrwt>
<totfact> 0.26614920E+07</totfact>
</mgrwt>
</event>
<event>
 4    1  0.7478314E+004  0.2544843E+02  0.7546771E-02  0.1654643E+00
         21   -1    0    0  501  502  0.00000000000E+00  0.00000000000E+00  0.60562578314E+01  0.60562578314E+01  0.00000000000E+00 0.  1.
         21   -1    0    0  502  503 -0.00000000000E+00 -0.00000000000E+00 -0.10819015297E+03  0.10819015297E+03  0.00000000000E+00 0.  1.
          4    1    1    2  501    0 -0.23643178368E+02  0.94139594698E+01 -0.44912847374E+02  0.51621568898E+02  0.00000000000E+00 0.  1.
         -4    1    1    2    0  503  0.23643178368E+02 -0.94139594698E+01 -0.57221047767E+02  0.62624841906E+02  0.00000000000E+00 0. -1.
<mgrwt>
<rscale>  2 0.25448429E+02</rscale>
<asrwt>0</asrwt>
<pdfrwt beam="1">  1       21 0.93173202E-03 0.25448429E+02</pdfrwt>
<pdfrwt beam="2">  1       21 0.16644638E-01 0.25448429E+02</pdfrwt>
<totfact> 0.96698560E+07</totfact>
</mgrwt>
</event>
<event>
 4    1  0.7478314E+004  0.2199697E+02  0.7546771E-02  0.1708304E+00
         21   -1    0    0  503  502  0.00000000000E+00  0.00000000000E+00  0.91291894696E+02  0.91291894696E+02  0.00000000000E+00 0. -1.
         21   -1    0    0  501  503 -0.00000000000E+00 -0.00000000000E+00 -0.62622984328E+01  0.62622984328E+01  0.00000000000E+00 0. -1.
          3    1    1    2  501    0 -0.18167669745E+02  0.12401718772E+02  0.61633349467E+02  0.65441092740E+02  0.00000000000E+00 0.  1.
         -3    1    1    2    0  502  0.18167669745E+02 -0.12401718772E+02  0.23396246796E+02  0.32113100389E+02  0.00000000000E+00 0. -1.
<mgrwt>
<rscale>  2 0.21996974E+02</rscale>
<asrwt>0</asrwt>
<pdfrwt beam="1">  1       21 0.14044906E-01 0.21996974E+02</pdfrwt>
<pdfrwt beam="2">  1       21 0.96343059E-03 0.21996974E+02</pdfrwt>
<totfact> 0.11804157E+08</totfact>
</mgrwt>
</event>
<event>
 4    1  0.7478314E+004  0.2164535E+02  0.7546771E-02  0.1714459E+00
         21   -1    0    0  501  502  0.00000000000E+00  0.00000000000E+00  0.69923168083E+02  0.69923168083E+02  0.00000000000E+00 0. -1.
         21   -1    0    0  502  503 -0.00000000000E+00 -0.00000000000E+00 -0.73432677837E+01  0.73432677837E+01  0.00000000000E+00 0. -1.
          5    1    1    2  501    0  0.34416986220E+01  0.21369978484E+02  0.42719734163E+02  0.47890468329E+02  0.00000000000E+00 0.  1.
         -5    1    1    2    0  503 -0.34416986220E+01 -0.21369978484E+02  0.19860166136E+02  0.29375967538E+02  0.00000000000E+00 0. -1.
<mgrwt>
<rscale>  2 0.21645352E+02</rscale>
<asrwt>0</asrwt>
<pdfrwt beam="1">  1       21 0.10757410E-01 0.21645352E+02</pdfrwt>
<pdfrwt beam="2">  1       21 0.11297335E-02 0.21645352E+02</pdfrwt>
<totfact> 0.14454655E+08</totfact>
</mgrwt>
</event>
<event>
 4    1  0.7478314E+004  0.2272893E+02  0.7546771E-02  0.1695942E+00
         21   -1    0    0  503  502  0.00000000000E+00  0.00000000000E+00  0.39550694364E+01  0.39550694364E+01  0.00000000000E+00 0.  1.
         21   -1    0    0  501  503 -0.00000000000E+00 -0.00000000000E+00 -0.15456654852E+03  0.15456654852E+03  0.00000000000E+00 0.  1.
          2    1    1    2  501    0 -0.22704968278E+02 -0.10433459484E+01 -0.10650456836E+03  0.10890283392E+03  0.00000000000E+00 0.  1.
         -2    1    1    2    0  502  0.22704968278E+02  0.10433459484E+01 -0.44106910727E+02  0.49618784036E+02  0.00000000000E+00 0. -1.
<mgrwt>
<rscale>  2 0.22728928E+02</rscale>
<asrwt>0</asrwt>
<pdfrwt beam="1">  1       21 0.60847217E-03 0.22728928E+02</pdfrwt>
<pdfrwt beam="2">  1       21 0.23779471E-01 0.22728928E+02</pdfrwt>
<totfact> 0.95013864E+07</totfact>
</mgrwt>
</event>
<event>
 4    1  0.7478314E+004  0.2293501E+02  0.7546771E-02  0.1692566E+00
         21   -1    0    0  503  502  0.00000000000E+00  0.00000000000E+00  0.34583095707E+01  0.34583095707E+01  0.00000000000E+00 0. -1.
         21   -1    0    0  501  503 -0.00000000000E+00 -0.00000000000E+00 -0.21615256636E+03  0.21615256636E+03  0.00000000000E+00 0. -1.
          4    1    1    2  501    0 -0.10337954696E+02  0.20472938174E+02 -0.16612031502E+03  0.16769607499E+03  0.00000000000E+00 0. -1.
         -4    1    1    2    0  502  0.10337954696E+02 -0.20472938174E+02 -0.46573941770E+02  0.51914800942E+02  0.00000000000E+00 0.  1.
<mgrwt>
<rscale>  2 0.22935006E+02</rscale>
<asrwt>0</asrwt>
<pdfrwt beam="1">  1       21 0.53204759E-03 0.22935006E+02</pdfrwt>
<pdfrwt beam="2">  1       21 0.33254244E-01 0.22935006E+02</pdfrwt>
<totfact> 0.63395368E+07</totfact>
</mgrwt>
</event>
<event>
 4    1  0.7478314E+004  0.2476737E+02  0.7546771E-02  0.1664366E+00
         21   -1    0    0  501  502  0.00000000000E+00  0.00000000000E+00  0.54577628113E+02  0.54577628113E+02  0.00000000000E+00 0. -1.
         21   -1    0    0  502  503 -0.00000000000E+00 -0.00000000000E+00 -0.12214036423E+02  0.12214036423E+02  0.00000000000E+00 0. -1.
          4    1    1    2  501    0  0.22372467022E+02 -0.10625230264E+02  0.11748320578E+02  0.27412512385E+02  0.00000000000E+00 0. -1.
         -4    1    1    2    0  503 -0.22372467022E+02  0.10625230264E+02  0.30615271112E+02  0.39379152151E+02  0.00000000000E+00 0.  1.
<mgrwt>
<rscale>  2 0.24767374E+02</rscale>
<asrwt>0</asrwt>
<pdfrwt beam="1">  1       21 0.83965580E-02 0.24767374E+02</pdfrwt>
<pdfrwt beam="2">  1       21 0.18790826E-02 0.24767374E+02</pdfrwt>
<totfact> 0.10442547E+08</totfact>
</mgrwt>
</event>
<event>
 4    1  0.7478314E+004  0.2613296E+02  0.7546771E-02  0.1645242E+00
         21   -1    0    0  503  502  0.00000000000E+00  0.00000000000E+00  0.48859230828E+01  0.48859230828E+01  0.00000000000E+00 0. -1.
         21   -1    0    0  501  503 -0.00000000000E+00 -0.00000000000E+00 -0.14724394233E+03  0.14724394233E+03  0.00000000000E+00 0. -1.
          1    1    1    2  501    0 -0.47936554301E+01  0.25689541608E+02 -0.88310088671E+02  0.92095621186E+02  0.00000000000E+00 0.  1.
         -1    1    1    2    0  502  0.47936554301E+01 -0.25689541608E+02 -0.54047930580E+02  0.60034244231E+02  0.00000000000E+00 0. -1.
<mgrwt>
<rscale>  2 0.26132962E+02</rscale>
<asrwt>0</asrwt>
<pdfrwt beam="1">  1       21 0.75168052E-03 0.26132962E+02</pdfrwt>
<pdfrwt beam="2">  1       21 0.22652913E-01 0.26132962E+02</pdfrwt>
<totfact> 0.78369121E+07</totfact>
</mgrwt>
</event>
<event>
 4    1  0.7478314E+004  0.2426618E+02  0.7546771E-02  0.1671771E+00
         21   -1    0    0  503  502  0.00000000000E+00  0.00000000000E+00  0.27205901523E+02  0.27205901523E+02  0.00000000000E+00 0. -1.
         21   -1    0    0  501  503 -0.00000000000E+00 -0.00000000000E+00 -0.23431451742E+02  0.23431451742E+02  0.00000000000E+00 0. -1.
          2    1    1    2  501    0  0.20046951808E+02 -0.13673598599E+02 -0.51054764252E+01  0.24797448759E+02  0.00000000000E+00 0.  1.
         -2    1    1    2    0  502 -0.20046951808E+02  0.13673598599E+02  0.88799262061E+01  0.25839904506E+02  0.00000000000E+00 0. -1.
<mgrwt>
<rscale>  2 0.24266182E+02</rscale>
<asrwt>0</asrwt>
<pdfrwt beam="1">  1       21 0.41855233E-02 0.24266182E+02</pdfrwt>
<pdfrwt beam="2">  1       21 0.36048387E-02 0.24266182E+02</pdfrwt>
<totfact> 0.11583157E+08</totfact>
</mgrwt>
</event>
<event>
 4    1  0.7478314E+004  0.2282231E+02  0.7546771E-02  0.1694407E+00
         21   -1    0    0  503  502  0.00000000000E+00  0.00000000000E+00  0.48278944133E+00  0.48278944133E+00  0.00000000000E+00 0.  1.
         21   -1    0    0  501  503 -0.00000000000E+00 -0.00000000000E+00 -0.13644163603E+04  0.13644163603E+04  0.00000000000E+00 0.  1.
          2    1    1    2  501    0  0.19632366906E+02  0.11637352734E+02 -0.99417905745E+03  0.99444097667E+03  0.00000000000E+00 0. -1.
         -2    1    1    2    0  502 -0.19632366906E+02 -0.11637352734E+02 -0.36975451340E+03  0.37045817306E+03  0.00000000000E+00 0.  1.
<mgrwt>
<rscale>  2 0.22822309E+02</rscale>
<asrwt>0</asrwt>
<pdfrwt beam="1">  1       21 0.74275113E-04 0.22822309E+02</pdfrwt>
<pdfrwt beam="2">  1       21 0.20991074E+00 0.22822309E+02</pdfrwt>
<totfact> 0.20892519E+07</totfact>
</mgrwt>
</event>
<event>
 4    1  0.7478314E+004  0.2984006E+02  0.7546771E-02  0.1599863E+00
         21   -1    0    0  503  502  0.00000000000E+00  0.00000000000E+00  0.11028221789E+04  0.11028221789E+04  0.00000000000E+00 0. -1.
         21   -1    0    0  501  503 -0.00000000000E+00 -0.00000000000E+00 -0.80788975600E+00  0.80788975600E+00  0.00000000000E+00 0. -1.
          5    1    1    2  501    0 -0.20741006580E+02  0.21453197229E+02  0.53755206836E+03  0.53837965714E+03  0.00000000000E+00 0. -1.
         -5    1    1    2    0  502  0.20741006580E+02 -0.21453197229E+02  0.56446222082E+03  0.56525041155E+03  0.00000000000E+00 0.  1.
<mgrwt>
<rscale>  2 0.29840057E+02</rscale>
<asrwt>0</asrwt>
<pdfrwt beam="1">  1       21 0.16966375E+00 0.29840057E+02</pdfrwt>
<pdfrwt beam="2">  1       21 0.12429161E-03 0.29840057E+02</pdfrwt>
<totfact> 0.17859753E+07</totfact>
</mgrwt>
</event>
<event>
 4    1  0.7478314E+004  0.2422003E+02  0.7546771E-02  0.1672464E+00
         21   -1    0    0  501  502  0.00000000000E+00  0.00000000000E+00  0.62561917700E+02  0.62561917700E+02  0.00000000000E+00 0.  1.
         21   -1    0    0  502  503 -0.00000000000E+00 -0.00000000000E+00 -0.10781357516E+02  0.10781357516E+02  0.00000000000E+00 0.  1.
          3    1    1    2  501    0 -0.18718024364E+02  0.15370271300E+02  0.12652504323E+02  0.27325730394E+02  0.00000000000E+00 0. -1.
         -3    1    1    2    0  503  0.18718024364E+02 -0.15370271300E+02  0.39128055861E+02  0.46017544821E+02  0.00000000000E+00 0.  1.
<mgrwt>
<rscale>  2 0.24220026E+02</rscale>
<asrwt>0</asrwt>
<pdfrwt beam="1">  1       21 0.96249102E-02 0.24220026E+02</pdfrwt>
<pdfrwt beam="2">  1       21 0.16586704E-02 0.24220026E+02</pdfrwt>
<totfact> 0.10033792E+08</totfact>
</mgrwt>
</event>
<event>
 4    1  0.7478314E+004  0.2282608E+02  0.7546771E-02  0.1694345E+00
         21   -1    0    0  503  502  0.00000000000E+00  0.00000000000E+00  0.83461582712E+01  0.83461582712E+01  0.00000000000E+00 0. -1.
         21   -1    0    0  501  503 -0.00000000000E+00 -0.00000000000E+00 -0.68234089396E+02  0.68234089396E+02  0.00000000000E+00 0. -1.
          5    1    1    2  501    0 -0.22307766459E+02 -0.48366818430E+01 -0.18774150025E+02  0.29555010486E+02  0.00000000000E+00 0.  1.
         -5    1    1    2    0  502  0.22307766459E+02  0.48366818430E+01 -0.41113781099E+02  0.47025237181E+02  0.00000000000E+00 0. -1.
<mgrwt>
<rscale>  2 0.22826080E+02</rscale>
<asrwt>0</asrwt>
<pdfrwt beam="1">  1       21 0.12840244E-02 0.22826080E+02</pdfrwt>
<pdfrwt beam="2">  1       21 0.10497552E-01 0.22826080E+02</pdfrwt>
<totfact> 0.12607587E+08</totfact>
</mgrwt>
</event>
<event>
 4    1  0.7478314E+004  0.3327677E+02  0.7546771E-02  0.1564458E+00
         21   -1    0    0  501  502  0.00000000000E+00  0.00000000000E+00  0.36589506776E+02  0.36589506776E+02  0.00000000000E+00 0.  1.
         21   -1    0    0  502  503 -0.00000000000E+00 -0.00000000000E+00 -0.30265303651E+02  0.30265303651E+02  0.00000000000E+00 0.  1.
          1    1    1    2  501    0  0.25089187843E+02 -0.21860382484E+02  0.29400537807E+01  0.33406400363E+02  0.00000000000E+00 0. -1.
         -1    1    1    2    0  503 -0.25089187843E+02  0.21860382484E+02  0.33841493443E+01  0.33448410063E+02  0.00000000000E+00 0.  1.
<mgrwt>
<rscale>  2 0.33276774E+02</rscale>
<asrwt>0</asrwt>
<pdfrwt beam="1">  1       21 0.56291549E-02 0.33276774E+02</pdfrwt>
<pdfrwt beam="2">  1       21 0.46562006E-02 0.33276774E+02</pdfrwt>
<totfact> 0.51817475E+07</totfact>
</mgrwt>
</event>
<event>
 4    1  0.7478314E+004  0.2001620E+02  0.7546771E-02  0.1745006E+00
         21   -1    0    0  501  502  0.00000000000E+00  0.00000000000E+00  0.32497743531E+03  0.32497743531E+03  0.00000000000E+00 0.  1.
         21   -1    0    0  502  503 -0.00000000000E+00 -0.00000000000E+00 -0.16310309377E+01  0.16310309377E+01  0.00000000000E+00 0.  1.
          4    1    1    2  501    0  0.11164830081E+02  0.16613090580E+02  0.80985574338E+02  0.83422487737E+02  0.00000000000E+00 0. -1.
         -4    1    1    2    0  503 -0.11164830081E+02 -0.16613090580E+02  0.24236083003E+03  0.24318597851E+03  0.00000000000E+00 0.  1.
<mgrwt>
<rscale>  2 0.20016199E+02</rscale>
<asrwt>0</asrwt>
<pdfrwt beam="1">  1       21 0.49996477E-01 0.20016199E+02</pdfrwt>
<pdfrwt beam="2">  1       21 0.25092809E-03 0.20016199E+02</pdfrwt>
<totfact> 0.85049414E+07</totfact>
</mgrwt>
</event>
<event>
 4    1  0.7478314E+004  0.3010661E+02  0.7546771E-02  0.1596913E+00
         21   -1    0    0  501  502  0.00000000000E+00  0.00000000000E+00  0.49084214359E+01  0.49084214359E+01  0.00000000000E+00 0. -1.
         21   -1    0    0  502  503 -0.00000000000E+00 -0.00000000000E+00 -0.18621562235E+03  0.18621562235E+03  0.00000000000E+00 0. -1.
          4    1    1    2  501    0  0.41460513151E+00 -0.30103750834E+02 -0.81929925169E+02  0.87286427065E+02  0.00000000000E+00 0.  1.
         -4    1    1    2    0  503 -0.41460513151E+00  0.30103750834E+02 -0.99377275747E+02  0.10383761672E+03  0.00000000000E+00 0. -1.
<mgrwt>
<rscale>  2 0.30106606E+02</rscale>
<asrwt>0</asrwt>
<pdfrwt beam="1">  1       21 0.75514168E-03 0.30106606E+02</pdfrwt>
<pdfrwt beam="2">  1       21 0.28648560E-01 0.30106606E+02</pdfrwt>
<totfact> 0.52666959E+07</totfact>
</mgrwt>
</event>
<event>
 4    1  0.7478314E+004  0.2170769E+02  0.7546771E-02  0.1713357E+00
         21   -1    0    0  501  502  0.00000000000E+00  0.00000000000E+00  0.57411307627E+01  0.57411307627E+01  0.00000000000E+00 0. -1.
         21   -1    0    0  502  503 -0.00000000000E+00 -0.00000000000E+00 -0.86463011834E+02  0.86463011834E+02  0.00000000000E+00 0. -1.
          2    1    1    2  501    0  0.65428488194E+01  0.20698185288E+02 -0.50742507689E+02  0.55190812927E+02  0.00000000000E+00 0. -1.
         -2    1    1    2    0  503 -0.65428488194E+01 -0.20698185288E+02 -0.29979373382E+02  0.37013329670E+02  0.00000000000E+00 0.  1.
<mgrwt>
<rscale>  2 0.21707689E+02</rscale>
<asrwt>0</asrwt>
<pdfrwt beam="1">  1       21 0.88325090E-03 0.21707689E+02</pdfrwt>
<pdfrwt beam="2">  1       21 0.13302002E-01 0.21707689E+02</pdfrwt>
<totfact> 0.14675731E+08</totfact>
</mgrwt>
</event>
<event>
 4    1  0.7478314E+004  0.2643493E+02  0.7546771E-02  0.1641208E+00
         21   -1    0    0  503  502  0.00000000000E+00  0.00000000000E+00  0.36662163162E+01  0.36662163162E+01  0.00000000000E+00 0. -1.
         21   -1    0    0  501  503 -0.00000000000E+00 -0.00000000000E+00 -0.24784797728E+03  0.24784797728E+03  0.00000000000E+00 0. -1.
          4    1    1    2  501    0 -0.13305021819E+02  0.22842540568E+02 -0.18252672624E+03  0.18443104689E+03  0.00000000000E+00 0. -1.
         -4    1    1    2    0  502  0.13305021819E+02 -0.22842540568E+02 -0.61655034728E+02  0.67083146710E+02  0.00000000000E+00 0.  1.
<mgrwt>
<rscale>  2 0.26434925E+02</rscale>
<asrwt>0</asrwt>
<pdfrwt beam="1">  1       21 0.56403336E-03 0.26434925E+02</pdfrwt>
<pdfrwt beam="2">  1       21 0.38130452E-01 0.26434925E+02</pdfrwt>
<totfact> 0.46592494E+07</totfact>
</mgrwt>
</event>
<event>
 4    1  0.7478314E+004  0.3895414E+02  0.7546771E-02  0.1516052E+00
         21   -1    0    0  501  502  0.00000000000E+00  0.00000000000E+00  0.62482702732E+02  0.62482702732E+02  0.00000000000E+00 0. -1.
         21   -1    0    0  502  503 -0.00000000000E+00 -0.00000000000E+00 -0.26052584779E+02  0.26052584779E+02  0.00000000000E+00 0. -1.
          2    1    1    2  501    0 -0.28702791195E+02  0.26335804567E+02  0.29743947342E+02  0.49011500977E+02  0.00000000000E+00 0. -1.
         -2    1    1    2    0  503  0.28702791195E+02 -0.26335804567E+02  0.66861706113E+01  0.39523786534E+02  0.00000000000E+00 0.  1.
<mgrwt>
<rscale>  2 0.38954137E+02</rscale>
<asrwt>0</asrwt>
<pdfrwt beam="1">  1       21 0.96127234E-02 0.38954137E+02</pdfrwt>
<pdfrwt beam="2">  1       21 0.40080900E-02 0.38954137E+02</pdfrwt>
<totfact> 0.28073060E+07</totfact>
</mgrwt>
</event>
<event>
 4    1  0.7478314E+004  0.3469091E+02  0.7546771E-02  0.1551363E+00
         21   -1    0    0  501  502  0.00000000000E+00  0.00000000000E+00  0.62962237652E+01  0.62962237652E+01  0.00000000000E+00 0.  1.
         21   -1    0    0  502  503 -0.00000000000E+00 -0.00000000000E+00 -0.19853679730E+03  0.19853679730E+03  0.00000000000E+00 0.  1.
          2    1    1    2  501    0 -0.20894321242E+02 -0.27692715728E+02 -0.11588889999E+03  0.12096981568E+03  0.00000000000E+00 0.  1.
         -2    1    1    2    0  503  0.20894321242E+02  0.27692715728E+02 -0.76351673546E+02  0.83863205387E+02  0.00000000000E+00 0. -1.
<mgrwt>
<rscale>  2 0.34690909E+02</rscale>
<asrwt>0</asrwt>
<pdfrwt beam="1">  1       21 0.96864998E-03 0.34690909E+02</pdfrwt>
<pdfrwt beam="2">  1       21 0.30544117E-01 0.34690909E+02</pdfrwt>
<totfact> 0.33023092E+07</totfact>
</mgrwt>
</event>
<event>
 4    1  0.7478314E+004  0.3318154E+02  0.7546771E-02  0.1565368E+00
         21   -1    0    0  501  502  0.00000000000E+00  0.00000000000E+00  0.24038935022E+03  0.24038935022E+03  0.00000000000E+00 0.  1.
         21   -1    0    0  502  503 -0.00000000000E+00 -0.00000000000E+00 -0.55637732408E+01  0.55637732408E+01  0.00000000000E+00 0.  1.
          4    1    1    2  501    0  0.23322535931E+02 -0.23602413982E+02  0.16912061714E+03  0.17234499636E+03  0.00000000000E+00 0.  1.
         -4    1    1    2    0  503 -0.23322535931E+02  0.23602413982E+02  0.65704959841E+02  0.73608127104E+02  0.00000000000E+00 0. -1.
<mgrwt>
<rscale>  2 0.33181540E+02</rscale>
<asrwt>0</asrwt>
<pdfrwt beam="1">  1       21 0.36982969E-01 0.33181540E+02</pdfrwt>
<pdfrwt beam="2">  1       21 0.85596530E-03 0.33181540E+02</pdfrwt>
<totfact> 0.27619250E+07</totfact>
</mgrwt>
</event>
<event>
 4    1  0.7478314E+004  0.2575841E+02  0.7546771E-02  0.1650342E+00
         21   -1    0    0  501  502  0.00000000000E+00  0.00000000000E+00  0.29950752734E+01  0.29950752734E+01  0.00000000000E+00 0.  1.
         21   -1    0    0  502  503 -0.00000000000E+00 -0.00000000000E+00 -0.25182176300E+03  0.25182176300E+03  0.00000000000E+00 0.  1.
          4    1    1    2  501    0 -0.25413145172E+02 -0.42032980870E+01 -0.80223565733E+02  0.84257439798E+02  0.00000000000E+00 0. -1.
         -4    1    1    2    0  503  0.25413145172E+02  0.42032980870E+01 -0.16860312199E+03  0.17055939847E+03  0.00000000000E+00 0.  1.
<mgrwt>
<rscale>  2 0.25758410E+02</rscale>
<asrwt>0</asrwt>
<pdfrwt beam="1">  1       21 0.46078092E-03 0.25758410E+02</pdfrwt>
<pdfrwt beam="2">  1       21 0.38741801E-01 0.25758410E+02</pdfrwt>
<totfact> 0.60661104E+07</totfact>
</mgrwt>
</event>
<event>
 4    1  0.7478314E+004  0.5982236E+02  0.7546771E-02  0.1398579E+00
         21   -1    0    0  503  502  0.00000000000E+00  0.00000000000E+00  0.38873460506E+01  0.38873460506E+01  0.00000000000E+00 0.  1.
         21   -1    0    0  501  503 -0.00000000000E+00 -0.00000000000E+00 -0.92865885701E+03  0.92865885701E+03  0.00000000000E+00 0.  1.
          5    1    1    2  501    0  0.55883540204E+02 -0.21348175854E+02 -0.41896641407E+03  0.42321574970E+03  0.00000000000E+00 0.  1.
         -5    1    1    2    0  502 -0.55883540204E+02  0.21348175854E+02 -0.50580509688E+03  0.50933045335E+03  0.00000000000E+00 0. -1.
<mgrwt>
<rscale>  2 0.59822359E+02</rscale>
<asrwt>0</asrwt>
<pdfrwt beam="1">  1       21 0.59805170E-03 0.59822359E+02</pdfrwt>
<pdfrwt beam="2">  1       21 0.14287096E+00 0.59822359E+02</pdfrwt>
<totfact> 0.28209590E+06</totfact>
</mgrwt>
</event>
<event>
 4    1  0.7478314E+004  0.2339060E+02  0.7546771E-02  0.1685256E+00
         21   -1    0    0  501  502  0.00000000000E+00  0.00000000000E+00  0.59829560912E+01  0.59829560912E+01  0.00000000000E+00 0. -1.
         21   -1    0    0  502  503 -0.00000000000E+00 -0.00000000000E+00 -0.95586475554E+02  0.95586475554E+02  0.00000000000E+00 0. -1.
          5    1    1    2  501    0  0.20356783546E+02 -0.11520491829E+02 -0.55370760209E+02  0.60108580539E+02  0.00000000000E+00 0.  1.
         -5    1    1    2    0  503 -0.20356783546E+02  0.11520491829E+02 -0.34232759254E+02  0.41460851106E+02  0.00000000000E+00 0. -1.
<mgrwt>
<rscale>  2 0.23390604E+02</rscale>
<asrwt>0</asrwt>
<pdfrwt beam="1">  1       21 0.92045469E-03 0.23390604E+02</pdfrwt>
<pdfrwt beam="2">  1       21 0.14705613E-01 0.23390604E+02</pdfrwt>
<totfact> 0.11900292E+08</totfact>
</mgrwt>
</event>
<event>
 4    1  0.7478314E+004  0.2345458E+02  0.7546771E-02  0.1684246E+00
         21   -1    0    0  503  502  0.00000000000E+00  0.00000000000E+00  0.21248036877E+03  0.21248036877E+03  0.00000000000E+00 0. -1.
         21   -1    0    0  501  503 -0.00000000000E+00 -0.00000000000E+00 -0.27913410115E+01  0.27913410115E+01  0.00000000000E+00 0. -1.
          5    1    1    2  501    0  0.33386093855E+01  0.23215748836E+02  0.75866806157E+02  0.79409631552E+02  0.00000000000E+00 0. -1.
         -5    1    1    2    0  502 -0.33386093855E+01 -0.23215748836E+02  0.13382222160E+03  0.13586207823E+03  0.00000000000E+00 0.  1.
<mgrwt>
<rscale>  2 0.23454580E+02</rscale>
<asrwt>0</asrwt>
<pdfrwt beam="1">  1       21 0.32689275E-01 0.23454580E+02</pdfrwt>
<pdfrwt beam="2">  1       21 0.42943725E-03 0.23454580E+02</pdfrwt>
<totfact> 0.90236423E+07</totfact>
</mgrwt>
</event>
<event>
 4    1  0.7478314E+004  0.2437820E+02  0.7546771E-02  0.1670097E+00
         21   -1    0    0  503  502  0.00000000000E+00  0.00000000000E+00  0.33573251827E+00  0.33573251827E+00  0.00000000000E+00 0. -1.
         21   -1    0    0  501  503 -0.00000000000E+00 -0.00000000000E+00 -0.18032032744E+04  0.18032032744E+04  0.00000000000E+00 0. -1.
          5    1    1    2  501    0  0.22033784627E+02  0.10431161020E+02 -0.77934294605E+03  0.77972413349E+03  0.00000000000E+00 0. -1.
         -5    1    1    2    0  502 -0.22033784627E+02 -0.10431161020E+02 -0.10235245958E+04  0.10238148734E+04  0.00000000000E+00 0.  1.
<mgrwt>
<rscale>  2 0.24378203E+02</rscale>
<asrwt>0</asrwt>
<pdfrwt beam="1">  1       21 0.51649815E-04 0.24378203E+02</pdfrwt>
<pdfrwt beam="2">  1       21 0.27742309E+00 0.24378203E+02</pdfrwt>
<totfact> 0.15975635E+07</totfact>
</mgrwt>
</event>
<event>
 4    1  0.7478314E+004  0.2984092E+02  0.7546771E-02  0.1599854E+00
         21   -1    0    0  503  502  0.00000000000E+00  0.00000000000E+00  0.56140884659E+02  0.56140884659E+02  0.00000000000E+00 0. -1.
         21   -1    0    0  501  503 -0.00000000000E+00 -0.00000000000E+00 -0.15914986855E+02  0.15914986855E+02  0.00000000000E+00 0. -1.
          2    1    1    2  501    0  0.18320516791E+02 -0.23555028388E+02  0.22200855434E+02  0.37193530080E+02  0.00000000000E+00 0.  1.
         -2    1    1    2    0  502 -0.18320516791E+02  0.23555028388E+02  0.18025042370E+02  0.34862341434E+02  0.00000000000E+00 0. -1.
<mgrwt>
<rscale>  2 0.29840923E+02</rscale>
<asrwt>0</asrwt>
<pdfrwt beam="1">  1       21 0.86370590E-02 0.29840923E+02</pdfrwt>
<pdfrwt beam="2">  1       21 0.24484596E-02 0.29840923E+02</pdfrwt>
<totfact> 0.69376685E+07</totfact>
</mgrwt>
</event>
<event>
 4    1  0.7478314E+004  0.3269409E+02  0.7546771E-02  0.1570086E+00
         21   -1    0    0  503  502  0.00000000000E+00  0.00000000000E+00  0.34645448817E+02  0.34645448817E+02  0.00000000000E+00 0. -1.
         21   -1    0    0  501  503 -0.00000000000E+00 -0.00000000000E+00 -0.32315795098E+02  0.32315795098E+02  0.00000000000E+00 0. -1.
          3    1    1    2  501    0  0.28739196081E+02 -0.15587250191E+02 -0.59592799202E+01  0.33232766618E+02  0.00000000000E+00 0. -1.
         -3    1    1    2    0  502 -0.28739196081E+02  0.15587250191E+02  0.82889336401E+01  0.33728477297E+02  0.00000000000E+00 0.  1.
<mgrwt>
<rscale>  2 0.32694094E+02</rscale>
<asrwt>0</asrwt>
<pdfrwt beam="1">  1       21 0.53300690E-02 0.32694094E+02</pdfrwt>
<pdfrwt beam="2">  1       21 0.49716608E-02 0.32694094E+02</pdfrwt>
<totfact> 0.50746361E+07</totfact>
</mgrwt>
</event>
<event>
 4    1  0.7478314E+004  0.2145297E+02  0.7546771E-02  0.1717888E+00
         21   -1    0    0  501  502  0.00000000000E+00  0.00000000000E+00  0.28924492924E+03  0.28924492924E+03  0.00000000000E+00 0.  1.
         21   -1    0    0  502  503 -0.00000000000E+00 -0.00000000000E+00 -0.28539513156E+01  0.28539513156E+01  0.00000000000E+00 0.  1.
          4    1    1    2  501    0  0.63375388866E+01  0.20495498387E+02  0.24034607997E+03  0.24130161211E+03  0.00000000000E+00 0. -1.
         -4    1    1    2    0  503 -0.63375388866E+01 -0.20495498387E+02  0.46044897961E+02  0.50797268445E+02  0.00000000000E+00 0.  1.
<mgrwt>
<rscale>  2 0.21452968E+02</rscale>
<asrwt>0</asrwt>
<pdfrwt beam="1">  1       21 0.44499197E-01 0.21452968E+02</pdfrwt>
<pdfrwt beam="2">  1       21 0.43906966E-03 0.21452968E+02</pdfrwt>
<totfact> 0.47953925E+07</totfact>
</mgrwt>
</event>
<event>
 4    1  0.7478314E+004  0.3526981E+02  0.7546771E-02  0.1546218E+00
         21   -1    0    0  501  502  0.00000000000E+00  0.00000000000E+00  0.51713694987E+02  0.51713694987E+02  0.00000000000E+00 0.  1.
         21   -1    0    0  502  503 -0.00000000000E+00 -0.00000000000E+00 -0.24112862039E+02  0.24112862039E+02  0.00000000000E+00 0.  1.
          1    1    1    2  501    0 -0.34434710636E+02  0.76295723789E+01  0.15661749546E+02  0.38590802921E+02  0.00000000000E+00 0.  1.
         -1    1    1    2    0  503  0.34434710636E+02 -0.76295723789E+01  0.11939083402E+02  0.37235754105E+02  0.00000000000E+00 0. -1.
<mgrwt>
<rscale>  2 0.35269812E+02</rscale>
<asrwt>0</asrwt>
<pdfrwt beam="1">  1       21 0.79559531E-02 0.35269812E+02</pdfrwt>
<pdfrwt beam="2">  1       21 0.37096711E-02 0.35269812E+02</pdfrwt>
<totfact> 0.42796215E+07</totfact>
</mgrwt>
</event>
<event>
 4    1  0.7478314E+004  0.2119893E+02  0.7546771E-02  0.1722486E+00
         21   -1    0    0  501  502  0.00000000000E+00  0.00000000000E+00  0.13911430977E+02  0.13911430977E+02  0.00000000000E+00 0. -1.
         21   -1    0    0  502  503 -0.00000000000E+00 -0.00000000000E+00 -0.45320786015E+02  0.45320786015E+02  0.00000000000E+00 0. -1.
          3    1    1    2  501    0 -0.20501966723E+02  0.53911133956E+01 -0.31576664776E+02  0.38032624173E+02  0.00000000000E+00 0.  1.
         -3    1    1    2    0  503  0.20501966723E+02 -0.53911133956E+01  0.16730973763E+00  0.21199592819E+02  0.00000000000E+00 0. -1.
<mgrwt>
<rscale>  2 0.21198933E+02</rscale>
<asrwt>0</asrwt>
<pdfrwt beam="1">  1       21 0.21402202E-02 0.21198933E+02</pdfrwt>
<pdfrwt beam="2">  1       21 0.69724284E-02 0.21198933E+02</pdfrwt>
<totfact> 0.11065562E+08</totfact>
</mgrwt>
</event>
<event>
 4    1  0.7478314E+004  0.2885302E+02  0.7546771E-02  0.1611124E+00
         21   -1    0    0  503  502  0.00000000000E+00  0.00000000000E+00  0.24942627207E+02  0.24942627207E+02  0.00000000000E+00 0. -1.
         21   -1    0    0  501  503 -0.00000000000E+00 -0.00000000000E+00 -0.33390501472E+02  0.33390501472E+02  0.00000000000E+00 0. -1.
          3    1    1    2  501    0 -0.26529745059E+02 -0.11343254228E+02 -0.48218834849E+01  0.29253159654E+02  0.00000000000E+00 0. -1.
         -3    1    1    2    0  502  0.26529745059E+02  0.11343254228E+02 -0.36259907800E+01  0.29079969026E+02  0.00000000000E+00 0.  1.
<mgrwt>
<rscale>  2 0.28853020E+02</rscale>
<asrwt>0</asrwt>
<pdfrwt beam="1">  1       21 0.38373273E-02 0.28853020E+02</pdfrwt>
<pdfrwt beam="2">  1       21 0.51370002E-02 0.28853020E+02</pdfrwt>
<totfact> 0.79216481E+07</totfact>
</mgrwt>
</event>
<event>
 4    1  0.7478314E+004  0.2762335E+02  0.7546771E-02  0.1625950E+00
         21   -1    0    0  503  502  0.00000000000E+00  0.00000000000E+00  0.25739019637E+01  0.25739019637E+01  0.00000000000E+00 0. -1.
         21   -1    0    0  501  503 -0.00000000000E+00 -0.00000000000E+00 -0.33442277665E+03  0.33442277665E+03  0.00000000000E+00 0. -1.
          5    1    1    2  501    0 -0.12031660924E+02  0.24865404591E+02 -0.10915058188E+03  0.11259173475E+03  0.00000000000E+00 0.  1.
         -5    1    1    2    0  502  0.12031660924E+02 -0.24865404591E+02 -0.22269829281E+03  0.22440494386E+03  0.00000000000E+00 0. -1.
<mgrwt>
<rscale>  2 0.27623345E+02</rscale>
<asrwt>0</asrwt>
<pdfrwt beam="1">  1       21 0.39598509E-03 0.27623345E+02</pdfrwt>
<pdfrwt beam="2">  1       21 0.51449635E-01 0.27623345E+02</pdfrwt>
<totfact> 0.44618638E+07</totfact>
</mgrwt>
</event>
<event>
 4    1  0.7478314E+004  0.2357841E+02  0.7546771E-02  0.1682302E+00
         21   -1    0    0  503  502  0.00000000000E+00  0.00000000000E+00  0.11946194529E+03  0.11946194529E+03  0.00000000000E+00 0.  1.
         21   -1    0    0  501  503 -0.00000000000E+00 -0.00000000000E+00 -0.59742015018E+01  0.59742015018E+01  0.00000000000E+00 0.  1.
          1    1    1    2  501    0 -0.21882061071E+02  0.87816277087E+01  0.86230161261E+02  0.89395650303E+02  0.00000000000E+00 0. -1.
         -1    1    1    2    0  502  0.21882061071E+02 -0.87816277087E+01  0.27257582526E+02  0.36040496488E+02  0.00000000000E+00 0.  1.
<mgrwt>
<rscale>  2 0.23578413E+02</rscale>
<asrwt>0</asrwt>
<pdfrwt beam="1">  1       21 0.18378759E-01 0.23578413E+02</pdfrwt>
<pdfrwt beam="2">  1       21 0.91910801E-03 0.23578413E+02</pdfrwt>
<totfact> 0.81513747E+07</totfact>
</mgrwt>
</event>
<event>
 4    1  0.7478314E+004  0.3329301E+02  0.7546771E-02  0.1564303E+00
         21   -1    0    0  503  502  0.00000000000E+00  0.00000000000E+00  0.17122471452E+01  0.17122471452E+01  0.00000000000E+00 0. -1.
         21   -1    0    0  501  503 -0.00000000000E+00 -0.00000000000E+00 -0.65322012902E+03  0.65322012902E+03  0.00000000000E+00 0. -1.
          3    1    1    2  501    0  0.18768635020E+02  0.27498415860E+02 -0.29471324649E+03  0.29658779846E+03  0.00000000000E+00 0. -1.
         -3    1    1    2    0  502 -0.18768635020E+02 -0.27498415860E+02 -0.35679463539E+03  0.35834457771E+03  0.00000000000E+00 0.  1.
<mgrwt>
<rscale>  2 0.33293010E+02</rscale>
<asrwt>0</asrwt>
<pdfrwt beam="1">  1       21 0.26342247E-03 0.33293010E+02</pdfrwt>
<pdfrwt beam="2">  1       21 0.10049547E+00 0.33293010E+02</pdfrwt>
<totfact> 0.20780489E+07</totfact>
</mgrwt>
</event>
<event>
 4    1  0.7478314E+004  0.3181808E+02  0.7546771E-02  0.1578820E+00
         21   -1    0    0  503  502  0.00000000000E+00  0.00000000000E+00  0.90158346551E+02  0.90158346551E+02  0.00000000000E+00 0.  1.
         21   -1    0    0  501  503 -0.00000000000E+00 -0.00000000000E+00 -0.11248709985E+02  0.11248709985E+02  0.00000000000E+00 0.  1.
          4    1    1    2  501    0  0.19171558065E+02 -0.25393732883E+02  0.41575896503E+02  0.52354039753E+02  0.00000000000E+00 0. -1.
         -4    1    1    2    0  502 -0.19171558065E+02  0.25393732883E+02  0.37333740064E+02  0.49053016783E+02  0.00000000000E+00 0.  1.
<mgrwt>
<rscale>  2 0.31818081E+02</rscale>
<asrwt>0</asrwt>
<pdfrwt beam="1">  1       21 0.13870514E-01 0.31818081E+02</pdfrwt>
<pdfrwt beam="2">  1       21 0.17305708E-02 0.31818081E+02</pdfrwt>
<totfact> 0.54298964E+07</totfact>
</mgrwt>
</event>
<event>
 4    1  0.7478314E+004  0.2195321E+02  0.7546771E-02  0.1709062E+00
         21   -1    0    0  501  502  0.00000000000E+00  0.00000000000E+00  0.22061125265E+01  0.22061125265E+01  0.00000000000E+00 0.  1.
         21   -1    0    0  502  503 -0.00000000000E+00 -0.00000000000E+00 -0.23116131754E+03  0.23116131754E+03  0.00000000000E+00 0.  1.
          1    1    1    2  501    0  0.21872761229E+02 -0.18777061653E+01 -0.14183073741E+03  0.14351969042E+03  0.00000000000E+00 0. -1.
         -1    1    1    2    0  503 -0.21872761229E+02  0.18777061653E+01 -0.87124467606E+02  0.89847739648E+02  0.00000000000E+00 0.  1.
<mgrwt>
<rscale>  2 0.21953211E+02</rscale>
<asrwt>0</asrwt>
<pdfrwt beam="1">  1       21 0.33940169E-03 0.21953211E+02</pdfrwt>
<pdfrwt beam="2">  1       21 0.35563304E-01 0.21953211E+02</pdfrwt>
<totfact> 0.10711017E+08</totfact>
</mgrwt>
</event>
<event>
 4    1  0.7478314E+004  0.2878241E+02  0.7546771E-02  0.1611951E+00
         21   -1    0    0  503  502  0.00000000000E+00  0.00000000000E+00  0.52218593746E+02  0.52218593746E+02  0.00000000000E+00 0. -1.
         21   -1    0    0  501  503 -0.00000000000E+00 -0.00000000000E+00 -0.16160982721E+02  0.16160982721E+02  0.00000000000E+00 0. -1.
          2    1    1    2  501    0  0.23542255336E+02 -0.16558666857E+02  0.22658870804E+02  0.36631293459E+02  0.00000000000E+00 0. -1.
         -2    1    1    2    0  502 -0.23542255336E+02  0.16558666857E+02  0.13398740221E+02  0.31748283007E+02  0.00000000000E+00 0.  1.
<mgrwt>
<rscale>  2 0.28782412E+02</rscale>
<asrwt>0</asrwt>
<pdfrwt beam="1">  1       21 0.80336298E-02 0.28782412E+02</pdfrwt>
<pdfrwt beam="2">  1       21 0.24863050E-02 0.28782412E+02</pdfrwt>
<totfact> 0.75682747E+07</totfact>
</mgrwt>
</event>
<event>
 4    1  0.7478314E+004  0.3038542E+02  0.7546771E-02  0.1593867E+00
         21   -1    0    0  503  502  0.00000000000E+00  0.00000000000E+00  0.81985176702E+01  0.81985176702E+01  0.00000000000E+00 0. -1.
         21   -1    0    0  501  503 -0.00000000000E+00 -0.00000000000E+00 -0.20217103759E+03  0.20217103759E+03  0.00000000000E+00 0. -1.
          2    1    1    2  501    0 -0.29316248221E+02  0.79894684303E+01 -0.26979260335E+02  0.40634400498E+02  0.00000000000E+00 0.  1.
         -2    1    1    2    0  502  0.29316248221E+02 -0.79894684303E+01 -0.16699325958E+03  0.16973515476E+03  0.00000000000E+00 0. -1.
<mgrwt>
<rscale>  2 0.30385424E+02</rscale>
<asrwt>0</asrwt>
<pdfrwt beam="1">  1       21 0.12613104E-02 0.30385424E+02</pdfrwt>
<pdfrwt beam="2">  1       21 0.31103236E-01 0.30385424E+02</pdfrwt>
<totfact> 0.20850849E+07</totfact>
</mgrwt>
</event>
<event>
 4    1  0.7478314E+004  0.2431210E+02  0.7546771E-02  0.1671084E+00
         21   -1    0    0  501  502  0.00000000000E+00  0.00000000000E+00  0.16486676114E+01  0.16486676114E+01  0.00000000000E+00 0.  1.
         21   -1    0    0  502  503 -0.00000000000E+00 -0.00000000000E+00 -0.37088436477E+03  0.37088436477E+03  0.00000000000E+00 0.  1.
          5    1    1    2  501    0 -0.59977888804E+00 -0.24304702734E+02 -0.21862911181E+03  0.21997674159E+03  0.00000000000E+00 0.  1.
         -5    1    1    2    0  503  0.59977888804E+00  0.24304702734E+02 -0.15060658535E+03  0.15255629079E+03  0.00000000000E+00 0. -1.
<mgrwt>
<rscale>  2 0.24312102E+02</rscale>
<asrwt>0</asrwt>
<pdfrwt beam="1">  1       21 0.25364123E-03 0.24312102E+02</pdfrwt>
<pdfrwt beam="2">  1       21 0.57059121E-01 0.24312102E+02</pdfrwt>
<totfact> 0.67897044E+07</totfact>
</mgrwt>
</event>
<event>
 4    1  0.7478314E+004  0.2659715E+02  0.7546771E-02  0.1639067E+00
         21   -1    0    0  501  502  0.00000000000E+00  0.00000000000E+00  0.38273701023E+01  0.38273701023E+01  0.00000000000E+00 0.  1.
         21   -1    0    0  502  503 -0.00000000000E+00 -0.00000000000E+00 -0.20260836814E+03  0.20260836814E+03  0.00000000000E+00 0.  1.
          1    1    1    2  501    0 -0.49655530556E+01 -0.26129513205E+02 -0.68814056899E+02  0.73775216735E+02  0.00000000000E+00 0.  1.
         -1    1    1    2    0  503  0.49655530556E+01  0.26129513205E+02 -0.12996694114E+03  0.13266052151E+03  0.00000000000E+00 0. -1.
<mgrwt>
<rscale>  2 0.26597146E+02</rscale>
<asrwt>0</asrwt>
<pdfrwt beam="1">  1       21 0.58882611E-03 0.26597146E+02</pdfrwt>
<pdfrwt beam="2">  1       21 0.31170521E-01 0.26597146E+02</pdfrwt>
<totfact> 0.63672398E+07</totfact>
</mgrwt>
</event>
<event>
 4    1  0.7478314E+004  0.2356669E+02  0.7546771E-02  0.1682486E+00
         21   -1    0    0  503  502  0.00000000000E+00  0.00000000000E+00  0.36186657012E+03  0.36186657012E+03  0.00000000000E+00 0.  1.
         21   -1    0    0  501  503 -0.00000000000E+00 -0.00000000000E+00 -0.19115697240E+01  0.19115697240E+01  0.00000000000E+00 0.  1.
          4    1    1    2  501    0 -0.23050525974E+02  0.49053206154E+01  0.26072995448E+03  0.26179285338E+03  0.00000000000E+00 0.  1.
         -4    1    1    2    0  502  0.23050525974E+02 -0.49053206154E+01  0.99225045921E+02  0.10198528647E+03  0.00000000000E+00 0. -1.
<mgrwt>
<rscale>  2 0.23566691E+02</rscale>
<asrwt>0</asrwt>
<pdfrwt beam="1">  1       21 0.55671726E-01 0.23566691E+02</pdfrwt>
<pdfrwt beam="2">  1       21 0.29408794E-03 0.23566691E+02</pdfrwt>
<totfact> 0.57054188E+07</totfact>
</mgrwt>
</event>
<event>
 4    1  0.7478314E+004  0.2134351E+02  0.7546771E-02  0.1719859E+00
         21   -1    0    0  503  502  0.00000000000E+00  0.00000000000E+00  0.96925092206E+02  0.96925092206E+02  0.00000000000E+00 0.  1.
         21   -1    0    0  501  503 -0.00000000000E+00 -0.00000000000E+00 -0.54577250569E+01  0.54577250569E+01  0.00000000000E+00 0.  1.
          3    1    1    2  501    0  0.19500668171E+02  0.86758037398E+01  0.26659151662E+02  0.34150490435E+02  0.00000000000E+00 0. -1.
         -3    1    1    2    0  502 -0.19500668171E+02 -0.86758037398E+01  0.64808215487E+02  0.68232326828E+02  0.00000000000E+00 0.  1.
<mgrwt>
<rscale>  2 0.21343515E+02</rscale>
<asrwt>0</asrwt>
<pdfrwt beam="1">  1       21 0.14911551E-01 0.21343515E+02</pdfrwt>
<pdfrwt beam="2">  1       21 0.83965008E-03 0.21343515E+02</pdfrwt>
<totfact> 0.12983967E+08</totfact>
</mgrwt>
</event>
<event>
 4    1  0.7478314E+004  0.3369514E+02  0.7546771E-02  0.1560503E+00
         21   -1    0    0  501  502  0.00000000000E+00  0.00000000000E+00  0.16786583735E+03  0.16786583735E+03  0.00000000000E+00 0. -1.
         21   -1    0    0  502  503 -0.00000000000E+00 -0.00000000000E+00 -0.75749868269E+01  0.75749868269E+01  0.00000000000E+00 0. -1.
          5    1    1    2  501    0  0.28182724988E+02  0.18468791890E+02  0.10885639068E+03  0.11395207788E+03  0.00000000000E+00 0. -1.
         -5    1    1    2    0  503 -0.28182724988E+02 -0.18468791890E+02  0.51434459842E+02  0.61488746295E+02  0.00000000000E+00 0.  1.
<mgrwt>
<rscale>  2 0.33695137E+02</rscale>
<asrwt>0</asrwt>
<pdfrwt beam="1">  1       21 0.25825511E-01 0.33695137E+02</pdfrwt>
<pdfrwt beam="2">  1       21 0.11653827E-02 0.33695137E+02</pdfrwt>
<totfact> 0.33709518E+07</totfact>
</mgrwt>
</event>
<event>
 4    1  0.7478314E+004  0.2546005E+02  0.7546771E-02  0.1654481E+00
         21   -1    0    0  503  502  0.00000000000E+00  0.00000000000E+00  0.60970050618E+02  0.60970050618E+02  0.00000000000E+00 0.  1.
         21   -1    0    0  501  503 -0.00000000000E+00 -0.00000000000E+00 -0.11854162075E+02  0.11854162075E+02  0.00000000000E+00 0.  1.
          3    1    1    2  501    0 -0.24626767361E+02  0.64603668593E+01  0.36251101480E+02  0.44298491725E+02  0.00000000000E+00 0.  1.
         -3    1    1    2    0  502  0.24626767361E+02 -0.64603668593E+01  0.12864787062E+02  0.28525720968E+02  0.00000000000E+00 0. -1.
<mgrwt>
<rscale>  2 0.25460047E+02</rscale>
<asrwt>0</asrwt>
<pdfrwt beam="1">  1       21 0.93800076E-02 0.25460047E+02</pdfrwt>
<pdfrwt beam="2">  1       21 0.18237173E-02 0.25460047E+02</pdfrwt>
<totfact> 0.91756535E+07</totfact>
</mgrwt>
</event>
<event>
 4    1  0.7478314E+004  0.3586063E+02  0.7546771E-02  0.1541088E+00
         21   -1    0    0  503  502  0.00000000000E+00  0.00000000000E+00  0.24050838407E+01  0.24050838407E+01  0.00000000000E+00 0.  1.
         21   -1    0    0  501  503 -0.00000000000E+00 -0.00000000000E+00 -0.86226475701E+03  0.86226475701E+03  0.00000000000E+00 0.  1.
          4    1    1    2  501    0 -0.32781519873E+02 -0.14538121626E+02 -0.16345742675E+03  0.16734489949E+03  0.00000000000E+00 0. -1.
         -4    1    1    2    0  502  0.32781519873E+02  0.14538121626E+02 -0.69640224643E+03  0.69732494137E+03  0.00000000000E+00 0.  1.
<mgrwt>
<rscale>  2 0.35860633E+02</rscale>
<asrwt>0</asrwt>
<pdfrwt beam="1">  1       21 0.37001260E-03 0.35860633E+02</pdfrwt>
<pdfrwt beam="2">  1       21 0.13265622E+00 0.35860633E+02</pdfrwt>
<totfact> 0.67156674E+06</totfact>
</mgrwt>
</event>
<event>
 4    1  0.7478314E+004  0.2016343E+02  0.7546771E-02  0.1742097E+00
         21   -1    0    0  503  502  0.00000000000E+00  0.00000000000E+00  0.62160673807E+01  0.62160673807E+01  0.00000000000E+00 0.  1.
         21   -1    0    0  501  503 -0.00000000000E+00 -0.00000000000E+00 -0.67745612094E+02  0.67745612094E+02  0.00000000000E+00 0.  1.
          4    1    1    2  501    0  0.16711522926E+02 -0.11282245985E+02 -0.23891425222E+02  0.31262825722E+02  0.00000000000E+00 0.  1.
         -4    1    1    2    0  502 -0.16711522926E+02  0.11282245985E+02 -0.37638119491E+02  0.42698853752E+02  0.00000000000E+00 0. -1.
<mgrwt>
<rscale>  2 0.20163434E+02</rscale>
<asrwt>0</asrwt>
<pdfrwt beam="1">  1       21 0.95631806E-03 0.20163434E+02</pdfrwt>
<pdfrwt beam="2">  1       21 0.10422402E-01 0.20163434E+02</pdfrwt>
<totfact> 0.19125753E+08</totfact>
</mgrwt>
</event>
<event>
 4    1  0.7478314E+004  0.2235566E+02  0.7546771E-02  0.1702173E+00
         21   -1    0    0  503  502  0.00000000000E+00  0.00000000000E+00  0.13527432209E+03  0.13527432209E+03  0.00000000000E+00 0. -1.
         21   -1    0    0  501  503 -0.00000000000E+00 -0.00000000000E+00 -0.45558464411E+01  0.45558464411E+01  0.00000000000E+00 0. -1.
          1    1    1    2  501    0  0.73481027837E+01 -0.21113519653E+02  0.95758789815E+02  0.98333723378E+02  0.00000000000E+00 0.  1.
         -1    1    1    2    0  502 -0.73481027837E+01  0.21113519653E+02  0.34959685829E+02  0.41496445148E+02  0.00000000000E+00 0. -1.
<mgrwt>
<rscale>  2 0.22355655E+02</rscale>
<asrwt>0</asrwt>
<pdfrwt beam="1">  1       21 0.20811431E-01 0.22355655E+02</pdfrwt>
<pdfrwt beam="2">  1       21 0.70089956E-03 0.22355655E+02</pdfrwt>
<totfact> 0.96970741E+07</totfact>
</mgrwt>
</event>
<event>
 4    1  0.7478314E+004  0.3484652E+02  0.7546771E-02  0.1549968E+00
         21   -1    0    0  503  502  0.00000000000E+00  0.00000000000E+00  0.55641429656E+01  0.55641429656E+01  0.00000000000E+00 0.  1.
         21   -1    0    0  501  503 -0.00000000000E+00 -0.00000000000E+00 -0.24199261501E+03  0.24199261501E+03  0.00000000000E+00 0.  1.
          1    1    1    2  501    0  0.34390719896E+02 -0.56176535665E+01 -0.79429273411E+02  0.86736895962E+02  0.00000000000E+00 0.  1.
         -1    1    1    2    0  502 -0.34390719896E+02  0.56176535665E+01 -0.15699919864E+03  0.16081986202E+03  0.00000000000E+00 0. -1.
<mgrwt>
<rscale>  2 0.34846516E+02</rscale>
<asrwt>0</asrwt>
<pdfrwt beam="1">  1       21 0.85602186E-03 0.34846516E+02</pdfrwt>
<pdfrwt beam="2">  1       21 0.37229639E-01 0.34846516E+02</pdfrwt>
<totfact> 0.27508786E+07</totfact>
</mgrwt>
</event>
<event>
 4    1  0.7478314E+004  0.4010379E+02  0.7546771E-02  0.1507449E+00
         21   -1    0    0  501  502  0.00000000000E+00  0.00000000000E+00  0.20458141154E+02  0.20458141154E+02  0.00000000000E+00 0. -1.
         21   -1    0    0  502  503 -0.00000000000E+00 -0.00000000000E+00 -0.15939585113E+03  0.15939585113E+03  0.00000000000E+00 0. -1.
          2    1    1    2  501    0  0.38977168050E+02  0.94389744466E+01 -0.54502548352E+01  0.40472449216E+02  0.00000000000E+00 0.  1.
         -2    1    1    2    0  503 -0.38977168050E+02 -0.94389744466E+01 -0.13348745514E+03  0.13938154306E+03  0.00000000000E+00 0. -1.
<mgrwt>
<rscale>  2 0.40103789E+02</rscale>
<asrwt>0</asrwt>
<pdfrwt beam="1">  1       21 0.31474062E-02 0.40103789E+02</pdfrwt>
<pdfrwt beam="2">  1       21 0.24522439E-01 0.40103789E+02</pdfrwt>
<totfact> 0.80952234E+06</totfact>
</mgrwt>
</event>
<event>
 4    1  0.7478314E+004  0.2179357E+02  0.7546771E-02  0.1711847E+00
         21   -1    0    0  501  502  0.00000000000E+00  0.00000000000E+00  0.11462387788E+03  0.11462387788E+03  0.00000000000E+00 0. -1.
         21   -1    0    0  502  503 -0.00000000000E+00 -0.00000000000E+00 -0.60288985432E+01  0.60288985432E+01  0.00000000000E+00 0. -1.
          2    1    1    2  501    0  0.12172331402E+02  0.18077448336E+02  0.88031975272E+02  0.90689516817E+02  0.00000000000E+00 0. -1.
         -2    1    1    2    0  503 -0.12172331402E+02 -0.18077448336E+02  0.20563004067E+02  0.29963259609E+02  0.00000000000E+00 0.  1.
<mgrwt>
<rscale>  2 0.21793572E+02</rscale>
<asrwt>0</asrwt>
<pdfrwt beam="1">  1       21 0.17634441E-01 0.21793572E+02</pdfrwt>
<pdfrwt beam="2">  1       21 0.92752294E-03 0.21793572E+02</pdfrwt>
<totfact> 0.84527495E+07</totfact>
</mgrwt>
</event>
<event>
 4    1  0.7478314E+004  0.3361098E+02  0.7546771E-02  0.1561293E+00
         21   -1    0    0  501  502  0.00000000000E+00  0.00000000000E+00  0.11070161720E+02  0.11070161720E+02  0.00000000000E+00 0. -1.
         21   -1    0    0  502  503 -0.00000000000E+00 -0.00000000000E+00 -0.10784761836E+03  0.10784761836E+03  0.00000000000E+00 0. -1.
          1    1    1    2  501    0  0.21331338508E+02  0.25974449339E+02 -0.34601503175E+02  0.48238594952E+02  0.00000000000E+00 0. -1.
         -1    1    1    2    0  503 -0.21331338508E+02 -0.25974449339E+02 -0.62175953461E+02  0.70679185124E+02  0.00000000000E+00 0.  1.
<mgrwt>
<rscale>  2 0.33610981E+02</rscale>
<asrwt>0</asrwt>
<pdfrwt beam="1">  1       21 0.17031017E-02 0.33610981E+02</pdfrwt>
<pdfrwt beam="2">  1       21 0.16591942E-01 0.33610981E+02</pdfrwt>
<totfact> 0.41302788E+07</totfact>
</mgrwt>
</event>
<event>
 4    1  0.7478314E+004  0.2727596E+02  0.7546771E-02  0.1630311E+00
         21   -1    0    0  501  502  0.00000000000E+00  0.00000000000E+00  0.16876544728E+01  0.16876544728E+01  0.00000000000E+00 0.  1.
         21   -1    0    0  502  503 -0.00000000000E+00 -0.00000000000E+00 -0.55210449192E+03  0.55210449192E+03  0.00000000000E+00 0.  1.
          5    1    1    2  501    0  0.12049681399E+02  0.24470046553E+02 -0.39951474656E+03  0.40044476613E+03  0.00000000000E+00 0. -1.
         -5    1    1    2    0  503 -0.12049681399E+02 -0.24470046553E+02 -0.15090209089E+03  0.15334738027E+03  0.00000000000E+00 0.  1.
<mgrwt>
<rscale>  2 0.27275960E+02</rscale>
<asrwt>0</asrwt>
<pdfrwt beam="1">  1       21 0.25963885E-03 0.27275960E+02</pdfrwt>
<pdfrwt beam="2">  1       21 0.84939252E-01 0.27275960E+02</pdfrwt>
<totfact> 0.29621043E+07</totfact>
</mgrwt>
</event>
<event>
 4    1  0.7478314E+004  0.2100967E+02  0.7546771E-02  0.1725964E+00
         21   -1    0    0  501  502  0.00000000000E+00  0.00000000000E+00  0.45302438433E+01  0.45302438433E+01  0.00000000000E+00 0.  1.
         21   -1    0    0  502  503 -0.00000000000E+00 -0.00000000000E+00 -0.97441981327E+02  0.97441981327E+02  0.00000000000E+00 0.  1.
          2    1    1    2  501    0 -0.13483635960E+02 -0.16112036026E+02 -0.46037006942E+02  0.50604467706E+02  0.00000000000E+00 0. -1.
         -2    1    1    2    0  503  0.13483635960E+02  0.16112036026E+02 -0.46874730542E+02  0.51367757465E+02  0.00000000000E+00 0.  1.
<mgrwt>
<rscale>  2 0.21009668E+02</rscale>
<asrwt>0</asrwt>
<pdfrwt beam="1">  1       21 0.69696061E-03 0.21009668E+02</pdfrwt>
<pdfrwt beam="2">  1       21 0.14991074E-01 0.21009668E+02</pdfrwt>
<totfact> 0.16892369E+08</totfact>
</mgrwt>
</event>
<event>
 4    1  0.7478314E+004  0.2213355E+02  0.7546771E-02  0.1705953E+00
         21   -1    0    0  503  502  0.00000000000E+00  0.00000000000E+00  0.69219981127E+02  0.69219981127E+02  0.00000000000E+00 0. -1.
         21   -1    0    0  501  503 -0.00000000000E+00 -0.00000000000E+00 -0.14668808920E+02  0.14668808920E+02  0.00000000000E+00 0. -1.
          3    1    1    2  501    0 -0.22100078392E+02 -0.12167330161E+01  0.57450023797E+02  0.61566217509E+02  0.00000000000E+00 0. -1.
         -3    1    1    2    0  502  0.22100078392E+02  0.12167330161E+01 -0.28988515898E+01  0.22322572538E+02  0.00000000000E+00 0.  1.
<mgrwt>
<rscale>  2 0.22133547E+02</rscale>
<asrwt>0</asrwt>
<pdfrwt beam="1">  1       21 0.10649228E-01 0.22133547E+02</pdfrwt>
<pdfrwt beam="2">  1       21 0.22567399E-02 0.22133547E+02</pdfrwt>
<totfact> 0.51650462E+07</totfact>
</mgrwt>
</event>
<event>
 4    1  0.7478314E+004  0.3155260E+02  0.7546771E-02  0.1581535E+00
         21   -1    0    0  503  502  0.00000000000E+00  0.00000000000E+00  0.70429164127E+03  0.70429164127E+03  0.00000000000E+00 0.  1.
         21   -1    0    0  501  503 -0.00000000000E+00 -0.00000000000E+00 -0.25374284478E+01  0.25374284478E+01  0.00000000000E+00 0.  1.
          1    1    1    2  501    0  0.31354685783E+02 -0.35284761535E+01  0.11567399814E+03  0.11990012640E+03  0.00000000000E+00 0.  1.
         -1    1    1    2    0  502 -0.31354685783E+02  0.35284761535E+01  0.58608021468E+03  0.58692894332E+03  0.00000000000E+00 0. -1.
<mgrwt>
<rscale>  2 0.31552598E+02</rscale>
<asrwt>0</asrwt>
<pdfrwt beam="1">  1       21 0.10835240E+00 0.31552598E+02</pdfrwt>
<pdfrwt beam="2">  1       21 0.39037417E-03 0.31552598E+02</pdfrwt>
<totfact> 0.97505762E+06</totfact>
</mgrwt>
</event>
<event>
 4    1  0.7478314E+004  0.2239079E+02  0.7546771E-02  0.1701580E+00
         21   -1    0    0  503  502  0.00000000000E+00  0.00000000000E+00  0.16653576610E+02  0.16653576610E+02  0.00000000000E+00 0.  1.
         21   -1    0    0  501  503 -0.00000000000E+00 -0.00000000000E+00 -0.45328545443E+02  0.45328545443E+02  0.00000000000E+00 0.  1.
          4    1    1    2  501    0  0.90050266125E+01  0.20500173174E+02  0.36228981498E+01  0.22681997166E+02  0.00000000000E+00 0.  1.
         -4    1    1    2    0  502 -0.90050266125E+01 -0.20500173174E+02 -0.32297866983E+02  0.39300124887E+02  0.00000000000E+00 0. -1.
<mgrwt>
<rscale>  2 0.22390793E+02</rscale>
<asrwt>0</asrwt>
<pdfrwt beam="1">  1       21 0.25620887E-02 0.22390793E+02</pdfrwt>
<pdfrwt beam="2">  1       21 0.69736223E-02 0.22390793E+02</pdfrwt>
<totfact> 0.85196300E+07</totfact>
</mgrwt>
</event>
<event>
 4    1  0.7478314E+004  0.2674541E+02  0.7546771E-02  0.1637128E+00
         21   -1    0    0  503  502  0.00000000000E+00  0.00000000000E+00  0.63872136624E+02  0.63872136624E+02  0.00000000000E+00 0. -1.
         21   -1    0    0  501  503 -0.00000000000E+00 -0.00000000000E+00 -0.11888656167E+02  0.11888656167E+02  0.00000000000E+00 0. -1.
          2    1    1    2  501    0 -0.84211379422E+01 -0.25385057765E+02  0.35113990996E+02  0.44139654344E+02  0.00000000000E+00 0.  1.
         -2    1    1    2    0  502  0.84211379422E+01  0.25385057765E+02  0.16869489461E+02  0.31621138447E+02  0.00000000000E+00 0. -1.
<mgrwt>
<rscale>  2 0.26745406E+02</rscale>
<asrwt>0</asrwt>
<pdfrwt beam="1">  1       21 0.98264824E-02 0.26745406E+02</pdfrwt>
<pdfrwt beam="2">  1       21 0.18290241E-02 0.26745406E+02</pdfrwt>
<totfact> 0.85644951E+07</totfact>
</mgrwt>
</event>
<event>
 4    1  0.7478314E+004  0.2195035E+02  0.7546771E-02  0.1709112E+00
         21   -1    0    0  503  502  0.00000000000E+00  0.00000000000E+00  0.10115126259E+01  0.10115126259E+01  0.00000000000E+00 0. -1.
         21   -1    0    0  501  503 -0.00000000000E+00 -0.00000000000E+00 -0.57239009674E+03  0.57239009674E+03  0.00000000000E+00 0. -1.
          3    1    1    2  501    0  0.13129016801E+02 -0.17591104389E+02 -0.40313710124E+03  0.40373424481E+03  0.00000000000E+00 0.  1.
         -3    1    1    2    0  502 -0.13129016801E+02  0.17591104389E+02 -0.16824148288E+03  0.16966736456E+03  0.00000000000E+00 0. -1.
<mgrwt>
<rscale>  2 0.21950354E+02</rscale>
<asrwt>0</asrwt>
<pdfrwt beam="1">  1       21 0.15561668E-03 0.21950354E+02</pdfrwt>
<pdfrwt beam="2">  1       21 0.88060381E-01 0.21950354E+02</pdfrwt>
<totfact> 0.54992812E+07</totfact>
</mgrwt>
</event>
<event>
 4    1  0.7478314E+004  0.2223302E+02  0.7546771E-02  0.1704253E+00
         21   -1    0    0  503  502  0.00000000000E+00  0.00000000000E+00  0.15250842719E+04  0.15250842719E+04  0.00000000000E+00 0.  1.
         21   -1    0    0  501  503 -0.00000000000E+00 -0.00000000000E+00 -0.32761791748E+00  0.32761791748E+00  0.00000000000E+00 0.  1.
          1    1    1    2  501    0  0.21387914084E+02 -0.60716081793E+01  0.84121003947E+03  0.84150379548E+03  0.00000000000E+00 0. -1.
         -1    1    1    2    0  502 -0.21387914084E+02  0.60716081793E+01  0.68354661449E+03  0.68390809432E+03  0.00000000000E+00 0.  1.
<mgrwt>
<rscale>  2 0.22233023E+02</rscale>
<asrwt>0</asrwt>
<pdfrwt beam="1">  1       21 0.23462266E+00 0.22233023E+02</pdfrwt>
<pdfrwt beam="2">  1       21 0.50403978E-04 0.22233023E+02</pdfrwt>
<totfact> 0.26714004E+07</totfact>
</mgrwt>
</event>
<event>
 4    1  0.7478314E+004  0.2298788E+02  0.7546771E-02  0.1691707E+00
         21   -1    0    0  501  502  0.00000000000E+00  0.00000000000E+00  0.15936929904E+03  0.15936929904E+03  0.00000000000E+00 0. -1.
         21   -1    0    0  502  503 -0.00000000000E+00 -0.00000000000E+00 -0.33226769099E+01  0.33226769099E+01  0.00000000000E+00 0. -1.
          1    1    1    2  501    0 -0.17929971466E+02 -0.14386067579E+02  0.74332875037E+02  0.77806292345E+02  0.00000000000E+00 0.  1.
         -1    1    1    2    0  503  0.17929971466E+02  0.14386067579E+02  0.81713747093E+02  0.84885683606E+02  0.00000000000E+00 0. -1.
<mgrwt>
<rscale>  2 0.22987884E+02</rscale>
<asrwt>0</asrwt>
<pdfrwt beam="1">  1       21 0.24518348E-01 0.22987884E+02</pdfrwt>
<pdfrwt beam="2">  1       21 0.51118119E-03 0.22987884E+02</pdfrwt>
<totfact> 0.11679329E+08</totfact>
</mgrwt>
</event>
<event>
 4    1  0.7478314E+004  0.3086902E+02  0.7546771E-02  0.1588677E+00
         21   -1    0    0  503  502  0.00000000000E+00  0.00000000000E+00  0.49708527441E+02  0.49708527441E+02  0.00000000000E+00 0.  1.
         21   -1    0    0  501  503 -0.00000000000E+00 -0.00000000000E+00 -0.22785682743E+02  0.22785682743E+02  0.00000000000E+00 0.  1.
          3    1    1    2  501    0 -0.29699207996E+02  0.84174430812E+01  0.27901083251E+02  0.41609695387E+02  0.00000000000E+00 0.  1.
         -3    1    1    2    0  502  0.29699207996E+02 -0.84174430812E+01 -0.97823855353E+00  0.30884514797E+02  0.00000000000E+00 0. -1.
<mgrwt>
<rscale>  2 0.30869019E+02</rscale>
<asrwt>0</asrwt>
<pdfrwt beam="1">  1       21 0.76474657E-02 0.30869019E+02</pdfrwt>
<pdfrwt beam="2">  1       21 0.35054897E-02 0.30869019E+02</pdfrwt>
<totfact> 0.48610851E+07</totfact>
</mgrwt>
</event>
<event>
 4    1  0.7478314E+004  0.2478324E+02  0.7546771E-02  0.1664135E+00
         21   -1    0    0  501  502  0.00000000000E+00  0.00000000000E+00  0.46307300326E+03  0.46307300326E+03  0.00000000000E+00 0. -1.
         21   -1    0    0  502  503 -0.00000000000E+00 -0.00000000000E+00 -0.14783724119E+01  0.14783724119E+01  0.00000000000E+00 0. -1.
          3    1    1    2  501    0  0.23391124103E+02  0.81892734145E+01  0.30527541672E+03  0.30627975601E+03  0.00000000000E+00 0.  1.
         -3    1    1    2    0  503 -0.23391124103E+02 -0.81892734145E+01  0.15631921412E+03  0.15827161966E+03  0.00000000000E+00 0. -1.
<mgrwt>
<rscale>  2 0.24783238E+02</rscale>
<asrwt>0</asrwt>
<pdfrwt beam="1">  1       21 0.71241885E-01 0.24783238E+02</pdfrwt>
<pdfrwt beam="2">  1       21 0.22744228E-03 0.24783238E+02</pdfrwt>
<totfact> 0.50965991E+07</totfact>
</mgrwt>
</event>
<event>
 4    1  0.7478314E+004  0.2193073E+02  0.7546771E-02  0.1709453E+00
         21   -1    0    0  501  502  0.00000000000E+00  0.00000000000E+00  0.24846124015E+01  0.24846124015E+01  0.00000000000E+00 0.  1.
         21   -1    0    0  502  503 -0.00000000000E+00 -0.00000000000E+00 -0.19512911756E+03  0.19512911756E+03  0.00000000000E+00 0.  1.
          5    1    1    2  501    0 -0.72373914599E+01  0.20702107125E+02 -0.87502272845E+02  0.90208673794E+02  0.00000000000E+00 0.  1.
         -5    1    1    2    0  503  0.72373914599E+01 -0.20702107125E+02 -0.10514223232E+03  0.10740505617E+03  0.00000000000E+00 0. -1.
<mgrwt>
<rscale>  2 0.21930734E+02</rscale>
<asrwt>0</asrwt>
<pdfrwt beam="1">  1       21 0.38224801E-03 0.21930734E+02</pdfrwt>
<pdfrwt beam="2">  1       21 0.30019868E-01 0.21930734E+02</pdfrwt>
<totfact> 0.12279965E+08</totfact>
</mgrwt>
</event>
<event>
 4    1  0.7478314E+004  0.2098636E+02  0.7546771E-02  0.1726396E+00
         21   -1    0    0  503  502  0.00000000000E+00  0.00000000000E+00  0.17647372884E+03  0.17647372884E+03  0.00000000000E+00 0. -1.
         21   -1    0    0  501  503 -0.00000000000E+00 -0.00000000000E+00 -0.26184661335E+01  0.26184661335E+01  0.00000000000E+00 0. -1.
          3    1    1    2  501    0 -0.58692173506E+01  0.20148930516E+02  0.10631621801E+03  0.10836773194E+03  0.00000000000E+00 0. -1.
         -3    1    1    2    0  502  0.58692173506E+01 -0.20148930516E+02  0.67539044693E+02  0.70724463033E+02  0.00000000000E+00 0.  1.
<mgrwt>
<rscale>  2 0.20986355E+02</rscale>
<asrwt>0</asrwt>
<pdfrwt beam="1">  1       21 0.27149795E-01 0.20986355E+02</pdfrwt>
<pdfrwt beam="2">  1       21 0.40284108E-03 0.20986355E+02</pdfrwt>
<totfact> 0.13462582E+08</totfact>
</mgrwt>
</event>
<event>
 4    1  0.7478314E+004  0.2447712E+02  0.7546771E-02  0.1668628E+00
         21   -1    0    0  503  502  0.00000000000E+00  0.00000000000E+00  0.65150669081E+01  0.65150669081E+01  0.00000000000E+00 0.  1.
         21   -1    0    0  501  503 -0.00000000000E+00 -0.00000000000E+00 -0.99930462509E+02  0.99930462509E+02  0.00000000000E+00 0.  1.
          3    1    1    2  501    0 -0.19440804106E+02 -0.14872277035E+02 -0.61738210174E+02  0.66413372780E+02  0.00000000000E+00 0. -1.
         -3    1    1    2    0  502  0.19440804106E+02  0.14872277035E+02 -0.31677185427E+02  0.40032156637E+02  0.00000000000E+00 0.  1.
<mgrwt>
<rscale>  2 0.24477122E+02</rscale>
<asrwt>0</asrwt>
<pdfrwt beam="1">  1       21 0.10023180E-02 0.24477122E+02</pdfrwt>
<pdfrwt beam="2">  1       21 0.15373917E-01 0.24477122E+02</pdfrwt>
<totfact> 0.98301978E+07</totfact>
</mgrwt>
</event>
<event>
 4    1  0.7478314E+004  0.2324233E+02  0.7546771E-02  0.1687612E+00
         21   -1    0    0  503  502  0.00000000000E+00  0.00000000000E+00  0.44919933524E+01  0.44919933524E+01  0.00000000000E+00 0. -1.
         21   -1    0    0  501  503 -0.00000000000E+00 -0.00000000000E+00 -0.23449413425E+03  0.23449413425E+03  0.00000000000E+00 0. -1.
          3    1    1    2  501    0  0.14073489207E+02  0.18497108571E+02 -0.31599337649E+02  0.39226575989E+02  0.00000000000E+00 0. -1.
         -3    1    1    2    0  502 -0.14073489207E+02 -0.18497108571E+02 -0.19840280324E+03  0.19975955161E+03  0.00000000000E+00 0.  1.
<mgrwt>
<rscale>  2 0.23242335E+02</rscale>
<asrwt>0</asrwt>
<pdfrwt beam="1">  1       21 0.69107579E-03 0.23242335E+02</pdfrwt>
<pdfrwt beam="2">  1       21 0.36076026E-01 0.23242335E+02</pdfrwt>
<totfact> 0.37125238E+07</totfact>
</mgrwt>
</event>
<event>
 4    1  0.7478314E+004  0.2020573E+02  0.7546771E-02  0.1741267E+00
         21   -1    0    0  501  502  0.00000000000E+00  0.00000000000E+00  0.13183749259E+01  0.13183749259E+01  0.00000000000E+00 0.  1.
         21   -1    0    0  502  503 -0.00000000000E+00 -0.00000000000E+00 -0.32841042631E+03  0.32841042631E+03  0.00000000000E+00 0.  1.
          4    1    1    2  501    0  0.56895476456E+01 -0.19388159264E+02 -0.12417146036E+03  0.12580470277E+03  0.00000000000E+00 0.  1.
         -4    1    1    2    0  503 -0.56895476456E+01  0.19388159264E+02 -0.20292059102E+03  0.20392409846E+03  0.00000000000E+00 0. -1.
<mgrwt>
<rscale>  2 0.20205734E+02</rscale>
<asrwt>0</asrwt>
<pdfrwt beam="1">  1       21 0.20282671E-03 0.20205734E+02</pdfrwt>
<pdfrwt beam="2">  1       21 0.50524731E-01 0.20205734E+02</pdfrwt>
<totfact> 0.11355033E+08</totfact>
</mgrwt>
</event>
<event>
 4    1  0.7478314E+004  0.2609466E+02  0.7546771E-02  0.1645759E+00
         21   -1    0    0  501  502  0.00000000000E+00  0.00000000000E+00  0.45992820317E+03  0.45992820317E+03  0.00000000000E+00 0.  1.
         21   -1    0    0  502  503 -0.00000000000E+00 -0.00000000000E+00 -0.19773265061E+01  0.19773265061E+01  0.00000000000E+00 0.  1.
          2    1    1    2  501    0 -0.25711362124E+02 -0.44561561975E+01  0.11320998658E+03  0.11617845124E+03  0.00000000000E+00 0.  1.
         -2    1    1    2    0  503  0.25711362124E+02  0.44561561975E+01  0.34474089008E+03  0.34572707844E+03  0.00000000000E+00 0. -1.
<mgrwt>
<rscale>  2 0.26094664E+02</rscale>
<asrwt>0</asrwt>
<pdfrwt beam="1">  1       21 0.70758100E-01 0.26094664E+02</pdfrwt>
<pdfrwt beam="2">  1       21 0.30420444E-03 0.26094664E+02</pdfrwt>
<totfact> 0.34193026E+07</totfact>
</mgrwt>
</event>
<event>
 4    1  0.7478314E+004  0.2093903E+02  0.7546771E-02  0.1727274E+00
         21   -1    0    0  503  502  0.00000000000E+00  0.00000000000E+00  0.51893651068E+01  0.51893651068E+01  0.00000000000E+00 0.  1.
         21   -1    0    0  501  503 -0.00000000000E+00 -0.00000000000E+00 -0.10534583326E+03  0.10534583326E+03  0.00000000000E+00 0.  1.
          2    1    1    2  501    0  0.75830953880E+00  0.20925292676E+02 -0.25486518102E+02  0.32984928557E+02  0.00000000000E+00 0.  1.
         -2    1    1    2    0  502 -0.75830953880E+00 -0.20925292676E+02 -0.74669950049E+02  0.77550269808E+02  0.00000000000E+00 0. -1.
<mgrwt>
<rscale>  2 0.20939028E+02</rscale>
<asrwt>0</asrwt>
<pdfrwt beam="1">  1       21 0.79836390E-03 0.20939028E+02</pdfrwt>
<pdfrwt beam="2">  1       21 0.16207050E-01 0.20939028E+02</pdfrwt>
<totfact> 0.12078822E+08</totfact>
</mgrwt>
</event>
<event>
 4    1  0.7478314E+004  0.2151424E+02  0.7546771E-02  0.1716791E+00
         21   -1    0    0  501  502  0.00000000000E+00  0.00000000000E+00  0.43426135678E+02  0.43426135678E+02  0.00000000000E+00 0. -1.
         21   -1    0    0  502  503 -0.00000000000E+00 -0.00000000000E+00 -0.14137013544E+02  0.14137013544E+02  0.00000000000E+00 0. -1.
          1    1    1    2  501    0 -0.16563762695E+02  0.13729679521E+02  0.28921186508E+02  0.36045767621E+02  0.00000000000E+00 0.  1.
         -1    1    1    2    0  503  0.16563762695E+02 -0.13729679521E+02  0.36793562589E+00  0.21517381602E+02  0.00000000000E+00 0. -1.
<mgrwt>
<rscale>  2 0.21514236E+02</rscale>
<asrwt>0</asrwt>
<pdfrwt beam="1">  1       21 0.66809439E-02 0.21514236E+02</pdfrwt>
<pdfrwt beam="2">  1       21 0.21749252E-02 0.21514236E+02</pdfrwt>
<totfact> 0.11616140E+08</totfact>
</mgrwt>
</event>
<event>
 4    1  0.7478314E+004  0.4564805E+02  0.7546771E-02  0.1470336E+00
         21   -1    0    0  503  502  0.00000000000E+00  0.00000000000E+00  0.14023258794E+02  0.14023258794E+02  0.00000000000E+00 0.  1.
         21   -1    0    0  501  503 -0.00000000000E+00 -0.00000000000E+00 -0.15805099536E+03  0.15805099536E+03  0.00000000000E+00 0.  1.
          2    1    1    2  501    0 -0.45313720477E+02  0.55146281296E+01 -0.50965944083E+02  0.68419820543E+02  0.00000000000E+00 0.  1.
         -2    1    1    2    0  502  0.45313720477E+02 -0.55146281296E+01 -0.93061792483E+02  0.10365443361E+03  0.00000000000E+00 0. -1.
<mgrwt>
<rscale>  2 0.45648049E+02</rscale>
<asrwt>0</asrwt>
<pdfrwt beam="1">  1       21 0.21574245E-02 0.45648049E+02</pdfrwt>
<pdfrwt beam="2">  1       21 0.24315537E-01 0.45648049E+02</pdfrwt>
<totfact> 0.15200311E+07</totfact>
</mgrwt>
</event>
<event>
 4    1  0.7478314E+004  0.2093186E+02  0.7546771E-02  0.1727408E+00
         21   -1    0    0  503  502  0.00000000000E+00  0.00000000000E+00  0.10860202584E+02  0.10860202584E+02  0.00000000000E+00 0. -1.
         21   -1    0    0  501  503 -0.00000000000E+00 -0.00000000000E+00 -0.47167351370E+02  0.47167351370E+02  0.00000000000E+00 0. -1.
          3    1    1    2  501    0  0.46209004635E+01  0.20415441268E+02 -0.29188908027E+02  0.35918453684E+02  0.00000000000E+00 0. -1.
         -3    1    1    2    0  502 -0.46209004635E+01 -0.20415441268E+02 -0.71182407590E+01  0.22109100270E+02  0.00000000000E+00 0.  1.
<mgrwt>
<rscale>  2 0.20931865E+02</rscale>
<asrwt>0</asrwt>
<pdfrwt beam="1">  1       21 0.16708004E-02 0.20931865E+02</pdfrwt>
<pdfrwt beam="2">  1       21 0.72565157E-02 0.20931865E+02</pdfrwt>
<totfact> 0.15081338E+08</totfact>
</mgrwt>
</event>
<event>
 4    1  0.7478314E+004  0.2541585E+02  0.7546771E-02  0.1655100E+00
         21   -1    0    0  503  502  0.00000000000E+00  0.00000000000E+00  0.31300508194E+01  0.31300508194E+01  0.00000000000E+00 0.  1.
         21   -1    0    0  501  503 -0.00000000000E+00 -0.00000000000E+00 -0.23060802320E+03  0.23060802320E+03  0.00000000000E+00 0.  1.
          2    1    1    2  501    0 -0.20021876746E+02 -0.15655346619E+02 -0.15162358182E+03  0.15373898657E+03  0.00000000000E+00 0.  1.
         -2    1    1    2    0  502  0.20021876746E+02  0.15655346619E+02 -0.75854390563E+02  0.79999087457E+02  0.00000000000E+00 0. -1.
<mgrwt>
<rscale>  2 0.25415850E+02</rscale>
<asrwt>0</asrwt>
<pdfrwt beam="1">  1       21 0.48154629E-03 0.25415850E+02</pdfrwt>
<pdfrwt beam="2">  1       21 0.35478156E-01 0.25415850E+02</pdfrwt>
<totfact> 0.66818146E+07</totfact>
</mgrwt>
</event>
<event>
 4    1  0.7478314E+004  0.2590266E+02  0.7546771E-02  0.1648365E+00
         21   -1    0    0  501  502  0.00000000000E+00  0.00000000000E+00  0.44856446196E+01  0.44856446196E+01  0.00000000000E+00 0. -1.
         21   -1    0    0  502  503 -0.00000000000E+00 -0.00000000000E+00 -0.15006296398E+03  0.15006296398E+03  0.00000000000E+00 0. -1.
          1    1    1    2  501    0 -0.25582991799E+02  0.40568904392E+01 -0.68389766988E+02  0.73130760000E+02  0.00000000000E+00 0.  1.
         -1    1    1    2    0  503  0.25582991799E+02 -0.40568904392E+01 -0.77187552369E+02  0.81417848597E+02  0.00000000000E+00 0. -1.
<mgrwt>
<rscale>  2 0.25902661E+02</rscale>
<asrwt>0</asrwt>
<pdfrwt beam="1">  1       21 0.69009902E-03 0.25902661E+02</pdfrwt>
<pdfrwt beam="2">  1       21 0.23086615E-01 0.25902661E+02</pdfrwt>
<totfact> 0.85914220E+07</totfact>
</mgrwt>
</event>
<event>
 4    1  0.7478314E+004  0.2345599E+02  0.7546771E-02  0.1684224E+00
         21   -1    0    0  503  502  0.00000000000E+00  0.00000000000E+00  0.28235268725E+01  0.28235268725E+01  0.00000000000E+00 0.  1.
         21   -1    0    0  501  503 -0.00000000000E+00 -0.00000000000E+00 -0.21433911483E+03  0.21433911483E+03  0.00000000000E+00 0.  1.
          5    1    1    2  501    0  0.10454207496E+02  0.20997452810E+02 -0.73021884209E+02  0.76696669108E+02  0.00000000000E+00 0.  1.
         -5    1    1    2    0  502 -0.10454207496E+02 -0.20997452810E+02 -0.13849370375E+03  0.14046597259E+03  0.00000000000E+00 0. -1.
<mgrwt>
<rscale>  2 0.23455990E+02</rscale>
<asrwt>0</asrwt>
<pdfrwt beam="1">  1       21 0.43438874E-03 0.23455990E+02</pdfrwt>
<pdfrwt beam="2">  1       21 0.32975249E-01 0.23455990E+02</pdfrwt>
<totfact> 0.87318885E+07</totfact>
</mgrwt>
</event>
<event>
 4    1  0.7478314E+004  0.2501916E+02  0.7546771E-02  0.1660727E+00
         21   -1    0    0  501  502  0.00000000000E+00  0.00000000000E+00  0.35883527547E+03  0.35883527547E+03  0.00000000000E+00 0. -1.
         21   -1    0    0  502  503 -0.00000000000E+00 -0.00000000000E+00 -0.17481880031E+01  0.17481880031E+01  0.00000000000E+00 0. -1.
          5    1    1    2  501    0 -0.62295325514E+01 -0.24231201605E+02  0.18691756176E+03  0.18858455160E+03  0.00000000000E+00 0.  1.
         -5    1    1    2    0  503  0.62295325514E+01  0.24231201605E+02  0.17016952571E+03  0.17199891188E+03  0.00000000000E+00 0. -1.
<mgrwt>
<rscale>  2 0.25019157E+02</rscale>
<asrwt>0</asrwt>
<pdfrwt beam="1">  1       21 0.55205369E-01 0.25019157E+02</pdfrwt>
<pdfrwt beam="2">  1       21 0.26895229E-03 0.25019157E+02</pdfrwt>
<totfact> 0.67006002E+07</totfact>
</mgrwt>
</event>
<event>
 4    1  0.7478314E+004  0.2142793E+02  0.7546771E-02  0.1718338E+00
         21   -1    0    0  501  502  0.00000000000E+00  0.00000000000E+00  0.14091424716E+04  0.14091424716E+04  0.00000000000E+00 0. -1.
         21   -1    0    0  502  503 -0.00000000000E+00 -0.00000000000E+00 -0.36238193388E+00  0.36238193388E+00  0.00000000000E+00 0. -1.
          3    1    1    2  501    0  0.20299823184E+02  0.68610032354E+01  0.48059833301E+03  0.48107578808E+03  0.00000000000E+00 0. -1.
         -3    1    1    2    0  503 -0.20299823184E+02 -0.68610032354E+01  0.92818175670E+03  0.92842906549E+03  0.00000000000E+00 0.  1.
<mgrwt>
<rscale>  2 0.21427930E+02</rscale>
<asrwt>0</asrwt>
<pdfrwt beam="1">  1       21 0.21678676E+00 0.21427930E+02</pdfrwt>
<pdfrwt beam="2">  1       21 0.55752195E-04 0.21427930E+02</pdfrwt>
<totfact> 0.28520524E+07</totfact>
</mgrwt>
</event>
<event>
 4    1  0.7478314E+004  0.2123173E+02  0.7546771E-02  0.1721888E+00
         21   -1    0    0  501  502  0.00000000000E+00  0.00000000000E+00  0.80181913034E+02  0.80181913034E+02  0.00000000000E+00 0.  1.
         21   -1    0    0  502  503 -0.00000000000E+00 -0.00000000000E+00 -0.67270699148E+01  0.67270699148E+01  0.00000000000E+00 0.  1.
          3    1    1    2  501    0  0.14775725859E+02  0.15246773471E+02  0.19115445056E+02  0.28568976454E+02  0.00000000000E+00 0. -1.
         -3    1    1    2    0  503 -0.14775725859E+02 -0.15246773471E+02  0.54339398063E+02  0.58340006495E+02  0.00000000000E+00 0.  1.
<mgrwt>
<rscale>  2 0.21231726E+02</rscale>
<asrwt>0</asrwt>
<pdfrwt beam="1">  1       21 0.12335678E-01 0.21231726E+02</pdfrwt>
<pdfrwt beam="2">  1       21 0.10349339E-02 0.21231726E+02</pdfrwt>
<totfact> 0.13051865E+08</totfact>
</mgrwt>
</event>
<event>
 4    1  0.7478314E+004  0.2282051E+02  0.7546771E-02  0.1694436E+00
         21   -1    0    0  503  502  0.00000000000E+00  0.00000000000E+00  0.17668642410E+03  0.17668642410E+03  0.00000000000E+00 0.  1.
         21   -1    0    0  501  503 -0.00000000000E+00 -0.00000000000E+00 -0.31580142787E+01  0.31580142787E+01  0.00000000000E+00 0.  1.
          2    1    1    2  501    0 -0.22500505301E+02 -0.38082680820E+01  0.10998328769E+03  0.11232586174E+03  0.00000000000E+00 0. -1.
         -2    1    1    2    0  502  0.22500505301E+02  0.38082680820E+01  0.63545122129E+02  0.67518576636E+02  0.00000000000E+00 0.  1.
<mgrwt>
<rscale>  2 0.22820509E+02</rscale>
<asrwt>0</asrwt>
<pdfrwt beam="1">  1       21 0.27182519E-01 0.22820509E+02</pdfrwt>
<pdfrwt beam="2">  1       21 0.48584849E-03 0.22820509E+02</pdfrwt>
<totfact> 0.10446514E+08</totfact>
</mgrwt>
</event>
<event>
 4    1  0.7478314E+004  0.3004141E+02  0.7546771E-02  0.1597631E+00
         21   -1    0    0  501  502  0.00000000000E+00  0.00000000000E+00  0.41711808702E+03  0.41711808702E+03  0.00000000000E+00 0.  1.
         21   -1    0    0  502  503 -0.00000000000E+00 -0.00000000000E+00 -0.25665965839E+01  0.25665965839E+01  0.00000000000E+00 0.  1.
          2    1    1    2  501    0 -0.13605599043E+02 -0.26783842391E+02  0.29042383609E+03  0.29197344247E+03  0.00000000000E+00 0.  1.
         -2    1    1    2    0  503  0.13605599043E+02  0.26783842391E+02  0.12412765435E+03  0.12771124114E+03  0.00000000000E+00 0. -1.
<mgrwt>
<rscale>  2 0.30041414E+02</rscale>
<asrwt>0</asrwt>
<pdfrwt beam="1">  1       21 0.64171960E-01 0.30041414E+02</pdfrwt>
<pdfrwt beam="2">  1       21 0.39486134E-03 0.30041414E+02</pdfrwt>
<totfact> 0.29245757E+07</totfact>
</mgrwt>
</event>
<event>
 4    1  0.7478314E+004  0.2415036E+02  0.7546771E-02  0.1673514E+00
         21   -1    0    0  501  502  0.00000000000E+00  0.00000000000E+00  0.32797602348E+01  0.32797602348E+01  0.00000000000E+00 0.  1.
         21   -1    0    0  502  503 -0.00000000000E+00 -0.00000000000E+00 -0.18532157658E+03  0.18532157658E+03  0.00000000000E+00 0.  1.
          2    1    1    2  501    0  0.23955280680E+02  0.30634315805E+01 -0.72061030302E+02  0.76000211669E+02  0.00000000000E+00 0.  1.
         -2    1    1    2    0  503 -0.23955280680E+02 -0.30634315805E+01 -0.10998078604E+03  0.11260112515E+03  0.00000000000E+00 0. -1.
<mgrwt>
<rscale>  2 0.24150364E+02</rscale>
<asrwt>0</asrwt>
<pdfrwt beam="1">  1       21 0.50457860E-03 0.24150364E+02</pdfrwt>
<pdfrwt beam="2">  1       21 0.28511006E-01 0.24150364E+02</pdfrwt>
<totfact> 0.92027948E+07</totfact>
</mgrwt>
</event>
<event>
 4    1  0.7478314E+004  0.3484948E+02  0.7546771E-02  0.1549941E+00
         21   -1    0    0  501  502  0.00000000000E+00  0.00000000000E+00  0.19050482758E+03  0.19050482758E+03  0.00000000000E+00 0.  1.
         21   -1    0    0  502  503 -0.00000000000E+00 -0.00000000000E+00 -0.70813402172E+01  0.70813402172E+01  0.00000000000E+00 0.  1.
          1    1    1    2  501    0 -0.20936540840E+02 -0.27859428319E+02  0.12291115409E+03  0.12775616732E+03  0.00000000000E+00 0. -1.
         -1    1    1    2    0  503  0.20936540840E+02  0.27859428319E+02  0.60512333275E+02  0.69830000479E+02  0.00000000000E+00 0.  1.
<mgrwt>
<rscale>  2 0.34849483E+02</rscale>
<asrwt>0</asrwt>
<pdfrwt beam="1">  1       21 0.29308431E-01 0.34849483E+02</pdfrwt>
<pdfrwt beam="2">  1       21 0.10894371E-02 0.34849483E+02</pdfrwt>
<totfact> 0.29824692E+07</totfact>
</mgrwt>
</event>
<event>
 4    1  0.7478314E+004  0.4080970E+02  0.7546771E-02  0.1502336E+00
         21   -1    0    0  501  502  0.00000000000E+00  0.00000000000E+00  0.20275803951E+02  0.20275803951E+02  0.00000000000E+00 0.  1.
         21   -1    0    0  502  503 -0.00000000000E+00 -0.00000000000E+00 -0.83104759306E+02  0.83104759306E+02  0.00000000000E+00 0.  1.
          2    1    1    2  501    0  0.15299878896E+02 -0.37833119866E+02 -0.36987153145E+02  0.55077043773E+02  0.00000000000E+00 0.  1.
         -2    1    1    2    0  503 -0.15299878896E+02  0.37833119866E+02 -0.25841802211E+02  0.48303519484E+02  0.00000000000E+00 0. -1.
<mgrwt>
<rscale>  2 0.40809696E+02</rscale>
<asrwt>0</asrwt>
<pdfrwt beam="1">  1       21 0.31193545E-02 0.40809696E+02</pdfrwt>
<pdfrwt beam="2">  1       21 0.12785347E-01 0.40809696E+02</pdfrwt>
<totfact> 0.26007863E+07</totfact>
</mgrwt>
</event>
<event>
 4    1  0.7478314E+004  0.2204903E+02  0.7546771E-02  0.1707405E+00
         21   -1    0    0  501  502  0.00000000000E+00  0.00000000000E+00  0.14895215184E+02  0.14895215184E+02  0.00000000000E+00 0.  1.
         21   -1    0    0  502  503 -0.00000000000E+00 -0.00000000000E+00 -0.33464830327E+02  0.33464830327E+02  0.00000000000E+00 0.  1.
          4    1    1    2  501    0 -0.14260433641E+02  0.16816645388E+02 -0.13084103187E+02  0.25638901808E+02  0.00000000000E+00 0. -1.
         -4    1    1    2    0  503  0.14260433641E+02 -0.16816645388E+02 -0.54855119566E+01  0.22721143703E+02  0.00000000000E+00 0.  1.
<mgrwt>
<rscale>  2 0.22049026E+02</rscale>
<asrwt>0</asrwt>
<pdfrwt beam="1">  1       21 0.22915716E-02 0.22049026E+02</pdfrwt>
<pdfrwt beam="2">  1       21 0.51484353E-02 0.22049026E+02</pdfrwt>
<totfact> 0.16390600E+08</totfact>
</mgrwt>
</event>
<event>
 4    1  0.7478314E+004  0.2152198E+02  0.7546771E-02  0.1716653E+00
         21   -1    0    0  501  502  0.00000000000E+00  0.00000000000E+00  0.20003945987E+03  0.20003945987E+03  0.00000000000E+00 0.  1.
         21   -1    0    0  502  503 -0.00000000000E+00 -0.00000000000E+00 -0.23999316685E+01  0.23999316685E+01  0.00000000000E+00 0.  1.
          5    1    1    2  501    0 -0.85303960871E+01  0.19759252808E+02  0.11780264913E+03  0.11975249421E+03  0.00000000000E+00 0. -1.
         -5    1    1    2    0  503  0.85303960871E+01 -0.19759252808E+02  0.79836879076E+02  0.82686897327E+02  0.00000000000E+00 0.  1.
<mgrwt>
<rscale>  2 0.21521982E+02</rscale>
<asrwt>0</asrwt>
<pdfrwt beam="1">  1       21 0.30775288E-01 0.21521982E+02</pdfrwt>
<pdfrwt beam="2">  1       21 0.36922041E-03 0.21521982E+02</pdfrwt>
<totfact> 0.12283004E+08</totfact>
</mgrwt>
</event>
<event>
 4    1  0.7478314E+004  0.6462642E+02  0.7546771E-02  0.1379382E+00
         21   -1    0    0  503  502  0.00000000000E+00  0.00000000000E+00  0.10489540777E+02  0.10489540777E+02  0.00000000000E+00 0. -1.
         21   -1    0    0  501  503 -0.00000000000E+00 -0.00000000000E+00 -0.40411871669E+03  0.40411871669E+03  0.00000000000E+00 0. -1.
          1    1    1    2  501    0  0.53198744191E+02  0.36694248324E+02 -0.22197546951E+03  0.23119187552E+03  0.00000000000E+00 0. -1.
         -1    1    1    2    0  502 -0.53198744191E+02 -0.36694248324E+02 -0.17165370640E+03  0.18341638194E+03  0.00000000000E+00 0.  1.
<mgrwt>
<rscale>  2 0.64626421E+02</rscale>
<asrwt>0</asrwt>
<pdfrwt beam="1">  1       21 0.16137757E-02 0.64626421E+02</pdfrwt>
<pdfrwt beam="2">  1       21 0.62172104E-01 0.64626421E+02</pdfrwt>
<totfact> 0.40000510E+06</totfact>
</mgrwt>
</event>
<event>
 4    1  0.7478314E+004  0.2166472E+02  0.7546771E-02  0.1714116E+00
         21   -1    0    0  501  502  0.00000000000E+00  0.00000000000E+00  0.22478606460E+01  0.22478606460E+01  0.00000000000E+00 0. -1.
         21   -1    0    0  502  503 -0.00000000000E+00 -0.00000000000E+00 -0.23155831382E+03  0.23155831382E+03  0.00000000000E+00 0. -1.
          2    1    1    2  501    0  0.35533109843E+01 -0.21371342332E+02 -0.78008417697E+02  0.80960938258E+02  0.00000000000E+00 0.  1.
         -2    1    1    2    0  503 -0.35533109843E+01  0.21371342332E+02 -0.15130203547E+03  0.15284523621E+03  0.00000000000E+00 0. -1.
<mgrwt>
<rscale>  2 0.21664725E+02</rscale>
<asrwt>0</asrwt>
<pdfrwt beam="1">  1       21 0.34582479E-03 0.21664725E+02</pdfrwt>
<pdfrwt beam="2">  1       21 0.35624348E-01 0.21664725E+02</pdfrwt>
<totfact> 0.10351585E+08</totfact>
</mgrwt>
</event>
<event>
 4    1  0.7478314E+004  0.2003447E+02  0.7546771E-02  0.1744643E+00
         21   -1    0    0  501  502  0.00000000000E+00  0.00000000000E+00  0.90699254993E+01  0.90699254993E+01  0.00000000000E+00 0. -1.
         21   -1    0    0  502  503 -0.00000000000E+00 -0.00000000000E+00 -0.49360853931E+02  0.49360853931E+02  0.00000000000E+00 0. -1.
          1    1    1    2  501    0  0.92405305828E+01  0.17776183680E+02 -0.29542671590E+02  0.35695231563E+02  0.00000000000E+00 0.  1.
         -1    1    1    2    0  503 -0.92405305828E+01 -0.17776183680E+02 -0.10748256842E+02  0.22735547867E+02  0.00000000000E+00 0. -1.
<mgrwt>
<rscale>  2 0.20034473E+02</rscale>
<asrwt>0</asrwt>
<pdfrwt beam="1">  1       21 0.13953732E-02 0.20034473E+02</pdfrwt>
<pdfrwt beam="2">  1       21 0.75939775E-02 0.20034473E+02</pdfrwt>
<totfact> 0.18153084E+08</totfact>
</mgrwt>
</event>
<event>
 4    1  0.7478314E+004  0.2141260E+02  0.7546771E-02  0.1718613E+00
         21   -1    0    0  503  502  0.00000000000E+00  0.00000000000E+00  0.11614579385E+03  0.11614579385E+03  0.00000000000E+00 0.  1.
         21   -1    0    0  501  503 -0.00000000000E+00 -0.00000000000E+00 -0.47055902114E+01  0.47055902114E+01  0.00000000000E+00 0.  1.
          3    1    1    2  501    0  0.21311519515E+02 -0.20780796408E+01  0.31468462910E+02  0.38062625198E+02  0.00000000000E+00 0.  1.
         -3    1    1    2    0  502 -0.21311519515E+02  0.20780796408E+01  0.79971740728E+02  0.82788758863E+02  0.00000000000E+00 0. -1.
<mgrwt>
<rscale>  2 0.21412596E+02</rscale>
<asrwt>0</asrwt>
<pdfrwt beam="1">  1       21 0.17868581E-01 0.21412596E+02</pdfrwt>
<pdfrwt beam="2">  1       21 0.72393704E-03 0.21412596E+02</pdfrwt>
<totfact> 0.11895408E+08</totfact>
</mgrwt>
</event>
<event>
 4    1  0.7478314E+004  0.2150149E+02  0.7546771E-02  0.1717019E+00
         21   -1    0    0  503  502  0.00000000000E+00  0.00000000000E+00  0.11069310090E+02  0.11069310090E+02  0.00000000000E+00 0. -1.
         21   -1    0    0  501  503 -0.00000000000E+00 -0.00000000000E+00 -0.42147450599E+02  0.42147450599E+02  0.00000000000E+00 0. -1.
          2    1    1    2  501    0 -0.18536297407E+02  0.10895866316E+02 -0.13005749918E+02  0.25128942582E+02  0.00000000000E+00 0. -1.
         -2    1    1    2    0  502  0.18536297407E+02 -0.10895866316E+02 -0.18072390592E+02  0.28087818107E+02  0.00000000000E+00 0.  1.
<mgrwt>
<rscale>  2 0.21501494E+02</rscale>
<asrwt>0</asrwt>
<pdfrwt beam="1">  1       21 0.17029707E-02 0.21501494E+02</pdfrwt>
<pdfrwt beam="2">  1       21 0.64842233E-02 0.21501494E+02</pdfrwt>
<totfact> 0.17711908E+08</totfact>
</mgrwt>
</event>
<event>
 4    1  0.7478314E+004  0.2344094E+02  0.7546771E-02  0.1684461E+00
         21   -1    0    0  501  502  0.00000000000E+00  0.00000000000E+00  0.24655869833E+02  0.24655869833E+02  0.00000000000E+00 0. -1.
         21   -1    0    0  502  503 -0.00000000000E+00 -0.00000000000E+00 -0.30355329130E+02  0.30355329130E+02  0.00000000000E+00 0. -1.
          5    1    1    2  501    0  0.45749627398E+01 -0.22990161089E+02  0.11331880682E+02  0.26036307549E+02  0.00000000000E+00 0. -1.
         -5    1    1    2    0  503 -0.45749627398E+01  0.22990161089E+02 -0.17031339979E+02  0.28974891414E+02  0.00000000000E+00 0.  1.
<mgrwt>
<rscale>  2 0.23440943E+02</rscale>
<asrwt>0</asrwt>
<pdfrwt beam="1">  1       21 0.37932108E-02 0.23440943E+02</pdfrwt>
<pdfrwt beam="2">  1       21 0.46700506E-02 0.23440943E+02</pdfrwt>
<totfact> 0.88982286E+07</totfact>
</mgrwt>
</event>
<event>
 4    1  0.7478314E+004  0.2038653E+02  0.7546771E-02  0.1737749E+00
         21   -1    0    0  503  502  0.00000000000E+00  0.00000000000E+00  0.44414155354E+01  0.44414155354E+01  0.00000000000E+00 0.  1.
         21   -1    0    0  501  503 -0.00000000000E+00 -0.00000000000E+00 -0.94553432642E+02  0.94553432642E+02  0.00000000000E+00 0.  1.
          3    1    1    2  501    0  0.18533688658E+02  0.84919363462E+01 -0.50088145469E+02  0.54078026173E+02  0.00000000000E+00 0. -1.
         -3    1    1    2    0  502 -0.18533688658E+02 -0.84919363462E+01 -0.40023871637E+02  0.44916822005E+02  0.00000000000E+00 0.  1.
<mgrwt>
<rscale>  2 0.20386530E+02</rscale>
<asrwt>0</asrwt>
<pdfrwt beam="1">  1       21 0.68329468E-03 0.20386530E+02</pdfrwt>
<pdfrwt beam="2">  1       21 0.14546682E-01 0.20386530E+02</pdfrwt>
<totfact> 0.18135326E+08</totfact>
</mgrwt>
</event>
<event>
 4    1  0.7478314E+004  0.2155923E+02  0.7546771E-02  0.1715988E+00
         21   -1    0    0  501  502  0.00000000000E+00  0.00000000000E+00  0.11388025346E+03  0.11388025346E+03  0.00000000000E+00 0.  1.
         21   -1    0    0  502  503 -0.00000000000E+00 -0.00000000000E+00 -0.45277292809E+01  0.45277292809E+01  0.00000000000E+00 0.  1.
          2    1    1    2  501    0  0.75334211210E+01  0.20200195970E+02  0.36089748792E+02  0.42038914340E+02  0.00000000000E+00 0. -1.
         -2    1    1    2    0  503 -0.75334211210E+01 -0.20200195970E+02  0.73262775386E+02  0.76369068400E+02  0.00000000000E+00 0.  1.
<mgrwt>
<rscale>  2 0.21559229E+02</rscale>
<asrwt>0</asrwt>
<pdfrwt beam="1">  1       21 0.17520037E-01 0.21559229E+02</pdfrwt>
<pdfrwt beam="2">  1       21 0.69657382E-03 0.21559229E+02</pdfrwt>
<totfact> 0.13055766E+08</totfact>
</mgrwt>
</event>
<event>
 4    1  0.7478314E+004  0.2598287E+02  0.7546771E-02  0.1647273E+00
         21   -1    0    0  501  502  0.00000000000E+00  0.00000000000E+00  0.56340018041E+01  0.56340018041E+01  0.00000000000E+00 0. -1.
         21   -1    0    0  502  503 -0.00000000000E+00 -0.00000000000E+00 -0.12244068811E+03  0.12244068811E+03  0.00000000000E+00 0. -1.
          2    1    1    2  501    0 -0.17401892871E+02 -0.19294647044E+02 -0.67758306120E+02  0.72569258838E+02  0.00000000000E+00 0.  1.
         -2    1    1    2    0  503  0.17401892871E+02  0.19294647044E+02 -0.49048380184E+02  0.55505431075E+02  0.00000000000E+00 0. -1.
<mgrwt>
<rscale>  2 0.25982865E+02</rscale>
<asrwt>0</asrwt>
<pdfrwt beam="1">  1       21 0.86676949E-03 0.25982865E+02</pdfrwt>
<pdfrwt beam="2">  1       21 0.18837029E-01 0.25982865E+02</pdfrwt>
<totfact> 0.87439904E+07</totfact>
</mgrwt>
</event>
<event>
 4    1  0.7478314E+004  0.2607176E+02  0.7546771E-02  0.1646068E+00
         21   -1    0    0  501  502  0.00000000000E+00  0.00000000000E+00  0.12171154413E+04  0.12171154413E+04  0.00000000000E+00 0. -1.
         21   -1    0    0  502  503 -0.00000000000E+00 -0.00000000000E+00 -0.67944280443E+00  0.67944280443E+00  0.00000000000E+00 0. -1.
          5    1    1    2  501    0 -0.25737568179E+02 -0.41610314056E+01  0.35130225412E+03  0.35226837830E+03  0.00000000000E+00 0. -1.
         -5    1    1    2    0  503  0.25737568179E+02  0.41610314056E+01  0.86513374433E+03  0.86552650576E+03  0.00000000000E+00 0.  1.
<mgrwt>
<rscale>  2 0.26071759E+02</rscale>
<asrwt>0</asrwt>
<pdfrwt beam="1">  1       21 0.18724678E+00 0.26071759E+02</pdfrwt>
<pdfrwt beam="2">  1       21 0.10453064E-03 0.26071759E+02</pdfrwt>
<totfact> 0.17560681E+07</totfact>
</mgrwt>
</event>
<event>
 4    1  0.7478314E+004  0.2155349E+02  0.7546771E-02  0.1716091E+00
         21   -1    0    0  503  502  0.00000000000E+00  0.00000000000E+00  0.58636342255E+01  0.58636342255E+01  0.00000000000E+00 0. -1.
         21   -1    0    0  501  503 -0.00000000000E+00 -0.00000000000E+00 -0.79380585095E+02  0.79380585095E+02  0.00000000000E+00 0. -1.
          4    1    1    2  501    0 -0.79484549847E+01  0.20034346187E+02 -0.38638653410E+02  0.44243626673E+02  0.00000000000E+00 0.  1.
         -4    1    1    2    0  502  0.79484549847E+01 -0.20034346187E+02 -0.34878297459E+02  0.41000592647E+02  0.00000000000E+00 0. -1.
<mgrwt>
<rscale>  2 0.21553491E+02</rscale>
<asrwt>0</asrwt>
<pdfrwt beam="1">  1       21 0.90209753E-03 0.21553491E+02</pdfrwt>
<pdfrwt beam="2">  1       21 0.12212398E-01 0.21553491E+02</pdfrwt>
<totfact> 0.16376459E+08</totfact>
</mgrwt>
</event>
<event>
 4    1  0.7478314E+004  0.2190897E+02  0.7546771E-02  0.1709831E+00
         21   -1    0    0  503  502  0.00000000000E+00  0.00000000000E+00  0.46405031818E+01  0.46405031818E+01  0.00000000000E+00 0. -1.
         21   -1    0    0  501  503 -0.00000000000E+00 -0.00000000000E+00 -0.12423137268E+03  0.12423137268E+03  0.00000000000E+00 0. -1.
          4    1    1    2  501    0  0.20459957775E+02  0.78353883935E+01 -0.33433477747E+02  0.39972498267E+02  0.00000000000E+00 0. -1.
         -4    1    1    2    0  502 -0.20459957775E+02 -0.78353883935E+01 -0.86157391749E+02  0.88899377593E+02  0.00000000000E+00 0.  1.
<mgrwt>
<rscale>  2 0.21908975E+02</rscale>
<asrwt>0</asrwt>
<pdfrwt beam="1">  1       21 0.71392354E-03 0.21908975E+02</pdfrwt>
<pdfrwt beam="2">  1       21 0.19112519E-01 0.21908975E+02</pdfrwt>
<totfact> 0.10882180E+08</totfact>
</mgrwt>
</event>
<event>
 4    1  0.7478314E+004  0.4492723E+02  0.7546771E-02  0.1474796E+00
         21   -1    0    0  501  502  0.00000000000E+00  0.00000000000E+00  0.54067291718E+02  0.54067291718E+02  0.00000000000E+00 0.  1.
         21   -1    0    0  502  503 -0.00000000000E+00 -0.00000000000E+00 -0.38519030351E+02  0.38519030351E+02  0.00000000000E+00 0.  1.
          5    1    1    2  501    0 -0.16067543785E+02 -0.41955814040E+02 -0.35146839148E+00  0.44928608092E+02  0.00000000000E+00 0.  1.
         -5    1    1    2    0  503  0.16067543785E+02  0.41955814040E+02  0.15899729758E+02  0.47657713976E+02  0.00000000000E+00 0. -1.
<mgrwt>
<rscale>  2 0.44927233E+02</rscale>
<asrwt>0</asrwt>
<pdfrwt beam="1">  1       21 0.83180449E-02 0.44927233E+02</pdfrwt>
<pdfrwt beam="2">  1       21 0.59260047E-02 0.44927233E+02</pdfrwt>
<totfact> 0.19405613E+07</totfact>
</mgrwt>
</event>
<event>
 4    1  0.7478314E+004  0.2558100E+02  0.7546771E-02  0.1652794E+00
         21   -1    0    0  501  502  0.00000000000E+00  0.00000000000E+00  0.18219063725E+03  0.18219063725E+03  0.00000000000E+00 0. -1.
         21   -1    0    0  502  503 -0.00000000000E+00 -0.00000000000E+00 -0.47929796220E+01  0.47929796220E+01  0.00000000000E+00 0. -1.
          2    1    1    2  501    0 -0.33128643725E+00  0.25578851272E+02  0.13550247165E+03  0.13789600141E+03  0.00000000000E+00 0. -1.
         -2    1    1    2    0  503  0.33128643725E+00 -0.25578851272E+02  0.41895185978E+02  0.49087615457E+02  0.00000000000E+00 0.  1.
<mgrwt>
<rscale>  2 0.25580997E+02</rscale>
<asrwt>0</asrwt>
<pdfrwt beam="1">  1       21 0.28029324E-01 0.25580997E+02</pdfrwt>
<pdfrwt beam="2">  1       21 0.73738162E-03 0.25580997E+02</pdfrwt>
<totfact> 0.54770234E+07</totfact>
</mgrwt>
</event>
<event>
 4    1  0.7478314E+004  0.2221276E+02  0.7546771E-02  0.1704598E+00
         21   -1    0    0  501  502  0.00000000000E+00  0.00000000000E+00  0.10486780704E+02  0.10486780704E+02  0.00000000000E+00 0. -1.
         21   -1    0    0  502  503 -0.00000000000E+00 -0.00000000000E+00 -0.58164072183E+02  0.58164072183E+02  0.00000000000E+00 0. -1.
          3    1    1    2  501    0 -0.12947957229E+02  0.18048746729E+02 -0.88342668196E+01  0.23905043926E+02  0.00000000000E+00 0. -1.
         -3    1    1    2    0  503  0.12947957229E+02 -0.18048746729E+02 -0.38843024660E+02  0.44745808961E+02  0.00000000000E+00 0.  1.
<mgrwt>
<rscale>  2 0.22212763E+02</rscale>
<asrwt>0</asrwt>
<pdfrwt beam="1">  1       21 0.16133509E-02 0.22212763E+02</pdfrwt>
<pdfrwt beam="2">  1       21 0.89483185E-02 0.22212763E+02</pdfrwt>
<totfact> 0.11511588E+08</totfact>
</mgrwt>
</event>
<event>
 4    1  0.7478314E+004  0.2087034E+02  0.7546771E-02  0.1728554E+00
         21   -1    0    0  501  502  0.00000000000E+00  0.00000000000E+00  0.69492196675E+02  0.69492196675E+02  0.00000000000E+00 0.  1.
         21   -1    0    0  502  503 -0.00000000000E+00 -0.00000000000E+00 -0.63589922791E+01  0.63589922791E+01  0.00000000000E+00 0.  1.
          1    1    1    2  501    0  0.20847433386E+02  0.97745022185E+00  0.36105530954E+02  0.41703480108E+02  0.00000000000E+00 0. -1.
         -1    1    1    2    0  503 -0.20847433386E+02 -0.97745022185E+00  0.27027673442E+02  0.34147708845E+02  0.00000000000E+00 0.  1.
<mgrwt>
<rscale>  2 0.20870335E+02</rscale>
<asrwt>0</asrwt>
<pdfrwt beam="1">  1       21 0.10691107E-01 0.20870335E+02</pdfrwt>
<pdfrwt beam="2">  1       21 0.97830655E-03 0.20870335E+02</pdfrwt>
<totfact> 0.17920035E+08</totfact>
</mgrwt>
</event>
<event>
 4    1  0.7478314E+004  0.3371038E+02  0.7546771E-02  0.1560360E+00
         21   -1    0    0  501  502  0.00000000000E+00  0.00000000000E+00  0.11901706114E+03  0.11901706114E+03  0.00000000000E+00 0. -1.
         21   -1    0    0  502  503 -0.00000000000E+00 -0.00000000000E+00 -0.10808042746E+02  0.10808042746E+02  0.00000000000E+00 0. -1.
          4    1    1    2  501    0 -0.14198567907E+02  0.30574347062E+02  0.76267373521E+02  0.83385264242E+02  0.00000000000E+00 0. -1.
         -4    1    1    2    0  503  0.14198567907E+02 -0.30574347062E+02  0.31941644872E+02  0.46439839643E+02  0.00000000000E+00 0.  1.
<mgrwt>
<rscale>  2 0.33710385E+02</rscale>
<asrwt>0</asrwt>
<pdfrwt beam="1">  1       21 0.18310316E-01 0.33710385E+02</pdfrwt>
<pdfrwt beam="2">  1       21 0.16627759E-02 0.33710385E+02</pdfrwt>
<totfact> 0.36092894E+07</totfact>
</mgrwt>
</event>
<event>
 4    1  0.7478314E+004  0.2124315E+02  0.7546771E-02  0.1721680E+00
         21   -1    0    0  501  502  0.00000000000E+00  0.00000000000E+00  0.58265145908E+02  0.58265145908E+02  0.00000000000E+00 0. -1.
         21   -1    0    0  502  503 -0.00000000000E+00 -0.00000000000E+00 -0.78051526373E+01  0.78051526373E+01  0.00000000000E+00 0. -1.
          1    1    1    2  501    0  0.97501749728E+01  0.18873403679E+02  0.28126899046E+02  0.35247605995E+02  0.00000000000E+00 0. -1.
         -1    1    1    2    0  503 -0.97501749728E+01 -0.18873403679E+02  0.22333094225E+02  0.30822692551E+02  0.00000000000E+00 0.  1.
<mgrwt>
<rscale>  2 0.21243147E+02</rscale>
<asrwt>0</asrwt>
<pdfrwt beam="1">  1       21 0.89638683E-02 0.21243147E+02</pdfrwt>
<pdfrwt beam="2">  1       21 0.12007927E-02 0.21243147E+02</pdfrwt>
<totfact> 0.17707167E+08</totfact>
</mgrwt>
</event>
<event>
 4    1  0.7478314E+004  0.2068113E+02  0.7546771E-02  0.1732113E+00
         21   -1    0    0  503  502  0.00000000000E+00  0.00000000000E+00  0.33135561234E+02  0.33135561234E+02  0.00000000000E+00 0.  1.
         21   -1    0    0  501  503 -0.00000000000E+00 -0.00000000000E+00 -0.12907958741E+02  0.12907958741E+02  0.00000000000E+00 0.  1.
          1    1    1    2  501    0  0.83590783209E+01 -0.18916521214E+02  0.10179582468E+02  0.23050658655E+02  0.00000000000E+00 0.  1.
         -1    1    1    2    0  502 -0.83590783209E+01  0.18916521214E+02  0.10048020025E+02  0.22992861319E+02  0.00000000000E+00 0. -1.
<mgrwt>
<rscale>  2 0.20681126E+02</rscale>
<asrwt>0</asrwt>
<pdfrwt beam="1">  1       21 0.50977786E-02 0.20681126E+02</pdfrwt>
<pdfrwt beam="2">  1       21 0.19858398E-02 0.20681126E+02</pdfrwt>
<totfact> 0.20323172E+08</totfact>
</mgrwt>
</event>
<event>
 4    1  0.7478314E+004  0.2148454E+02  0.7546771E-02  0.1717322E+00
         21   -1    0    0  501  502  0.00000000000E+00  0.00000000000E+00  0.13231290248E+03  0.13231290248E+03  0.00000000000E+00 0.  1.
         21   -1    0    0  502  503 -0.00000000000E+00 -0.00000000000E+00 -0.34913279622E+01  0.34913279622E+01  0.00000000000E+00 0.  1.
          5    1    1    2  501    0  0.20075941903E+02  0.76512621194E+01  0.66312870038E+02  0.69706398473E+02  0.00000000000E+00 0. -1.
         -5    1    1    2    0  503 -0.20075941903E+02 -0.76512621194E+01  0.62508704477E+02  0.66097831967E+02  0.00000000000E+00 0.  1.
<mgrwt>
<rscale>  2 0.21484535E+02</rscale>
<asrwt>0</asrwt>
<pdfrwt beam="1">  1       21 0.20355827E-01 0.21484535E+02</pdfrwt>
<pdfrwt beam="2">  1       21 0.53712748E-03 0.21484535E+02</pdfrwt>
<totfact> 0.14775713E+08</totfact>
</mgrwt>
</event>
<event>
 4    1  0.7478314E+004  0.2460726E+02  0.7546771E-02  0.1666708E+00
         21   -1    0    0  503  502  0.00000000000E+00  0.00000000000E+00  0.11458865232E+03  0.11458865232E+03  0.00000000000E+00 0.  1.
         21   -1    0    0  501  503 -0.00000000000E+00 -0.00000000000E+00 -0.96431719801E+01  0.96431719801E+01  0.00000000000E+00 0.  1.
          4    1    1    2  501    0 -0.19044916679E+02  0.15582311658E+02  0.10710719736E+02  0.26837227971E+02  0.00000000000E+00 0. -1.
         -4    1    1    2    0  502  0.19044916679E+02 -0.15582311658E+02  0.94234760601E+02  0.97394596326E+02  0.00000000000E+00 0.  1.
<mgrwt>
<rscale>  2 0.24607261E+02</rscale>
<asrwt>0</asrwt>
<pdfrwt beam="1">  1       21 0.17629023E-01 0.24607261E+02</pdfrwt>
<pdfrwt beam="2">  1       21 0.14835650E-02 0.24607261E+02</pdfrwt>
<totfact> 0.42956199E+07</totfact>
</mgrwt>
</event>
<event>
 4    1  0.7478314E+004  0.4637873E+02  0.7546771E-02  0.1465914E+00
         21   -1    0    0  501  502  0.00000000000E+00  0.00000000000E+00  0.55895901408E+02  0.55895901408E+02  0.00000000000E+00 0.  1.
         21   -1    0    0  502  503 -0.00000000000E+00 -0.00000000000E+00 -0.39370261247E+02  0.39370261247E+02  0.00000000000E+00 0.  1.
          2    1    1    2  501    0 -0.21909041954E+00  0.46378209095E+02  0.11080776389E+01  0.46391961755E+02  0.00000000000E+00 0. -1.
         -2    1    1    2    0  503  0.21909041954E+00 -0.46378209095E+02  0.15417562522E+02  0.48874200899E+02  0.00000000000E+00 0.  1.
<mgrwt>
<rscale>  2 0.46378727E+02</rscale>
<asrwt>0</asrwt>
<pdfrwt beam="1">  1       21 0.85993694E-02 0.46378727E+02</pdfrwt>
<pdfrwt beam="2">  1       21 0.60569633E-02 0.46378727E+02</pdfrwt>
<totfact> 0.17784656E+07</totfact>
</mgrwt>
</event>
<event>
 4    1  0.7478314E+004  0.2159155E+02  0.7546771E-02  0.1715413E+00
         21   -1    0    0  501  502  0.00000000000E+00  0.00000000000E+00  0.62609578832E+02  0.62609578832E+02  0.00000000000E+00 0.  1.
         21   -1    0    0  502  503 -0.00000000000E+00 -0.00000000000E+00 -0.80588469220E+01  0.80588469220E+01  0.00000000000E+00 0.  1.
          4    1    1    2  501    0  0.14754519037E+02 -0.15763863667E+02  0.17531964350E+02  0.27813036578E+02  0.00000000000E+00 0.  1.
         -4    1    1    2    0  503 -0.14754519037E+02  0.15763863667E+02  0.37018767560E+02  0.42855389176E+02  0.00000000000E+00 0. -1.
<mgrwt>
<rscale>  2 0.21591555E+02</rscale>
<asrwt>0</asrwt>
<pdfrwt beam="1">  1       21 0.96322426E-02 0.21591555E+02</pdfrwt>
<pdfrwt beam="2">  1       21 0.12398226E-02 0.21591555E+02</pdfrwt>
<totfact> 0.15070360E+08</totfact>
</mgrwt>
</event>
<event>
 4    1  0.7478314E+004  0.2187272E+02  0.7546771E-02  0.1710463E+00
         21   -1    0    0  503  502  0.00000000000E+00  0.00000000000E+00  0.24790812144E+02  0.24790812144E+02  0.00000000000E+00 0. -1.
         21   -1    0    0  501  503 -0.00000000000E+00 -0.00000000000E+00 -0.24775337552E+02  0.24775337552E+02  0.00000000000E+00 0. -1.
          2    1    1    2  501    0  0.20652647367E+02  0.72030425675E+01 -0.11644948523E+02  0.24779436870E+02  0.00000000000E+00 0. -1.
         -2    1    1    2    0  502 -0.20652647367E+02 -0.72030425675E+01  0.11660423114E+02  0.24786712826E+02  0.00000000000E+00 0.  1.
<mgrwt>
<rscale>  2 0.21872715E+02</rscale>
<asrwt>0</asrwt>
<pdfrwt beam="1">  1       21 0.38139711E-02 0.21872715E+02</pdfrwt>
<pdfrwt beam="2">  1       21 0.38115904E-02 0.21872715E+02</pdfrwt>
<totfact> 0.11914844E+08</totfact>
</mgrwt>
</event>
<event>
 4    1  0.7478314E+004  0.2154686E+02  0.7546771E-02  0.1716209E+00
         21   -1    0    0  501  502  0.00000000000E+00  0.00000000000E+00  0.18551961454E+02  0.18551961454E+02  0.00000000000E+00 0. -1.
         21   -1    0    0  502  503 -0.00000000000E+00 -0.00000000000E+00 -0.28855514982E+02  0.28855514982E+02  0.00000000000E+00 0. -1.
          4    1    1    2  501    0 -0.40215709958E+01 -0.21168237227E+02  0.34843173299E+01  0.21826767232E+02  0.00000000000E+00 0.  1.
         -4    1    1    2    0  503  0.40215709958E+01  0.21168237227E+02 -0.13787870858E+02  0.25580709204E+02  0.00000000000E+00 0. -1.
<mgrwt>
<rscale>  2 0.21546863E+02</rscale>
<asrwt>0</asrwt>
<pdfrwt beam="1">  1       21 0.28541479E-02 0.21546863E+02</pdfrwt>
<pdfrwt beam="2">  1       21 0.44393100E-02 0.21546863E+02</pdfrwt>
<totfact> 0.14664321E+08</totfact>
</mgrwt>
</event>
<event>
 4    1  0.7478314E+004  0.2199132E+02  0.7546771E-02  0.1708402E+00
         21   -1    0    0  503  502  0.00000000000E+00  0.00000000000E+00  0.11843901718E+03  0.11843901718E+03  0.00000000000E+00 0. -1.
         21   -1    0    0  501  503 -0.00000000000E+00 -0.00000000000E+00 -0.42853876342E+01  0.42853876342E+01  0.00000000000E+00 0. -1.
          3    1    1    2  501    0  0.75221782362E+01  0.20664826159E+02  0.70403143632E+02  0.73757852726E+02  0.00000000000E+00 0.  1.
         -3    1    1    2    0  502 -0.75221782362E+01 -0.20664826159E+02  0.43750485912E+02  0.48966552085E+02  0.00000000000E+00 0. -1.
<mgrwt>
<rscale>  2 0.21991321E+02</rscale>
<asrwt>0</asrwt>
<pdfrwt beam="1">  1       21 0.18221385E-01 0.21991321E+02</pdfrwt>
<pdfrwt beam="2">  1       21 0.65929050E-03 0.21991321E+02</pdfrwt>
<totfact> 0.13316385E+08</totfact>
</mgrwt>
</event>
<event>
 4    1  0.7478314E+004  0.2330047E+02  0.7546771E-02  0.1686685E+00
         21   -1    0    0  503  502  0.00000000000E+00  0.00000000000E+00  0.15994727811E+01  0.15994727811E+01  0.00000000000E+00 0. -1.
         21   -1    0    0  501  503 -0.00000000000E+00 -0.00000000000E+00 -0.69839881985E+03  0.69839881985E+03  0.00000000000E+00 0. -1.
          1    1    1    2  501    0  0.17969882814E+02  0.14832227910E+02 -0.59932390735E+03  0.59977667310E+03  0.00000000000E+00 0.  1.
         -1    1    1    2    0  502 -0.17969882814E+02 -0.14832227910E+02 -0.97475439716E+02  0.10022161953E+03  0.00000000000E+00 0. -1.
<mgrwt>
<rscale>  2 0.23300465E+02</rscale>
<asrwt>0</asrwt>
<pdfrwt beam="1">  1       21 0.24607232E-03 0.23300465E+02</pdfrwt>
<pdfrwt beam="2">  1       21 0.10744615E+00 0.23300465E+02</pdfrwt>
<totfact> 0.18652275E+07</totfact>
</mgrwt>
</event>
<event>
 4    1  0.7478314E+004  0.2805025E+02  0.7546771E-02  0.1620698E+00
         21   -1    0    0  503  502  0.00000000000E+00  0.00000000000E+00  0.28271852256E+02  0.28271852256E+02  0.00000000000E+00 0. -1.
         21   -1    0    0  501  503 -0.00000000000E+00 -0.00000000000E+00 -0.34079628002E+02  0.34079628002E+02  0.00000000000E+00 0. -1.
          2    1    1    2  501    0  0.25745134955E+02 -0.11135728121E+02  0.10446171636E+02  0.29932238748E+02  0.00000000000E+00 0.  1.
         -2    1    1    2    0  502 -0.25745134955E+02  0.11135728121E+02 -0.16253947382E+02  0.32419241511E+02  0.00000000000E+00 0. -1.
<mgrwt>
<rscale>  2 0.28050248E+02</rscale>
<asrwt>0</asrwt>
<pdfrwt beam="1">  1       21 0.43495158E-02 0.28050248E+02</pdfrwt>
<pdfrwt beam="2">  1       21 0.52430197E-02 0.28050248E+02</pdfrwt>
<totfact> 0.62373981E+07</totfact>
</mgrwt>
</event>
<event>
 4    1  0.7478314E+004  0.3695026E+02  0.7546771E-02  0.1531934E+00
         21   -1    0    0  503  502  0.00000000000E+00  0.00000000000E+00  0.21775920013E+02  0.21775920013E+02  0.00000000000E+00 0. -1.
         21   -1    0    0  501  503 -0.00000000000E+00 -0.00000000000E+00 -0.62712985360E+02  0.62712985360E+02  0.00000000000E+00 0. -1.
          1    1    1    2  501    0 -0.23918494073E+01  0.36872760611E+02 -0.21106584058E+02  0.42553605127E+02  0.00000000000E+00 0.  1.
         -1    1    1    2    0  502  0.23918494073E+01 -0.36872760611E+02 -0.19830481289E+02  0.41935300247E+02  0.00000000000E+00 0. -1.
<mgrwt>
<rscale>  2 0.36950256E+02</rscale>
<asrwt>0</asrwt>
<pdfrwt beam="1">  1       21 0.33501416E-02 0.36950256E+02</pdfrwt>
<pdfrwt beam="2">  1       21 0.96481515E-02 0.36950256E+02</pdfrwt>
<totfact> 0.36810991E+07</totfact>
</mgrwt>
</event>
<event>
 4    1  0.7478314E+004  0.2353156E+02  0.7546771E-02  0.1683036E+00
         21   -1    0    0  501  502  0.00000000000E+00  0.00000000000E+00  0.12101341440E+04  0.12101341440E+04  0.00000000000E+00 0.  1.
         21   -1    0    0  502  503 -0.00000000000E+00 -0.00000000000E+00 -0.46069122628E+00  0.46069122628E+00  0.00000000000E+00 0.  1.
          4    1    1    2  501    0  0.16408280782E+02 -0.16867209758E+02  0.65457112532E+03  0.65499396375E+03  0.00000000000E+00 0.  1.
         -4    1    1    2    0  503 -0.16408280782E+02  0.16867209758E+02  0.55510232749E+03  0.55560087152E+03  0.00000000000E+00 0. -1.
<mgrwt>
<rscale>  2 0.23531563E+02</rscale>
<asrwt>0</asrwt>
<pdfrwt beam="1">  1       21 0.18617194E+00 0.23531563E+02</pdfrwt>
<pdfrwt beam="2">  1       21 0.70876542E-04 0.23531563E+02</pdfrwt>
<totfact> 0.30519833E+07</totfact>
</mgrwt>
</event>
<event>
 4    1  0.7478314E+004  0.2016771E+02  0.7546771E-02  0.1742013E+00
         21   -1    0    0  501  502  0.00000000000E+00  0.00000000000E+00  0.15619116806E+03  0.15619116806E+03  0.00000000000E+00 0. -1.
         21   -1    0    0  502  503 -0.00000000000E+00 -0.00000000000E+00 -0.33574780196E+01  0.33574780196E+01  0.00000000000E+00 0. -1.
          2    1    1    2  501    0 -0.19983664681E+02 -0.27183708831E+01  0.11420580200E+03  0.11597284857E+03  0.00000000000E+00 0.  1.
         -2    1    1    2    0  503  0.19983664681E+02  0.27183708831E+01  0.38627888038E+02  0.43575797510E+02  0.00000000000E+00 0. -1.
<mgrwt>
<rscale>  2 0.20167707E+02</rscale>
<asrwt>0</asrwt>
<pdfrwt beam="1">  1       21 0.24029405E-01 0.20167707E+02</pdfrwt>
<pdfrwt beam="2">  1       21 0.51653520E-03 0.20167707E+02</pdfrwt>
<totfact> 0.11484986E+08</totfact>
</mgrwt>
</event>
<event>
 4    1  0.7478314E+004  0.2356134E+02  0.7546771E-02  0.1682569E+00
         21   -1    0    0  503  502  0.00000000000E+00  0.00000000000E+00  0.19629593378E+02  0.19629593378E+02  0.00000000000E+00 0. -1.
         21   -1    0    0  501  503 -0.00000000000E+00 -0.00000000000E+00 -0.28667607674E+02  0.28667607674E+02  0.00000000000E+00 0. -1.
          2    1    1    2  501    0  0.13566059953E+02  0.19263921161E+02 -0.73248096404E+01  0.24673659587E+02  0.00000000000E+00 0.  1.
         -2    1    1    2    0  502 -0.13566059953E+02 -0.19263921161E+02 -0.17132046563E+01  0.23623541465E+02  0.00000000000E+00 0. -1.
<mgrwt>
<rscale>  2 0.23561338E+02</rscale>
<asrwt>0</asrwt>
<pdfrwt beam="1">  1       21 0.30199374E-02 0.23561338E+02</pdfrwt>
<pdfrwt beam="2">  1       21 0.44104012E-02 0.23561338E+02</pdfrwt>
<totfact> 0.13945183E+08</totfact>
</mgrwt>
</event>
<event>
 4    1  0.7478314E+004  0.2564837E+02  0.7546771E-02  0.1651860E+00
         21   -1    0    0  501  502  0.00000000000E+00  0.00000000000E+00  0.19661497131E+03  0.19661497131E+03  0.00000000000E+00 0.  1.
         21   -1    0    0  502  503 -0.00000000000E+00 -0.00000000000E+00 -0.34794947642E+01  0.34794947642E+01  0.00000000000E+00 0.  1.
          5    1    1    2  501    0  0.19761925479E+02  0.16349471645E+02  0.76958235018E+02  0.81119719297E+02  0.00000000000E+00 0.  1.
         -5    1    1    2    0  503 -0.19761925479E+02 -0.16349471645E+02  0.11617724153E+03  0.11897474678E+03  0.00000000000E+00 0. -1.
<mgrwt>
<rscale>  2 0.25648371E+02</rscale>
<asrwt>0</asrwt>
<pdfrwt beam="1">  1       21 0.30248448E-01 0.25648371E+02</pdfrwt>
<pdfrwt beam="2">  1       21 0.53530704E-03 0.25648371E+02</pdfrwt>
<totfact> 0.76845838E+07</totfact>
</mgrwt>
</event>
<event>
 4    1  0.7478314E+004  0.4462877E+02  0.7546771E-02  0.1476673E+00
         21   -1    0    0  503  502  0.00000000000E+00  0.00000000000E+00  0.90126506265E+01  0.90126506265E+01  0.00000000000E+00 0. -1.
         21   -1    0    0  501  503 -0.00000000000E+00 -0.00000000000E+00 -0.22463425368E+03  0.22463425368E+03  0.00000000000E+00 0. -1.
          5    1    1    2  501    0  0.35975151779E+02 -0.26410518517E+02 -0.12268573396E+03  0.13055081904E+03  0.00000000000E+00 0.  1.
         -5    1    1    2    0  502 -0.35975151779E+02  0.26410518517E+02 -0.92935869096E+02  0.10309608527E+03  0.00000000000E+00 0. -1.
<mgrwt>
<rscale>  2 0.44628769E+02</rscale>
<asrwt>0</asrwt>
<pdfrwt beam="1">  1       21 0.13865616E-02 0.44628769E+02</pdfrwt>
<pdfrwt beam="2">  1       21 0.34559117E-01 0.44628769E+02</pdfrwt>
<totfact> 0.15713918E+07</totfact>
</mgrwt>
</event>
<event>
 4    1  0.7478314E+004  0.2188509E+02  0.7546771E-02  0.1710247E+00
         21   -1    0    0  501  502  0.00000000000E+00  0.00000000000E+00  0.32033672059E+02  0.32033672059E+02  0.00000000000E+00 0. -1.
         21   -1    0    0  502  503 -0.00000000000E+00 -0.00000000000E+00 -0.14959915305E+02  0.14959915305E+02  0.00000000000E+00 0. -1.
          3    1    1    2  501    0  0.18186208604E+02 -0.12174513499E+02  0.90884359034E+01  0.23697186109E+02  0.00000000000E+00 0.  1.
         -3    1    1    2    0  503 -0.18186208604E+02  0.12174513499E+02  0.79853208508E+01  0.23296401255E+02  0.00000000000E+00 0. -1.
<mgrwt>
<rscale>  2 0.21885085E+02</rscale>
<asrwt>0</asrwt>
<pdfrwt beam="1">  1       21 0.49282572E-02 0.21885085E+02</pdfrwt>
<pdfrwt beam="2">  1       21 0.23015254E-02 0.21885085E+02</pdfrwt>
<totfact> 0.17412494E+08</totfact>
</mgrwt>
</event>
<event>
 4    1  0.7478314E+004  0.2311511E+02  0.7546771E-02  0.1689651E+00
         21   -1    0    0  501  502  0.00000000000E+00  0.00000000000E+00  0.12525350655E+01  0.12525350655E+01  0.00000000000E+00 0.  1.
         21   -1    0    0  502  503 -0.00000000000E+00 -0.00000000000E+00 -0.42793866493E+03  0.42793866493E+03  0.00000000000E+00 0.  1.
          5    1    1    2  501    0  0.17734810083E+02  0.14825147139E+02 -0.20125874606E+03  0.20258181395E+03  0.00000000000E+00 0.  1.
         -5    1    1    2    0  503 -0.17734810083E+02 -0.14825147139E+02 -0.22542738380E+03  0.22660938605E+03  0.00000000000E+00 0. -1.
<mgrwt>
<rscale>  2 0.23115114E+02</rscale>
<asrwt>0</asrwt>
<pdfrwt beam="1">  1       21 0.19269790E-03 0.23115114E+02</pdfrwt>
<pdfrwt beam="2">  1       21 0.65836649E-01 0.23115114E+02</pdfrwt>
<totfact> 0.74922830E+07</totfact>
</mgrwt>
</event>
<event>
 4    1  0.7478314E+004  0.2183645E+02  0.7546771E-02  0.1711096E+00
         21   -1    0    0  503  502  0.00000000000E+00  0.00000000000E+00  0.80181129033E+03  0.80181129033E+03  0.00000000000E+00 0. -1.
         21   -1    0    0  501  503 -0.00000000000E+00 -0.00000000000E+00 -0.59806603662E+00  0.59806603662E+00  0.00000000000E+00 0. -1.
          2    1    1    2  501    0  0.18792684475E+02 -0.11120505861E+02  0.37047128544E+03  0.37111427348E+03  0.00000000000E+00 0.  1.
         -2    1    1    2    0  502 -0.18792684475E+02  0.11120505861E+02  0.43074193885E+03  0.43129508289E+03  0.00000000000E+00 0. -1.
<mgrwt>
<rscale>  2 0.21836452E+02</rscale>
<asrwt>0</asrwt>
<pdfrwt beam="1">  1       21 0.12335472E+00 0.21836452E+02</pdfrwt>
<pdfrwt beam="2">  1       21 0.92010801E-04 0.21836452E+02</pdfrwt>
<totfact> 0.55386011E+07</totfact>
</mgrwt>
</event>
<event>
 4    1  0.7478314E+004  0.2220285E+02  0.7546771E-02  0.1704767E+00
         21   -1    0    0  501  502  0.00000000000E+00  0.00000000000E+00  0.17651730019E+03  0.17651730019E+03  0.00000000000E+00 0.  1.
         21   -1    0    0  502  503 -0.00000000000E+00 -0.00000000000E+00 -0.59285788399E+01  0.59285788399E+01  0.00000000000E+00 0.  1.
          1    1    1    2  501    0  0.95304594488E+00 -0.22182382855E+02  0.15163899947E+03  0.15325584023E+03  0.00000000000E+00 0. -1.
         -1    1    1    2    0  503 -0.95304594488E+00  0.22182382855E+02  0.18949721887E+02  0.29190038803E+02  0.00000000000E+00 0.  1.
<mgrwt>
<rscale>  2 0.22202847E+02</rscale>
<asrwt>0</asrwt>
<pdfrwt beam="1">  1       21 0.27156504E-01 0.22202847E+02</pdfrwt>
<pdfrwt beam="2">  1       21 0.91208919E-03 0.22202847E+02</pdfrwt>
<totfact> 0.40790022E+07</totfact>
</mgrwt>
</event>
<event>
 4    1  0.7478314E+004  0.2380234E+02  0.7546771E-02  0.1678825E+00
         21   -1    0    0  503  502  0.00000000000E+00  0.00000000000E+00  0.25735190099E+03  0.25735190099E+03  0.00000000000E+00 0.  1.
         21   -1    0    0  501  503 -0.00000000000E+00 -0.00000000000E+00 -0.22018457578E+01  0.22018457578E+01  0.00000000000E+00 0.  1.
          4    1    1    2  501    0  0.20130427831E+01 -0.23717061068E+02  0.12928053194E+03  0.13145344144E+03  0.00000000000E+00 0. -1.
         -4    1    1    2    0  502 -0.20130427831E+01  0.23717061068E+02  0.12586952329E+03  0.12810030531E+03  0.00000000000E+00 0.  1.
<mgrwt>
<rscale>  2 0.23802339E+02</rscale>
<asrwt>0</asrwt>
<pdfrwt beam="1">  1       21 0.39592576E-01 0.23802339E+02</pdfrwt>
<pdfrwt beam="2">  1       21 0.33874570E-03 0.23802339E+02</pdfrwt>
<totfact> 0.89804799E+07</totfact>
</mgrwt>
</event>
<event>
 4    1  0.7478314E+004  0.2803236E+02  0.7546771E-02  0.1620915E+00
         21   -1    0    0  503  502  0.00000000000E+00  0.00000000000E+00  0.10031477338E+02  0.10031477338E+02  0.00000000000E+00 0.  1.
         21   -1    0    0  501  503 -0.00000000000E+00 -0.00000000000E+00 -0.88408697778E+02  0.88408697778E+02  0.00000000000E+00 0.  1.
          5    1    1    2  501    0 -0.15548143785E+02 -0.23325277337E+02 -0.55803389847E+02  0.62448632142E+02  0.00000000000E+00 0.  1.
         -5    1    1    2    0  502  0.15548143785E+02  0.23325277337E+02 -0.22573830592E+02  0.35991542974E+02  0.00000000000E+00 0. -1.
<mgrwt>
<rscale>  2 0.28032362E+02</rscale>
<asrwt>0</asrwt>
<pdfrwt beam="1">  1       21 0.15433042E-02 0.28032362E+02</pdfrwt>
<pdfrwt beam="2">  1       21 0.13601338E-01 0.28032362E+02</pdfrwt>
<totfact> 0.65082821E+07</totfact>
</mgrwt>
</event>
<event>
 4    1  0.7478314E+004  0.2718698E+02  0.7546771E-02  0.1631441E+00
         21   -1    0    0  501  502  0.00000000000E+00  0.00000000000E+00  0.19110942352E+01  0.19110942352E+01  0.00000000000E+00 0.  1.
         21   -1    0    0  502  503 -0.00000000000E+00 -0.00000000000E+00 -0.45071334514E+03  0.45071334514E+03  0.00000000000E+00 0.  1.
          5    1    1    2  501    0  0.21155695255E+02  0.17075377865E+02 -0.13915111007E+03  0.14178209832E+03  0.00000000000E+00 0. -1.
         -5    1    1    2    0  503 -0.21155695255E+02 -0.17075377865E+02 -0.30965114083E+03  0.31084234105E+03  0.00000000000E+00 0.  1.
<mgrwt>
<rscale>  2 0.27186982E+02</rscale>
<asrwt>0</asrwt>
<pdfrwt beam="1">  1       21 0.29401446E-03 0.27186982E+02</pdfrwt>
<pdfrwt beam="2">  1       21 0.69340523E-01 0.27186982E+02</pdfrwt>
<totfact> 0.37779952E+07</totfact>
</mgrwt>
</event>
<event>
 4    1  0.7478314E+004  0.2009220E+02  0.7546771E-02  0.1743501E+00
         21   -1    0    0  501  502  0.00000000000E+00  0.00000000000E+00  0.27279092038E+02  0.27279092038E+02  0.00000000000E+00 0.  1.
         21   -1    0    0  502  503 -0.00000000000E+00 -0.00000000000E+00 -0.15135455856E+02  0.15135455856E+02  0.00000000000E+00 0.  1.
          3    1    1    2  501    0  0.16376920604E+02 -0.11640145444E+02  0.29087304903E+01  0.20301655782E+02  0.00000000000E+00 0.  1.
         -3    1    1    2    0  503 -0.16376920604E+02  0.11640145444E+02  0.92349056915E+01  0.22112892112E+02  0.00000000000E+00 0. -1.
<mgrwt>
<rscale>  2 0.20092200E+02</rscale>
<asrwt>0</asrwt>
<pdfrwt beam="1">  1       21 0.41967834E-02 0.20092200E+02</pdfrwt>
<pdfrwt beam="2">  1       21 0.23285317E-02 0.20092200E+02</pdfrwt>
<totfact> 0.21444702E+08</totfact>
</mgrwt>
</event>
<event>
 4    1  0.7478314E+004  0.2119634E+02  0.7546771E-02  0.1722533E+00
         21   -1    0    0  503  502  0.00000000000E+00  0.00000000000E+00  0.16721052692E+04  0.16721052692E+04  0.00000000000E+00 0.  1.
         21   -1    0    0  501  503 -0.00000000000E+00 -0.00000000000E+00 -0.27194944970E+00  0.27194944970E+00  0.00000000000E+00 0.  1.
          5    1    1    2  501    0  0.14517697247E+02  0.15444133284E+02  0.74442945860E+03  0.74473116198E+03  0.00000000000E+00 0. -1.
         -5    1    1    2    0  502 -0.14517697247E+02 -0.15444133284E+02  0.92740386117E+03  0.92764605669E+03  0.00000000000E+00 0.  1.
<mgrwt>
<rscale>  2 0.21196339E+02</rscale>
<asrwt>0</asrwt>
<pdfrwt beam="1">  1       21 0.25723873E+00 0.21196339E+02</pdfrwt>
<pdfrwt beam="2">  1       21 0.41839716E-04 0.21196339E+02</pdfrwt>
<totfact> 0.26630069E+07</totfact>
</mgrwt>
</event>
<event>
 4    1  0.7478314E+004  0.3088760E+02  0.7546771E-02  0.1588480E+00
         21   -1    0    0  503  502  0.00000000000E+00  0.00000000000E+00  0.33007417940E+02  0.33007417940E+02  0.00000000000E+00 0.  1.
         21   -1    0    0  501  503 -0.00000000000E+00 -0.00000000000E+00 -0.29151752248E+02  0.29151752248E+02  0.00000000000E+00 0.  1.
          1    1    1    2  501    0  0.27011290828E+02 -0.14981125128E+02 -0.93777757922E+00  0.30901834397E+02  0.00000000000E+00 0.  1.
         -1    1    1    2    0  502 -0.27011290828E+02  0.14981125128E+02  0.47934432712E+01  0.31257335790E+02  0.00000000000E+00 0. -1.
<mgrwt>
<rscale>  2 0.30887602E+02</rscale>
<asrwt>0</asrwt>
<pdfrwt beam="1">  1       21 0.50780643E-02 0.30887602E+02</pdfrwt>
<pdfrwt beam="2">  1       21 0.44848850E-02 0.30887602E+02</pdfrwt>
<totfact> 0.63955236E+07</totfact>
</mgrwt>
</event>
<event>
 4    1  0.7478314E+004  0.2484695E+02  0.7546771E-02  0.1663210E+00
         21   -1    0    0  503  502  0.00000000000E+00  0.00000000000E+00  0.12114832653E+01  0.12114832653E+01  0.00000000000E+00 0.  1.
         21   -1    0    0  501  503 -0.00000000000E+00 -0.00000000000E+00 -0.55826005372E+03  0.55826005372E+03  0.00000000000E+00 0.  1.
          5    1    1    2  501    0 -0.85153648157E+01  0.23342225714E+02 -0.19593580918E+03  0.19750496768E+03  0.00000000000E+00 0. -1.
         -5    1    1    2    0  502  0.85153648157E+01 -0.23342225714E+02 -0.36111276128E+03  0.36196656931E+03  0.00000000000E+00 0.  1.
<mgrwt>
<rscale>  2 0.24846950E+02</rscale>
<asrwt>0</asrwt>
<pdfrwt beam="1">  1       21 0.18638197E-03 0.24846950E+02</pdfrwt>
<pdfrwt beam="2">  1       21 0.85886197E-01 0.24846950E+02</pdfrwt>
<totfact> 0.45974798E+07</totfact>
</mgrwt>
</event>
<event>
 4    1  0.7478314E+004  0.2067573E+02  0.7546771E-02  0.1732215E+00
         21   -1    0    0  501  502  0.00000000000E+00  0.00000000000E+00  0.94027295248E+00  0.94027295248E+00  0.00000000000E+00 0.  1.
         21   -1    0    0  502  503 -0.00000000000E+00 -0.00000000000E+00 -0.47624982162E+03  0.47624982162E+03  0.00000000000E+00 0.  1.
          5    1    1    2  501    0 -0.60782200156E+00  0.20666792090E+02 -0.28847880354E+03  0.28921878541E+03  0.00000000000E+00 0. -1.
         -5    1    1    2    0  503  0.60782200156E+00 -0.20666792090E+02 -0.18683074513E+03  0.18797130916E+03  0.00000000000E+00 0.  1.
<mgrwt>
<rscale>  2 0.20675728E+02</rscale>
<asrwt>0</asrwt>
<pdfrwt beam="1">  1       21 0.14465743E-03 0.20675728E+02</pdfrwt>
<pdfrwt beam="2">  1       21 0.73269177E-01 0.20675728E+02</pdfrwt>
<totfact> 0.88389099E+07</totfact>
</mgrwt>
</event>
<event>
 4    1  0.7478314E+004  0.2774603E+02  0.7546771E-02  0.1624429E+00
         21   -1    0    0  501  502  0.00000000000E+00  0.00000000000E+00  0.13540650821E+02  0.13540650821E+02  0.00000000000E+00 0.  1.
         21   -1    0    0  502  503 -0.00000000000E+00 -0.00000000000E+00 -0.58662950690E+02  0.58662950690E+02  0.00000000000E+00 0.  1.
          4    1    1    2  501    0  0.24079808914E+02  0.13784236420E+02 -0.28900440985E+02  0.40063422971E+02  0.00000000000E+00 0.  1.
         -4    1    1    2    0  503 -0.24079808914E+02 -0.13784236420E+02 -0.16221858884E+02  0.32140178541E+02  0.00000000000E+00 0. -1.
<mgrwt>
<rscale>  2 0.27746033E+02</rscale>
<asrwt>0</asrwt>
<pdfrwt beam="1">  1       21 0.20831770E-02 0.27746033E+02</pdfrwt>
<pdfrwt beam="2">  1       21 0.90250695E-02 0.27746033E+02</pdfrwt>
<totfact> 0.81448469E+07</totfact>
</mgrwt>
</event>
<event>
 4    1  0.7478314E+004  0.2268645E+02  0.7546771E-02  0.1696644E+00
         21   -1    0    0  503  502  0.00000000000E+00  0.00000000000E+00  0.60204362080E+02  0.60204362080E+02  0.00000000000E+00 0.  1.
         21   -1    0    0  501  503 -0.00000000000E+00 -0.00000000000E+00 -0.91112279247E+01  0.91112279247E+01  0.00000000000E+00 0.  1.
          4    1    1    2  501    0 -0.20430620794E+02  0.98622956076E+01  0.34157403375E+02  0.41004918558E+02  0.00000000000E+00 0.  1.
         -4    1    1    2    0  502  0.20430620794E+02 -0.98622956076E+01  0.16935730781E+02  0.28310671447E+02  0.00000000000E+00 0. -1.
<mgrwt>
<rscale>  2 0.22686453E+02</rscale>
<asrwt>0</asrwt>
<pdfrwt beam="1">  1       21 0.92622093E-02 0.22686453E+02</pdfrwt>
<pdfrwt beam="2">  1       21 0.14017274E-02 0.22686453E+02</pdfrwt>
<totfact> 0.13551718E+08</totfact>
</mgrwt>
</event>
<event>
 4    1  0.7478314E+004  0.3332429E+02  0.7546771E-02  0.1564005E+00
         21   -1    0    0  503  502  0.00000000000E+00  0.00000000000E+00  0.12381798065E+04  0.12381798065E+04  0.00000000000E+00 0.  1.
         21   -1    0    0  501  503 -0.00000000000E+00 -0.00000000000E+00 -0.11113805591E+01  0.11113805591E+01  0.00000000000E+00 0.  1.
          2    1    1    2  501    0  0.23450383112E+02  0.23676737981E+02  0.89075310605E+03  0.89137624173E+03  0.00000000000E+00 0. -1.
         -2    1    1    2    0  502 -0.23450383112E+02 -0.23676737981E+02  0.34631531985E+03  0.34791494528E+03  0.00000000000E+00 0.  1.
<mgrwt>
<rscale>  2 0.33324291E+02</rscale>
<asrwt>0</asrwt>
<pdfrwt beam="1">  1       21 0.19048810E+00 0.33324291E+02</pdfrwt>
<pdfrwt beam="2">  1       21 0.17098261E-03 0.33324291E+02</pdfrwt>
<totfact> 0.84780324E+06</totfact>
</mgrwt>
</event>
<event>
 4    1  0.7478314E+004  0.2816546E+02  0.7546771E-02  0.1619300E+00
         21   -1    0    0  501  502  0.00000000000E+00  0.00000000000E+00  0.20888687408E+03  0.20888687408E+03  0.00000000000E+00 0.  1.
         21   -1    0    0  502  503 -0.00000000000E+00 -0.00000000000E+00 -0.38007301957E+01  0.38007301957E+01  0.00000000000E+00 0.  1.
          3    1    1    2  501    0  0.97824117308E+00  0.28148465796E+02  0.99548434947E+02  0.10345619355E+03  0.00000000000E+00 0.  1.
         -3    1    1    2    0  503 -0.97824117308E+00 -0.28148465796E+02  0.10553770894E+03  0.10923141073E+03  0.00000000000E+00 0. -1.
<mgrwt>
<rscale>  2 0.28165459E+02</rscale>
<asrwt>0</asrwt>
<pdfrwt beam="1">  1       21 0.32136433E-01 0.28165459E+02</pdfrwt>
<pdfrwt beam="2">  1       21 0.58472789E-03 0.28165459E+02</pdfrwt>
<totfact> 0.61620043E+07</totfact>
</mgrwt>
</event>
<event>
 4    1  0.7478314E+004  0.4125622E+02  0.7546771E-02  0.1499165E+00
         21   -1    0    0  501  502  0.00000000000E+00  0.00000000000E+00  0.72283427836E+01  0.72283427836E+01  0.00000000000E+00 0. -1.
         21   -1    0    0  502  503 -0.00000000000E+00 -0.00000000000E+00 -0.25370299509E+03  0.25370299509E+03  0.00000000000E+00 0. -1.
          2    1    1    2  501    0 -0.41190872493E+02  0.23211540635E+01 -0.88264314624E+02  0.97430308267E+02  0.00000000000E+00 0. -1.
         -2    1    1    2    0  503  0.41190872493E+02 -0.23211540635E+01 -0.15821033768E+03  0.16350102961E+03  0.00000000000E+00 0.  1.
<mgrwt>
<rscale>  2 0.41256221E+02</rscale>
<asrwt>0</asrwt>
<pdfrwt beam="1">  1       21 0.11120532E-02 0.41256221E+02</pdfrwt>
<pdfrwt beam="2">  1       21 0.39031215E-01 0.41256221E+02</pdfrwt>
<totfact> 0.17314144E+07</totfact>
</mgrwt>
</event>
<event>
 4    1  0.7478314E+004  0.3812112E+02  0.7546771E-02  0.1522511E+00
         21   -1    0    0  503  502  0.00000000000E+00  0.00000000000E+00  0.69284233339E+01  0.69284233339E+01  0.00000000000E+00 0. -1.
         21   -1    0    0  501  503 -0.00000000000E+00 -0.00000000000E+00 -0.30784359194E+03  0.30784359194E+03  0.00000000000E+00 0. -1.
          3    1    1    2  501    0  0.33856138197E+02 -0.17520889539E+02 -0.23930132830E+03  0.24231868560E+03  0.00000000000E+00 0. -1.
         -3    1    1    2    0  502 -0.33856138197E+02  0.17520889539E+02 -0.61613840309E+02  0.72453329678E+02  0.00000000000E+00 0.  1.
<mgrwt>
<rscale>  2 0.38121118E+02</rscale>
<asrwt>0</asrwt>
<pdfrwt beam="1">  1       21 0.10659115E-02 0.38121118E+02</pdfrwt>
<pdfrwt beam="2">  1       21 0.47360544E-01 0.38121118E+02</pdfrwt>
<totfact> 0.12542836E+07</totfact>
</mgrwt>
</event>
<event>
 4    1  0.7478314E+004  0.2346563E+02  0.7546771E-02  0.1684072E+00
         21   -1    0    0  501  502  0.00000000000E+00  0.00000000000E+00  0.54297364906E+01  0.54297364906E+01  0.00000000000E+00 0. -1.
         21   -1    0    0  502  503 -0.00000000000E+00 -0.00000000000E+00 -0.10288052606E+03  0.10288052606E+03  0.00000000000E+00 0. -1.
          2    1    1    2  501    0 -0.30669333204E+01 -0.23264346640E+02 -0.42253413554E+02  0.48332047976E+02  0.00000000000E+00 0. -1.
         -2    1    1    2    0  503  0.30669333204E+01  0.23264346640E+02 -0.55197376017E+02  0.59978214577E+02  0.00000000000E+00 0.  1.
<mgrwt>
<rscale>  2 0.23465632E+02</rscale>
<asrwt>0</asrwt>
<pdfrwt beam="1">  1       21 0.83534411E-03 0.23465632E+02</pdfrwt>
<pdfrwt beam="2">  1       21 0.15827772E-01 0.23465632E+02</pdfrwt>
<totfact> 0.12149504E+08</totfact>
</mgrwt>
</event>
<event>
 4    1  0.7478314E+004  0.2060737E+02  0.7546771E-02  0.1733513E+00
         21   -1    0    0  501  502  0.00000000000E+00  0.00000000000E+00  0.14182974344E+02  0.14182974344E+02  0.00000000000E+00 0.  1.
         21   -1    0    0  502  503 -0.00000000000E+00 -0.00000000000E+00 -0.34501884329E+02  0.34501884329E+02  0.00000000000E+00 0.  1.
          4    1    1    2  501    0 -0.20500752160E+02  0.20935080072E+01 -0.13097354825E+01  0.20648947235E+02  0.00000000000E+00 0.  1.
         -4    1    1    2    0  503  0.20500752160E+02 -0.20935080072E+01 -0.19009174503E+02  0.28035911438E+02  0.00000000000E+00 0. -1.
<mgrwt>
<rscale>  2 0.20607368E+02</rscale>
<asrwt>0</asrwt>
<pdfrwt beam="1">  1       21 0.21819961E-02 0.20607368E+02</pdfrwt>
<pdfrwt beam="2">  1       21 0.53079821E-02 0.20607368E+02</pdfrwt>
<totfact> 0.16482792E+08</totfact>
</mgrwt>
</event>
<event>
 4    1  0.7478314E+004  0.2753372E+02  0.7546771E-02  0.1627068E+00
         21   -1    0    0  501  502  0.00000000000E+00  0.00000000000E+00  0.26850223524E+02  0.26850223524E+02  0.00000000000E+00 0. -1.
         21   -1    0    0  502  503 -0.00000000000E+00 -0.00000000000E+00 -0.34989110133E+02  0.34989110133E+02  0.00000000000E+00 0. -1.
          5    1    1    2  501    0  0.17213785157E+02  0.21489333710E+02  0.95157129239E+01  0.29131677864E+02  0.00000000000E+00 0.  1.
         -5    1    1    2    0  503 -0.17213785157E+02 -0.21489333710E+02 -0.17654599533E+02  0.32707655792E+02  0.00000000000E+00 0. -1.
<mgrwt>
<rscale>  2 0.27533722E+02</rscale>
<asrwt>0</asrwt>
<pdfrwt beam="1">  1       21 0.41308036E-02 0.27533722E+02</pdfrwt>
<pdfrwt beam="2">  1       21 0.53829400E-02 0.27533722E+02</pdfrwt>
<totfact> 0.64608601E+07</totfact>
</mgrwt>
</event>
<event>
 4    1  0.7478314E+004  0.2120794E+02  0.7546771E-02  0.1722322E+00
         21   -1    0    0  501  502  0.00000000000E+00  0.00000000000E+00  0.36896423861E+02  0.36896423861E+02  0.00000000000E+00 0.  1.
         21   -1    0    0  502  503 -0.00000000000E+00 -0.00000000000E+00 -0.13690140877E+02  0.13690140877E+02  0.00000000000E+00 0.  1.
          5    1    1    2  501    0 -0.15898542185E+02 -0.14036130128E+02  0.32311030050E+01  0.21452659957E+02  0.00000000000E+00 0.  1.
         -5    1    1    2    0  503  0.15898542185E+02  0.14036130128E+02  0.19975179979E+02  0.29133904781E+02  0.00000000000E+00 0. -1.
<mgrwt>
<rscale>  2 0.21207937E+02</rscale>
<asrwt>0</asrwt>
<pdfrwt beam="1">  1       21 0.56763729E-02 0.21207937E+02</pdfrwt>
<pdfrwt beam="2">  1       21 0.21061755E-02 0.21207937E+02</pdfrwt>
<totfact> 0.15777918E+08</totfact>
</mgrwt>
</event>
<event>
 4    1  0.7478314E+004  0.3022418E+02  0.7546771E-02  0.1595624E+00
         21   -1    0    0  501  502  0.00000000000E+00  0.00000000000E+00  0.12933276100E+03  0.12933276100E+03  0.00000000000E+00 0.  1.
         21   -1    0    0  502  503 -0.00000000000E+00 -0.00000000000E+00 -0.70912108036E+01  0.70912108036E+01  0.00000000000E+00 0.  1.
          2    1    1    2  501    0  0.65277135324E+01  0.29510849839E+02  0.65408969423E+02  0.72054386287E+02  0.00000000000E+00 0.  1.
         -2    1    1    2    0  503 -0.65277135324E+01 -0.29510849839E+02  0.56832580771E+02  0.64369585515E+02  0.00000000000E+00 0. -1.
<mgrwt>
<rscale>  2 0.30224184E+02</rscale>
<asrwt>0</asrwt>
<pdfrwt beam="1">  1       21 0.19897346E-01 0.30224184E+02</pdfrwt>
<pdfrwt beam="2">  1       21 0.10909556E-02 0.30224184E+02</pdfrwt>
<totfact> 0.58155034E+07</totfact>
</mgrwt>
</event>
<event>
 4    1  0.7478314E+004  0.2562846E+02  0.7546771E-02  0.1652136E+00
         21   -1    0    0  503  502  0.00000000000E+00  0.00000000000E+00  0.13767449665E+03  0.13767449665E+03  0.00000000000E+00 0. -1.
         21   -1    0    0  501  503 -0.00000000000E+00 -0.00000000000E+00 -0.47708461144E+01  0.47708461144E+01  0.00000000000E+00 0. -1.
          4    1    1    2  501    0 -0.24458106966E+02  0.76563079848E+01  0.66663271461E+02  0.71419953866E+02  0.00000000000E+00 0. -1.
         -4    1    1    2    0  502  0.24458106966E+02 -0.76563079848E+01  0.66240379076E+02  0.71025388901E+02  0.00000000000E+00 0.  1.
<mgrwt>
<rscale>  2 0.25628462E+02</rscale>
<asrwt>0</asrwt>
<pdfrwt beam="1">  1       21 0.21180689E-01 0.25628462E+02</pdfrwt>
<pdfrwt beam="2">  1       21 0.73397643E-03 0.25628462E+02</pdfrwt>
<totfact> 0.91022761E+07</totfact>
</mgrwt>
</event>
<event>
 4    1  0.7478314E+004  0.2138703E+02  0.7546771E-02  0.1719074E+00
         21   -1    0    0  501  502  0.00000000000E+00  0.00000000000E+00  0.11772760810E+03  0.11772760810E+03  0.00000000000E+00 0. -1.
         21   -1    0    0  502  503 -0.00000000000E+00 -0.00000000000E+00 -0.39206974168E+01  0.39206974168E+01  0.00000000000E+00 0. -1.
          4    1    1    2  501    0  0.94401078515E+01  0.19190865037E+02  0.62684304042E+02  0.66232370563E+02  0.00000000000E+00 0.  1.
         -4    1    1    2    0  503 -0.94401078515E+01 -0.19190865037E+02  0.51122606644E+02  0.55415934957E+02  0.00000000000E+00 0. -1.
<mgrwt>
<rscale>  2 0.21387027E+02</rscale>
<asrwt>0</asrwt>
<pdfrwt beam="1">  1       21 0.18111937E-01 0.21387027E+02</pdfrwt>
<pdfrwt beam="2">  1       21 0.60318431E-03 0.21387027E+02</pdfrwt>
<totfact> 0.15223738E+08</totfact>
</mgrwt>
</event>
<event>
 4    1  0.7478314E+004  0.2179533E+02  0.7546771E-02  0.1711816E+00
         21   -1    0    0  501  502  0.00000000000E+00  0.00000000000E+00  0.57507555933E+02  0.57507555933E+02  0.00000000000E+00 0.  1.
         21   -1    0    0  502  503 -0.00000000000E+00 -0.00000000000E+00 -0.43620290235E+02  0.43620290235E+02  0.00000000000E+00 0.  1.
          5    1    1    2  501    0 -0.17569861239E+02  0.12897152241E+02  0.52468828238E+02  0.56815618421E+02  0.00000000000E+00 0.  1.
         -5    1    1    2    0  503  0.17569861239E+02 -0.12897152241E+02 -0.38581562540E+02  0.44312227747E+02  0.00000000000E+00 0. -1.
<mgrwt>
<rscale>  2 0.21795333E+02</rscale>
<asrwt>0</asrwt>
<pdfrwt beam="1">  1       21 0.88473163E-02 0.21795333E+02</pdfrwt>
<pdfrwt beam="2">  1       21 0.67108139E-02 0.21795333E+02</pdfrwt>
<totfact> 0.12586572E+07</totfact>
</mgrwt>
</event>
<event>
 4    1  0.7478314E+004  0.3643512E+02  0.7546771E-02  0.1536214E+00
         21   -1    0    0  501  502  0.00000000000E+00  0.00000000000E+00  0.94161333378E+02  0.94161333378E+02  0.00000000000E+00 0. -1.
         21   -1    0    0  502  503 -0.00000000000E+00 -0.00000000000E+00 -0.15772520775E+02  0.15772520775E+02  0.00000000000E+00 0. -1.
          2    1    1    2  501    0  0.26983083268E+02 -0.24483283575E+02  0.57102642646E+02  0.67736472852E+02  0.00000000000E+00 0. -1.
         -2    1    1    2    0  503 -0.26983083268E+02  0.24483283575E+02  0.21286169956E+02  0.42197381301E+02  0.00000000000E+00 0.  1.
<mgrwt>
<rscale>  2 0.36435120E+02</rscale>
<asrwt>0</asrwt>
<pdfrwt beam="1">  1       21 0.14486359E-01 0.36435120E+02</pdfrwt>
<pdfrwt beam="2">  1       21 0.24265417E-02 0.36435120E+02</pdfrwt>
<totfact> 0.30581462E+07</totfact>
</mgrwt>
</event>
<event>
 4    1  0.7478314E+004  0.2029762E+02  0.7546771E-02  0.1739474E+00
         21   -1    0    0  501  502  0.00000000000E+00  0.00000000000E+00  0.10158633032E+02  0.10158633032E+02  0.00000000000E+00 0. -1.
         21   -1    0    0  502  503 -0.00000000000E+00 -0.00000000000E+00 -0.42060873105E+02  0.42060873105E+02  0.00000000000E+00 0. -1.
          3    1    1    2  501    0  0.19870718550E+02  0.41409859879E+01 -0.11012361053E+02  0.23092538115E+02  0.00000000000E+00 0.  1.
         -3    1    1    2    0  503 -0.19870718550E+02 -0.41409859879E+01 -0.20889879021E+02  0.29126968022E+02  0.00000000000E+00 0. -1.
<mgrwt>
<rscale>  2 0.20297616E+02</rscale>
<asrwt>0</asrwt>
<pdfrwt beam="1">  1       21 0.15628666E-02 0.20297616E+02</pdfrwt>
<pdfrwt beam="2">  1       21 0.64709035E-02 0.20297616E+02</pdfrwt>
<totfact> 0.19878150E+08</totfact>
</mgrwt>
</event>
<event>
 4    1  0.7478314E+004  0.2283337E+02  0.7546771E-02  0.1694226E+00
         21   -1    0    0  503  502  0.00000000000E+00  0.00000000000E+00  0.10995214760E+01  0.10995214760E+01  0.00000000000E+00 0.  1.
         21   -1    0    0  501  503 -0.00000000000E+00 -0.00000000000E+00 -0.56106854893E+03  0.56106854893E+03  0.00000000000E+00 0.  1.
          2    1    1    2  501    0  0.22430884101E+02  0.42682576177E+01 -0.39060328463E+03  0.39127009667E+03  0.00000000000E+00 0. -1.
         -2    1    1    2    0  502 -0.22430884101E+02 -0.42682576177E+01 -0.16936574283E+03  0.17089797374E+03  0.00000000000E+00 0.  1.
<mgrwt>
<rscale>  2 0.22833366E+02</rscale>
<asrwt>0</asrwt>
<pdfrwt beam="1">  1       21 0.16915733E-03 0.22833366E+02</pdfrwt>
<pdfrwt beam="2">  1       21 0.86318146E-01 0.22833366E+02</pdfrwt>
<totfact> 0.51359759E+07</totfact>
</mgrwt>
</event>
<event>
 4    1  0.7478314E+004  0.5938355E+02  0.7546771E-02  0.1400437E+00
         21   -1    0    0  503  502  0.00000000000E+00  0.00000000000E+00  0.11034024228E+02  0.11034024228E+02  0.00000000000E+00 0. -1.
         21   -1    0    0  501  503 -0.00000000000E+00 -0.00000000000E+00 -0.32405137513E+03  0.32405137513E+03  0.00000000000E+00 0. -1.
          3    1    1    2  501    0 -0.49762424690E+02 -0.32405358082E+02 -0.17615883567E+03  0.18589873999E+03  0.00000000000E+00 0. -1.
         -3    1    1    2    0  502  0.49762424690E+02  0.32405358082E+02 -0.13685851523E+03  0.14918665937E+03  0.00000000000E+00 0.  1.
<mgrwt>
<rscale>  2 0.59383551E+02</rscale>
<asrwt>0</asrwt>
<pdfrwt beam="1">  1       21 0.16975426E-02 0.59383551E+02</pdfrwt>
<pdfrwt beam="2">  1       21 0.49854045E-01 0.59383551E+02</pdfrwt>
<totfact> 0.57742877E+06</totfact>
</mgrwt>
</event>
<event>
 4    1  0.7478314E+004  0.2106485E+02  0.7546771E-02  0.1724945E+00
         21   -1    0    0  501  502  0.00000000000E+00  0.00000000000E+00  0.67554735130E+00  0.67554735130E+00  0.00000000000E+00 0. -1.
         21   -1    0    0  502  503 -0.00000000000E+00 -0.00000000000E+00 -0.74219286192E+03  0.74219286192E+03  0.00000000000E+00 0. -1.
          2    1    1    2  501    0 -0.20948031750E+02  0.22153352439E+01 -0.24480002133E+03  0.24570465642E+03  0.00000000000E+00 0. -1.
         -2    1    1    2    0  503  0.20948031750E+02 -0.22153352439E+01 -0.49671729324E+03  0.49716375285E+03  0.00000000000E+00 0.  1.
<mgrwt>
<rscale>  2 0.21064846E+02</rscale>
<asrwt>0</asrwt>
<pdfrwt beam="1">  1       21 0.10393024E-03 0.21064846E+02</pdfrwt>
<pdfrwt beam="2">  1       21 0.11418365E+00 0.21064846E+02</pdfrwt>
<totfact> 0.54993784E+07</totfact>
</mgrwt>
</event>
<event>
 4    1  0.7478314E+004  0.5364259E+02  0.7546771E-02  0.1426629E+00
         21   -1    0    0  503  502  0.00000000000E+00  0.00000000000E+00  0.29566361273E+02  0.29566361273E+02  0.00000000000E+00 0. -1.
         21   -1    0    0  501  503 -0.00000000000E+00 -0.00000000000E+00 -0.14078897268E+03  0.14078897268E+03  0.00000000000E+00 0. -1.
          3    1    1    2  501    0 -0.52736702032E+02 -0.98166993747E+01 -0.10293834145E+03  0.11607682572E+03  0.00000000000E+00 0. -1.
         -3    1    1    2    0  502  0.52736702032E+02  0.98166993747E+01 -0.82842699560E+01  0.54278508237E+02  0.00000000000E+00 0.  1.
<mgrwt>
<rscale>  2 0.53642589E+02</rscale>
<asrwt>0</asrwt>
<pdfrwt beam="1">  1       21 0.45486710E-02 0.53642589E+02</pdfrwt>
<pdfrwt beam="2">  1       21 0.21659842E-01 0.53642589E+02</pdfrwt>
<totfact> 0.57871586E+06</totfact>
</mgrwt>
</event>
<event>
 4    1  0.7478314E+004  0.2593906E+02  0.7546771E-02  0.1647869E+00
         21   -1    0    0  501  502  0.00000000000E+00  0.00000000000E+00  0.64652106903E+01  0.64652106903E+01  0.00000000000E+00 0. -1.
         21   -1    0    0  502  503 -0.00000000000E+00 -0.00000000000E+00 -0.10516734138E+03  0.10516734138E+03  0.00000000000E+00 0. -1.
          5    1    1    2  501    0  0.22236743506E+02  0.13355219485E+02 -0.55052524288E+02  0.60857333821E+02  0.00000000000E+00 0.  1.
         -5    1    1    2    0  503 -0.22236743506E+02 -0.13355219485E+02 -0.43649606400E+02  0.50775218248E+02  0.00000000000E+00 0. -1.
<mgrwt>
<rscale>  2 0.25939056E+02</rscale>
<asrwt>0</asrwt>
<pdfrwt beam="1">  1       21 0.99464782E-03 0.25939056E+02</pdfrwt>
<pdfrwt beam="2">  1       21 0.16179591E-01 0.25939056E+02</pdfrwt>
<totfact> 0.92469281E+07</totfact>
</mgrwt>
</event>
<event>
 4    1  0.7478314E+004  0.3398216E+02  0.7546771E-02  0.1557830E+00
         21   -1    0    0  501  502  0.00000000000E+00  0.00000000000E+00  0.16754633649E+02  0.16754633649E+02  0.00000000000E+00 0. -1.
         21   -1    0    0  502  503 -0.00000000000E+00 -0.00000000000E+00 -0.12217518170E+03  0.12217518170E+03  0.00000000000E+00 0. -1.
          5    1    1    2  501    0  0.33972157803E+02 -0.82426431760E+00 -0.98570996409E+02  0.10426422325E+03  0.00000000000E+00 0. -1.
         -5    1    1    2    0  503 -0.33972157803E+02  0.82426431760E+00 -0.68495516375E+01  0.34665592092E+02  0.00000000000E+00 0.  1.
<mgrwt>
<rscale>  2 0.33982156E+02</rscale>
<asrwt>0</asrwt>
<pdfrwt beam="1">  1       21 0.25776361E-02 0.33982156E+02</pdfrwt>
<pdfrwt beam="2">  1       21 0.18796181E-01 0.33982156E+02</pdfrwt>
<totfact> 0.17440163E+07</totfact>
</mgrwt>
</event>
<event>
 4    1  0.7478314E+004  0.3739440E+02  0.7546771E-02  0.1528311E+00
         21   -1    0    0  501  502  0.00000000000E+00  0.00000000000E+00  0.98493077660E+02  0.98493077660E+02  0.00000000000E+00 0.  1.
         21   -1    0    0  502  503 -0.00000000000E+00 -0.00000000000E+00 -0.14960943016E+02  0.14960943016E+02  0.00000000000E+00 0.  1.
          5    1    1    2  501    0  0.37360860361E+02 -0.15834414497E+01  0.54581698669E+02  0.66162700997E+02  0.00000000000E+00 0. -1.
         -5    1    1    2    0  503 -0.37360860361E+02  0.15834414497E+01  0.28950435975E+02  0.47291319678E+02  0.00000000000E+00 0.  1.
<mgrwt>
<rscale>  2 0.37394400E+02</rscale>
<asrwt>0</asrwt>
<pdfrwt beam="1">  1       21 0.15152781E-01 0.37394400E+02</pdfrwt>
<pdfrwt beam="2">  1       21 0.23016836E-02 0.37394400E+02</pdfrwt>
<totfact> 0.30874000E+07</totfact>
</mgrwt>
</event>
<event>
 4    1  0.7478314E+004  0.3480317E+02  0.7546771E-02  0.1550355E+00
         21   -1    0    0  501  502  0.00000000000E+00  0.00000000000E+00  0.18185703578E+02  0.18185703578E+02  0.00000000000E+00 0. -1.
         21   -1    0    0  502  503 -0.00000000000E+00 -0.00000000000E+00 -0.92104446133E+02  0.92104446133E+02  0.00000000000E+00 0. -1.
          4    1    1    2  501    0  0.99038885789E+01  0.33364256030E+02 -0.79438108992E+01  0.35698245349E+02  0.00000000000E+00 0. -1.
         -4    1    1    2    0  503 -0.99038885789E+01 -0.33364256030E+02 -0.65974931656E+02  0.74591904362E+02  0.00000000000E+00 0.  1.
<mgrwt>
<rscale>  2 0.34803169E+02</rscale>
<asrwt>0</asrwt>
<pdfrwt beam="1">  1       21 0.27978006E-02 0.34803169E+02</pdfrwt>
<pdfrwt beam="2">  1       21 0.14169915E-01 0.34803169E+02</pdfrwt>
<totfact> 0.25186800E+07</totfact>
</mgrwt>
</event>
<event>
 4    1  0.7478314E+004  0.2372664E+02  0.7546771E-02  0.1679995E+00
         21   -1    0    0  503  502  0.00000000000E+00  0.00000000000E+00  0.29471815138E+03  0.29471815138E+03  0.00000000000E+00 0. -1.
         21   -1    0    0  501  503 -0.00000000000E+00 -0.00000000000E+00 -0.29547171242E+01  0.29547171242E+01  0.00000000000E+00 0. -1.
          1    1    1    2  501    0 -0.13368093405E+01 -0.23688953400E+02  0.57386234050E+02  0.62097773156E+02  0.00000000000E+00 0. -1.
         -1    1    1    2    0  502  0.13368093405E+01  0.23688953400E+02  0.23437720020E+03  0.23557509534E+03  0.00000000000E+00 0.  1.
<mgrwt>
<rscale>  2 0.23726643E+02</rscale>
<asrwt>0</asrwt>
<pdfrwt beam="1">  1       21 0.45341231E-01 0.23726643E+02</pdfrwt>
<pdfrwt beam="2">  1       21 0.45457210E-03 0.23726643E+02</pdfrwt>
<totfact> 0.45028678E+07</totfact>
</mgrwt>
</event>
<event>
 4    1  0.7478314E+004  0.3081030E+02  0.7546771E-02  0.1589301E+00
         21   -1    0    0  501  502  0.00000000000E+00  0.00000000000E+00  0.17528742745E+03  0.17528742745E+03  0.00000000000E+00 0.  1.
         21   -1    0    0  502  503 -0.00000000000E+00 -0.00000000000E+00 -0.54561884407E+01  0.54561884407E+01  0.00000000000E+00 0.  1.
          3    1    1    2  501    0 -0.40930967202E+01 -0.30537213931E+02  0.92716556777E+02  0.97701764447E+02  0.00000000000E+00 0.  1.
         -3    1    1    2    0  503  0.40930967202E+01  0.30537213931E+02  0.77114682229E+02  0.83041851441E+02  0.00000000000E+00 0. -1.
<mgrwt>
<rscale>  2 0.30810305E+02</rscale>
<asrwt>0</asrwt>
<pdfrwt beam="1">  1       21 0.26967292E-01 0.30810305E+02</pdfrwt>
<pdfrwt beam="2">  1       21 0.83941374E-03 0.30810305E+02</pdfrwt>
<totfact> 0.50386312E+07</totfact>
</mgrwt>
</event>
<event>
 4    1  0.7478314E+004  0.2012267E+02  0.7546771E-02  0.1742900E+00
         21   -1    0    0  501  502  0.00000000000E+00  0.00000000000E+00  0.13472196562E+01  0.13472196562E+01  0.00000000000E+00 0. -1.
         21   -1    0    0  502  503 -0.00000000000E+00 -0.00000000000E+00 -0.34605783391E+03  0.34605783391E+03  0.00000000000E+00 0. -1.
          2    1    1    2  501    0 -0.16129426503E+02 -0.12031766168E+02 -0.23533811146E+03  0.23619684270E+03  0.00000000000E+00 0. -1.
         -2    1    1    2    0  503  0.16129426503E+02  0.12031766168E+02 -0.10937250280E+03  0.11120821087E+03  0.00000000000E+00 0.  1.
<mgrwt>
<rscale>  2 0.20122669E+02</rscale>
<asrwt>0</asrwt>
<pdfrwt beam="1">  1       21 0.20726432E-03 0.20122669E+02</pdfrwt>
<pdfrwt beam="2">  1       21 0.53239729E-01 0.20122669E+02</pdfrwt>
<totfact> 0.99312113E+07</totfact>
</mgrwt>
</event>
<event>
 4    1  0.7478314E+004  0.2421464E+02  0.7546771E-02  0.1672545E+00
         21   -1    0    0  503  502  0.00000000000E+00  0.00000000000E+00  0.48235116515E+02  0.48235116515E+02  0.00000000000E+00 0. -1.
         21   -1    0    0  501  503 -0.00000000000E+00 -0.00000000000E+00 -0.12188263520E+02  0.12188263520E+02  0.00000000000E+00 0. -1.
          3    1    1    2  501    0 -0.22142543519E+02 -0.98008472303E+01  0.16470417328E+02  0.29285209354E+02  0.00000000000E+00 0.  1.
         -3    1    1    2    0  502  0.22142543519E+02  0.98008472303E+01  0.19576435667E+02  0.31138170681E+02  0.00000000000E+00 0. -1.
<mgrwt>
<rscale>  2 0.24214641E+02</rscale>
<asrwt>0</asrwt>
<pdfrwt beam="1">  1       21 0.74207870E-02 0.24214641E+02</pdfrwt>
<pdfrwt beam="2">  1       21 0.18751175E-02 0.24214641E+02</pdfrwt>
<totfact> 0.12740672E+08</totfact>
</mgrwt>
</event>
<event>
 4    1  0.7478314E+004  0.2023857E+02  0.7546771E-02  0.1740625E+00
         21   -1    0    0  503  502  0.00000000000E+00  0.00000000000E+00  0.11949227115E+02  0.11949227115E+02  0.00000000000E+00 0. -1.
         21   -1    0    0  501  503 -0.00000000000E+00 -0.00000000000E+00 -0.34616672606E+02  0.34616672606E+02  0.00000000000E+00 0. -1.
          5    1    1    2  501    0  0.20208728263E+02 -0.10986483145E+01 -0.13635505026E+02  0.24403416225E+02  0.00000000000E+00 0. -1.
         -5    1    1    2    0  502 -0.20208728263E+02  0.10986483145E+01 -0.90319404653E+01  0.22162483496E+02  0.00000000000E+00 0.  1.
<mgrwt>
<rscale>  2 0.20238570E+02</rscale>
<asrwt>0</asrwt>
<pdfrwt beam="1">  1       21 0.18383426E-02 0.20238570E+02</pdfrwt>
<pdfrwt beam="2">  1       21 0.53256419E-02 0.20238570E+02</pdfrwt>
<totfact> 0.21179694E+08</totfact>
</mgrwt>
</event>
<event>
 4    1  0.7478314E+004  0.2588422E+02  0.7546771E-02  0.1648617E+00
         21   -1    0    0  503  502  0.00000000000E+00  0.00000000000E+00  0.11678072329E+04  0.11678072329E+04  0.00000000000E+00 0. -1.
         21   -1    0    0  501  503 -0.00000000000E+00 -0.00000000000E+00 -0.61349906388E+00  0.61349906388E+00  0.00000000000E+00 0. -1.
          2    1    1    2  501    0  0.16757170545E+01 -0.25829924653E+02  0.43483356661E+03  0.43560328704E+03  0.00000000000E+00 0.  1.
         -2    1    1    2    0  502 -0.16757170545E+01  0.25829924653E+02  0.73236016721E+03  0.73281744490E+03  0.00000000000E+00 0. -1.
<mgrwt>
<rscale>  2 0.25884224E+02</rscale>
<asrwt>0</asrwt>
<pdfrwt beam="1">  1       21 0.17966087E+00 0.25884224E+02</pdfrwt>
<pdfrwt beam="2">  1       21 0.94385406E-04 0.25884224E+02</pdfrwt>
<totfact> 0.22535033E+07</totfact>
</mgrwt>
</event>
<event>
 4    1  0.7478314E+004  0.2067211E+02  0.7546771E-02  0.1732283E+00
         21   -1    0    0  501  502  0.00000000000E+00  0.00000000000E+00  0.21214879317E+02  0.21214879317E+02  0.00000000000E+00 0.  1.
         21   -1    0    0  502  503 -0.00000000000E+00 -0.00000000000E+00 -0.20150661206E+02  0.20150661206E+02  0.00000000000E+00 0.  1.
          1    1    1    2  501    0  0.19187609046E+02  0.76923210715E+01  0.92935676175E+00  0.20692990319E+02  0.00000000000E+00 0. -1.
         -1    1    1    2    0  503 -0.19187609046E+02 -0.76923210715E+01  0.13486134918E+00  0.20672550204E+02  0.00000000000E+00 0.  1.
<mgrwt>
<rscale>  2 0.20672110E+02</rscale>
<asrwt>0</asrwt>
<pdfrwt beam="1">  1       21 0.32638276E-02 0.20672110E+02</pdfrwt>
<pdfrwt beam="2">  1       21 0.31001017E-02 0.20672110E+02</pdfrwt>
<totfact> 0.20617615E+08</totfact>
</mgrwt>
</event>
<event>
 4    1  0.7478314E+004  0.3251794E+02  0.7546771E-02  0.1571815E+00
         21   -1    0    0  501  502  0.00000000000E+00  0.00000000000E+00  0.41960061238E+01  0.41960061238E+01  0.00000000000E+00 0. -1.
         21   -1    0    0  502  503 -0.00000000000E+00 -0.00000000000E+00 -0.33063746841E+03  0.33063746841E+03  0.00000000000E+00 0. -1.
          5    1    1    2  501    0  0.27225521667E+02 -0.17781654742E+02 -0.24486442428E+03  0.24701417480E+03  0.00000000000E+00 0.  1.
         -5    1    1    2    0  503 -0.27225521667E+02  0.17781654742E+02 -0.81577038007E+02  0.87819299732E+02  0.00000000000E+00 0. -1.
<mgrwt>
<rscale>  2 0.32517938E+02</rscale>
<asrwt>0</asrwt>
<pdfrwt beam="1">  1       21 0.64553926E-03 0.32517938E+02</pdfrwt>
<pdfrwt beam="2">  1       21 0.50867314E-01 0.32517938E+02</pdfrwt>
<totfact> 0.22735003E+07</totfact>
</mgrwt>
</event>
<event>
 4    1  0.7478314E+004  0.2447737E+02  0.7546771E-02  0.1668624E+00
         21   -1    0    0  503  502  0.00000000000E+00  0.00000000000E+00  0.14329760229E+02  0.14329760229E+02  0.00000000000E+00 0.  1.
         21   -1    0    0  501  503 -0.00000000000E+00 -0.00000000000E+00 -0.54752795481E+02  0.54752795481E+02  0.00000000000E+00 0.  1.
          2    1    1    2  501    0  0.20313235657E+02  0.13657022970E+02 -0.34183637798E+01  0.24714915136E+02  0.00000000000E+00 0. -1.
         -2    1    1    2    0  502 -0.20313235657E+02 -0.13657022970E+02 -0.37004671473E+02  0.44367640574E+02  0.00000000000E+00 0.  1.
<mgrwt>
<rscale>  2 0.24477374E+02</rscale>
<asrwt>0</asrwt>
<pdfrwt beam="1">  1       21 0.22045785E-02 0.24477374E+02</pdfrwt>
<pdfrwt beam="2">  1       21 0.84235068E-02 0.24477374E+02</pdfrwt>
<totfact> 0.80983489E+07</totfact>
</mgrwt>
</event>
<event>
 4    1  0.7478314E+004  0.2557357E+02  0.7546771E-02  0.1652898E+00
         21   -1    0    0  503  502  0.00000000000E+00  0.00000000000E+00  0.68917385439E+02  0.68917385439E+02  0.00000000000E+00 0.  1.
         21   -1    0    0  501  503 -0.00000000000E+00 -0.00000000000E+00 -0.11211473333E+02  0.11211473333E+02  0.00000000000E+00 0.  1.
          5    1    1    2  501    0  0.13354412182E+02  0.21809799657E+02  0.13152536314E+02  0.28757553743E+02  0.00000000000E+00 0.  1.
         -5    1    1    2    0  502 -0.13354412182E+02 -0.21809799657E+02  0.44553375793E+02  0.51371305029E+02  0.00000000000E+00 0. -1.
<mgrwt>
<rscale>  2 0.25573574E+02</rscale>
<asrwt>0</asrwt>
<pdfrwt beam="1">  1       21 0.10602674E-01 0.25573574E+02</pdfrwt>
<pdfrwt beam="2">  1       21 0.17248421E-02 0.25573574E+02</pdfrwt>
<totfact> 0.81635967E+07</totfact>
</mgrwt>
</event>
<event>
 4    1  0.7478314E+004  0.2380697E+02  0.7546771E-02  0.1678754E+00
         21   -1    0    0  503  502  0.00000000000E+00  0.00000000000E+00  0.12306882642E+01  0.12306882642E+01  0.00000000000E+00 0.  1.
         21   -1    0    0  501  503 -0.00000000000E+00 -0.00000000000E+00 -0.49445327832E+03  0.49445327832E+03  0.00000000000E+00 0.  1.
          1    1    1    2  501    0  0.95586831423E+01  0.21803744529E+02 -0.18169609202E+03  0.18324912429E+03  0.00000000000E+00 0. -1.
         -1    1    1    2    0  502 -0.95586831423E+01 -0.21803744529E+02 -0.31152649804E+03  0.31243484229E+03  0.00000000000E+00 0.  1.
<mgrwt>
<rscale>  2 0.23806967E+02</rscale>
<asrwt>0</asrwt>
<pdfrwt beam="1">  1       21 0.18933648E-03 0.23806967E+02</pdfrwt>
<pdfrwt beam="2">  1       21 0.76069804E-01 0.23806967E+02</pdfrwt>
<totfact> 0.57498331E+07</totfact>
</mgrwt>
</event>
<event>
 4    1  0.7478314E+004  0.2823112E+02  0.7546771E-02  0.1618507E+00
         21   -1    0    0  503  502  0.00000000000E+00  0.00000000000E+00  0.62062615263E+02  0.62062615263E+02  0.00000000000E+00 0.  1.
         21   -1    0    0  501  503 -0.00000000000E+00 -0.00000000000E+00 -0.16346688860E+02  0.16346688860E+02  0.00000000000E+00 0.  1.
          2    1    1    2  501    0  0.28063980922E+02  0.30673955348E+01  0.41011430356E+02  0.49788887921E+02  0.00000000000E+00 0.  1.
         -2    1    1    2    0  502 -0.28063980922E+02 -0.30673955348E+01  0.47044960476E+01  0.28620416202E+02  0.00000000000E+00 0. -1.
<mgrwt>
<rscale>  2 0.28231117E+02</rscale>
<asrwt>0</asrwt>
<pdfrwt beam="1">  1       21 0.95480946E-02 0.28231117E+02</pdfrwt>
<pdfrwt beam="2">  1       21 0.25148752E-02 0.28231117E+02</pdfrwt>
<totfact> 0.55605794E+07</totfact>
</mgrwt>
</event>
<event>
 4    1  0.7478314E+004  0.2710540E+02  0.7546771E-02  0.1632481E+00
         21   -1    0    0  503  502  0.00000000000E+00  0.00000000000E+00  0.10222127334E+04  0.10222127334E+04  0.00000000000E+00 0. -1.
         21   -1    0    0  501  503 -0.00000000000E+00 -0.00000000000E+00 -0.78047870395E+00  0.78047870395E+00  0.00000000000E+00 0. -1.
          1    1    1    2  501    0 -0.26860113995E+02  0.36382741703E+01  0.36685306565E+03  0.36785306108E+03  0.00000000000E+00 0. -1.
         -1    1    1    2    0  502  0.26860113995E+02 -0.36382741703E+01  0.65457918904E+03  0.65514015103E+03  0.00000000000E+00 0.  1.
<mgrwt>
<rscale>  2 0.27105401E+02</rscale>
<asrwt>0</asrwt>
<pdfrwt beam="1">  1       21 0.15726243E+00 0.27105401E+02</pdfrwt>
<pdfrwt beam="2">  1       21 0.12007446E-03 0.27105401E+02</pdfrwt>
<totfact> 0.22319464E+07</totfact>
</mgrwt>
</event>
<event>
 4    1  0.7478314E+004  0.4739005E+02  0.7546771E-02  0.1459950E+00
         21   -1    0    0  501  502  0.00000000000E+00  0.00000000000E+00  0.12124321944E+01  0.12124321944E+01  0.00000000000E+00 0.  1.
         21   -1    0    0  502  503 -0.00000000000E+00 -0.00000000000E+00 -0.19000091742E+04  0.19000091742E+04  0.00000000000E+00 0.  1.
          3    1    1    2  501    0 -0.47244004588E+02  0.37176753758E+01 -0.10999956864E+04  0.11010160431E+04  0.00000000000E+00 0.  1.
         -3    1    1    2    0  503  0.47244004588E+02 -0.37176753758E+01 -0.79880105556E+03  0.80020556324E+03  0.00000000000E+00 0. -1.
<mgrwt>
<rscale>  2 0.47390053E+02</rscale>
<asrwt>0</asrwt>
<pdfrwt beam="1">  1       21 0.18652719E-03 0.47390053E+02</pdfrwt>
<pdfrwt beam="2">  1       21 0.29231042E+00 0.47390053E+02</pdfrwt>
<totfact> 0.21177466E+06</totfact>
</mgrwt>
</event>
<event>
 4    1  0.7478314E+004  0.3615634E+02  0.7546771E-02  0.1538565E+00
         21   -1    0    0  503  502  0.00000000000E+00  0.00000000000E+00  0.10799141216E+04  0.10799141216E+04  0.00000000000E+00 0. -1.
         21   -1    0    0  501  503 -0.00000000000E+00 -0.00000000000E+00 -0.14577682371E+01  0.14577682371E+01  0.00000000000E+00 0. -1.
          3    1    1    2  501    0 -0.10461506406E+02  0.34609788723E+02  0.76189154567E+03  0.76274898095E+03  0.00000000000E+00 0.  1.
         -3    1    1    2    0  502  0.10461506406E+02 -0.34609788723E+02  0.31656480766E+03  0.31862290885E+03  0.00000000000E+00 0. -1.
<mgrwt>
<rscale>  2 0.36156335E+02</rscale>
<asrwt>0</asrwt>
<pdfrwt beam="1">  1       21 0.16613999E+00 0.36156335E+02</pdfrwt>
<pdfrwt beam="2">  1       21 0.22427290E-03 0.36156335E+02</pdfrwt>
<totfact> 0.81430688E+06</totfact>
</mgrwt>
</event>
<event>
 4    1  0.7478314E+004  0.2018200E+02  0.7546771E-02  0.1741733E+00
         21   -1    0    0  503  502  0.00000000000E+00  0.00000000000E+00  0.65554422282E+01  0.65554422282E+01  0.00000000000E+00 0.  1.
         21   -1    0    0  501  503 -0.00000000000E+00 -0.00000000000E+00 -0.68877890375E+02  0.68877890375E+02  0.00000000000E+00 0.  1.
          5    1    1    2  501    0 -0.21071742668E+01  0.20071694922E+02 -0.19359049724E+02  0.27965799231E+02  0.00000000000E+00 0. -1.
         -5    1    1    2    0  502  0.21071742668E+01 -0.20071694922E+02 -0.42963398423E+02  0.47467533372E+02  0.00000000000E+00 0.  1.
<mgrwt>
<rscale>  2 0.20182000E+02</rscale>
<asrwt>0</asrwt>
<pdfrwt beam="1">  1       21 0.10085296E-02 0.20182000E+02</pdfrwt>
<pdfrwt beam="2">  1       21 0.10596598E-01 0.20182000E+02</pdfrwt>
<totfact> 0.17194093E+08</totfact>
</mgrwt>
</event>
<event>
 4    1  0.7478314E+004  0.2054392E+02  0.7546771E-02  0.1734723E+00
         21   -1    0    0  503  502  0.00000000000E+00  0.00000000000E+00  0.10641141234E+03  0.10641141234E+03  0.00000000000E+00 0.  1.
         21   -1    0    0  501  503 -0.00000000000E+00 -0.00000000000E+00 -0.40144070571E+01  0.40144070571E+01  0.00000000000E+00 0.  1.
          2    1    1    2  501    0  0.15065079184E+02 -0.13967684767E+02  0.57246627200E+02  0.60821288661E+02  0.00000000000E+00 0. -1.
         -2    1    1    2    0  502 -0.15065079184E+02  0.13967684767E+02  0.45150378083E+02  0.49604530737E+02  0.00000000000E+00 0.  1.
<mgrwt>
<rscale>  2 0.20543924E+02</rscale>
<asrwt>0</asrwt>
<pdfrwt beam="1">  1       21 0.16370984E-01 0.20543924E+02</pdfrwt>
<pdfrwt beam="2">  1       21 0.61760117E-03 0.20543924E+02</pdfrwt>
<totfact> 0.17272113E+08</totfact>
</mgrwt>
</event>
<event>
 4    1  0.7478314E+004  0.2490465E+02  0.7546771E-02  0.1662375E+00
         21   -1    0    0  501  502  0.00000000000E+00  0.00000000000E+00  0.28612533598E+03  0.28612533598E+03  0.00000000000E+00 0. -1.
         21   -1    0    0  502  503 -0.00000000000E+00 -0.00000000000E+00 -0.27864045156E+01  0.27864045156E+01  0.00000000000E+00 0. -1.
          1    1    1    2  501    0 -0.12415084291E+02 -0.21589512116E+02  0.20973787534E+03  0.21121131055E+03  0.00000000000E+00 0. -1.
         -1    1    1    2    0  503  0.12415084291E+02  0.21589512116E+02  0.73601056122E+02  0.77700429945E+02  0.00000000000E+00 0.  1.
<mgrwt>
<rscale>  2 0.24904645E+02</rscale>
<asrwt>0</asrwt>
<pdfrwt beam="1">  1       21 0.44019259E-01 0.24904645E+02</pdfrwt>
<pdfrwt beam="2">  1       21 0.42867784E-03 0.24904645E+02</pdfrwt>
<totfact> 0.52537664E+07</totfact>
</mgrwt>
</event>
<event>
 4    1  0.7478314E+004  0.2676915E+02  0.7546771E-02  0.1636818E+00
         21   -1    0    0  503  502  0.00000000000E+00  0.00000000000E+00  0.62595547666E+03  0.62595547666E+03  0.00000000000E+00 0. -1.
         21   -1    0    0  501  503 -0.00000000000E+00 -0.00000000000E+00 -0.11456108264E+01  0.11456108264E+01  0.00000000000E+00 0. -1.
          5    1    1    2  501    0 -0.25811573093E+02 -0.70957639541E+01  0.32080113761E+03  0.32191607145E+03  0.00000000000E+00 0.  1.
         -5    1    1    2    0  502  0.25811573093E+02  0.70957639541E+01  0.30400872823E+03  0.30518501603E+03  0.00000000000E+00 0. -1.
<mgrwt>
<rscale>  2 0.26769146E+02</rscale>
<asrwt>0</asrwt>
<pdfrwt beam="1">  1       21 0.96300569E-01 0.26769146E+02</pdfrwt>
<pdfrwt beam="2">  1       21 0.17624832E-03 0.26769146E+02</pdfrwt>
<totfact> 0.39525807E+07</totfact>
</mgrwt>
</event>
<event>
 4    1  0.7478314E+004  0.2254528E+02  0.7546771E-02  0.1698989E+00
         21   -1    0    0  503  502  0.00000000000E+00  0.00000000000E+00  0.98808291777E+03  0.98808291777E+03  0.00000000000E+00 0.  1.
         21   -1    0    0  501  503 -0.00000000000E+00 -0.00000000000E+00 -0.56685122285E+00  0.56685122285E+00  0.00000000000E+00 0.  1.
          1    1    1    2  501    0  0.18851628727E+02  0.12365497456E+02  0.64409773494E+03  0.64449218893E+03  0.00000000000E+00 0.  1.
         -1    1    1    2    0  502 -0.18851628727E+02 -0.12365497456E+02  0.34341833161E+03  0.34415758007E+03  0.00000000000E+00 0. -1.
<mgrwt>
<rscale>  2 0.22545275E+02</rscale>
<asrwt>0</asrwt>
<pdfrwt beam="1">  1       21 0.15201138E+00 0.22545275E+02</pdfrwt>
<pdfrwt beam="2">  1       21 0.87208671E-04 0.22545275E+02</pdfrwt>
<totfact> 0.37045885E+07</totfact>
</mgrwt>
</event>
<event>
 4    1  0.7478314E+004  0.2020533E+02  0.7546771E-02  0.1741275E+00
         21   -1    0    0  503  502  0.00000000000E+00  0.00000000000E+00  0.15235111398E+01  0.15235111398E+01  0.00000000000E+00 0.  1.
         21   -1    0    0  501  503 -0.00000000000E+00 -0.00000000000E+00 -0.28230849458E+03  0.28230849458E+03  0.00000000000E+00 0.  1.
          3    1    1    2  501    0 -0.13591109656E+02  0.14951158325E+02 -0.10840943159E+03  0.11027629053E+03  0.00000000000E+00 0.  1.
         -3    1    1    2    0  502  0.13591109656E+02 -0.14951158325E+02 -0.17237555186E+03  0.17355571519E+03  0.00000000000E+00 0. -1.
<mgrwt>
<rscale>  2 0.20205331E+02</rscale>
<asrwt>0</asrwt>
<pdfrwt beam="1">  1       21 0.23438639E-03 0.20205331E+02</pdfrwt>
<pdfrwt beam="2">  1       21 0.43432065E-01 0.20205331E+02</pdfrwt>
<totfact> 0.12317300E+08</totfact>
</mgrwt>
</event>
<event>
 4    1  0.7478314E+004  0.2540666E+02  0.7546771E-02  0.1655229E+00
         21   -1    0    0  503  502  0.00000000000E+00  0.00000000000E+00  0.30917732864E+03  0.30917732864E+03  0.00000000000E+00 0.  1.
         21   -1    0    0  501  503 -0.00000000000E+00 -0.00000000000E+00 -0.24764401051E+01  0.24764401051E+01  0.00000000000E+00 0.  1.
          5    1    1    2  501    0  0.17803221354E+02 -0.18125778112E+02  0.21508178669E+03  0.21657717675E+03  0.00000000000E+00 0.  1.
         -5    1    1    2    0  502 -0.17803221354E+02  0.18125778112E+02  0.91619101849E+02  0.95076592001E+02  0.00000000000E+00 0. -1.
<mgrwt>
<rscale>  2 0.25406663E+02</rscale>
<asrwt>0</asrwt>
<pdfrwt beam="1">  1       21 0.47565712E-01 0.25406663E+02</pdfrwt>
<pdfrwt beam="2">  1       21 0.38099103E-03 0.25406663E+02</pdfrwt>
<totfact> 0.54067858E+07</totfact>
</mgrwt>
</event>
<event>
 4    1  0.7478314E+004  0.2086335E+02  0.7546771E-02  0.1728685E+00
         21   -1    0    0  501  502  0.00000000000E+00  0.00000000000E+00  0.13571845616E+02  0.13571845616E+02  0.00000000000E+00 0.  1.
         21   -1    0    0  502  503 -0.00000000000E+00 -0.00000000000E+00 -0.35974517563E+02  0.35974517563E+02  0.00000000000E+00 0.  1.
          2    1    1    2  501    0  0.12165158507E+02  0.16949585774E+02 -0.19360453184E+02  0.28462373177E+02  0.00000000000E+00 0.  1.
         -2    1    1    2    0  503 -0.12165158507E+02 -0.16949585774E+02 -0.30422187636E+01  0.21083990002E+02  0.00000000000E+00 0. -1.
<mgrwt>
<rscale>  2 0.20863354E+02</rscale>
<asrwt>0</asrwt>
<pdfrwt beam="1">  1       21 0.20879762E-02 0.20863354E+02</pdfrwt>
<pdfrwt beam="2">  1       21 0.55345412E-02 0.20863354E+02</pdfrwt>
<totfact> 0.16562621E+08</totfact>
</mgrwt>
</event>
<event>
 4    1  0.7478314E+004  0.2254331E+02  0.7546771E-02  0.1699022E+00
         21   -1    0    0  503  502  0.00000000000E+00  0.00000000000E+00  0.15135651349E+01  0.15135651349E+01  0.00000000000E+00 0. -1.
         21   -1    0    0  501  503 -0.00000000000E+00 -0.00000000000E+00 -0.39123092833E+03  0.39123092833E+03  0.00000000000E+00 0. -1.
          5    1    1    2  501    0 -0.21545836563E+02  0.66315636606E+01 -0.26879886273E+03  0.26974252411E+03  0.00000000000E+00 0. -1.
         -5    1    1    2    0  502  0.21545836563E+02 -0.66315636606E+01 -0.12091850046E+03  0.12300196935E+03  0.00000000000E+00 0.  1.
<mgrwt>
<rscale>  2 0.22543307E+02</rscale>
<asrwt>0</asrwt>
<pdfrwt beam="1">  1       21 0.23285601E-03 0.22543307E+02</pdfrwt>
<pdfrwt beam="2">  1       21 0.60189417E-01 0.22543307E+02</pdfrwt>
<totfact> 0.67855956E+07</totfact>
</mgrwt>
</event>
<event>
 4    1  0.7478314E+004  0.2888768E+02  0.7546771E-02  0.1610720E+00
         21   -1    0    0  503  502  0.00000000000E+00  0.00000000000E+00  0.14425901116E+03  0.14425901116E+03  0.00000000000E+00 0. -1.
         21   -1    0    0  501  503 -0.00000000000E+00 -0.00000000000E+00 -0.59540095829E+01  0.59540095829E+01  0.00000000000E+00 0. -1.
          2    1    1    2  501    0  0.12748200329E+02  0.25922599761E+02  0.81817048624E+02  0.86767086130E+02  0.00000000000E+00 0.  1.
         -2    1    1    2    0  502 -0.12748200329E+02 -0.25922599761E+02  0.56487952950E+02  0.63445934610E+02  0.00000000000E+00 0. -1.
<mgrwt>
<rscale>  2 0.28887675E+02</rscale>
<asrwt>0</asrwt>
<pdfrwt beam="1">  1       21 0.22193691E-01 0.28887675E+02</pdfrwt>
<pdfrwt beam="2">  1       21 0.91600159E-03 0.28887675E+02</pdfrwt>
<totfact> 0.61829771E+07</totfact>
</mgrwt>
</event>
<event>
 4    1  0.7478314E+004  0.4121932E+02  0.7546771E-02  0.1499426E+00
         21   -1    0    0  503  502  0.00000000000E+00  0.00000000000E+00  0.94186757820E+01  0.94186757820E+01  0.00000000000E+00 0. -1.
         21   -1    0    0  501  503 -0.00000000000E+00 -0.00000000000E+00 -0.18060748171E+03  0.18060748171E+03  0.00000000000E+00 0. -1.
          1    1    1    2  501    0 -0.67507460272E+01  0.40662759765E+02 -0.82295475535E+02  0.92041175010E+02  0.00000000000E+00 0.  1.
         -1    1    1    2    0  502  0.67507460272E+01 -0.40662759765E+02 -0.88893330394E+02  0.97984982483E+02  0.00000000000E+00 0. -1.
<mgrwt>
<rscale>  2 0.41219323E+02</rscale>
<asrwt>0</asrwt>
<pdfrwt beam="1">  1       21 0.14490270E-02 0.41219323E+02</pdfrwt>
<pdfrwt beam="2">  1       21 0.27785767E-01 0.41219323E+02</pdfrwt>
<totfact> 0.21825209E+07</totfact>
</mgrwt>
</event>
<event>
 4    1  0.7478314E+004  0.2550946E+02  0.7546771E-02  0.1653790E+00
         21   -1    0    0  503  502  0.00000000000E+00  0.00000000000E+00  0.28183286019E+03  0.28183286019E+03  0.00000000000E+00 0.  1.
         21   -1    0    0  501  503 -0.00000000000E+00 -0.00000000000E+00 -0.29381546960E+01  0.29381546960E+01  0.00000000000E+00 0.  1.
          5    1    1    2  501    0  0.25508744156E+02 -0.19052587117E+00  0.20533915090E+03  0.20691761458E+03  0.00000000000E+00 0. -1.
         -5    1    1    2    0  502 -0.25508744156E+02  0.19052587117E+00  0.73555554588E+02  0.77853400306E+02  0.00000000000E+00 0.  1.
<mgrwt>
<rscale>  2 0.25509456E+02</rscale>
<asrwt>0</asrwt>
<pdfrwt beam="1">  1       21 0.43358880E-01 0.25509456E+02</pdfrwt>
<pdfrwt beam="2">  1       21 0.45202402E-03 0.25509456E+02</pdfrwt>
<totfact> 0.50279817E+07</totfact>
</mgrwt>
</event>
<event>
 4    1  0.7478314E+004  0.2142851E+02  0.7546771E-02  0.1718327E+00
         21   -1    0    0  501  502  0.00000000000E+00  0.00000000000E+00  0.12510638438E+02  0.12510638438E+02  0.00000000000E+00 0. -1.
         21   -1    0    0  502  503 -0.00000000000E+00 -0.00000000000E+00 -0.41524326645E+02  0.41524326645E+02  0.00000000000E+00 0. -1.
          2    1    1    2  501    0 -0.88275272509E+01 -0.19525775865E+02 -0.53009633495E+01  0.22074450683E+02  0.00000000000E+00 0. -1.
         -2    1    1    2    0  503  0.88275272509E+01  0.19525775865E+02 -0.23712724858E+02  0.31960514400E+02  0.00000000000E+00 0.  1.
<mgrwt>
<rscale>  2 0.21428513E+02</rscale>
<asrwt>0</asrwt>
<pdfrwt beam="1">  1       21 0.19247136E-02 0.21428513E+02</pdfrwt>
<pdfrwt beam="2">  1       21 0.63883579E-02 0.21428513E+02</pdfrwt>
<totfact> 0.15035778E+08</totfact>
</mgrwt>
</event>
<event>
 4    1  0.7478314E+004  0.2460470E+02  0.7546771E-02  0.1666746E+00
         21   -1    0    0  503  502  0.00000000000E+00  0.00000000000E+00  0.79683433490E+02  0.79683433490E+02  0.00000000000E+00 0.  1.
         21   -1    0    0  501  503 -0.00000000000E+00 -0.00000000000E+00 -0.79154302379E+01  0.79154302379E+01  0.00000000000E+00 0.  1.
          3    1    1    2  501    0 -0.19532602567E+02 -0.14962238022E+02  0.44662683802E+02  0.50991631216E+02  0.00000000000E+00 0.  1.
         -3    1    1    2    0  502  0.19532602567E+02  0.14962238022E+02  0.27105319450E+02  0.36607232512E+02  0.00000000000E+00 0. -1.
<mgrwt>
<rscale>  2 0.24604697E+02</rscale>
<asrwt>0</asrwt>
<pdfrwt beam="1">  1       21 0.12258989E-01 0.24604697E+02</pdfrwt>
<pdfrwt beam="2">  1       21 0.12177586E-02 0.24604697E+02</pdfrwt>
<totfact> 0.10771049E+08</totfact>
</mgrwt>
</event>
<event>
 4    1  0.7478314E+004  0.2691535E+02  0.7546771E-02  0.1634923E+00
         21   -1    0    0  503  502  0.00000000000E+00  0.00000000000E+00  0.91897750811E+00  0.91897750811E+00  0.00000000000E+00 0. -1.
         21   -1    0    0  501  503 -0.00000000000E+00 -0.00000000000E+00 -0.79260065847E+03  0.79260065847E+03  0.00000000000E+00 0. -1.
          3    1    1    2  501    0  0.18585129531E+02  0.19468666605E+02 -0.36663731267E+03  0.36762393157E+03  0.00000000000E+00 0.  1.
         -3    1    1    2    0  502 -0.18585129531E+02 -0.19468666605E+02 -0.42504436829E+03  0.42589570441E+03  0.00000000000E+00 0. -1.
<mgrwt>
<rscale>  2 0.26915349E+02</rscale>
<asrwt>0</asrwt>
<pdfrwt beam="1">  1       21 0.14138137E-03 0.26915349E+02</pdfrwt>
<pdfrwt beam="2">  1       21 0.12193837E+00 0.26915349E+02</pdfrwt>
<totfact> 0.32072948E+07</totfact>
</mgrwt>
</event>
<event>
 4    1  0.7478314E+004  0.2864691E+02  0.7546771E-02  0.1613546E+00
         21   -1    0    0  503  502  0.00000000000E+00  0.00000000000E+00  0.85736686818E+01  0.85736686818E+01  0.00000000000E+00 0.  1.
         21   -1    0    0  501  503 -0.00000000000E+00 -0.00000000000E+00 -0.16349136660E+03  0.16349136660E+03  0.00000000000E+00 0.  1.
          2    1    1    2  501    0 -0.18238421093E+01  0.28588788492E+02 -0.13285099418E+03  0.13590449544E+03  0.00000000000E+00 0.  1.
         -2    1    1    2    0  502  0.18238421093E+01 -0.28588788492E+02 -0.22066703740E+02  0.36160539839E+02  0.00000000000E+00 0. -1.
<mgrwt>
<rscale>  2 0.28646906E+02</rscale>
<asrwt>0</asrwt>
<pdfrwt beam="1">  1       21 0.13190261E-02 0.28646906E+02</pdfrwt>
<pdfrwt beam="2">  1       21 0.25152516E-01 0.28646906E+02</pdfrwt>
<totfact> 0.28367141E+07</totfact>
</mgrwt>
</event>
<event>
 4    1  0.7478314E+004  0.2531436E+02  0.7546771E-02  0.1656527E+00
         21   -1    0    0  501  502  0.00000000000E+00  0.00000000000E+00  0.45619214044E+03  0.45619214044E+03  0.00000000000E+00 0.  1.
         21   -1    0    0  502  503 -0.00000000000E+00 -0.00000000000E+00 -0.16109829898E+01  0.16109829898E+01  0.00000000000E+00 0.  1.
          2    1    1    2  501    0 -0.23098917865E+01  0.25208750771E+02  0.30919863940E+03  0.31023316284E+03  0.00000000000E+00 0. -1.
         -2    1    1    2    0  503  0.23098917865E+01 -0.25208750771E+02  0.14538251805E+03  0.14756996060E+03  0.00000000000E+00 0.  1.
<mgrwt>
<rscale>  2 0.25314358E+02</rscale>
<asrwt>0</asrwt>
<pdfrwt beam="1">  1       21 0.70183304E-01 0.25314358E+02</pdfrwt>
<pdfrwt beam="2">  1       21 0.24784390E-03 0.25314358E+02</pdfrwt>
<totfact> 0.46603753E+07</totfact>
</mgrwt>
</event>
<event>
 4    1  0.7478314E+004  0.3586659E+02  0.7546771E-02  0.1541037E+00
         21   -1    0    0  503  502  0.00000000000E+00  0.00000000000E+00  0.12153398763E+03  0.12153398763E+03  0.00000000000E+00 0.  1.
         21   -1    0    0  501  503 -0.00000000000E+00 -0.00000000000E+00 -0.11175037677E+02  0.11175037677E+02  0.00000000000E+00 0.  1.
          3    1    1    2  501    0 -0.27480689599E+02 -0.23048294470E+02  0.39929758430E+02  0.53673063888E+02  0.00000000000E+00 0. -1.
         -3    1    1    2    0  502  0.27480689599E+02  0.23048294470E+02  0.70429191527E+02  0.79035961422E+02  0.00000000000E+00 0.  1.
<mgrwt>
<rscale>  2 0.35866589E+02</rscale>
<asrwt>0</asrwt>
<pdfrwt beam="1">  1       21 0.18697536E-01 0.35866589E+02</pdfrwt>
<pdfrwt beam="2">  1       21 0.17192367E-02 0.35866589E+02</pdfrwt>
<totfact> 0.33428977E+07</totfact>
</mgrwt>
</event>
<event>
 4    1  0.7478314E+004  0.2633423E+02  0.7546771E-02  0.1642546E+00
         21   -1    0    0  501  502  0.00000000000E+00  0.00000000000E+00  0.59854517715E+00  0.59854517715E+00  0.00000000000E+00 0.  1.
         21   -1    0    0  502  503 -0.00000000000E+00 -0.00000000000E+00 -0.13770525330E+04  0.13770525330E+04  0.00000000000E+00 0.  1.
          3    1    1    2  501    0 -0.24795793442E+02  0.88690718208E+01 -0.41389043414E+03  0.41472736017E+03  0.00000000000E+00 0.  1.
         -3    1    1    2    0  503  0.24795793442E+02 -0.88690718208E+01 -0.96256355371E+03  0.96292371803E+03  0.00000000000E+00 0. -1.
<mgrwt>
<rscale>  2 0.26334233E+02</rscale>
<asrwt>0</asrwt>
<pdfrwt beam="1">  1       21 0.92083429E-04 0.26334233E+02</pdfrwt>
<pdfrwt beam="2">  1       21 0.21185526E+00 0.26334233E+02</pdfrwt>
<totfact> 0.15285689E+07</totfact>
</mgrwt>
</event>
<event>
 4    1  0.7478314E+004  0.2580000E+02  0.7546771E-02  0.1649770E+00
         21   -1    0    0  501  502  0.00000000000E+00  0.00000000000E+00  0.18445999098E+03  0.18445999098E+03  0.00000000000E+00 0.  1.
         21   -1    0    0  502  503 -0.00000000000E+00 -0.00000000000E+00 -0.37449071703E+01  0.37449071703E+01  0.00000000000E+00 0.  1.
          3    1    1    2  501    0 -0.25793049481E+02 -0.59867470390E+00  0.10831155054E+03  0.11134195881E+03  0.00000000000E+00 0. -1.
         -3    1    1    2    0  503  0.25793049481E+02  0.59867470390E+00  0.72403533272E+02  0.76862939335E+02  0.00000000000E+00 0.  1.
<mgrwt>
<rscale>  2 0.25799996E+02</rscale>
<asrwt>0</asrwt>
<pdfrwt beam="1">  1       21 0.28378453E-01 0.25799996E+02</pdfrwt>
<pdfrwt beam="2">  1       21 0.57613971E-03 0.25799996E+02</pdfrwt>
<totfact> 0.77512350E+07</totfact>
</mgrwt>
</event>
<event>
 4    1  0.7478314E+004  0.2123961E+02  0.7546771E-02  0.1721744E+00
         21   -1    0    0  501  502  0.00000000000E+00  0.00000000000E+00  0.14502330136E+02  0.14502330136E+02  0.00000000000E+00 0. -1.
         21   -1    0    0  502  503 -0.00000000000E+00 -0.00000000000E+00 -0.43896169631E+02  0.43896169631E+02  0.00000000000E+00 0. -1.
          3    1    1    2  501    0  0.13619883571E+02 -0.16297841177E+02  0.10640602575E+01  0.21266242727E+02  0.00000000000E+00 0.  1.
         -3    1    1    2    0  503 -0.13619883571E+02  0.16297841177E+02 -0.30457899753E+02  0.37132257040E+02  0.00000000000E+00 0. -1.
<mgrwt>
<rscale>  2 0.21239606E+02</rscale>
<asrwt>0</asrwt>
<pdfrwt beam="1">  1       21 0.22311278E-02 0.21239606E+02</pdfrwt>
<pdfrwt beam="2">  1       21 0.67532566E-02 0.21239606E+02</pdfrwt>
<totfact> 0.10936152E+08</totfact>
</mgrwt>
</event>
<event>
 4    1  0.7478314E+004  0.2798896E+02  0.7546771E-02  0.1621445E+00
         21   -1    0    0  501  502  0.00000000000E+00  0.00000000000E+00  0.33199251441E+03  0.33199251441E+03  0.00000000000E+00 0. -1.
         21   -1    0    0  502  503 -0.00000000000E+00 -0.00000000000E+00 -0.24186904354E+01  0.24186904354E+01  0.00000000000E+00 0. -1.
          3    1    1    2  501    0 -0.17603914816E+02  0.21759694525E+02  0.19091333297E+03  0.19295409513E+03  0.00000000000E+00 0. -1.
         -3    1    1    2    0  503  0.17603914816E+02 -0.21759694525E+02  0.13866049101E+03  0.14145710971E+03  0.00000000000E+00 0.  1.
<mgrwt>
<rscale>  2 0.27988964E+02</rscale>
<asrwt>0</asrwt>
<pdfrwt beam="1">  1       21 0.51075735E-01 0.27988964E+02</pdfrwt>
<pdfrwt beam="2">  1       21 0.37210648E-03 0.27988964E+02</pdfrwt>
<totfact> 0.49747806E+07</totfact>
</mgrwt>
</event>
<event>
 4    1  0.7478314E+004  0.2044840E+02  0.7546771E-02  0.1736555E+00
         21   -1    0    0  503  502  0.00000000000E+00  0.00000000000E+00  0.46415359461E+01  0.46415359461E+01  0.00000000000E+00 0. -1.
         21   -1    0    0  501  503 -0.00000000000E+00 -0.00000000000E+00 -0.10152239895E+03  0.10152239895E+03  0.00000000000E+00 0. -1.
          1    1    1    2  501    0  0.14208062391E+02 -0.14706054845E+02 -0.30624356263E+02  0.36823746177E+02  0.00000000000E+00 0. -1.
         -1    1    1    2    0  502 -0.14208062391E+02  0.14706054845E+02 -0.66256506739E+02  0.69340188716E+02  0.00000000000E+00 0.  1.
<mgrwt>
<rscale>  2 0.20448401E+02</rscale>
<asrwt>0</asrwt>
<pdfrwt beam="1">  1       21 0.71408242E-03 0.20448401E+02</pdfrwt>
<pdfrwt beam="2">  1       21 0.15618831E-01 0.20448401E+02</pdfrwt>
<totfact> 0.15074544E+08</totfact>
</mgrwt>
</event>
<event>
 4    1  0.7478314E+004  0.2183874E+02  0.7546771E-02  0.1711056E+00
         21   -1    0    0  501  502  0.00000000000E+00  0.00000000000E+00  0.19183944190E+03  0.19183944190E+03  0.00000000000E+00 0.  1.
         21   -1    0    0  502  503 -0.00000000000E+00 -0.00000000000E+00 -0.29995568758E+01  0.29995568758E+01  0.00000000000E+00 0.  1.
          1    1    1    2  501    0  0.21499600674E+02 -0.38337598718E+01  0.54113671532E+02  0.58354262831E+02  0.00000000000E+00 0.  1.
         -1    1    1    2    0  503 -0.21499600674E+02  0.38337598718E+01  0.13472621349E+03  0.13648473594E+03  0.00000000000E+00 0. -1.
<mgrwt>
<rscale>  2 0.21838740E+02</rscale>
<asrwt>0</asrwt>
<pdfrwt beam="1">  1       21 0.29513751E-01 0.21838740E+02</pdfrwt>
<pdfrwt beam="2">  1       21 0.46147044E-03 0.21838740E+02</pdfrwt>
<totfact> 0.95974208E+07</totfact>
</mgrwt>
</event>
<event>
 4    1  0.7478314E+004  0.3122954E+02  0.7546771E-02  0.1584882E+00
         21   -1    0    0  503  502  0.00000000000E+00  0.00000000000E+00  0.35727414562E+03  0.35727414562E+03  0.00000000000E+00 0. -1.
         21   -1    0    0  501  503 -0.00000000000E+00 -0.00000000000E+00 -0.28360857052E+01  0.28360857052E+01  0.00000000000E+00 0. -1.
          3    1    1    2  501    0  0.31225750289E+02  0.48662316492E+00  0.21207671493E+03  0.21436374997E+03  0.00000000000E+00 0. -1.
         -3    1    1    2    0  502 -0.31225750289E+02 -0.48662316492E+00  0.14236134498E+03  0.14574648136E+03  0.00000000000E+00 0.  1.
<mgrwt>
<rscale>  2 0.31229542E+02</rscale>
<asrwt>0</asrwt>
<pdfrwt beam="1">  1       21 0.54965218E-01 0.31229542E+02</pdfrwt>
<pdfrwt beam="2">  1       21 0.43632116E-03 0.31229542E+02</pdfrwt>
<totfact> 0.34730744E+07</totfact>
</mgrwt>
</event>
<event>
 4    1  0.7478314E+004  0.2290296E+02  0.7546771E-02  0.1693088E+00
         21   -1    0    0  501  502  0.00000000000E+00  0.00000000000E+00  0.42488827808E+01  0.42488827808E+01  0.00000000000E+00 0. -1.
         21   -1    0    0  502  503 -0.00000000000E+00 -0.00000000000E+00 -0.13119520400E+03  0.13119520400E+03  0.00000000000E+00 0. -1.
          2    1    1    2  501    0  0.36502684372E+00  0.22900048732E+02 -0.79922541988E+02  0.83139390149E+02  0.00000000000E+00 0. -1.
         -2    1    1    2    0  503 -0.36502684372E+00 -0.22900048732E+02 -0.47023779230E+02  0.52304696631E+02  0.00000000000E+00 0.  1.
<mgrwt>
<rscale>  2 0.22902958E+02</rscale>
<asrwt>0</asrwt>
<pdfrwt beam="1">  1       21 0.65367445E-03 0.22902958E+02</pdfrwt>
<pdfrwt beam="2">  1       21 0.20183872E-01 0.22902958E+02</pdfrwt>
<totfact> 0.11423766E+08</totfact>
</mgrwt>
</event>
<event>
 4    1  0.7478314E+004  0.5163987E+02  0.7546771E-02  0.1436692E+00
         21   -1    0    0  503  502  0.00000000000E+00  0.00000000000E+00  0.16922516916E+03  0.16922516916E+03  0.00000000000E+00 0.  1.
         21   -1    0    0  501  503 -0.00000000000E+00 -0.00000000000E+00 -0.35526380114E+02  0.35526380114E+02  0.00000000000E+00 0.  1.
          3    1    1    2  501    0  0.51019325413E+02 -0.79815393826E+01  0.14321636372E+03  0.15224192384E+03  0.00000000000E+00 0.  1.
         -3    1    1    2    0  502 -0.51019325413E+02  0.79815393826E+01 -0.95175746678E+01  0.52509625442E+02  0.00000000000E+00 0. -1.
<mgrwt>
<rscale>  2 0.51639874E+02</rscale>
<asrwt>0</asrwt>
<pdfrwt beam="1">  1       21 0.26034641E-01 0.51639874E+02</pdfrwt>
<pdfrwt beam="2">  1       21 0.54655970E-02 0.51639874E+02</pdfrwt>
<totfact> 0.30490088E+06</totfact>
</mgrwt>
</event>
<event>
 4    1  0.7478314E+004  0.4363477E+02  0.7546771E-02  0.1483049E+00
         21   -1    0    0  501  502  0.00000000000E+00  0.00000000000E+00  0.37552983525E+02  0.37552983525E+02  0.00000000000E+00 0.  1.
         21   -1    0    0  502  503 -0.00000000000E+00 -0.00000000000E+00 -0.63273408443E+02  0.63273408443E+02  0.00000000000E+00 0.  1.
          4    1    1    2  501    0 -0.38289989555E+02  0.20925337330E+02 -0.35331813426E+02  0.56145614989E+02  0.00000000000E+00 0.  1.
         -4    1    1    2    0  503  0.38289989555E+02 -0.20925337330E+02  0.96113885080E+01  0.44680776980E+02  0.00000000000E+00 0. -1.
<mgrwt>
<rscale>  2 0.43634769E+02</rscale>
<asrwt>0</asrwt>
<pdfrwt beam="1">  1       21 0.57773821E-02 0.43634769E+02</pdfrwt>
<pdfrwt beam="2">  1       21 0.97343705E-02 0.43634769E+02</pdfrwt>
<totfact> 0.15461539E+07</totfact>
</mgrwt>
</event>
<event>
 4    1  0.7478314E+004  0.2488040E+02  0.7546771E-02  0.1662726E+00
         21   -1    0    0  503  502  0.00000000000E+00  0.00000000000E+00  0.92268799563E+01  0.92268799563E+01  0.00000000000E+00 0.  1.
         21   -1    0    0  501  503 -0.00000000000E+00 -0.00000000000E+00 -0.67170890009E+02  0.67170890009E+02  0.00000000000E+00 0.  1.
          2    1    1    2  501    0  0.22727165380E+02 -0.10124730127E+02 -0.30295074430E+02  0.39202369075E+02  0.00000000000E+00 0. -1.
         -2    1    1    2    0  502 -0.22727165380E+02  0.10124730127E+02 -0.27648935623E+02  0.37195400891E+02  0.00000000000E+00 0.  1.
<mgrwt>
<rscale>  2 0.24880398E+02</rscale>
<asrwt>0</asrwt>
<pdfrwt beam="1">  1       21 0.14195200E-02 0.24880398E+02</pdfrwt>
<pdfrwt beam="2">  1       21 0.10333983E-01 0.24880398E+02</pdfrwt>
<totfact> 0.11390562E+08</totfact>
</mgrwt>
</event>
<event>
 4    1  0.7478314E+004  0.2453117E+02  0.7546771E-02  0.1667829E+00
         21   -1    0    0  501  502  0.00000000000E+00  0.00000000000E+00  0.50818842096E+02  0.50818842096E+02  0.00000000000E+00 0.  1.
         21   -1    0    0  502  503 -0.00000000000E+00 -0.00000000000E+00 -0.18656525002E+02  0.18656525002E+02  0.00000000000E+00 0.  1.
          5    1    1    2  501    0  0.22398890580E+02 -0.10003411723E+02 -0.49137831502E+01  0.25018469381E+02  0.00000000000E+00 0.  1.
         -5    1    1    2    0  503 -0.22398890580E+02  0.10003411723E+02  0.37076100245E+02  0.44456897718E+02  0.00000000000E+00 0. -1.
<mgrwt>
<rscale>  2 0.24531175E+02</rscale>
<asrwt>0</asrwt>
<pdfrwt beam="1">  1       21 0.78182833E-02 0.24531175E+02</pdfrwt>
<pdfrwt beam="2">  1       21 0.28702346E-02 0.24531175E+02</pdfrwt>
<totfact> 0.60809244E+07</totfact>
</mgrwt>
</event>
<event>
 4    1  0.7478314E+004  0.4258263E+02  0.7546771E-02  0.1490023E+00
         21   -1    0    0  501  502  0.00000000000E+00  0.00000000000E+00  0.19387307782E+04  0.19387307782E+04  0.00000000000E+00 0. -1.
         21   -1    0    0  502  503 -0.00000000000E+00 -0.00000000000E+00 -0.36152211755E+01  0.36152211755E+01  0.00000000000E+00 0. -1.
          5    1    1    2  501    0 -0.41952580095E+02 -0.72980670375E+01  0.18037204291E+04  0.18042230092E+04  0.00000000000E+00 0.  1.
         -5    1    1    2    0  503  0.41952580095E+02  0.72980670375E+01  0.13139512796E+03  0.13812299016E+03  0.00000000000E+00 0. -1.
<mgrwt>
<rscale>  2 0.42582634E+02</rscale>
<asrwt>0</asrwt>
<pdfrwt beam="1">  1       21 0.29826544E+00 0.42582634E+02</pdfrwt>
<pdfrwt beam="2">  1       21 0.55618942E-03 0.42582634E+02</pdfrwt>
<totfact> 0.39043028E+05</totfact>
</mgrwt>
</event>
<event>
 4    1  0.7478314E+004  0.2314349E+02  0.7546771E-02  0.1689195E+00
         21   -1    0    0  501  502  0.00000000000E+00  0.00000000000E+00  0.20840481566E+03  0.20840481566E+03  0.00000000000E+00 0.  1.
         21   -1    0    0  502  503 -0.00000000000E+00 -0.00000000000E+00 -0.25824210394E+01  0.25824210394E+01  0.00000000000E+00 0.  1.
          5    1    1    2  501    0  0.21325624965E+02  0.89910509433E+01  0.11019790287E+03  0.11260194969E+03  0.00000000000E+00 0.  1.
         -5    1    1    2    0  503 -0.21325624965E+02 -0.89910509433E+01  0.95624491753E+02  0.98385287011E+02  0.00000000000E+00 0. -1.
<mgrwt>
<rscale>  2 0.23143493E+02</rscale>
<asrwt>0</asrwt>
<pdfrwt beam="1">  1       21 0.32062266E-01 0.23143493E+02</pdfrwt>
<pdfrwt beam="2">  1       21 0.39729571E-03 0.23143493E+02</pdfrwt>
<totfact> 0.10444866E+08</totfact>
</mgrwt>
</event>
<event>
 4    1  0.7478314E+004  0.2003457E+02  0.7546771E-02  0.1744641E+00
         21   -1    0    0  501  502  0.00000000000E+00  0.00000000000E+00  0.97386318753E+01  0.97386318753E+01  0.00000000000E+00 0. -1.
         21   -1    0    0  502  503 -0.00000000000E+00 -0.00000000000E+00 -0.41691103719E+02  0.41691103719E+02  0.00000000000E+00 0. -1.
          4    1    1    2  501    0  0.54363341898E+01  0.19282905633E+02 -0.13230173940E+02  0.24008783425E+02  0.00000000000E+00 0. -1.
         -4    1    1    2    0  503 -0.54363341898E+01 -0.19282905633E+02 -0.18722297904E+02  0.27420952169E+02  0.00000000000E+00 0.  1.
<mgrwt>
<rscale>  2 0.20034575E+02</rscale>
<asrwt>0</asrwt>
<pdfrwt beam="1">  1       21 0.14982511E-02 0.20034575E+02</pdfrwt>
<pdfrwt beam="2">  1       21 0.64140158E-02 0.20034575E+02</pdfrwt>
<totfact> 0.21397411E+08</totfact>
</mgrwt>
</event>
<event>
 4    1  0.7478314E+004  0.3089848E+02  0.7546771E-02  0.1588364E+00
         21   -1    0    0  501  502  0.00000000000E+00  0.00000000000E+00  0.77255776967E+01  0.77255776967E+01  0.00000000000E+00 0.  1.
         21   -1    0    0  502  503 -0.00000000000E+00 -0.00000000000E+00 -0.14150689614E+03  0.14150689614E+03  0.00000000000E+00 0.  1.
          5    1    1    2  501    0 -0.35087098159E+01  0.30698612043E+02 -0.93449825670E+02  0.98425534003E+02  0.00000000000E+00 0.  1.
         -5    1    1    2    0  503  0.35087098159E+01 -0.30698612043E+02 -0.40331492770E+02  0.50806939831E+02  0.00000000000E+00 0. -1.
<mgrwt>
<rscale>  2 0.30898476E+02</rscale>
<asrwt>0</asrwt>
<pdfrwt beam="1">  1       21 0.11885504E-02 0.30898476E+02</pdfrwt>
<pdfrwt beam="2">  1       21 0.21770292E-01 0.30898476E+02</pdfrwt>
<totfact> 0.43723645E+07</totfact>
</mgrwt>
</event>
<event>
 4    1  0.7478314E+004  0.2930781E+02  0.7546771E-02  0.1605868E+00
         21   -1    0    0  503  502  0.00000000000E+00  0.00000000000E+00  0.33917958516E+02  0.33917958516E+02  0.00000000000E+00 0. -1.
         21   -1    0    0  501  503 -0.00000000000E+00 -0.00000000000E+00 -0.27660915544E+02  0.27660915544E+02  0.00000000000E+00 0. -1.
          2    1    1    2  501    0  0.11702959890E+02 -0.26869844337E+02 -0.58202653641E+01  0.29880148825E+02  0.00000000000E+00 0.  1.
         -2    1    1    2    0  502 -0.11702959890E+02  0.26869844337E+02  0.12077308335E+02  0.31698725235E+02  0.00000000000E+00 0. -1.
<mgrwt>
<rscale>  2 0.29307811E+02</rscale>
<asrwt>0</asrwt>
<pdfrwt beam="1">  1       21 0.52181475E-02 0.29307811E+02</pdfrwt>
<pdfrwt beam="2">  1       21 0.42555255E-02 0.29307811E+02</pdfrwt>
<totfact> 0.65779916E+07</totfact>
</mgrwt>
</event>
<event>
 4    1  0.7478314E+004  0.2353876E+02  0.7546771E-02  0.1682923E+00
         21   -1    0    0  501  502  0.00000000000E+00  0.00000000000E+00  0.44959118853E+01  0.44959118853E+01  0.00000000000E+00 0. -1.
         21   -1    0    0  502  503 -0.00000000000E+00 -0.00000000000E+00 -0.12570171161E+03  0.12570171161E+03  0.00000000000E+00 0. -1.
          3    1    1    2  501    0 -0.23508922591E+02  0.11847396870E+01 -0.51491555127E+02  0.56616722785E+02  0.00000000000E+00 0.  1.
         -3    1    1    2    0  503  0.23508922591E+02 -0.11847396870E+01 -0.69714244599E+02  0.73580900712E+02  0.00000000000E+00 0. -1.
<mgrwt>
<rscale>  2 0.23538756E+02</rscale>
<asrwt>0</asrwt>
<pdfrwt beam="1">  1       21 0.69167867E-03 0.23538756E+02</pdfrwt>
<pdfrwt beam="2">  1       21 0.19338727E-01 0.23538756E+02</pdfrwt>
<totfact> 0.11403943E+08</totfact>
</mgrwt>
</event>
<event>
 4    1  0.7478314E+004  0.2287315E+02  0.7546771E-02  0.1693575E+00
         21   -1    0    0  503  502  0.00000000000E+00  0.00000000000E+00  0.14663246367E+01  0.14663246367E+01  0.00000000000E+00 0.  1.
         21   -1    0    0  501  503 -0.00000000000E+00 -0.00000000000E+00 -0.40154684463E+03  0.40154684463E+03  0.00000000000E+00 0.  1.
          1    1    1    2  501    0  0.20638188042E+02 -0.98613545742E+01 -0.13277141674E+03  0.13472724380E+03  0.00000000000E+00 0.  1.
         -1    1    1    2    0  502 -0.20638188042E+02  0.98613545742E+01 -0.26730910326E+03  0.26828592547E+03  0.00000000000E+00 0. -1.
<mgrwt>
<rscale>  2 0.22873153E+02</rscale>
<asrwt>0</asrwt>
<pdfrwt beam="1">  1       21 0.22558835E-03 0.22873153E+02</pdfrwt>
<pdfrwt beam="2">  1       21 0.61776453E-01 0.22873153E+02</pdfrwt>
<totfact> 0.67672801E+07</totfact>
</mgrwt>
</event>
<event>
 4    1  0.7478314E+004  0.3072286E+02  0.7546771E-02  0.1590233E+00
         21   -1    0    0  503  502  0.00000000000E+00  0.00000000000E+00  0.11237508080E+02  0.11237508080E+02  0.00000000000E+00 0.  1.
         21   -1    0    0  501  503 -0.00000000000E+00 -0.00000000000E+00 -0.10070354855E+03  0.10070354855E+03  0.00000000000E+00 0.  1.
          5    1    1    2  501    0  0.95080919684E+01  0.29214558156E+02 -0.21934498194E+02  0.37749389825E+02  0.00000000000E+00 0.  1.
         -5    1    1    2    0  502 -0.95080919684E+01 -0.29214558156E+02 -0.67531542275E+02  0.74191666804E+02  0.00000000000E+00 0. -1.
<mgrwt>
<rscale>  2 0.30722862E+02</rscale>
<asrwt>0</asrwt>
<pdfrwt beam="1">  1       21 0.17288473E-02 0.30722862E+02</pdfrwt>
<pdfrwt beam="2">  1       21 0.15492854E-01 0.30722862E+02</pdfrwt>
<totfact> 0.44626178E+07</totfact>
</mgrwt>
</event>
<event>
 4    1  0.7478314E+004  0.2001911E+02  0.7546771E-02  0.1744948E+00
         21   -1    0    0  501  502  0.00000000000E+00  0.00000000000E+00  0.34739265993E+01  0.34739265993E+01  0.00000000000E+00 0.  1.
         21   -1    0    0  502  503 -0.00000000000E+00 -0.00000000000E+00 -0.13231855435E+03  0.13231855435E+03  0.00000000000E+00 0.  1.
          2    1    1    2  501    0 -0.93168354502E+01 -0.17718954132E+02 -0.88726628147E+02  0.90957018974E+02  0.00000000000E+00 0.  1.
         -2    1    1    2    0  503  0.93168354502E+01  0.17718954132E+02 -0.40117999604E+02  0.44835461976E+02  0.00000000000E+00 0. -1.
<mgrwt>
<rscale>  2 0.20019110E+02</rscale>
<asrwt>0</asrwt>
<pdfrwt beam="1">  1       21 0.53445028E-03 0.20019110E+02</pdfrwt>
<pdfrwt beam="2">  1       21 0.20356700E-01 0.20019110E+02</pdfrwt>
<totfact> 0.14571832E+08</totfact>
</mgrwt>
</event>
<event>
 4    1  0.7478314E+004  0.4976686E+02  0.7546771E-02  0.1446603E+00
         21   -1    0    0  501  502  0.00000000000E+00  0.00000000000E+00  0.28565442573E+03  0.28565442573E+03  0.00000000000E+00 0. -1.
         21   -1    0    0  502  503 -0.00000000000E+00 -0.00000000000E+00 -0.86708564817E+01  0.86708564817E+01  0.00000000000E+00 0. -1.
          1    1    1    2  501    0  0.45006353437E+02 -0.21240719198E+02  0.13743169274E+03  0.14616501007E+03  0.00000000000E+00 0.  1.
         -1    1    1    2    0  503 -0.45006353437E+02  0.21240719198E+02  0.13955187651E+03  0.14816027214E+03  0.00000000000E+00 0. -1.
<mgrwt>
<rscale>  2 0.49766856E+02</rscale>
<asrwt>0</asrwt>
<pdfrwt beam="1">  1       21 0.43946828E-01 0.49766856E+02</pdfrwt>
<pdfrwt beam="2">  1       21 0.13339781E-02 0.49766856E+02</pdfrwt>
<totfact> 0.10631681E+07</totfact>
</mgrwt>
</event>
<event>
 4    1  0.7478314E+004  0.2742893E+02  0.7546771E-02  0.1628381E+00
         21   -1    0    0  503  502  0.00000000000E+00  0.00000000000E+00  0.61216568921E+01  0.61216568921E+01  0.00000000000E+00 0. -1.
         21   -1    0    0  501  503 -0.00000000000E+00 -0.00000000000E+00 -0.18136187524E+03  0.18136187524E+03  0.00000000000E+00 0. -1.
          2    1    1    2  501    0 -0.17069288423E+02  0.21470569488E+02 -0.34397036459E+02  0.43994341438E+02  0.00000000000E+00 0. -1.
         -2    1    1    2    0  502  0.17069288423E+02 -0.21470569488E+02 -0.14084318189E+03  0.14348919069E+03  0.00000000000E+00 0.  1.
<mgrwt>
<rscale>  2 0.27428926E+02</rscale>
<asrwt>0</asrwt>
<pdfrwt beam="1">  1       21 0.94179325E-03 0.27428926E+02</pdfrwt>
<pdfrwt beam="2">  1       21 0.27901830E-01 0.27428926E+02</pdfrwt>
<totfact> 0.38842514E+07</totfact>
</mgrwt>
</event>
<event>
 4    1  0.7478314E+004  0.2536143E+02  0.7546771E-02  0.1655864E+00
         21   -1    0    0  503  502  0.00000000000E+00  0.00000000000E+00  0.51429543286E+01  0.51429543286E+01  0.00000000000E+00 0. -1.
         21   -1    0    0  501  503 -0.00000000000E+00 -0.00000000000E+00 -0.14583594706E+03  0.14583594706E+03  0.00000000000E+00 0. -1.
          5    1    1    2  501    0 -0.24711113901E+02 -0.57064181389E+01 -0.41857010531E+02  0.48940899959E+02  0.00000000000E+00 0.  1.
         -5    1    1    2    0  502  0.24711113901E+02  0.57064181389E+01 -0.98835982196E+02  0.10203800142E+03  0.00000000000E+00 0. -1.
<mgrwt>
<rscale>  2 0.25361434E+02</rscale>
<asrwt>0</asrwt>
<pdfrwt beam="1">  1       21 0.79122383E-03 0.25361434E+02</pdfrwt>
<pdfrwt beam="2">  1       21 0.22436297E-01 0.25361434E+02</pdfrwt>
<totfact> 0.73289054E+07</totfact>
</mgrwt>
</event>
<event>
 4    1  0.7478314E+004  0.2905120E+02  0.7546771E-02  0.1608820E+00
         21   -1    0    0  503  502  0.00000000000E+00  0.00000000000E+00  0.12243796066E+03  0.12243796066E+03  0.00000000000E+00 0.  1.
         21   -1    0    0  501  503 -0.00000000000E+00 -0.00000000000E+00 -0.83794582527E+01  0.83794582527E+01  0.00000000000E+00 0.  1.
          4    1    1    2  501    0 -0.19924342408E+00  0.29050516122E+02  0.84577578329E+02  0.89427842090E+02  0.00000000000E+00 0.  1.
         -4    1    1    2    0  502  0.19924342408E+00 -0.29050516122E+02  0.29480924074E+02  0.41389576818E+02  0.00000000000E+00 0. -1.
<mgrwt>
<rscale>  2 0.29051199E+02</rscale>
<asrwt>0</asrwt>
<pdfrwt beam="1">  1       21 0.18836608E-01 0.29051199E+02</pdfrwt>
<pdfrwt beam="2">  1       21 0.12891475E-02 0.29051199E+02</pdfrwt>
<totfact> 0.49237785E+07</totfact>
</mgrwt>
</event>
<event>
 4    1  0.7478314E+004  0.2446363E+02  0.7546771E-02  0.1668828E+00
         21   -1    0    0  503  502  0.00000000000E+00  0.00000000000E+00  0.82092357664E+03  0.82092357664E+03  0.00000000000E+00 0.  1.
         21   -1    0    0  501  503 -0.00000000000E+00 -0.00000000000E+00 -0.74228691864E+00  0.74228691864E+00  0.00000000000E+00 0.  1.
          5    1    1    2  501    0  0.85675236342E+00 -0.24448618137E+02  0.35516446698E+03  0.35600599371E+03  0.00000000000E+00 0.  1.
         -5    1    1    2    0  502 -0.85675236342E+00  0.24448618137E+02  0.46501682274E+03  0.46565986985E+03  0.00000000000E+00 0. -1.
<mgrwt>
<rscale>  2 0.24463625E+02</rscale>
<asrwt>0</asrwt>
<pdfrwt beam="1">  1       21 0.12629521E+00 0.24463625E+02</pdfrwt>
<pdfrwt beam="2">  1       21 0.11419864E-03 0.24463625E+02</pdfrwt>
<totfact> 0.39495435E+07</totfact>
</mgrwt>
</event>
<event>
 4    1  0.7478314E+004  0.2154870E+02  0.7546771E-02  0.1716176E+00
         21   -1    0    0  503  502  0.00000000000E+00  0.00000000000E+00  0.46935733453E+01  0.46935733453E+01  0.00000000000E+00 0.  1.
         21   -1    0    0  501  503 -0.00000000000E+00 -0.00000000000E+00 -0.99396466292E+02  0.99396466292E+02  0.00000000000E+00 0.  1.
          5    1    1    2  501    0 -0.15941219714E+02  0.14499097218E+02 -0.50907764717E+02  0.55280618797E+02  0.00000000000E+00 0.  1.
         -5    1    1    2    0  502  0.15941219714E+02 -0.14499097218E+02 -0.43795128230E+02  0.48809420841E+02  0.00000000000E+00 0. -1.
<mgrwt>
<rscale>  2 0.21548696E+02</rscale>
<asrwt>0</asrwt>
<pdfrwt beam="1">  1       21 0.72208820E-03 0.21548696E+02</pdfrwt>
<pdfrwt beam="2">  1       21 0.15291764E-01 0.21548696E+02</pdfrwt>
<totfact> 0.15615323E+08</totfact>
</mgrwt>
</event>
<event>
 4    1  0.7478314E+004  0.2167753E+02  0.7546771E-02  0.1713889E+00
         21   -1    0    0  503  502  0.00000000000E+00  0.00000000000E+00  0.36124751876E+01  0.36124751876E+01  0.00000000000E+00 0. -1.
         21   -1    0    0  501  503 -0.00000000000E+00 -0.00000000000E+00 -0.19848178100E+03  0.19848178100E+03  0.00000000000E+00 0. -1.
          5    1    1    2  501    0  0.21494001739E+02  0.28148479010E+01 -0.38115735146E+02  0.43848885336E+02  0.00000000000E+00 0.  1.
         -5    1    1    2    0  502 -0.21494001739E+02 -0.28148479010E+01 -0.15675357066E+03  0.15824537085E+03  0.00000000000E+00 0. -1.
<mgrwt>
<rscale>  2 0.21677534E+02</rscale>
<asrwt>0</asrwt>
<pdfrwt beam="1">  1       21 0.55576545E-03 0.21677534E+02</pdfrwt>
<pdfrwt beam="2">  1       21 0.30535657E-01 0.21677534E+02</pdfrwt>
<totfact> 0.68479909E+07</totfact>
</mgrwt>
</event>
<event>
 4    1  0.7478314E+004  0.2636229E+02  0.7546771E-02  0.1642172E+00
         21   -1    0    0  503  502  0.00000000000E+00  0.00000000000E+00  0.30067545395E+02  0.30067545395E+02  0.00000000000E+00 0. -1.
         21   -1    0    0  501  503 -0.00000000000E+00 -0.00000000000E+00 -0.23596998632E+02  0.23596998632E+02  0.00000000000E+00 0. -1.
          3    1    1    2  501    0  0.12725820596E+02 -0.23087311825E+02 -0.60500714076E+00  0.26369234171E+02  0.00000000000E+00 0.  1.
         -3    1    1    2    0  502 -0.12725820596E+02  0.23087311825E+02  0.70755539038E+01  0.27295309857E+02  0.00000000000E+00 0. -1.
<mgrwt>
<rscale>  2 0.26362293E+02</rscale>
<asrwt>0</asrwt>
<pdfrwt beam="1">  1       21 0.46257762E-02 0.26362293E+02</pdfrwt>
<pdfrwt beam="2">  1       21 0.36303075E-02 0.26362293E+02</pdfrwt>
<totfact> 0.99936467E+07</totfact>
</mgrwt>
</event>
<event>
 4    1  0.7478314E+004  0.2551522E+02  0.7546771E-02  0.1653710E+00
         21   -1    0    0  503  502  0.00000000000E+00  0.00000000000E+00  0.17839298511E+03  0.17839298511E+03  0.00000000000E+00 0.  1.
         21   -1    0    0  501  503 -0.00000000000E+00 -0.00000000000E+00 -0.40990040354E+01  0.40990040354E+01  0.00000000000E+00 0.  1.
          5    1    1    2  501    0  0.10659558197E+02 -0.23181897485E+02  0.56927167005E+02  0.62383722999E+02  0.00000000000E+00 0.  1.
         -5    1    1    2    0  502 -0.10659558197E+02  0.23181897485E+02  0.11736681407E+03  0.12010826615E+03  0.00000000000E+00 0. -1.
<mgrwt>
<rscale>  2 0.25515222E+02</rscale>
<asrwt>0</asrwt>
<pdfrwt beam="1">  1       21 0.27445069E-01 0.25515222E+02</pdfrwt>
<pdfrwt beam="2">  1       21 0.63061614E-03 0.25515222E+02</pdfrwt>
<totfact> 0.71810693E+07</totfact>
</mgrwt>
</event>
<event>
 4    1  0.7478314E+004  0.2013579E+02  0.7546771E-02  0.1742641E+00
         21   -1    0    0  501  502  0.00000000000E+00  0.00000000000E+00  0.67206067789E+03  0.67206067789E+03  0.00000000000E+00 0.  1.
         21   -1    0    0  502  503 -0.00000000000E+00 -0.00000000000E+00 -0.80705217430E+00  0.80705217430E+00  0.00000000000E+00 0.  1.
          4    1    1    2  501    0 -0.11080481040E+02 -0.16812881748E+02  0.50467347988E+03  0.50507501556E+03  0.00000000000E+00 0. -1.
         -4    1    1    2    0  503  0.11080481040E+02  0.16812881748E+02  0.16658014584E+03  0.16779271450E+03  0.00000000000E+00 0.  1.
<mgrwt>
<rscale>  2 0.20135790E+02</rscale>
<asrwt>0</asrwt>
<pdfrwt beam="1">  1       21 0.10339350E+00 0.20135790E+02</pdfrwt>
<pdfrwt beam="2">  1       21 0.12416241E-03 0.20135790E+02</pdfrwt>
<totfact> 0.52626351E+07</totfact>
</mgrwt>
</event>
<event>
 4    1  0.7478314E+004  0.2021860E+02  0.7546771E-02  0.1741016E+00
         21   -1    0    0  501  502  0.00000000000E+00  0.00000000000E+00  0.32126042804E+03  0.32126042804E+03  0.00000000000E+00 0.  1.
         21   -1    0    0  502  503 -0.00000000000E+00 -0.00000000000E+00 -0.19592306408E+01  0.19592306408E+01  0.00000000000E+00 0.  1.
          3    1    1    2  501    0 -0.16809038055E+02  0.11236017949E+02  0.25533255527E+03  0.25613181302E+03  0.00000000000E+00 0. -1.
         -3    1    1    2    0  503  0.16809038055E+02 -0.11236017949E+02  0.63968642132E+02  0.67087845665E+02  0.00000000000E+00 0.  1.
<mgrwt>
<rscale>  2 0.20218602E+02</rscale>
<asrwt>0</asrwt>
<pdfrwt beam="1">  1       21 0.49424640E-01 0.20218602E+02</pdfrwt>
<pdfrwt beam="2">  1       21 0.30142035E-03 0.20218602E+02</pdfrwt>
<totfact> 0.66872730E+07</totfact>
</mgrwt>
</event>
<event>
 4    1  0.7478314E+004  0.5286804E+02  0.7546771E-02  0.1430459E+00
         21   -1    0    0  503  502  0.00000000000E+00  0.00000000000E+00  0.10307690562E+04  0.10307690562E+04  0.00000000000E+00 0.  1.
         21   -1    0    0  501  503 -0.00000000000E+00 -0.00000000000E+00 -0.32196792201E+01  0.32196792201E+01  0.00000000000E+00 0.  1.
          5    1    1    2  501    0  0.10915939022E+02 -0.51728831331E+02  0.30840008289E+03  0.31289877092E+03  0.00000000000E+00 0. -1.
         -5    1    1    2    0  502 -0.10915939022E+02  0.51728831331E+02  0.71914929412E+03  0.72108996453E+03  0.00000000000E+00 0.  1.
<mgrwt>
<rscale>  2 0.52868041E+02</rscale>
<asrwt>0</asrwt>
<pdfrwt beam="1">  1       21 0.15857959E+00 0.52868041E+02</pdfrwt>
<pdfrwt beam="2">  1       21 0.49533609E-03 0.52868041E+02</pdfrwt>
<totfact> 0.28806589E+06</totfact>
</mgrwt>
</event>
<event>
 4    1  0.7478314E+004  0.2201947E+02  0.7546771E-02  0.1707916E+00
         21   -1    0    0  501  502  0.00000000000E+00  0.00000000000E+00  0.75332656954E+00  0.75332656954E+00  0.00000000000E+00 0.  1.
         21   -1    0    0  502  503 -0.00000000000E+00 -0.00000000000E+00 -0.64575882220E+03  0.64575882220E+03  0.00000000000E+00 0.  1.
          3    1    1    2  501    0  0.17129435056E+02 -0.13836161888E+02 -0.30390411672E+03  0.30470078615E+03  0.00000000000E+00 0. -1.
         -3    1    1    2    0  503 -0.17129435056E+02  0.13836161888E+02 -0.34110137891E+03  0.34181136262E+03  0.00000000000E+00 0.  1.
<mgrwt>
<rscale>  2 0.22019467E+02</rscale>
<asrwt>0</asrwt>
<pdfrwt beam="1">  1       21 0.11589636E-03 0.22019467E+02</pdfrwt>
<pdfrwt beam="2">  1       21 0.99347539E-01 0.22019467E+02</pdfrwt>
<totfact> 0.64691170E+07</totfact>
</mgrwt>
</event>
<event>
 4    1  0.7478314E+004  0.3840167E+02  0.7546771E-02  0.1520314E+00
         21   -1    0    0  503  502  0.00000000000E+00  0.00000000000E+00  0.25392120762E+01  0.25392120762E+01  0.00000000000E+00 0. -1.
         21   -1    0    0  501  503 -0.00000000000E+00 -0.00000000000E+00 -0.60564876551E+03  0.60564876551E+03  0.00000000000E+00 0. -1.
          3    1    1    2  501    0  0.95315974926E+01  0.37199962643E+02 -0.36319226266E+03  0.36521679620E+03  0.00000000000E+00 0.  1.
         -3    1    1    2    0  502 -0.95315974926E+01 -0.37199962643E+02 -0.23991729078E+03  0.24297118139E+03  0.00000000000E+00 0. -1.
<mgrwt>
<rscale>  2 0.38401674E+02</rscale>
<asrwt>0</asrwt>
<pdfrwt beam="1">  1       21 0.39064832E-03 0.38401674E+02</pdfrwt>
<pdfrwt beam="2">  1       21 0.93176659E-01 0.38401674E+02</pdfrwt>
<totfact> 0.13986486E+07</totfact>
</mgrwt>
</event>
<event>
 4    1  0.7478314E+004  0.2145376E+02  0.7546771E-02  0.1717874E+00
         21   -1    0    0  503  502  0.00000000000E+00  0.00000000000E+00  0.21039683691E+02  0.21039683691E+02  0.00000000000E+00 0.  1.
         21   -1    0    0  501  503 -0.00000000000E+00 -0.00000000000E+00 -0.35559639407E+02  0.35559639407E+02  0.00000000000E+00 0.  1.
          2    1    1    2  501    0 -0.70717899532E+01 -0.20254716835E+02  0.10295135751E+02  0.23796083445E+02  0.00000000000E+00 0. -1.
         -2    1    1    2    0  502  0.70717899532E+01  0.20254716835E+02 -0.24815091467E+02  0.32803239653E+02  0.00000000000E+00 0.  1.
<mgrwt>
<rscale>  2 0.21453759E+02</rscale>
<asrwt>0</asrwt>
<pdfrwt beam="1">  1       21 0.32368744E-02 0.21453759E+02</pdfrwt>
<pdfrwt beam="2">  1       21 0.54707137E-02 0.21453759E+02</pdfrwt>
<totfact> 0.86462125E+07</totfact>
</mgrwt>
</event>
<event>
 4    1  0.7478314E+004  0.2384997E+02  0.7546771E-02  0.1678092E+00
         21   -1    0    0  501  502  0.00000000000E+00  0.00000000000E+00  0.41610237438E+03  0.41610237438E+03  0.00000000000E+00 0.  1.
         21   -1    0    0  502  503 -0.00000000000E+00 -0.00000000000E+00 -0.13689646067E+01  0.13689646067E+01  0.00000000000E+00 0.  1.
          2    1    1    2  501    0  0.53625006532E+01  0.23239288056E+02  0.21523065345E+03  0.21654804342E+03  0.00000000000E+00 0.  1.
         -2    1    1    2    0  503 -0.53625006532E+01 -0.23239288056E+02  0.19950275632E+03  0.20092329556E+03  0.00000000000E+00 0. -1.
<mgrwt>
<rscale>  2 0.23849967E+02</rscale>
<asrwt>0</asrwt>
<pdfrwt beam="1">  1       21 0.64015649E-01 0.23849967E+02</pdfrwt>
<pdfrwt beam="2">  1       21 0.21061027E-03 0.23849967E+02</pdfrwt>
<totfact> 0.70273026E+07</totfact>
</mgrwt>
</event>
<event>
 4    1  0.7478314E+004  0.2365669E+02  0.7546771E-02  0.1681081E+00
         21   -1    0    0  501  502  0.00000000000E+00  0.00000000000E+00  0.24798488232E+03  0.24798488232E+03  0.00000000000E+00 0. -1.
         21   -1    0    0  502  503 -0.00000000000E+00 -0.00000000000E+00 -0.23271566153E+01  0.23271566153E+01  0.00000000000E+00 0. -1.
          4    1    1    2  501    0  0.20876819769E+02 -0.11126418970E+02  0.14459889680E+03  0.14652126043E+03  0.00000000000E+00 0.  1.
         -4    1    1    2    0  503 -0.20876819769E+02  0.11126418970E+02  0.10105882891E+03  0.10379077851E+03  0.00000000000E+00 0. -1.
<mgrwt>
<rscale>  2 0.23656686E+02</rscale>
<asrwt>0</asrwt>
<pdfrwt beam="1">  1       21 0.38151499E-01 0.23656686E+02</pdfrwt>
<pdfrwt beam="2">  1       21 0.35802429E-03 0.23656686E+02</pdfrwt>
<totfact> 0.88652014E+07</totfact>
</mgrwt>
</event>
<event>
 4    1  0.7478314E+004  0.2008319E+02  0.7546771E-02  0.1743679E+00
         21   -1    0    0  503  502  0.00000000000E+00  0.00000000000E+00  0.16550695881E+01  0.16550695881E+01  0.00000000000E+00 0.  1.
         21   -1    0    0  501  503 -0.00000000000E+00 -0.00000000000E+00 -0.40672519049E+03  0.40672519049E+03  0.00000000000E+00 0.  1.
          4    1    1    2  501    0  0.13572690633E+02  0.14802581052E+02 -0.33181064048E+03  0.33241786274E+03  0.00000000000E+00 0.  1.
         -4    1    1    2    0  502 -0.13572690633E+02 -0.14802581052E+02 -0.73259480429E+02  0.75962397340E+02  0.00000000000E+00 0. -1.
<mgrwt>
<rscale>  2 0.20083185E+02</rscale>
<asrwt>0</asrwt>
<pdfrwt beam="1">  1       21 0.25462616E-03 0.20083185E+02</pdfrwt>
<pdfrwt beam="2">  1       21 0.62573089E-01 0.20083185E+02</pdfrwt>
<totfact> 0.53624955E+07</totfact>
</mgrwt>
</event>
<event>
 4    1  0.7478314E+004  0.2301140E+02  0.7546771E-02  0.1691325E+00
         21   -1    0    0  501  502  0.00000000000E+00  0.00000000000E+00  0.88969703582E+02  0.88969703582E+02  0.00000000000E+00 0. -1.
         21   -1    0    0  502  503 -0.00000000000E+00 -0.00000000000E+00 -0.59547420646E+01  0.59547420646E+01  0.00000000000E+00 0. -1.
          3    1    1    2  501    0  0.13454638670E+02  0.18668076022E+02  0.42573518286E+02  0.48394512327E+02  0.00000000000E+00 0. -1.
         -3    1    1    2    0  503 -0.13454638670E+02 -0.18668076022E+02  0.40441443231E+02  0.46529933320E+02  0.00000000000E+00 0.  1.
<mgrwt>
<rscale>  2 0.23011396E+02</rscale>
<asrwt>0</asrwt>
<pdfrwt beam="1">  1       21 0.13687646E-01 0.23011396E+02</pdfrwt>
<pdfrwt beam="2">  1       21 0.91611423E-03 0.23011396E+02</pdfrwt>
<totfact> 0.13471652E+08</totfact>
</mgrwt>
</event>
<event>
 4    1  0.7478314E+004  0.3738384E+02  0.7546771E-02  0.1528396E+00
         21   -1    0    0  501  502  0.00000000000E+00  0.00000000000E+00  0.15118145503E+03  0.15118145503E+03  0.00000000000E+00 0. -1.
         21   -1    0    0  502  503 -0.00000000000E+00 -0.00000000000E+00 -0.93528952462E+01  0.93528952462E+01  0.00000000000E+00 0. -1.
          4    1    1    2  501    0  0.33555220924E+02 -0.16480259052E+02  0.79567301724E+02  0.87911929187E+02  0.00000000000E+00 0.  1.
         -4    1    1    2    0  503 -0.33555220924E+02  0.16480259052E+02  0.62261258057E+02  0.72622421087E+02  0.00000000000E+00 0. -1.
<mgrwt>
<rscale>  2 0.37383844E+02</rscale>
<asrwt>0</asrwt>
<pdfrwt beam="1">  1       21 0.23258684E-01 0.37383844E+02</pdfrwt>
<pdfrwt beam="2">  1       21 0.14389071E-02 0.37383844E+02</pdfrwt>
<totfact> 0.30035019E+07</totfact>
</mgrwt>
</event>
<event>
 4    1  0.7478314E+004  0.2227183E+02  0.7546771E-02  0.1703593E+00
         21   -1    0    0  503  502  0.00000000000E+00  0.00000000000E+00  0.18904039412E+01  0.18904039412E+01  0.00000000000E+00 0. -1.
         21   -1    0    0  501  503 -0.00000000000E+00 -0.00000000000E+00 -0.28760034903E+03  0.28760034903E+03  0.00000000000E+00 0. -1.
          5    1    1    2  501    0  0.54312035568E+00 -0.22265206585E+02 -0.18570468072E+03  0.18703545879E+03  0.00000000000E+00 0.  1.
         -5    1    1    2    0  502 -0.54312035568E+00  0.22265206585E+02 -0.10000526437E+03  0.10245529418E+03  0.00000000000E+00 0. -1.
<mgrwt>
<rscale>  2 0.22271830E+02</rscale>
<asrwt>0</asrwt>
<pdfrwt beam="1">  1       21 0.29083163E-03 0.22271830E+02</pdfrwt>
<pdfrwt beam="2">  1       21 0.44246168E-01 0.22271830E+02</pdfrwt>
<totfact> 0.89314665E+07</totfact>
</mgrwt>
</event>
<event>
 4    1  0.7478314E+004  0.2999569E+02  0.7546771E-02  0.1598136E+00
         21   -1    0    0  503  502  0.00000000000E+00  0.00000000000E+00  0.46846189076E+01  0.46846189076E+01  0.00000000000E+00 0.  1.
         21   -1    0    0  501  503 -0.00000000000E+00 -0.00000000000E+00 -0.37424921938E+03  0.37424921938E+03  0.00000000000E+00 0.  1.
          2    1    1    2  501    0  0.73785120908E+01  0.29074021192E+02 -0.52588554003E+02  0.60541697706E+02  0.00000000000E+00 0. -1.
         -2    1    1    2    0  502 -0.73785120908E+01 -0.29074021192E+02 -0.31697604647E+03  0.31839214059E+03  0.00000000000E+00 0.  1.
<mgrwt>
<rscale>  2 0.29995686E+02</rscale>
<asrwt>0</asrwt>
<pdfrwt beam="1">  1       21 0.72071060E-03 0.29995686E+02</pdfrwt>
<pdfrwt beam="2">  1       21 0.57576803E-01 0.29995686E+02</pdfrwt>
<totfact> 0.14857697E+07</totfact>
</mgrwt>
</event>
<event>
 4    1  0.7478314E+004  0.2723017E+02  0.7546771E-02  0.1630892E+00
         21   -1    0    0  501  502  0.00000000000E+00  0.00000000000E+00  0.83822097447E+02  0.83822097447E+02  0.00000000000E+00 0.  1.
         21   -1    0    0  502  503 -0.00000000000E+00 -0.00000000000E+00 -0.91343510639E+01  0.91343510639E+01  0.00000000000E+00 0.  1.
          1    1    1    2  501    0  0.11972441561E+02 -0.24456954001E+02  0.45603228969E+02  0.53114371392E+02  0.00000000000E+00 0. -1.
         -1    1    1    2    0  503 -0.11972441561E+02  0.24456954001E+02  0.29084517414E+02  0.39842077119E+02  0.00000000000E+00 0.  1.
<mgrwt>
<rscale>  2 0.27230166E+02</rscale>
<asrwt>0</asrwt>
<pdfrwt beam="1">  1       21 0.12895707E-01 0.27230166E+02</pdfrwt>
<pdfrwt beam="2">  1       21 0.14052848E-02 0.27230166E+02</pdfrwt>
<totfact> 0.81642167E+07</totfact>
</mgrwt>
</event>
<event>
 4    1  0.7478314E+004  0.2105463E+02  0.7546771E-02  0.1725134E+00
         21   -1    0    0  503  502  0.00000000000E+00  0.00000000000E+00  0.28436034718E+01  0.28436034718E+01  0.00000000000E+00 0.  1.
         21   -1    0    0  501  503 -0.00000000000E+00 -0.00000000000E+00 -0.16616895581E+03  0.16616895581E+03  0.00000000000E+00 0.  1.
          2    1    1    2  501    0  0.54694378395E+00  0.21047528024E+02 -0.10267757606E+03  0.10481403632E+03  0.00000000000E+00 0.  1.
         -2    1    1    2    0  502 -0.54694378395E+00 -0.21047528024E+02 -0.60647776279E+02  0.64198522966E+02  0.00000000000E+00 0. -1.
<mgrwt>
<rscale>  2 0.21054633E+02</rscale>
<asrwt>0</asrwt>
<pdfrwt beam="1">  1       21 0.43747741E-03 0.21054633E+02</pdfrwt>
<pdfrwt beam="2">  1       21 0.25564458E-01 0.21054633E+02</pdfrwt>
<totfact> 0.13296770E+08</totfact>
</mgrwt>
</event>
<event>
 4    1  0.7478314E+004  0.2168457E+02  0.7546771E-02  0.1713765E+00
         21   -1    0    0  503  502  0.00000000000E+00  0.00000000000E+00  0.13842414062E+02  0.13842414062E+02  0.00000000000E+00 0. -1.
         21   -1    0    0  501  503 -0.00000000000E+00 -0.00000000000E+00 -0.37919122215E+02  0.37919122215E+02  0.00000000000E+00 0. -1.
          3    1    1    2  501    0  0.16287753536E+02  0.14315369615E+02 -0.20390969280E+02  0.29765959596E+02  0.00000000000E+00 0.  1.
         -3    1    1    2    0  502 -0.16287753536E+02 -0.14315369615E+02 -0.36857388731E+01  0.21995576681E+02  0.00000000000E+00 0. -1.
<mgrwt>
<rscale>  2 0.21684573E+02</rscale>
<asrwt>0</asrwt>
<pdfrwt beam="1">  1       21 0.21296022E-02 0.21684573E+02</pdfrwt>
<pdfrwt beam="2">  1       21 0.58337111E-02 0.21684573E+02</pdfrwt>
<totfact> 0.14951575E+08</totfact>
</mgrwt>
</event>
<event>
 4    1  0.7478314E+004  0.2134767E+02  0.7546771E-02  0.1719784E+00
         21   -1    0    0  501  502  0.00000000000E+00  0.00000000000E+00  0.88106282999E+02  0.88106282999E+02  0.00000000000E+00 0. -1.
         21   -1    0    0  502  503 -0.00000000000E+00 -0.00000000000E+00 -0.51855215277E+01  0.51855215277E+01  0.00000000000E+00 0. -1.
          4    1    1    2  501    0  0.12887092043E+01  0.21308734633E+02  0.39115976093E+02  0.44562119886E+02  0.00000000000E+00 0.  1.
         -4    1    1    2    0  503 -0.12887092043E+01 -0.21308734633E+02  0.43804785379E+02  0.48729684641E+02  0.00000000000E+00 0. -1.
<mgrwt>
<rscale>  2 0.21347668E+02</rscale>
<asrwt>0</asrwt>
<pdfrwt beam="1">  1       21 0.13554812E-01 0.21347668E+02</pdfrwt>
<pdfrwt beam="2">  1       21 0.79777261E-03 0.21347668E+02</pdfrwt>
<totfact> 0.16464835E+08</totfact>
</mgrwt>
</event>
<event>
 4    1  0.7478314E+004  0.2376422E+02  0.7546771E-02  0.1679414E+00
         21   -1    0    0  503  502  0.00000000000E+00  0.00000000000E+00  0.69873161307E+03  0.69873161307E+03  0.00000000000E+00 0.  1.
         21   -1    0    0  501  503 -0.00000000000E+00 -0.00000000000E+00 -0.25635682724E+01  0.25635682724E+01  0.00000000000E+00 0.  1.
          2    1    1    2  501    0  0.23554806538E+02 -0.31479131778E+01  0.57930131768E+02  0.62615001678E+02  0.00000000000E+00 0.  1.
         -2    1    1    2    0  502 -0.23554806538E+02  0.31479131778E+01  0.63823791303E+03  0.63868017966E+03  0.00000000000E+00 0. -1.
<mgrwt>
<rscale>  2 0.23764222E+02</rscale>
<asrwt>0</asrwt>
<pdfrwt beam="1">  1       21 0.10749702E+00 0.23764222E+02</pdfrwt>
<pdfrwt beam="2">  1       21 0.39439568E-03 0.23764222E+02</pdfrwt>
<totfact> 0.93911906E+06</totfact>
</mgrwt>
</event>
<event>
 4    1  0.7478314E+004  0.2252320E+02  0.7546771E-02  0.1699358E+00
         21   -1    0    0  501  502  0.00000000000E+00  0.00000000000E+00  0.32939680692E+03  0.32939680692E+03  0.00000000000E+00 0.  1.
         21   -1    0    0  502  503 -0.00000000000E+00 -0.00000000000E+00 -0.27248522628E+01  0.27248522628E+01  0.00000000000E+00 0.  1.
          1    1    1    2  501    0 -0.57820606724E+01  0.21768374317E+02  0.53835785382E+02  0.58357399991E+02  0.00000000000E+00 0.  1.
         -1    1    1    2    0  503  0.57820606724E+01 -0.21768374317E+02  0.27283616927E+03  0.27376425919E+03  0.00000000000E+00 0. -1.
<mgrwt>
<rscale>  2 0.22523196E+02</rscale>
<asrwt>0</asrwt>
<pdfrwt beam="1">  1       21 0.50676400E-01 0.22523196E+02</pdfrwt>
<pdfrwt beam="2">  1       21 0.41920830E-03 0.22523196E+02</pdfrwt>
<totfact> 0.40421810E+07</totfact>
</mgrwt>
</event>
<event>
 4    1  0.7478314E+004  0.2740192E+02  0.7546771E-02  0.1628721E+00
         21   -1    0    0  503  502  0.00000000000E+00  0.00000000000E+00  0.57602901662E+03  0.57602901662E+03  0.00000000000E+00 0. -1.
         21   -1    0    0  501  503 -0.00000000000E+00 -0.00000000000E+00 -0.13525807295E+01  0.13525807295E+01  0.00000000000E+00 0. -1.
          3    1    1    2  501    0 -0.12383781051E+02 -0.24443963597E+02  0.23235653951E+03  0.23396672166E+03  0.00000000000E+00 0.  1.
         -3    1    1    2    0  502  0.12383781051E+02  0.24443963597E+02  0.34231989638E+03  0.34341487569E+03  0.00000000000E+00 0. -1.
<mgrwt>
<rscale>  2 0.27401923E+02</rscale>
<asrwt>0</asrwt>
<pdfrwt beam="1">  1       21 0.88619653E-01 0.27401923E+02</pdfrwt>
<pdfrwt beam="2">  1       21 0.20808980E-03 0.27401923E+02</pdfrwt>
<totfact> 0.37368885E+07</totfact>
</mgrwt>
</event>
<event>
 4    1  0.7478314E+004  0.2038637E+02  0.7546771E-02  0.1737752E+00
         21   -1    0    0  501  502  0.00000000000E+00  0.00000000000E+00  0.71213433276E+01  0.71213433276E+01  0.00000000000E+00 0.  1.
         21   -1    0    0  502  503 -0.00000000000E+00 -0.00000000000E+00 -0.10070448603E+03  0.10070448603E+03  0.00000000000E+00 0.  1.
          3    1    1    2  501    0 -0.52596548755E+01  0.19696190824E+02 -0.81751068365E+02  0.84254620533E+02  0.00000000000E+00 0.  1.
         -3    1    1    2    0  503  0.52596548755E+01 -0.19696190824E+02 -0.11832074340E+02  0.23571208827E+02  0.00000000000E+00 0. -1.
<mgrwt>
<rscale>  2 0.20386366E+02</rscale>
<asrwt>0</asrwt>
<pdfrwt beam="1">  1       21 0.10955914E-02 0.20386366E+02</pdfrwt>
<pdfrwt beam="2">  1       21 0.15492997E-01 0.20386366E+02</pdfrwt>
<totfact> 0.80675776E+07</totfact>
</mgrwt>
</event>
<event>
 4    1  0.7478314E+004  0.2685967E+02  0.7546771E-02  0.1635643E+00
         21   -1    0    0  501  502  0.00000000000E+00  0.00000000000E+00  0.26647762509E+01  0.26647762509E+01  0.00000000000E+00 0.  1.
         21   -1    0    0  502  503 -0.00000000000E+00 -0.00000000000E+00 -0.27080468882E+03  0.27080468882E+03  0.00000000000E+00 0.  1.
          4    1    1    2  501    0  0.24884584945E+02 -0.10109355035E+02 -0.13183801242E+03  0.13454628626E+03  0.00000000000E+00 0.  1.
         -4    1    1    2    0  503 -0.24884584945E+02  0.10109355035E+02 -0.13630190015E+03  0.13892317881E+03  0.00000000000E+00 0. -1.
<mgrwt>
<rscale>  2 0.26859665E+02</rscale>
<asrwt>0</asrwt>
<pdfrwt beam="1">  1       21 0.40996546E-03 0.26859665E+02</pdfrwt>
<pdfrwt beam="2">  1       21 0.41662272E-01 0.26859665E+02</pdfrwt>
<totfact> 0.63402368E+07</totfact>
</mgrwt>
</event>
<event>
 4    1  0.7478314E+004  0.3896475E+02  0.7546771E-02  0.1515971E+00
         21   -1    0    0  503  502  0.00000000000E+00  0.00000000000E+00  0.62997123129E+02  0.62997123129E+02  0.00000000000E+00 0.  1.
         21   -1    0    0  501  503 -0.00000000000E+00 -0.00000000000E+00 -0.24949861766E+02  0.24949861766E+02  0.00000000000E+00 0.  1.
          3    1    1    2  501    0  0.74713979853E-01  0.38964677199E+02  0.27137834417E+02  0.47483825754E+02  0.00000000000E+00 0.  1.
         -3    1    1    2    0  502 -0.74713979853E-01 -0.38964677199E+02  0.10909426946E+02  0.40463159142E+02  0.00000000000E+00 0. -1.
<mgrwt>
<rscale>  2 0.38964749E+02</rscale>
<asrwt>0</asrwt>
<pdfrwt beam="1">  1       21 0.96918650E-02 0.38964749E+02</pdfrwt>
<pdfrwt beam="2">  1       21 0.38384403E-02 0.38964749E+02</pdfrwt>
<totfact> 0.29679105E+07</totfact>
</mgrwt>
</event>
<event>
 4    1  0.7478314E+004  0.2633240E+02  0.7546771E-02  0.1642570E+00
         21   -1    0    0  503  502  0.00000000000E+00  0.00000000000E+00  0.11920709778E+03  0.11920709778E+03  0.00000000000E+00 0.  1.
         21   -1    0    0  501  503 -0.00000000000E+00 -0.00000000000E+00 -0.63097331258E+01  0.63097331258E+01  0.00000000000E+00 0.  1.
          2    1    1    2  501    0 -0.67864172573E+00 -0.26323649410E+02  0.38906125343E+02  0.46979587717E+02  0.00000000000E+00 0. -1.
         -2    1    1    2    0  502  0.67864172573E+00  0.26323649410E+02  0.73991239312E+02  0.78537243190E+02  0.00000000000E+00 0.  1.
<mgrwt>
<rscale>  2 0.26332396E+02</rscale>
<asrwt>0</asrwt>
<pdfrwt beam="1">  1       21 0.18339552E-01 0.26332396E+02</pdfrwt>
<pdfrwt beam="2">  1       21 0.97072826E-03 0.26332396E+02</pdfrwt>
<totfact> 0.77511878E+07</totfact>
</mgrwt>
</event>
<event>
 4    1  0.7478314E+004  0.2577027E+02  0.7546771E-02  0.1650179E+00
         21   -1    0    0  501  502  0.00000000000E+00  0.00000000000E+00  0.31008695481E+02  0.31008695481E+02  0.00000000000E+00 0. -1.
         21   -1    0    0  502  503 -0.00000000000E+00 -0.00000000000E+00 -0.21647170631E+02  0.21647170631E+02  0.00000000000E+00 0. -1.
          2    1    1    2  501    0 -0.23982945225E+02  0.94300098981E+01  0.19647090969E+01  0.25845054269E+02  0.00000000000E+00 0.  1.
         -2    1    1    2    0  503  0.23982945225E+02 -0.94300098981E+01  0.73968157540E+01  0.26810811842E+02  0.00000000000E+00 0. -1.
<mgrwt>
<rscale>  2 0.25770269E+02</rscale>
<asrwt>0</asrwt>
<pdfrwt beam="1">  1       21 0.47705685E-02 0.25770269E+02</pdfrwt>
<pdfrwt beam="2">  1       21 0.33303339E-02 0.25770269E+02</pdfrwt>
<totfact> 0.10831966E+08</totfact>
</mgrwt>
</event>
<event>
 4    1  0.7478314E+004  0.2190515E+02  0.7546771E-02  0.1709898E+00
         21   -1    0    0  503  502  0.00000000000E+00  0.00000000000E+00  0.14091517779E+02  0.14091517779E+02  0.00000000000E+00 0.  1.
         21   -1    0    0  501  503 -0.00000000000E+00 -0.00000000000E+00 -0.34154921888E+02  0.34154921888E+02  0.00000000000E+00 0.  1.
          1    1    1    2  501    0 -0.11516021590E+02 -0.18633758941E+02 -0.87035372968E+01  0.23570899156E+02  0.00000000000E+00 0. -1.
         -1    1    1    2    0  502  0.11516021590E+02  0.18633758941E+02 -0.11359866812E+02  0.24675540511E+02  0.00000000000E+00 0.  1.
<mgrwt>
<rscale>  2 0.21905153E+02</rscale>
<asrwt>0</asrwt>
<pdfrwt beam="1">  1       21 0.21679258E-02 0.21905153E+02</pdfrwt>
<pdfrwt beam="2">  1       21 0.52546034E-02 0.21905153E+02</pdfrwt>
<totfact> 0.17243907E+08</totfact>
</mgrwt>
</event>
<event>
 4    1  0.7478314E+004  0.6475327E+02  0.7546771E-02  0.1378902E+00
         21   -1    0    0  501  502  0.00000000000E+00  0.00000000000E+00  0.25789410385E+03  0.25789410385E+03  0.00000000000E+00 0.  1.
         21   -1    0    0  502  503 -0.00000000000E+00 -0.00000000000E+00 -0.29447316953E+02  0.29447316953E+02  0.00000000000E+00 0.  1.
          1    1    1    2  501    0  0.42646688630E+02  0.48726233233E+02  0.21037296738E+03  0.22011308743E+03  0.00000000000E+00 0.  1.
         -1    1    1    2    0  503 -0.42646688630E+02 -0.48726233233E+02  0.18073819523E+02  0.67228333374E+02  0.00000000000E+00 0. -1.
<mgrwt>
<rscale>  2 0.64753269E+02</rscale>
<asrwt>0</asrwt>
<pdfrwt beam="1">  1       21 0.39676014E-01 0.64753269E+02</pdfrwt>
<pdfrwt beam="2">  1       21 0.45303566E-02 0.64753269E+02</pdfrwt>
<totfact> 0.18908374E+06</totfact>
</mgrwt>
</event>
<event>
 4    1  0.7478314E+004  0.2395923E+02  0.7546771E-02  0.1676417E+00
         21   -1    0    0  501  502  0.00000000000E+00  0.00000000000E+00  0.33592495348E+02  0.33592495348E+02  0.00000000000E+00 0.  1.
         21   -1    0    0  502  503 -0.00000000000E+00 -0.00000000000E+00 -0.27028599003E+02  0.27028599003E+02  0.00000000000E+00 0.  1.
          1    1    1    2  501    0  0.10496178535E+02 -0.21537752765E+02  0.21663318436E+02  0.32300834721E+02  0.00000000000E+00 0.  1.
         -1    1    1    2    0  503 -0.10496178535E+02  0.21537752765E+02 -0.15099422091E+02  0.28320259630E+02  0.00000000000E+00 0. -1.
<mgrwt>
<rscale>  2 0.23959227E+02</rscale>
<asrwt>0</asrwt>
<pdfrwt beam="1">  1       21 0.51680762E-02 0.23959227E+02</pdfrwt>
<pdfrwt beam="2">  1       21 0.41582460E-02 0.23959227E+02</pdfrwt>
<totfact> 0.65905000E+07</totfact>
</mgrwt>
</event>
<event>
 4    1  0.7478314E+004  0.2067427E+02  0.7546771E-02  0.1732243E+00
         21   -1    0    0  503  502  0.00000000000E+00  0.00000000000E+00  0.55751845498E+03  0.55751845498E+03  0.00000000000E+00 0. -1.
         21   -1    0    0  501  503 -0.00000000000E+00 -0.00000000000E+00 -0.80447795065E+00  0.80447795065E+00  0.00000000000E+00 0. -1.
          2    1    1    2  501    0  0.17045092536E+02 -0.11700011176E+02  0.21782785386E+03  0.21880676260E+03  0.00000000000E+00 0.  1.
         -2    1    1    2    0  502 -0.17045092536E+02  0.11700011176E+02  0.33888612317E+03  0.33951617033E+03  0.00000000000E+00 0. -1.
<mgrwt>
<rscale>  2 0.20674270E+02</rscale>
<asrwt>0</asrwt>
<pdfrwt beam="1">  1       21 0.85771761E-01 0.20674270E+02</pdfrwt>
<pdfrwt beam="2">  1       21 0.12376628E-03 0.20674270E+02</pdfrwt>
<totfact> 0.79507692E+07</totfact>
</mgrwt>
</event>
<event>
 4    1  0.7478314E+004  0.2538083E+02  0.7546771E-02  0.1655591E+00
         21   -1    0    0  501  502  0.00000000000E+00  0.00000000000E+00  0.91386568337E+02  0.91386568337E+02  0.00000000000E+00 0. -1.
         21   -1    0    0  502  503 -0.00000000000E+00 -0.00000000000E+00 -0.71427558164E+01  0.71427558164E+01  0.00000000000E+00 0. -1.
          1    1    1    2  501    0 -0.25345525747E+02  0.13382994090E+01  0.36478637561E+02  0.44439596297E+02  0.00000000000E+00 0. -1.
         -1    1    1    2    0  503  0.25345525747E+02 -0.13382994090E+01  0.47765174959E+02  0.54089727857E+02  0.00000000000E+00 0.  1.
<mgrwt>
<rscale>  2 0.25380834E+02</rscale>
<asrwt>0</asrwt>
<pdfrwt beam="1">  1       21 0.14059471E-01 0.25380834E+02</pdfrwt>
<pdfrwt beam="2">  1       21 0.10988856E-02 0.25380834E+02</pdfrwt>
<totfact> 0.10060333E+08</totfact>
</mgrwt>
</event>
<event>
 4    1  0.7478314E+004  0.2389543E+02  0.7546771E-02  0.1677393E+00
         21   -1    0    0  501  502  0.00000000000E+00  0.00000000000E+00  0.13246232136E+01  0.13246232136E+01  0.00000000000E+00 0. -1.
         21   -1    0    0  502  503 -0.00000000000E+00 -0.00000000000E+00 -0.43118038559E+03  0.43118038559E+03  0.00000000000E+00 0. -1.
          1    1    1    2  501    0  0.22704137162E+02  0.74507653218E+01 -0.21131067194E+03  0.21265745184E+03  0.00000000000E+00 0.  1.
         -1    1    1    2    0  503 -0.22704137162E+02 -0.74507653218E+01 -0.21854509043E+03  0.21984755696E+03  0.00000000000E+00 0. -1.
<mgrwt>
<rscale>  2 0.23895434E+02</rscale>
<asrwt>0</asrwt>
<pdfrwt beam="1">  1       21 0.20378808E-03 0.23895434E+02</pdfrwt>
<pdfrwt beam="2">  1       21 0.66335479E-01 0.23895434E+02</pdfrwt>
<totfact> 0.68595969E+07</totfact>
</mgrwt>
</event>
<event>
 4    1  0.7478314E+004  0.3079823E+02  0.7546771E-02  0.1589429E+00
         21   -1    0    0  501  502  0.00000000000E+00  0.00000000000E+00  0.13935164180E+02  0.13935164180E+02  0.00000000000E+00 0.  1.
         21   -1    0    0  502  503 -0.00000000000E+00 -0.00000000000E+00 -0.68956679089E+02  0.68956679089E+02  0.00000000000E+00 0.  1.
          1    1    1    2  501    0  0.29487283038E+02  0.88899437884E+01 -0.32217308067E+02  0.44570011226E+02  0.00000000000E+00 0. -1.
         -1    1    1    2    0  503 -0.29487283038E+02 -0.88899437884E+01 -0.22804206842E+02  0.38321832044E+02  0.00000000000E+00 0.  1.
<mgrwt>
<rscale>  2 0.30798230E+02</rscale>
<asrwt>0</asrwt>
<pdfrwt beam="1">  1       21 0.21438714E-02 0.30798230E+02</pdfrwt>
<pdfrwt beam="2">  1       21 0.10608720E-01 0.30798230E+02</pdfrwt>
<totfact> 0.60979241E+07</totfact>
</mgrwt>
</event>
<event>
 4    1  0.7478314E+004  0.3627915E+02  0.7546771E-02  0.1537526E+00
         21   -1    0    0  501  502  0.00000000000E+00  0.00000000000E+00  0.18201004298E+03  0.18201004298E+03  0.00000000000E+00 0. -1.
         21   -1    0    0  502  503 -0.00000000000E+00 -0.00000000000E+00 -0.73424894411E+01  0.73424894411E+01  0.00000000000E+00 0. -1.
          2    1    1    2  501    0  0.31680794407E+02 -0.17677787463E+02  0.75685308817E+02  0.83931179394E+02  0.00000000000E+00 0.  1.
         -2    1    1    2    0  503 -0.31680794407E+02  0.17677787463E+02  0.98982244726E+02  0.10542135303E+03  0.00000000000E+00 0. -1.
<mgrwt>
<rscale>  2 0.36279152E+02</rscale>
<asrwt>0</asrwt>
<pdfrwt beam="1">  1       21 0.28001542E-01 0.36279152E+02</pdfrwt>
<pdfrwt beam="2">  1       21 0.11296139E-02 0.36279152E+02</pdfrwt>
<totfact> 0.30911426E+07</totfact>
</mgrwt>
</event>
<event>
 4    1  0.7478314E+004  0.2864326E+02  0.7546771E-02  0.1613589E+00
         21   -1    0    0  501  502  0.00000000000E+00  0.00000000000E+00  0.19115207799E+03  0.19115207799E+03  0.00000000000E+00 0. -1.
         21   -1    0    0  502  503 -0.00000000000E+00 -0.00000000000E+00 -0.42994613786E+01  0.42994613786E+01  0.00000000000E+00 0. -1.
          5    1    1    2  501    0  0.19520399232E+02 -0.20961644802E+02  0.97480501853E+02  0.10160159832E+03  0.00000000000E+00 0.  1.
         -5    1    1    2    0  503 -0.19520399232E+02  0.20961644802E+02  0.89372114756E+02  0.93849941049E+02  0.00000000000E+00 0. -1.
<mgrwt>
<rscale>  2 0.28643263E+02</rscale>
<asrwt>0</asrwt>
<pdfrwt beam="1">  1       21 0.29408005E-01 0.28643263E+02</pdfrwt>
<pdfrwt beam="2">  1       21 0.66145574E-03 0.28643263E+02</pdfrwt>
<totfact> 0.60578940E+07</totfact>
</mgrwt>
</event>
<event>
 4    1  0.7478314E+004  0.2355276E+02  0.7546771E-02  0.1682704E+00
         21   -1    0    0  503  502  0.00000000000E+00  0.00000000000E+00  0.12739741447E+03  0.12739741447E+03  0.00000000000E+00 0. -1.
         21   -1    0    0  501  503 -0.00000000000E+00 -0.00000000000E+00 -0.48009883138E+01  0.48009883138E+01  0.00000000000E+00 0. -1.
          4    1    1    2  501    0 -0.22272098331E+02 -0.76606883287E+01  0.81459139562E+02  0.84795777772E+02  0.00000000000E+00 0. -1.
         -4    1    1    2    0  502  0.22272098331E+02  0.76606883287E+01  0.41137286600E+02  0.47402625017E+02  0.00000000000E+00 0.  1.
<mgrwt>
<rscale>  2 0.23552760E+02</rscale>
<asrwt>0</asrwt>
<pdfrwt beam="1">  1       21 0.19599600E-01 0.23552760E+02</pdfrwt>
<pdfrwt beam="2">  1       21 0.73861368E-03 0.23552760E+02</pdfrwt>
<totfact> 0.10104500E+08</totfact>
</mgrwt>
</event>
<event>
 4    1  0.7478314E+004  0.2314321E+02  0.7546771E-02  0.1689199E+00
         21   -1    0    0  503  502  0.00000000000E+00  0.00000000000E+00  0.11778893116E+02  0.11778893116E+02  0.00000000000E+00 0. -1.
         21   -1    0    0  501  503 -0.00000000000E+00 -0.00000000000E+00 -0.45491315817E+02  0.45491315817E+02  0.00000000000E+00 0. -1.
          5    1    1    2  501    0 -0.22733362209E+02  0.43361950261E+01 -0.16264238227E+02  0.28286636239E+02  0.00000000000E+00 0.  1.
         -5    1    1    2    0  502  0.22733362209E+02 -0.43361950261E+01 -0.17448184475E+02  0.28983572694E+02  0.00000000000E+00 0. -1.
<mgrwt>
<rscale>  2 0.23143214E+02</rscale>
<asrwt>0</asrwt>
<pdfrwt beam="1">  1       21 0.18121374E-02 0.23143214E+02</pdfrwt>
<pdfrwt beam="2">  1       21 0.69986641E-02 0.23143214E+02</pdfrwt>
<totfact> 0.14567509E+08</totfact>
</mgrwt>
</event>
<event>
 4    1  0.7478314E+004  0.2890986E+02  0.7546771E-02  0.1610461E+00
         21   -1    0    0  503  502  0.00000000000E+00  0.00000000000E+00  0.39569233509E+02  0.39569233509E+02  0.00000000000E+00 0.  1.
         21   -1    0    0  501  503 -0.00000000000E+00 -0.00000000000E+00 -0.25848005447E+02  0.25848005447E+02  0.00000000000E+00 0.  1.
          3    1    1    2  501    0 -0.15563750119E+02 -0.24362876089E+02 -0.71255080859E+01  0.29775038448E+02  0.00000000000E+00 0. -1.
         -3    1    1    2    0  502  0.15563750119E+02  0.24362876089E+02  0.20846736147E+02  0.35642200508E+02  0.00000000000E+00 0.  1.
<mgrwt>
<rscale>  2 0.28909861E+02</rscale>
<asrwt>0</asrwt>
<pdfrwt beam="1">  1       21 0.60875744E-02 0.28909861E+02</pdfrwt>
<pdfrwt beam="2">  1       21 0.39766162E-02 0.28909861E+02</pdfrwt>
<totfact> 0.56934939E+07</totfact>
</mgrwt>
</event>
<event>
 4    1  0.7478314E+004  0.2148358E+02  0.7546771E-02  0.1717339E+00
         21   -1    0    0  501  502  0.00000000000E+00  0.00000000000E+00  0.22120815968E+01  0.22120815968E+01  0.00000000000E+00 0. -1.
         21   -1    0    0  502  503 -0.00000000000E+00 -0.00000000000E+00 -0.21538736551E+03  0.21538736551E+03  0.00000000000E+00 0. -1.
          2    1    1    2  501    0 -0.21458621200E+02  0.10352765285E+01 -0.12583445962E+03  0.12765522100E+03  0.00000000000E+00 0.  1.
         -2    1    1    2    0  503  0.21458621200E+02 -0.10352765285E+01 -0.87340824288E+02  0.89944226099E+02  0.00000000000E+00 0. -1.
<mgrwt>
<rscale>  2 0.21483580E+02</rscale>
<asrwt>0</asrwt>
<pdfrwt beam="1">  1       21 0.34032034E-03 0.21483580E+02</pdfrwt>
<pdfrwt beam="2">  1       21 0.33136509E-01 0.21483580E+02</pdfrwt>
<totfact> 0.12080992E+08</totfact>
</mgrwt>
</event>
<event>
 4    1  0.7478314E+004  0.2071080E+02  0.7546771E-02  0.1731552E+00
         21   -1    0    0  503  502  0.00000000000E+00  0.00000000000E+00  0.26649302974E+03  0.26649302974E+03  0.00000000000E+00 0.  1.
         21   -1    0    0  501  503 -0.00000000000E+00 -0.00000000000E+00 -0.16391667551E+01  0.16391667551E+01  0.00000000000E+00 0.  1.
          3    1    1    2  501    0  0.51990831128E+01  0.20047609319E+02  0.15044410839E+03  0.15186298711E+03  0.00000000000E+00 0. -1.
         -3    1    1    2    0  502 -0.51990831128E+01 -0.20047609319E+02  0.11440975460E+03  0.11626920939E+03  0.00000000000E+00 0.  1.
<mgrwt>
<rscale>  2 0.20710797E+02</rscale>
<asrwt>0</asrwt>
<pdfrwt beam="1">  1       21 0.40998893E-01 0.20710797E+02</pdfrwt>
<pdfrwt beam="2">  1       21 0.25217971E-03 0.20710797E+02</pdfrwt>
<totfact> 0.12442878E+08</totfact>
</mgrwt>
</event>
<event>
 4    1  0.7478314E+004  0.2099576E+02  0.7546771E-02  0.1726222E+00
         21   -1    0    0  503  502  0.00000000000E+00  0.00000000000E+00  0.12902994270E+01  0.12902994270E+01  0.00000000000E+00 0. -1.
         21   -1    0    0  501  503 -0.00000000000E+00 -0.00000000000E+00 -0.37391668173E+03  0.37391668173E+03  0.00000000000E+00 0. -1.
          5    1    1    2  501    0 -0.16243179600E+02 -0.13303426458E+02 -0.13119736365E+03  0.13286673876E+03  0.00000000000E+00 0.  1.
         -5    1    1    2    0  502  0.16243179600E+02  0.13303426458E+02 -0.24142901866E+03  0.24234024241E+03  0.00000000000E+00 0. -1.
<mgrwt>
<rscale>  2 0.20995762E+02</rscale>
<asrwt>0</asrwt>
<pdfrwt beam="1">  1       21 0.19850770E-03 0.20995762E+02</pdfrwt>
<pdfrwt beam="2">  1       21 0.57525616E-01 0.20995762E+02</pdfrwt>
<totfact> 0.91811187E+07</totfact>
</mgrwt>
</event>
<event>
 4    1  0.7478314E+004  0.2002619E+02  0.7546771E-02  0.1744808E+00
         21   -1    0    0  501  502  0.00000000000E+00  0.00000000000E+00  0.75971012490E+01  0.75971012490E+01  0.00000000000E+00 0. -1.
         21   -1    0    0  502  503 -0.00000000000E+00 -0.00000000000E+00 -0.54122967620E+02  0.54122967620E+02  0.00000000000E+00 0. -1.
          2    1    1    2  501    0 -0.17822693753E+02  0.91323466460E+01 -0.18419251563E+02  0.27208766896E+02  0.00000000000E+00 0.  1.
         -2    1    1    2    0  503  0.17822693753E+02 -0.91323466460E+01 -0.28106614809E+02  0.34511301973E+02  0.00000000000E+00 0. -1.
<mgrwt>
<rscale>  2 0.20026187E+02</rscale>
<asrwt>0</asrwt>
<pdfrwt beam="1">  1       21 0.11687847E-02 0.20026187E+02</pdfrwt>
<pdfrwt beam="2">  1       21 0.83266110E-02 0.20026187E+02</pdfrwt>
<totfact> 0.20409554E+08</totfact>
</mgrwt>
</event>
<event>
 4    1  0.7478314E+004  0.2562029E+02  0.7546771E-02  0.1652249E+00
         21   -1    0    0  501  502  0.00000000000E+00  0.00000000000E+00  0.59353724123E+02  0.59353724123E+02  0.00000000000E+00 0.  1.
         21   -1    0    0  502  503 -0.00000000000E+00 -0.00000000000E+00 -0.11197003697E+02  0.11197003697E+02  0.00000000000E+00 0.  1.
          3    1    1    2  501    0 -0.95830303291E+01 -0.23760572510E+02  0.20163690489E+02  0.32603277295E+02  0.00000000000E+00 0.  1.
         -3    1    1    2    0  503  0.95830303291E+01  0.23760572510E+02  0.27993029937E+02  0.37947450525E+02  0.00000000000E+00 0. -1.
<mgrwt>
<rscale>  2 0.25620290E+02</rscale>
<asrwt>0</asrwt>
<pdfrwt beam="1">  1       21 0.91313420E-02 0.25620290E+02</pdfrwt>
<pdfrwt beam="2">  1       21 0.17226160E-02 0.25620290E+02</pdfrwt>
<totfact> 0.10486641E+08</totfact>
</mgrwt>
</event>
<event>
 4    1  0.7478314E+004  0.2024938E+02  0.7546771E-02  0.1740414E+00
         21   -1    0    0  503  502  0.00000000000E+00  0.00000000000E+00  0.22053309550E+03  0.22053309550E+03  0.00000000000E+00 0. -1.
         21   -1    0    0  501  503 -0.00000000000E+00 -0.00000000000E+00 -0.19336861503E+01  0.19336861503E+01  0.00000000000E+00 0. -1.
          3    1    1    2  501    0 -0.11337626328E+02 -0.16777827466E+02  0.13111630902E+03  0.13267073436E+03  0.00000000000E+00 0. -1.
         -3    1    1    2    0  502  0.11337626328E+02  0.16777827466E+02  0.87483100325E+02  0.89796047283E+02  0.00000000000E+00 0.  1.
<mgrwt>
<rscale>  2 0.20249377E+02</rscale>
<asrwt>0</asrwt>
<pdfrwt beam="1">  1       21 0.33928149E-01 0.20249377E+02</pdfrwt>
<pdfrwt beam="2">  1       21 0.29749035E-03 0.20249377E+02</pdfrwt>
<totfact> 0.13833163E+08</totfact>
</mgrwt>
</event>
<event>
 4    1  0.7478314E+004  0.2980248E+02  0.7546771E-02  0.1600282E+00
         21   -1    0    0  503  502  0.00000000000E+00  0.00000000000E+00  0.78182726346E+02  0.78182726346E+02  0.00000000000E+00 0.  1.
         21   -1    0    0  501  503 -0.00000000000E+00 -0.00000000000E+00 -0.18661345127E+02  0.18661345127E+02  0.00000000000E+00 0.  1.
          2    1    1    2  501    0 -0.11646976598E+02 -0.27432384448E+02 -0.52662852113E+00  0.29807131999E+02  0.00000000000E+00 0.  1.
         -2    1    1    2    0  502  0.11646976598E+02  0.27432384448E+02  0.60048009740E+02  0.67036939475E+02  0.00000000000E+00 0. -1.
<mgrwt>
<rscale>  2 0.29802479E+02</rscale>
<asrwt>0</asrwt>
<pdfrwt beam="1">  1       21 0.12028112E-01 0.29802479E+02</pdfrwt>
<pdfrwt beam="2">  1       21 0.28709762E-02 0.29802479E+02</pdfrwt>
<totfact> 0.31059116E+07</totfact>
</mgrwt>
</event>
<event>
 4    1  0.7478314E+004  0.3480663E+02  0.7546771E-02  0.1550324E+00
         21   -1    0    0  503  502  0.00000000000E+00  0.00000000000E+00  0.18332772019E+02  0.18332772019E+02  0.00000000000E+00 0. -1.
         21   -1    0    0  501  503 -0.00000000000E+00 -0.00000000000E+00 -0.66169648117E+02  0.66169648117E+02  0.00000000000E+00 0. -1.
          4    1    1    2  501    0  0.47199529112E+01 -0.34485116592E+02 -0.22397535278E+02  0.41390226000E+02  0.00000000000E+00 0. -1.
         -4    1    1    2    0  502 -0.47199529112E+01  0.34485116592E+02 -0.25439340820E+02  0.43112194136E+02  0.00000000000E+00 0.  1.
<mgrwt>
<rscale>  2 0.34806626E+02</rscale>
<asrwt>0</asrwt>
<pdfrwt beam="1">  1       21 0.28204265E-02 0.34806626E+02</pdfrwt>
<pdfrwt beam="2">  1       21 0.10179946E-01 0.34806626E+02</pdfrwt>
<totfact> 0.43668995E+07</totfact>
</mgrwt>
</event>
<event>
 4    1  0.7478314E+004  0.2875868E+02  0.7546771E-02  0.1612229E+00
         21   -1    0    0  503  502  0.00000000000E+00  0.00000000000E+00  0.80365567364E+01  0.80365567364E+01  0.00000000000E+00 0.  1.
         21   -1    0    0  501  503 -0.00000000000E+00 -0.00000000000E+00 -0.11336538049E+03  0.11336538049E+03  0.00000000000E+00 0.  1.
          5    1    1    2  501    0 -0.19280755627E+02  0.21338089687E+02 -0.71096510036E+02  0.76692733348E+02  0.00000000000E+00 0.  1.
         -5    1    1    2    0  502  0.19280755627E+02 -0.21338089687E+02 -0.34232313720E+02  0.44709203881E+02  0.00000000000E+00 0. -1.
<mgrwt>
<rscale>  2 0.28758679E+02</rscale>
<asrwt>0</asrwt>
<pdfrwt beam="1">  1       21 0.12363934E-02 0.28758679E+02</pdfrwt>
<pdfrwt beam="2">  1       21 0.17440827E-01 0.28758679E+02</pdfrwt>
<totfact> 0.59884294E+07</totfact>
</mgrwt>
</event>
<event>
 4    1  0.7478314E+004  0.7779130E+02  0.7546771E-02  0.1335439E+00
         21   -1    0    0  503  502  0.00000000000E+00  0.00000000000E+00  0.22693810650E+02  0.22693810650E+02  0.00000000000E+00 0. -1.
         21   -1    0    0  501  503 -0.00000000000E+00 -0.00000000000E+00 -0.27806233917E+03  0.27806233917E+03  0.00000000000E+00 0. -1.
          1    1    1    2  501    0 -0.77740311873E+02  0.28161800411E+01 -0.15813850849E+03  0.17623641743E+03  0.00000000000E+00 0.  1.
         -1    1    1    2    0  502  0.77740311873E+02 -0.28161800411E+01 -0.97230020024E+02  0.12451973239E+03  0.00000000000E+00 0. -1.
<mgrwt>
<rscale>  2 0.77791304E+02</rscale>
<asrwt>0</asrwt>
<pdfrwt beam="1">  1       21 0.34913557E-02 0.77791304E+02</pdfrwt>
<pdfrwt beam="2">  1       21 0.42778819E-01 0.77791304E+02</pdfrwt>
<totfact> 0.25177277E+06</totfact>
</mgrwt>
</event>
<event>
 4    1  0.7478314E+004  0.3533685E+02  0.7546771E-02  0.1545629E+00
         21   -1    0    0  503  502  0.00000000000E+00  0.00000000000E+00  0.39171394109E+02  0.39171394109E+02  0.00000000000E+00 0. -1.
         21   -1    0    0  501  503 -0.00000000000E+00 -0.00000000000E+00 -0.32021914392E+02  0.32021914392E+02  0.00000000000E+00 0. -1.
          2    1    1    2  501    0  0.33820468629E+02  0.10240534700E+02  0.59638701252E+01  0.35836579024E+02  0.00000000000E+00 0. -1.
         -2    1    1    2    0  502 -0.33820468629E+02 -0.10240534700E+02  0.11856095923E+01  0.35356729478E+02  0.00000000000E+00 0.  1.
<mgrwt>
<rscale>  2 0.35336845E+02</rscale>
<asrwt>0</asrwt>
<pdfrwt beam="1">  1       21 0.60263683E-02 0.35336845E+02</pdfrwt>
<pdfrwt beam="2">  1       21 0.49264484E-02 0.35336845E+02</pdfrwt>
<totfact> 0.42878212E+07</totfact>
</mgrwt>
</event>
<event>
 4    1  0.7478314E+004  0.2215021E+02  0.7546771E-02  0.1705667E+00
         21   -1    0    0  501  502  0.00000000000E+00  0.00000000000E+00  0.11620298301E+02  0.11620298301E+02  0.00000000000E+00 0.  1.
         21   -1    0    0  502  503 -0.00000000000E+00 -0.00000000000E+00 -0.42417379980E+02  0.42417379980E+02  0.00000000000E+00 0.  1.
          5    1    1    2  501    0  0.20520829895E+02  0.83382990833E+01 -0.13564593813E+02  0.25973638492E+02  0.00000000000E+00 0.  1.
         -5    1    1    2    0  503 -0.20520829895E+02 -0.83382990833E+01 -0.17232487866E+02  0.28064039789E+02  0.00000000000E+00 0. -1.
<mgrwt>
<rscale>  2 0.22150207E+02</rscale>
<asrwt>0</asrwt>
<pdfrwt beam="1">  1       21 0.17877382E-02 0.22150207E+02</pdfrwt>
<pdfrwt beam="2">  1       21 0.65257507E-02 0.22150207E+02</pdfrwt>
<totfact> 0.16430796E+08</totfact>
</mgrwt>
</event>
<event>
 4    1  0.7478314E+004  0.2097809E+02  0.7546771E-02  0.1726549E+00
         21   -1    0    0  501  502  0.00000000000E+00  0.00000000000E+00  0.66749726696E+00  0.66749726696E+00  0.00000000000E+00 0. -1.
         21   -1    0    0  502  503 -0.00000000000E+00 -0.00000000000E+00 -0.76114322933E+03  0.76114322933E+03  0.00000000000E+00 0. -1.
          4    1    1    2  501    0  0.18969858906E+02  0.89568168467E+01 -0.24090529987E+03  0.24181696305E+03  0.00000000000E+00 0.  1.
         -4    1    1    2    0  503 -0.18969858906E+02 -0.89568168467E+01 -0.51957043220E+03  0.51999376355E+03  0.00000000000E+00 0. -1.
<mgrwt>
<rscale>  2 0.20978087E+02</rscale>
<asrwt>0</asrwt>
<pdfrwt beam="1">  1       21 0.10269202E-03 0.20978087E+02</pdfrwt>
<pdfrwt beam="2">  1       21 0.11709881E+00 0.20978087E+02</pdfrwt>
<totfact> 0.52827824E+07</totfact>
</mgrwt>
</event>
<event>
 4    1  0.7478314E+004  0.2134813E+02  0.7546771E-02  0.1719776E+00
         21   -1    0    0  501  502  0.00000000000E+00  0.00000000000E+00  0.87605016165E+00  0.87605016165E+00  0.00000000000E+00 0. -1.
         21   -1    0    0  502  503 -0.00000000000E+00 -0.00000000000E+00 -0.66104050201E+03  0.66104050201E+03  0.00000000000E+00 0. -1.
          1    1    1    2  501    0 -0.16034350633E+02 -0.14094057736E+02 -0.17733088598E+03  0.17861127060E+03  0.00000000000E+00 0.  1.
         -1    1    1    2    0  503  0.16034350633E+02  0.14094057736E+02 -0.48283356587E+03  0.48330528157E+03  0.00000000000E+00 0. -1.
<mgrwt>
<rscale>  2 0.21348135E+02</rscale>
<asrwt>0</asrwt>
<pdfrwt beam="1">  1       21 0.13477726E-03 0.21348135E+02</pdfrwt>
<pdfrwt beam="2">  1       21 0.10169831E+00 0.21348135E+02</pdfrwt>
<totfact> 0.49206207E+07</totfact>
</mgrwt>
</event>
<event>
 4    1  0.7478314E+004  0.2192128E+02  0.7546771E-02  0.1709617E+00
         21   -1    0    0  501  502  0.00000000000E+00  0.00000000000E+00  0.38719148813E+01  0.38719148813E+01  0.00000000000E+00 0.  1.
         21   -1    0    0  502  503 -0.00000000000E+00 -0.00000000000E+00 -0.13018327614E+03  0.13018327614E+03  0.00000000000E+00 0.  1.
          3    1    1    2  501    0 -0.20917627099E+02 -0.65571032218E+01 -0.48678187366E+02  0.53386408863E+02  0.00000000000E+00 0. -1.
         -3    1    1    2    0  503  0.20917627099E+02  0.65571032218E+01 -0.77633173891E+02  0.80668782156E+02  0.00000000000E+00 0.  1.
<mgrwt>
<rscale>  2 0.21921285E+02</rscale>
<asrwt>0</asrwt>
<pdfrwt beam="1">  1       21 0.59567919E-03 0.21921285E+02</pdfrwt>
<pdfrwt beam="2">  1       21 0.20028197E-01 0.21921285E+02</pdfrwt>
<totfact> 0.13122995E+08</totfact>
</mgrwt>
</event>
<event>
 4    1  0.7478314E+004  0.2933519E+02  0.7546771E-02  0.1605556E+00
         21   -1    0    0  503  502  0.00000000000E+00  0.00000000000E+00  0.46161557538E+01  0.46161557538E+01  0.00000000000E+00 0.  1.
         21   -1    0    0  501  503 -0.00000000000E+00 -0.00000000000E+00 -0.18897862901E+03  0.18897862901E+03  0.00000000000E+00 0.  1.
          3    1    1    2  501    0  0.24122656336E+02  0.16692832785E+02 -0.10343990399E+03  0.10751914691E+03  0.00000000000E+00 0.  1.
         -3    1    1    2    0  502 -0.24122656336E+02 -0.16692832785E+02 -0.80922569268E+02  0.86075637854E+02  0.00000000000E+00 0. -1.
<mgrwt>
<rscale>  2 0.29335187E+02</rscale>
<asrwt>0</asrwt>
<pdfrwt beam="1">  1       21 0.71017812E-03 0.29335187E+02</pdfrwt>
<pdfrwt beam="2">  1       21 0.29073622E-01 0.29335187E+02</pdfrwt>
<totfact> 0.55910840E+07</totfact>
</mgrwt>
</event>
<event>
 4    1  0.7478314E+004  0.2890198E+02  0.7546771E-02  0.1610553E+00
         21   -1    0    0  503  502  0.00000000000E+00  0.00000000000E+00  0.54567880944E+03  0.54567880944E+03  0.00000000000E+00 0.  1.
         21   -1    0    0  501  503 -0.00000000000E+00 -0.00000000000E+00 -0.15694637903E+01  0.15694637903E+01  0.00000000000E+00 0.  1.
          3    1    1    2  501    0  0.25828649979E+02  0.12969389771E+02  0.22910695070E+03  0.23092275568E+03  0.00000000000E+00 0.  1.
         -3    1    1    2    0  502 -0.25828649979E+02 -0.12969389771E+02  0.31500239495E+03  0.31632551755E+03  0.00000000000E+00 0. -1.
<mgrwt>
<rscale>  2 0.28901976E+02</rscale>
<asrwt>0</asrwt>
<pdfrwt beam="1">  1       21 0.83950435E-01 0.28901976E+02</pdfrwt>
<pdfrwt beam="2">  1       21 0.24145640E-03 0.28901976E+02</pdfrwt>
<totfact> 0.34132352E+07</totfact>
</mgrwt>
</event>
<event>
 4    1  0.7478314E+004  0.4531198E+02  0.7546771E-02  0.1472403E+00
         21   -1    0    0  501  502  0.00000000000E+00  0.00000000000E+00  0.54917877388E+02  0.54917877388E+02  0.00000000000E+00 0. -1.
         21   -1    0    0  502  503 -0.00000000000E+00 -0.00000000000E+00 -0.39200434329E+02  0.39200434329E+02  0.00000000000E+00 0. -1.
          1    1    1    2  501    0  0.45255503869E+02  0.22616493145E+01 -0.22648700426E+01  0.45368549948E+02  0.00000000000E+00 0. -1.
         -1    1    1    2    0  503 -0.45255503869E+02 -0.22616493145E+01  0.17982313102E+02  0.48749761769E+02  0.00000000000E+00 0.  1.
<mgrwt>
<rscale>  2 0.45311982E+02</rscale>
<asrwt>0</asrwt>
<pdfrwt beam="1">  1       21 0.84489042E-02 0.45311982E+02</pdfrwt>
<pdfrwt beam="2">  1       21 0.60308360E-02 0.45311982E+02</pdfrwt>
<totfact> 0.18389251E+07</totfact>
</mgrwt>
</event>
<event>
 4    1  0.7478314E+004  0.3578817E+02  0.7546771E-02  0.1541711E+00
         21   -1    0    0  501  502  0.00000000000E+00  0.00000000000E+00  0.18476666919E+02  0.18476666919E+02  0.00000000000E+00 0.  1.
         21   -1    0    0  502  503 -0.00000000000E+00 -0.00000000000E+00 -0.69746487687E+02  0.69746487687E+02  0.00000000000E+00 0.  1.
          2    1    1    2  501    0 -0.31370027632E+02  0.17225401780E+02 -0.22183433749E+02  0.42105793343E+02  0.00000000000E+00 0.  1.
         -2    1    1    2    0  503  0.31370027632E+02 -0.17225401780E+02 -0.29086387019E+02  0.46117361264E+02  0.00000000000E+00 0. -1.
<mgrwt>
<rscale>  2 0.35788170E+02</rscale>
<asrwt>0</asrwt>
<pdfrwt beam="1">  1       21 0.28425641E-02 0.35788170E+02</pdfrwt>
<pdfrwt beam="2">  1       21 0.10730229E-01 0.35788170E+02</pdfrwt>
<totfact> 0.39688573E+07</totfact>
</mgrwt>
</event>
<event>
 4    1  0.7478314E+004  0.2108903E+02  0.7546771E-02  0.1724500E+00
         21   -1    0    0  503  502  0.00000000000E+00  0.00000000000E+00  0.17072873980E+01  0.17072873980E+01  0.00000000000E+00 0. -1.
         21   -1    0    0  501  503 -0.00000000000E+00 -0.00000000000E+00 -0.26214307154E+03  0.26214307154E+03  0.00000000000E+00 0. -1.
          2    1    1    2  501    0  0.72887430953E+01  0.19789421983E+02 -0.11977086615E+03  0.12161335197E+03  0.00000000000E+00 0. -1.
         -2    1    1    2    0  502 -0.72887430953E+01 -0.19789421983E+02 -0.14066491799E+03  0.14223700697E+03  0.00000000000E+00 0.  1.
<mgrwt>
<rscale>  2 0.21089026E+02</rscale>
<asrwt>0</asrwt>
<pdfrwt beam="1">  1       21 0.26265974E-03 0.21089026E+02</pdfrwt>
<pdfrwt beam="2">  1       21 0.40329682E-01 0.21089026E+02</pdfrwt>
<totfact> 0.12160932E+08</totfact>
</mgrwt>
</event>
<event>
 4    1  0.7478314E+004  0.2561301E+02  0.7546771E-02  0.1652350E+00
         21   -1    0    0  501  502  0.00000000000E+00  0.00000000000E+00  0.12848367748E+03  0.12848367748E+03  0.00000000000E+00 0. -1.
         21   -1    0    0  502  503 -0.00000000000E+00 -0.00000000000E+00 -0.51082315372E+01  0.51082315372E+01  0.00000000000E+00 0. -1.
          5    1    1    2  501    0 -0.22009921724E+02 -0.13099225534E+02  0.60264392092E+02  0.65481473091E+02  0.00000000000E+00 0. -1.
         -5    1    1    2    0  503  0.22009921724E+02  0.13099225534E+02  0.63111053846E+02  0.68110435922E+02  0.00000000000E+00 0.  1.
<mgrwt>
<rscale>  2 0.25613012E+02</rscale>
<asrwt>0</asrwt>
<pdfrwt beam="1">  1       21 0.19766717E-01 0.25613012E+02</pdfrwt>
<pdfrwt beam="2">  1       21 0.78588187E-03 0.25613012E+02</pdfrwt>
<totfact> 0.92766727E+07</totfact>
</mgrwt>
</event>
<event>
 4    1  0.7478314E+004  0.2686309E+02  0.7546771E-02  0.1635599E+00
         21   -1    0    0  503  502  0.00000000000E+00  0.00000000000E+00  0.53344124314E+02  0.53344124314E+02  0.00000000000E+00 0. -1.
         21   -1    0    0  501  503 -0.00000000000E+00 -0.00000000000E+00 -0.16282099854E+02  0.16282099854E+02  0.00000000000E+00 0. -1.
          4    1    1    2  501    0 -0.24028585985E+02 -0.12010528457E+02  0.32849512985E+02  0.42434847020E+02  0.00000000000E+00 0. -1.
         -4    1    1    2    0  502  0.24028585985E+02  0.12010528457E+02  0.42125114750E+01  0.27191377148E+02  0.00000000000E+00 0.  1.
<mgrwt>
<rscale>  2 0.26863092E+02</rscale>
<asrwt>0</asrwt>
<pdfrwt beam="1">  1       21 0.82067883E-02 0.26863092E+02</pdfrwt>
<pdfrwt beam="2">  1       21 0.25049385E-02 0.26863092E+02</pdfrwt>
<totfact> 0.71001039E+07</totfact>
</mgrwt>
</event>
<event>
 4    1  0.7478314E+004  0.3237453E+02  0.7546771E-02  0.1573233E+00
         21   -1    0    0  503  502  0.00000000000E+00  0.00000000000E+00  0.15079904868E+04  0.15079904868E+04  0.00000000000E+00 0. -1.
         21   -1    0    0  501  503 -0.00000000000E+00 -0.00000000000E+00 -0.88822829255E+00  0.88822829255E+00  0.00000000000E+00 0. -1.
          5    1    1    2  501    0 -0.17019126260E+02  0.27540141830E+02  0.11053991793E+04  0.11058731643E+04  0.00000000000E+00 0.  1.
         -5    1    1    2    0  502  0.17019126260E+02 -0.27540141830E+02  0.40170307925E+03  0.40300555077E+03  0.00000000000E+00 0. -1.
<mgrwt>
<rscale>  2 0.32374528E+02</rscale>
<asrwt>0</asrwt>
<pdfrwt beam="1">  1       21 0.23199649E+00 0.32374528E+02</pdfrwt>
<pdfrwt beam="2">  1       21 0.13665171E-03 0.32374528E+02</pdfrwt>
<totfact> 0.68686387E+06</totfact>
</mgrwt>
</event>
<event>
 4    1  0.7478314E+004  0.2209601E+02  0.7546771E-02  0.1706597E+00
         21   -1    0    0  501  502  0.00000000000E+00  0.00000000000E+00  0.14453551095E+03  0.14453551095E+03  0.00000000000E+00 0. -1.
         21   -1    0    0  502  503 -0.00000000000E+00 -0.00000000000E+00 -0.46763480552E+01  0.46763480552E+01  0.00000000000E+00 0. -1.
          5    1    1    2  501    0  0.20452802149E+02  0.83616186472E+01  0.30617702793E+02  0.37758144902E+02  0.00000000000E+00 0.  1.
         -5    1    1    2    0  503 -0.20452802149E+02 -0.83616186472E+01  0.10924146010E+03  0.11145371410E+03  0.00000000000E+00 0. -1.
<mgrwt>
<rscale>  2 0.22096013E+02</rscale>
<asrwt>0</asrwt>
<pdfrwt beam="1">  1       21 0.22236229E-01 0.22096013E+02</pdfrwt>
<pdfrwt beam="2">  1       21 0.71943827E-03 0.22096013E+02</pdfrwt>
<totfact> 0.82784930E+07</totfact>
</mgrwt>
</event>
<event>
 4    1  0.7478314E+004  0.2047179E+02  0.7546771E-02  0.1736105E+00
         21   -1    0    0  501  502  0.00000000000E+00  0.00000000000E+00  0.28475680194E+03  0.28475680194E+03  0.00000000000E+00 0. -1.
         21   -1    0    0  502  503 -0.00000000000E+00 -0.00000000000E+00 -0.14857635507E+01  0.14857635507E+01  0.00000000000E+00 0. -1.
          5    1    1    2  501    0  0.29637875779E+01 -0.20256117199E+02  0.15552906370E+03  0.15687059627E+03  0.00000000000E+00 0. -1.
         -5    1    1    2    0  503 -0.29637875779E+01  0.20256117199E+02  0.12774197470E+03  0.12937196922E+03  0.00000000000E+00 0.  1.
<mgrwt>
<rscale>  2 0.20471793E+02</rscale>
<asrwt>0</asrwt>
<pdfrwt beam="1">  1       21 0.43808696E-01 0.20471793E+02</pdfrwt>
<pdfrwt beam="2">  1       21 0.22857923E-03 0.20471793E+02</pdfrwt>
<totfact> 0.12610471E+08</totfact>
</mgrwt>
</event>
<event>
 4    1  0.7478314E+004  0.2497377E+02  0.7546771E-02  0.1661379E+00
         21   -1    0    0  501  502  0.00000000000E+00  0.00000000000E+00  0.12644794857E+04  0.12644794857E+04  0.00000000000E+00 0. -1.
         21   -1    0    0  502  503 -0.00000000000E+00 -0.00000000000E+00 -0.55439521819E+00  0.55439521819E+00  0.00000000000E+00 0. -1.
          2    1    1    2  501    0  0.12568800000E+02  0.21580419555E+02  0.42188165916E+03  0.42262018832E+03  0.00000000000E+00 0. -1.
         -2    1    1    2    0  503 -0.12568800000E+02 -0.21580419555E+02  0.84204343133E+03  0.84241369260E+03  0.00000000000E+00 0.  1.
<mgrwt>
<rscale>  2 0.24973771E+02</rscale>
<asrwt>0</asrwt>
<pdfrwt beam="1">  1       21 0.19453300E+00 0.24973771E+02</pdfrwt>
<pdfrwt beam="2">  1       21 0.85292584E-04 0.24973771E+02</pdfrwt>
<totfact> 0.21168183E+07</totfact>
</mgrwt>
</event>
<event>
 4    1  0.7478314E+004  0.2181167E+02  0.7546771E-02  0.1711530E+00
         21   -1    0    0  501  502  0.00000000000E+00  0.00000000000E+00  0.13321932273E+03  0.13321932273E+03  0.00000000000E+00 0.  1.
         21   -1    0    0  502  503 -0.00000000000E+00 -0.00000000000E+00 -0.36246184519E+01  0.36246184519E+01  0.00000000000E+00 0.  1.
          3    1    1    2  501    0 -0.21617696592E+02 -0.29024455425E+01  0.73105945462E+02  0.76290420487E+02  0.00000000000E+00 0. -1.
         -3    1    1    2    0  503  0.21617696592E+02  0.29024455425E+01  0.56488758820E+02  0.60553520699E+02  0.00000000000E+00 0.  1.
<mgrwt>
<rscale>  2 0.21811671E+02</rscale>
<asrwt>0</asrwt>
<pdfrwt beam="1">  1       21 0.20495277E-01 0.21811671E+02</pdfrwt>
<pdfrwt beam="2">  1       21 0.55763371E-03 0.21811671E+02</pdfrwt>
<totfact> 0.13877112E+08</totfact>
</mgrwt>
</event>
<event>
 4    1  0.7478314E+004  0.2373558E+02  0.7546771E-02  0.1679857E+00
         21   -1    0    0  501  502  0.00000000000E+00  0.00000000000E+00  0.49511572531E+02  0.49511572531E+02  0.00000000000E+00 0.  1.
         21   -1    0    0  502  503 -0.00000000000E+00 -0.00000000000E+00 -0.11456838464E+02  0.11456838464E+02  0.00000000000E+00 0.  1.
          2    1    1    2  501    0 -0.96541093469E+01 -0.21683535405E+02  0.16509902050E+02  0.28912876036E+02  0.00000000000E+00 0. -1.
         -2    1    1    2    0  503  0.96541093469E+01  0.21683535405E+02  0.21544832016E+02  0.32055534959E+02  0.00000000000E+00 0.  1.
<mgrwt>
<rscale>  2 0.23735575E+02</rscale>
<asrwt>0</asrwt>
<pdfrwt beam="1">  1       21 0.76171649E-02 0.23735575E+02</pdfrwt>
<pdfrwt beam="2">  1       21 0.17625906E-02 0.23735575E+02</pdfrwt>
<totfact> 0.13345353E+08</totfact>
</mgrwt>
</event>
<event>
 4    1  0.7478314E+004  0.2444820E+02  0.7546771E-02  0.1669056E+00
         21   -1    0    0  503  502  0.00000000000E+00  0.00000000000E+00  0.22757628186E+03  0.22757628186E+03  0.00000000000E+00 0. -1.
         21   -1    0    0  501  503 -0.00000000000E+00 -0.00000000000E+00 -0.26464140672E+01  0.26464140672E+01  0.00000000000E+00 0. -1.
          2    1    1    2  501    0 -0.18925759937E+02  0.15476753642E+02  0.12246672477E+03  0.12488319731E+03  0.00000000000E+00 0. -1.
         -2    1    1    2    0  502  0.18925759937E+02 -0.15476753642E+02  0.10246314302E+03  0.10533949863E+03  0.00000000000E+00 0.  1.
<mgrwt>
<rscale>  2 0.24448196E+02</rscale>
<asrwt>0</asrwt>
<pdfrwt beam="1">  1       21 0.35011720E-01 0.24448196E+02</pdfrwt>
<pdfrwt beam="2">  1       21 0.40714081E-03 0.24448196E+02</pdfrwt>
<totfact> 0.86900639E+07</totfact>
</mgrwt>
</event>
<event>
 4    1  0.7478314E+004  0.5475222E+02  0.7546771E-02  0.1421274E+00
         21   -1    0    0  503  502  0.00000000000E+00  0.00000000000E+00  0.40953777059E+02  0.40953777059E+02  0.00000000000E+00 0.  1.
         21   -1    0    0  501  503 -0.00000000000E+00 -0.00000000000E+00 -0.83556492887E+02  0.83556492887E+02  0.00000000000E+00 0.  1.
          4    1    1    2  501    0  0.45505708227E+02 -0.30447265014E+02 -0.43219164577E+02  0.69754581317E+02  0.00000000000E+00 0.  1.
         -4    1    1    2    0  502 -0.45505708227E+02  0.30447265014E+02  0.61644874873E+00  0.54755688628E+02  0.00000000000E+00 0. -1.
<mgrwt>
<rscale>  2 0.54752218E+02</rscale>
<asrwt>0</asrwt>
<pdfrwt beam="1">  1       21 0.63005811E-02 0.54752218E+02</pdfrwt>
<pdfrwt beam="2">  1       21 0.12854845E-01 0.54752218E+02</pdfrwt>
<totfact> 0.85601420E+06</totfact>
</mgrwt>
</event>
<event>
 4    1  0.7478314E+004  0.3455213E+02  0.7546771E-02  0.1552614E+00
         21   -1    0    0  501  502  0.00000000000E+00  0.00000000000E+00  0.46774181612E+03  0.46774181612E+03  0.00000000000E+00 0. -1.
         21   -1    0    0  502  503 -0.00000000000E+00 -0.00000000000E+00 -0.28668359776E+01  0.28668359776E+01  0.00000000000E+00 0. -1.
          3    1    1    2  501    0  0.27052770448E+02 -0.21494126239E+02  0.31036948705E+03  0.31228683664E+03  0.00000000000E+00 0. -1.
         -3    1    1    2    0  503 -0.27052770448E+02  0.21494126239E+02  0.15450549310E+03  0.15832181546E+03  0.00000000000E+00 0.  1.
<mgrwt>
<rscale>  2 0.34552132E+02</rscale>
<asrwt>0</asrwt>
<pdfrwt beam="1">  1       21 0.71960219E-01 0.34552132E+02</pdfrwt>
<pdfrwt beam="2">  1       21 0.44105206E-03 0.34552132E+02</pdfrwt>
<totfact> 0.20039652E+07</totfact>
</mgrwt>
</event>
<event>
 4    1  0.7478314E+004  0.2188392E+02  0.7546771E-02  0.1710267E+00
         21   -1    0    0  503  502  0.00000000000E+00  0.00000000000E+00  0.39680302414E+01  0.39680302414E+01  0.00000000000E+00 0.  1.
         21   -1    0    0  501  503 -0.00000000000E+00 -0.00000000000E+00 -0.13191753642E+03  0.13191753642E+03  0.00000000000E+00 0.  1.
          3    1    1    2  501    0 -0.69719277347E+01  0.20743630153E+02 -0.44154332549E+02  0.49279925438E+02  0.00000000000E+00 0.  1.
         -3    1    1    2    0  502  0.69719277347E+01 -0.20743630153E+02 -0.83795173630E+02  0.86605641225E+02  0.00000000000E+00 0. -1.
<mgrwt>
<rscale>  2 0.21883920E+02</rscale>
<asrwt>0</asrwt>
<pdfrwt beam="1">  1       21 0.61046612E-03 0.21883920E+02</pdfrwt>
<pdfrwt beam="2">  1       21 0.20295008E-01 0.21883920E+02</pdfrwt>
<totfact> 0.12360943E+08</totfact>
</mgrwt>
</event>
<event>
 4    1  0.7478314E+004  0.2718311E+02  0.7546771E-02  0.1631490E+00
         21   -1    0    0  503  502  0.00000000000E+00  0.00000000000E+00  0.71257384899E+02  0.71257384899E+02  0.00000000000E+00 0. -1.
         21   -1    0    0  501  503 -0.00000000000E+00 -0.00000000000E+00 -0.10888454318E+02  0.10888454318E+02  0.00000000000E+00 0. -1.
          4    1    1    2  501    0  0.57923306223E+01  0.26558810639E+02  0.21219865131E+02  0.34484840042E+02  0.00000000000E+00 0. -1.
         -4    1    1    2    0  502 -0.57923306223E+01 -0.26558810639E+02  0.39149065450E+02  0.47660999174E+02  0.00000000000E+00 0.  1.
<mgrwt>
<rscale>  2 0.27183111E+02</rscale>
<asrwt>0</asrwt>
<pdfrwt beam="1">  1       21 0.10962674E-01 0.27183111E+02</pdfrwt>
<pdfrwt beam="2">  1       21 0.16751469E-02 0.27183111E+02</pdfrwt>
<totfact> 0.82000004E+07</totfact>
</mgrwt>
</event>
<event>
 4    1  0.7478314E+004  0.2012063E+02  0.7546771E-02  0.1742940E+00
         21   -1    0    0  501  502  0.00000000000E+00  0.00000000000E+00  0.15848101616E+04  0.15848101616E+04  0.00000000000E+00 0. -1.
         21   -1    0    0  502  503 -0.00000000000E+00 -0.00000000000E+00 -0.27726404265E+00  0.27726404265E+00  0.00000000000E+00 0. -1.
          2    1    1    2  501    0  0.15678281861E+02 -0.12610762191E+02  0.56996414308E+03  0.57031917752E+03  0.00000000000E+00 0. -1.
         -2    1    1    2    0  503 -0.15678281861E+02  0.12610762191E+02  0.10145687544E+04  0.10147682481E+04  0.00000000000E+00 0.  1.
<mgrwt>
<rscale>  2 0.20120632E+02</rscale>
<asrwt>0</asrwt>
<pdfrwt beam="1">  1       21 0.24380970E+00 0.20120632E+02</pdfrwt>
<pdfrwt beam="2">  1       21 0.42657276E-04 0.20120632E+02</pdfrwt>
<totfact> 0.29964620E+07</totfact>
</mgrwt>
</event>
<event>
 4    1  0.7478314E+004  0.2236841E+02  0.7546771E-02  0.1701957E+00
         21   -1    0    0  503  502  0.00000000000E+00  0.00000000000E+00  0.88009540894E+02  0.88009540894E+02  0.00000000000E+00 0.  1.
         21   -1    0    0  501  503 -0.00000000000E+00 -0.00000000000E+00 -0.92409130477E+01  0.92409130477E+01  0.00000000000E+00 0.  1.
          4    1    1    2  501    0 -0.14991880572E+01 -0.22318109606E+02  0.92214971063E+01  0.24194660363E+02  0.00000000000E+00 0.  1.
         -4    1    1    2    0  502  0.14991880572E+01  0.22318109606E+02  0.69547130740E+02  0.73055793578E+02  0.00000000000E+00 0. -1.
<mgrwt>
<rscale>  2 0.22368406E+02</rscale>
<asrwt>0</asrwt>
<pdfrwt beam="1">  1       21 0.13539929E-01 0.22368406E+02</pdfrwt>
<pdfrwt beam="2">  1       21 0.14216790E-02 0.22368406E+02</pdfrwt>
<totfact> 0.70195703E+07</totfact>
</mgrwt>
</event>
<event>
 4    1  0.7478314E+004  0.2243997E+02  0.7546771E-02  0.1700752E+00
         21   -1    0    0  501  502  0.00000000000E+00  0.00000000000E+00  0.21532420724E+00  0.21532420724E+00  0.00000000000E+00 0. -1.
         21   -1    0    0  502  503 -0.00000000000E+00 -0.00000000000E+00 -0.23644940010E+04  0.23644940010E+04  0.00000000000E+00 0. -1.
          5    1    1    2  501    0 -0.17134886326E+02  0.14489572381E+02 -0.13059274309E+04  0.13061202115E+04  0.00000000000E+00 0.  1.
         -5    1    1    2    0  503  0.17134886326E+02 -0.14489572381E+02 -0.10583512458E+04  0.10585891137E+04  0.00000000000E+00 0. -1.
<mgrwt>
<rscale>  2 0.22439965E+02</rscale>
<asrwt>0</asrwt>
<pdfrwt beam="1">  1       21 0.33127021E-04 0.22439965E+02</pdfrwt>
<pdfrwt beam="2">  1       21 0.36376589E+00 0.22439965E+02</pdfrwt>
<totfact> 0.11232088E+07</totfact>
</mgrwt>
</event>
<event>
 4    1  0.7478314E+004  0.2630376E+02  0.7546771E-02  0.1642952E+00
         21   -1    0    0  501  502  0.00000000000E+00  0.00000000000E+00  0.21056966274E+02  0.21056966274E+02  0.00000000000E+00 0. -1.
         21   -1    0    0  502  503 -0.00000000000E+00 -0.00000000000E+00 -0.35781311992E+02  0.35781311992E+02  0.00000000000E+00 0. -1.
          4    1    1    2  501    0 -0.25542060204E+02 -0.62841838441E+01  0.76103185447E+00  0.26314767252E+02  0.00000000000E+00 0.  1.
         -4    1    1    2    0  503  0.25542060204E+02  0.62841838441E+01 -0.15485377572E+02  0.30523511014E+02  0.00000000000E+00 0. -1.
<mgrwt>
<rscale>  2 0.26303760E+02</rscale>
<asrwt>0</asrwt>
<pdfrwt beam="1">  1       21 0.32395333E-02 0.26303760E+02</pdfrwt>
<pdfrwt beam="2">  1       21 0.55048171E-02 0.26303760E+02</pdfrwt>
<totfact> 0.90433998E+07</totfact>
</mgrwt>
</event>
<event>
 4    1  0.7478314E+004  0.3083351E+02  0.7546771E-02  0.1589054E+00
         21   -1    0    0  503  502  0.00000000000E+00  0.00000000000E+00  0.41819392429E+03  0.41819392429E+03  0.00000000000E+00 0.  1.
         21   -1    0    0  501  503 -0.00000000000E+00 -0.00000000000E+00 -0.33383095050E+01  0.33383095050E+01  0.00000000000E+00 0.  1.
          2    1    1    2  501    0  0.47008063008E+01  0.30473071001E+02  0.32647025788E+03  0.32792306250E+03  0.00000000000E+00 0. -1.
         -2    1    1    2    0  502 -0.47008063008E+01 -0.30473071001E+02  0.88385356897E+02  0.93609171291E+02  0.00000000000E+00 0.  1.
<mgrwt>
<rscale>  2 0.30833515E+02</rscale>
<asrwt>0</asrwt>
<pdfrwt beam="1">  1       21 0.64337485E-01 0.30833515E+02</pdfrwt>
<pdfrwt beam="2">  1       21 0.51358641E-03 0.30833515E+02</pdfrwt>
<totfact> 0.19779461E+07</totfact>
</mgrwt>
</event>
<event>
 4    1  0.7478314E+004  0.2563811E+02  0.7546771E-02  0.1652002E+00
         21   -1    0    0  501  502  0.00000000000E+00  0.00000000000E+00  0.19743149126E+01  0.19743149126E+01  0.00000000000E+00 0.  1.
         21   -1    0    0  502  503 -0.00000000000E+00 -0.00000000000E+00 -0.40169653258E+03  0.40169653258E+03  0.00000000000E+00 0.  1.
          3    1    1    2  501    0 -0.14652058185E+02  0.21038772379E+02 -0.28336954932E+03  0.28452700089E+03  0.00000000000E+00 0. -1.
         -3    1    1    2    0  503  0.14652058185E+02 -0.21038772379E+02 -0.11635266835E+03  0.11914384660E+03  0.00000000000E+00 0.  1.
<mgrwt>
<rscale>  2 0.25638111E+02</rscale>
<asrwt>0</asrwt>
<pdfrwt beam="1">  1       21 0.30374061E-03 0.25638111E+02</pdfrwt>
<pdfrwt beam="2">  1       21 0.61799496E-01 0.25638111E+02</pdfrwt>
<totfact> 0.45015088E+07</totfact>
</mgrwt>
</event>
<event>
 4    1  0.7478314E+004  0.3859444E+02  0.7546771E-02  0.1518817E+00
         21   -1    0    0  503  502  0.00000000000E+00  0.00000000000E+00  0.38045930472E+02  0.38045930472E+02  0.00000000000E+00 0.  1.
         21   -1    0    0  501  503 -0.00000000000E+00 -0.00000000000E+00 -0.54520947135E+02  0.54520947135E+02  0.00000000000E+00 0.  1.
          2    1    1    2  501    0  0.38481080700E+02 -0.29559398759E+01 -0.32811855721E+02  0.50657171538E+02  0.00000000000E+00 0. -1.
         -2    1    1    2    0  502 -0.38481080700E+02  0.29559398759E+01  0.16336839058E+02  0.41909706069E+02  0.00000000000E+00 0.  1.
<mgrwt>
<rscale>  2 0.38594445E+02</rscale>
<asrwt>0</asrwt>
<pdfrwt beam="1">  1       21 0.58532201E-02 0.38594445E+02</pdfrwt>
<pdfrwt beam="2">  1       21 0.83878380E-02 0.38594445E+02</pdfrwt>
<totfact> 0.19069803E+07</totfact>
</mgrwt>
</event>
<event>
 4    1  0.7478314E+004  0.3006905E+02  0.7546771E-02  0.1597327E+00
         21   -1    0    0  503  502  0.00000000000E+00  0.00000000000E+00  0.33016452649E+01  0.33016452649E+01  0.00000000000E+00 0. -1.
         21   -1    0    0  501  503 -0.00000000000E+00 -0.00000000000E+00 -0.33327329097E+03  0.33327329097E+03  0.00000000000E+00 0. -1.
          5    1    1    2  501    0  0.22628021528E+02  0.19802036423E+02 -0.23604795417E+03  0.23795542581E+03  0.00000000000E+00 0.  1.
         -5    1    1    2    0  502 -0.22628021528E+02 -0.19802036423E+02 -0.93923691534E+02  0.98619510424E+02  0.00000000000E+00 0. -1.
<mgrwt>
<rscale>  2 0.30069054E+02</rscale>
<asrwt>0</asrwt>
<pdfrwt beam="1">  1       21 0.50794525E-03 0.30069054E+02</pdfrwt>
<pdfrwt beam="2">  1       21 0.51272831E-01 0.30069054E+02</pdfrwt>
<totfact> 0.31587449E+07</totfact>
</mgrwt>
</event>
<event>
 4    1  0.7478314E+004  0.2022752E+02  0.7546771E-02  0.1740841E+00
         21   -1    0    0  503  502  0.00000000000E+00  0.00000000000E+00  0.96866027711E+01  0.96866027711E+01  0.00000000000E+00 0.  1.
         21   -1    0    0  501  503 -0.00000000000E+00 -0.00000000000E+00 -0.42635925738E+02  0.42635925738E+02  0.00000000000E+00 0.  1.
          5    1    1    2  501    0  0.14086900763E+02  0.14515917856E+02 -0.13950526781E+02  0.24571728506E+02  0.00000000000E+00 0. -1.
         -5    1    1    2    0  502 -0.14086900763E+02 -0.14515917856E+02 -0.18998796186E+02  0.27750800003E+02  0.00000000000E+00 0.  1.
<mgrwt>
<rscale>  2 0.20227522E+02</rscale>
<asrwt>0</asrwt>
<pdfrwt beam="1">  1       21 0.14902466E-02 0.20227522E+02</pdfrwt>
<pdfrwt beam="2">  1       21 0.65593732E-02 0.20227522E+02</pdfrwt>
<totfact> 0.20878630E+08</totfact>
</mgrwt>
</event>
<event>
 4    1  0.7478314E+004  0.2516328E+02  0.7546771E-02  0.1658668E+00
         21   -1    0    0  501  502  0.00000000000E+00  0.00000000000E+00  0.11882977586E+02  0.11882977586E+02  0.00000000000E+00 0.  1.
         21   -1    0    0  502  503 -0.00000000000E+00 -0.00000000000E+00 -0.53908319870E+02  0.53908319870E+02  0.00000000000E+00 0.  1.
          2    1    1    2  501    0 -0.25065056641E+02 -0.22211895299E+01 -0.24548422024E+02  0.35154171462E+02  0.00000000000E+00 0. -1.
         -2    1    1    2    0  503  0.25065056641E+02  0.22211895299E+01 -0.17476920260E+02  0.30637125993E+02  0.00000000000E+00 0.  1.
<mgrwt>
<rscale>  2 0.25163282E+02</rscale>
<asrwt>0</asrwt>
<pdfrwt beam="1">  1       21 0.18281504E-02 0.25163282E+02</pdfrwt>
<pdfrwt beam="2">  1       21 0.82935875E-02 0.25163282E+02</pdfrwt>
<totfact> 0.11162409E+08</totfact>
</mgrwt>
</event>
<event>
 4    1  0.7478314E+004  0.2040901E+02  0.7546771E-02  0.1737315E+00
         21   -1    0    0  501  502  0.00000000000E+00  0.00000000000E+00  0.55208678623E+03  0.55208678623E+03  0.00000000000E+00 0.  1.
         21   -1    0    0  502  503 -0.00000000000E+00 -0.00000000000E+00 -0.79593656010E+00  0.79593656010E+00  0.00000000000E+00 0.  1.
          3    1    1    2  501    0 -0.20290473909E+02  0.21964705257E+01  0.21254079807E+03  0.21351842698E+03  0.00000000000E+00 0.  1.
         -3    1    1    2    0  503  0.20290473909E+02 -0.21964705257E+01  0.33875005160E+03  0.33936429582E+03  0.00000000000E+00 0. -1.
<mgrwt>
<rscale>  2 0.20409013E+02</rscale>
<asrwt>0</asrwt>
<pdfrwt beam="1">  1       21 0.84936123E-01 0.20409013E+02</pdfrwt>
<pdfrwt beam="2">  1       21 0.12245222E-03 0.20409013E+02</pdfrwt>
<totfact> 0.82141415E+07</totfact>
</mgrwt>
</event>
<event>
 4    1  0.7478314E+004  0.2883209E+02  0.7546771E-02  0.1611369E+00
         21   -1    0    0  501  502  0.00000000000E+00  0.00000000000E+00  0.15313351878E+03  0.15313351878E+03  0.00000000000E+00 0. -1.
         21   -1    0    0  502  503 -0.00000000000E+00 -0.00000000000E+00 -0.57636615932E+01  0.57636615932E+01  0.00000000000E+00 0. -1.
          5    1    1    2  501    0  0.25660326437E+02  0.13146752316E+02  0.54527088072E+02  0.61680570546E+02  0.00000000000E+00 0. -1.
         -5    1    1    2    0  503 -0.25660326437E+02 -0.13146752316E+02  0.92842769110E+02  0.97216609822E+02  0.00000000000E+00 0.  1.
<mgrwt>
<rscale>  2 0.28832091E+02</rscale>
<asrwt>0</asrwt>
<pdfrwt beam="1">  1       21 0.23559000E-01 0.28832091E+02</pdfrwt>
<pdfrwt beam="2">  1       21 0.88671728E-03 0.28832091E+02</pdfrwt>
<totfact> 0.58351067E+07</totfact>
</mgrwt>
</event>
<event>
 4    1  0.7478314E+004  0.2027306E+02  0.7546771E-02  0.1739952E+00
         21   -1    0    0  503  502  0.00000000000E+00  0.00000000000E+00  0.28224388821E+01  0.28224388821E+01  0.00000000000E+00 0. -1.
         21   -1    0    0  501  503 -0.00000000000E+00 -0.00000000000E+00 -0.14820807660E+03  0.14820807660E+03  0.00000000000E+00 0. -1.
          3    1    1    2  501    0 -0.20152897993E+02 -0.22040561715E+01 -0.82676189080E+02  0.85125492080E+02  0.00000000000E+00 0.  1.
         -3    1    1    2    0  502  0.20152897993E+02  0.22040561715E+01 -0.62709448641E+02  0.65905023405E+02  0.00000000000E+00 0. -1.
<mgrwt>
<rscale>  2 0.20273065E+02</rscale>
<asrwt>0</asrwt>
<pdfrwt beam="1">  1       21 0.43422138E-03 0.20273065E+02</pdfrwt>
<pdfrwt beam="2">  1       21 0.22801242E-01 0.20273065E+02</pdfrwt>
<totfact> 0.16273869E+08</totfact>
</mgrwt>
</event>
<event>
 4    1  0.7478314E+004  0.2175662E+02  0.7546771E-02  0.1712495E+00
         21   -1    0    0  503  502  0.00000000000E+00  0.00000000000E+00  0.41494000345E+03  0.41494000345E+03  0.00000000000E+00 0. -1.
         21   -1    0    0  501  503 -0.00000000000E+00 -0.00000000000E+00 -0.15314652877E+01  0.15314652877E+01  0.00000000000E+00 0. -1.
          5    1    1    2  501    0  0.20907398046E+02 -0.60192535447E+01  0.10152714189E+03  0.10383213013E+03  0.00000000000E+00 0.  1.
         -5    1    1    2    0  502 -0.20907398046E+02  0.60192535447E+01  0.31188139627E+03  0.31263933861E+03  0.00000000000E+00 0. -1.
<mgrwt>
<rscale>  2 0.21756624E+02</rscale>
<asrwt>0</asrwt>
<pdfrwt beam="1">  1       21 0.63836834E-01 0.21756624E+02</pdfrwt>
<pdfrwt beam="2">  1       21 0.23561037E-03 0.21756624E+02</pdfrwt>
<totfact> 0.58774275E+07</totfact>
</mgrwt>
</event>
<event>
 4    1  0.7478314E+004  0.2032573E+02  0.7546771E-02  0.1738927E+00
         21   -1    0    0  501  502  0.00000000000E+00  0.00000000000E+00  0.46342616957E+02  0.46342616957E+02  0.00000000000E+00 0.  1.
         21   -1    0    0  502  503 -0.00000000000E+00 -0.00000000000E+00 -0.94610838308E+01  0.94610838308E+01  0.00000000000E+00 0.  1.
          5    1    1    2  501    0 -0.58358488257E+01  0.19469928070E+02  0.25145339852E+02  0.32333007080E+02  0.00000000000E+00 0.  1.
         -5    1    1    2    0  503  0.58358488257E+01 -0.19469928070E+02  0.11736193274E+02  0.23470693708E+02  0.00000000000E+00 0. -1.
<mgrwt>
<rscale>  2 0.20325728E+02</rscale>
<asrwt>0</asrwt>
<pdfrwt beam="1">  1       21 0.71296333E-02 0.20325728E+02</pdfrwt>
<pdfrwt beam="2">  1       21 0.14555514E-02 0.20325728E+02</pdfrwt>
<totfact> 0.18949395E+08</totfact>
</mgrwt>
</event>
<event>
 4    1  0.7478314E+004  0.2109562E+02  0.7546771E-02  0.1724379E+00
         21   -1    0    0  503  502  0.00000000000E+00  0.00000000000E+00  0.24174275005E+02  0.24174275005E+02  0.00000000000E+00 0.  1.
         21   -1    0    0  501  503 -0.00000000000E+00 -0.00000000000E+00 -0.18934660541E+02  0.18934660541E+02  0.00000000000E+00 0.  1.
          5    1    1    2  501    0 -0.17019838363E+02  0.12463964608E+02 -0.97141864777E+00  0.21117977314E+02  0.00000000000E+00 0.  1.
         -5    1    1    2    0  502  0.17019838363E+02 -0.12463964608E+02  0.62110331114E+01  0.21990958232E+02  0.00000000000E+00 0. -1.
<mgrwt>
<rscale>  2 0.21095623E+02</rscale>
<asrwt>0</asrwt>
<pdfrwt beam="1">  1       21 0.37191192E-02 0.21095623E+02</pdfrwt>
<pdfrwt beam="2">  1       21 0.29130247E-02 0.21095623E+02</pdfrwt>
<totfact> 0.18642267E+08</totfact>
</mgrwt>
</event>
<event>
 4    1  0.7478314E+004  0.5154497E+02  0.7546771E-02  0.1437182E+00
         21   -1    0    0  503  502  0.00000000000E+00  0.00000000000E+00  0.73897040783E+00  0.73897040783E+00  0.00000000000E+00 0. -1.
         21   -1    0    0  501  503 -0.00000000000E+00 -0.00000000000E+00 -0.37275904193E+04  0.37275904193E+04  0.00000000000E+00 0. -1.
          5    1    1    2  501    0  0.37594788940E+02  0.35263514541E+02 -0.15123557259E+04  0.15132338634E+04  0.00000000000E+00 0.  1.
         -5    1    1    2    0  502 -0.37594788940E+02 -0.35263514541E+02 -0.22144957229E+04  0.22150955263E+04  0.00000000000E+00 0. -1.
<mgrwt>
<rscale>  2 0.51544967E+02</rscale>
<asrwt>0</asrwt>
<pdfrwt beam="1">  1       21 0.11368667E-03 0.51544967E+02</pdfrwt>
<pdfrwt beam="2">  1       21 0.57348090E+00 0.51544967E+02</pdfrwt>
<totfact> 0.78741934E+04</totfact>
</mgrwt>
</event>
<event>
 4    1  0.7478314E+004  0.2024004E+02  0.7546771E-02  0.1740596E+00
         21   -1    0    0  503  502  0.00000000000E+00  0.00000000000E+00  0.16555706851E+02  0.16555706851E+02  0.00000000000E+00 0.  1.
         21   -1    0    0  501  503 -0.00000000000E+00 -0.00000000000E+00 -0.24768885940E+02  0.24768885940E+02  0.00000000000E+00 0.  1.
          3    1    1    2  501    0 -0.15093377804E+02  0.13485145136E+02 -0.34554606363E+01  0.20532885844E+02  0.00000000000E+00 0.  1.
         -3    1    1    2    0  502  0.15093377804E+02 -0.13485145136E+02 -0.47577184522E+01  0.20791706947E+02  0.00000000000E+00 0. -1.
<mgrwt>
<rscale>  2 0.20240039E+02</rscale>
<asrwt>0</asrwt>
<pdfrwt beam="1">  1       21 0.25470318E-02 0.20240039E+02</pdfrwt>
<pdfrwt beam="2">  1       21 0.38105978E-02 0.20240039E+02</pdfrwt>
<totfact> 0.21790166E+08</totfact>
</mgrwt>
</event>
<event>
 4    1  0.7478314E+004  0.2160492E+02  0.7546771E-02  0.1715176E+00
         21   -1    0    0  503  502  0.00000000000E+00  0.00000000000E+00  0.12611115245E+01  0.12611115245E+01  0.00000000000E+00 0.  1.
         21   -1    0    0  501  503 -0.00000000000E+00 -0.00000000000E+00 -0.37128762810E+03  0.37128762810E+03  0.00000000000E+00 0.  1.
          1    1    1    2  501    0 -0.19737331392E+02  0.87869495362E+01 -0.17460326732E+03  0.17593485639E+03  0.00000000000E+00 0.  1.
         -1    1    1    2    0  502  0.19737331392E+02 -0.87869495362E+01 -0.19542324926E+03  0.19661388324E+03  0.00000000000E+00 0. -1.
<mgrwt>
<rscale>  2 0.21604924E+02</rscale>
<asrwt>0</asrwt>
<pdfrwt beam="1">  1       21 0.19401724E-03 0.21604924E+02</pdfrwt>
<pdfrwt beam="2">  1       21 0.57121149E-01 0.21604924E+02</pdfrwt>
<totfact> 0.96943357E+07</totfact>
</mgrwt>
</event>
<event>
 4    1  0.7478314E+004  0.3386662E+02  0.7546771E-02  0.1558902E+00
         21   -1    0    0  503  502  0.00000000000E+00  0.00000000000E+00  0.27755971572E+03  0.27755971572E+03  0.00000000000E+00 0.  1.
         21   -1    0    0  501  503 -0.00000000000E+00 -0.00000000000E+00 -0.42994647574E+01  0.42994647574E+01  0.00000000000E+00 0.  1.
          3    1    1    2  501    0  0.33355764186E+02 -0.58601060569E+01  0.10883783864E+03  0.11398518749E+03  0.00000000000E+00 0.  1.
         -3    1    1    2    0  502 -0.33355764186E+02  0.58601060569E+01  0.16442241233E+03  0.16787399299E+03  0.00000000000E+00 0. -1.
<mgrwt>
<rscale>  2 0.33866618E+02</rscale>
<asrwt>0</asrwt>
<pdfrwt beam="1">  1       21 0.42701481E-01 0.33866618E+02</pdfrwt>
<pdfrwt beam="2">  1       21 0.66145633E-03 0.33866618E+02</pdfrwt>
<totfact> 0.31069855E+07</totfact>
</mgrwt>
</event>
<event>
 4    1  0.7478314E+004  0.2583711E+02  0.7546771E-02  0.1649261E+00
         21   -1    0    0  503  502  0.00000000000E+00  0.00000000000E+00  0.23661020069E+02  0.23661020069E+02  0.00000000000E+00 0.  1.
         21   -1    0    0  501  503 -0.00000000000E+00 -0.00000000000E+00 -0.28221141187E+02  0.28221141187E+02  0.00000000000E+00 0.  1.
          3    1    1    2  501    0  0.35960270768E+01  0.25585635695E+02 -0.18484794025E+01  0.25903147314E+02  0.00000000000E+00 0.  1.
         -3    1    1    2    0  502 -0.35960270768E+01 -0.25585635695E+02 -0.27116417154E+01  0.25979013943E+02  0.00000000000E+00 0. -1.
<mgrwt>
<rscale>  2 0.25837108E+02</rscale>
<asrwt>0</asrwt>
<pdfrwt beam="1">  1       21 0.36401570E-02 0.25837108E+02</pdfrwt>
<pdfrwt beam="2">  1       21 0.43417140E-02 0.25837108E+02</pdfrwt>
<totfact> 0.10948514E+08</totfact>
</mgrwt>
</event>
<event>
 4    1  0.7478314E+004  0.2070485E+02  0.7546771E-02  0.1731664E+00
         21   -1    0    0  501  502  0.00000000000E+00  0.00000000000E+00  0.12331756733E+02  0.12331756733E+02  0.00000000000E+00 0. -1.
         21   -1    0    0  502  503 -0.00000000000E+00 -0.00000000000E+00 -0.62510776026E+02  0.62510776026E+02  0.00000000000E+00 0. -1.
          5    1    1    2  501    0  0.14643240506E+02 -0.14637835410E+02 -0.15769176349E+00  0.20705448189E+02  0.00000000000E+00 0.  1.
         -5    1    1    2    0  503 -0.14643240506E+02  0.14637835410E+02 -0.50021327529E+02  0.54137084570E+02  0.00000000000E+00 0. -1.
<mgrwt>
<rscale>  2 0.20704848E+02</rscale>
<asrwt>0</asrwt>
<pdfrwt beam="1">  1       21 0.18971933E-02 0.20704848E+02</pdfrwt>
<pdfrwt beam="2">  1       21 0.96170425E-02 0.20704848E+02</pdfrwt>
<totfact> 0.78296327E+07</totfact>
</mgrwt>
</event>
<event>
 4    1  0.7478314E+004  0.3510819E+02  0.7546771E-02  0.1547642E+00
         21   -1    0    0  503  502  0.00000000000E+00  0.00000000000E+00  0.27712810229E+03  0.27712810229E+03  0.00000000000E+00 0.  1.
         21   -1    0    0  501  503 -0.00000000000E+00 -0.00000000000E+00 -0.58528523178E+01  0.58528523178E+01  0.00000000000E+00 0.  1.
          5    1    1    2  501    0 -0.34642594880E+02 -0.56987387885E+01  0.66310398826E+02  0.75031020227E+02  0.00000000000E+00 0. -1.
         -5    1    1    2    0  502  0.34642594880E+02  0.56987387885E+01  0.20496485115E+03  0.20794993438E+03  0.00000000000E+00 0.  1.
<mgrwt>
<rscale>  2 0.35108190E+02</rscale>
<asrwt>0</asrwt>
<pdfrwt beam="1">  1       21 0.42635082E-01 0.35108190E+02</pdfrwt>
<pdfrwt beam="2">  1       21 0.90043903E-03 0.35108190E+02</pdfrwt>
<totfact> 0.19673846E+07</totfact>
</mgrwt>
</event>
<event>
 4    1  0.7478314E+004  0.3816156E+02  0.7546771E-02  0.1522193E+00
         21   -1    0    0  501  502  0.00000000000E+00  0.00000000000E+00  0.10561590252E+03  0.10561590252E+03  0.00000000000E+00 0.  1.
         21   -1    0    0  502  503 -0.00000000000E+00 -0.00000000000E+00 -0.13832478643E+02  0.13832478643E+02  0.00000000000E+00 0.  1.
          4    1    1    2  501    0 -0.83089436211E+00  0.38152511820E+02  0.49252178460E+02  0.62306353020E+02  0.00000000000E+00 0. -1.
         -4    1    1    2    0  503  0.83089436211E+00 -0.38152511820E+02  0.42531245419E+02  0.57142028145E+02  0.00000000000E+00 0.  1.
<mgrwt>
<rscale>  2 0.38161558E+02</rscale>
<asrwt>0</asrwt>
<pdfrwt beam="1">  1       21 0.16248600E-01 0.38161558E+02</pdfrwt>
<pdfrwt beam="2">  1       21 0.21280737E-02 0.38161558E+02</pdfrwt>
<totfact> 0.31021298E+07</totfact>
</mgrwt>
</event>
<event>
 4    1  0.7478314E+004  0.2156925E+02  0.7546771E-02  0.1715810E+00
         21   -1    0    0  501  502  0.00000000000E+00  0.00000000000E+00  0.14219946080E+01  0.14219946080E+01  0.00000000000E+00 0.  1.
         21   -1    0    0  502  503 -0.00000000000E+00 -0.00000000000E+00 -0.34769931430E+03  0.34769931430E+03  0.00000000000E+00 0.  1.
          1    1    1    2  501    0  0.10306983170E+02 -0.18947260586E+02 -0.13072145894E+03  0.13248898978E+03  0.00000000000E+00 0. -1.
         -1    1    1    2    0  503 -0.10306983170E+02  0.18947260586E+02 -0.21555586075E+03  0.21663231913E+03  0.00000000000E+00 0.  1.
<mgrwt>
<rscale>  2 0.21569251E+02</rscale>
<asrwt>0</asrwt>
<pdfrwt beam="1">  1       21 0.21876826E-03 0.21569251E+02</pdfrwt>
<pdfrwt beam="2">  1       21 0.53492237E-01 0.21569251E+02</pdfrwt>
<totfact> 0.92733933E+07</totfact>
</mgrwt>
</event>
<event>
 4    1  0.7478314E+004  0.2561403E+02  0.7546771E-02  0.1652336E+00
         21   -1    0    0  501  502  0.00000000000E+00  0.00000000000E+00  0.64500603376E+02  0.64500603376E+02  0.00000000000E+00 0.  1.
         21   -1    0    0  502  503 -0.00000000000E+00 -0.00000000000E+00 -0.10189497595E+02  0.10189497595E+02  0.00000000000E+00 0.  1.
          2    1    1    2  501    0 -0.32045355603E+01  0.25412781419E+02  0.28717866227E+02  0.38481090788E+02  0.00000000000E+00 0.  1.
         -2    1    1    2    0  503  0.32045355603E+01 -0.25412781419E+02  0.25593239554E+02  0.36209010183E+02  0.00000000000E+00 0. -1.
<mgrwt>
<rscale>  2 0.25614030E+02</rscale>
<asrwt>0</asrwt>
<pdfrwt beam="1">  1       21 0.99231695E-02 0.25614030E+02</pdfrwt>
<pdfrwt beam="2">  1       21 0.15676151E-02 0.25614030E+02</pdfrwt>
<totfact> 0.10554934E+08</totfact>
</mgrwt>
</event>
<event>
 4    1  0.7478314E+004  0.2767878E+02  0.7546771E-02  0.1625261E+00
         21   -1    0    0  501  502  0.00000000000E+00  0.00000000000E+00  0.15872941996E+03  0.15872941996E+03  0.00000000000E+00 0. -1.
         21   -1    0    0  502  503 -0.00000000000E+00 -0.00000000000E+00 -0.57374434369E+01  0.57374434369E+01  0.00000000000E+00 0. -1.
          4    1    1    2  501    0  0.17460550920E+02  0.21476597177E+02  0.10926200273E+03  0.11271335460E+03  0.00000000000E+00 0.  1.
         -4    1    1    2    0  503 -0.17460550920E+02 -0.21476597177E+02  0.43729973792E+02  0.51753508795E+02  0.00000000000E+00 0. -1.
<mgrwt>
<rscale>  2 0.27678784E+02</rscale>
<asrwt>0</asrwt>
<pdfrwt beam="1">  1       21 0.24419907E-01 0.27678784E+02</pdfrwt>
<pdfrwt beam="2">  1       21 0.88268373E-03 0.27678784E+02</pdfrwt>
<totfact> 0.54586082E+07</totfact>
</mgrwt>
</event>
<event>
 4    1  0.7478314E+004  0.2723791E+02  0.7546771E-02  0.1630794E+00
         21   -1    0    0  503  502  0.00000000000E+00  0.00000000000E+00  0.73511525330E+02  0.73511525330E+02  0.00000000000E+00 0.  1.
         21   -1    0    0  501  503 -0.00000000000E+00 -0.00000000000E+00 -0.10499461275E+02  0.10499461275E+02  0.00000000000E+00 0.  1.
          5    1    1    2  501    0 -0.24492667101E+02  0.11916910652E+02  0.39777509192E+02  0.48209477686E+02  0.00000000000E+00 0.  1.
         -5    1    1    2    0  502  0.24492667101E+02 -0.11916910652E+02  0.23234554862E+02  0.35801508919E+02  0.00000000000E+00 0. -1.
<mgrwt>
<rscale>  2 0.27237906E+02</rscale>
<asrwt>0</asrwt>
<pdfrwt beam="1">  1       21 0.11309465E-01 0.27237906E+02</pdfrwt>
<pdfrwt beam="2">  1       21 0.16153018E-02 0.27237906E+02</pdfrwt>
<totfact> 0.82333848E+07</totfact>
</mgrwt>
</event>
<event>
 4    1  0.7478314E+004  0.3144579E+02  0.7546771E-02  0.1582636E+00
         21   -1    0    0  501  502  0.00000000000E+00  0.00000000000E+00  0.88936957974E+02  0.88936957974E+02  0.00000000000E+00 0. -1.
         21   -1    0    0  502  503 -0.00000000000E+00 -0.00000000000E+00 -0.11216624087E+02  0.11216624087E+02  0.00000000000E+00 0. -1.
          1    1    1    2  501    0 -0.20836366203E+02 -0.23551724110E+02  0.43545978170E+02  0.53713034544E+02  0.00000000000E+00 0.  1.
         -1    1    1    2    0  503  0.20836366203E+02  0.23551724110E+02  0.34174355717E+02  0.46440547518E+02  0.00000000000E+00 0. -1.
<mgrwt>
<rscale>  2 0.31445792E+02</rscale>
<asrwt>0</asrwt>
<pdfrwt beam="1">  1       21 0.13682608E-01 0.31445792E+02</pdfrwt>
<pdfrwt beam="2">  1       21 0.17256345E-02 0.31445792E+02</pdfrwt>
<totfact> 0.55688026E+07</totfact>
</mgrwt>
</event>
<event>
 4    1  0.7478314E+004  0.2609446E+02  0.7546771E-02  0.1645762E+00
         21   -1    0    0  501  502  0.00000000000E+00  0.00000000000E+00  0.46136586390E+01  0.46136586390E+01  0.00000000000E+00 0.  1.
         21   -1    0    0  502  503 -0.00000000000E+00 -0.00000000000E+00 -0.14969063285E+03  0.14969063285E+03  0.00000000000E+00 0.  1.
          5    1    1    2  501    0 -0.21595732079E+02  0.14647365507E+02 -0.81682261473E+02  0.85749127107E+02  0.00000000000E+00 0.  1.
         -5    1    1    2    0  503  0.21595732079E+02 -0.14647365507E+02 -0.63394712742E+02  0.68555164386E+02  0.00000000000E+00 0. -1.
<mgrwt>
<rscale>  2 0.26094462E+02</rscale>
<asrwt>0</asrwt>
<pdfrwt beam="1">  1       21 0.70979369E-03 0.26094462E+02</pdfrwt>
<pdfrwt beam="2">  1       21 0.23029327E-01 0.26094462E+02</pdfrwt>
<totfact> 0.82892991E+07</totfact>
</mgrwt>
</event>
<event>
 4    1  0.7478314E+004  0.2109101E+02  0.7546771E-02  0.1724464E+00
         21   -1    0    0  501  502  0.00000000000E+00  0.00000000000E+00  0.16170789537E+01  0.16170789537E+01  0.00000000000E+00 0.  1.
         21   -1    0    0  502  503 -0.00000000000E+00 -0.00000000000E+00 -0.31233135566E+03  0.31233135566E+03  0.00000000000E+00 0.  1.
          4    1    1    2  501    0 -0.20688154381E+02  0.41025583300E+01 -0.20956657011E+03  0.21062520748E+03  0.00000000000E+00 0. -1.
         -4    1    1    2    0  503  0.20688154381E+02 -0.41025583300E+01 -0.10114770660E+03  0.10332322714E+03  0.00000000000E+00 0.  1.
<mgrwt>
<rscale>  2 0.21091010E+02</rscale>
<asrwt>0</asrwt>
<pdfrwt beam="1">  1       21 0.24878138E-03 0.21091010E+02</pdfrwt>
<pdfrwt beam="2">  1       21 0.48050978E-01 0.21091010E+02</pdfrwt>
<totfact> 0.94278957E+07</totfact>
</mgrwt>
</event>
<event>
 4    1  0.7478314E+004  0.2172750E+02  0.7546771E-02  0.1713008E+00
         21   -1    0    0  501  502  0.00000000000E+00  0.00000000000E+00  0.75167008042E+03  0.75167008042E+03  0.00000000000E+00 0. -1.
         21   -1    0    0  502  503 -0.00000000000E+00 -0.00000000000E+00 -0.11389040871E+01  0.11389040871E+01  0.00000000000E+00 0. -1.
          5    1    1    2  501    0 -0.16230050319E+02  0.14445404869E+02  0.62735863535E+03  0.62773477011E+03  0.00000000000E+00 0.  1.
         -5    1    1    2    0  503  0.16230050319E+02 -0.14445404869E+02  0.12317254098E+03  0.12507421440E+03  0.00000000000E+00 0. -1.
<mgrwt>
<rscale>  2 0.21727500E+02</rscale>
<asrwt>0</asrwt>
<pdfrwt beam="1">  1       21 0.11564115E+00 0.21727500E+02</pdfrwt>
<pdfrwt beam="2">  1       21 0.17521661E-03 0.21727500E+02</pdfrwt>
<totfact> 0.25516947E+07</totfact>
</mgrwt>
</event>
<event>
 4    1  0.7478314E+004  0.5314440E+02  0.7546771E-02  0.1429084E+00
         21   -1    0    0  503  502  0.00000000000E+00  0.00000000000E+00  0.15217587921E+02  0.15217587921E+02  0.00000000000E+00 0. -1.
         21   -1    0    0  501  503 -0.00000000000E+00 -0.00000000000E+00 -0.19386268992E+03  0.19386268992E+03  0.00000000000E+00 0. -1.
          4    1    1    2  501    0 -0.18713256645E+02 -0.49740745374E+02 -0.11090965565E+03  0.12298487485E+03  0.00000000000E+00 0. -1.
         -4    1    1    2    0  502  0.18713256645E+02  0.49740745374E+02 -0.67735446343E+02  0.86095402990E+02  0.00000000000E+00 0.  1.
<mgrwt>
<rscale>  2 0.53144404E+02</rscale>
<asrwt>0</asrwt>
<pdfrwt beam="1">  1       21 0.23411675E-02 0.53144404E+02</pdfrwt>
<pdfrwt beam="2">  1       21 0.29825027E-01 0.53144404E+02</pdfrwt>
<totfact> 0.93255019E+06</totfact>
</mgrwt>
</event>
<event>
 4    1  0.7478314E+004  0.4534074E+02  0.7546771E-02  0.1472226E+00
         21   -1    0    0  501  502  0.00000000000E+00  0.00000000000E+00  0.14250344876E+03  0.14250344876E+03  0.00000000000E+00 0.  1.
         21   -1    0    0  502  503 -0.00000000000E+00 -0.00000000000E+00 -0.14437458393E+02  0.14437458393E+02  0.00000000000E+00 0.  1.
          2    1    1    2  501    0 -0.29491847415E+02  0.34438542468E+02  0.66224950801E+02  0.80259120228E+02  0.00000000000E+00 0. -1.
         -2    1    1    2    0  503  0.29491847415E+02 -0.34438542468E+02  0.61841039570E+02  0.76681786927E+02  0.00000000000E+00 0.  1.
<mgrwt>
<rscale>  2 0.45340735E+02</rscale>
<asrwt>0</asrwt>
<pdfrwt beam="1">  1       21 0.21923607E-01 0.45340735E+02</pdfrwt>
<pdfrwt beam="2">  1       21 0.22211475E-02 0.45340735E+02</pdfrwt>
<totfact> 0.17507292E+07</totfact>
</mgrwt>
</event>
<event>
 4    1  0.7478314E+004  0.2793447E+02  0.7546771E-02  0.1622111E+00
         21   -1    0    0  503  502  0.00000000000E+00  0.00000000000E+00  0.46227131967E+01  0.46227131967E+01  0.00000000000E+00 0.  1.
         21   -1    0    0  501  503 -0.00000000000E+00 -0.00000000000E+00 -0.20705736045E+03  0.20705736045E+03  0.00000000000E+00 0.  1.
          1    1    1    2  501    0 -0.12753155017E+02 -0.24853404313E+02 -0.14670950398E+03  0.14934528190E+03  0.00000000000E+00 0.  1.
         -1    1    1    2    0  502  0.12753155017E+02  0.24853404313E+02 -0.55725143276E+02  0.62334791746E+02  0.00000000000E+00 0. -1.
<mgrwt>
<rscale>  2 0.27934471E+02</rscale>
<asrwt>0</asrwt>
<pdfrwt beam="1">  1       21 0.71118664E-03 0.27934471E+02</pdfrwt>
<pdfrwt beam="2">  1       21 0.31854979E-01 0.27934471E+02</pdfrwt>
<totfact> 0.46658927E+07</totfact>
</mgrwt>
</event>
<event>
 4    1  0.7478314E+004  0.2329946E+02  0.7546771E-02  0.1686702E+00
         21   -1    0    0  501  502  0.00000000000E+00  0.00000000000E+00  0.33064273837E+03  0.33064273837E+03  0.00000000000E+00 0. -1.
         21   -1    0    0  502  503 -0.00000000000E+00 -0.00000000000E+00 -0.17672612859E+01  0.17672612859E+01  0.00000000000E+00 0. -1.
          1    1    1    2  501    0  0.20602627953E+02 -0.10881007863E+02  0.12016176330E+03  0.12239981196E+03  0.00000000000E+00 0.  1.
         -1    1    1    2    0  503 -0.20602627953E+02  0.10881007863E+02  0.20871371379E+03  0.21001018769E+03  0.00000000000E+00 0. -1.
<mgrwt>
<rscale>  2 0.23299455E+02</rscale>
<asrwt>0</asrwt>
<pdfrwt beam="1">  1       21 0.50868064E-01 0.23299455E+02</pdfrwt>
<pdfrwt beam="2">  1       21 0.27188662E-03 0.23299455E+02</pdfrwt>
<totfact> 0.76148606E+07</totfact>
</mgrwt>
</event>
<event>
 4    1  0.7478314E+004  0.3415949E+02  0.7546771E-02  0.1556194E+00
         21   -1    0    0  501  502  0.00000000000E+00  0.00000000000E+00  0.46065364822E+02  0.46065364822E+02  0.00000000000E+00 0. -1.
         21   -1    0    0  502  503 -0.00000000000E+00 -0.00000000000E+00 -0.26998157185E+02  0.26998157185E+02  0.00000000000E+00 0. -1.
          5    1    1    2  501    0 -0.25296483451E+02 -0.22955581757E+02  0.45492246831E+00  0.34162519861E+02  0.00000000000E+00 0. -1.
         -5    1    1    2    0  503  0.25296483451E+02  0.22955581757E+02  0.18612285169E+02  0.38901002147E+02  0.00000000000E+00 0.  1.
<mgrwt>
<rscale>  2 0.34159491E+02</rscale>
<asrwt>0</asrwt>
<pdfrwt beam="1">  1       21 0.70869792E-02 0.34159491E+02</pdfrwt>
<pdfrwt beam="2">  1       21 0.41535626E-02 0.34159491E+02</pdfrwt>
<totfact> 0.42958442E+07</totfact>
</mgrwt>
</event>
<event>
 4    1  0.7478314E+004  0.3251747E+02  0.7546771E-02  0.1571820E+00
         21   -1    0    0  501  502  0.00000000000E+00  0.00000000000E+00  0.11717484160E+02  0.11717484160E+02  0.00000000000E+00 0. -1.
         21   -1    0    0  502  503 -0.00000000000E+00 -0.00000000000E+00 -0.15716126290E+03  0.15716126290E+03  0.00000000000E+00 0. -1.
          1    1    1    2  501    0  0.31616307664E+02 -0.76023183059E+01 -0.12782222008E+03  0.13189354078E+03  0.00000000000E+00 0. -1.
         -1    1    1    2    0  503 -0.31616307664E+02  0.76023183059E+01 -0.17621558663E+02  0.36985206281E+02  0.00000000000E+00 0.  1.
<mgrwt>
<rscale>  2 0.32517475E+02</rscale>
<asrwt>0</asrwt>
<pdfrwt beam="1">  1       21 0.18026898E-02 0.32517475E+02</pdfrwt>
<pdfrwt beam="2">  1       21 0.24178657E-01 0.32517475E+02</pdfrwt>
<totfact> 0.19293947E+07</totfact>
</mgrwt>
</event>
<event>
 4    1  0.7478314E+004  0.2370529E+02  0.7546771E-02  0.1680326E+00
         21   -1    0    0  503  502  0.00000000000E+00  0.00000000000E+00  0.16492100159E+03  0.16492100159E+03  0.00000000000E+00 0.  1.
         21   -1    0    0  501  503 -0.00000000000E+00 -0.00000000000E+00 -0.44715334239E+01  0.44715334239E+01  0.00000000000E+00 0.  1.
          5    1    1    2  501    0  0.23395686587E+02 -0.38186969518E+01  0.12154355880E+03  0.12383366781E+03  0.00000000000E+00 0. -1.
         -5    1    1    2    0  502 -0.23395686587E+02  0.38186969518E+01  0.38905909359E+02  0.45558867198E+02  0.00000000000E+00 0.  1.
<mgrwt>
<rscale>  2 0.23705286E+02</rscale>
<asrwt>0</asrwt>
<pdfrwt beam="1">  1       21 0.25372457E-01 0.23705286E+02</pdfrwt>
<pdfrwt beam="2">  1       21 0.68792835E-03 0.23705286E+02</pdfrwt>
<totfact> 0.71343506E+07</totfact>
</mgrwt>
</event>
<event>
 4    1  0.7478314E+004  0.2089527E+02  0.7546771E-02  0.1728089E+00
         21   -1    0    0  503  502  0.00000000000E+00  0.00000000000E+00  0.28865502887E+02  0.28865502887E+02  0.00000000000E+00 0. -1.
         21   -1    0    0  501  503 -0.00000000000E+00 -0.00000000000E+00 -0.21361739499E+02  0.21361739499E+02  0.00000000000E+00 0. -1.
          3    1    1    2  501    0  0.19978846108E+02  0.61202880517E+01 -0.98169956177E+01  0.23086481339E+02  0.00000000000E+00 0. -1.
         -3    1    1    2    0  502 -0.19978846108E+02 -0.61202880517E+01  0.17320759006E+02  0.27140761047E+02  0.00000000000E+00 0.  1.
<mgrwt>
<rscale>  2 0.20895268E+02</rscale>
<asrwt>0</asrwt>
<pdfrwt beam="1">  1       21 0.44408466E-02 0.20895268E+02</pdfrwt>
<pdfrwt beam="2">  1       21 0.32864214E-02 0.20895268E+02</pdfrwt>
<totfact> 0.11663093E+08</totfact>
</mgrwt>
</event>
<event>
 4    1  0.7478314E+004  0.2125047E+02  0.7546771E-02  0.1721547E+00
         21   -1    0    0  501  502  0.00000000000E+00  0.00000000000E+00  0.17857268448E+03  0.17857268448E+03  0.00000000000E+00 0. -1.
         21   -1    0    0  502  503 -0.00000000000E+00 -0.00000000000E+00 -0.42595895158E+01  0.42595895158E+01  0.00000000000E+00 0. -1.
          4    1    1    2  501    0  0.23725257917E+00  0.21249144130E+02  0.14542797143E+03  0.14697236913E+03  0.00000000000E+00 0. -1.
         -4    1    1    2    0  503 -0.23725257917E+00 -0.21249144130E+02  0.28885123536E+02  0.35859904862E+02  0.00000000000E+00 0.  1.
<mgrwt>
<rscale>  2 0.21250469E+02</rscale>
<asrwt>0</asrwt>
<pdfrwt beam="1">  1       21 0.27472715E-01 0.21250469E+02</pdfrwt>
<pdfrwt beam="2">  1       21 0.65532160E-03 0.21250469E+02</pdfrwt>
<totfact> 0.64631131E+07</totfact>
</mgrwt>
</event>
<event>
 4    1  0.7478314E+004  0.2483469E+02  0.7546771E-02  0.1663388E+00
         21   -1    0    0  501  502  0.00000000000E+00  0.00000000000E+00  0.76341932668E+03  0.76341932668E+03  0.00000000000E+00 0.  1.
         21   -1    0    0  502  503 -0.00000000000E+00 -0.00000000000E+00 -0.10659141273E+01  0.10659141273E+01  0.00000000000E+00 0.  1.
          3    1    1    2  501    0  0.24596268095E+02  0.34329558899E+01  0.56924047168E+03  0.56978195496E+03  0.00000000000E+00 0.  1.
         -3    1    1    2    0  503 -0.24596268095E+02 -0.34329558899E+01  0.19311294087E+03  0.19470328585E+03  0.00000000000E+00 0. -1.
<mgrwt>
<rscale>  2 0.24834685E+02</rscale>
<asrwt>0</asrwt>
<pdfrwt beam="1">  1       21 0.11744869E+00 0.24834685E+02</pdfrwt>
<pdfrwt beam="2">  1       21 0.16398740E-03 0.24834685E+02</pdfrwt>
<totfact> 0.27807935E+07</totfact>
</mgrwt>
</event>
<event>
 4    1  0.7478314E+004  0.2672855E+02  0.7546771E-02  0.1637347E+00
         21   -1    0    0  503  502  0.00000000000E+00  0.00000000000E+00  0.71537094622E+03  0.71537094622E+03  0.00000000000E+00 0. -1.
         21   -1    0    0  501  503 -0.00000000000E+00 -0.00000000000E+00 -0.16246935856E+01  0.16246935856E+01  0.00000000000E+00 0. -1.
          4    1    1    2  501    0 -0.16318675204E+01  0.26678691709E+02  0.13433827561E+03  0.13697148563E+03  0.00000000000E+00 0. -1.
         -4    1    1    2    0  502  0.16318675204E+01 -0.26678691709E+02  0.57940797702E+03  0.58002415417E+03  0.00000000000E+00 0.  1.
<mgrwt>
<rscale>  2 0.26728554E+02</rscale>
<asrwt>0</asrwt>
<pdfrwt beam="1">  1       21 0.11005682E+00 0.26728554E+02</pdfrwt>
<pdfrwt beam="2">  1       21 0.24995343E-03 0.26728554E+02</pdfrwt>
<totfact> 0.17693947E+07</totfact>
</mgrwt>
</event>
<event>
 4    1  0.7478314E+004  0.2229639E+02  0.7546771E-02  0.1703176E+00
         21   -1    0    0  503  502  0.00000000000E+00  0.00000000000E+00  0.66891029929E+02  0.66891029929E+02  0.00000000000E+00 0.  1.
         21   -1    0    0  501  503 -0.00000000000E+00 -0.00000000000E+00 -0.10287421243E+02  0.10287421243E+02  0.00000000000E+00 0.  1.
          1    1    1    2  501    0 -0.70750300966E+01 -0.21144098076E+02  0.48632573366E+02  0.53500057257E+02  0.00000000000E+00 0.  1.
         -1    1    1    2    0  502  0.70750300966E+01  0.21144098076E+02  0.79710353209E+01  0.23678393916E+02  0.00000000000E+00 0. -1.
<mgrwt>
<rscale>  2 0.22296388E+02</rscale>
<asrwt>0</asrwt>
<pdfrwt beam="1">  1       21 0.10290927E-01 0.22296388E+02</pdfrwt>
<pdfrwt beam="2">  1       21 0.15826802E-02 0.22296388E+02</pdfrwt>
<totfact> 0.94243686E+07</totfact>
</mgrwt>
</event>
<event>
 4    1  0.7478314E+004  0.2598076E+02  0.7546771E-02  0.1647302E+00
         21   -1    0    0  501  502  0.00000000000E+00  0.00000000000E+00  0.85147653223E+03  0.85147653223E+03  0.00000000000E+00 0. -1.
         21   -1    0    0  502  503 -0.00000000000E+00 -0.00000000000E+00 -0.93208790597E+00  0.93208790597E+00  0.00000000000E+00 0. -1.
          2    1    1    2  501    0  0.25964198635E+02  0.92756446884E+00  0.26047922788E+03  0.26177170997E+03  0.00000000000E+00 0.  1.
         -2    1    1    2    0  503 -0.25964198635E+02 -0.92756446884E+00  0.59006521645E+03  0.59063691017E+03  0.00000000000E+00 0. -1.
<mgrwt>
<rscale>  2 0.25980762E+02</rscale>
<asrwt>0</asrwt>
<pdfrwt beam="1">  1       21 0.13099577E+00 0.25980762E+02</pdfrwt>
<pdfrwt beam="2">  1       21 0.14339882E-03 0.25980762E+02</pdfrwt>
<totfact> 0.26475295E+07</totfact>
</mgrwt>
</event>
<event>
 4    1  0.7478314E+004  0.2305529E+02  0.7546771E-02  0.1690615E+00
         21   -1    0    0  501  502  0.00000000000E+00  0.00000000000E+00  0.19507656859E+02  0.19507656859E+02  0.00000000000E+00 0.  1.
         21   -1    0    0  502  503 -0.00000000000E+00 -0.00000000000E+00 -0.31809933884E+02  0.31809933884E+02  0.00000000000E+00 0.  1.
          4    1    1    2  501    0  0.21136574045E+02  0.92082477316E+01 -0.15867968502E+02  0.27988194173E+02  0.00000000000E+00 0. -1.
         -4    1    1    2    0  503 -0.21136574045E+02 -0.92082477316E+01  0.35656914766E+01  0.23329396571E+02  0.00000000000E+00 0.  1.
<mgrwt>
<rscale>  2 0.23055294E+02</rscale>
<asrwt>0</asrwt>
<pdfrwt beam="1">  1       21 0.30011780E-02 0.23055294E+02</pdfrwt>
<pdfrwt beam="2">  1       21 0.48938360E-02 0.23055294E+02</pdfrwt>
<totfact> 0.11861194E+08</totfact>
</mgrwt>
</event>
<event>
 4    1  0.7478314E+004  0.4963116E+02  0.7546771E-02  0.1447341E+00
         21   -1    0    0  503  502  0.00000000000E+00  0.00000000000E+00  0.17527631967E+01  0.17527631967E+01  0.00000000000E+00 0.  1.
         21   -1    0    0  501  503 -0.00000000000E+00 -0.00000000000E+00 -0.14916477031E+04  0.14916477031E+04  0.00000000000E+00 0.  1.
          3    1    1    2  501    0  0.37657663022E+02  0.32328819981E+02 -0.56534862204E+03  0.56752296572E+03  0.00000000000E+00 0.  1.
         -3    1    1    2    0  502 -0.37657663022E+02 -0.32328819981E+02 -0.92454631786E+03  0.92587750056E+03  0.00000000000E+00 0. -1.
<mgrwt>
<rscale>  2 0.49631161E+02</rscale>
<asrwt>0</asrwt>
<pdfrwt beam="1">  1       21 0.26965595E-03 0.49631161E+02</pdfrwt>
<pdfrwt beam="2">  1       21 0.22948420E+00 0.49631161E+02</pdfrwt>
<totfact> 0.26420353E+06</totfact>
</mgrwt>
</event>
<event>
 4    1  0.7478314E+004  0.2704139E+02  0.7546771E-02  0.1633301E+00
         21   -1    0    0  501  502  0.00000000000E+00  0.00000000000E+00  0.49330842902E+01  0.49330842902E+01  0.00000000000E+00 0.  1.
         21   -1    0    0  502  503 -0.00000000000E+00 -0.00000000000E+00 -0.16652493237E+03  0.16652493237E+03  0.00000000000E+00 0.  1.
          5    1    1    2  501    0 -0.18587321386E+02  0.19640478467E+02 -0.52381454534E+02  0.58949586002E+02  0.00000000000E+00 0. -1.
         -5    1    1    2    0  503  0.18587321386E+02 -0.19640478467E+02 -0.10921039355E+03  0.11250843066E+03  0.00000000000E+00 0.  1.
<mgrwt>
<rscale>  2 0.27041393E+02</rscale>
<asrwt>0</asrwt>
<pdfrwt beam="1">  1       21 0.75893594E-03 0.27041393E+02</pdfrwt>
<pdfrwt beam="2">  1       21 0.25619224E-01 0.27041393E+02</pdfrwt>
<totfact> 0.62506187E+07</totfact>
</mgrwt>
</event>
<event>
 4    1  0.7478314E+004  0.2689887E+02  0.7546771E-02  0.1635136E+00
         21   -1    0    0  501  502  0.00000000000E+00  0.00000000000E+00  0.80410244758E+00  0.80410244758E+00  0.00000000000E+00 0. -1.
         21   -1    0    0  502  503 -0.00000000000E+00 -0.00000000000E+00 -0.12554817929E+04  0.12554817929E+04  0.00000000000E+00 0. -1.
          1    1    1    2  501    0  0.11417083873E+01 -0.26874629835E+02 -0.96166514932E+03  0.96204127180E+03  0.00000000000E+00 0. -1.
         -1    1    1    2    0  503 -0.11417083873E+01  0.26874629835E+02 -0.29301254118E+03  0.29424462359E+03  0.00000000000E+00 0.  1.
<mgrwt>
<rscale>  2 0.26898870E+02</rscale>
<asrwt>0</asrwt>
<pdfrwt beam="1">  1       21 0.12370724E-03 0.26898870E+02</pdfrwt>
<pdfrwt beam="2">  1       21 0.19315234E+00 0.26898870E+02</pdfrwt>
<totfact> 0.12788267E+07</totfact>
</mgrwt>
</event>
<event>
 4    1  0.7478314E+004  0.2945808E+02  0.7546771E-02  0.1604157E+00
         21   -1    0    0  501  502  0.00000000000E+00  0.00000000000E+00  0.58867896461E+01  0.58867896461E+01  0.00000000000E+00 0. -1.
         21   -1    0    0  502  503 -0.00000000000E+00 -0.00000000000E+00 -0.14810666036E+03  0.14810666036E+03  0.00000000000E+00 0. -1.
          3    1    1    2  501    0 -0.29457286452E+02  0.21563228416E+00 -0.76386458560E+02  0.81869831280E+02  0.00000000000E+00 0.  1.
         -3    1    1    2    0  503  0.29457286452E+02 -0.21563228416E+00 -0.65833412157E+02  0.72123618730E+02  0.00000000000E+00 0. -1.
<mgrwt>
<rscale>  2 0.29458076E+02</rscale>
<asrwt>0</asrwt>
<pdfrwt beam="1">  1       21 0.90566003E-03 0.29458076E+02</pdfrwt>
<pdfrwt beam="2">  1       21 0.22785638E-01 0.29458076E+02</pdfrwt>
<totfact> 0.60287185E+07</totfact>
</mgrwt>
</event>
<event>
 4    1  0.7478314E+004  0.2948953E+02  0.7546771E-02  0.1603801E+00
         21   -1    0    0  503  502  0.00000000000E+00  0.00000000000E+00  0.29496932152E+03  0.29496932152E+03  0.00000000000E+00 0.  1.
         21   -1    0    0  501  503 -0.00000000000E+00 -0.00000000000E+00 -0.42070583294E+01  0.42070583294E+01  0.00000000000E+00 0.  1.
          1    1    1    2  501    0  0.28489272458E+02  0.76153714720E+01  0.63554599580E+02  0.70062969218E+02  0.00000000000E+00 0. -1.
         -1    1    1    2    0  502 -0.28489272458E+02 -0.76153714720E+01  0.22720766361E+03  0.22911341063E+03  0.00000000000E+00 0.  1.
<mgrwt>
<rscale>  2 0.29489533E+02</rscale>
<asrwt>0</asrwt>
<pdfrwt beam="1">  1       21 0.45379879E-01 0.29489533E+02</pdfrwt>
<pdfrwt beam="2">  1       21 0.64723998E-03 0.29489533E+02</pdfrwt>
<totfact> 0.27831562E+07</totfact>
</mgrwt>
</event>
<event>
 4    1  0.7478314E+004  0.2083062E+02  0.7546771E-02  0.1729297E+00
         21   -1    0    0  503  502  0.00000000000E+00  0.00000000000E+00  0.13914789124E+03  0.13914789124E+03  0.00000000000E+00 0. -1.
         21   -1    0    0  501  503 -0.00000000000E+00 -0.00000000000E+00 -0.31185092556E+01  0.31185092556E+01  0.00000000000E+00 0. -1.
          2    1    1    2  501    0  0.20790359139E+02  0.12944079100E+01  0.68491068839E+02  0.71588693490E+02  0.00000000000E+00 0.  1.
         -2    1    1    2    0  502 -0.20790359139E+02 -0.12944079100E+01  0.67538313144E+02  0.70677707003E+02  0.00000000000E+00 0. -1.
<mgrwt>
<rscale>  2 0.20830615E+02</rscale>
<asrwt>0</asrwt>
<pdfrwt beam="1">  1       21 0.21407363E-01 0.20830615E+02</pdfrwt>
<pdfrwt beam="2">  1       21 0.47977076E-03 0.20830615E+02</pdfrwt>
<totfact> 0.15831983E+08</totfact>
</mgrwt>
</event>
<event>
 4    1  0.7478314E+004  0.3104088E+02  0.7546771E-02  0.1586860E+00
         21   -1    0    0  503  502  0.00000000000E+00  0.00000000000E+00  0.66227716660E+02  0.66227716660E+02  0.00000000000E+00 0.  1.
         21   -1    0    0  501  503 -0.00000000000E+00 -0.00000000000E+00 -0.20819018648E+02  0.20819018648E+02  0.00000000000E+00 0.  1.
          4    1    1    2  501    0  0.26122876994E+02 -0.16766972180E+02 -0.11810515383E+01  0.31063337575E+02  0.00000000000E+00 0. -1.
         -4    1    1    2    0  502 -0.26122876994E+02  0.16766972180E+02  0.46589749550E+02  0.55983397733E+02  0.00000000000E+00 0.  1.
<mgrwt>
<rscale>  2 0.31040877E+02</rscale>
<asrwt>0</asrwt>
<pdfrwt beam="1">  1       21 0.10188879E-01 0.31040877E+02</pdfrwt>
<pdfrwt beam="2">  1       21 0.32029260E-02 0.31040877E+02</pdfrwt>
<totfact> 0.34856599E+07</totfact>
</mgrwt>
</event>
<event>
 4    1  0.7478314E+004  0.2846873E+02  0.7546771E-02  0.1615659E+00
         21   -1    0    0  501  502  0.00000000000E+00  0.00000000000E+00  0.23773202068E+02  0.23773202068E+02  0.00000000000E+00 0. -1.
         21   -1    0    0  502  503 -0.00000000000E+00 -0.00000000000E+00 -0.34302228236E+02  0.34302228236E+02  0.00000000000E+00 0. -1.
          5    1    1    2  501    0  0.15052959511E+02  0.24163550433E+02 -0.75394081565E+01  0.29450151696E+02  0.00000000000E+00 0. -1.
         -5    1    1    2    0  503 -0.15052959511E+02 -0.24163550433E+02 -0.29896180112E+01  0.28625278609E+02  0.00000000000E+00 0.  1.
<mgrwt>
<rscale>  2 0.28468733E+02</rscale>
<asrwt>0</asrwt>
<pdfrwt beam="1">  1       21 0.36574157E-02 0.28468733E+02</pdfrwt>
<pdfrwt beam="2">  1       21 0.52772659E-02 0.28468733E+02</pdfrwt>
<totfact> 0.81577663E+07</totfact>
</mgrwt>
</event>
<event>
 4    1  0.7478314E+004  0.2176162E+02  0.7546771E-02  0.1712408E+00
         21   -1    0    0  503  502  0.00000000000E+00  0.00000000000E+00  0.22522157540E+01  0.22522157540E+01  0.00000000000E+00 0.  1.
         21   -1    0    0  501  503 -0.00000000000E+00 -0.00000000000E+00 -0.28120898487E+03  0.28120898487E+03  0.00000000000E+00 0.  1.
          1    1    1    2  501    0  0.18489803145E+02  0.11475854652E+02 -0.68291697616E+02  0.71675128347E+02  0.00000000000E+00 0. -1.
         -1    1    1    2    0  502 -0.18489803145E+02 -0.11475854652E+02 -0.21066507150E+03  0.21178607228E+03  0.00000000000E+00 0.  1.
<mgrwt>
<rscale>  2 0.21761619E+02</rscale>
<asrwt>0</asrwt>
<pdfrwt beam="1">  1       21 0.34649500E-03 0.21761619E+02</pdfrwt>
<pdfrwt beam="2">  1       21 0.43262887E-01 0.21761619E+02</pdfrwt>
<totfact> 0.71795896E+07</totfact>
</mgrwt>
</event>
<event>
 4    1  0.7478314E+004  0.6763702E+02  0.7546771E-02  0.1368318E+00
         21   -1    0    0  501  502  0.00000000000E+00  0.00000000000E+00  0.47432701470E+02  0.47432701470E+02  0.00000000000E+00 0. -1.
         21   -1    0    0  502  503 -0.00000000000E+00 -0.00000000000E+00 -0.11213401351E+03  0.11213401351E+03  0.00000000000E+00 0. -1.
          5    1    1    2  501    0  0.40980866059E+02  0.53808318378E+02 -0.62191186357E+02  0.91883133219E+02  0.00000000000E+00 0. -1.
         -5    1    1    2    0  503 -0.40980866059E+02 -0.53808318378E+02 -0.25101256877E+01  0.67683581766E+02  0.00000000000E+00 0.  1.
<mgrwt>
<rscale>  2 0.67637020E+02</rscale>
<asrwt>0</asrwt>
<pdfrwt beam="1">  1       21 0.72973388E-02 0.67637020E+02</pdfrwt>
<pdfrwt beam="2">  1       21 0.17251387E-01 0.67637020E+02</pdfrwt>
<totfact> 0.40618796E+06</totfact>
</mgrwt>
</event>
<event>
 4    1  0.7478314E+004  0.5246939E+02  0.7546771E-02  0.1432460E+00
         21   -1    0    0  501  502  0.00000000000E+00  0.00000000000E+00  0.22736013782E+01  0.22736013782E+01  0.00000000000E+00 0. -1.
         21   -1    0    0  502  503 -0.00000000000E+00 -0.00000000000E+00 -0.12463426354E+04  0.12463426354E+04  0.00000000000E+00 0. -1.
          2    1    1    2  501    0  0.37116243395E+02  0.37086678228E+02 -0.72735743398E+03  0.72924747102E+03  0.00000000000E+00 0.  1.
         -2    1    1    2    0  503 -0.37116243395E+02 -0.37086678228E+02 -0.51671160008E+03  0.51936876580E+03  0.00000000000E+00 0. -1.
<mgrwt>
<rscale>  2 0.52469393E+02</rscale>
<asrwt>0</asrwt>
<pdfrwt beam="1">  1       21 0.34978450E-03 0.52469393E+02</pdfrwt>
<pdfrwt beam="2">  1       21 0.19174520E+00 0.52469393E+02</pdfrwt>
<totfact> 0.29638174E+06</totfact>
</mgrwt>
</event>
<event>
 4    1  0.7478314E+004  0.2425938E+02  0.7546771E-02  0.1671873E+00
         21   -1    0    0  503  502  0.00000000000E+00  0.00000000000E+00  0.93380092613E+01  0.93380092613E+01  0.00000000000E+00 0. -1.
         21   -1    0    0  501  503 -0.00000000000E+00 -0.00000000000E+00 -0.63070386178E+02  0.63070386178E+02  0.00000000000E+00 0. -1.
          1    1    1    2  501    0 -0.20068985924E+02  0.13629139571E+02 -0.27849222015E+02  0.36933681217E+02  0.00000000000E+00 0.  1.
         -1    1    1    2    0  502  0.20068985924E+02 -0.13629139571E+02 -0.25883154902E+02  0.35474714222E+02  0.00000000000E+00 0. -1.
<mgrwt>
<rscale>  2 0.24259383E+02</rscale>
<asrwt>0</asrwt>
<pdfrwt beam="1">  1       21 0.14366168E-02 0.24259383E+02</pdfrwt>
<pdfrwt beam="2">  1       21 0.97031363E-02 0.24259383E+02</pdfrwt>
<totfact> 0.12331066E+08</totfact>
</mgrwt>
</event>
<event>
 4    1  0.7478314E+004  0.2269757E+02  0.7546771E-02  0.1696460E+00
         21   -1    0    0  501  502  0.00000000000E+00  0.00000000000E+00  0.30988576060E+01  0.30988576060E+01  0.00000000000E+00 0.  1.
         21   -1    0    0  502  503 -0.00000000000E+00 -0.00000000000E+00 -0.17040470409E+03  0.17040470409E+03  0.00000000000E+00 0.  1.
          5    1    1    2  501    0  0.79592517355E+01 -0.21256293343E+02 -0.97201647796E+02  0.99816531843E+02  0.00000000000E+00 0.  1.
         -5    1    1    2    0  503 -0.79592517355E+01  0.21256293343E+02 -0.70104198686E+02  0.73687029851E+02  0.00000000000E+00 0. -1.
<mgrwt>
<rscale>  2 0.22697570E+02</rscale>
<asrwt>0</asrwt>
<pdfrwt beam="1">  1       21 0.47674716E-03 0.22697570E+02</pdfrwt>
<pdfrwt beam="2">  1       21 0.26216117E-01 0.22697570E+02</pdfrwt>
<totfact> 0.11445389E+08</totfact>
</mgrwt>
</event>
<event>
 4    1  0.7478314E+004  0.2147420E+02  0.7546771E-02  0.1717507E+00
         21   -1    0    0  501  502  0.00000000000E+00  0.00000000000E+00  0.48626915124E+02  0.48626915124E+02  0.00000000000E+00 0.  1.
         21   -1    0    0  502  503 -0.00000000000E+00 -0.00000000000E+00 -0.12654482636E+02  0.12654482636E+02  0.00000000000E+00 0.  1.
          2    1    1    2  501    0  0.13767505645E+01  0.21430024874E+02  0.26474574679E+01  0.21636784403E+02  0.00000000000E+00 0. -1.
         -2    1    1    2    0  503 -0.13767505645E+01 -0.21430024874E+02  0.33324975020E+02  0.39644613358E+02  0.00000000000E+00 0.  1.
<mgrwt>
<rscale>  2 0.21474203E+02</rscale>
<asrwt>0</asrwt>
<pdfrwt beam="1">  1       21 0.74810637E-02 0.21474203E+02</pdfrwt>
<pdfrwt beam="2">  1       21 0.19468435E-02 0.21474203E+02</pdfrwt>
<totfact> 0.11459034E+08</totfact>
</mgrwt>
</event>
<event>
 4    1  0.7478314E+004  0.2642301E+02  0.7546771E-02  0.1641366E+00
         21   -1    0    0  503  502  0.00000000000E+00  0.00000000000E+00  0.27312559307E+01  0.27312559307E+01  0.00000000000E+00 0. -1.
         21   -1    0    0  501  503 -0.00000000000E+00 -0.00000000000E+00 -0.32104706671E+03  0.32104706671E+03  0.00000000000E+00 0. -1.
          2    1    1    2  501    0  0.59782113302E+01 -0.25737843598E+02 -0.86078062025E+02  0.90042258778E+02  0.00000000000E+00 0. -1.
         -2    1    1    2    0  502 -0.59782113302E+01  0.25737843598E+02 -0.23223774876E+03  0.23373606387E+03  0.00000000000E+00 0.  1.
<mgrwt>
<rscale>  2 0.26423013E+02</rscale>
<asrwt>0</asrwt>
<pdfrwt beam="1">  1       21 0.42019290E-03 0.26423013E+02</pdfrwt>
<pdfrwt beam="2">  1       21 0.49391894E-01 0.26423013E+02</pdfrwt>
<totfact> 0.43870705E+07</totfact>
</mgrwt>
</event>
<event>
 4    1  0.7478314E+004  0.2254812E+02  0.7546771E-02  0.1698941E+00
         21   -1    0    0  501  502  0.00000000000E+00  0.00000000000E+00  0.10800582320E+01  0.10800582320E+01  0.00000000000E+00 0.  1.
         21   -1    0    0  502  503 -0.00000000000E+00 -0.00000000000E+00 -0.62386550963E+03  0.62386550963E+03  0.00000000000E+00 0.  1.
          4    1    1    2  501    0 -0.15879490424E+02  0.16008111972E+02 -0.15658167200E+03  0.15819683269E+03  0.00000000000E+00 0.  1.
         -4    1    1    2    0  503  0.15879490424E+02 -0.16008111972E+02 -0.46620377939E+03  0.46674873517E+03  0.00000000000E+00 0. -1.
<mgrwt>
<rscale>  2 0.22548123E+02</rscale>
<asrwt>0</asrwt>
<pdfrwt beam="1">  1       21 0.16616262E-03 0.22548123E+02</pdfrwt>
<pdfrwt beam="2">  1       21 0.95979415E-01 0.22548123E+02</pdfrwt>
<totfact> 0.41854385E+07</totfact>
</mgrwt>
</event>
<event>
 4    1  0.7478314E+004  0.2042585E+02  0.7546771E-02  0.1736990E+00
         21   -1    0    0  501  502  0.00000000000E+00  0.00000000000E+00  0.10097639015E+02  0.10097639015E+02  0.00000000000E+00 0. -1.
         21   -1    0    0  502  503 -0.00000000000E+00 -0.00000000000E+00 -0.61159637173E+02  0.61159637173E+02  0.00000000000E+00 0. -1.
          1    1    1    2  501    0  0.10323925555E+02  0.17624749973E+02 -0.52376167377E+01  0.21086675403E+02  0.00000000000E+00 0. -1.
         -1    1    1    2    0  503 -0.10323925555E+02 -0.17624749973E+02 -0.45824381421E+02  0.50170600785E+02  0.00000000000E+00 0.  1.
<mgrwt>
<rscale>  2 0.20425848E+02</rscale>
<asrwt>0</asrwt>
<pdfrwt beam="1">  1       21 0.15534829E-02 0.20425848E+02</pdfrwt>
<pdfrwt beam="2">  1       21 0.94091752E-02 0.20425848E+02</pdfrwt>
<totfact> 0.10954020E+08</totfact>
</mgrwt>
</event>
<event>
 4    1  0.7478314E+004  0.2154759E+02  0.7546771E-02  0.1716196E+00
         21   -1    0    0  503  502  0.00000000000E+00  0.00000000000E+00  0.49662716097E+02  0.49662716097E+02  0.00000000000E+00 0. -1.
         21   -1    0    0  501  503 -0.00000000000E+00 -0.00000000000E+00 -0.14856946676E+02  0.14856946676E+02  0.00000000000E+00 0. -1.
          3    1    1    2  501    0 -0.21453320517E+02  0.20134001777E+01  0.37045105107E+02  0.42856021209E+02  0.00000000000E+00 0.  1.
         -3    1    1    2    0  502  0.21453320517E+02 -0.20134001777E+01 -0.22393356864E+01  0.21663641564E+02  0.00000000000E+00 0. -1.
<mgrwt>
<rscale>  2 0.21547592E+02</rscale>
<asrwt>0</asrwt>
<pdfrwt beam="1">  1       21 0.76404178E-02 0.21547592E+02</pdfrwt>
<pdfrwt beam="2">  1       21 0.22856841E-02 0.21547592E+02</pdfrwt>
<totfact> 0.86672353E+07</totfact>
</mgrwt>
</event>
<event>
 4    1  0.7478314E+004  0.2160292E+02  0.7546771E-02  0.1715211E+00
         21   -1    0    0  503  502  0.00000000000E+00  0.00000000000E+00  0.30002176264E+02  0.30002176264E+02  0.00000000000E+00 0.  1.
         21   -1    0    0  501  503 -0.00000000000E+00 -0.00000000000E+00 -0.15669764892E+02  0.15669764892E+02  0.00000000000E+00 0.  1.
          5    1    1    2  501    0 -0.35108209980E+01 -0.21315732826E+02  0.91198091495E+01  0.23449035138E+02  0.00000000000E+00 0.  1.
         -5    1    1    2    0  502  0.35108209980E+01  0.21315732826E+02  0.52126022222E+01  0.22222906018E+02  0.00000000000E+00 0. -1.
<mgrwt>
<rscale>  2 0.21602924E+02</rscale>
<asrwt>0</asrwt>
<pdfrwt beam="1">  1       21 0.46157194E-02 0.21602924E+02</pdfrwt>
<pdfrwt beam="2">  1       21 0.24107331E-02 0.21602924E+02</pdfrwt>
<totfact> 0.17913658E+08</totfact>
</mgrwt>
</event>
<event>
 4    1  0.7478314E+004  0.3410456E+02  0.7546771E-02  0.1556699E+00
         21   -1    0    0  503  502  0.00000000000E+00  0.00000000000E+00  0.34793500145E+02  0.34793500145E+02  0.00000000000E+00 0.  1.
         21   -1    0    0  501  503 -0.00000000000E+00 -0.00000000000E+00 -0.36013025993E+02  0.36013025993E+02  0.00000000000E+00 0.  1.
          3    1    1    2  501    0  0.31155393924E+02  0.13873079306E+02 -0.10092642277E+02  0.35566590055E+02  0.00000000000E+00 0. -1.
         -3    1    1    2    0  502 -0.31155393924E+02 -0.13873079306E+02  0.88731164295E+01  0.35239936084E+02  0.00000000000E+00 0.  1.
<mgrwt>
<rscale>  2 0.34104558E+02</rscale>
<asrwt>0</asrwt>
<pdfrwt beam="1">  1       21 0.53528462E-02 0.34104558E+02</pdfrwt>
<pdfrwt beam="2">  1       21 0.55404655E-02 0.34104558E+02</pdfrwt>
<totfact> 0.42671959E+07</totfact>
</mgrwt>
</event>
<event>
 4    1  0.7478314E+004  0.2313700E+02  0.7546771E-02  0.1689299E+00
         21   -1    0    0  503  502  0.00000000000E+00  0.00000000000E+00  0.88057853283E+01  0.88057853283E+01  0.00000000000E+00 0.  1.
         21   -1    0    0  501  503 -0.00000000000E+00 -0.00000000000E+00 -0.63154107182E+02  0.63154107182E+02  0.00000000000E+00 0.  1.
          1    1    1    2  501    0 -0.16253684926E+02  0.16466279541E+02 -0.34132674262E+02  0.41235422732E+02  0.00000000000E+00 0. -1.
         -1    1    1    2    0  502  0.16253684926E+02 -0.16466279541E+02 -0.20215647592E+02  0.30724469778E+02  0.00000000000E+00 0.  1.
<mgrwt>
<rscale>  2 0.23136997E+02</rscale>
<asrwt>0</asrwt>
<pdfrwt beam="1">  1       21 0.13547362E-02 0.23136997E+02</pdfrwt>
<pdfrwt beam="2">  1       21 0.97160168E-02 0.23136997E+02</pdfrwt>
<totfact> 0.13265645E+08</totfact>
</mgrwt>
</event>
<event>
 4    1  0.7478314E+004  0.4214978E+02  0.7546771E-02  0.1492962E+00
         21   -1    0    0  501  502  0.00000000000E+00  0.00000000000E+00  0.12063082474E+02  0.12063082474E+02  0.00000000000E+00 0. -1.
         21   -1    0    0  502  503 -0.00000000000E+00 -0.00000000000E+00 -0.14918199979E+03  0.14918199979E+03  0.00000000000E+00 0. -1.
          3    1    1    2  501    0 -0.42107869316E+02 -0.18791328405E+01 -0.59446744349E+02  0.72873309327E+02  0.00000000000E+00 0. -1.
         -3    1    1    2    0  503  0.42107869316E+02  0.18791328405E+01 -0.77672172971E+02  0.88371772940E+02  0.00000000000E+00 0.  1.
<mgrwt>
<rscale>  2 0.42149778E+02</rscale>
<asrwt>0</asrwt>
<pdfrwt beam="1">  1       21 0.18558589E-02 0.42149778E+02</pdfrwt>
<pdfrwt beam="2">  1       21 0.22951076E-01 0.42149778E+02</pdfrwt>
<totfact> 0.21137924E+07</totfact>
</mgrwt>
</event>
<event>
 4    1  0.7478314E+004  0.2833594E+02  0.7546771E-02  0.1617246E+00
         21   -1    0    0  501  502  0.00000000000E+00  0.00000000000E+00  0.46036093143E+02  0.46036093143E+02  0.00000000000E+00 0. -1.
         21   -1    0    0  502  503 -0.00000000000E+00 -0.00000000000E+00 -0.17761962595E+02  0.17761962595E+02  0.00000000000E+00 0. -1.
          2    1    1    2  501    0 -0.23047109770E+02 -0.16485031656E+02  0.98504783982E+01  0.29999291027E+02  0.00000000000E+00 0. -1.
         -2    1    1    2    0  503  0.23047109770E+02  0.16485031656E+02  0.18423652150E+02  0.33798764711E+02  0.00000000000E+00 0.  1.
<mgrwt>
<rscale>  2 0.28335941E+02</rscale>
<asrwt>0</asrwt>
<pdfrwt beam="1">  1       21 0.70824759E-02 0.28335941E+02</pdfrwt>
<pdfrwt beam="2">  1       21 0.27326096E-02 0.28335941E+02</pdfrwt>
<totfact> 0.79986933E+07</totfact>
</mgrwt>
</event>
<event>
 4    1  0.7478314E+004  0.2290855E+02  0.7546771E-02  0.1692997E+00
         21   -1    0    0  501  502  0.00000000000E+00  0.00000000000E+00  0.52019486564E+01  0.52019486564E+01  0.00000000000E+00 0.  1.
         21   -1    0    0  502  503 -0.00000000000E+00 -0.00000000000E+00 -0.10524179727E+03  0.10524179727E+03  0.00000000000E+00 0.  1.
          1    1    1    2  501    0  0.20757637885E+02  0.96913520633E+01 -0.61254833988E+02  0.65398444341E+02  0.00000000000E+00 0.  1.
         -1    1    1    2    0  503 -0.20757637885E+02 -0.96913520633E+01 -0.38785014627E+02  0.45045301586E+02  0.00000000000E+00 0. -1.
<mgrwt>
<rscale>  2 0.22908554E+02</rscale>
<asrwt>0</asrwt>
<pdfrwt beam="1">  1       21 0.80029989E-03 0.22908554E+02</pdfrwt>
<pdfrwt beam="2">  1       21 0.16191044E-01 0.22908554E+02</pdfrwt>
<totfact> 0.12373947E+08</totfact>
</mgrwt>
</event>
<event>
 4    1  0.7478314E+004  0.2463321E+02  0.7546771E-02  0.1666327E+00
         21   -1    0    0  501  502  0.00000000000E+00  0.00000000000E+00  0.14280383092E+03  0.14280383092E+03  0.00000000000E+00 0.  1.
         21   -1    0    0  502  503 -0.00000000000E+00 -0.00000000000E+00 -0.42520490762E+01  0.42520490762E+01  0.00000000000E+00 0.  1.
          5    1    1    2  501    0 -0.17929103491E+02 -0.16892077091E+02  0.67356254777E+02  0.71719314540E+02  0.00000000000E+00 0. -1.
         -5    1    1    2    0  503  0.17929103491E+02  0.16892077091E+02  0.71195527062E+02  0.75336565452E+02  0.00000000000E+00 0.  1.
<mgrwt>
<rscale>  2 0.24633210E+02</rscale>
<asrwt>0</asrwt>
<pdfrwt beam="1">  1       21 0.21969816E-01 0.24633210E+02</pdfrwt>
<pdfrwt beam="2">  1       21 0.65416151E-03 0.24633210E+02</pdfrwt>
<totfact> 0.10031010E+08</totfact>
</mgrwt>
</event>
<event>
 4    1  0.7478314E+004  0.2231159E+02  0.7546771E-02  0.1702918E+00
         21   -1    0    0  503  502  0.00000000000E+00  0.00000000000E+00  0.63630179860E+02  0.63630179860E+02  0.00000000000E+00 0. -1.
         21   -1    0    0  501  503 -0.00000000000E+00 -0.00000000000E+00 -0.78243182501E+01  0.78243182501E+01  0.00000000000E+00 0. -1.
          5    1    1    2  501    0  0.50844231229E+01 -0.21724543794E+02  0.27525319899E+02  0.35432335473E+02  0.00000000000E+00 0.  1.
         -5    1    1    2    0  502 -0.50844231229E+01  0.21724543794E+02  0.28280541711E+02  0.36022162637E+02  0.00000000000E+00 0. -1.
<mgrwt>
<rscale>  2 0.22311593E+02</rscale>
<asrwt>0</asrwt>
<pdfrwt beam="1">  1       21 0.97892581E-02 0.22311593E+02</pdfrwt>
<pdfrwt beam="2">  1       21 0.12037413E-02 0.22311593E+02</pdfrwt>
<totfact> 0.15495984E+08</totfact>
</mgrwt>
</event>
<event>
 4    1  0.7478314E+004  0.2554202E+02  0.7546771E-02  0.1653337E+00
         21   -1    0    0  501  502  0.00000000000E+00  0.00000000000E+00  0.10131230319E+01  0.10131230319E+01  0.00000000000E+00 0. -1.
         21   -1    0    0  502  503 -0.00000000000E+00 -0.00000000000E+00 -0.72332242800E+03  0.72332242800E+03  0.00000000000E+00 0. -1.
          1    1    1    2  501    0  0.15217237448E+01 -0.25496647161E+02 -0.48113072737E+03  0.48180823103E+03  0.00000000000E+00 0. -1.
         -1    1    1    2    0  503 -0.15217237448E+01  0.25496647161E+02 -0.24117857759E+03  0.24252732000E+03  0.00000000000E+00 0.  1.
<mgrwt>
<rscale>  2 0.25542018E+02</rscale>
<asrwt>0</asrwt>
<pdfrwt beam="1">  1       21 0.15586483E-03 0.25542018E+02</pdfrwt>
<pdfrwt beam="2">  1       21 0.11128055E+00 0.25542018E+02</pdfrwt>
<totfact> 0.33955194E+07</totfact>
</mgrwt>
</event>
<event>
 4    1  0.7478314E+004  0.2628700E+02  0.7546771E-02  0.1643176E+00
         21   -1    0    0  501  502  0.00000000000E+00  0.00000000000E+00  0.10279198484E+03  0.10279198484E+03  0.00000000000E+00 0.  1.
         21   -1    0    0  502  503 -0.00000000000E+00 -0.00000000000E+00 -0.77162890796E+01  0.77162890796E+01  0.00000000000E+00 0.  1.
          4    1    1    2  501    0  0.25024969034E+02  0.80471995642E+01  0.27707309993E+02  0.38192951222E+02  0.00000000000E+00 0.  1.
         -4    1    1    2    0  503 -0.25024969034E+02 -0.80471995642E+01  0.67368385770E+02  0.72315322700E+02  0.00000000000E+00 0. -1.
<mgrwt>
<rscale>  2 0.26287002E+02</rscale>
<asrwt>0</asrwt>
<pdfrwt beam="1">  1       21 0.15814151E-01 0.26287002E+02</pdfrwt>
<pdfrwt beam="2">  1       21 0.11871215E-02 0.26287002E+02</pdfrwt>
<totfact> 0.73847670E+07</totfact>
</mgrwt>
</event>
<event>
 4    1  0.7478314E+004  0.2027767E+02  0.7546771E-02  0.1739862E+00
         21   -1    0    0  503  502  0.00000000000E+00  0.00000000000E+00  0.40826360331E+01  0.40826360331E+01  0.00000000000E+00 0. -1.
         21   -1    0    0  501  503 -0.00000000000E+00 -0.00000000000E+00 -0.10220160049E+03  0.10220160049E+03  0.00000000000E+00 0. -1.
          4    1    1    2  501    0  0.13707637487E+02  0.14942707225E+02 -0.42650833326E+02  0.47225812943E+02  0.00000000000E+00 0. -1.
         -4    1    1    2    0  502 -0.13707637487E+02 -0.14942707225E+02 -0.55468131134E+02  0.59058423583E+02  0.00000000000E+00 0.  1.
<mgrwt>
<rscale>  2 0.20277668E+02</rscale>
<asrwt>0</asrwt>
<pdfrwt beam="1">  1       21 0.62809785E-03 0.20277668E+02</pdfrwt>
<pdfrwt beam="2">  1       21 0.15723323E-01 0.20277668E+02</pdfrwt>
<totfact> 0.17973864E+08</totfact>
</mgrwt>
</event>
<event>
 4    1  0.7478314E+004  0.2847083E+02  0.7546771E-02  0.1615634E+00
         21   -1    0    0  501  502  0.00000000000E+00  0.00000000000E+00  0.83426836625E+03  0.83426836625E+03  0.00000000000E+00 0.  1.
         21   -1    0    0  502  503 -0.00000000000E+00 -0.00000000000E+00 -0.11107160679E+01  0.11107160679E+01  0.00000000000E+00 0.  1.
          5    1    1    2  501    0  0.22716325306E+02  0.17162653296E+02  0.26876451758E+03  0.27026830005E+03  0.00000000000E+00 0.  1.
         -5    1    1    2    0  503 -0.22716325306E+02 -0.17162653296E+02  0.56439313260E+03  0.56511078226E+03  0.00000000000E+00 0. -1.
<mgrwt>
<rscale>  2 0.28470829E+02</rscale>
<asrwt>0</asrwt>
<pdfrwt beam="1">  1       21 0.12834848E+00 0.28470829E+02</pdfrwt>
<pdfrwt beam="2">  1       21 0.17088006E-03 0.28470829E+02</pdfrwt>
<totfact> 0.21875826E+07</totfact>
</mgrwt>
</event>
<event>
 4    1  0.7478314E+004  0.2066100E+02  0.7546771E-02  0.1732494E+00
         21   -1    0    0  501  502  0.00000000000E+00  0.00000000000E+00  0.32358793431E+03  0.32358793431E+03  0.00000000000E+00 0.  1.
         21   -1    0    0  502  503 -0.00000000000E+00 -0.00000000000E+00 -0.14332277325E+01  0.14332277325E+01  0.00000000000E+00 0.  1.
          1    1    1    2  501    0 -0.14413298751E+02  0.14803162870E+02  0.20691597887E+03  0.20794494253E+03  0.00000000000E+00 0. -1.
         -1    1    1    2    0  503  0.14413298751E+02 -0.14803162870E+02  0.11523872771E+03  0.11707621952E+03  0.00000000000E+00 0.  1.
<mgrwt>
<rscale>  2 0.20660997E+02</rscale>
<asrwt>0</asrwt>
<pdfrwt beam="1">  1       21 0.49782701E-01 0.20660997E+02</pdfrwt>
<pdfrwt beam="2">  1       21 0.22049683E-03 0.20660997E+02</pdfrwt>
<totfact> 0.10424254E+08</totfact>
</mgrwt>
</event>
<event>
 4    1  0.7478314E+004  0.2433721E+02  0.7546771E-02  0.1670708E+00
         21   -1    0    0  501  502  0.00000000000E+00  0.00000000000E+00  0.74796175927E+00  0.74796175927E+00  0.00000000000E+00 0. -1.
         21   -1    0    0  502  503 -0.00000000000E+00 -0.00000000000E+00 -0.92460466433E+03  0.92460466433E+03  0.00000000000E+00 0. -1.
          3    1    1    2  501    0 -0.90129306880E+01  0.22606783648E+02 -0.63722237371E+03  0.63768695544E+03  0.00000000000E+00 0.  1.
         -3    1    1    2    0  503  0.90129306880E+01 -0.22606783648E+02 -0.28663432886E+03  0.28766567064E+03  0.00000000000E+00 0. -1.
<mgrwt>
<rscale>  2 0.24337206E+02</rscale>
<asrwt>0</asrwt>
<pdfrwt beam="1">  1       21 0.11507085E-03 0.24337206E+02</pdfrwt>
<pdfrwt beam="2">  1       21 0.14224711E+00 0.24337206E+02</pdfrwt>
<totfact> 0.29609544E+07</totfact>
</mgrwt>
</event>
<event>
 4    1  0.7478314E+004  0.3041508E+02  0.7546771E-02  0.1593545E+00
         21   -1    0    0  503  502  0.00000000000E+00  0.00000000000E+00  0.74281483422E+02  0.74281483422E+02  0.00000000000E+00 0. -1.
         21   -1    0    0  501  503 -0.00000000000E+00 -0.00000000000E+00 -0.13854851250E+02  0.13854851250E+02  0.00000000000E+00 0. -1.
          3    1    1    2  501    0  0.96711554537E+01  0.28836540560E+02  0.44227593785E+02  0.53676413547E+02  0.00000000000E+00 0. -1.
         -3    1    1    2    0  502 -0.96711554537E+01 -0.28836540560E+02  0.16199038387E+02  0.34459921125E+02  0.00000000000E+00 0.  1.
<mgrwt>
<rscale>  2 0.30415084E+02</rscale>
<asrwt>0</asrwt>
<pdfrwt beam="1">  1       21 0.11427920E-01 0.30415084E+02</pdfrwt>
<pdfrwt beam="2">  1       21 0.21315156E-02 0.30415084E+02</pdfrwt>
<totfact> 0.54138134E+07</totfact>
</mgrwt>
</event>
<event>
 4    1  0.7478314E+004  0.2049327E+02  0.7546771E-02  0.1735693E+00
         21   -1    0    0  503  502  0.00000000000E+00  0.00000000000E+00  0.33168885502E+02  0.33168885502E+02  0.00000000000E+00 0.  1.
         21   -1    0    0  501  503 -0.00000000000E+00 -0.00000000000E+00 -0.16355265582E+02  0.16355265582E+02  0.00000000000E+00 0.  1.
          3    1    1    2  501    0  0.62174626813E+01 -0.19527351308E+02  0.20174236106E+02  0.28757157261E+02  0.00000000000E+00 0. -1.
         -3    1    1    2    0  502 -0.62174626813E+01  0.19527351308E+02 -0.33606161853E+01  0.20766993823E+02  0.00000000000E+00 0.  1.
<mgrwt>
<rscale>  2 0.20493274E+02</rscale>
<asrwt>0</asrwt>
<pdfrwt beam="1">  1       21 0.51029055E-02 0.20493274E+02</pdfrwt>
<pdfrwt beam="2">  1       21 0.25161947E-02 0.20493274E+02</pdfrwt>
<totfact> 0.14072442E+08</totfact>
</mgrwt>
</event>
<event>
 4    1  0.7478314E+004  0.2731543E+02  0.7546771E-02  0.1629811E+00
         21   -1    0    0  501  502  0.00000000000E+00  0.00000000000E+00  0.26040548771E+02  0.26040548771E+02  0.00000000000E+00 0. -1.
         21   -1    0    0  502  503 -0.00000000000E+00 -0.00000000000E+00 -0.34290148214E+02  0.34290148214E+02  0.00000000000E+00 0. -1.
          3    1    1    2  501    0 -0.18847403866E+02 -0.19771401572E+02 -0.16355845352E+02  0.31837817605E+02  0.00000000000E+00 0.  1.
         -3    1    1    2    0  503  0.18847403866E+02  0.19771401572E+02  0.81062459093E+01  0.28492879380E+02  0.00000000000E+00 0. -1.
<mgrwt>
<rscale>  2 0.27315434E+02</rscale>
<asrwt>0</asrwt>
<pdfrwt beam="1">  1       21 0.40062383E-02 0.27315434E+02</pdfrwt>
<pdfrwt beam="2">  1       21 0.52754074E-02 0.27315434E+02</pdfrwt>
<totfact> 0.69925468E+07</totfact>
</mgrwt>
</event>
<event>
 4    1  0.7478314E+004  0.3178570E+02  0.7546771E-02  0.1579149E+00
         21   -1    0    0  501  502  0.00000000000E+00  0.00000000000E+00  0.23142153592E+02  0.23142153592E+02  0.00000000000E+00 0.  1.
         21   -1    0    0  502  503 -0.00000000000E+00 -0.00000000000E+00 -0.43837448988E+02  0.43837448988E+02  0.00000000000E+00 0.  1.
          5    1    1    2  501    0  0.24659512221E+02 -0.20055896279E+02 -0.12492824218E+02  0.34152615939E+02  0.00000000000E+00 0. -1.
         -5    1    1    2    0  503 -0.24659512221E+02  0.20055896279E+02 -0.82024711772E+01  0.32826986641E+02  0.00000000000E+00 0.  1.
<mgrwt>
<rscale>  2 0.31785697E+02</rscale>
<asrwt>0</asrwt>
<pdfrwt beam="1">  1       21 0.35603314E-02 0.31785697E+02</pdfrwt>
<pdfrwt beam="2">  1       21 0.67442228E-02 0.31785697E+02</pdfrwt>
<totfact> 0.58667414E+07</totfact>
</mgrwt>
</event>
<event>
 4    1  0.7478314E+004  0.2258913E+02  0.7546771E-02  0.1698258E+00
         21   -1    0    0  503  502  0.00000000000E+00  0.00000000000E+00  0.25315786689E+01  0.25315786689E+01  0.00000000000E+00 0.  1.
         21   -1    0    0  501  503 -0.00000000000E+00 -0.00000000000E+00 -0.20589954577E+03  0.20589954577E+03  0.00000000000E+00 0.  1.
          3    1    1    2  501    0  0.21931861766E+02 -0.54094597622E+01 -0.86557028390E+02  0.89456067314E+02  0.00000000000E+00 0. -1.
         -3    1    1    2    0  502 -0.21931861766E+02  0.54094597622E+01 -0.11681093871E+03  0.11897505713E+03  0.00000000000E+00 0.  1.
<mgrwt>
<rscale>  2 0.22589130E+02</rscale>
<asrwt>0</asrwt>
<pdfrwt beam="1">  1       21 0.38947373E-03 0.22589130E+02</pdfrwt>
<pdfrwt beam="2">  1       21 0.31676846E-01 0.22589130E+02</pdfrwt>
<totfact> 0.10922650E+08</totfact>
</mgrwt>
</event>
<event>
 4    1  0.7478314E+004  0.4572839E+02  0.7546771E-02  0.1469845E+00
         21   -1    0    0  501  502  0.00000000000E+00  0.00000000000E+00  0.11218511526E+01  0.11218511526E+01  0.00000000000E+00 0. -1.
         21   -1    0    0  502  503 -0.00000000000E+00 -0.00000000000E+00 -0.22410347598E+04  0.22410347598E+04  0.00000000000E+00 0. -1.
          3    1    1    2  501    0  0.18993800140E+02  0.41597127847E+02 -0.66009661977E+03  0.66167864778E+03  0.00000000000E+00 0.  1.
         -3    1    1    2    0  503 -0.18993800140E+02 -0.41597127847E+02 -0.15798162888E+04  0.15804779631E+04  0.00000000000E+00 0. -1.
<mgrwt>
<rscale>  2 0.45728388E+02</rscale>
<asrwt>0</asrwt>
<pdfrwt beam="1">  1       21 0.17259553E-03 0.45728388E+02</pdfrwt>
<pdfrwt beam="2">  1       21 0.34476849E+00 0.45728388E+02</pdfrwt>
<totfact> 0.12644108E+06</totfact>
</mgrwt>
</event>
<event>
 4    1  0.7478314E+004  0.2004667E+02  0.7546771E-02  0.1744402E+00
         21   -1    0    0  501  502  0.00000000000E+00  0.00000000000E+00  0.51574618479E+03  0.51574618479E+03  0.00000000000E+00 0. -1.
         21   -1    0    0  502  503 -0.00000000000E+00 -0.00000000000E+00 -0.33154632203E+01  0.33154632203E+01  0.00000000000E+00 0. -1.
          4    1    1    2  501    0 -0.81310737001E+01  0.18323606939E+02  0.48320920649E+03  0.48362486099E+03  0.00000000000E+00 0.  1.
         -4    1    1    2    0  503  0.81310737001E+01 -0.18323606939E+02  0.29221515079E+02  0.35436787020E+02  0.00000000000E+00 0. -1.
<mgrwt>
<rscale>  2 0.20046669E+02</rscale>
<asrwt>0</asrwt>
<pdfrwt beam="1">  1       21 0.79345503E-01 0.20046669E+02</pdfrwt>
<pdfrwt beam="2">  1       21 0.51007167E-03 0.20046669E+02</pdfrwt>
<totfact> 0.12002851E+07</totfact>
</mgrwt>
</event>
<event>
 4    1  0.7478314E+004  0.2551125E+02  0.7546771E-02  0.1653765E+00
         21   -1    0    0  501  502  0.00000000000E+00  0.00000000000E+00  0.53788507313E+01  0.53788507313E+01  0.00000000000E+00 0.  1.
         21   -1    0    0  502  503 -0.00000000000E+00 -0.00000000000E+00 -0.12188823212E+03  0.12188823212E+03  0.00000000000E+00 0.  1.
          5    1    1    2  501    0  0.25484390547E+02  0.11703111154E+01 -0.52812841916E+02  0.58651684212E+02  0.00000000000E+00 0. -1.
         -5    1    1    2    0  503 -0.25484390547E+02 -0.11703111154E+01 -0.63696539471E+02  0.68615398638E+02  0.00000000000E+00 0.  1.
<mgrwt>
<rscale>  2 0.25511248E+02</rscale>
<asrwt>0</asrwt>
<pdfrwt beam="1">  1       21 0.82751549E-03 0.25511248E+02</pdfrwt>
<pdfrwt beam="2">  1       21 0.18752036E-01 0.25511248E+02</pdfrwt>
<totfact> 0.94045286E+07</totfact>
</mgrwt>
</event>
<event>
 4    1  0.7478314E+004  0.2317290E+02  0.7546771E-02  0.1688723E+00
         21   -1    0    0  501  502  0.00000000000E+00  0.00000000000E+00  0.53710946246E+01  0.53710946246E+01  0.00000000000E+00 0.  1.
         21   -1    0    0  502  503 -0.00000000000E+00 -0.00000000000E+00 -0.10461200900E+03  0.10461200900E+03  0.00000000000E+00 0.  1.
          1    1    1    2  501    0  0.21533153728E+02 -0.85619168131E+01 -0.38044553581E+02  0.44546281396E+02  0.00000000000E+00 0. -1.
         -1    1    1    2    0  503 -0.21533153728E+02  0.85619168131E+01 -0.61196360795E+02  0.65436822229E+02  0.00000000000E+00 0.  1.
<mgrwt>
<rscale>  2 0.23172896E+02</rscale>
<asrwt>0</asrwt>
<pdfrwt beam="1">  1       21 0.82632240E-03 0.23172896E+02</pdfrwt>
<pdfrwt beam="2">  1       21 0.16094152E-01 0.23172896E+02</pdfrwt>
<totfact> 0.11957605E+08</totfact>
</mgrwt>
</event>
<event>
 4    1  0.7478314E+004  0.2001442E+02  0.7546771E-02  0.1745042E+00
         21   -1    0    0  501  502  0.00000000000E+00  0.00000000000E+00  0.75040540381E+02  0.75040540381E+02  0.00000000000E+00 0. -1.
         21   -1    0    0  502  503 -0.00000000000E+00 -0.00000000000E+00 -0.67037053058E+01  0.67037053058E+01  0.00000000000E+00 0. -1.
          3    1    1    2  501    0  0.70913949501E+01 -0.18716008014E+02  0.52615433657E+02  0.56293522693E+02  0.00000000000E+00 0.  1.
         -3    1    1    2    0  503 -0.70913949501E+01  0.18716008014E+02  0.15721401418E+02  0.25450722993E+02  0.00000000000E+00 0. -1.
<mgrwt>
<rscale>  2 0.20014416E+02</rscale>
<asrwt>0</asrwt>
<pdfrwt beam="1">  1       21 0.11544698E-01 0.20014416E+02</pdfrwt>
<pdfrwt beam="2">  1       21 0.10313393E-02 0.20014416E+02</pdfrwt>
<totfact> 0.14389785E+08</totfact>
</mgrwt>
</event>
<event>
 4    1  0.7478314E+004  0.3312888E+02  0.7546771E-02  0.1565873E+00
         21   -1    0    0  501  502  0.00000000000E+00  0.00000000000E+00  0.24288359229E+01  0.24288359229E+01  0.00000000000E+00 0. -1.
         21   -1    0    0  502  503 -0.00000000000E+00 -0.00000000000E+00 -0.54724877891E+03  0.54724877891E+03  0.00000000000E+00 0. -1.
          1    1    1    2  501    0  0.32699926291E+02 -0.53138997247E+01 -0.38714795209E+03  0.38856281283E+03  0.00000000000E+00 0.  1.
         -1    1    1    2    0  503 -0.32699926291E+02  0.53138997247E+01 -0.15767199089E+03  0.16111480199E+03  0.00000000000E+00 0. -1.
<mgrwt>
<rscale>  2 0.33128880E+02</rscale>
<asrwt>0</asrwt>
<pdfrwt beam="1">  1       21 0.37366732E-03 0.33128880E+02</pdfrwt>
<pdfrwt beam="2">  1       21 0.84192063E-01 0.33128880E+02</pdfrwt>
<totfact> 0.18254225E+07</totfact>
</mgrwt>
</event>
<event>
 4    1  0.7478314E+004  0.1216080E+03  0.7546771E-02  0.1240468E+00
         21   -1    0    0  503  502  0.00000000000E+00  0.00000000000E+00  0.45996967108E+03  0.45996967108E+03  0.00000000000E+00 0.  1.
         21   -1    0    0  501  503 -0.00000000000E+00 -0.00000000000E+00 -0.32707227657E+02  0.32707227657E+02  0.00000000000E+00 0.  1.
          1    1    1    2  501    0  0.82267951125E+02 -0.89557176355E+02  0.18150787882E+03  0.21848023639E+03  0.00000000000E+00 0.  1.
         -1    1    1    2    0  502 -0.82267951125E+02  0.89557176355E+02  0.24575456460E+03  0.27419666235E+03  0.00000000000E+00 0. -1.
<mgrwt>
<rscale>  2 0.12160799E+03</rscale>
<asrwt>0</asrwt>
<pdfrwt beam="1">  1       21 0.70764560E-01 0.12160799E+03</pdfrwt>
<pdfrwt beam="2">  1       21 0.50318815E-02 0.12160799E+03</pdfrwt>
<totfact> 0.48666461E+05</totfact>
</mgrwt>
</event>
<event>
 4    1  0.7478314E+004  0.2180828E+02  0.7546771E-02  0.1711589E+00
         21   -1    0    0  503  502  0.00000000000E+00  0.00000000000E+00  0.58410092158E+01  0.58410092158E+01  0.00000000000E+00 0. -1.
         21   -1    0    0  501  503 -0.00000000000E+00 -0.00000000000E+00 -0.83596163991E+02  0.83596163991E+02  0.00000000000E+00 0. -1.
          3    1    1    2  501    0 -0.21485096030E+02 -0.37405685954E+01 -0.46085200444E+02  0.50984771303E+02  0.00000000000E+00 0. -1.
         -3    1    1    2    0  502  0.21485096030E+02  0.37405685954E+01 -0.31669954331E+02  0.38452401904E+02  0.00000000000E+00 0.  1.
<mgrwt>
<rscale>  2 0.21808283E+02</rscale>
<asrwt>0</asrwt>
<pdfrwt beam="1">  1       21 0.89861678E-03 0.21808283E+02</pdfrwt>
<pdfrwt beam="2">  1       21 0.12860949E-01 0.21808283E+02</pdfrwt>
<totfact> 0.15157527E+08</totfact>
</mgrwt>
</event>
<event>
 4    1  0.7478314E+004  0.6625704E+02  0.7546771E-02  0.1373304E+00
         21   -1    0    0  501  502  0.00000000000E+00  0.00000000000E+00  0.17971449930E+03  0.17971449930E+03  0.00000000000E+00 0.  1.
         21   -1    0    0  502  503 -0.00000000000E+00 -0.00000000000E+00 -0.25916203442E+02  0.25916203442E+02  0.00000000000E+00 0.  1.
          1    1    1    2  501    0 -0.47609710880E+02  0.46079395422E+02  0.52258014070E+02  0.84385397356E+02  0.00000000000E+00 0.  1.
         -1    1    1    2    0  503  0.47609710880E+02 -0.46079395422E+02  0.10154028179E+03  0.12124530538E+03  0.00000000000E+00 0. -1.
<mgrwt>
<rscale>  2 0.66257039E+02</rscale>
<asrwt>0</asrwt>
<pdfrwt beam="1">  1       21 0.27648384E-01 0.66257039E+02</pdfrwt>
<pdfrwt beam="2">  1       21 0.39871083E-02 0.66257039E+02</pdfrwt>
<totfact> 0.46581887E+06</totfact>
</mgrwt>
</event>
<event>
 4    1  0.7478314E+004  0.2291341E+02  0.7546771E-02  0.1692918E+00
         21   -1    0    0  501  502  0.00000000000E+00  0.00000000000E+00  0.72858035764E+02  0.72858035764E+02  0.00000000000E+00 0.  1.
         21   -1    0    0  502  503 -0.00000000000E+00 -0.00000000000E+00 -0.75189415825E+01  0.75189415825E+01  0.00000000000E+00 0.  1.
          3    1    1    2  501    0 -0.48086101423E+01  0.22403164574E+02  0.24472368865E+02  0.33524936276E+02  0.00000000000E+00 0. -1.
         -3    1    1    2    0  503  0.48086101423E+01 -0.22403164574E+02  0.40866725317E+02  0.46852041071E+02  0.00000000000E+00 0.  1.
<mgrwt>
<rscale>  2 0.22913413E+02</rscale>
<asrwt>0</asrwt>
<pdfrwt beam="1">  1       21 0.11208928E-01 0.22913413E+02</pdfrwt>
<pdfrwt beam="2">  1       21 0.11567603E-02 0.22913413E+02</pdfrwt>
<totfact> 0.13250486E+08</totfact>
</mgrwt>
</event>
<event>
 4    1  0.7478314E+004  0.2194745E+02  0.7546771E-02  0.1709162E+00
         21   -1    0    0  501  502  0.00000000000E+00  0.00000000000E+00  0.37337457356E+01  0.37337457356E+01  0.00000000000E+00 0. -1.
         21   -1    0    0  502  503 -0.00000000000E+00 -0.00000000000E+00 -0.13253980593E+03  0.13253980593E+03  0.00000000000E+00 0. -1.
          2    1    1    2  501    0 -0.19283173883E+02 -0.10480920938E+02 -0.75522509757E+02  0.78646932417E+02  0.00000000000E+00 0. -1.
         -2    1    1    2    0  503  0.19283173883E+02  0.10480920938E+02 -0.53283550433E+02  0.57626619244E+02  0.00000000000E+00 0.  1.
<mgrwt>
<rscale>  2 0.21947449E+02</rscale>
<asrwt>0</asrwt>
<pdfrwt beam="1">  1       21 0.57442241E-03 0.21947449E+02</pdfrwt>
<pdfrwt beam="2">  1       21 0.20390740E-01 0.21947449E+02</pdfrwt>
<totfact> 0.13425513E+08</totfact>
</mgrwt>
</event>
<event>
 4    1  0.7478314E+004  0.2537128E+02  0.7546771E-02  0.1655726E+00
         21   -1    0    0  501  502  0.00000000000E+00  0.00000000000E+00  0.28401587400E+03  0.28401587400E+03  0.00000000000E+00 0.  1.
         21   -1    0    0  502  503 -0.00000000000E+00 -0.00000000000E+00 -0.22840763690E+01  0.22840763690E+01  0.00000000000E+00 0.  1.
          1    1    1    2  501    0  0.13911760841E+02  0.21217088729E+02  0.15344849609E+03  0.15553180670E+03  0.00000000000E+00 0. -1.
         -1    1    1    2    0  503 -0.13911760841E+02 -0.21217088729E+02  0.12828330154E+03  0.13076814367E+03  0.00000000000E+00 0.  1.
<mgrwt>
<rscale>  2 0.25371282E+02</rscale>
<asrwt>0</asrwt>
<pdfrwt beam="1">  1       21 0.43694722E-01 0.25371282E+02</pdfrwt>
<pdfrwt beam="2">  1       21 0.35139659E-03 0.25371282E+02</pdfrwt>
<totfact> 0.71679451E+07</totfact>
</mgrwt>
</event>
<event>
 4    1  0.7478314E+004  0.4955431E+02  0.7546771E-02  0.1447760E+00
         21   -1    0    0  503  502  0.00000000000E+00  0.00000000000E+00  0.83393238247E+02  0.83393238247E+02  0.00000000000E+00 0. -1.
         21   -1    0    0  501  503 -0.00000000000E+00 -0.00000000000E+00 -0.29766265937E+02  0.29766265937E+02  0.00000000000E+00 0. -1.
          2    1    1    2  501    0  0.48826516202E+02 -0.84617617489E+01  0.20948224765E+02  0.53800169304E+02  0.00000000000E+00 0. -1.
         -2    1    1    2    0  502 -0.48826516202E+02  0.84617617489E+01  0.32678747545E+02  0.59359334880E+02  0.00000000000E+00 0.  1.
<mgrwt>
<rscale>  2 0.49554315E+02</rscale>
<asrwt>0</asrwt>
<pdfrwt beam="1">  1       21 0.12829729E-01 0.49554315E+02</pdfrwt>
<pdfrwt beam="2">  1       21 0.45794256E-02 0.49554315E+02</pdfrwt>
<totfact> 0.14342382E+07</totfact>
</mgrwt>
</event>
<event>
 4    1  0.7478314E+004  0.2081092E+02  0.7546771E-02  0.1729667E+00
         21   -1    0    0  503  502  0.00000000000E+00  0.00000000000E+00  0.30626326786E+02  0.30626326786E+02  0.00000000000E+00 0.  1.
         21   -1    0    0  501  503 -0.00000000000E+00 -0.00000000000E+00 -0.14316944435E+02  0.14316944435E+02  0.00000000000E+00 0.  1.
          3    1    1    2  501    0 -0.20749291476E+02 -0.16003930035E+01  0.56652827779E+01  0.21568258703E+02  0.00000000000E+00 0. -1.
         -3    1    1    2    0  502  0.20749291476E+02  0.16003930035E+01  0.10644099572E+02  0.23375012518E+02  0.00000000000E+00 0.  1.
<mgrwt>
<rscale>  2 0.20810919E+02</rscale>
<asrwt>0</asrwt>
<pdfrwt beam="1">  1       21 0.47117425E-02 0.20810919E+02</pdfrwt>
<pdfrwt beam="2">  1       21 0.22026069E-02 0.20810919E+02</pdfrwt>
<totfact> 0.19686066E+08</totfact>
</mgrwt>
</event>
<event>
 4    1  0.7478314E+004  0.2108239E+02  0.7546771E-02  0.1724622E+00
         21   -1    0    0  503  502  0.00000000000E+00  0.00000000000E+00  0.84079022590E+01  0.84079022590E+01  0.00000000000E+00 0.  1.
         21   -1    0    0  501  503 -0.00000000000E+00 -0.00000000000E+00 -0.10521567551E+03  0.10521567551E+03  0.00000000000E+00 0.  1.
          2    1    1    2  501    0 -0.20748859212E+02 -0.37352536750E+01 -0.88478331298E+02  0.90955386799E+02  0.00000000000E+00 0.  1.
         -2    1    1    2    0  502  0.20748859212E+02  0.37352536750E+01 -0.83294419545E+01  0.22668190971E+02  0.00000000000E+00 0. -1.
<mgrwt>
<rscale>  2 0.21082393E+02</rscale>
<asrwt>0</asrwt>
<pdfrwt beam="1">  1       21 0.12935234E-02 0.21082393E+02</pdfrwt>
<pdfrwt beam="2">  1       21 0.16187027E-01 0.21082393E+02</pdfrwt>
<totfact> 0.58866286E+07</totfact>
</mgrwt>
</event>
<event>
 4    1  0.7478314E+004  0.2078595E+02  0.7546771E-02  0.1730135E+00
         21   -1    0    0  501  502  0.00000000000E+00  0.00000000000E+00  0.32212024901E+02  0.32212024901E+02  0.00000000000E+00 0.  1.
         21   -1    0    0  502  503 -0.00000000000E+00 -0.00000000000E+00 -0.14103296494E+02  0.14103296494E+02  0.00000000000E+00 0.  1.
          4    1    1    2  501    0  0.20780299941E+02 -0.48476438267E+00  0.39305717097E+01  0.21154320034E+02  0.00000000000E+00 0. -1.
         -4    1    1    2    0  503 -0.20780299941E+02  0.48476438267E+00  0.14178156697E+02  0.25161001361E+02  0.00000000000E+00 0.  1.
<mgrwt>
<rscale>  2 0.20785953E+02</rscale>
<asrwt>0</asrwt>
<pdfrwt beam="1">  1       21 0.49556961E-02 0.20785953E+02</pdfrwt>
<pdfrwt beam="2">  1       21 0.21697379E-02 0.20785953E+02</pdfrwt>
<totfact> 0.18590896E+08</totfact>
</mgrwt>
</event>
<event>
 4    1  0.7478314E+004  0.9113658E+02  0.7546771E-02  0.1300122E+00
         21   -1    0    0  501  502  0.00000000000E+00  0.00000000000E+00  0.13625001541E+02  0.13625001541E+02  0.00000000000E+00 0. -1.
         21   -1    0    0  502  503 -0.00000000000E+00 -0.00000000000E+00 -0.61065261734E+03  0.61065261734E+03  0.00000000000E+00 0. -1.
          3    1    1    2  501    0  0.17788558112E+01 -0.91119222259E+02 -0.31143883157E+03  0.32449964992E+03  0.00000000000E+00 0. -1.
         -3    1    1    2    0  503 -0.17788558112E+01  0.91119222259E+02 -0.28558878423E+03  0.29977796895E+03  0.00000000000E+00 0.  1.
<mgrwt>
<rscale>  2 0.91136584E+02</rscale>
<asrwt>0</asrwt>
<pdfrwt beam="1">  1       21 0.20961539E-02 0.91136584E+02</pdfrwt>
<pdfrwt beam="2">  1       21 0.93946563E-01 0.91136584E+02</pdfrwt>
<totfact> 0.10869128E+06</totfact>
</mgrwt>
</event>
<event>
 4    1  0.7478314E+004  0.2932269E+02  0.7546771E-02  0.1605698E+00
         21   -1    0    0  501  502  0.00000000000E+00  0.00000000000E+00  0.14607874078E+02  0.14607874078E+02  0.00000000000E+00 0.  1.
         21   -1    0    0  502  503 -0.00000000000E+00 -0.00000000000E+00 -0.59165399412E+02  0.59165399412E+02  0.00000000000E+00 0.  1.
          5    1    1    2  501    0  0.13106551610E+02 -0.26230484298E+02 -0.24928746919E+02  0.38487172208E+02  0.00000000000E+00 0.  1.
         -5    1    1    2    0  503 -0.13106551610E+02  0.26230484298E+02 -0.19628778415E+02  0.35286101282E+02  0.00000000000E+00 0. -1.
<mgrwt>
<rscale>  2 0.29322687E+02</rscale>
<asrwt>0</asrwt>
<pdfrwt beam="1">  1       21 0.22473652E-02 0.29322687E+02</pdfrwt>
<pdfrwt beam="2">  1       21 0.91023694E-02 0.29322687E+02</pdfrwt>
<totfact> 0.72378568E+07</totfact>
</mgrwt>
</event>
<event>
 4    1  0.7478314E+004  0.2539921E+02  0.7546771E-02  0.1655333E+00
         21   -1    0    0  503  502  0.00000000000E+00  0.00000000000E+00  0.26929540442E+02  0.26929540442E+02  0.00000000000E+00 0.  1.
         21   -1    0    0  501  503 -0.00000000000E+00 -0.00000000000E+00 -0.31487614576E+02  0.31487614576E+02  0.00000000000E+00 0.  1.
          5    1    1    2  501    0  0.25285880590E+02 -0.23967231189E+01 -0.16564321326E+02  0.30323205304E+02  0.00000000000E+00 0. -1.
         -5    1    1    2    0  502 -0.25285880590E+02  0.23967231189E+01  0.12006247193E+02  0.28093949714E+02  0.00000000000E+00 0.  1.
<mgrwt>
<rscale>  2 0.25399213E+02</rscale>
<asrwt>0</asrwt>
<pdfrwt beam="1">  1       21 0.41430062E-02 0.25399213E+02</pdfrwt>
<pdfrwt beam="2">  1       21 0.48442484E-02 0.25399213E+02</pdfrwt>
<totfact> 0.74623166E+07</totfact>
</mgrwt>
</event>
<event>
 4    1  0.7478314E+004  0.2055787E+02  0.7546771E-02  0.1734456E+00
         21   -1    0    0  503  502  0.00000000000E+00  0.00000000000E+00  0.77344789026E+02  0.77344789026E+02  0.00000000000E+00 0.  1.
         21   -1    0    0  501  503 -0.00000000000E+00 -0.00000000000E+00 -0.77839467218E+01  0.77839467218E+01  0.00000000000E+00 0.  1.
          4    1    1    2  501    0 -0.75487482865E+01  0.19121780988E+02  0.11544060767E+02  0.23577350314E+02  0.00000000000E+00 0. -1.
         -4    1    1    2    0  502  0.75487482865E+01 -0.19121780988E+02  0.58016781538E+02  0.61551385434E+02  0.00000000000E+00 0.  1.
<mgrwt>
<rscale>  2 0.20557872E+02</rscale>
<asrwt>0</asrwt>
<pdfrwt beam="1">  1       21 0.11899198E-01 0.20557872E+02</pdfrwt>
<pdfrwt beam="2">  1       21 0.11975303E-02 0.20557872E+02</pdfrwt>
<totfact> 0.11027911E+08</totfact>
</mgrwt>
</event>
<event>
 4    1  0.7478314E+004  0.2105124E+02  0.7546771E-02  0.1725196E+00
         21   -1    0    0  503  502  0.00000000000E+00  0.00000000000E+00  0.60071633352E+02  0.60071633352E+02  0.00000000000E+00 0.  1.
         21   -1    0    0  501  503 -0.00000000000E+00 -0.00000000000E+00 -0.79942640388E+01  0.79942640388E+01  0.00000000000E+00 0.  1.
          2    1    1    2  501    0  0.17763771954E+02  0.11296163419E+02  0.35494695739E+02  0.41267763782E+02  0.00000000000E+00 0.  1.
         -2    1    1    2    0  502 -0.17763771954E+02 -0.11296163419E+02  0.16582673575E+02  0.26798133609E+02  0.00000000000E+00 0. -1.
<mgrwt>
<rscale>  2 0.21051245E+02</rscale>
<asrwt>0</asrwt>
<pdfrwt beam="1">  1       21 0.92417895E-02 0.21051245E+02</pdfrwt>
<pdfrwt beam="2">  1       21 0.12298868E-02 0.21051245E+02</pdfrwt>
<totfact> 0.16200938E+08</totfact>
</mgrwt>
</event>
<event>
 4    1  0.7478314E+004  0.9536083E+02  0.7546771E-02  0.1290365E+00
         21   -1    0    0  501  502  0.00000000000E+00  0.00000000000E+00  0.15157227928E+04  0.15157227928E+04  0.00000000000E+00 0.  1.
         21   -1    0    0  502  503 -0.00000000000E+00 -0.00000000000E+00 -0.95228377072E+01  0.95228377072E+01  0.00000000000E+00 0.  1.
          1    1    1    2  501    0 -0.92372749598E+02 -0.23684661551E+02  0.28922675913E+03  0.30454196140E+03  0.00000000000E+00 0.  1.
         -1    1    1    2    0  503  0.92372749598E+02  0.23684661551E+02  0.12169731960E+04  0.12207036691E+04  0.00000000000E+00 0. -1.
<mgrwt>
<rscale>  2 0.95360831E+02</rscale>
<asrwt>0</asrwt>
<pdfrwt beam="1">  1       21 0.23318793E+00 0.95360831E+02</pdfrwt>
<pdfrwt beam="2">  1       21 0.14650532E-02 0.95360831E+02</pdfrwt>
<totfact> 0.18243757E+05</totfact>
</mgrwt>
</event>
<event>
 4    1  0.7478314E+004  0.2283181E+02  0.7546771E-02  0.1694251E+00
         21   -1    0    0  501  502  0.00000000000E+00  0.00000000000E+00  0.81077242776E+00  0.81077242776E+00  0.00000000000E+00 0. -1.
         21   -1    0    0  502  503 -0.00000000000E+00 -0.00000000000E+00 -0.66095187030E+03  0.66095187030E+03  0.00000000000E+00 0. -1.
          5    1    1    2  501    0 -0.70913803275E+00 -0.22820798753E+02 -0.27547429869E+03  0.27641885061E+03  0.00000000000E+00 0.  1.
         -5    1    1    2    0  503  0.70913803275E+00  0.22820798753E+02 -0.38466679919E+03  0.38534379213E+03  0.00000000000E+00 0. -1.
<mgrwt>
<rscale>  2 0.22831814E+02</rscale>
<asrwt>0</asrwt>
<pdfrwt beam="1">  1       21 0.12473411E-03 0.22831814E+02</pdfrwt>
<pdfrwt beam="2">  1       21 0.10168500E+00 0.22831814E+02</pdfrwt>
<totfact> 0.55814001E+07</totfact>
</mgrwt>
</event>
<event>
 4    1  0.7478314E+004  0.2342067E+02  0.7546771E-02  0.1684781E+00
         21   -1    0    0  503  502  0.00000000000E+00  0.00000000000E+00  0.13069900618E+03  0.13069900618E+03  0.00000000000E+00 0. -1.
         21   -1    0    0  501  503 -0.00000000000E+00 -0.00000000000E+00 -0.44988861171E+01  0.44988861171E+01  0.00000000000E+00 0. -1.
          2    1    1    2  501    0 -0.44321264289E+00 -0.23416473158E+02  0.45585571698E+02  0.51250092679E+02  0.00000000000E+00 0.  1.
         -2    1    1    2    0  502  0.44321264289E+00  0.23416473158E+02  0.80614548370E+02  0.83947799622E+02  0.00000000000E+00 0. -1.
<mgrwt>
<rscale>  2 0.23420667E+02</rscale>
<asrwt>0</asrwt>
<pdfrwt beam="1">  1       21 0.20107536E-01 0.23420667E+02</pdfrwt>
<pdfrwt beam="2">  1       21 0.69213643E-03 0.23420667E+02</pdfrwt>
<totfact> 0.10628858E+08</totfact>
</mgrwt>
</event>
<event>
 4    1  0.7478314E+004  0.2423878E+02  0.7546771E-02  0.1672183E+00
         21   -1    0    0  501  502  0.00000000000E+00  0.00000000000E+00  0.20932332407E+02  0.20932332407E+02  0.00000000000E+00 0.  1.
         21   -1    0    0  502  503 -0.00000000000E+00 -0.00000000000E+00 -0.32365437778E+02  0.32365437778E+02  0.00000000000E+00 0.  1.
          5    1    1    2  501    0  0.17862007744E+02  0.16384960557E+02  0.39945451898E+01  0.24565720921E+02  0.00000000000E+00 0.  1.
         -5    1    1    2    0  503 -0.17862007744E+02 -0.16384960557E+02 -0.15427650560E+02  0.28732049264E+02  0.00000000000E+00 0. -1.
<mgrwt>
<rscale>  2 0.24238776E+02</rscale>
<asrwt>0</asrwt>
<pdfrwt beam="1">  1       21 0.32203588E-02 0.24238776E+02</pdfrwt>
<pdfrwt beam="2">  1       21 0.49792981E-02 0.24238776E+02</pdfrwt>
<totfact> 0.10488136E+08</totfact>
</mgrwt>
</event>
<event>
 4    1  0.7478314E+004  0.2481888E+02  0.7546771E-02  0.1663617E+00
         21   -1    0    0  503  502  0.00000000000E+00  0.00000000000E+00  0.44967898738E+03  0.44967898738E+03  0.00000000000E+00 0. -1.
         21   -1    0    0  501  503 -0.00000000000E+00 -0.00000000000E+00 -0.15222882780E+01  0.15222882780E+01  0.00000000000E+00 0. -1.
          1    1    1    2  501    0 -0.21299858675E+02 -0.12739424509E+02  0.29547684742E+03  0.29651735916E+03  0.00000000000E+00 0.  1.
         -1    1    1    2    0  502  0.21299858675E+02  0.12739424509E+02  0.15267985168E+03  0.15468391651E+03  0.00000000000E+00 0. -1.
<mgrwt>
<rscale>  2 0.24818882E+02</rscale>
<asrwt>0</asrwt>
<pdfrwt beam="1">  1       21 0.69181277E-01 0.24818882E+02</pdfrwt>
<pdfrwt beam="2">  1       21 0.23419855E-03 0.24818882E+02</pdfrwt>
<totfact> 0.51902613E+07</totfact>
</mgrwt>
</event>
<event>
 4    1  0.7478314E+004  0.3214411E+02  0.7546771E-02  0.1575530E+00
         21   -1    0    0  501  502  0.00000000000E+00  0.00000000000E+00  0.15402734439E+01  0.15402734439E+01  0.00000000000E+00 0. -1.
         21   -1    0    0  502  503 -0.00000000000E+00 -0.00000000000E+00 -0.67360676446E+03  0.67360676446E+03  0.00000000000E+00 0. -1.
          1    1    1    2  501    0  0.30736888057E+02 -0.94067837281E+01 -0.35775199643E+03  0.35919317201E+03  0.00000000000E+00 0.  1.
         -1    1    1    2    0  503 -0.30736888057E+02  0.94067837281E+01 -0.31431449459E+03  0.31595386590E+03  0.00000000000E+00 0. -1.
<mgrwt>
<rscale>  2 0.32144111E+02</rscale>
<asrwt>0</asrwt>
<pdfrwt beam="1">  1       21 0.23696460E-03 0.32144111E+02</pdfrwt>
<pdfrwt beam="2">  1       21 0.10363205E+00 0.32144111E+02</pdfrwt>
<totfact> 0.22539210E+07</totfact>
</mgrwt>
</event>
<event>
 4    1  0.7478314E+004  0.2057779E+02  0.7546771E-02  0.1734076E+00
         21   -1    0    0  503  502  0.00000000000E+00  0.00000000000E+00  0.11485979587E+01  0.11485979587E+01  0.00000000000E+00 0. -1.
         21   -1    0    0  501  503 -0.00000000000E+00 -0.00000000000E+00 -0.44813633012E+03  0.44813633012E+03  0.00000000000E+00 0. -1.
          4    1    1    2  501    0 -0.69013613534E+01 -0.19385989416E+02 -0.31809534967E+03  0.31876024980E+03  0.00000000000E+00 0. -1.
         -4    1    1    2    0  502  0.69013613534E+01  0.19385989416E+02 -0.12889238249E+03  0.13052467827E+03  0.00000000000E+00 0.  1.
<mgrwt>
<rscale>  2 0.20577788E+02</rscale>
<asrwt>0</asrwt>
<pdfrwt beam="1">  1       21 0.17670748E-03 0.20577788E+02</pdfrwt>
<pdfrwt beam="2">  1       21 0.68944013E-01 0.20577788E+02</pdfrwt>
<totfact> 0.75073413E+07</totfact>
</mgrwt>
</event>
<event>
 4    1  0.7478314E+004  0.2524917E+02  0.7546771E-02  0.1657449E+00
         21   -1    0    0  503  502  0.00000000000E+00  0.00000000000E+00  0.86258560944E+01  0.86258560944E+01  0.00000000000E+00 0. -1.
         21   -1    0    0  501  503 -0.00000000000E+00 -0.00000000000E+00 -0.89814436409E+02  0.89814436409E+02  0.00000000000E+00 0. -1.
          2    1    1    2  501    0  0.25231909278E+02 -0.93356051444E+00 -0.19880733551E+02  0.32136651157E+02  0.00000000000E+00 0.  1.
         -2    1    1    2    0  502 -0.25231909278E+02  0.93356051444E+00 -0.61307846763E+02  0.66303641346E+02  0.00000000000E+00 0. -1.
<mgrwt>
<rscale>  2 0.25249174E+02</rscale>
<asrwt>0</asrwt>
<pdfrwt beam="1">  1       21 0.13270548E-02 0.25249174E+02</pdfrwt>
<pdfrwt beam="2">  1       21 0.13817605E-01 0.25249174E+02</pdfrwt>
<totfact> 0.77749295E+07</totfact>
</mgrwt>
</event>
<event>
 4    1  0.7478314E+004  0.2488365E+02  0.7546771E-02  0.1662679E+00
         21   -1    0    0  501  502  0.00000000000E+00  0.00000000000E+00  0.34778786292E+01  0.34778786292E+01  0.00000000000E+00 0. -1.
         21   -1    0    0  502  503 -0.00000000000E+00 -0.00000000000E+00 -0.33240161560E+03  0.33240161560E+03  0.00000000000E+00 0. -1.
          3    1    1    2  501    0  0.53559688740E+01  0.24300403756E+02 -0.50017662984E+02  0.55865576482E+02  0.00000000000E+00 0.  1.
         -3    1    1    2    0  503 -0.53559688740E+01 -0.24300403756E+02 -0.27890607399E+03  0.28001391775E+03  0.00000000000E+00 0. -1.
<mgrwt>
<rscale>  2 0.24883650E+02</rscale>
<asrwt>0</asrwt>
<pdfrwt beam="1">  1       21 0.53505810E-03 0.24883650E+02</pdfrwt>
<pdfrwt beam="2">  1       21 0.51138725E-01 0.24883650E+02</pdfrwt>
<totfact> 0.28323166E+07</totfact>
</mgrwt>
</event>
<event>
 4    1  0.7478314E+004  0.2990842E+02  0.7546771E-02  0.1599103E+00
         21   -1    0    0  503  502  0.00000000000E+00  0.00000000000E+00  0.78800518738E+02  0.78800518738E+02  0.00000000000E+00 0. -1.
         21   -1    0    0  501  503 -0.00000000000E+00 -0.00000000000E+00 -0.14936592677E+02  0.14936592677E+02  0.00000000000E+00 0. -1.
          1    1    1    2  501    0 -0.28675536421E+02 -0.84986545330E+01  0.89705427918E+01  0.31224736282E+02  0.00000000000E+00 0. -1.
         -1    1    1    2    0  502  0.28675536421E+02  0.84986545330E+01  0.54893383270E+02  0.62512375132E+02  0.00000000000E+00 0.  1.
<mgrwt>
<rscale>  2 0.29908419E+02</rscale>
<asrwt>0</asrwt>
<pdfrwt beam="1">  1       21 0.12123156E-01 0.29908419E+02</pdfrwt>
<pdfrwt beam="2">  1       21 0.22979374E-02 0.29908419E+02</pdfrwt>
<totfact> 0.43433664E+07</totfact>
</mgrwt>
</event>
<event>
 4    1  0.7478314E+004  0.2795133E+02  0.7546771E-02  0.1621904E+00
         21   -1    0    0  503  502  0.00000000000E+00  0.00000000000E+00  0.68657860686E+03  0.68657860686E+03  0.00000000000E+00 0. -1.
         21   -1    0    0  501  503 -0.00000000000E+00 -0.00000000000E+00 -0.11391703706E+01  0.11391703706E+01  0.00000000000E+00 0. -1.
          3    1    1    2  501    0 -0.27486329235E+02  0.50772633927E+01  0.33136326573E+03  0.33254005890E+03  0.00000000000E+00 0. -1.
         -3    1    1    2    0  502  0.27486329235E+02 -0.50772633927E+01  0.35407617076E+03  0.35517771833E+03  0.00000000000E+00 0.  1.
<mgrwt>
<rscale>  2 0.27951331E+02</rscale>
<asrwt>0</asrwt>
<pdfrwt beam="1">  1       21 0.10562715E+00 0.27951331E+02</pdfrwt>
<pdfrwt beam="2">  1       21 0.17525753E-03 0.27951331E+02</pdfrwt>
<totfact> 0.32746960E+07</totfact>
</mgrwt>
</event>
<event>
 4    1  0.7478314E+004  0.2529324E+02  0.7546771E-02  0.1656825E+00
         21   -1    0    0  501  502  0.00000000000E+00  0.00000000000E+00  0.47544067731E+01  0.47544067731E+01  0.00000000000E+00 0.  1.
         21   -1    0    0  502  503 -0.00000000000E+00 -0.00000000000E+00 -0.15864943831E+03  0.15864943831E+03  0.00000000000E+00 0.  1.
          1    1    1    2  501    0 -0.24674995896E+02  0.55580945980E+01 -0.10878480505E+03  0.11168653298E+03  0.00000000000E+00 0. -1.
         -1    1    1    2    0  503  0.24674995896E+02 -0.55580945980E+01 -0.45110226483E+02  0.51717312105E+02  0.00000000000E+00 0.  1.
<mgrwt>
<rscale>  2 0.25293237E+02</rscale>
<asrwt>0</asrwt>
<pdfrwt beam="1">  1       21 0.73144706E-03 0.25293237E+02</pdfrwt>
<pdfrwt beam="2">  1       21 0.24407610E-01 0.25293237E+02</pdfrwt>
<totfact> 0.70915375E+07</totfact>
</mgrwt>
</event>
<event>
 4    1  0.7478314E+004  0.3030433E+02  0.7546771E-02  0.1594749E+00
         21   -1    0    0  503  502  0.00000000000E+00  0.00000000000E+00  0.68975736962E+03  0.68975736962E+03  0.00000000000E+00 0.  1.
         21   -1    0    0  501  503 -0.00000000000E+00 -0.00000000000E+00 -0.15004112055E+01  0.15004112055E+01  0.00000000000E+00 0.  1.
          1    1    1    2  501    0 -0.29580476675E+02 -0.65839153160E+01  0.46012495462E+03  0.46112181298E+03  0.00000000000E+00 0. -1.
         -1    1    1    2    0  502  0.29580476675E+02  0.65839153160E+01  0.22813200379E+03  0.23013596785E+03  0.00000000000E+00 0.  1.
<mgrwt>
<rscale>  2 0.30304332E+02</rscale>
<asrwt>0</asrwt>
<pdfrwt beam="1">  1       21 0.10611626E+00 0.30304332E+02</pdfrwt>
<pdfrwt beam="2">  1       21 0.23083304E-03 0.30304332E+02</pdfrwt>
<totfact> 0.22006661E+07</totfact>
</mgrwt>
</event>
<event>
 4    1  0.7478314E+004  0.2374634E+02  0.7546771E-02  0.1679690E+00
         21   -1    0    0  503  502  0.00000000000E+00  0.00000000000E+00  0.84672151542E+00  0.84672151542E+00  0.00000000000E+00 0.  1.
         21   -1    0    0  501  503 -0.00000000000E+00 -0.00000000000E+00 -0.79503107644E+03  0.79503107644E+03  0.00000000000E+00 0.  1.
          3    1    1    2  501    0  0.19771046274E+02  0.13152725377E+02 -0.23675756273E+03  0.23794543906E+03  0.00000000000E+00 0.  1.
         -3    1    1    2    0  502 -0.19771046274E+02 -0.13152725377E+02 -0.55742679219E+03  0.55793235890E+03  0.00000000000E+00 0. -1.
<mgrwt>
<rscale>  2 0.23746336E+02</rscale>
<asrwt>0</asrwt>
<pdfrwt beam="1">  1       21 0.13026543E-03 0.23746336E+02</pdfrwt>
<pdfrwt beam="2">  1       21 0.12231193E+00 0.23746336E+02</pdfrwt>
<totfact> 0.35001209E+07</totfact>
</mgrwt>
</event>
<event>
 4    1  0.7478314E+004  0.8119134E+02  0.7546771E-02  0.1325704E+00
         21   -1    0    0  501  502  0.00000000000E+00  0.00000000000E+00  0.36117890351E+02  0.36117890351E+02  0.00000000000E+00 0.  1.
         21   -1    0    0  502  503 -0.00000000000E+00 -0.00000000000E+00 -0.18563952974E+03  0.18563952974E+03  0.00000000000E+00 0.  1.
          4    1    1    2  501    0 -0.68411107710E+02  0.43725893625E+02 -0.60374485479E+02  0.10117861399E+03  0.00000000000E+00 0.  1.
         -4    1    1    2    0  503  0.68411107710E+02 -0.43725893625E+02 -0.89147153911E+02  0.12057880611E+03  0.00000000000E+00 0. -1.
<mgrwt>
<rscale>  2 0.81191338E+02</rscale>
<asrwt>0</asrwt>
<pdfrwt beam="1">  1       21 0.55565986E-02 0.81191338E+02</pdfrwt>
<pdfrwt beam="2">  1       21 0.28559927E-01 0.81191338E+02</pdfrwt>
<totfact> 0.25662555E+06</totfact>
</mgrwt>
</event>
<event>
 4    1  0.7478314E+004  0.2109646E+02  0.7546771E-02  0.1724364E+00
         21   -1    0    0  503  502  0.00000000000E+00  0.00000000000E+00  0.19724368813E+03  0.19724368813E+03  0.00000000000E+00 0. -1.
         21   -1    0    0  501  503 -0.00000000000E+00 -0.00000000000E+00 -0.22911124367E+01  0.22911124367E+01  0.00000000000E+00 0. -1.
          1    1    1    2  501    0  0.45944937238E+01 -0.20590077270E+02  0.10975656338E+03  0.11176566494E+03  0.00000000000E+00 0.  1.
         -1    1    1    2    0  502 -0.45944937238E+01  0.20590077270E+02  0.85196012315E+02  0.87769135628E+02  0.00000000000E+00 0. -1.
<mgrwt>
<rscale>  2 0.21096461E+02</rscale>
<asrwt>0</asrwt>
<pdfrwt beam="1">  1       21 0.30345170E-01 0.21096461E+02</pdfrwt>
<pdfrwt beam="2">  1       21 0.35247899E-03 0.21096461E+02</pdfrwt>
<totfact> 0.13407859E+08</totfact>
</mgrwt>
</event>
<event>
 4    1  0.7478314E+004  0.2760509E+02  0.7546771E-02  0.1626177E+00
         21   -1    0    0  501  502  0.00000000000E+00  0.00000000000E+00  0.42997921952E+02  0.42997921952E+02  0.00000000000E+00 0.  1.
         21   -1    0    0  502  503 -0.00000000000E+00 -0.00000000000E+00 -0.48760334328E+02  0.48760334328E+02  0.00000000000E+00 0.  1.
          4    1    1    2  501    0 -0.19921130091E+02 -0.19109935263E+02  0.33722565311E+02  0.43580413731E+02  0.00000000000E+00 0.  1.
         -4    1    1    2    0  503  0.19921130091E+02  0.19109935263E+02 -0.39484977686E+02  0.48177842549E+02  0.00000000000E+00 0. -1.
<mgrwt>
<rscale>  2 0.27605091E+02</rscale>
<asrwt>0</asrwt>
<pdfrwt beam="1">  1       21 0.66150649E-02 0.27605091E+02</pdfrwt>
<pdfrwt beam="2">  1       21 0.75015899E-02 0.27605091E+02</pdfrwt>
<totfact> 0.17702020E+07</totfact>
</mgrwt>
</event>
<event>
 4    1  0.7478314E+004  0.2138724E+02  0.7546771E-02  0.1719070E+00
         21   -1    0    0  503  502  0.00000000000E+00  0.00000000000E+00  0.59227000870E+01  0.59227000870E+01  0.00000000000E+00 0. -1.
         21   -1    0    0  501  503 -0.00000000000E+00 -0.00000000000E+00 -0.82336087530E+02  0.82336087530E+02  0.00000000000E+00 0. -1.
          3    1    1    2  501    0 -0.79703906140E+01  0.19846589332E+02 -0.49195423277E+02  0.53643302527E+02  0.00000000000E+00 0.  1.
         -3    1    1    2    0  502  0.79703906140E+01 -0.19846589332E+02 -0.27217964166E+02  0.34615485090E+02  0.00000000000E+00 0. -1.
<mgrwt>
<rscale>  2 0.21387245E+02</rscale>
<asrwt>0</asrwt>
<pdfrwt beam="1">  1       21 0.91118464E-03 0.21387245E+02</pdfrwt>
<pdfrwt beam="2">  1       21 0.12667090E-01 0.21387245E+02</pdfrwt>
<totfact> 0.15139955E+08</totfact>
</mgrwt>
</event>
<event>
 4    1  0.7478314E+004  0.2153353E+02  0.7546771E-02  0.1716446E+00
         21   -1    0    0  503  502  0.00000000000E+00  0.00000000000E+00  0.66251248253E+01  0.66251248253E+01  0.00000000000E+00 0. -1.
         21   -1    0    0  501  503 -0.00000000000E+00 -0.00000000000E+00 -0.71201560944E+02  0.71201560944E+02  0.00000000000E+00 0. -1.
          3    1    1    2  501    0  0.15292532489E+01  0.21479160306E+02 -0.37364129871E+02  0.43125063988E+02  0.00000000000E+00 0.  1.
         -3    1    1    2    0  502 -0.15292532489E+01 -0.21479160306E+02 -0.27212306248E+02  0.34701621782E+02  0.00000000000E+00 0. -1.
<mgrwt>
<rscale>  2 0.21533531E+02</rscale>
<asrwt>0</asrwt>
<pdfrwt beam="1">  1       21 0.10192500E-02 0.21533531E+02</pdfrwt>
<pdfrwt beam="2">  1       21 0.10954086E-01 0.21533531E+02</pdfrwt>
<totfact> 0.16345046E+08</totfact>
</mgrwt>
</event>
<event>
 4    1  0.7478314E+004  0.3056282E+02  0.7546771E-02  0.1591949E+00
         21   -1    0    0  501  502  0.00000000000E+00  0.00000000000E+00  0.10393774802E+02  0.10393774802E+02  0.00000000000E+00 0. -1.
         21   -1    0    0  502  503 -0.00000000000E+00 -0.00000000000E+00 -0.92505311203E+02  0.92505311203E+02  0.00000000000E+00 0. -1.
          2    1    1    2  501    0  0.12607025185E+02  0.27841494170E+02 -0.49740076374E+02  0.58379457683E+02  0.00000000000E+00 0.  1.
         -2    1    1    2    0  503 -0.12607025185E+02 -0.27841494170E+02 -0.32371460027E+02  0.44519628322E+02  0.00000000000E+00 0. -1.
<mgrwt>
<rscale>  2 0.30562819E+02</rscale>
<asrwt>0</asrwt>
<pdfrwt beam="1">  1       21 0.15990422E-02 0.30562819E+02</pdfrwt>
<pdfrwt beam="2">  1       21 0.14231587E-01 0.30562819E+02</pdfrwt>
<totfact> 0.58183581E+07</totfact>
</mgrwt>
</event>
<event>
 4    1  0.7478314E+004  0.2694069E+02  0.7546771E-02  0.1634596E+00
         21   -1    0    0  503  502  0.00000000000E+00  0.00000000000E+00  0.11888354181E+02  0.11888354181E+02  0.00000000000E+00 0.  1.
         21   -1    0    0  501  503 -0.00000000000E+00 -0.00000000000E+00 -0.65028293739E+02  0.65028293739E+02  0.00000000000E+00 0.  1.
          5    1    1    2  501    0  0.26161698137E+02  0.64316623354E+01 -0.36080634603E+02  0.45029023120E+02  0.00000000000E+00 0. -1.
         -5    1    1    2    0  502 -0.26161698137E+02 -0.64316623354E+01 -0.17059304954E+02  0.31887624800E+02  0.00000000000E+00 0.  1.
<mgrwt>
<rscale>  2 0.26940689E+02</rscale>
<asrwt>0</asrwt>
<pdfrwt beam="1">  1       21 0.18289775E-02 0.26940689E+02</pdfrwt>
<pdfrwt beam="2">  1       21 0.10004353E-01 0.26940689E+02</pdfrwt>
<totfact> 0.83283405E+07</totfact>
</mgrwt>
</event>
<event>
 4    1  0.7478314E+004  0.2882089E+02  0.7546771E-02  0.1611500E+00
         21   -1    0    0  503  502  0.00000000000E+00  0.00000000000E+00  0.42952289681E+02  0.42952289681E+02  0.00000000000E+00 0.  1.
         21   -1    0    0  501  503 -0.00000000000E+00 -0.00000000000E+00 -0.20678180584E+02  0.20678180584E+02  0.00000000000E+00 0.  1.
          2    1    1    2  501    0  0.28353237096E+02  0.51708232424E+01  0.19234341943E+02  0.34649724051E+02  0.00000000000E+00 0. -1.
         -2    1    1    2    0  502 -0.28353237096E+02 -0.51708232424E+01  0.30397671533E+01  0.28980746215E+02  0.00000000000E+00 0.  1.
<mgrwt>
<rscale>  2 0.28820886E+02</rscale>
<asrwt>0</asrwt>
<pdfrwt beam="1">  1       21 0.66080446E-02 0.28820886E+02</pdfrwt>
<pdfrwt beam="2">  1       21 0.31812586E-02 0.28820886E+02</pdfrwt>
<totfact> 0.70860809E+07</totfact>
</mgrwt>
</event>
<event>
 4    1  0.7478314E+004  0.4157557E+02  0.7546771E-02  0.1496927E+00
         21   -1    0    0  501  502  0.00000000000E+00  0.00000000000E+00  0.12841101292E+03  0.12841101292E+03  0.00000000000E+00 0.  1.
         21   -1    0    0  502  503 -0.00000000000E+00 -0.00000000000E+00 -0.13634691669E+02  0.13634691669E+02  0.00000000000E+00 0.  1.
          3    1    1    2  501    0 -0.17074206743E+02 -0.37907778548E+02  0.65406528358E+02  0.77501884894E+02  0.00000000000E+00 0. -1.
         -3    1    1    2    0  503  0.17074206743E+02  0.37907778548E+02  0.49369792891E+02  0.64543819692E+02  0.00000000000E+00 0.  1.
<mgrwt>
<rscale>  2 0.41575572E+02</rscale>
<asrwt>0</asrwt>
<pdfrwt beam="1">  1       21 0.19755540E-01 0.41575572E+02</pdfrwt>
<pdfrwt beam="2">  1       21 0.20976450E-02 0.41575572E+02</pdfrwt>
<totfact> 0.22796960E+07</totfact>
</mgrwt>
</event>
<event>
 4    1  0.7478314E+004  0.2356062E+02  0.7546771E-02  0.1682581E+00
         21   -1    0    0  503  502  0.00000000000E+00  0.00000000000E+00  0.42712708899E+01  0.42712708899E+01  0.00000000000E+00 0. -1.
         21   -1    0    0  501  503 -0.00000000000E+00 -0.00000000000E+00 -0.13399861255E+03  0.13399861255E+03  0.00000000000E+00 0. -1.
          2    1    1    2  501    0 -0.20760292296E+02  0.11140601070E+02 -0.76863035097E+02  0.80392965444E+02  0.00000000000E+00 0. -1.
         -2    1    1    2    0  502  0.20760292296E+02 -0.11140601070E+02 -0.52864306567E+02  0.57876918001E+02  0.00000000000E+00 0.  1.
<mgrwt>
<rscale>  2 0.23560618E+02</rscale>
<asrwt>0</asrwt>
<pdfrwt beam="1">  1       21 0.65711864E-03 0.23560618E+02</pdfrwt>
<pdfrwt beam="2">  1       21 0.20615170E-01 0.23560618E+02</pdfrwt>
<totfact> 0.11010188E+08</totfact>
</mgrwt>
</event>
<event>
 4    1  0.7478314E+004  0.2085235E+02  0.7546771E-02  0.1728891E+00
         21   -1    0    0  501  502  0.00000000000E+00  0.00000000000E+00  0.73315131060E+02  0.73315131060E+02  0.00000000000E+00 0.  1.
         21   -1    0    0  502  503 -0.00000000000E+00 -0.00000000000E+00 -0.59414822816E+01  0.59414822816E+01  0.00000000000E+00 0.  1.
          1    1    1    2  501    0  0.11544130946E+02  0.17365301324E+02  0.32010023321E+02  0.38202908821E+02  0.00000000000E+00 0. -1.
         -1    1    1    2    0  503 -0.11544130946E+02 -0.17365301324E+02  0.35363625457E+02  0.41053704520E+02  0.00000000000E+00 0.  1.
<mgrwt>
<rscale>  2 0.20852354E+02</rscale>
<asrwt>0</asrwt>
<pdfrwt beam="1">  1       21 0.11279250E-01 0.20852354E+02</pdfrwt>
<pdfrwt beam="2">  1       21 0.91407425E-03 0.20852354E+02</pdfrwt>
<totfact> 0.18144595E+08</totfact>
</mgrwt>
</event>
<event>
 4    1  0.7478314E+004  0.2549315E+02  0.7546771E-02  0.1654018E+00
         21   -1    0    0  501  502  0.00000000000E+00  0.00000000000E+00  0.33014389477E+01  0.33014389477E+01  0.00000000000E+00 0.  1.
         21   -1    0    0  502  503 -0.00000000000E+00 -0.00000000000E+00 -0.20368340154E+03  0.20368340154E+03  0.00000000000E+00 0.  1.
          5    1    1    2  501    0  0.16127186368E+02  0.19743726149E+02 -0.81240169064E+02  0.85146144551E+02  0.00000000000E+00 0. -1.
         -5    1    1    2    0  503 -0.16127186368E+02 -0.19743726149E+02 -0.11914179353E+03  0.12183869593E+03  0.00000000000E+00 0.  1.
<mgrwt>
<rscale>  2 0.25493153E+02</rscale>
<asrwt>0</asrwt>
<pdfrwt beam="1">  1       21 0.50791374E-03 0.25493153E+02</pdfrwt>
<pdfrwt beam="2">  1       21 0.31335905E-01 0.25493153E+02</pdfrwt>
<totfact> 0.77745767E+07</totfact>
</mgrwt>
</event>
<event>
 4    1  0.7478314E+004  0.2021934E+02  0.7546771E-02  0.1741001E+00
         21   -1    0    0  503  502  0.00000000000E+00  0.00000000000E+00  0.11182257739E+01  0.11182257739E+01  0.00000000000E+00 0.  1.
         21   -1    0    0  501  503 -0.00000000000E+00 -0.00000000000E+00 -0.42078981619E+03  0.42078981619E+03  0.00000000000E+00 0.  1.
          1    1    1    2  501    0  0.11632410457E+02 -0.16538105662E+02 -0.28623515274E+03  0.28694840055E+03  0.00000000000E+00 0.  1.
         -1    1    1    2    0  502 -0.11632410457E+02  0.16538105662E+02 -0.13343643767E+03  0.13495964141E+03  0.00000000000E+00 0. -1.
<mgrwt>
<rscale>  2 0.20219345E+02</rscale>
<asrwt>0</asrwt>
<pdfrwt beam="1">  1       21 0.17203446E-03 0.20219345E+02</pdfrwt>
<pdfrwt beam="2">  1       21 0.64736997E-01 0.20219345E+02</pdfrwt>
<totfact> 0.88211596E+07</totfact>
</mgrwt>
</event>
<event>
 4    1  0.7478314E+004  0.2081906E+02  0.7546771E-02  0.1729514E+00
         21   -1    0    0  501  502  0.00000000000E+00  0.00000000000E+00  0.94335912613E+00  0.94335912613E+00  0.00000000000E+00 0.  1.
         21   -1    0    0  502  503 -0.00000000000E+00 -0.00000000000E+00 -0.47177443634E+03  0.47177443634E+03  0.00000000000E+00 0.  1.
          1    1    1    2  501    0  0.20741861643E+02  0.17911892854E+01 -0.19722457388E+03  0.19832036135E+03  0.00000000000E+00 0.  1.
         -1    1    1    2    0  503 -0.20741861643E+02 -0.17911892854E+01 -0.27360650333E+03  0.27439743411E+03  0.00000000000E+00 0. -1.
<mgrwt>
<rscale>  2 0.20819058E+02</rscale>
<asrwt>0</asrwt>
<pdfrwt beam="1">  1       21 0.14513228E-03 0.20819058E+02</pdfrwt>
<pdfrwt beam="2">  1       21 0.72580627E-01 0.20819058E+02</pdfrwt>
<totfact> 0.89860153E+07</totfact>
</mgrwt>
</event>
<event>
 4    1  0.7478314E+004  0.2774377E+02  0.7546771E-02  0.1624457E+00
         21   -1    0    0  501  502  0.00000000000E+00  0.00000000000E+00  0.27617109965E+01  0.27617109965E+01  0.00000000000E+00 0.  1.
         21   -1    0    0  502  503 -0.00000000000E+00 -0.00000000000E+00 -0.29782156660E+03  0.29782156660E+03  0.00000000000E+00 0.  1.
          4    1    1    2  501    0  0.13577067721E+01 -0.27710533791E+02 -0.10945820665E+03  0.11291951140E+03  0.00000000000E+00 0.  1.
         -4    1    1    2    0  503 -0.13577067721E+01  0.27710533791E+02 -0.18560164895E+03  0.18766376620E+03  0.00000000000E+00 0. -1.
<mgrwt>
<rscale>  2 0.27743775E+02</rscale>
<asrwt>0</asrwt>
<pdfrwt beam="1">  1       21 0.42487875E-03 0.27743775E+02</pdfrwt>
<pdfrwt beam="2">  1       21 0.45818688E-01 0.27743775E+02</pdfrwt>
<totfact> 0.50460134E+07</totfact>
</mgrwt>
</event>
<event>
 4    1  0.7478314E+004  0.2071710E+02  0.7546771E-02  0.1731433E+00
         21   -1    0    0  501  502  0.00000000000E+00  0.00000000000E+00  0.16017628216E+03  0.16017628216E+03  0.00000000000E+00 0.  1.
         21   -1    0    0  502  503 -0.00000000000E+00 -0.00000000000E+00 -0.31005781825E+01  0.31005781825E+01  0.00000000000E+00 0.  1.
          5    1    1    2  501    0  0.14559760153E+02 -0.14738100356E+02  0.48453838635E+02  0.52696989442E+02  0.00000000000E+00 0. -1.
         -5    1    1    2    0  503 -0.14559760153E+02  0.14738100356E+02  0.10862186534E+03  0.11057987090E+03  0.00000000000E+00 0.  1.
<mgrwt>
<rscale>  2 0.20717100E+02</rscale>
<asrwt>0</asrwt>
<pdfrwt beam="1">  1       21 0.24642499E-01 0.20717100E+02</pdfrwt>
<pdfrwt beam="2">  1       21 0.47701215E-03 0.20717100E+02</pdfrwt>
<totfact> 0.12443361E+08</totfact>
</mgrwt>
</event>
<event>
 4    1  0.7478314E+004  0.2177403E+02  0.7546771E-02  0.1712190E+00
         21   -1    0    0  503  502  0.00000000000E+00  0.00000000000E+00  0.72691225762E+01  0.72691225762E+01  0.00000000000E+00 0. -1.
         21   -1    0    0  501  503 -0.00000000000E+00 -0.00000000000E+00 -0.76174055440E+02  0.76174055440E+02  0.00000000000E+00 0. -1.
          2    1    1    2  501    0 -0.21523959392E+02  0.32905305783E+01 -0.18632685573E+02  0.28658077240E+02  0.00000000000E+00 0. -1.
         -2    1    1    2    0  502  0.21523959392E+02 -0.32905305783E+01 -0.50272247290E+02  0.54785100776E+02  0.00000000000E+00 0.  1.
<mgrwt>
<rscale>  2 0.21774031E+02</rscale>
<asrwt>0</asrwt>
<pdfrwt beam="1">  1       21 0.11183266E-02 0.21774031E+02</pdfrwt>
<pdfrwt beam="2">  1       21 0.11719085E-01 0.21774031E+02</pdfrwt>
<totfact> 0.12751892E+08</totfact>
</mgrwt>
</event>
<event>
 4    1  0.7478314E+004  0.3734452E+02  0.7546771E-02  0.1528715E+00
         21   -1    0    0  503  502  0.00000000000E+00  0.00000000000E+00  0.87329868854E+02  0.87329868854E+02  0.00000000000E+00 0.  1.
         21   -1    0    0  501  503 -0.00000000000E+00 -0.00000000000E+00 -0.20609834597E+02  0.20609834597E+02  0.00000000000E+00 0.  1.
          2    1    1    2  501    0  0.37246754996E+02 -0.27003870747E+01  0.77512058292E+01  0.38140451490E+02  0.00000000000E+00 0.  1.
         -2    1    1    2    0  502 -0.37246754996E+02  0.27003870747E+01  0.58968828428E+02  0.69799251960E+02  0.00000000000E+00 0. -1.
<mgrwt>
<rscale>  2 0.37344516E+02</rscale>
<asrwt>0</asrwt>
<pdfrwt beam="1">  1       21 0.13435364E-01 0.37344516E+02</pdfrwt>
<pdfrwt beam="2">  1       21 0.31707438E-02 0.37344516E+02</pdfrwt>
<totfact> 0.22924862E+07</totfact>
</mgrwt>
</event>
<event>
 4    1  0.7478314E+004  0.2361208E+02  0.7546771E-02  0.1681776E+00
         21   -1    0    0  501  502  0.00000000000E+00  0.00000000000E+00  0.21383882823E+01  0.21383882823E+01  0.00000000000E+00 0. -1.
         21   -1    0    0  502  503 -0.00000000000E+00 -0.00000000000E+00 -0.29373740132E+03  0.29373740132E+03  0.00000000000E+00 0. -1.
          5    1    1    2  501    0  0.16439318824E+02  0.16949306762E+02 -0.96204072448E+02  0.99059344631E+02  0.00000000000E+00 0. -1.
         -5    1    1    2    0  503 -0.16439318824E+02 -0.16949306762E+02 -0.19539494059E+03  0.19681644497E+03  0.00000000000E+00 0.  1.
<mgrwt>
<rscale>  2 0.23612077E+02</rscale>
<asrwt>0</asrwt>
<pdfrwt beam="1">  1       21 0.32898309E-03 0.23612077E+02</pdfrwt>
<pdfrwt beam="2">  1       21 0.45190331E-01 0.23612077E+02</pdfrwt>
<totfact> 0.72743601E+07</totfact>
</mgrwt>
</event>
<event>
 4    1  0.7478314E+004  0.2345807E+02  0.7546771E-02  0.1684191E+00
         21   -1    0    0  503  502  0.00000000000E+00  0.00000000000E+00  0.13287815680E+02  0.13287815680E+02  0.00000000000E+00 0.  1.
         21   -1    0    0  501  503 -0.00000000000E+00 -0.00000000000E+00 -0.41668330228E+02  0.41668330228E+02  0.00000000000E+00 0.  1.
          3    1    1    2  501    0 -0.19708239215E+02  0.12722676684E+02 -0.16343481676E+02  0.28590043516E+02  0.00000000000E+00 0.  1.
         -3    1    1    2    0  502  0.19708239215E+02 -0.12722676684E+02 -0.12037032872E+02  0.26366102392E+02  0.00000000000E+00 0. -1.
<mgrwt>
<rscale>  2 0.23458073E+02</rscale>
<asrwt>0</asrwt>
<pdfrwt beam="1">  1       21 0.20442794E-02 0.23458073E+02</pdfrwt>
<pdfrwt beam="2">  1       21 0.64105123E-02 0.23458073E+02</pdfrwt>
<totfact> 0.14012695E+08</totfact>
</mgrwt>
</event>
<event>
 4    1  0.7478314E+004  0.3059735E+02  0.7546771E-02  0.1591578E+00
         21   -1    0    0  503  502  0.00000000000E+00  0.00000000000E+00  0.80324251031E+00  0.80324251031E+00  0.00000000000E+00 0.  1.
         21   -1    0    0  501  503 -0.00000000000E+00 -0.00000000000E+00 -0.11685269107E+04  0.11685269107E+04  0.00000000000E+00 0.  1.
          4    1    1    2  501    0  0.29497632737E+02 -0.81294197931E+01 -0.55421933337E+03  0.55506330025E+03  0.00000000000E+00 0.  1.
         -4    1    1    2    0  502 -0.29497632737E+02  0.81294197931E+01 -0.61350433478E+03  0.61426685292E+03  0.00000000000E+00 0. -1.
<mgrwt>
<rscale>  2 0.30597350E+02</rscale>
<asrwt>0</asrwt>
<pdfrwt beam="1">  1       21 0.12357468E-03 0.30597350E+02</pdfrwt>
<pdfrwt beam="2">  1       21 0.17977496E+00 0.30597350E+02</pdfrwt>
<totfact> 0.15616835E+07</totfact>
</mgrwt>
</event>
<event>
 4    1  0.7478314E+004  0.2680348E+02  0.7546771E-02  0.1636372E+00
         21   -1    0    0  503  502  0.00000000000E+00  0.00000000000E+00  0.28694732365E+02  0.28694732365E+02  0.00000000000E+00 0. -1.
         21   -1    0    0  501  503 -0.00000000000E+00 -0.00000000000E+00 -0.26469412701E+02  0.26469412701E+02  0.00000000000E+00 0. -1.
          4    1    1    2  501    0  0.10892593578E+01 -0.26781339478E+02 -0.53039658107E+01  0.27323226081E+02  0.00000000000E+00 0.  1.
         -4    1    1    2    0  502 -0.10892593578E+01  0.26781339478E+02  0.75292854742E+01  0.27840918985E+02  0.00000000000E+00 0. -1.
<mgrwt>
<rscale>  2 0.26803482E+02</rscale>
<asrwt>0</asrwt>
<pdfrwt beam="1">  1       21 0.44145742E-02 0.26803482E+02</pdfrwt>
<pdfrwt beam="2">  1       21 0.40722173E-02 0.26803482E+02</pdfrwt>
<totfact> 0.90164738E+07</totfact>
</mgrwt>
</event>
<event>
 4    1  0.7478314E+004  0.2756791E+02  0.7546771E-02  0.1626641E+00
         21   -1    0    0  501  502  0.00000000000E+00  0.00000000000E+00  0.22459931356E+02  0.22459931356E+02  0.00000000000E+00 0. -1.
         21   -1    0    0  502  503 -0.00000000000E+00 -0.00000000000E+00 -0.46403996557E+02  0.46403996557E+02  0.00000000000E+00 0. -1.
          5    1    1    2  501    0  0.19520427411E+02 -0.19466453343E+02  0.59459742678E+01  0.28201852812E+02  0.00000000000E+00 0.  1.
         -5    1    1    2    0  503 -0.19520427411E+02  0.19466453343E+02 -0.29890039470E+02  0.40662075101E+02  0.00000000000E+00 0. -1.
<mgrwt>
<rscale>  2 0.27567914E+02</rscale>
<asrwt>0</asrwt>
<pdfrwt beam="1">  1       21 0.34553741E-02 0.27567914E+02</pdfrwt>
<pdfrwt beam="2">  1       21 0.71390763E-02 0.27567914E+02</pdfrwt>
<totfact> 0.54252980E+07</totfact>
</mgrwt>
</event>
<event>
 4    1  0.7478314E+004  0.2019016E+02  0.7546771E-02  0.1741573E+00
         21   -1    0    0  503  502  0.00000000000E+00  0.00000000000E+00  0.59359943638E+03  0.59359943638E+03  0.00000000000E+00 0.  1.
         21   -1    0    0  501  503 -0.00000000000E+00 -0.00000000000E+00 -0.14797716394E+01  0.14797716394E+01  0.00000000000E+00 0.  1.
          1    1    1    2  501    0 -0.12641819147E+02  0.15742519512E+02  0.51387867181E+03  0.51427515189E+03  0.00000000000E+00 0.  1.
         -1    1    1    2    0  502  0.12641819147E+02 -0.15742519512E+02  0.78240992928E+02  0.80804056125E+02  0.00000000000E+00 0. -1.
<mgrwt>
<rscale>  2 0.20190159E+02</rscale>
<asrwt>0</asrwt>
<pdfrwt beam="1">  1       21 0.91322800E-01 0.20190159E+02</pdfrwt>
<pdfrwt beam="2">  1       21 0.22765765E-03 0.20190159E+02</pdfrwt>
<totfact> 0.28902913E+07</totfact>
</mgrwt>
</event>
<event>
 4    1  0.7478314E+004  0.2173296E+02  0.7546771E-02  0.1712912E+00
         21   -1    0    0  501  502  0.00000000000E+00  0.00000000000E+00  0.46655185026E+02  0.46655185026E+02  0.00000000000E+00 0.  1.
         21   -1    0    0  502  503 -0.00000000000E+00 -0.00000000000E+00 -0.18530417602E+02  0.18530417602E+02  0.00000000000E+00 0.  1.
          1    1    1    2  501    0  0.78884417130E+01 -0.20250778305E+02 -0.78905810392E+01  0.23121046771E+02  0.00000000000E+00 0.  1.
         -1    1    1    2    0  503 -0.78884417130E+01  0.20250778305E+02  0.36015348463E+02  0.42064555858E+02  0.00000000000E+00 0. -1.
<mgrwt>
<rscale>  2 0.21732960E+02</rscale>
<asrwt>0</asrwt>
<pdfrwt beam="1">  1       21 0.71777207E-02 0.21732960E+02</pdfrwt>
<pdfrwt beam="2">  1       21 0.28508335E-02 0.21732960E+02</pdfrwt>
<totfact> 0.68347703E+07</totfact>
</mgrwt>
</event>
<event>
 4    1  0.7478314E+004  0.3089967E+02  0.7546771E-02  0.1588352E+00
         21   -1    0    0  503  502  0.00000000000E+00  0.00000000000E+00  0.14126381659E+02  0.14126381659E+02  0.00000000000E+00 0.  1.
         21   -1    0    0  501  503 -0.00000000000E+00 -0.00000000000E+00 -0.76336878215E+02  0.76336878215E+02  0.00000000000E+00 0.  1.
          5    1    1    2  501    0 -0.55930777481E+01 -0.30389258755E+02 -0.15793539183E+02  0.34701951621E+02  0.00000000000E+00 0. -1.
         -5    1    1    2    0  502  0.55930777481E+01  0.30389258755E+02 -0.46416957372E+02  0.55761308253E+02  0.00000000000E+00 0.  1.
<mgrwt>
<rscale>  2 0.30899669E+02</rscale>
<asrwt>0</asrwt>
<pdfrwt beam="1">  1       21 0.21732895E-02 0.30899669E+02</pdfrwt>
<pdfrwt beam="2">  1       21 0.11744135E-01 0.30899669E+02</pdfrwt>
<totfact> 0.50332509E+07</totfact>
</mgrwt>
</event>
<event>
 4    1  0.7478314E+004  0.2148090E+02  0.7546771E-02  0.1717387E+00
         21   -1    0    0  501  502  0.00000000000E+00  0.00000000000E+00  0.38304978431E+01  0.38304978431E+01  0.00000000000E+00 0. -1.
         21   -1    0    0  502  503 -0.00000000000E+00 -0.00000000000E+00 -0.12975432868E+03  0.12975432868E+03  0.00000000000E+00 0. -1.
          1    1    1    2  501    0  0.10715304454E+02 -0.18617496661E+02 -0.80836318091E+02  0.83641731534E+02  0.00000000000E+00 0.  1.
         -1    1    1    2    0  503 -0.10715304454E+02  0.18617496661E+02 -0.45087512746E+02  0.49943094989E+02  0.00000000000E+00 0. -1.
<mgrwt>
<rscale>  2 0.21480897E+02</rscale>
<asrwt>0</asrwt>
<pdfrwt beam="1">  1       21 0.58930740E-03 0.21480897E+02</pdfrwt>
<pdfrwt beam="2">  1       21 0.19962203E-01 0.21480897E+02</pdfrwt>
<totfact> 0.13331291E+08</totfact>
</mgrwt>
</event>
<event>
 4    1  0.7478314E+004  0.3105724E+02  0.7546771E-02  0.1586688E+00
         21   -1    0    0  501  502  0.00000000000E+00  0.00000000000E+00  0.27378013484E+02  0.27378013484E+02  0.00000000000E+00 0. -1.
         21   -1    0    0  502  503 -0.00000000000E+00 -0.00000000000E+00 -0.35609625413E+02  0.35609625413E+02  0.00000000000E+00 0. -1.
          4    1    1    2  501    0  0.14126766600E+01 -0.31025095156E+02 -0.86791723373E+00  0.31069365380E+02  0.00000000000E+00 0.  1.
         -4    1    1    2    0  503 -0.14126766600E+01  0.31025095156E+02 -0.73636946948E+01  0.31918273518E+02  0.00000000000E+00 0. -1.
<mgrwt>
<rscale>  2 0.31057240E+02</rscale>
<asrwt>0</asrwt>
<pdfrwt beam="1">  1       21 0.42120020E-02 0.31057240E+02</pdfrwt>
<pdfrwt beam="2">  1       21 0.54784039E-02 0.31057240E+02</pdfrwt>
<totfact> 0.62635493E+07</totfact>
</mgrwt>
</event>
<event>
 4    1  0.7478314E+004  0.2227656E+02  0.7546771E-02  0.1703513E+00
         21   -1    0    0  503  502  0.00000000000E+00  0.00000000000E+00  0.39298450180E+01  0.39298450180E+01  0.00000000000E+00 0. -1.
         21   -1    0    0  501  503 -0.00000000000E+00 -0.00000000000E+00 -0.15847798566E+03  0.15847798566E+03  0.00000000000E+00 0. -1.
          1    1    1    2  501    0  0.22037472586E+02 -0.32549668152E+01 -0.11387853000E+03  0.11603691052E+03  0.00000000000E+00 0. -1.
         -1    1    1    2    0  502 -0.22037472586E+02  0.32549668152E+01 -0.40669610642E+02  0.46370920162E+02  0.00000000000E+00 0.  1.
<mgrwt>
<rscale>  2 0.22276557E+02</rscale>
<asrwt>0</asrwt>
<pdfrwt beam="1">  1       21 0.60459156E-03 0.22276557E+02</pdfrwt>
<pdfrwt beam="2">  1       21 0.24381228E-01 0.22276557E+02</pdfrwt>
<totfact> 0.91256611E+07</totfact>
</mgrwt>
</event>
<event>
 4    1  0.7478314E+004  0.4024213E+02  0.7546771E-02  0.1506437E+00
         21   -1    0    0  501  502  0.00000000000E+00  0.00000000000E+00  0.43968683497E+02  0.43968683497E+02  0.00000000000E+00 0.  1.
         21   -1    0    0  502  503 -0.00000000000E+00 -0.00000000000E+00 -0.41653026677E+02  0.41653026677E+02  0.00000000000E+00 0.  1.
          5    1    1    2  501    0  0.18093541928E+02 -0.35945135521E+02  0.15723366462E+02  0.43204783069E+02  0.00000000000E+00 0.  1.
         -5    1    1    2    0  503 -0.18093541928E+02  0.35945135521E+02 -0.13407709642E+02  0.42416927104E+02  0.00000000000E+00 0. -1.
<mgrwt>
<rscale>  2 0.40242130E+02</rscale>
<asrwt>0</asrwt>
<pdfrwt beam="1">  1       21 0.67644129E-02 0.40242130E+02</pdfrwt>
<pdfrwt beam="2">  1       21 0.64081579E-02 0.40242130E+02</pdfrwt>
<totfact> 0.23649362E+07</totfact>
</mgrwt>
</event>
<event>
 4    1  0.7478314E+004  0.3671614E+02  0.7546771E-02  0.1533868E+00
         21   -1    0    0  503  502  0.00000000000E+00  0.00000000000E+00  0.10245638010E+02  0.10245638010E+02  0.00000000000E+00 0.  1.
         21   -1    0    0  501  503 -0.00000000000E+00 -0.00000000000E+00 -0.13174131297E+03  0.13174131297E+03  0.00000000000E+00 0.  1.
          5    1    1    2  501    0 -0.16614584713E+02  0.32741881157E+02 -0.63266286060E+02  0.73148466551E+02  0.00000000000E+00 0.  1.
         -5    1    1    2    0  502  0.16614584713E+02 -0.32741881157E+02 -0.58229388898E+02  0.68838484428E+02  0.00000000000E+00 0. -1.
<mgrwt>
<rscale>  2 0.36716144E+02</rscale>
<asrwt>0</asrwt>
<pdfrwt beam="1">  1       21 0.15762522E-02 0.36716144E+02</pdfrwt>
<pdfrwt beam="2">  1       21 0.20267891E-01 0.36716144E+02</pdfrwt>
<totfact> 0.33283382E+07</totfact>
</mgrwt>
</event>
<event>
 4    1  0.7478314E+004  0.2327929E+02  0.7546771E-02  0.1687023E+00
         21   -1    0    0  501  502  0.00000000000E+00  0.00000000000E+00  0.57354638889E+00  0.57354638889E+00  0.00000000000E+00 0. -1.
         21   -1    0    0  502  503 -0.00000000000E+00 -0.00000000000E+00 -0.11644450421E+04  0.11644450421E+04  0.00000000000E+00 0. -1.
          4    1    1    2  501    0  0.86187529365E+01  0.21625039104E+02 -0.83488740848E+03  0.83521189530E+03  0.00000000000E+00 0. -1.
         -4    1    1    2    0  503 -0.86187529365E+01 -0.21625039104E+02 -0.32898408723E+03  0.32980669319E+03  0.00000000000E+00 0.  1.
<mgrwt>
<rscale>  2 0.23279287E+02</rscale>
<asrwt>0</asrwt>
<pdfrwt beam="1">  1       21 0.88239219E-04 0.23279287E+02</pdfrwt>
<pdfrwt beam="2">  1       21 0.17914273E+00 0.23279287E+02</pdfrwt>
<totfact> 0.24586264E+07</totfact>
</mgrwt>
</event>
<event>
 4    1  0.7478314E+004  0.2445094E+02  0.7546771E-02  0.1669016E+00
         21   -1    0    0  503  502  0.00000000000E+00  0.00000000000E+00  0.12259280338E+02  0.12259280338E+02  0.00000000000E+00 0. -1.
         21   -1    0    0  501  503 -0.00000000000E+00 -0.00000000000E+00 -0.48772537458E+02  0.48772537458E+02  0.00000000000E+00 0. -1.
          2    1    1    2  501    0 -0.23568966988E+02 -0.65078693761E+01 -0.18581200097E+02  0.30710088989E+02  0.00000000000E+00 0. -1.
         -2    1    1    2    0  502  0.23568966988E+02  0.65078693761E+01 -0.17932057024E+02  0.30321728807E+02  0.00000000000E+00 0.  1.
<mgrwt>
<rscale>  2 0.24450942E+02</rscale>
<asrwt>0</asrwt>
<pdfrwt beam="1">  1       21 0.18860431E-02 0.24450942E+02</pdfrwt>
<pdfrwt beam="2">  1       21 0.75034674E-02 0.24450942E+02</pdfrwt>
<totfact> 0.12436734E+08</totfact>
</mgrwt>
</event>
<event>
 4    1  0.7478314E+004  0.2170458E+02  0.7546771E-02  0.1713412E+00
         21   -1    0    0  501  502  0.00000000000E+00  0.00000000000E+00  0.17940049956E+03  0.17940049956E+03  0.00000000000E+00 0.  1.
         21   -1    0    0  502  503 -0.00000000000E+00 -0.00000000000E+00 -0.31189884295E+01  0.31189884295E+01  0.00000000000E+00 0.  1.
          2    1    1    2  501    0 -0.19040695533E+02  0.10418296769E+02  0.51855367668E+02  0.56214483453E+02  0.00000000000E+00 0. -1.
         -2    1    1    2    0  503  0.19040695533E+02 -0.10418296769E+02  0.12442614346E+03  0.12630500453E+03  0.00000000000E+00 0.  1.
<mgrwt>
<rscale>  2 0.21704585E+02</rscale>
<asrwt>0</asrwt>
<pdfrwt beam="1">  1       21 0.27600069E-01 0.21704585E+02</pdfrwt>
<pdfrwt beam="2">  1       21 0.47984451E-03 0.21704585E+02</pdfrwt>
<totfact> 0.10210174E+08</totfact>
</mgrwt>
</event>
<event>
 4    1  0.7478314E+004  0.2355570E+02  0.7546771E-02  0.1682658E+00
         21   -1    0    0  501  502  0.00000000000E+00  0.00000000000E+00  0.68177211473E+02  0.68177211473E+02  0.00000000000E+00 0.  1.
         21   -1    0    0  502  503 -0.00000000000E+00 -0.00000000000E+00 -0.14234626602E+02  0.14234626602E+02  0.00000000000E+00 0.  1.
          3    1    1    2  501    0  0.11942234630E+02 -0.20304034398E+02  0.58193240263E-02  0.23555696013E+02  0.00000000000E+00 0.  1.
         -3    1    1    2    0  503 -0.11942234630E+02  0.20304034398E+02  0.53936765546E+02  0.58856142062E+02  0.00000000000E+00 0. -1.
<mgrwt>
<rscale>  2 0.23555695E+02</rscale>
<asrwt>0</asrwt>
<pdfrwt beam="1">  1       21 0.10488802E-01 0.23555695E+02</pdfrwt>
<pdfrwt beam="2">  1       21 0.21899426E-02 0.23555695E+02</pdfrwt>
<totfact> 0.56388617E+07</totfact>
</mgrwt>
</event>
<event>
 4    1  0.7478314E+004  0.2132339E+02  0.7546771E-02  0.1720223E+00
         21   -1    0    0  503  502  0.00000000000E+00  0.00000000000E+00  0.31455896910E+03  0.31455896910E+03  0.00000000000E+00 0. -1.
         21   -1    0    0  501  503 -0.00000000000E+00 -0.00000000000E+00 -0.15458516619E+01  0.15458516619E+01  0.00000000000E+00 0. -1.
          2    1    1    2  501    0  0.12548250890E+01  0.21286436522E+02  0.11623163840E+03  0.11817140403E+03  0.00000000000E+00 0. -1.
         -2    1    1    2    0  502 -0.12548250890E+01 -0.21286436522E+02  0.19678147903E+03  0.19793341672E+03  0.00000000000E+00 0.  1.
<mgrwt>
<rscale>  2 0.21323390E+02</rscale>
<asrwt>0</asrwt>
<pdfrwt beam="1">  1       21 0.48393637E-01 0.21323390E+02</pdfrwt>
<pdfrwt beam="2">  1       21 0.23782358E-03 0.21323390E+02</pdfrwt>
<totfact> 0.99547752E+07</totfact>
</mgrwt>
</event>
<event>
 4    1  0.7478314E+004  0.2511072E+02  0.7546771E-02  0.1659417E+00
         21   -1    0    0  501  502  0.00000000000E+00  0.00000000000E+00  0.13763693370E+01  0.13763693370E+01  0.00000000000E+00 0.  1.
         21   -1    0    0  502  503 -0.00000000000E+00 -0.00000000000E+00 -0.45840756310E+03  0.45840756310E+03  0.00000000000E+00 0.  1.
          4    1    1    2  501    0 -0.71631959773E+01  0.24067341343E+02 -0.22280132066E+03  0.22421190152E+03  0.00000000000E+00 0. -1.
         -4    1    1    2    0  503  0.71631959773E+01 -0.24067341343E+02 -0.23422987310E+03  0.23557203092E+03  0.00000000000E+00 0.  1.
<mgrwt>
<rscale>  2 0.25110721E+02</rscale>
<asrwt>0</asrwt>
<pdfrwt beam="1">  1       21 0.21174926E-03 0.25110721E+02</pdfrwt>
<pdfrwt beam="2">  1       21 0.70524197E-01 0.25110721E+02</pdfrwt>
<totfact> 0.57893083E+07</totfact>
</mgrwt>
</event>
<event>
 4    1  0.7478314E+004  0.3598263E+02  0.7546771E-02  0.1540044E+00
         21   -1    0    0  503  502  0.00000000000E+00  0.00000000000E+00  0.10035596561E+03  0.10035596561E+03  0.00000000000E+00 0.  1.
         21   -1    0    0  501  503 -0.00000000000E+00 -0.00000000000E+00 -0.30703853882E+02  0.30703853882E+02  0.00000000000E+00 0.  1.
          5    1    1    2  501    0 -0.11479735782E+01  0.35964312108E+02 -0.15071695732E+02  0.39011608541E+02  0.00000000000E+00 0.  1.
         -5    1    1    2    0  502  0.11479735782E+01 -0.35964312108E+02  0.84723807458E+02  0.92048210949E+02  0.00000000000E+00 0. -1.
<mgrwt>
<rscale>  2 0.35982629E+02</rscale>
<asrwt>0</asrwt>
<pdfrwt beam="1">  1       21 0.15439379E-01 0.35982629E+02</pdfrwt>
<pdfrwt beam="2">  1       21 0.47236698E-02 0.35982629E+02</pdfrwt>
<totfact> 0.94704054E+06</totfact>
</mgrwt>
</event>
<event>
 4    1  0.7478314E+004  0.2073250E+02  0.7546771E-02  0.1731142E+00
         21   -1    0    0  501  502  0.00000000000E+00  0.00000000000E+00  0.37905941641E+02  0.37905941641E+02  0.00000000000E+00 0.  1.
         21   -1    0    0  502  503 -0.00000000000E+00 -0.00000000000E+00 -0.11339947735E+02  0.11339947735E+02  0.00000000000E+00 0.  1.
          2    1    1    2  501    0  0.22264591180E+01  0.20612602604E+02  0.13138073328E+02  0.24544764759E+02  0.00000000000E+00 0.  1.
         -2    1    1    2    0  503 -0.22264591180E+01 -0.20612602604E+02  0.13427920577E+02  0.24701124617E+02  0.00000000000E+00 0. -1.
<mgrwt>
<rscale>  2 0.20732499E+02</rscale>
<asrwt>0</asrwt>
<pdfrwt beam="1">  1       21 0.58316833E-02 0.20732499E+02</pdfrwt>
<pdfrwt beam="2">  1       21 0.17446074E-02 0.20732499E+02</pdfrwt>
<totfact> 0.20003678E+08</totfact>
</mgrwt>
</event>
<event>
 4    1  0.7478314E+004  0.2607874E+02  0.7546771E-02  0.1645974E+00
         21   -1    0    0  501  502  0.00000000000E+00  0.00000000000E+00  0.35362124346E+02  0.35362124346E+02  0.00000000000E+00 0.  1.
         21   -1    0    0  502  503 -0.00000000000E+00 -0.00000000000E+00 -0.19367597006E+02  0.19367597006E+02  0.00000000000E+00 0.  1.
          4    1    1    2  501    0  0.25802655750E+02  0.37846838294E+01  0.57114969271E+01  0.26696855107E+02  0.00000000000E+00 0.  1.
         -4    1    1    2    0  503 -0.25802655750E+02 -0.37846838294E+01  0.10283030413E+02  0.28032866245E+02  0.00000000000E+00 0. -1.
<mgrwt>
<rscale>  2 0.26078744E+02</rscale>
<asrwt>0</asrwt>
<pdfrwt beam="1">  1       21 0.54403268E-02 0.26078744E+02</pdfrwt>
<pdfrwt beam="2">  1       21 0.29796303E-02 0.26078744E+02</pdfrwt>
<totfact> 0.10483231E+08</totfact>
</mgrwt>
</event>
<event>
 4    1  0.7478314E+004  0.2676576E+02  0.7546771E-02  0.1636863E+00
         21   -1    0    0  501  502  0.00000000000E+00  0.00000000000E+00  0.16943954452E+02  0.16943954452E+02  0.00000000000E+00 0.  1.
         21   -1    0    0  502  503 -0.00000000000E+00 -0.00000000000E+00 -0.49363426634E+02  0.49363426634E+02  0.00000000000E+00 0.  1.
          4    1    1    2  501    0  0.11770395811E+02 -0.24038797575E+02 -0.36516723855E+01  0.27013713510E+02  0.00000000000E+00 0.  1.
         -4    1    1    2    0  503 -0.11770395811E+02  0.24038797575E+02 -0.28767799797E+02  0.39293667576E+02  0.00000000000E+00 0. -1.
<mgrwt>
<rscale>  2 0.26765762E+02</rscale>
<asrwt>0</asrwt>
<pdfrwt beam="1">  1       21 0.26067623E-02 0.26765762E+02</pdfrwt>
<pdfrwt beam="2">  1       21 0.75943732E-02 0.26765762E+02</pdfrwt>
<totfact> 0.75715951E+07</totfact>
</mgrwt>
</event>
<event>
 4    1  0.7478314E+004  0.2221787E+02  0.7546771E-02  0.1704511E+00
         21   -1    0    0  501  502  0.00000000000E+00  0.00000000000E+00  0.48015921875E+02  0.48015921875E+02  0.00000000000E+00 0.  1.
         21   -1    0    0  502  503 -0.00000000000E+00 -0.00000000000E+00 -0.11595248294E+02  0.11595248294E+02  0.00000000000E+00 0.  1.
          5    1    1    2  501    0  0.17206381786E+02 -0.14056100904E+02  0.28246293249E+02  0.35937259622E+02  0.00000000000E+00 0.  1.
         -5    1    1    2    0  503 -0.17206381786E+02  0.14056100904E+02  0.81743803316E+01  0.23673910548E+02  0.00000000000E+00 0. -1.
<mgrwt>
<rscale>  2 0.22217865E+02</rscale>
<asrwt>0</asrwt>
<pdfrwt beam="1">  1       21 0.73870648E-02 0.22217865E+02</pdfrwt>
<pdfrwt beam="2">  1       21 0.17838844E-02 0.22217865E+02</pdfrwt>
<totfact> 0.13503939E+08</totfact>
</mgrwt>
</event>
<event>
 4    1  0.7478314E+004  0.2048895E+02  0.7546771E-02  0.1735776E+00
         21   -1    0    0  501  502  0.00000000000E+00  0.00000000000E+00  0.27754564673E+02  0.27754564673E+02  0.00000000000E+00 0. -1.
         21   -1    0    0  502  503 -0.00000000000E+00 -0.00000000000E+00 -0.19794929451E+02  0.19794929451E+02  0.00000000000E+00 0. -1.
          2    1    1    2  501    0  0.20311106696E+02 -0.26937180671E+01  0.15527062274E+02  0.25707719368E+02  0.00000000000E+00 0. -1.
         -2    1    1    2    0  503 -0.20311106696E+02  0.26937180671E+01 -0.75674270529E+01  0.21841774755E+02  0.00000000000E+00 0.  1.
<mgrwt>
<rscale>  2 0.20488952E+02</rscale>
<asrwt>0</asrwt>
<pdfrwt beam="1">  1       21 0.42699330E-02 0.20488952E+02</pdfrwt>
<pdfrwt beam="2">  1       21 0.30453738E-02 0.20488952E+02</pdfrwt>
<totfact> 0.13882931E+08</totfact>
</mgrwt>
</event>
<event>
 4    1  0.7478314E+004  0.2164799E+02  0.7546771E-02  0.1714412E+00
         21   -1    0    0  501  502  0.00000000000E+00  0.00000000000E+00  0.12608308078E+03  0.12608308078E+03  0.00000000000E+00 0.  1.
         21   -1    0    0  502  503 -0.00000000000E+00 -0.00000000000E+00 -0.37611995591E+01  0.37611995591E+01  0.00000000000E+00 0.  1.
          4    1    1    2  501    0 -0.13804148004E+02 -0.16675765401E+02  0.68208332506E+02  0.71561248431E+02  0.00000000000E+00 0.  1.
         -4    1    1    2    0  503  0.13804148004E+02  0.16675765401E+02  0.54113548716E+02  0.58283031908E+02  0.00000000000E+00 0. -1.
<mgrwt>
<rscale>  2 0.21647994E+02</rscale>
<asrwt>0</asrwt>
<pdfrwt beam="1">  1       21 0.19397394E-01 0.21647994E+02</pdfrwt>
<pdfrwt beam="2">  1       21 0.57864618E-03 0.21647994E+02</pdfrwt>
<totfact> 0.14428744E+08</totfact>
</mgrwt>
</event>
<event>
 4    1  0.7478314E+004  0.2103719E+02  0.7546771E-02  0.1725456E+00
         21   -1    0    0  501  502  0.00000000000E+00  0.00000000000E+00  0.53112341734E+02  0.53112341734E+02  0.00000000000E+00 0.  1.
         21   -1    0    0  502  503 -0.00000000000E+00 -0.00000000000E+00 -0.90335142403E+01  0.90335142403E+01  0.00000000000E+00 0.  1.
          5    1    1    2  501    0 -0.20846937314E+02  0.28228318909E+01  0.30694880121E+02  0.37212079234E+02  0.00000000000E+00 0. -1.
         -5    1    1    2    0  503  0.20846937314E+02 -0.28228318909E+01  0.13383947372E+02  0.24933776740E+02  0.00000000000E+00 0.  1.
<mgrwt>
<rscale>  2 0.21037186E+02</rscale>
<asrwt>0</asrwt>
<pdfrwt beam="1">  1       21 0.81711293E-02 0.21037186E+02</pdfrwt>
<pdfrwt beam="2">  1       21 0.13897715E-02 0.21037186E+02</pdfrwt>
<totfact> 0.16471237E+08</totfact>
</mgrwt>
</event>
<event>
 4    1  0.7478314E+004  0.2015075E+02  0.7546771E-02  0.1742347E+00
         21   -1    0    0  501  502  0.00000000000E+00  0.00000000000E+00  0.17695217532E+03  0.17695217532E+03  0.00000000000E+00 0. -1.
         21   -1    0    0  502  503 -0.00000000000E+00 -0.00000000000E+00 -0.23255633842E+01  0.23255633842E+01  0.00000000000E+00 0. -1.
          1    1    1    2  501    0  0.19801164338E+02  0.37371766390E+01  0.76987202077E+02  0.79580662739E+02  0.00000000000E+00 0. -1.
         -1    1    1    2    0  503 -0.19801164338E+02 -0.37371766390E+01  0.97639409862E+02  0.99697075968E+02  0.00000000000E+00 0.  1.
<mgrwt>
<rscale>  2 0.20150747E+02</rscale>
<asrwt>0</asrwt>
<pdfrwt beam="1">  1       21 0.27223401E-01 0.20150747E+02</pdfrwt>
<pdfrwt beam="2">  1       21 0.35777912E-03 0.20150747E+02</pdfrwt>
<totfact> 0.15740134E+08</totfact>
</mgrwt>
</event>
<event>
 4    1  0.7478314E+004  0.2493397E+02  0.7546771E-02  0.1661952E+00
         21   -1    0    0  501  502  0.00000000000E+00  0.00000000000E+00  0.11997492430E+02  0.11997492430E+02  0.00000000000E+00 0.  1.
         21   -1    0    0  502  503 -0.00000000000E+00 -0.00000000000E+00 -0.51982264903E+02  0.51982264903E+02  0.00000000000E+00 0.  1.
          5    1    1    2  501    0  0.24918572055E+02 -0.87622799806E+00 -0.18201854055E+02  0.30870868141E+02  0.00000000000E+00 0.  1.
         -5    1    1    2    0  503 -0.24918572055E+02  0.87622799806E+00 -0.21782918417E+02  0.33108889192E+02  0.00000000000E+00 0. -1.
<mgrwt>
<rscale>  2 0.24933973E+02</rscale>
<asrwt>0</asrwt>
<pdfrwt beam="1">  1       21 0.18457681E-02 0.24933973E+02</pdfrwt>
<pdfrwt beam="2">  1       21 0.79972715E-02 0.24933973E+02</pdfrwt>
<totfact> 0.11646429E+08</totfact>
</mgrwt>
</event>
<event>
 4    1  0.7478314E+004  0.2552198E+02  0.7546771E-02  0.1653616E+00
         21   -1    0    0  503  502  0.00000000000E+00  0.00000000000E+00  0.69708850142E+01  0.69708850142E+01  0.00000000000E+00 0.  1.
         21   -1    0    0  501  503 -0.00000000000E+00 -0.00000000000E+00 -0.93932325766E+02  0.93932325766E+02  0.00000000000E+00 0.  1.
          1    1    1    2  501    0 -0.37104176389E+01 -0.25250823890E+02 -0.39834481035E+02  0.47309165978E+02  0.00000000000E+00 0.  1.
         -1    1    1    2    0  502  0.37104176389E+01  0.25250823890E+02 -0.47126959716E+02  0.53594044802E+02  0.00000000000E+00 0. -1.
<mgrwt>
<rscale>  2 0.25521977E+02</rscale>
<asrwt>0</asrwt>
<pdfrwt beam="1">  1       21 0.10724439E-02 0.25521977E+02</pdfrwt>
<pdfrwt beam="2">  1       21 0.14451127E-01 0.25521977E+02</pdfrwt>
<totfact> 0.99745732E+07</totfact>
</mgrwt>
</event>
<event>
 4    1  0.7478314E+004  0.2086932E+02  0.7546771E-02  0.1728573E+00
         21   -1    0    0  503  502  0.00000000000E+00  0.00000000000E+00  0.12319772401E+01  0.12319772401E+01  0.00000000000E+00 0.  1.
         21   -1    0    0  501  503 -0.00000000000E+00 -0.00000000000E+00 -0.35738060484E+03  0.35738060484E+03  0.00000000000E+00 0.  1.
          5    1    1    2  501    0 -0.18339955859E+02  0.99586339870E+01 -0.15943766356E+03  0.16079768945E+03  0.00000000000E+00 0. -1.
         -5    1    1    2    0  502  0.18339955859E+02 -0.99586339870E+01 -0.19671096404E+03  0.19781489263E+03  0.00000000000E+00 0.  1.
<mgrwt>
<rscale>  2 0.20869317E+02</rscale>
<asrwt>0</asrwt>
<pdfrwt beam="1">  1       21 0.18953481E-03 0.20869317E+02</pdfrwt>
<pdfrwt beam="2">  1       21 0.54981676E-01 0.20869317E+02</pdfrwt>
<totfact> 0.10709963E+08</totfact>
</mgrwt>
</event>
<event>
 4    1  0.7478314E+004  0.2896882E+02  0.7546771E-02  0.1609775E+00
         21   -1    0    0  501  502  0.00000000000E+00  0.00000000000E+00  0.16310446756E+02  0.16310446756E+02  0.00000000000E+00 0.  1.
         21   -1    0    0  502  503 -0.00000000000E+00 -0.00000000000E+00 -0.51681080447E+02  0.51681080447E+02  0.00000000000E+00 0.  1.
          5    1    1    2  501    0  0.48059037558E+01 -0.28567389535E+02 -0.19952502039E+02  0.35175201398E+02  0.00000000000E+00 0.  1.
         -5    1    1    2    0  503 -0.48059037558E+01  0.28567389535E+02 -0.15418131652E+02  0.32816325806E+02  0.00000000000E+00 0. -1.
<mgrwt>
<rscale>  2 0.28968819E+02</rscale>
<asrwt>0</asrwt>
<pdfrwt beam="1">  1       21 0.25092995E-02 0.28968819E+02</pdfrwt>
<pdfrwt beam="2">  1       21 0.79509353E-02 0.28968819E+02</pdfrwt>
<totfact> 0.76007377E+07</totfact>
</mgrwt>
</event>
<event>
 4    1  0.7478314E+004  0.2536867E+02  0.7546771E-02  0.1655762E+00
         21   -1    0    0  501  502  0.00000000000E+00  0.00000000000E+00  0.32204362095E+02  0.32204362095E+02  0.00000000000E+00 0.  1.
         21   -1    0    0  502  503 -0.00000000000E+00 -0.00000000000E+00 -0.20109061068E+02  0.20109061068E+02  0.00000000000E+00 0.  1.
          5    1    1    2  501    0 -0.25308145318E+02 -0.17513830920E+01  0.39842752983E+01  0.25679641972E+02  0.00000000000E+00 0. -1.
         -5    1    1    2    0  503  0.25308145318E+02  0.17513830920E+01  0.81110257292E+01  0.26633781191E+02  0.00000000000E+00 0.  1.
<mgrwt>
<rscale>  2 0.25368673E+02</rscale>
<asrwt>0</asrwt>
<pdfrwt beam="1">  1       21 0.49545172E-02 0.25368673E+02</pdfrwt>
<pdfrwt beam="2">  1       21 0.30937017E-02 0.25368673E+02</pdfrwt>
<totfact> 0.11397895E+08</totfact>
</mgrwt>
</event>
<event>
 4    1  0.7478314E+004  0.2117202E+02  0.7546771E-02  0.1722978E+00
         21   -1    0    0  501  502  0.00000000000E+00  0.00000000000E+00  0.16758737498E+03  0.16758737498E+03  0.00000000000E+00 0. -1.
         21   -1    0    0  502  503 -0.00000000000E+00 -0.00000000000E+00 -0.27330879228E+01  0.27330879228E+01  0.00000000000E+00 0. -1.
          3    1    1    2  501    0  0.21007519634E+02  0.26341021675E+01  0.69985305841E+02  0.73117695594E+02  0.00000000000E+00 0. -1.
         -3    1    1    2    0  503 -0.21007519634E+02 -0.26341021675E+01  0.94868981221E+02  0.97202767313E+02  0.00000000000E+00 0.  1.
<mgrwt>
<rscale>  2 0.21172019E+02</rscale>
<asrwt>0</asrwt>
<pdfrwt beam="1">  1       21 0.25782665E-01 0.21172019E+02</pdfrwt>
<pdfrwt beam="2">  1       21 0.42047520E-03 0.21172019E+02</pdfrwt>
<totfact> 0.13902483E+08</totfact>
</mgrwt>
</event>
<event>
 4    1  0.7478314E+004  0.2585424E+02  0.7546771E-02  0.1649027E+00
         21   -1    0    0  503  502  0.00000000000E+00  0.00000000000E+00  0.50927464736E+02  0.50927464736E+02  0.00000000000E+00 0.  1.
         21   -1    0    0  501  503 -0.00000000000E+00 -0.00000000000E+00 -0.13174198070E+02  0.13174198070E+02  0.00000000000E+00 0.  1.
          5    1    1    2  501    0 -0.24162994562E+02  0.91973708835E+01  0.20827832255E+02  0.33200008039E+02  0.00000000000E+00 0. -1.
         -5    1    1    2    0  502  0.24162994562E+02 -0.91973708835E+01  0.16925434410E+02  0.30901654767E+02  0.00000000000E+00 0.  1.
<mgrwt>
<rscale>  2 0.25854244E+02</rscale>
<asrwt>0</asrwt>
<pdfrwt beam="1">  1       21 0.78349945E-02 0.25854244E+02</pdfrwt>
<pdfrwt beam="2">  1       21 0.20267997E-02 0.25854244E+02</pdfrwt>
<totfact> 0.10531241E+08</totfact>
</mgrwt>
</event>
<event>
 4    1  0.7478314E+004  0.2055577E+02  0.7546771E-02  0.1734496E+00
         21   -1    0    0  503  502  0.00000000000E+00  0.00000000000E+00  0.52461326884E+01  0.52461326884E+01  0.00000000000E+00 0. -1.
         21   -1    0    0  501  503 -0.00000000000E+00 -0.00000000000E+00 -0.80991866339E+02  0.80991866339E+02  0.00000000000E+00 0. -1.
          1    1    1    2  501    0 -0.83936777937E+00  0.20538627054E+02 -0.41082554230E+02  0.45938175863E+02  0.00000000000E+00 0. -1.
         -1    1    1    2    0  502  0.83936777937E+00 -0.20538627054E+02 -0.34663179421E+02  0.40299823165E+02  0.00000000000E+00 0.  1.
<mgrwt>
<rscale>  2 0.20555771E+02</rscale>
<asrwt>0</asrwt>
<pdfrwt beam="1">  1       21 0.80709737E-03 0.20555771E+02</pdfrwt>
<pdfrwt beam="2">  1       21 0.12460287E-01 0.20555771E+02</pdfrwt>
<totfact> 0.18421221E+08</totfact>
</mgrwt>
</event>
<event>
 4    1  0.7478314E+004  0.2232059E+02  0.7546771E-02  0.1702766E+00
         21   -1    0    0  503  502  0.00000000000E+00  0.00000000000E+00  0.51890087314E+03  0.51890087314E+03  0.00000000000E+00 0. -1.
         21   -1    0    0  501  503 -0.00000000000E+00 -0.00000000000E+00 -0.96082052011E+00  0.96082052011E+00  0.00000000000E+00 0. -1.
          3    1    1    2  501    0 -0.17229780257E+02  0.14189545544E+02  0.25196524502E+03  0.25295195834E+03  0.00000000000E+00 0.  1.
         -3    1    1    2    0  502  0.17229780257E+02 -0.14189545544E+02  0.26597480761E+03  0.26690973532E+03  0.00000000000E+00 0. -1.
<mgrwt>
<rscale>  2 0.22320585E+02</rscale>
<asrwt>0</asrwt>
<pdfrwt beam="1">  1       21 0.79830680E-01 0.22320585E+02</pdfrwt>
<pdfrwt beam="2">  1       21 0.14781896E-03 0.22320585E+02</pdfrwt>
<totfact> 0.73110340E+07</totfact>
</mgrwt>
</event>
<event>
 4    1  0.7478314E+004  0.3935217E+02  0.7546771E-02  0.1513034E+00
         21   -1    0    0  501  502  0.00000000000E+00  0.00000000000E+00  0.55387732061E+02  0.55387732061E+02  0.00000000000E+00 0. -1.
         21   -1    0    0  502  503 -0.00000000000E+00 -0.00000000000E+00 -0.28036069240E+02  0.28036069240E+02  0.00000000000E+00 0. -1.
          1    1    1    2  501    0  0.16717579141E+00 -0.39351818989E+02  0.11490917280E+02  0.40995545922E+02  0.00000000000E+00 0. -1.
         -1    1    1    2    0  503 -0.16717579141E+00  0.39351818989E+02  0.15860745540E+02  0.42428255379E+02  0.00000000000E+00 0.  1.
<mgrwt>
<rscale>  2 0.39352174E+02</rscale>
<asrwt>0</asrwt>
<pdfrwt beam="1">  1       21 0.85211895E-02 0.39352174E+02</pdfrwt>
<pdfrwt beam="2">  1       21 0.43132414E-02 0.39352174E+02</pdfrwt>
<totfact> 0.30591000E+07</totfact>
</mgrwt>
</event>
<event>
 4    1  0.7478314E+004  0.2371097E+02  0.7546771E-02  0.1680238E+00
         21   -1    0    0  501  502  0.00000000000E+00  0.00000000000E+00  0.11526007660E+03  0.11526007660E+03  0.00000000000E+00 0. -1.
         21   -1    0    0  502  503 -0.00000000000E+00 -0.00000000000E+00 -0.48871958384E+01  0.48871958384E+01  0.00000000000E+00 0. -1.
          4    1    1    2  501    0 -0.23553412867E+02 -0.27289148752E+01  0.57826996578E+02  0.62499374135E+02  0.00000000000E+00 0.  1.
         -4    1    1    2    0  503  0.23553412867E+02  0.27289148752E+01  0.52545884183E+02  0.57647898302E+02  0.00000000000E+00 0. -1.
<mgrwt>
<rscale>  2 0.23710973E+02</rscale>
<asrwt>0</asrwt>
<pdfrwt beam="1">  1       21 0.17732317E-01 0.23710973E+02</pdfrwt>
<pdfrwt beam="2">  1       21 0.75187637E-03 0.23710973E+02</pdfrwt>
<totfact> 0.11729283E+08</totfact>
</mgrwt>
</event>
<event>
 4    1  0.7478314E+004  0.4500184E+02  0.7546771E-02  0.1474330E+00
         21   -1    0    0  503  502  0.00000000000E+00  0.00000000000E+00  0.42314356049E+03  0.42314356049E+03  0.00000000000E+00 0.  1.
         21   -1    0    0  501  503 -0.00000000000E+00 -0.00000000000E+00 -0.57507273191E+01  0.57507273191E+01  0.00000000000E+00 0.  1.
          4    1    1    2  501    0 -0.42911026800E+02  0.13557641506E+02  0.12086280301E+03  0.12896892268E+03  0.00000000000E+00 0.  1.
         -4    1    1    2    0  502  0.42911026800E+02 -0.13557641506E+02  0.29653003016E+03  0.29992536514E+03  0.00000000000E+00 0. -1.
<mgrwt>
<rscale>  2 0.45001843E+02</rscale>
<asrwt>0</asrwt>
<pdfrwt beam="1">  1       21 0.65098985E-01 0.45001843E+02</pdfrwt>
<pdfrwt beam="2">  1       21 0.88472761E-03 0.45001843E+02</pdfrwt>
<totfact> 0.89449222E+06</totfact>
</mgrwt>
</event>
<event>
 4    1  0.7478314E+004  0.2622417E+02  0.7546771E-02  0.1644017E+00
         21   -1    0    0  503  502  0.00000000000E+00  0.00000000000E+00  0.53487005573E+01  0.53487005573E+01  0.00000000000E+00 0.  1.
         21   -1    0    0  501  503 -0.00000000000E+00 -0.00000000000E+00 -0.13240086756E+03  0.13240086756E+03  0.00000000000E+00 0.  1.
          5    1    1    2  501    0  0.25195499866E+02 -0.72728357240E+01 -0.75234525950E+02  0.79673968446E+02  0.00000000000E+00 0. -1.
         -5    1    1    2    0  502 -0.25195499866E+02  0.72728357240E+01 -0.51817641055E+02  0.58075599673E+02  0.00000000000E+00 0.  1.
<mgrwt>
<rscale>  2 0.26224175E+02</rscale>
<asrwt>0</asrwt>
<pdfrwt beam="1">  1       21 0.82287715E-03 0.26224175E+02</pdfrwt>
<pdfrwt beam="2">  1       21 0.20369361E-01 0.26224175E+02</pdfrwt>
<totfact> 0.82626469E+07</totfact>
</mgrwt>
</event>
<event>
 4    1  0.7478314E+004  0.2169571E+02  0.7546771E-02  0.1713568E+00
         21   -1    0    0  503  502  0.00000000000E+00  0.00000000000E+00  0.11901053004E+01  0.11901053004E+01  0.00000000000E+00 0. -1.
         21   -1    0    0  501  503 -0.00000000000E+00 -0.00000000000E+00 -0.41861261867E+03  0.41861261867E+03  0.00000000000E+00 0. -1.
          1    1    1    2  501    0  0.38067959214E+01  0.21359121803E+02 -0.15940541485E+03  0.16087507596E+03  0.00000000000E+00 0.  1.
         -1    1    1    2    0  502 -0.38067959214E+01 -0.21359121803E+02 -0.25801709851E+03  0.25892764801E+03  0.00000000000E+00 0. -1.
<mgrwt>
<rscale>  2 0.21695709E+02</rscale>
<asrwt>0</asrwt>
<pdfrwt beam="1">  1       21 0.18309306E-03 0.21695709E+02</pdfrwt>
<pdfrwt beam="2">  1       21 0.64401963E-01 0.21695709E+02</pdfrwt>
<totfact> 0.83011208E+07</totfact>
</mgrwt>
</event>
<event>
 4    1  0.7478314E+004  0.4464026E+02  0.7546771E-02  0.1476600E+00
         21   -1    0    0  501  502  0.00000000000E+00  0.00000000000E+00  0.29819951622E+02  0.29819951622E+02  0.00000000000E+00 0.  1.
         21   -1    0    0  502  503 -0.00000000000E+00 -0.00000000000E+00 -0.67892050356E+02  0.67892050356E+02  0.00000000000E+00 0.  1.
          1    1    1    2  501    0  0.25200953522E+02 -0.36846499507E+02 -0.25157672526E+02  0.51241204819E+02  0.00000000000E+00 0.  1.
         -1    1    1    2    0  503 -0.25200953522E+02  0.36846499507E+02 -0.12914426207E+02  0.46470797159E+02  0.00000000000E+00 0. -1.
<mgrwt>
<rscale>  2 0.44640257E+02</rscale>
<asrwt>0</asrwt>
<pdfrwt beam="1">  1       21 0.45876849E-02 0.44640257E+02</pdfrwt>
<pdfrwt beam="2">  1       21 0.10444931E-01 0.44640257E+02</pdfrwt>
<totfact> 0.20053983E+07</totfact>
</mgrwt>
</event>
<event>
 4    1  0.7478314E+004  0.2491127E+02  0.7546771E-02  0.1662280E+00
         21   -1    0    0  503  502  0.00000000000E+00  0.00000000000E+00  0.10534021835E+02  0.10534021835E+02  0.00000000000E+00 0.  1.
         21   -1    0    0  501  503 -0.00000000000E+00 -0.00000000000E+00 -0.81224358296E+02  0.81224358296E+02  0.00000000000E+00 0.  1.
          3    1    1    2  501    0  0.13769195927E+02 -0.20760069676E+02 -0.59391768929E+02  0.64404607490E+02  0.00000000000E+00 0.  1.
         -3    1    1    2    0  502 -0.13769195927E+02  0.20760069676E+02 -0.11298567532E+02  0.27353772641E+02  0.00000000000E+00 0. -1.
<mgrwt>
<rscale>  2 0.24911268E+02</rscale>
<asrwt>0</asrwt>
<pdfrwt beam="1">  1       21 0.16206187E-02 0.24911268E+02</pdfrwt>
<pdfrwt beam="2">  1       21 0.12496055E-01 0.24911268E+02</pdfrwt>
<totfact> 0.67740287E+07</totfact>
</mgrwt>
</event>
<event>
 4    1  0.7478314E+004  0.3509241E+02  0.7546771E-02  0.1547781E+00
         21   -1    0    0  501  502  0.00000000000E+00  0.00000000000E+00  0.85464162239E+01  0.85464162239E+01  0.00000000000E+00 0. -1.
         21   -1    0    0  502  503 -0.00000000000E+00 -0.00000000000E+00 -0.15641616714E+03  0.15641616714E+03  0.00000000000E+00 0. -1.
          4    1    1    2  501    0  0.23687112971E+02  0.25892050161E+02 -0.97086326512E+02  0.10323387224E+03  0.00000000000E+00 0. -1.
         -4    1    1    2    0  503 -0.23687112971E+02 -0.25892050161E+02 -0.50783424400E+02  0.61728711118E+02  0.00000000000E+00 0.  1.
<mgrwt>
<rscale>  2 0.35092415E+02</rscale>
<asrwt>0</asrwt>
<pdfrwt beam="1">  1       21 0.13148334E-02 0.35092415E+02</pdfrwt>
<pdfrwt beam="2">  1       21 0.24064024E-01 0.35092415E+02</pdfrwt>
<totfact> 0.32091446E+07</totfact>
</mgrwt>
</event>
<event>
 4    1  0.7478314E+004  0.3586878E+02  0.7546771E-02  0.1541018E+00
         21   -1    0    0  501  502  0.00000000000E+00  0.00000000000E+00  0.24206504027E+03  0.24206504027E+03  0.00000000000E+00 0.  1.
         21   -1    0    0  502  503 -0.00000000000E+00 -0.00000000000E+00 -0.63139176853E+01  0.63139176853E+01  0.00000000000E+00 0.  1.
          4    1    1    2  501    0  0.17007370529E+02 -0.31580355937E+02  0.16727314731E+03  0.17107564218E+03  0.00000000000E+00 0.  1.
         -4    1    1    2    0  503 -0.17007370529E+02  0.31580355937E+02  0.68477975271E+02  0.77303315780E+02  0.00000000000E+00 0. -1.
<mgrwt>
<rscale>  2 0.35868782E+02</rscale>
<asrwt>0</asrwt>
<pdfrwt beam="1">  1       21 0.37240768E-01 0.35868782E+02</pdfrwt>
<pdfrwt beam="2">  1       21 0.97137214E-03 0.35868782E+02</pdfrwt>
<totfact> 0.22800551E+07</totfact>
</mgrwt>
</event>
<event>
 4    1  0.7478314E+004  0.2033462E+02  0.7546771E-02  0.1738755E+00
         21   -1    0    0  503  502  0.00000000000E+00  0.00000000000E+00  0.15610046047E+01  0.15610046047E+01  0.00000000000E+00 0.  1.
         21   -1    0    0  501  503 -0.00000000000E+00 -0.00000000000E+00 -0.46753749132E+03  0.46753749132E+03  0.00000000000E+00 0.  1.
          4    1    1    2  501    0  0.35967738529E+01  0.20013990418E+02 -0.38740520696E+03  0.38793851443E+03  0.00000000000E+00 0.  1.
         -4    1    1    2    0  502 -0.35967738529E+01 -0.20013990418E+02 -0.78571279745E+02  0.81159981490E+02  0.00000000000E+00 0. -1.
<mgrwt>
<rscale>  2 0.20334616E+02</rscale>
<asrwt>0</asrwt>
<pdfrwt beam="1">  1       21 0.24015453E-03 0.20334616E+02</pdfrwt>
<pdfrwt beam="2">  1       21 0.71928853E-01 0.20334616E+02</pdfrwt>
<totfact> 0.44147552E+07</totfact>
</mgrwt>
</event>
<event>
 4    1  0.7478314E+004  0.2320047E+02  0.7546771E-02  0.1688281E+00
         21   -1    0    0  503  502  0.00000000000E+00  0.00000000000E+00  0.45724675077E+02  0.45724675077E+02  0.00000000000E+00 0. -1.
         21   -1    0    0  501  503 -0.00000000000E+00 -0.00000000000E+00 -0.12394319891E+02  0.12394319891E+02  0.00000000000E+00 0. -1.
          1    1    1    2  501    0 -0.21141470776E+02  0.95551133920E+01  0.23177733594E+02  0.32794348797E+02  0.00000000000E+00 0.  1.
         -1    1    1    2    0  502  0.21141470776E+02 -0.95551133920E+01  0.10152621592E+02  0.25324646171E+02  0.00000000000E+00 0. -1.
<mgrwt>
<rscale>  2 0.23200474E+02</rscale>
<asrwt>0</asrwt>
<pdfrwt beam="1">  1       21 0.70345653E-02 0.23200474E+02</pdfrwt>
<pdfrwt beam="2">  1       21 0.19068185E-02 0.23200474E+02</pdfrwt>
<totfact> 0.13373487E+08</totfact>
</mgrwt>
</event>
<event>
 4    1  0.7478314E+004  0.2027868E+02  0.7546771E-02  0.1739842E+00
         21   -1    0    0  501  502  0.00000000000E+00  0.00000000000E+00  0.15273146304E+01  0.15273146304E+01  0.00000000000E+00 0. -1.
         21   -1    0    0  502  503 -0.00000000000E+00 -0.00000000000E+00 -0.31122756725E+03  0.31122756725E+03  0.00000000000E+00 0. -1.
          3    1    1    2  501    0  0.10808532647E+02  0.17158100905E+02 -0.97417392802E+02  0.99505644187E+02  0.00000000000E+00 0.  1.
         -3    1    1    2    0  503 -0.10808532647E+02 -0.17158100905E+02 -0.21228285981E+03  0.21324923769E+03  0.00000000000E+00 0. -1.
<mgrwt>
<rscale>  2 0.20278679E+02</rscale>
<asrwt>0</asrwt>
<pdfrwt beam="1">  1       21 0.23497150E-03 0.20278679E+02</pdfrwt>
<pdfrwt beam="2">  1       21 0.47881161E-01 0.20278679E+02</pdfrwt>
<totfact> 0.10200036E+08</totfact>
</mgrwt>
</event>
<event>
 4    1  0.7478314E+004  0.3054545E+02  0.7546771E-02  0.1592137E+00
         21   -1    0    0  501  502  0.00000000000E+00  0.00000000000E+00  0.20260369623E+02  0.20260369623E+02  0.00000000000E+00 0.  1.
         21   -1    0    0  502  503 -0.00000000000E+00 -0.00000000000E+00 -0.46153995172E+02  0.46153995172E+02  0.00000000000E+00 0.  1.
          5    1    1    2  501    0  0.16247984218E+02  0.25865562821E+02 -0.14510208202E+02  0.33816718842E+02  0.00000000000E+00 0.  1.
         -5    1    1    2    0  503 -0.16247984218E+02 -0.25865562821E+02 -0.11383417347E+02  0.32597645953E+02  0.00000000000E+00 0. -1.
<mgrwt>
<rscale>  2 0.30545447E+02</rscale>
<asrwt>0</asrwt>
<pdfrwt beam="1">  1       21 0.31169800E-02 0.30545447E+02</pdfrwt>
<pdfrwt beam="2">  1       21 0.71006146E-02 0.30545447E+02</pdfrwt>
<totfact> 0.65957018E+07</totfact>
</mgrwt>
</event>
<event>
 4    1  0.7478314E+004  0.4362094E+02  0.7546771E-02  0.1483139E+00
         21   -1    0    0  503  502  0.00000000000E+00  0.00000000000E+00  0.77548036770E+02  0.77548036770E+02  0.00000000000E+00 0. -1.
         21   -1    0    0  501  503 -0.00000000000E+00 -0.00000000000E+00 -0.31765136010E+02  0.31765136010E+02  0.00000000000E+00 0. -1.
          3    1    1    2  501    0 -0.25907123537E+02 -0.35094263172E+02  0.48964036277E+02  0.65576392140E+02  0.00000000000E+00 0. -1.
         -3    1    1    2    0  502  0.25907123537E+02  0.35094263172E+02 -0.31811355171E+01  0.43736780640E+02  0.00000000000E+00 0.  1.
<mgrwt>
<rscale>  2 0.43620939E+02</rscale>
<asrwt>0</asrwt>
<pdfrwt beam="1">  1       21 0.11930467E-01 0.43620939E+02</pdfrwt>
<pdfrwt beam="2">  1       21 0.48869440E-02 0.43620939E+02</pdfrwt>
<totfact> 0.14373128E+07</totfact>
</mgrwt>
</event>
<event>
 4    1  0.7478314E+004  0.2194555E+02  0.7546771E-02  0.1709195E+00
         21   -1    0    0  501  502  0.00000000000E+00  0.00000000000E+00  0.52255590307E+03  0.52255590307E+03  0.00000000000E+00 0. -1.
         21   -1    0    0  502  503 -0.00000000000E+00 -0.00000000000E+00 -0.98211440719E+00  0.98211440719E+00  0.00000000000E+00 0. -1.
          2    1    1    2  501    0 -0.85335898011E+01 -0.20218432867E+02  0.19582906291E+03  0.19705488845E+03  0.00000000000E+00 0. -1.
         -2    1    1    2    0  503  0.85335898011E+01  0.20218432867E+02  0.32574472576E+03  0.32648312903E+03  0.00000000000E+00 0.  1.
<mgrwt>
<rscale>  2 0.21945550E+02</rscale>
<asrwt>0</asrwt>
<pdfrwt beam="1">  1       21 0.80392994E-01 0.21945550E+02</pdfrwt>
<pdfrwt beam="2">  1       21 0.15109494E-03 0.21945550E+02</pdfrwt>
<totfact> 0.69530727E+07</totfact>
</mgrwt>
</event>
<event>
 4    1  0.7478314E+004  0.6019987E+02  0.7546771E-02  0.1396995E+00
         21   -1    0    0  503  502  0.00000000000E+00  0.00000000000E+00  0.17610371731E+04  0.17610371731E+04  0.00000000000E+00 0.  1.
         21   -1    0    0  501  503 -0.00000000000E+00 -0.00000000000E+00 -0.22702452630E+01  0.22702452630E+01  0.00000000000E+00 0.  1.
          2    1    1    2  501    0 -0.40746172870E+02  0.44314489860E+02  0.11490275764E+04  0.11506034920E+04  0.00000000000E+00 0.  1.
         -2    1    1    2    0  502  0.40746172870E+02 -0.44314489860E+02  0.60973935142E+03  0.61270392629E+03  0.00000000000E+00 0. -1.
<mgrwt>
<rscale>  2 0.60199872E+02</rscale>
<asrwt>0</asrwt>
<pdfrwt beam="1">  1       21 0.27092770E+00 0.60199872E+02</pdfrwt>
<pdfrwt beam="2">  1       21 0.34926991E-03 0.60199872E+02</pdfrwt>
<totfact> 0.10650775E+06</totfact>
</mgrwt>
</event>
<event>
 4    1  0.7478314E+004  0.2376140E+02  0.7546771E-02  0.1679457E+00
         21   -1    0    0  503  502  0.00000000000E+00  0.00000000000E+00  0.19358842870E+03  0.19358842870E+03  0.00000000000E+00 0.  1.
         21   -1    0    0  501  503 -0.00000000000E+00 -0.00000000000E+00 -0.35609044289E+01  0.35609044289E+01  0.00000000000E+00 0.  1.
          3    1    1    2  501    0  0.15488577248E+02 -0.18019664219E+02  0.53080560226E+02  0.58156256737E+02  0.00000000000E+00 0.  1.
         -3    1    1    2    0  502 -0.15488577248E+02  0.18019664219E+02  0.13694696404E+03  0.13899307639E+03  0.00000000000E+00 0. -1.
<mgrwt>
<rscale>  2 0.23761404E+02</rscale>
<asrwt>0</asrwt>
<pdfrwt beam="1">  1       21 0.29782827E-01 0.23761404E+02</pdfrwt>
<pdfrwt beam="2">  1       21 0.54783160E-03 0.23761404E+02</pdfrwt>
<totfact> 0.74961440E+07</totfact>
</mgrwt>
</event>
<event>
 4    1  0.7478314E+004  0.2174210E+02  0.7546771E-02  0.1712751E+00
         21   -1    0    0  501  502  0.00000000000E+00  0.00000000000E+00  0.99263489294E+00  0.99263489294E+00  0.00000000000E+00 0.  1.
         21   -1    0    0  502  503 -0.00000000000E+00 -0.00000000000E+00 -0.63063454676E+03  0.63063454676E+03  0.00000000000E+00 0.  1.
          5    1    1    2  501    0 -0.36334569001E+01 -0.21436346413E+02 -0.15855044915E+03  0.16003425846E+03  0.00000000000E+00 0. -1.
         -5    1    1    2    0  503  0.36334569001E+01  0.21436346413E+02 -0.47109146272E+03  0.47159292319E+03  0.00000000000E+00 0.  1.
<mgrwt>
<rscale>  2 0.21742101E+02</rscale>
<asrwt>0</asrwt>
<pdfrwt beam="1">  1       21 0.15271280E-03 0.21742101E+02</pdfrwt>
<pdfrwt beam="2">  1       21 0.97020867E-01 0.21742101E+02</pdfrwt>
<totfact> 0.45785105E+07</totfact>
</mgrwt>
</event>
<event>
 4    1  0.7478314E+004  0.3007473E+02  0.7546771E-02  0.1597264E+00
         21   -1    0    0  503  502  0.00000000000E+00  0.00000000000E+00  0.64515695431E+02  0.64515695431E+02  0.00000000000E+00 0.  1.
         21   -1    0    0  501  503 -0.00000000000E+00 -0.00000000000E+00 -0.16153633749E+02  0.16153633749E+02  0.00000000000E+00 0.  1.
          1    1    1    2  501    0 -0.28811951850E+02  0.86232550893E+01  0.38841110142E+02  0.49123527304E+02  0.00000000000E+00 0. -1.
         -1    1    1    2    0  502  0.28811951850E+02 -0.86232550893E+01  0.95209515405E+01  0.31545801876E+02  0.00000000000E+00 0.  1.
<mgrwt>
<rscale>  2 0.30074725E+02</rscale>
<asrwt>0</asrwt>
<pdfrwt beam="1">  1       21 0.99254915E-02 0.30074725E+02</pdfrwt>
<pdfrwt beam="2">  1       21 0.24851745E-02 0.30074725E+02</pdfrwt>
<totfact> 0.53879275E+07</totfact>
</mgrwt>
</event>
<event>
 4    1  0.7478314E+004  0.2403361E+02  0.7546771E-02  0.1675283E+00
         21   -1    0    0  501  502  0.00000000000E+00  0.00000000000E+00  0.98966235488E+02  0.98966235488E+02  0.00000000000E+00 0. -1.
         21   -1    0    0  502  503 -0.00000000000E+00 -0.00000000000E+00 -0.59052565978E+01  0.59052565978E+01  0.00000000000E+00 0. -1.
          5    1    1    2  501    0 -0.15388173352E+02 -0.18461270812E+02  0.40871613640E+02  0.47414166667E+02  0.00000000000E+00 0.  1.
         -5    1    1    2    0  503  0.15388173352E+02  0.18461270812E+02  0.52189365250E+02  0.57457325419E+02  0.00000000000E+00 0. -1.
<mgrwt>
<rscale>  2 0.24033610E+02</rscale>
<asrwt>0</asrwt>
<pdfrwt beam="1">  1       21 0.15225573E-01 0.24033610E+02</pdfrwt>
<pdfrwt beam="2">  1       21 0.90850109E-03 0.24033610E+02</pdfrwt>
<totfact> 0.11526450E+08</totfact>
</mgrwt>
</event>
<event>
 4    1  0.7478314E+004  0.2458378E+02  0.7546771E-02  0.1667053E+00
         21   -1    0    0  503  502  0.00000000000E+00  0.00000000000E+00  0.11389340848E+02  0.11389340848E+02  0.00000000000E+00 0.  1.
         21   -1    0    0  501  503 -0.00000000000E+00 -0.00000000000E+00 -0.59144466514E+02  0.59144466514E+02  0.00000000000E+00 0.  1.
          2    1    1    2  501    0  0.23762737930E+02 -0.63003603621E+01 -0.12569606011E+02  0.27610817625E+02  0.00000000000E+00 0. -1.
         -2    1    1    2    0  502 -0.23762737930E+02  0.63003603621E+01 -0.35185519654E+02  0.42922989737E+02  0.00000000000E+00 0.  1.
<mgrwt>
<rscale>  2 0.24583780E+02</rscale>
<asrwt>0</asrwt>
<pdfrwt beam="1">  1       21 0.17522063E-02 0.24583780E+02</pdfrwt>
<pdfrwt beam="2">  1       21 0.90991487E-02 0.24583780E+02</pdfrwt>
<totfact> 0.10164590E+08</totfact>
</mgrwt>
</event>
<event>
 4    1  0.7478314E+004  0.2424602E+02  0.7546771E-02  0.1672074E+00
         21   -1    0    0  501  502  0.00000000000E+00  0.00000000000E+00  0.61465682368E+00  0.61465682368E+00  0.00000000000E+00 0.  1.
         21   -1    0    0  502  503 -0.00000000000E+00 -0.00000000000E+00 -0.19905370058E+04  0.19905370058E+04  0.00000000000E+00 0.  1.
          1    1    1    2  501    0 -0.18603577031E+02  0.15549168320E+02 -0.17125475461E+04  0.17127191736E+04  0.00000000000E+00 0. -1.
         -1    1    1    2    0  503  0.18603577031E+02 -0.15549168320E+02 -0.27737480281E+03  0.27843248903E+03  0.00000000000E+00 0.  1.
<mgrwt>
<rscale>  2 0.24246025E+02</rscale>
<asrwt>0</asrwt>
<pdfrwt beam="1">  1       21 0.94562637E-04 0.24246025E+02</pdfrwt>
<pdfrwt beam="2">  1       21 0.30623630E+00 0.24246025E+02</pdfrwt>
<totfact> 0.49088592E+06</totfact>
</mgrwt>
</event>
<event>
 4    1  0.7478314E+004  0.2475750E+02  0.7546771E-02  0.1664510E+00
         21   -1    0    0  503  502  0.00000000000E+00  0.00000000000E+00  0.82036957000E+01  0.82036957000E+01  0.00000000000E+00 0.  1.
         21   -1    0    0  501  503 -0.00000000000E+00 -0.00000000000E+00 -0.76099477457E+02  0.76099477457E+02  0.00000000000E+00 0.  1.
          3    1    1    2  501    0 -0.16170155585E+01  0.24704635853E+02 -0.39634695899E+02  0.46731604840E+02  0.00000000000E+00 0.  1.
         -3    1    1    2    0  502  0.16170155585E+01 -0.24704635853E+02 -0.28261085858E+02  0.37571568317E+02  0.00000000000E+00 0. -1.
<mgrwt>
<rscale>  2 0.24757499E+02</rscale>
<asrwt>0</asrwt>
<pdfrwt beam="1">  1       21 0.12621071E-02 0.24757499E+02</pdfrwt>
<pdfrwt beam="2">  1       21 0.11707611E-01 0.24757499E+02</pdfrwt>
<totfact> 0.11040675E+08</totfact>
</mgrwt>
</event>
<event>
 4    1  0.7478314E+004  0.2073991E+02  0.7546771E-02  0.1731002E+00
         21   -1    0    0  501  502  0.00000000000E+00  0.00000000000E+00  0.43902636273E+02  0.43902636273E+02  0.00000000000E+00 0. -1.
         21   -1    0    0  502  503 -0.00000000000E+00 -0.00000000000E+00 -0.17087741973E+02  0.17087741973E+02  0.00000000000E+00 0. -1.
          1    1    1    2  501    0 -0.34385891184E+01  0.20452868732E+02 -0.65109675420E+01  0.21737903138E+02  0.00000000000E+00 0. -1.
         -1    1    1    2    0  503  0.34385891184E+01 -0.20452868732E+02  0.33325861843E+02  0.39252475108E+02  0.00000000000E+00 0.  1.
<mgrwt>
<rscale>  2 0.20739907E+02</rscale>
<asrwt>0</asrwt>
<pdfrwt beam="1">  1       21 0.67542517E-02 0.20739907E+02</pdfrwt>
<pdfrwt beam="2">  1       21 0.26288834E-02 0.20739907E+02</pdfrwt>
<totfact> 0.84348989E+07</totfact>
</mgrwt>
</event>
<event>
 4    1  0.7478314E+004  0.2704184E+02  0.7546771E-02  0.1633295E+00
         21   -1    0    0  503  502  0.00000000000E+00  0.00000000000E+00  0.86665417663E+00  0.86665417663E+00  0.00000000000E+00 0.  1.
         21   -1    0    0  501  503 -0.00000000000E+00 -0.00000000000E+00 -0.85496435469E+03  0.85496435469E+03  0.00000000000E+00 0.  1.
          2    1    1    2  501    0  0.16057556519E+02  0.21758120923E+02 -0.37809458030E+03  0.37906038121E+03  0.00000000000E+00 0. -1.
         -2    1    1    2    0  502 -0.16057556519E+02 -0.21758120923E+02 -0.47600312021E+03  0.47677062766E+03  0.00000000000E+00 0.  1.
<mgrwt>
<rscale>  2 0.27041837E+02</rscale>
<asrwt>0</asrwt>
<pdfrwt beam="1">  1       21 0.13333105E-03 0.27041837E+02</pdfrwt>
<pdfrwt beam="2">  1       21 0.13153334E+00 0.27041837E+02</pdfrwt>
<totfact> 0.29321082E+07</totfact>
</mgrwt>
</event>
<event>
 4    1  0.7478314E+004  0.3544000E+02  0.7546771E-02  0.1544728E+00
         21   -1    0    0  503  502  0.00000000000E+00  0.00000000000E+00  0.10362057003E+02  0.10362057003E+02  0.00000000000E+00 0. -1.
         21   -1    0    0  501  503 -0.00000000000E+00 -0.00000000000E+00 -0.12207899283E+03  0.12207899283E+03  0.00000000000E+00 0. -1.
          5    1    1    2  501    0 -0.13935416102E+02 -0.32585238514E+02 -0.50274135431E+02  0.61510017755E+02  0.00000000000E+00 0.  1.
         -5    1    1    2    0  502  0.13935416102E+02  0.32585238514E+02 -0.61442800397E+02  0.70931032077E+02  0.00000000000E+00 0. -1.
<mgrwt>
<rscale>  2 0.35440000E+02</rscale>
<asrwt>0</asrwt>
<pdfrwt beam="1">  1       21 0.15941626E-02 0.35440000E+02</pdfrwt>
<pdfrwt beam="2">  1       21 0.18781383E-01 0.35440000E+02</pdfrwt>
<totfact> 0.37197530E+07</totfact>
</mgrwt>
</event>
<event>
 4    1  0.7478314E+004  0.4640431E+02  0.7546771E-02  0.1465761E+00
         21   -1    0    0  503  502  0.00000000000E+00  0.00000000000E+00  0.21847695873E+04  0.21847695873E+04  0.00000000000E+00 0.  1.
         21   -1    0    0  501  503 -0.00000000000E+00 -0.00000000000E+00 -0.13315995267E+01  0.13315995267E+01  0.00000000000E+00 0.  1.
          2    1    1    2  501    0 -0.84364026160E+00  0.46396639002E+02  0.16488746823E+04  0.16495275316E+04  0.00000000000E+00 0. -1.
         -2    1    1    2    0  502  0.84364026160E+00 -0.46396639002E+02  0.53456330553E+03  0.53657365520E+03  0.00000000000E+00 0.  1.
<mgrwt>
<rscale>  2 0.46404308E+02</rscale>
<asrwt>0</asrwt>
<pdfrwt beam="1">  1       21 0.33611553E+00 0.46404308E+02</pdfrwt>
<pdfrwt beam="2">  1       21 0.20486321E-03 0.46404308E+02</pdfrwt>
<totfact> 0.10904973E+06</totfact>
</mgrwt>
</event>
<event>
 4    1  0.7478314E+004  0.2012197E+02  0.7546771E-02  0.1742913E+00
         21   -1    0    0  503  502  0.00000000000E+00  0.00000000000E+00  0.17786372123E+01  0.17786372123E+01  0.00000000000E+00 0. -1.
         21   -1    0    0  501  503 -0.00000000000E+00 -0.00000000000E+00 -0.22837863820E+03  0.22837863820E+03  0.00000000000E+00 0. -1.
          2    1    1    2  501    0  0.19738346125E+02 -0.39104015156E+01 -0.11983319712E+03  0.12151085828E+03  0.00000000000E+00 0.  1.
         -2    1    1    2    0  502 -0.19738346125E+02  0.39104015156E+01 -0.10676680387E+03  0.10864641713E+03  0.00000000000E+00 0. -1.
<mgrwt>
<rscale>  2 0.20121967E+02</rscale>
<asrwt>0</asrwt>
<pdfrwt beam="1">  1       21 0.27363656E-03 0.20121967E+02</pdfrwt>
<pdfrwt beam="2">  1       21 0.35135166E-01 0.20121967E+02</pdfrwt>
<totfact> 0.14614256E+08</totfact>
</mgrwt>
</event>
<event>
 4    1  0.7478314E+004  0.2264629E+02  0.7546771E-02  0.1697309E+00
         21   -1    0    0  501  502  0.00000000000E+00  0.00000000000E+00  0.94530650225E+00  0.94530650225E+00  0.00000000000E+00 0. -1.
         21   -1    0    0  502  503 -0.00000000000E+00 -0.00000000000E+00 -0.57516790671E+03  0.57516790671E+03  0.00000000000E+00 0. -1.
          5    1    1    2  501    0 -0.92510197417E+01  0.20670586851E+02 -0.35573277248E+03  0.35645288601E+03  0.00000000000E+00 0. -1.
         -5    1    1    2    0  503  0.92510197417E+01 -0.20670586851E+02 -0.21848982772E+03  0.21966032720E+03  0.00000000000E+00 0.  1.
<mgrwt>
<rscale>  2 0.22646292E+02</rscale>
<asrwt>0</asrwt>
<pdfrwt beam="1">  1       21 0.14543218E-03 0.22646292E+02</pdfrwt>
<pdfrwt beam="2">  1       21 0.88487122E-01 0.22646292E+02</pdfrwt>
<totfact> 0.60408791E+07</totfact>
</mgrwt>
</event>
<event>
 4    1  0.7478314E+004  0.2369044E+02  0.7546771E-02  0.1680557E+00
         21   -1    0    0  503  502  0.00000000000E+00  0.00000000000E+00  0.29973254091E+01  0.29973254091E+01  0.00000000000E+00 0.  1.
         21   -1    0    0  501  503 -0.00000000000E+00 -0.00000000000E+00 -0.19243208797E+03  0.19243208797E+03  0.00000000000E+00 0.  1.
          1    1    1    2  501    0  0.31566312133E+01  0.23479193967E+02 -0.78675856493E+02  0.82165243655E+02  0.00000000000E+00 0.  1.
         -1    1    1    2    0  502 -0.31566312133E+01 -0.23479193967E+02 -0.11075890606E+03  0.11326416972E+03  0.00000000000E+00 0. -1.
<mgrwt>
<rscale>  2 0.23690438E+02</rscale>
<asrwt>0</asrwt>
<pdfrwt beam="1">  1       21 0.46112701E-03 0.23690438E+02</pdfrwt>
<pdfrwt beam="2">  1       21 0.29604935E-01 0.23690438E+02</pdfrwt>
<totfact> 0.97661582E+07</totfact>
</mgrwt>
</event>
<event>
 4    1  0.7478314E+004  0.2405046E+02  0.7546771E-02  0.1675027E+00
         21   -1    0    0  503  502  0.00000000000E+00  0.00000000000E+00  0.41188573725E+01  0.41188573725E+01  0.00000000000E+00 0.  1.
         21   -1    0    0  501  503 -0.00000000000E+00 -0.00000000000E+00 -0.15512159914E+03  0.15512159914E+03  0.00000000000E+00 0.  1.
          1    1    1    2  501    0  0.15879830958E+02 -0.18062552529E+02 -0.10000174238E+03  0.10285316385E+03  0.00000000000E+00 0. -1.
         -1    1    1    2    0  502 -0.15879830958E+02  0.18062552529E+02 -0.51000999382E+02  0.56387292656E+02  0.00000000000E+00 0.  1.
<mgrwt>
<rscale>  2 0.24050464E+02</rscale>
<asrwt>0</asrwt>
<pdfrwt beam="1">  1       21 0.63367022E-03 0.24050464E+02</pdfrwt>
<pdfrwt beam="2">  1       21 0.23864867E-01 0.24050464E+02</pdfrwt>
<totfact> 0.90260438E+07</totfact>
</mgrwt>
</event>
<event>
 4    1  0.7478314E+004  0.2022449E+02  0.7546771E-02  0.1740900E+00
         21   -1    0    0  501  502  0.00000000000E+00  0.00000000000E+00  0.74058483456E+02  0.74058483456E+02  0.00000000000E+00 0. -1.
         21   -1    0    0  502  503 -0.00000000000E+00 -0.00000000000E+00 -0.65965376895E+01  0.65965376895E+01  0.00000000000E+00 0. -1.
          3    1    1    2  501    0 -0.17492407287E+02 -0.10151136937E+02  0.17462803621E+02  0.26720393038E+02  0.00000000000E+00 0. -1.
         -3    1    1    2    0  503  0.17492407287E+02  0.10151136937E+02  0.49999142146E+02  0.53934628107E+02  0.00000000000E+00 0.  1.
<mgrwt>
<rscale>  2 0.20224487E+02</rscale>
<asrwt>0</asrwt>
<pdfrwt beam="1">  1       21 0.11393612E-01 0.20224487E+02</pdfrwt>
<pdfrwt beam="2">  1       21 0.10148520E-02 0.20224487E+02</pdfrwt>
<totfact> 0.15117867E+08</totfact>
</mgrwt>
</event>
<event>
 4    1  0.7478314E+004  0.4919395E+02  0.7546771E-02  0.1449738E+00
         21   -1    0    0  501  502  0.00000000000E+00  0.00000000000E+00  0.10073985194E+03  0.10073985194E+03  0.00000000000E+00 0.  1.
         21   -1    0    0  502  503 -0.00000000000E+00 -0.00000000000E+00 -0.24078649515E+02  0.24078649515E+02  0.00000000000E+00 0.  1.
          1    1    1    2  501    0  0.32038420839E+02 -0.37330736288E+02  0.35322510171E+02  0.60561737149E+02  0.00000000000E+00 0. -1.
         -1    1    1    2    0  503 -0.32038420839E+02  0.37330736288E+02  0.41338692249E+02  0.64256764302E+02  0.00000000000E+00 0.  1.
<mgrwt>
<rscale>  2 0.49193946E+02</rscale>
<asrwt>0</asrwt>
<pdfrwt beam="1">  1       21 0.15498439E-01 0.49193946E+02</pdfrwt>
<pdfrwt beam="2">  1       21 0.37044077E-02 0.49193946E+02</pdfrwt>
<totfact> 0.14530945E+07</totfact>
</mgrwt>
</event>
<event>
 4    1  0.7478314E+004  0.2632662E+02  0.7546771E-02  0.1642647E+00
         21   -1    0    0  501  502  0.00000000000E+00  0.00000000000E+00  0.22732657290E+02  0.22732657290E+02  0.00000000000E+00 0. -1.
         21   -1    0    0  502  503 -0.00000000000E+00 -0.00000000000E+00 -0.33862123785E+02  0.33862123785E+02  0.00000000000E+00 0. -1.
          1    1    1    2  501    0 -0.17772064106E+02 -0.19422785903E+02  0.33666743853E+01  0.26541013003E+02  0.00000000000E+00 0. -1.
         -1    1    1    2    0  503  0.17772064106E+02  0.19422785903E+02 -0.14496140881E+02  0.30053768071E+02  0.00000000000E+00 0.  1.
<mgrwt>
<rscale>  2 0.26326619E+02</rscale>
<asrwt>0</asrwt>
<pdfrwt beam="1">  1       21 0.34973319E-02 0.26326619E+02</pdfrwt>
<pdfrwt beam="2">  1       21 0.52095575E-02 0.26326619E+02</pdfrwt>
<totfact> 0.87615152E+07</totfact>
</mgrwt>
</event>
<event>
 4    1  0.7478314E+004  0.2345982E+02  0.7546771E-02  0.1684163E+00
         21   -1    0    0  503  502  0.00000000000E+00  0.00000000000E+00  0.21307022673E+02  0.21307022673E+02  0.00000000000E+00 0.  1.
         21   -1    0    0  501  503 -0.00000000000E+00 -0.00000000000E+00 -0.31166172651E+02  0.31166172651E+02  0.00000000000E+00 0.  1.
          5    1    1    2  501    0 -0.16677277729E+02  0.16499444886E+02  0.59265595867E+01  0.24196846542E+02  0.00000000000E+00 0.  1.
         -5    1    1    2    0  502  0.16677277729E+02 -0.16499444886E+02 -0.15785709564E+02  0.28276348782E+02  0.00000000000E+00 0. -1.
<mgrwt>
<rscale>  2 0.23459823E+02</rscale>
<asrwt>0</asrwt>
<pdfrwt beam="1">  1       21 0.32780035E-02 0.23459823E+02</pdfrwt>
<pdfrwt beam="2">  1       21 0.47947958E-02 0.23459823E+02</pdfrwt>
<totfact> 0.10731421E+08</totfact>
</mgrwt>
</event>
<event>
 4    1  0.7478314E+004  0.2111953E+02  0.7546771E-02  0.1723940E+00
         21   -1    0    0  503  502  0.00000000000E+00  0.00000000000E+00  0.37448156666E+01  0.37448156666E+01  0.00000000000E+00 0.  1.
         21   -1    0    0  501  503 -0.00000000000E+00 -0.00000000000E+00 -0.14394975018E+03  0.14394975018E+03  0.00000000000E+00 0.  1.
          3    1    1    2  501    0  0.20626561028E+02  0.45364448228E+01 -0.39424433738E+02  0.44724940772E+02  0.00000000000E+00 0. -1.
         -3    1    1    2    0  502 -0.20626561028E+02 -0.45364448228E+01 -0.10078050077E+03  0.10296962507E+03  0.00000000000E+00 0.  1.
<mgrwt>
<rscale>  2 0.21119525E+02</rscale>
<asrwt>0</asrwt>
<pdfrwt beam="1">  1       21 0.57612552E-03 0.21119525E+02</pdfrwt>
<pdfrwt beam="2">  1       21 0.22146114E-01 0.21119525E+02</pdfrwt>
<totfact> 0.11441254E+08</totfact>
</mgrwt>
</event>
<event>
 4    1  0.7478314E+004  0.2077062E+02  0.7546771E-02  0.1730424E+00
         21   -1    0    0  503  502  0.00000000000E+00  0.00000000000E+00  0.11025860397E+02  0.11025860397E+02  0.00000000000E+00 0. -1.
         21   -1    0    0  501  503 -0.00000000000E+00 -0.00000000000E+00 -0.39132363870E+02  0.39132363870E+02  0.00000000000E+00 0. -1.
          2    1    1    2  501    0 -0.89790392198E+00 -0.20751201883E+02 -0.14321519979E+02  0.25229438075E+02  0.00000000000E+00 0. -1.
         -2    1    1    2    0  502  0.89790392198E+00  0.20751201883E+02 -0.13784983493E+02  0.24928786191E+02  0.00000000000E+00 0.  1.
<mgrwt>
<rscale>  2 0.20770619E+02</rscale>
<asrwt>0</asrwt>
<pdfrwt beam="1">  1       21 0.16962862E-02 0.20770619E+02</pdfrwt>
<pdfrwt beam="2">  1       21 0.60203637E-02 0.20770619E+02</pdfrwt>
<totfact> 0.19852424E+08</totfact>
</mgrwt>
</event>
<event>
 4    1  0.7478314E+004  0.3046692E+02  0.7546771E-02  0.1592984E+00
         21   -1    0    0  501  502  0.00000000000E+00  0.00000000000E+00  0.53963429890E+03  0.53963429890E+03  0.00000000000E+00 0.  1.
         21   -1    0    0  502  503 -0.00000000000E+00 -0.00000000000E+00 -0.30436603018E+01  0.30436603018E+01  0.00000000000E+00 0.  1.
          3    1    1    2  501    0  0.30465472500E+02 -0.29690003946E+00  0.44722544572E+03  0.44826201319E+03  0.00000000000E+00 0.  1.
         -3    1    1    2    0  503 -0.30465472500E+02  0.29690003946E+00  0.89365192880E+02  0.94415946020E+02  0.00000000000E+00 0. -1.
<mgrwt>
<rscale>  2 0.30466919E+02</rscale>
<asrwt>0</asrwt>
<pdfrwt beam="1">  1       21 0.83020586E-01 0.30466919E+02</pdfrwt>
<pdfrwt beam="2">  1       21 0.46825586E-03 0.30466919E+02</pdfrwt>
<totfact> 0.13291652E+07</totfact>
</mgrwt>
</event>
<event>
 4    1  0.7478314E+004  0.2887427E+02  0.7546771E-02  0.1610876E+00
         21   -1    0    0  503  502  0.00000000000E+00  0.00000000000E+00  0.17776228950E+03  0.17776228950E+03  0.00000000000E+00 0.  1.
         21   -1    0    0  501  503 -0.00000000000E+00 -0.00000000000E+00 -0.71827273620E+01  0.71827273620E+01  0.00000000000E+00 0.  1.
          3    1    1    2  501    0  0.68315703802E+00 -0.28866185996E+02  0.30814887602E+02  0.42228908291E+02  0.00000000000E+00 0.  1.
         -3    1    1    2    0  502 -0.68315703802E+00  0.28866185996E+02  0.13976467453E+03  0.14271610857E+03  0.00000000000E+00 0. -1.
<mgrwt>
<rscale>  2 0.28874269E+02</rscale>
<asrwt>0</asrwt>
<pdfrwt beam="1">  1       21 0.27348041E-01 0.28874269E+02</pdfrwt>
<pdfrwt beam="2">  1       21 0.11050351E-02 0.28874269E+02</pdfrwt>
<totfact> 0.31972422E+07</totfact>
</mgrwt>
</event>
<event>
 4    1  0.7478314E+004  0.2191165E+02  0.7546771E-02  0.1709784E+00
         21   -1    0    0  501  502  0.00000000000E+00  0.00000000000E+00  0.23027270065E+02  0.23027270065E+02  0.00000000000E+00 0. -1.
         21   -1    0    0  502  503 -0.00000000000E+00 -0.00000000000E+00 -0.21214499453E+02  0.21214499453E+02  0.00000000000E+00 0. -1.
          4    1    1    2  501    0  0.19545918059E+02  0.99034053858E+01 -0.19928852037E+01  0.22002089502E+02  0.00000000000E+00 0. -1.
         -4    1    1    2    0  503 -0.19545918059E+02 -0.99034053858E+01  0.38056558154E+01  0.22239680016E+02  0.00000000000E+00 0.  1.
<mgrwt>
<rscale>  2 0.21911649E+02</rscale>
<asrwt>0</asrwt>
<pdfrwt beam="1">  1       21 0.35426570E-02 0.21911649E+02</pdfrwt>
<pdfrwt beam="2">  1       21 0.32637691E-02 0.21911649E+02</pdfrwt>
<totfact> 0.17059532E+08</totfact>
</mgrwt>
</event>
<event>
 4    1  0.7478314E+004  0.2463929E+02  0.7546771E-02  0.1666238E+00
         21   -1    0    0  503  502  0.00000000000E+00  0.00000000000E+00  0.11394196571E+02  0.11394196571E+02  0.00000000000E+00 0.  1.
         21   -1    0    0  501  503 -0.00000000000E+00 -0.00000000000E+00 -0.54212349745E+02  0.54212349745E+02  0.00000000000E+00 0.  1.
          4    1    1    2  501    0 -0.43207416760E+00 -0.24635505786E+02 -0.17109642975E+02  0.29997245142E+02  0.00000000000E+00 0. -1.
         -4    1    1    2    0  502  0.43207416760E+00  0.24635505786E+02 -0.25708510199E+02  0.35609301174E+02  0.00000000000E+00 0.  1.
<mgrwt>
<rscale>  2 0.24639294E+02</rscale>
<asrwt>0</asrwt>
<pdfrwt beam="1">  1       21 0.17529533E-02 0.24639294E+02</pdfrwt>
<pdfrwt beam="2">  1       21 0.83403615E-02 0.24639294E+02</pdfrwt>
<totfact> 0.11728842E+08</totfact>
</mgrwt>
</event>
<event>
 4    1  0.7478314E+004  0.2113621E+02  0.7546771E-02  0.1723634E+00
         21   -1    0    0  503  502  0.00000000000E+00  0.00000000000E+00  0.20466628875E+02  0.20466628875E+02  0.00000000000E+00 0.  1.
         21   -1    0    0  501  503 -0.00000000000E+00 -0.00000000000E+00 -0.21843720583E+02  0.21843720583E+02  0.00000000000E+00 0.  1.
          4    1    1    2  501    0 -0.11887975953E+02 -0.17476135859E+02 -0.12615846600E+01  0.21173825650E+02  0.00000000000E+00 0.  1.
         -4    1    1    2    0  502  0.11887975953E+02  0.17476135859E+02 -0.11550704781E+00  0.21136523808E+02  0.00000000000E+00 0. -1.
<mgrwt>
<rscale>  2 0.21136208E+02</rscale>
<asrwt>0</asrwt>
<pdfrwt beam="1">  1       21 0.31487121E-02 0.21136208E+02</pdfrwt>
<pdfrwt beam="2">  1       21 0.33605724E-02 0.21136208E+02</pdfrwt>
<totfact> 0.19367945E+08</totfact>
</mgrwt>
</event>
<event>
 4    1  0.7478314E+004  0.2200641E+02  0.7546771E-02  0.1708141E+00
         21   -1    0    0  503  502  0.00000000000E+00  0.00000000000E+00  0.32670794135E+01  0.32670794135E+01  0.00000000000E+00 0. -1.
         21   -1    0    0  501  503 -0.00000000000E+00 -0.00000000000E+00 -0.15065972644E+03  0.15065972644E+03  0.00000000000E+00 0. -1.
          4    1    1    2  501    0  0.49759754714E+01  0.21436456474E+02 -0.63924236996E+02  0.67606139319E+02  0.00000000000E+00 0.  1.
         -4    1    1    2    0  502 -0.49759754714E+01 -0.21436456474E+02 -0.83468410033E+02  0.86320666537E+02  0.00000000000E+00 0. -1.
<mgrwt>
<rscale>  2 0.22006408E+02</rscale>
<asrwt>0</asrwt>
<pdfrwt beam="1">  1       21 0.50262764E-03 0.22006408E+02</pdfrwt>
<pdfrwt beam="2">  1       21 0.23178418E-01 0.22006408E+02</pdfrwt>
<totfact> 0.13065761E+08</totfact>
</mgrwt>
</event>
<event>
 4    1  0.7478314E+004  0.2058239E+02  0.7546771E-02  0.1733989E+00
         21   -1    0    0  503  502  0.00000000000E+00  0.00000000000E+00  0.30614792618E+02  0.30614792618E+02  0.00000000000E+00 0.  1.
         21   -1    0    0  501  503 -0.00000000000E+00 -0.00000000000E+00 -0.17732776828E+02  0.17732776828E+02  0.00000000000E+00 0.  1.
          3    1    1    2  501    0 -0.15721506551E+02  0.13284159473E+02 -0.48887582348E+01  0.21155014021E+02  0.00000000000E+00 0.  1.
         -3    1    1    2    0  502  0.15721506551E+02 -0.13284159473E+02  0.17770774025E+02  0.27192555426E+02  0.00000000000E+00 0. -1.
<mgrwt>
<rscale>  2 0.20582387E+02</rscale>
<asrwt>0</asrwt>
<pdfrwt beam="1">  1       21 0.47099681E-02 0.20582387E+02</pdfrwt>
<pdfrwt beam="2">  1       21 0.27281195E-02 0.20582387E+02</pdfrwt>
<totfact> 0.14121479E+08</totfact>
</mgrwt>
</event>
<event>
 4    1  0.7478314E+004  0.3098925E+02  0.7546771E-02  0.1587404E+00
         21   -1    0    0  503  502  0.00000000000E+00  0.00000000000E+00  0.94494575159E+01  0.94494575159E+01  0.00000000000E+00 0. -1.
         21   -1    0    0  501  503 -0.00000000000E+00 -0.00000000000E+00 -0.10179950024E+03  0.10179950024E+03  0.00000000000E+00 0. -1.
          5    1    1    2  501    0 -0.15953899720E+02 -0.26567025702E+02 -0.43894951106E+02  0.53731745771E+02  0.00000000000E+00 0. -1.
         -5    1    1    2    0  502  0.15953899720E+02  0.26567025702E+02 -0.48455091621E+02  0.57517211988E+02  0.00000000000E+00 0.  1.
<mgrwt>
<rscale>  2 0.30989253E+02</rscale>
<asrwt>0</asrwt>
<pdfrwt beam="1">  1       21 0.14537627E-02 0.30989253E+02</pdfrwt>
<pdfrwt beam="2">  1       21 0.15661462E-01 0.30989253E+02</pdfrwt>
<totfact> 0.57285833E+07</totfact>
</mgrwt>
</event>
<event>
 4    1  0.7478314E+004  0.6216528E+02  0.7546771E-02  0.1388963E+00
         21   -1    0    0  501  502  0.00000000000E+00  0.00000000000E+00  0.12245444517E+03  0.12245444517E+03  0.00000000000E+00 0. -1.
         21   -1    0    0  502  503 -0.00000000000E+00 -0.00000000000E+00 -0.42472388828E+02  0.42472388828E+02  0.00000000000E+00 0. -1.
          5    1    1    2  501    0 -0.10713644999E+02 -0.61235124185E+02  0.81792405670E+02  0.10273519479E+03  0.00000000000E+00 0.  1.
         -5    1    1    2    0  503  0.10713644999E+02  0.61235124185E+02 -0.18103493256E+01  0.62191639211E+02  0.00000000000E+00 0. -1.
<mgrwt>
<rscale>  2 0.62165285E+02</rscale>
<asrwt>0</asrwt>
<pdfrwt beam="1">  1       21 0.18839145E-01 0.62165285E+02</pdfrwt>
<pdfrwt beam="2">  1       21 0.65342137E-02 0.62165285E+02</pdfrwt>
<totfact> 0.41485937E+06</totfact>
</mgrwt>
</event>
<event>
 4    1  0.7478314E+004  0.2344548E+02  0.7546771E-02  0.1684389E+00
         21   -1    0    0  501  502  0.00000000000E+00  0.00000000000E+00  0.55499619885E+00  0.55499619885E+00  0.00000000000E+00 0. -1.
         21   -1    0    0  502  503 -0.00000000000E+00 -0.00000000000E+00 -0.14507511445E+04  0.14507511445E+04  0.00000000000E+00 0. -1.
          2    1    1    2  501    0 -0.43673202320E+00  0.23441407837E+02 -0.31634747228E+03  0.31721509037E+03  0.00000000000E+00 0. -1.
         -2    1    1    2    0  503  0.43673202320E+00 -0.23441407837E+02 -0.11338486760E+04  0.11340910503E+04  0.00000000000E+00 0.  1.
<mgrwt>
<rscale>  2 0.23445476E+02</rscale>
<asrwt>0</asrwt>
<pdfrwt beam="1">  1       21 0.85383490E-04 0.23445476E+02</pdfrwt>
<pdfrwt beam="2">  1       21 0.22319390E+00 0.23445476E+02</pdfrwt>
<totfact> 0.14615076E+07</totfact>
</mgrwt>
</event>
<event>
 4    1  0.7478314E+004  0.2013270E+02  0.7546771E-02  0.1742702E+00
         21   -1    0    0  501  502  0.00000000000E+00  0.00000000000E+00  0.25613214135E+02  0.25613214135E+02  0.00000000000E+00 0. -1.
         21   -1    0    0  502  503 -0.00000000000E+00 -0.00000000000E+00 -0.16064656390E+02  0.16064656390E+02  0.00000000000E+00 0. -1.
          5    1    1    2  501    0 -0.20043626026E+02 -0.18917867498E+01  0.22283195862E+01  0.20255646363E+02  0.00000000000E+00 0.  1.
         -5    1    1    2    0  503  0.20043626026E+02  0.18917867498E+01  0.73202381582E+01  0.21422224163E+02  0.00000000000E+00 0. -1.
<mgrwt>
<rscale>  2 0.20132705E+02</rscale>
<asrwt>0</asrwt>
<pdfrwt beam="1">  1       21 0.39404945E-02 0.20132705E+02</pdfrwt>
<pdfrwt beam="2">  1       21 0.24714856E-02 0.20132705E+02</pdfrwt>
<totfact> 0.21616896E+08</totfact>
</mgrwt>
</event>
<event>
 4    1  0.7478314E+004  0.2052459E+02  0.7546771E-02  0.1735093E+00
         21   -1    0    0  503  502  0.00000000000E+00  0.00000000000E+00  0.83621943527E+00  0.83621943527E+00  0.00000000000E+00 0.  1.
         21   -1    0    0  501  503 -0.00000000000E+00 -0.00000000000E+00 -0.57758376196E+03  0.57758376196E+03  0.00000000000E+00 0.  1.
          1    1    1    2  501    0  0.67808785238E+01 -0.19372104889E+02 -0.18498180397E+03  0.18611697011E+03  0.00000000000E+00 0.  1.
         -1    1    1    2    0  502 -0.67808785238E+01  0.19372104889E+02 -0.39176573856E+03  0.39230301129E+03  0.00000000000E+00 0. -1.
<mgrwt>
<rscale>  2 0.20524589E+02</rscale>
<asrwt>0</asrwt>
<pdfrwt beam="1">  1       21 0.12864871E-03 0.20524589E+02</pdfrwt>
<pdfrwt beam="2">  1       21 0.88859340E-01 0.20524589E+02</pdfrwt>
<totfact> 0.69684653E+07</totfact>
</mgrwt>
</event>
<event>
 4    1  0.7478314E+004  0.2210317E+02  0.7546771E-02  0.1706474E+00
         21   -1    0    0  503  502  0.00000000000E+00  0.00000000000E+00  0.63190693200E+01  0.63190693200E+01  0.00000000000E+00 0. -1.
         21   -1    0    0  501  503 -0.00000000000E+00 -0.00000000000E+00 -0.98769856965E+02  0.98769856965E+02  0.00000000000E+00 0. -1.
          4    1    1    2  501    0 -0.44557753736E+01  0.21649394590E+02 -0.70715539653E+02  0.74089390392E+02  0.00000000000E+00 0.  1.
         -4    1    1    2    0  502  0.44557753736E+01 -0.21649394590E+02 -0.21735247992E+02  0.30999535893E+02  0.00000000000E+00 0. -1.
<mgrwt>
<rscale>  2 0.22103172E+02</rscale>
<asrwt>0</asrwt>
<pdfrwt beam="1">  1       21 0.97216459E-03 0.22103172E+02</pdfrwt>
<pdfrwt beam="2">  1       21 0.15195361E-01 0.22103172E+02</pdfrwt>
<totfact> 0.10203977E+08</totfact>
</mgrwt>
</event>
<event>
 4    1  0.7478314E+004  0.2846674E+02  0.7546771E-02  0.1615683E+00
         21   -1    0    0  501  502  0.00000000000E+00  0.00000000000E+00  0.17235805912E+02  0.17235805912E+02  0.00000000000E+00 0. -1.
         21   -1    0    0  502  503 -0.00000000000E+00 -0.00000000000E+00 -0.55719896550E+02  0.55719896550E+02  0.00000000000E+00 0. -1.
          4    1    1    2  501    0 -0.21471884010E+02  0.18689933954E+02 -0.48246896225E+01  0.28872704482E+02  0.00000000000E+00 0. -1.
         -4    1    1    2    0  503  0.21471884010E+02 -0.18689933954E+02 -0.33659401016E+02  0.44082997980E+02  0.00000000000E+00 0.  1.
<mgrwt>
<rscale>  2 0.28466743E+02</rscale>
<asrwt>0</asrwt>
<pdfrwt beam="1">  1       21 0.26516624E-02 0.28466743E+02</pdfrwt>
<pdfrwt beam="2">  1       21 0.85722919E-02 0.28466743E+02</pdfrwt>
<totfact> 0.61334253E+07</totfact>
</mgrwt>
</event>
<event>
 4    1  0.7478314E+004  0.2050659E+02  0.7546771E-02  0.1735438E+00
         21   -1    0    0  501  502  0.00000000000E+00  0.00000000000E+00  0.46477847635E+02  0.46477847635E+02  0.00000000000E+00 0. -1.
         21   -1    0    0  502  503 -0.00000000000E+00 -0.00000000000E+00 -0.15853771155E+02  0.15853771155E+02  0.00000000000E+00 0. -1.
          4    1    1    2  501    0  0.17044628086E+02 -0.11401789609E+02 -0.51080974246E+01  0.21133215850E+02  0.00000000000E+00 0. -1.
         -4    1    1    2    0  503 -0.17044628086E+02  0.11401789609E+02  0.35732173905E+02  0.41198402940E+02  0.00000000000E+00 0.  1.
<mgrwt>
<rscale>  2 0.20506588E+02</rscale>
<asrwt>0</asrwt>
<pdfrwt beam="1">  1       21 0.71504381E-02 0.20506588E+02</pdfrwt>
<pdfrwt beam="2">  1       21 0.24390417E-02 0.20506588E+02</pdfrwt>
<totfact> 0.86084491E+07</totfact>
</mgrwt>
</event>
<event>
 4    1  0.7478314E+004  0.2713302E+02  0.7546771E-02  0.1632129E+00
         21   -1    0    0  503  502  0.00000000000E+00  0.00000000000E+00  0.24087306243E+02  0.24087306243E+02  0.00000000000E+00 0. -1.
         21   -1    0    0  501  503 -0.00000000000E+00 -0.00000000000E+00 -0.37052040152E+02  0.37052040152E+02  0.00000000000E+00 0. -1.
          4    1    1    2  501    0 -0.23807123638E+02 -0.13016214919E+02 -0.19274597533E+02  0.33282294044E+02  0.00000000000E+00 0.  1.
         -4    1    1    2    0  502  0.23807123638E+02  0.13016214919E+02  0.63098636251E+01  0.27857052351E+02  0.00000000000E+00 0. -1.
<mgrwt>
<rscale>  2 0.27133024E+02</rscale>
<asrwt>0</asrwt>
<pdfrwt beam="1">  1       21 0.37057394E-02 0.27133024E+02</pdfrwt>
<pdfrwt beam="2">  1       21 0.57003139E-02 0.27133024E+02</pdfrwt>
<totfact> 0.69723103E+07</totfact>
</mgrwt>
</event>
<event>
 4    1  0.7478314E+004  0.2182782E+02  0.7546771E-02  0.1711247E+00
         21   -1    0    0  503  502  0.00000000000E+00  0.00000000000E+00  0.22085033859E+02  0.22085033859E+02  0.00000000000E+00 0.  1.
         21   -1    0    0  501  503 -0.00000000000E+00 -0.00000000000E+00 -0.39894430815E+02  0.39894430815E+02  0.00000000000E+00 0.  1.
          4    1    1    2  501    0 -0.21471933259E+02  0.39255152086E+01 -0.29905425208E+02  0.37024154878E+02  0.00000000000E+00 0. -1.
         -4    1    1    2    0  502  0.21471933259E+02 -0.39255152086E+01  0.12096028253E+02  0.24955309796E+02  0.00000000000E+00 0.  1.
<mgrwt>
<rscale>  2 0.21827817E+02</rscale>
<asrwt>0</asrwt>
<pdfrwt beam="1">  1       21 0.33976975E-02 0.21827817E+02</pdfrwt>
<pdfrwt beam="2">  1       21 0.61376047E-02 0.21827817E+02</pdfrwt>
<totfact> 0.67017709E+07</totfact>
</mgrwt>
</event>
<event>
 4    1  0.7478314E+004  0.7019423E+02  0.7546771E-02  0.1359434E+00
         21   -1    0    0  503  502  0.00000000000E+00  0.00000000000E+00  0.34562080222E+03  0.34562080222E+03  0.00000000000E+00 0.  1.
         21   -1    0    0  501  503 -0.00000000000E+00 -0.00000000000E+00 -0.14311639121E+02  0.14311639121E+02  0.00000000000E+00 0.  1.
          4    1    1    2  501    0  0.43159435021E+01  0.70061423440E+02  0.15445105270E+03  0.16965364158E+03  0.00000000000E+00 0. -1.
         -4    1    1    2    0  502 -0.43159435021E+01 -0.70061423440E+02  0.17685811041E+03  0.19027879976E+03  0.00000000000E+00 0.  1.
<mgrwt>
<rscale>  2 0.70194234E+02</rscale>
<asrwt>0</asrwt>
<pdfrwt beam="1">  1       21 0.53172425E-01 0.70194234E+02</pdfrwt>
<pdfrwt beam="2">  1       21 0.22017909E-02 0.70194234E+02</pdfrwt>
<totfact> 0.33956968E+06</totfact>
</mgrwt>
</event>
<event>
 4    1  0.7478314E+004  0.2173520E+02  0.7546771E-02  0.1712872E+00
         21   -1    0    0  503  502  0.00000000000E+00  0.00000000000E+00  0.32205740920E+03  0.32205740920E+03  0.00000000000E+00 0. -1.
         21   -1    0    0  501  503 -0.00000000000E+00 -0.00000000000E+00 -0.19227364634E+01  0.19227364634E+01  0.00000000000E+00 0. -1.
          2    1    1    2  501    0  0.83910182338E+01 -0.20050175566E+02  0.81191527139E+02  0.84050477729E+02  0.00000000000E+00 0.  1.
         -2    1    1    2    0  502 -0.83910182338E+01  0.20050175566E+02  0.23894314560E+03  0.23992966793E+03  0.00000000000E+00 0. -1.
<mgrwt>
<rscale>  2 0.21735196E+02</rscale>
<asrwt>0</asrwt>
<pdfrwt beam="1">  1       21 0.49547251E-01 0.21735196E+02</pdfrwt>
<pdfrwt beam="2">  1       21 0.29580587E-03 0.21735196E+02</pdfrwt>
<totfact> 0.69670928E+07</totfact>
</mgrwt>
</event>
<event>
 4    1  0.7478314E+004  0.2619230E+02  0.7546771E-02  0.1644444E+00
         21   -1    0    0  501  502  0.00000000000E+00  0.00000000000E+00  0.24493095246E+02  0.24493095246E+02  0.00000000000E+00 0. -1.
         21   -1    0    0  502  503 -0.00000000000E+00 -0.00000000000E+00 -0.29325304727E+02  0.29325304727E+02  0.00000000000E+00 0. -1.
          4    1    1    2  501    0 -0.21772119574E+02 -0.14560612590E+02 -0.81163504585E+01  0.27421009728E+02  0.00000000000E+00 0.  1.
         -4    1    1    2    0  503  0.21772119574E+02  0.14560612590E+02  0.32841409776E+01  0.26397390244E+02  0.00000000000E+00 0. -1.
<mgrwt>
<rscale>  2 0.26192301E+02</rscale>
<asrwt>0</asrwt>
<pdfrwt beam="1">  1       21 0.37681685E-02 0.26192301E+02</pdfrwt>
<pdfrwt beam="2">  1       21 0.45115853E-02 0.26192301E+02</pdfrwt>
<totfact> 0.97888427E+07</totfact>
</mgrwt>
</event>
<event>
 4    1  0.7478314E+004  0.2500897E+02  0.7546771E-02  0.1660873E+00
         21   -1    0    0  503  502  0.00000000000E+00  0.00000000000E+00  0.51087017435E+03  0.51087017435E+03  0.00000000000E+00 0.  1.
         21   -1    0    0  501  503 -0.00000000000E+00 -0.00000000000E+00 -0.12602043119E+01  0.12602043119E+01  0.00000000000E+00 0.  1.
          3    1    1    2  501    0  0.13840172294E+02 -0.20830224959E+02  0.21157169078E+03  0.21304466428E+03  0.00000000000E+00 0. -1.
         -3    1    1    2    0  502 -0.13840172294E+02  0.20830224959E+02  0.29803827926E+03  0.29908571438E+03  0.00000000000E+00 0.  1.
<mgrwt>
<rscale>  2 0.25008971E+02</rscale>
<asrwt>0</asrwt>
<pdfrwt beam="1">  1       21 0.78595246E-01 0.25008971E+02</pdfrwt>
<pdfrwt beam="2">  1       21 0.19387799E-03 0.25008971E+02</pdfrwt>
<totfact> 0.52460943E+07</totfact>
</mgrwt>
</event>
<event>
 4    1  0.7478314E+004  0.3004811E+02  0.7546771E-02  0.1597558E+00
         21   -1    0    0  503  502  0.00000000000E+00  0.00000000000E+00  0.60053428372E+02  0.60053428372E+02  0.00000000000E+00 0. -1.
         21   -1    0    0  501  503 -0.00000000000E+00 -0.00000000000E+00 -0.15064439447E+02  0.15064439447E+02  0.00000000000E+00 0. -1.
          4    1    1    2  501    0 -0.21904057906E+02  0.20569416237E+02  0.24161720938E+02  0.38557455774E+02  0.00000000000E+00 0.  1.
         -4    1    1    2    0  502  0.21904057906E+02 -0.20569416237E+02  0.20827267986E+02  0.36560412044E+02  0.00000000000E+00 0. -1.
<mgrwt>
<rscale>  2 0.30048105E+02</rscale>
<asrwt>0</asrwt>
<pdfrwt beam="1">  1       21 0.92389889E-02 0.30048105E+02</pdfrwt>
<pdfrwt beam="2">  1       21 0.23176061E-02 0.30048105E+02</pdfrwt>
<totfact> 0.67687807E+07</totfact>
</mgrwt>
</event>
<event>
 4    1  0.7478314E+004  0.3141324E+02  0.7546771E-02  0.1582973E+00
         21   -1    0    0  501  502  0.00000000000E+00  0.00000000000E+00  0.14237945661E+03  0.14237945661E+03  0.00000000000E+00 0. -1.
         21   -1    0    0  502  503 -0.00000000000E+00 -0.00000000000E+00 -0.73228448712E+01  0.73228448712E+01  0.00000000000E+00 0. -1.
          2    1    1    2  501    0  0.22350458932E+02 -0.22073714835E+02  0.84849256234E+02  0.90477556247E+02  0.00000000000E+00 0. -1.
         -2    1    1    2    0  503 -0.22350458932E+02  0.22073714835E+02  0.50207355501E+02  0.59224745229E+02  0.00000000000E+00 0.  1.
<mgrwt>
<rscale>  2 0.31413244E+02</rscale>
<asrwt>0</asrwt>
<pdfrwt beam="1">  1       21 0.21904530E-01 0.31413244E+02</pdfrwt>
<pdfrwt beam="2">  1       21 0.11265916E-02 0.31413244E+02</pdfrwt>
<totfact> 0.47082287E+07</totfact>
</mgrwt>
</event>
<event>
 4    1  0.7478314E+004  0.2685708E+02  0.7546771E-02  0.1635677E+00
         21   -1    0    0  501  502  0.00000000000E+00  0.00000000000E+00  0.55315660882E+01  0.55315660882E+01  0.00000000000E+00 0. -1.
         21   -1    0    0  502  503 -0.00000000000E+00 -0.00000000000E+00 -0.18207872165E+03  0.18207872165E+03  0.00000000000E+00 0. -1.
          3    1    1    2  501    0  0.65234139600E+01  0.26052784343E+02 -0.38297363396E+02  0.46775961186E+02  0.00000000000E+00 0. -1.
         -3    1    1    2    0  503 -0.65234139600E+01 -0.26052784343E+02 -0.13824979216E+03  0.14083432655E+03  0.00000000000E+00 0.  1.
<mgrwt>
<rscale>  2 0.26857075E+02</rscale>
<asrwt>0</asrwt>
<pdfrwt beam="1">  1       21 0.85101032E-03 0.26857075E+02</pdfrwt>
<pdfrwt beam="2">  1       21 0.28012106E-01 0.26857075E+02</pdfrwt>
<totfact> 0.44718516E+07</totfact>
</mgrwt>
</event>
<event>
 4    1  0.7478314E+004  0.2581025E+02  0.7546771E-02  0.1649629E+00
         21   -1    0    0  503  502  0.00000000000E+00  0.00000000000E+00  0.43723101065E+01  0.43723101065E+01  0.00000000000E+00 0.  1.
         21   -1    0    0  501  503 -0.00000000000E+00 -0.00000000000E+00 -0.16473232621E+03  0.16473232621E+03  0.00000000000E+00 0.  1.
          4    1    1    2  501    0 -0.25748031380E+02  0.17910675242E+01 -0.57008930583E+02  0.62579447178E+02  0.00000000000E+00 0. -1.
         -4    1    1    2    0  502  0.25748031380E+02 -0.17910675242E+01 -0.10335108552E+03  0.10652518914E+03  0.00000000000E+00 0.  1.
<mgrwt>
<rscale>  2 0.25810251E+02</rscale>
<asrwt>0</asrwt>
<pdfrwt beam="1">  1       21 0.67266315E-03 0.25810251E+02</pdfrwt>
<pdfrwt beam="2">  1       21 0.25343433E-01 0.25810251E+02</pdfrwt>
<totfact> 0.75498477E+07</totfact>
</mgrwt>
</event>
<event>
 4    1  0.7478314E+004  0.2287162E+02  0.7546771E-02  0.1693600E+00
         21   -1    0    0  503  502  0.00000000000E+00  0.00000000000E+00  0.71798588466E+00  0.71798588466E+00  0.00000000000E+00 0. -1.
         21   -1    0    0  501  503 -0.00000000000E+00 -0.00000000000E+00 -0.80211227971E+03  0.80211227971E+03  0.00000000000E+00 0. -1.
          3    1    1    2  501    0 -0.20814884701E+02 -0.94790062535E+01 -0.52223505711E+03  0.52273565581E+03  0.00000000000E+00 0. -1.
         -3    1    1    2    0  502  0.20814884701E+02  0.94790062535E+01 -0.27915923672E+03  0.28009460978E+03  0.00000000000E+00 0.  1.
<mgrwt>
<rscale>  2 0.22871620E+02</rscale>
<asrwt>0</asrwt>
<pdfrwt beam="1">  1       21 0.11045874E-03 0.22871620E+02</pdfrwt>
<pdfrwt beam="2">  1       21 0.12340259E+00 0.22871620E+02</pdfrwt>
<totfact> 0.43092390E+07</totfact>
</mgrwt>
</event>
<event>
 4    1  0.7478314E+004  0.2107021E+02  0.7546771E-02  0.1724847E+00
         21   -1    0    0  503  502  0.00000000000E+00  0.00000000000E+00  0.62449018643E+00  0.62449018643E+00  0.00000000000E+00 0. -1.
         21   -1    0    0  501  503 -0.00000000000E+00 -0.00000000000E+00 -0.73326035411E+03  0.73326035411E+03  0.00000000000E+00 0. -1.
          2    1    1    2  501    0  0.21038500030E+02 -0.11555775274E+01 -0.43038716643E+03  0.43090261878E+03  0.00000000000E+00 0. -1.
         -2    1    1    2    0  502 -0.21038500030E+02  0.11555775274E+01 -0.30224869749E+03  0.30298222552E+03  0.00000000000E+00 0.  1.
<mgrwt>
<rscale>  2 0.21070212E+02</rscale>
<asrwt>0</asrwt>
<pdfrwt beam="1">  1       21 0.96075351E-04 0.21070212E+02</pdfrwt>
<pdfrwt beam="2">  1       21 0.11280936E+00 0.21070212E+02</pdfrwt>
<totfact> 0.63167800E+07</totfact>
</mgrwt>
</event>
<event>
 4    1  0.7478314E+004  0.4050352E+02  0.7546771E-02  0.1504538E+00
         21   -1    0    0  501  502  0.00000000000E+00  0.00000000000E+00  0.32225583013E+02  0.32225583013E+02  0.00000000000E+00 0.  1.
         21   -1    0    0  502  503 -0.00000000000E+00 -0.00000000000E+00 -0.52656929293E+02  0.52656929293E+02  0.00000000000E+00 0.  1.
          1    1    1    2  501    0  0.30156385892E+02  0.27039373516E+02 -0.24805985683E+01  0.40579412261E+02  0.00000000000E+00 0.  1.
         -1    1    1    2    0  503 -0.30156385892E+02 -0.27039373516E+02 -0.17950747711E+02  0.44303100045E+02  0.00000000000E+00 0. -1.
<mgrwt>
<rscale>  2 0.40503522E+02</rscale>
<asrwt>0</asrwt>
<pdfrwt beam="1">  1       21 0.49577821E-02 0.40503522E+02</pdfrwt>
<pdfrwt beam="2">  1       21 0.81010660E-02 0.40503522E+02</pdfrwt>
<totfact> 0.26702563E+07</totfact>
</mgrwt>
</event>
<event>
 4    1  0.7478314E+004  0.2224781E+02  0.7546771E-02  0.1704001E+00
         21   -1    0    0  501  502  0.00000000000E+00  0.00000000000E+00  0.16870937890E+03  0.16870937890E+03  0.00000000000E+00 0.  1.
         21   -1    0    0  502  503 -0.00000000000E+00 -0.00000000000E+00 -0.29896976891E+01  0.29896976891E+01  0.00000000000E+00 0.  1.
          2    1    1    2  501    0 -0.55887372258E+01  0.21534416277E+02  0.71124525704E+02  0.74522904028E+02  0.00000000000E+00 0. -1.
         -2    1    1    2    0  503  0.55887372258E+01 -0.21534416277E+02  0.94595155504E+02  0.97176172558E+02  0.00000000000E+00 0.  1.
<mgrwt>
<rscale>  2 0.22247810E+02</rscale>
<asrwt>0</asrwt>
<pdfrwt beam="1">  1       21 0.25955282E-01 0.22247810E+02</pdfrwt>
<pdfrwt beam="2">  1       21 0.45995362E-03 0.22247810E+02</pdfrwt>
<totfact> 0.12214777E+08</totfact>
</mgrwt>
</event>
<event>
 4    1  0.7478314E+004  0.5176644E+02  0.7546771E-02  0.1436040E+00
         21   -1    0    0  503  502  0.00000000000E+00  0.00000000000E+00  0.22958878134E+02  0.22958878134E+02  0.00000000000E+00 0.  1.
         21   -1    0    0  501  503 -0.00000000000E+00 -0.00000000000E+00 -0.29733499451E+03  0.29733499451E+03  0.00000000000E+00 0.  1.
          2    1    1    2  501    0  0.50419541004E+02  0.11731745411E+02 -0.26200465257E+03  0.26706965746E+03  0.00000000000E+00 0.  1.
         -2    1    1    2    0  502 -0.50419541004E+02 -0.11731745411E+02 -0.12371463803E+02  0.53224215185E+02  0.00000000000E+00 0. -1.
<mgrwt>
<rscale>  2 0.51766437E+02</rscale>
<asrwt>0</asrwt>
<pdfrwt beam="1">  1       21 0.35321353E-02 0.51766437E+02</pdfrwt>
<pdfrwt beam="2">  1       21 0.45743843E-01 0.51766437E+02</pdfrwt>
<totfact> 0.21156148E+06</totfact>
</mgrwt>
</event>
<event>
 4    1  0.7478314E+004  0.2111674E+02  0.7546771E-02  0.1723991E+00
         21   -1    0    0  501  502  0.00000000000E+00  0.00000000000E+00  0.20665685642E+02  0.20665685642E+02  0.00000000000E+00 0. -1.
         21   -1    0    0  502  503 -0.00000000000E+00 -0.00000000000E+00 -0.21699660200E+02  0.21699660200E+02  0.00000000000E+00 0. -1.
          1    1    1    2  501    0 -0.20834491382E+02  0.34410517238E+01  0.10714052904E+01  0.21143906390E+02  0.00000000000E+00 0. -1.
         -1    1    1    2    0  503  0.20834491382E+02 -0.34410517238E+01 -0.21053798492E+01  0.21221439452E+02  0.00000000000E+00 0.  1.
<mgrwt>
<rscale>  2 0.21116744E+02</rscale>
<asrwt>0</asrwt>
<pdfrwt beam="1">  1       21 0.31793363E-02 0.21116744E+02</pdfrwt>
<pdfrwt beam="2">  1       21 0.33384093E-02 0.21116744E+02</pdfrwt>
<totfact> 0.19270686E+08</totfact>
</mgrwt>
</event>
<event>
 4    1  0.7478314E+004  0.2113700E+02  0.7546771E-02  0.1723619E+00
         21   -1    0    0  503  502  0.00000000000E+00  0.00000000000E+00  0.20863501364E+01  0.20863501364E+01  0.00000000000E+00 0. -1.
         21   -1    0    0  501  503 -0.00000000000E+00 -0.00000000000E+00 -0.21595229097E+03  0.21595229097E+03  0.00000000000E+00 0. -1.
          4    1    1    2  501    0  0.55153096388E+01  0.20404756327E+02 -0.11691780105E+03  0.11881306714E+03  0.00000000000E+00 0.  1.
         -4    1    1    2    0  502 -0.55153096388E+01 -0.20404756327E+02 -0.96948139783E+02  0.99225573965E+02  0.00000000000E+00 0. -1.
<mgrwt>
<rscale>  2 0.21136999E+02</rscale>
<asrwt>0</asrwt>
<pdfrwt beam="1">  1       21 0.32097701E-03 0.21136999E+02</pdfrwt>
<pdfrwt beam="2">  1       21 0.33223422E-01 0.21136999E+02</pdfrwt>
<totfact> 0.13032969E+08</totfact>
</mgrwt>
</event>
<event>
 4    1  0.7478314E+004  0.2411565E+02  0.7546771E-02  0.1674039E+00
         21   -1    0    0  503  502  0.00000000000E+00  0.00000000000E+00  0.24820128242E+03  0.24820128242E+03  0.00000000000E+00 0. -1.
         21   -1    0    0  501  503 -0.00000000000E+00 -0.00000000000E+00 -0.30232837304E+01  0.30232837304E+01  0.00000000000E+00 0. -1.
          4    1    1    2  501    0  0.23367448992E+02 -0.59604605004E+01  0.63009040740E+02  0.67466317350E+02  0.00000000000E+00 0.  1.
         -4    1    1    2    0  502 -0.23367448992E+02  0.59604605004E+01  0.18216895795E+03  0.18375824880E+03  0.00000000000E+00 0. -1.
<mgrwt>
<rscale>  2 0.24115654E+02</rscale>
<asrwt>0</asrwt>
<pdfrwt beam="1">  1       21 0.38184797E-01 0.24115654E+02</pdfrwt>
<pdfrwt beam="2">  1       21 0.46512077E-03 0.24115654E+02</pdfrwt>
<totfact> 0.60543155E+07</totfact>
</mgrwt>
</event>
<event>
 4    1  0.7478314E+004  0.3064322E+02  0.7546771E-02  0.1591086E+00
         21   -1    0    0  503  502  0.00000000000E+00  0.00000000000E+00  0.15749355790E+02  0.15749355790E+02  0.00000000000E+00 0.  1.
         21   -1    0    0  501  503 -0.00000000000E+00 -0.00000000000E+00 -0.59631630303E+02  0.59631630303E+02  0.00000000000E+00 0.  1.
          4    1    1    2  501    0 -0.30430177268E+02 -0.36070939704E+01 -0.22422122652E+02  0.37970493804E+02  0.00000000000E+00 0. -1.
         -4    1    1    2    0  502  0.30430177268E+02  0.36070939704E+01 -0.21460151861E+02  0.37410492290E+02  0.00000000000E+00 0.  1.
<mgrwt>
<rscale>  2 0.30643218E+02</rscale>
<asrwt>0</asrwt>
<pdfrwt beam="1">  1       21 0.24229778E-02 0.30643218E+02</pdfrwt>
<pdfrwt beam="2">  1       21 0.91740970E-02 0.30643218E+02</pdfrwt>
<totfact> 0.64181631E+07</totfact>
</mgrwt>
</event>
<event>
 4    1  0.7478314E+004  0.6499995E+02  0.7546771E-02  0.1377972E+00
         21   -1    0    0  503  502  0.00000000000E+00  0.00000000000E+00  0.16280126822E+03  0.16280126822E+03  0.00000000000E+00 0.  1.
         21   -1    0    0  501  503 -0.00000000000E+00 -0.00000000000E+00 -0.37561225980E+02  0.37561225980E+02  0.00000000000E+00 0.  1.
          4    1    1    2  501    0  0.91372640271E+01  0.64354514414E+02  0.11831564899E+03  0.13499476255E+03  0.00000000000E+00 0. -1.
         -4    1    1    2    0  502 -0.91372640271E+01 -0.64354514414E+02  0.69243932486E+01  0.65367731651E+02  0.00000000000E+00 0.  1.
<mgrwt>
<rscale>  2 0.64999947E+02</rscale>
<asrwt>0</asrwt>
<pdfrwt beam="1">  1       21 0.25046349E-01 0.64999947E+02</pdfrwt>
<pdfrwt beam="2">  1       21 0.57786503E-02 0.64999947E+02</pdfrwt>
<totfact> 0.30358504E+06</totfact>
</mgrwt>
</event>
<event>
 4    1  0.7478314E+004  0.2154011E+02  0.7546771E-02  0.1716329E+00
         21   -1    0    0  501  502  0.00000000000E+00  0.00000000000E+00  0.12658122763E+03  0.12658122763E+03  0.00000000000E+00 0.  1.
         21   -1    0    0  502  503 -0.00000000000E+00 -0.00000000000E+00 -0.52934215912E+01  0.52934215912E+01  0.00000000000E+00 0.  1.
          4    1    1    2  501    0  0.20535128060E+02  0.65026780467E+01  0.24077066424E+02  0.32306058779E+02  0.00000000000E+00 0. -1.
         -4    1    1    2    0  503 -0.20535128060E+02 -0.65026780467E+01  0.97210739613E+02  0.99568590440E+02  0.00000000000E+00 0.  1.
<mgrwt>
<rscale>  2 0.21540109E+02</rscale>
<asrwt>0</asrwt>
<pdfrwt beam="1">  1       21 0.19474033E-01 0.21540109E+02</pdfrwt>
<pdfrwt beam="2">  1       21 0.81437265E-03 0.21540109E+02</pdfrwt>
<totfact> 0.86192321E+07</totfact>
</mgrwt>
</event>
<event>
 4    1  0.7478314E+004  0.3126788E+02  0.7546771E-02  0.1584482E+00
         21   -1    0    0  503  502  0.00000000000E+00  0.00000000000E+00  0.21061883527E+02  0.21061883527E+02  0.00000000000E+00 0. -1.
         21   -1    0    0  501  503 -0.00000000000E+00 -0.00000000000E+00 -0.47769832982E+02  0.47769832982E+02  0.00000000000E+00 0. -1.
          1    1    1    2  501    0  0.17436602436E+02  0.25954671491E+02 -0.75674522221E+01  0.32170582989E+02  0.00000000000E+00 0.  1.
         -1    1    1    2    0  502 -0.17436602436E+02 -0.25954671491E+02 -0.19140497232E+02  0.36661133520E+02  0.00000000000E+00 0. -1.
<mgrwt>
<rscale>  2 0.31267876E+02</rscale>
<asrwt>0</asrwt>
<pdfrwt beam="1">  1       21 0.32402898E-02 0.31267876E+02</pdfrwt>
<pdfrwt beam="2">  1       21 0.73492050E-02 0.31267876E+02</pdfrwt>
<totfact> 0.58940040E+07</totfact>
</mgrwt>
</event>
<event>
 4    1  0.7478314E+004  0.3325602E+02  0.7546771E-02  0.1564656E+00
         21   -1    0    0  501  502  0.00000000000E+00  0.00000000000E+00  0.10777409216E+02  0.10777409216E+02  0.00000000000E+00 0.  1.
         21   -1    0    0  502  503 -0.00000000000E+00 -0.00000000000E+00 -0.12529332341E+03  0.12529332341E+03  0.00000000000E+00 0.  1.
          4    1    1    2  501    0 -0.14804673644E+02  0.29778931398E+02 -0.86200810367E+02  0.92393413320E+02  0.00000000000E+00 0. -1.
         -4    1    1    2    0  503  0.14804673644E+02 -0.29778931398E+02 -0.28315103825E+02  0.43677319303E+02  0.00000000000E+00 0.  1.
<mgrwt>
<rscale>  2 0.33256024E+02</rscale>
<asrwt>0</asrwt>
<pdfrwt beam="1">  1       21 0.16580630E-02 0.33256024E+02</pdfrwt>
<pdfrwt beam="2">  1       21 0.19275895E-01 0.33256024E+02</pdfrwt>
<totfact> 0.33027017E+07</totfact>
</mgrwt>
</event>
<event>
 4    1  0.7478314E+004  0.2047789E+02  0.7546771E-02  0.1735988E+00
         21   -1    0    0  501  502  0.00000000000E+00  0.00000000000E+00  0.92587133622E+01  0.92587133622E+01  0.00000000000E+00 0.  1.
         21   -1    0    0  502  503 -0.00000000000E+00 -0.00000000000E+00 -0.46573168680E+02  0.46573168680E+02  0.00000000000E+00 0.  1.
          2    1    1    2  501    0 -0.15300160020E+02  0.13610630797E+02 -0.23287585924E+02  0.31010576027E+02  0.00000000000E+00 0.  1.
         -2    1    1    2    0  503  0.15300160020E+02 -0.13610630797E+02 -0.14026869394E+02  0.24821306015E+02  0.00000000000E+00 0. -1.
<mgrwt>
<rscale>  2 0.20477895E+02</rscale>
<asrwt>0</asrwt>
<pdfrwt beam="1">  1       21 0.14244175E-02 0.20477895E+02</pdfrwt>
<pdfrwt beam="2">  1       21 0.71651028E-02 0.20477895E+02</pdfrwt>
<totfact> 0.19469095E+08</totfact>
</mgrwt>
</event>
<event>
 4    1  0.7478314E+004  0.2230385E+02  0.7546771E-02  0.1703050E+00
         21   -1    0    0  503  502  0.00000000000E+00  0.00000000000E+00  0.65342990179E+02  0.65342990179E+02  0.00000000000E+00 0.  1.
         21   -1    0    0  501  503 -0.00000000000E+00 -0.00000000000E+00 -0.77917206015E+01  0.77917206015E+01  0.00000000000E+00 0.  1.
          3    1    1    2  501    0  0.43043964143E+01 -0.21884554050E+02  0.23238760424E+02  0.32210270419E+02  0.00000000000E+00 0. -1.
         -3    1    1    2    0  502 -0.43043964143E+01  0.21884554050E+02  0.34312509154E+02  0.40924440361E+02  0.00000000000E+00 0.  1.
<mgrwt>
<rscale>  2 0.22303846E+02</rscale>
<asrwt>0</asrwt>
<pdfrwt beam="1">  1       21 0.10052767E-01 0.22303846E+02</pdfrwt>
<pdfrwt beam="2">  1       21 0.11987263E-02 0.22303846E+02</pdfrwt>
<totfact> 0.14923121E+08</totfact>
</mgrwt>
</event>
<event>
 4    1  0.7478314E+004  0.2351732E+02  0.7546771E-02  0.1683259E+00
         21   -1    0    0  501  502  0.00000000000E+00  0.00000000000E+00  0.36342572488E+01  0.36342572488E+01  0.00000000000E+00 0.  1.
         21   -1    0    0  502  503 -0.00000000000E+00 -0.00000000000E+00 -0.16034395535E+03  0.16034395535E+03  0.00000000000E+00 0.  1.
          3    1    1    2  501    0  0.23052210443E+02  0.46540479252E+01 -0.59855518548E+02  0.64309778953E+02  0.00000000000E+00 0. -1.
         -3    1    1    2    0  503 -0.23052210443E+02 -0.46540479252E+01 -0.96854179555E+02  0.99668433647E+02  0.00000000000E+00 0.  1.
<mgrwt>
<rscale>  2 0.23517325E+02</rscale>
<asrwt>0</asrwt>
<pdfrwt beam="1">  1       21 0.55911667E-03 0.23517325E+02</pdfrwt>
<pdfrwt beam="2">  1       21 0.24668293E-01 0.23517325E+02</pdfrwt>
<totfact> 0.10183403E+08</totfact>
</mgrwt>
</event>
<event>
 4    1  0.7478314E+004  0.2067689E+02  0.7546771E-02  0.1732193E+00
         21   -1    0    0  501  502  0.00000000000E+00  0.00000000000E+00  0.15661657240E+04  0.15661657240E+04  0.00000000000E+00 0. -1.
         21   -1    0    0  502  503 -0.00000000000E+00 -0.00000000000E+00 -0.29339654979E+00  0.29339654979E+00  0.00000000000E+00 0. -1.
          4    1    1    2  501    0 -0.18388823821E+02 -0.94543625571E+01  0.57633161191E+03  0.57670240219E+03  0.00000000000E+00 0. -1.
         -4    1    1    2    0  503  0.18388823821E+02  0.94543625571E+01  0.98954071555E+03  0.98975671836E+03  0.00000000000E+00 0.  1.
<mgrwt>
<rscale>  2 0.20676891E+02</rscale>
<asrwt>0</asrwt>
<pdfrwt beam="1">  1       21 0.24094188E+00 0.20676891E+02</pdfrwt>
<pdfrwt beam="2">  1       21 0.45139185E-04 0.20676891E+02</pdfrwt>
<totfact> 0.28711616E+07</totfact>
</mgrwt>
</event>
<event>
 4    1  0.7478314E+004  0.2631174E+02  0.7546771E-02  0.1642846E+00
         21   -1    0    0  503  502  0.00000000000E+00  0.00000000000E+00  0.84997320360E+01  0.84997320360E+01  0.00000000000E+00 0.  1.
         21   -1    0    0  501  503 -0.00000000000E+00 -0.00000000000E+00 -0.11695473351E+03  0.11695473351E+03  0.00000000000E+00 0.  1.
          2    1    1    2  501    0 -0.24133389730E+02  0.10482720158E+02 -0.88788551645E+02  0.92605155499E+02  0.00000000000E+00 0.  1.
         -2    1    1    2    0  502  0.24133389730E+02 -0.10482720158E+02 -0.19666449831E+02  0.32849310050E+02  0.00000000000E+00 0. -1.
<mgrwt>
<rscale>  2 0.26311745E+02</rscale>
<asrwt>0</asrwt>
<pdfrwt beam="1">  1       21 0.13076513E-02 0.26311745E+02</pdfrwt>
<pdfrwt beam="2">  1       21 0.17993034E-01 0.26311745E+02</pdfrwt>
<totfact> 0.51022871E+07</totfact>
</mgrwt>
</event>
<event>
 4    1  0.7478314E+004  0.4221175E+02  0.7546771E-02  0.1492539E+00
         21   -1    0    0  501  502  0.00000000000E+00  0.00000000000E+00  0.76295846935E+01  0.76295846935E+01  0.00000000000E+00 0.  1.
         21   -1    0    0  502  503 -0.00000000000E+00 -0.00000000000E+00 -0.36562732490E+03  0.36562732490E+03  0.00000000000E+00 0.  1.
          2    1    1    2  501    0 -0.25376248301E+02 -0.33732443299E+02 -0.66826699452E+02  0.79042010782E+02  0.00000000000E+00 0.  1.
         -2    1    1    2    0  503  0.25376248301E+02  0.33732443299E+02 -0.29117104076E+03  0.29421489881E+03  0.00000000000E+00 0. -1.
<mgrwt>
<rscale>  2 0.42211748E+02</rscale>
<asrwt>0</asrwt>
<pdfrwt beam="1">  1       21 0.11737824E-02 0.42211748E+02</pdfrwt>
<pdfrwt beam="2">  1       21 0.56250352E-01 0.42211748E+02</pdfrwt>
<totfact> 0.77716706E+06</totfact>
</mgrwt>
</event>
<event>
 4    1  0.7478314E+004  0.2905862E+02  0.7546771E-02  0.1608734E+00
         21   -1    0    0  501  502  0.00000000000E+00  0.00000000000E+00  0.16575724107E+03  0.16575724107E+03  0.00000000000E+00 0. -1.
         21   -1    0    0  502  503 -0.00000000000E+00 -0.00000000000E+00 -0.59630899013E+01  0.59630899013E+01  0.00000000000E+00 0. -1.
          1    1    1    2  501    0  0.16845835486E+02  0.23677439234E+02  0.11267143783E+03  0.11635830956E+03  0.00000000000E+00 0. -1.
         -1    1    1    2    0  503 -0.16845835486E+02 -0.23677439234E+02  0.47122713338E+02  0.55362021407E+02  0.00000000000E+00 0.  1.
<mgrwt>
<rscale>  2 0.29058618E+02</rscale>
<asrwt>0</asrwt>
<pdfrwt beam="1">  1       21 0.25501111E-01 0.29058618E+02</pdfrwt>
<pdfrwt beam="2">  1       21 0.91739857E-03 0.29058618E+02</pdfrwt>
<totfact> 0.48162845E+07</totfact>
</mgrwt>
</event>
<event>
 4    1  0.7478314E+004  0.2185658E+02  0.7546771E-02  0.1710744E+00
         21   -1    0    0  501  502  0.00000000000E+00  0.00000000000E+00  0.12757368986E+01  0.12757368986E+01  0.00000000000E+00 0.  1.
         21   -1    0    0  502  503 -0.00000000000E+00 -0.00000000000E+00 -0.40016288146E+03  0.40016288146E+03  0.00000000000E+00 0.  1.
          5    1    1    2  501    0  0.21075538472E+02 -0.57906478131E+01 -0.14857163057E+03  0.15017070065E+03  0.00000000000E+00 0.  1.
         -5    1    1    2    0  503 -0.21075538472E+02  0.57906478131E+01 -0.25031551399E+03  0.25126791771E+03  0.00000000000E+00 0. -1.
<mgrwt>
<rscale>  2 0.21856576E+02</rscale>
<asrwt>0</asrwt>
<pdfrwt beam="1">  1       21 0.19626715E-03 0.21856576E+02</pdfrwt>
<pdfrwt beam="2">  1       21 0.61563542E-01 0.21856576E+02</pdfrwt>
<totfact> 0.82386448E+07</totfact>
</mgrwt>
</event>
<event>
 4    1  0.7478314E+004  0.3835185E+02  0.7546771E-02  0.1520703E+00
         21   -1    0    0  501  502  0.00000000000E+00  0.00000000000E+00  0.40230090123E+02  0.40230090123E+02  0.00000000000E+00 0.  1.
         21   -1    0    0  502  503 -0.00000000000E+00 -0.00000000000E+00 -0.37183722804E+02  0.37183722804E+02  0.00000000000E+00 0.  1.
          4    1    1    2  501    0 -0.42110855258E+01 -0.38119960207E+02 -0.34846849403E+01  0.38509838180E+02  0.00000000000E+00 0.  1.
         -4    1    1    2    0  503  0.42110855258E+01  0.38119960207E+02  0.65310522595E+01  0.38903974747E+02  0.00000000000E+00 0. -1.
<mgrwt>
<rscale>  2 0.38351853E+02</rscale>
<asrwt>0</asrwt>
<pdfrwt beam="1">  1       21 0.61892446E-02 0.38351853E+02</pdfrwt>
<pdfrwt beam="2">  1       21 0.57205727E-02 0.38351853E+02</pdfrwt>
<totfact> 0.32694927E+07</totfact>
</mgrwt>
</event>
<event>
 4    1  0.7478314E+004  0.2018357E+02  0.7546771E-02  0.1741702E+00
         21   -1    0    0  501  502  0.00000000000E+00  0.00000000000E+00  0.16895636615E+02  0.16895636615E+02  0.00000000000E+00 0.  1.
         21   -1    0    0  502  503 -0.00000000000E+00 -0.00000000000E+00 -0.44988891656E+02  0.44988891656E+02  0.00000000000E+00 0.  1.
          5    1    1    2  501    0 -0.19187597871E+02  0.62619890465E+01 -0.35125104990E+02  0.40511102421E+02  0.00000000000E+00 0.  1.
         -5    1    1    2    0  503  0.19187597871E+02 -0.62619890465E+01  0.70318499487E+01  0.21373425850E+02  0.00000000000E+00 0. -1.
<mgrwt>
<rscale>  2 0.20183568E+02</rscale>
<asrwt>0</asrwt>
<pdfrwt beam="1">  1       21 0.25993288E-02 0.20183568E+02</pdfrwt>
<pdfrwt beam="2">  1       21 0.69213678E-02 0.20183568E+02</pdfrwt>
<totfact> 0.81875794E+07</totfact>
</mgrwt>
</event>
<event>
 4    1  0.7478314E+004  0.2615365E+02  0.7546771E-02  0.1644964E+00
         21   -1    0    0  501  502  0.00000000000E+00  0.00000000000E+00  0.79639375162E+01  0.79639375162E+01  0.00000000000E+00 0.  1.
         21   -1    0    0  502  503 -0.00000000000E+00 -0.00000000000E+00 -0.11195519785E+03  0.11195519785E+03  0.00000000000E+00 0.  1.
          2    1    1    2  501    0 -0.84873812819E+01 -0.24738182290E+02 -0.80927505958E+02  0.85048659746E+02  0.00000000000E+00 0.  1.
         -2    1    1    2    0  503  0.84873812819E+01  0.24738182290E+02 -0.23063754375E+02  0.34870475619E+02  0.00000000000E+00 0. -1.
<mgrwt>
<rscale>  2 0.26153648E+02</rscale>
<asrwt>0</asrwt>
<pdfrwt beam="1">  1       21 0.12252212E-02 0.26153648E+02</pdfrwt>
<pdfrwt beam="2">  1       21 0.17223876E-01 0.26153648E+02</pdfrwt>
<totfact> 0.60675793E+07</totfact>
</mgrwt>
</event>
<event>
 4    1  0.7478314E+004  0.5205892E+02  0.7546771E-02  0.1434542E+00
         21   -1    0    0  503  502  0.00000000000E+00  0.00000000000E+00  0.21875447632E+04  0.21875447632E+04  0.00000000000E+00 0.  1.
         21   -1    0    0  501  503 -0.00000000000E+00 -0.00000000000E+00 -0.12453147500E+01  0.12453147500E+01  0.00000000000E+00 0.  1.
          1    1    1    2  501    0 -0.31759379039E+02  0.41248921285E+02  0.10145545799E+04  0.10158893282E+04  0.00000000000E+00 0.  1.
         -1    1    1    2    0  502  0.31759379039E+02 -0.41248921285E+02  0.11717448685E+04  0.11729007497E+04  0.00000000000E+00 0. -1.
<mgrwt>
<rscale>  2 0.52058925E+02</rscale>
<asrwt>0</asrwt>
<pdfrwt beam="1">  1       21 0.33654227E+00 0.52058925E+02</pdfrwt>
<pdfrwt beam="2">  1       21 0.19158863E-03 0.52058925E+02</pdfrwt>
<totfact> 0.11832038E+06</totfact>
</mgrwt>
</event>
<event>
 4    1  0.7478314E+004  0.2492681E+02  0.7546771E-02  0.1662055E+00
         21   -1    0    0  503  502  0.00000000000E+00  0.00000000000E+00  0.83138323404E+02  0.83138323404E+02  0.00000000000E+00 0. -1.
         21   -1    0    0  501  503 -0.00000000000E+00 -0.00000000000E+00 -0.86646958788E+01  0.86646958788E+01  0.00000000000E+00 0. -1.
          4    1    1    2  501    0 -0.20378843607E+02 -0.14354392357E+02  0.54255126141E+02  0.59707324168E+02  0.00000000000E+00 0. -1.
         -4    1    1    2    0  502  0.20378843607E+02  0.14354392357E+02  0.20218501384E+02  0.32095695115E+02  0.00000000000E+00 0.  1.
<mgrwt>
<rscale>  2 0.24926810E+02</rscale>
<asrwt>0</asrwt>
<pdfrwt beam="1">  1       21 0.12790511E-01 0.24926810E+02</pdfrwt>
<pdfrwt beam="2">  1       21 0.13330302E-02 0.24926810E+02</pdfrwt>
<totfact> 0.87723521E+07</totfact>
</mgrwt>
</event>
<event>
 4    1  0.7478314E+004  0.2713928E+02  0.7546771E-02  0.1632049E+00
         21   -1    0    0  503  502  0.00000000000E+00  0.00000000000E+00  0.58493718107E+02  0.58493718107E+02  0.00000000000E+00 0.  1.
         21   -1    0    0  501  503 -0.00000000000E+00 -0.00000000000E+00 -0.14434946725E+02  0.14434946725E+02  0.00000000000E+00 0.  1.
          4    1    1    2  501    0  0.25562731203E+02  0.91152175508E+01  0.89994520495E+01  0.28592491230E+02  0.00000000000E+00 0. -1.
         -4    1    1    2    0  502 -0.25562731203E+02 -0.91152175508E+01  0.35059319332E+02  0.44336173601E+02  0.00000000000E+00 0.  1.
<mgrwt>
<rscale>  2 0.27139278E+02</rscale>
<asrwt>0</asrwt>
<pdfrwt beam="1">  1       21 0.89990335E-02 0.27139278E+02</pdfrwt>
<pdfrwt beam="2">  1       21 0.22207611E-02 0.27139278E+02</pdfrwt>
<totfact> 0.73714505E+07</totfact>
</mgrwt>
</event>
<event>
 4    1  0.7478314E+004  0.2035295E+02  0.7546771E-02  0.1738399E+00
         21   -1    0    0  501  502  0.00000000000E+00  0.00000000000E+00  0.42891966506E+01  0.42891966506E+01  0.00000000000E+00 0.  1.
         21   -1    0    0  502  503 -0.00000000000E+00 -0.00000000000E+00 -0.13704054038E+03  0.13704054038E+03  0.00000000000E+00 0.  1.
          5    1    1    2  501    0 -0.75964962168E+01  0.18882153225E+02 -0.10477335829E+03  0.10673190278E+03  0.00000000000E+00 0.  1.
         -5    1    1    2    0  503  0.75964962168E+01 -0.18882153225E+02 -0.27977985445E+02  0.34597834249E+02  0.00000000000E+00 0. -1.
<mgrwt>
<rscale>  2 0.20352947E+02</rscale>
<asrwt>0</asrwt>
<pdfrwt beam="1">  1       21 0.65987639E-03 0.20352947E+02</pdfrwt>
<pdfrwt beam="2">  1       21 0.21083161E-01 0.20352947E+02</pdfrwt>
<totfact> 0.10096952E+08</totfact>
</mgrwt>
</event>
<event>
 4    1  0.7478314E+004  0.4704558E+02  0.7546771E-02  0.1461961E+00
         21   -1    0    0  501  502  0.00000000000E+00  0.00000000000E+00  0.79636427766E+02  0.79636427766E+02  0.00000000000E+00 0. -1.
         21   -1    0    0  502  503 -0.00000000000E+00 -0.00000000000E+00 -0.28044659802E+02  0.28044659802E+02  0.00000000000E+00 0. -1.
          5    1    1    2  501    0  0.13739979274E+01  0.47025516139E+02  0.30902261014E+02  0.56287092430E+02  0.00000000000E+00 0.  1.
         -5    1    1    2    0  503 -0.13739979274E+01 -0.47025516139E+02  0.20689506950E+02  0.51393995138E+02  0.00000000000E+00 0. -1.
<mgrwt>
<rscale>  2 0.47045585E+02</rscale>
<asrwt>0</asrwt>
<pdfrwt beam="1">  1       21 0.12251758E-01 0.47045585E+02</pdfrwt>
<pdfrwt beam="2">  1       21 0.43145631E-02 0.47045585E+02</pdfrwt>
<totfact> 0.16988048E+07</totfact>
</mgrwt>
</event>
<event>
 4    1  0.7478314E+004  0.2034195E+02  0.7546771E-02  0.1738612E+00
         21   -1    0    0  503  502  0.00000000000E+00  0.00000000000E+00  0.51001040036E+01  0.51001040036E+01  0.00000000000E+00 0. -1.
         21   -1    0    0  501  503 -0.00000000000E+00 -0.00000000000E+00 -0.81153171828E+02  0.81153171828E+02  0.00000000000E+00 0. -1.
          2    1    1    2  501    0 -0.12223135367E+02  0.16260074606E+02 -0.37374696864E+02  0.42551886328E+02  0.00000000000E+00 0. -1.
         -2    1    1    2    0  502  0.12223135367E+02 -0.16260074606E+02 -0.38678370961E+02  0.43701389504E+02  0.00000000000E+00 0.  1.
<mgrwt>
<rscale>  2 0.20341953E+02</rscale>
<asrwt>0</asrwt>
<pdfrwt beam="1">  1       21 0.78463138E-03 0.20341953E+02</pdfrwt>
<pdfrwt beam="2">  1       21 0.12485103E-01 0.20341953E+02</pdfrwt>
<totfact> 0.19084181E+08</totfact>
</mgrwt>
</event>
<event>
 4    1  0.7478314E+004  0.2154837E+02  0.7546771E-02  0.1716182E+00
         21   -1    0    0  501  502  0.00000000000E+00  0.00000000000E+00  0.20126989962E+02  0.20126989962E+02  0.00000000000E+00 0.  1.
         21   -1    0    0  502  503 -0.00000000000E+00 -0.00000000000E+00 -0.35283291376E+02  0.35283291376E+02  0.00000000000E+00 0.  1.
          1    1    1    2  501    0 -0.71525183102E+01  0.20326671282E+02  0.87219403611E+01  0.23246598186E+02  0.00000000000E+00 0.  1.
         -1    1    1    2    0  503  0.71525183102E+01 -0.20326671282E+02 -0.23878241775E+02  0.32163683151E+02  0.00000000000E+00 0. -1.
<mgrwt>
<rscale>  2 0.21548366E+02</rscale>
<asrwt>0</asrwt>
<pdfrwt beam="1">  1       21 0.30964600E-02 0.21548366E+02</pdfrwt>
<pdfrwt beam="2">  1       21 0.54281986E-02 0.21548366E+02</pdfrwt>
<totfact> 0.93919801E+07</totfact>
</mgrwt>
</event>
<event>
 4    1  0.7478314E+004  0.5778955E+02  0.7546771E-02  0.1407349E+00
         21   -1    0    0  503  502  0.00000000000E+00  0.00000000000E+00  0.49502826095E+02  0.49502826095E+02  0.00000000000E+00 0.  1.
         21   -1    0    0  501  503 -0.00000000000E+00 -0.00000000000E+00 -0.72050626629E+02  0.72050626629E+02  0.00000000000E+00 0.  1.
          4    1    1    2  501    0  0.57228342985E+01 -0.57505492170E+02 -0.26609125895E+02  0.63621364674E+02  0.00000000000E+00 0. -1.
         -4    1    1    2    0  502 -0.57228342985E+01  0.57505492170E+02  0.40613253617E+01  0.57932088050E+02  0.00000000000E+00 0.  1.
<mgrwt>
<rscale>  2 0.57789553E+02</rscale>
<asrwt>0</asrwt>
<pdfrwt beam="1">  1       21 0.76158194E-02 0.57789553E+02</pdfrwt>
<pdfrwt beam="2">  1       21 0.11084712E-01 0.57789553E+02</pdfrwt>
<totfact> 0.81030564E+06</totfact>
</mgrwt>
</event>
<event>
 4    1  0.7478314E+004  0.2145349E+02  0.7546771E-02  0.1717879E+00
         21   -1    0    0  503  502  0.00000000000E+00  0.00000000000E+00  0.17364190094E+03  0.17364190094E+03  0.00000000000E+00 0. -1.
         21   -1    0    0  501  503 -0.00000000000E+00 -0.00000000000E+00 -0.27254845509E+01  0.27254845509E+01  0.00000000000E+00 0. -1.
          5    1    1    2  501    0  0.21038787986E+02  0.41977992529E+01  0.70839319295E+02  0.74016628380E+02  0.00000000000E+00 0. -1.
         -5    1    1    2    0  502 -0.21038787986E+02 -0.41977992529E+01  0.10007709709E+03  0.10235075711E+03  0.00000000000E+00 0.  1.
<mgrwt>
<rscale>  2 0.21453487E+02</rscale>
<asrwt>0</asrwt>
<pdfrwt beam="1">  1       21 0.26714130E-01 0.21453487E+02</pdfrwt>
<pdfrwt beam="2">  1       21 0.41930545E-03 0.21453487E+02</pdfrwt>
<totfact> 0.13152031E+08</totfact>
</mgrwt>
</event>
<event>
 4    1  0.7478314E+004  0.2251757E+02  0.7546771E-02  0.1699452E+00
         21   -1    0    0  503  502  0.00000000000E+00  0.00000000000E+00  0.28212181021E+02  0.28212181021E+02  0.00000000000E+00 0. -1.
         21   -1    0    0  501  503 -0.00000000000E+00 -0.00000000000E+00 -0.21091635462E+02  0.21091635462E+02  0.00000000000E+00 0. -1.
          1    1    1    2  501    0  0.12524332991E+02 -0.18713154740E+02 -0.59199451710E+01  0.23282758171E+02  0.00000000000E+00 0.  1.
         -1    1    1    2    0  502 -0.12524332991E+02  0.18713154740E+02  0.13040490730E+02  0.26021058312E+02  0.00000000000E+00 0. -1.
<mgrwt>
<rscale>  2 0.22517573E+02</rscale>
<asrwt>0</asrwt>
<pdfrwt beam="1">  1       21 0.43403356E-02 0.22517573E+02</pdfrwt>
<pdfrwt beam="2">  1       21 0.32448670E-02 0.22517573E+02</pdfrwt>
<totfact> 0.12614164E+08</totfact>
</mgrwt>
</event>
<event>
 4    1  0.7478314E+004  0.2208195E+02  0.7546771E-02  0.1706839E+00
         21   -1    0    0  501  502  0.00000000000E+00  0.00000000000E+00  0.39424183027E+03  0.39424183027E+03  0.00000000000E+00 0.  1.
         21   -1    0    0  502  503 -0.00000000000E+00 -0.00000000000E+00 -0.12371989818E+01  0.12371989818E+01  0.00000000000E+00 0.  1.
          5    1    1    2  501    0 -0.66861699076E+01 -0.21045374480E+02  0.19311728110E+03  0.19437565926E+03  0.00000000000E+00 0.  1.
         -5    1    1    2    0  503  0.66861699076E+01  0.21045374480E+02  0.19988735019E+03  0.20110336999E+03  0.00000000000E+00 0. -1.
<mgrwt>
<rscale>  2 0.22081953E+02</rscale>
<asrwt>0</asrwt>
<pdfrwt beam="1">  1       21 0.60652489E-01 0.22081953E+02</pdfrwt>
<pdfrwt beam="2">  1       21 0.19033862E-03 0.22081953E+02</pdfrwt>
<totfact> 0.88947542E+07</totfact>
</mgrwt>
</event>
<event>
 4    1  0.7478314E+004  0.3065722E+02  0.7546771E-02  0.1590936E+00
         21   -1    0    0  503  502  0.00000000000E+00  0.00000000000E+00  0.45797881459E+03  0.45797881459E+03  0.00000000000E+00 0.  1.
         21   -1    0    0  501  503 -0.00000000000E+00 -0.00000000000E+00 -0.21396346613E+01  0.21396346613E+01  0.00000000000E+00 0.  1.
          4    1    1    2  501    0 -0.30484656734E+02 -0.32482265035E+01  0.18141397108E+03  0.18398612495E+03  0.00000000000E+00 0. -1.
         -4    1    1    2    0  502  0.30484656734E+02  0.32482265035E+01  0.27442520885E+03  0.27613232430E+03  0.00000000000E+00 0.  1.
<mgrwt>
<rscale>  2 0.30657222E+02</rscale>
<asrwt>0</asrwt>
<pdfrwt beam="1">  1       21 0.70458201E-01 0.30657222E+02</pdfrwt>
<pdfrwt beam="2">  1       21 0.32917493E-03 0.30657222E+02</pdfrwt>
<totfact> 0.31670182E+07</totfact>
</mgrwt>
</event>
<event>
 4    1  0.7478314E+004  0.2132738E+02  0.7546771E-02  0.1720151E+00
         21   -1    0    0  503  502  0.00000000000E+00  0.00000000000E+00  0.24412226489E+03  0.24412226489E+03  0.00000000000E+00 0.  1.
         21   -1    0    0  501  503 -0.00000000000E+00 -0.00000000000E+00 -0.19877658602E+01  0.19877658602E+01  0.00000000000E+00 0.  1.
          4    1    1    2  501    0  0.18694039329E+02  0.10265961902E+02  0.15186760189E+03  0.15335783510E+03  0.00000000000E+00 0.  1.
         -4    1    1    2    0  502 -0.18694039329E+02 -0.10265961902E+02  0.90266897135E+02  0.92752195654E+02  0.00000000000E+00 0. -1.
<mgrwt>
<rscale>  2 0.21327379E+02</rscale>
<asrwt>0</asrwt>
<pdfrwt beam="1">  1       21 0.37557248E-01 0.21327379E+02</pdfrwt>
<pdfrwt beam="2">  1       21 0.30581033E-03 0.21327379E+02</pdfrwt>
<totfact> 0.11176735E+08</totfact>
</mgrwt>
</event>
<event>
 4    1  0.7478314E+004  0.3832438E+02  0.7546771E-02  0.1520917E+00
         21   -1    0    0  503  502  0.00000000000E+00  0.00000000000E+00  0.10876957280E+02  0.10876957280E+02  0.00000000000E+00 0.  1.
         21   -1    0    0  501  503 -0.00000000000E+00 -0.00000000000E+00 -0.14721954898E+03  0.14721954898E+03  0.00000000000E+00 0.  1.
          4    1    1    2  501    0  0.38007004841E+02  0.49219351739E+01 -0.90913577268E+02  0.98661220318E+02  0.00000000000E+00 0.  1.
         -4    1    1    2    0  502 -0.38007004841E+02 -0.49219351739E+01 -0.45429014429E+02  0.59435285941E+02  0.00000000000E+00 0. -1.
<mgrwt>
<rscale>  2 0.38324377E+02</rscale>
<asrwt>0</asrwt>
<pdfrwt beam="1">  1       21 0.16733781E-02 0.38324377E+02</pdfrwt>
<pdfrwt beam="2">  1       21 0.22649161E-01 0.38324377E+02</pdfrwt>
<totfact> 0.25048336E+07</totfact>
</mgrwt>
</event>
<event>
 4    1  0.7478314E+004  0.3461100E+02  0.7546771E-02  0.1552082E+00
         21   -1    0    0  503  502  0.00000000000E+00  0.00000000000E+00  0.24954835825E+03  0.24954835825E+03  0.00000000000E+00 0. -1.
         21   -1    0    0  501  503 -0.00000000000E+00 -0.00000000000E+00 -0.57112641181E+01  0.57112641181E+01  0.00000000000E+00 0. -1.
          4    1    1    2  501    0  0.34610982216E+02 -0.33562832247E-01  0.17288953422E+03  0.17631991453E+03  0.00000000000E+00 0.  1.
         -4    1    1    2    0  502 -0.34610982216E+02  0.33562832247E-01  0.70947559914E+02  0.78939707842E+02  0.00000000000E+00 0. -1.
<mgrwt>
<rscale>  2 0.34610998E+02</rscale>
<asrwt>0</asrwt>
<pdfrwt beam="1">  1       21 0.38392047E-01 0.34610998E+02</pdfrwt>
<pdfrwt beam="2">  1       21 0.87865621E-03 0.34610998E+02</pdfrwt>
<totfact> 0.24910208E+07</totfact>
</mgrwt>
</event>
<event>
 4    1  0.7478314E+004  0.2610774E+02  0.7546771E-02  0.1645583E+00
         21   -1    0    0  503  502  0.00000000000E+00  0.00000000000E+00  0.68507117825E+01  0.68507117825E+01  0.00000000000E+00 0. -1.
         21   -1    0    0  501  503 -0.00000000000E+00 -0.00000000000E+00 -0.12906664378E+03  0.12906664378E+03  0.00000000000E+00 0. -1.
          1    1    1    2  501    0 -0.22170042461E+02  0.13787791051E+02 -0.28578788902E+02  0.38708670087E+02  0.00000000000E+00 0. -1.
         -1    1    1    2    0  502  0.22170042461E+02 -0.13787791051E+02 -0.93637143095E+02  0.97208685475E+02  0.00000000000E+00 0.  1.
<mgrwt>
<rscale>  2 0.26107738E+02</rscale>
<asrwt>0</asrwt>
<pdfrwt beam="1">  1       21 0.10539557E-02 0.26107738E+02</pdfrwt>
<pdfrwt beam="2">  1       21 0.19856406E-01 0.26107738E+02</pdfrwt>
<totfact> 0.59464404E+07</totfact>
</mgrwt>
</event>
<event>
 4    1  0.7478314E+004  0.2136372E+02  0.7546771E-02  0.1719494E+00
         21   -1    0    0  503  502  0.00000000000E+00  0.00000000000E+00  0.25921599368E+02  0.25921599368E+02  0.00000000000E+00 0.  1.
         21   -1    0    0  501  503 -0.00000000000E+00 -0.00000000000E+00 -0.17746354495E+02  0.17746354495E+02  0.00000000000E+00 0.  1.
          3    1    1    2  501    0 -0.50392627575E+01 -0.20760890482E+02  0.60205205622E+01  0.22195842192E+02  0.00000000000E+00 0. -1.
         -3    1    1    2    0  502  0.50392627575E+01  0.20760890482E+02  0.21547243115E+01  0.21472111671E+02  0.00000000000E+00 0.  1.
<mgrwt>
<rscale>  2 0.21363725E+02</rscale>
<asrwt>0</asrwt>
<pdfrwt beam="1">  1       21 0.39879384E-02 0.21363725E+02</pdfrwt>
<pdfrwt beam="2">  1       21 0.27302084E-02 0.21363725E+02</pdfrwt>
<totfact> 0.18548286E+08</totfact>
</mgrwt>
</event>
<event>
 4    1  0.7478314E+004  0.6100145E+02  0.7546771E-02  0.1393677E+00
         21   -1    0    0  503  502  0.00000000000E+00  0.00000000000E+00  0.59266637467E+01  0.59266637467E+01  0.00000000000E+00 0. -1.
         21   -1    0    0  501  503 -0.00000000000E+00 -0.00000000000E+00 -0.68515650190E+03  0.68515650190E+03  0.00000000000E+00 0. -1.
          2    1    1    2  501    0  0.25819549391E+02  0.55267784934E+02 -0.43952970854E+03  0.44374265275E+03  0.00000000000E+00 0. -1.
         -2    1    1    2    0  502 -0.25819549391E+02 -0.55267784934E+02 -0.23970012961E+03  0.24734051289E+03  0.00000000000E+00 0.  1.
<mgrwt>
<rscale>  2 0.61001452E+02</rscale>
<asrwt>0</asrwt>
<pdfrwt beam="1">  1       21 0.91179461E-03 0.61001452E+02</pdfrwt>
<pdfrwt beam="2">  1       21 0.10540867E+00 0.61001452E+02</pdfrwt>
<totfact> 0.30511911E+06</totfact>
</mgrwt>
</event>
<event>
 4    1  0.7478314E+004  0.2134042E+02  0.7546771E-02  0.1719915E+00
         21   -1    0    0  501  502  0.00000000000E+00  0.00000000000E+00  0.11252141131E+02  0.11252141131E+02  0.00000000000E+00 0.  1.
         21   -1    0    0  502  503 -0.00000000000E+00 -0.00000000000E+00 -0.43310552288E+02  0.43310552288E+02  0.00000000000E+00 0.  1.
          3    1    1    2  501    0  0.10784646357E+02 -0.18414807044E+02 -0.90468593514E+01  0.23178856306E+02  0.00000000000E+00 0.  1.
         -3    1    1    2    0  503 -0.10784646357E+02  0.18414807044E+02 -0.23011551806E+02  0.31383837114E+02  0.00000000000E+00 0. -1.
<mgrwt>
<rscale>  2 0.21340424E+02</rscale>
<asrwt>0</asrwt>
<pdfrwt beam="1">  1       21 0.17310986E-02 0.21340424E+02</pdfrwt>
<pdfrwt beam="2">  1       21 0.66631619E-02 0.21340424E+02</pdfrwt>
<totfact> 0.16496294E+08</totfact>
</mgrwt>
</event>
<event>
 4    1  0.7478314E+004  0.2709432E+02  0.7546771E-02  0.1632623E+00
         21   -1    0    0  503  502  0.00000000000E+00  0.00000000000E+00  0.16146863443E+04  0.16146863443E+04  0.00000000000E+00 0.  1.
         21   -1    0    0  501  503 -0.00000000000E+00 -0.00000000000E+00 -0.45489148183E+00  0.45489148183E+00  0.00000000000E+00 0.  1.
          3    1    1    2  501    0  0.25006682715E+02 -0.10429200328E+02  0.82607098800E+03  0.82651520229E+03  0.00000000000E+00 0.  1.
         -3    1    1    2    0  502 -0.25006682715E+02  0.10429200328E+02  0.78816046480E+03  0.78862603347E+03  0.00000000000E+00 0. -1.
<mgrwt>
<rscale>  2 0.27094324E+02</rscale>
<asrwt>0</asrwt>
<pdfrwt beam="1">  1       21 0.24840870E+00 0.27094324E+02</pdfrwt>
<pdfrwt beam="2">  1       21 0.69984598E-04 0.27094324E+02</pdfrwt>
<totfact> 0.14584752E+07</totfact>
</mgrwt>
</event>
<event>
 4    1  0.7478314E+004  0.2406614E+02  0.7546771E-02  0.1674789E+00
         21   -1    0    0  503  502  0.00000000000E+00  0.00000000000E+00  0.25159703578E+02  0.25159703578E+02  0.00000000000E+00 0.  1.
         21   -1    0    0  501  503 -0.00000000000E+00 -0.00000000000E+00 -0.38830743471E+02  0.38830743471E+02  0.00000000000E+00 0.  1.
          5    1    1    2  501    0 -0.23274393664E+02 -0.61222176833E+01 -0.27251584819E+02  0.36356950160E+02  0.00000000000E+00 0. -1.
         -5    1    1    2    0  502  0.23274393664E+02  0.61222176833E+01  0.13580544926E+02  0.27633496888E+02  0.00000000000E+00 0.  1.
<mgrwt>
<rscale>  2 0.24066137E+02</rscale>
<asrwt>0</asrwt>
<pdfrwt beam="1">  1       21 0.38707236E-02 0.24066137E+02</pdfrwt>
<pdfrwt beam="2">  1       21 0.59739605E-02 0.24066137E+02</pdfrwt>
<totfact> 0.58571755E+07</totfact>
</mgrwt>
</event>
<event>
 4    1  0.7478314E+004  0.2127672E+02  0.7546771E-02  0.1721069E+00
         21   -1    0    0  503  502  0.00000000000E+00  0.00000000000E+00  0.17605757238E+03  0.17605757238E+03  0.00000000000E+00 0.  1.
         21   -1    0    0  501  503 -0.00000000000E+00 -0.00000000000E+00 -0.25866163309E+01  0.25866163309E+01  0.00000000000E+00 0.  1.
          3    1    1    2  501    0 -0.19280823372E+02  0.89971529298E+01  0.79864744421E+02  0.82650325542E+02  0.00000000000E+00 0. -1.
         -3    1    1    2    0  502  0.19280823372E+02 -0.89971529298E+01  0.93606211630E+02  0.95993863171E+02  0.00000000000E+00 0.  1.
<mgrwt>
<rscale>  2 0.21276722E+02</rscale>
<asrwt>0</asrwt>
<pdfrwt beam="1">  1       21 0.27085771E-01 0.21276722E+02</pdfrwt>
<pdfrwt beam="2">  1       21 0.39794111E-03 0.21276722E+02</pdfrwt>
<totfact> 0.13818578E+08</totfact>
</mgrwt>
</event>
<event>
 4    1  0.7478314E+004  0.2351938E+02  0.7546771E-02  0.1683227E+00
         21   -1    0    0  501  502  0.00000000000E+00  0.00000000000E+00  0.16291936986E+01  0.16291936986E+01  0.00000000000E+00 0.  1.
         21   -1    0    0  502  503 -0.00000000000E+00 -0.00000000000E+00 -0.46612925939E+03  0.46612925939E+03  0.00000000000E+00 0.  1.
          2    1    1    2  501    0 -0.21552755490E+02 -0.94148909787E+01 -0.11036435547E+03  0.11284260011E+03  0.00000000000E+00 0. -1.
         -2    1    1    2    0  503  0.21552755490E+02  0.94148909787E+01 -0.35413571022E+03  0.35491585298E+03  0.00000000000E+00 0.  1.
<mgrwt>
<rscale>  2 0.23519384E+02</rscale>
<asrwt>0</asrwt>
<pdfrwt beam="1">  1       21 0.25064504E-03 0.23519384E+02</pdfrwt>
<pdfrwt beam="2">  1       21 0.71712235E-01 0.23519384E+02</pdfrwt>
<totfact> 0.43166719E+07</totfact>
</mgrwt>
</event>
<event>
 4    1  0.7478314E+004  0.2095085E+02  0.7546771E-02  0.1727055E+00
         21   -1    0    0  501  502  0.00000000000E+00  0.00000000000E+00  0.20175688020E+02  0.20175688020E+02  0.00000000000E+00 0. -1.
         21   -1    0    0  502  503 -0.00000000000E+00 -0.00000000000E+00 -0.23068181192E+02  0.23068181192E+02  0.00000000000E+00 0. -1.
          2    1    1    2  501    0  0.19403117058E+02  0.79029964591E+01  0.37109927651E+01  0.21276977509E+02  0.00000000000E+00 0. -1.
         -2    1    1    2    0  503 -0.19403117058E+02 -0.79029964591E+01 -0.66034859366E+01  0.21966891704E+02  0.00000000000E+00 0.  1.
<mgrwt>
<rscale>  2 0.20950855E+02</rscale>
<asrwt>0</asrwt>
<pdfrwt beam="1">  1       21 0.31039520E-02 0.20950855E+02</pdfrwt>
<pdfrwt beam="2">  1       21 0.35489510E-02 0.20950855E+02</pdfrwt>
<totfact> 0.18136910E+08</totfact>
</mgrwt>
</event>
<event>
 4    1  0.7478314E+004  0.4147133E+02  0.7546771E-02  0.1497655E+00
         21   -1    0    0  501  502  0.00000000000E+00  0.00000000000E+00  0.60237296419E+01  0.60237296419E+01  0.00000000000E+00 0.  1.
         21   -1    0    0  502  503 -0.00000000000E+00 -0.00000000000E+00 -0.32439501472E+03  0.32439501472E+03  0.00000000000E+00 0.  1.
          4    1    1    2  501    0 -0.26636324668E+02  0.31786433573E+02 -0.21638027304E+03  0.22031861863E+03  0.00000000000E+00 0.  1.
         -4    1    1    2    0  503  0.26636324668E+02 -0.31786433573E+02 -0.10199101204E+03  0.11010012574E+03  0.00000000000E+00 0. -1.
<mgrwt>
<rscale>  2 0.41471329E+02</rscale>
<asrwt>0</asrwt>
<pdfrwt beam="1">  1       21 0.92672787E-03 0.41471329E+02</pdfrwt>
<pdfrwt beam="2">  1       21 0.49906913E-01 0.41471329E+02</pdfrwt>
<totfact> 0.14166021E+07</totfact>
</mgrwt>
</event>
<event>
 4    1  0.7478314E+004  0.3878723E+02  0.7546771E-02  0.1517331E+00
         21   -1    0    0  503  502  0.00000000000E+00  0.00000000000E+00  0.70865635666E+01  0.70865635666E+01  0.00000000000E+00 0. -1.
         21   -1    0    0  501  503 -0.00000000000E+00 -0.00000000000E+00 -0.27775641128E+03  0.27775641128E+03  0.00000000000E+00 0. -1.
          3    1    1    2  501    0  0.34099498681E+02  0.18484404953E+02 -0.20447547942E+03  0.20812176898E+03  0.00000000000E+00 0.  1.
         -3    1    1    2    0  502 -0.34099498681E+02 -0.18484404953E+02 -0.66194368292E+02  0.76721205871E+02  0.00000000000E+00 0. -1.
<mgrwt>
<rscale>  2 0.38787228E+02</rscale>
<asrwt>0</asrwt>
<pdfrwt beam="1">  1       21 0.10902405E-02 0.38787228E+02</pdfrwt>
<pdfrwt beam="2">  1       21 0.42731757E-01 0.38787228E+02</pdfrwt>
<totfact> 0.14850780E+07</totfact>
</mgrwt>
</event>
<event>
 4    1  0.7478314E+004  0.2037271E+02  0.7546771E-02  0.1738016E+00
         21   -1    0    0  503  502  0.00000000000E+00  0.00000000000E+00  0.61947217562E+02  0.61947217562E+02  0.00000000000E+00 0. -1.
         21   -1    0    0  501  503 -0.00000000000E+00 -0.00000000000E+00 -0.67293413231E+01  0.67293413231E+01  0.00000000000E+00 0. -1.
          1    1    1    2  501    0 -0.20346745398E+02 -0.10283151132E+01  0.25342217772E+02  0.32515772817E+02  0.00000000000E+00 0. -1.
         -1    1    1    2    0  502  0.20346745398E+02  0.10283151132E+01  0.29875658466E+02  0.36160786068E+02  0.00000000000E+00 0.  1.
<mgrwt>
<rscale>  2 0.20372714E+02</rscale>
<asrwt>0</asrwt>
<pdfrwt beam="1">  1       21 0.95303408E-02 0.20372714E+02</pdfrwt>
<pdfrwt beam="2">  1       21 0.10352833E-02 0.20372714E+02</pdfrwt>
<totfact> 0.19746348E+08</totfact>
</mgrwt>
</event>
<event>
 4    1  0.7478314E+004  0.2446006E+02  0.7546771E-02  0.1668881E+00
         21   -1    0    0  503  502  0.00000000000E+00  0.00000000000E+00  0.24132134154E+02  0.24132134154E+02  0.00000000000E+00 0.  1.
         21   -1    0    0  501  503 -0.00000000000E+00 -0.00000000000E+00 -0.30936213203E+02  0.30936213203E+02  0.00000000000E+00 0.  1.
          2    1    1    2  501    0 -0.20207102588E+02  0.13782865652E+02  0.88682897331E+01  0.26018088773E+02  0.00000000000E+00 0.  1.
         -2    1    1    2    0  502  0.20207102588E+02 -0.13782865652E+02 -0.15672368782E+02  0.29050258585E+02  0.00000000000E+00 0. -1.
<mgrwt>
<rscale>  2 0.24460057E+02</rscale>
<asrwt>0</asrwt>
<pdfrwt beam="1">  1       21 0.37126360E-02 0.24460057E+02</pdfrwt>
<pdfrwt beam="2">  1       21 0.47594174E-02 0.24460057E+02</pdfrwt>
<totfact> 0.90385230E+07</totfact>
</mgrwt>
</event>
<event>
 4    1  0.7478314E+004  0.2581496E+02  0.7546771E-02  0.1649565E+00
         21   -1    0    0  503  502  0.00000000000E+00  0.00000000000E+00  0.44785579054E+00  0.44785579054E+00  0.00000000000E+00 0.  1.
         21   -1    0    0  501  503 -0.00000000000E+00 -0.00000000000E+00 -0.14994623656E+04  0.14994623656E+04  0.00000000000E+00 0.  1.
          2    1    1    2  501    0 -0.47297012456E+01 -0.25377984255E+02 -0.68395485781E+03  0.68444185998E+03  0.00000000000E+00 0.  1.
         -2    1    1    2    0  502  0.47297012456E+01  0.25377984255E+02 -0.81505965204E+03  0.81546836146E+03  0.00000000000E+00 0. -1.
<mgrwt>
<rscale>  2 0.25814960E+02</rscale>
<asrwt>0</asrwt>
<pdfrwt beam="1">  1       21 0.68902417E-04 0.25814960E+02</pdfrwt>
<pdfrwt beam="2">  1       21 0.23068141E+00 0.25814960E+02</pdfrwt>
<totfact> 0.18302231E+07</totfact>
</mgrwt>
</event>
<event>
 4    1  0.7478314E+004  0.2465754E+02  0.7546771E-02  0.1665970E+00
         21   -1    0    0  501  502  0.00000000000E+00  0.00000000000E+00  0.10520081528E+03  0.10520081528E+03  0.00000000000E+00 0. -1.
         21   -1    0    0  502  503 -0.00000000000E+00 -0.00000000000E+00 -0.62377880475E+01  0.62377880475E+01  0.00000000000E+00 0. -1.
          2    1    1    2  501    0 -0.16552166916E+02 -0.18276216923E+02  0.64586546218E+02  0.69133322552E+02  0.00000000000E+00 0.  1.
         -2    1    1    2    0  503  0.16552166916E+02  0.18276216923E+02  0.34376481017E+02  0.42305280779E+02  0.00000000000E+00 0. -1.
<mgrwt>
<rscale>  2 0.24657541E+02</rscale>
<asrwt>0</asrwt>
<pdfrwt beam="1">  1       21 0.16184740E-01 0.24657541E+02</pdfrwt>
<pdfrwt beam="2">  1       21 0.95965977E-03 0.24657541E+02</pdfrwt>
<totfact> 0.96282023E+07</totfact>
</mgrwt>
</event>
<event>
 4    1  0.7478314E+004  0.2113901E+02  0.7546771E-02  0.1723582E+00
         21   -1    0    0  501  502  0.00000000000E+00  0.00000000000E+00  0.10949290422E+03  0.10949290422E+03  0.00000000000E+00 0. -1.
         21   -1    0    0  502  503 -0.00000000000E+00 -0.00000000000E+00 -0.41893250192E+01  0.41893250192E+01  0.00000000000E+00 0. -1.
          1    1    1    2  501    0 -0.11618617629E+02  0.17659717204E+02  0.43518291178E+02  0.48380776703E+02  0.00000000000E+00 0. -1.
         -1    1    1    2    0  503  0.11618617629E+02 -0.17659717204E+02  0.61785288024E+02  0.65301452538E+02  0.00000000000E+00 0.  1.
<mgrwt>
<rscale>  2 0.21139013E+02</rscale>
<asrwt>0</asrwt>
<pdfrwt beam="1">  1       21 0.16845060E-01 0.21139013E+02</pdfrwt>
<pdfrwt beam="2">  1       21 0.64451162E-03 0.21139013E+02</pdfrwt>
<totfact> 0.15579013E+08</totfact>
</mgrwt>
</event>
<event>
 4    1  0.7478314E+004  0.2155068E+02  0.7546771E-02  0.1716141E+00
         21   -1    0    0  501  502  0.00000000000E+00  0.00000000000E+00  0.62807918630E+01  0.62807918630E+01  0.00000000000E+00 0. -1.
         21   -1    0    0  502  503 -0.00000000000E+00 -0.00000000000E+00 -0.81530758478E+02  0.81530758478E+02  0.00000000000E+00 0. -1.
          3    1    1    2  501    0  0.92964096691E+01 -0.19442440420E+02 -0.24232320323E+02  0.32428954200E+02  0.00000000000E+00 0. -1.
         -3    1    1    2    0  503 -0.92964096691E+01  0.19442440420E+02 -0.51017646292E+02  0.55382596142E+02  0.00000000000E+00 0.  1.
<mgrwt>
<rscale>  2 0.21550678E+02</rscale>
<asrwt>0</asrwt>
<pdfrwt beam="1">  1       21 0.96627574E-03 0.21550678E+02</pdfrwt>
<pdfrwt beam="2">  1       21 0.12543193E-01 0.21550678E+02</pdfrwt>
<totfact> 0.14129989E+08</totfact>
</mgrwt>
</event>
<event>
 4    1  0.7478314E+004  0.3567782E+02  0.7546771E-02  0.1542662E+00
         21   -1    0    0  503  502  0.00000000000E+00  0.00000000000E+00  0.13366614449E+03  0.13366614449E+03  0.00000000000E+00 0. -1.
         21   -1    0    0  501  503 -0.00000000000E+00 -0.00000000000E+00 -0.12677586417E+02  0.12677586417E+02  0.00000000000E+00 0. -1.
          2    1    1    2  501    0 -0.19356519395E+02 -0.29970522091E+02  0.23994115105E+02  0.42995634629E+02  0.00000000000E+00 0.  1.
         -2    1    1    2    0  502  0.19356519395E+02  0.29970522091E+02  0.96994442964E+02  0.10334809627E+03  0.00000000000E+00 0. -1.
<mgrwt>
<rscale>  2 0.35677823E+02</rscale>
<asrwt>0</asrwt>
<pdfrwt beam="1">  1       21 0.20564021E-01 0.35677823E+02</pdfrwt>
<pdfrwt beam="2">  1       21 0.19503980E-02 0.35677823E+02</pdfrwt>
<totfact> 0.23193379E+07</totfact>
</mgrwt>
</event>
<event>
 4    1  0.7478314E+004  0.2712804E+02  0.7546771E-02  0.1632192E+00
         21   -1    0    0  501  502  0.00000000000E+00  0.00000000000E+00  0.22215748280E+03  0.22215748280E+03  0.00000000000E+00 0. -1.
         21   -1    0    0  502  503 -0.00000000000E+00 -0.00000000000E+00 -0.53049053131E+01  0.53049053131E+01  0.00000000000E+00 0. -1.
          5    1    1    2  501    0  0.19067444607E+02 -0.19296709343E+02  0.38729453777E+02  0.47285315111E+02  0.00000000000E+00 0.  1.
         -5    1    1    2    0  503 -0.19067444607E+02  0.19296709343E+02  0.17812312371E+03  0.18017707301E+03  0.00000000000E+00 0. -1.
<mgrwt>
<rscale>  2 0.27128038E+02</rscale>
<asrwt>0</asrwt>
<pdfrwt beam="1">  1       21 0.34178067E-01 0.27128038E+02</pdfrwt>
<pdfrwt beam="2">  1       21 0.81613945E-03 0.27128038E+02</pdfrwt>
<totfact> 0.33106515E+07</totfact>
</mgrwt>
</event>
<event>
 4    1  0.7478314E+004  0.2573560E+02  0.7546771E-02  0.1650656E+00
         21   -1    0    0  503  502  0.00000000000E+00  0.00000000000E+00  0.11093643023E+04  0.11093643023E+04  0.00000000000E+00 0. -1.
         21   -1    0    0  501  503 -0.00000000000E+00 -0.00000000000E+00 -0.61579428823E+00  0.61579428823E+00  0.00000000000E+00 0. -1.
          2    1    1    2  501    0  0.25725934161E+02  0.70528523336E+00  0.45748823860E+03  0.45821153366E+03  0.00000000000E+00 0.  1.
         -2    1    1    2    0  502 -0.25725934161E+02 -0.70528523336E+00  0.65126026936E+03  0.65176856289E+03  0.00000000000E+00 0. -1.
<mgrwt>
<rscale>  2 0.25735600E+02</rscale>
<asrwt>0</asrwt>
<pdfrwt beam="1">  1       21 0.17066983E+00 0.25735600E+02</pdfrwt>
<pdfrwt beam="2">  1       21 0.94738471E-04 0.25735600E+02</pdfrwt>
<totfact> 0.25450298E+07</totfact>
</mgrwt>
</event>
<event>
 4    1  0.7478314E+004  0.2281908E+02  0.7546771E-02  0.1694460E+00
         21   -1    0    0  501  502  0.00000000000E+00  0.00000000000E+00  0.77694890207E+02  0.77694890207E+02  0.00000000000E+00 0.  1.
         21   -1    0    0  502  503 -0.00000000000E+00 -0.00000000000E+00 -0.68184505182E+01  0.68184505182E+01  0.00000000000E+00 0.  1.
          2    1    1    2  501    0 -0.30444741266E+01 -0.22615070250E+02  0.29915596348E+02  0.37625166179E+02  0.00000000000E+00 0. -1.
         -2    1    1    2    0  503  0.30444741266E+01  0.22615070250E+02  0.40960843341E+02  0.46888174547E+02  0.00000000000E+00 0.  1.
<mgrwt>
<rscale>  2 0.22819076E+02</rscale>
<asrwt>0</asrwt>
<pdfrwt beam="1">  1       21 0.11953059E-01 0.22819076E+02</pdfrwt>
<pdfrwt beam="2">  1       21 0.10489924E-02 0.22819076E+02</pdfrwt>
<totfact> 0.13773463E+08</totfact>
</mgrwt>
</event>
<event>
 4    1  0.7478314E+004  0.2313745E+02  0.7546771E-02  0.1689292E+00
         21   -1    0    0  501  502  0.00000000000E+00  0.00000000000E+00  0.25126305065E+01  0.25126305065E+01  0.00000000000E+00 0. -1.
         21   -1    0    0  502  503 -0.00000000000E+00 -0.00000000000E+00 -0.23082108375E+03  0.23082108375E+03  0.00000000000E+00 0. -1.
          1    1    1    2  501    0 -0.14536510143E+02 -0.18000875749E+02 -0.81791762915E+02  0.85001377258E+02  0.00000000000E+00 0.  1.
         -1    1    1    2    0  503  0.14536510143E+02  0.18000875749E+02 -0.14651669033E+03  0.14833233700E+03  0.00000000000E+00 0. -1.
<mgrwt>
<rscale>  2 0.23137451E+02</rscale>
<asrwt>0</asrwt>
<pdfrwt beam="1">  1       21 0.38655841E-03 0.23137451E+02</pdfrwt>
<pdfrwt beam="2">  1       21 0.35510948E-01 0.23137451E+02</pdfrwt>
<totfact> 0.90049717E+07</totfact>
</mgrwt>
</event>
<event>
 4    1  0.7478314E+004  0.2530084E+02  0.7546771E-02  0.1656718E+00
         21   -1    0    0  503  502  0.00000000000E+00  0.00000000000E+00  0.26222322112E+03  0.26222322112E+03  0.00000000000E+00 0.  1.
         21   -1    0    0  501  503 -0.00000000000E+00 -0.00000000000E+00 -0.31546959854E+01  0.31546959854E+01  0.00000000000E+00 0.  1.
          4    1    1    2  501    0 -0.30154282535E+01  0.25120499774E+02  0.66429820298E+02  0.71084832005E+02  0.00000000000E+00 0.  1.
         -4    1    1    2    0  502  0.30154282535E+01 -0.25120499774E+02  0.19263870483E+03  0.19429308510E+03  0.00000000000E+00 0. -1.
<mgrwt>
<rscale>  2 0.25300836E+02</rscale>
<asrwt>0</asrwt>
<pdfrwt beam="1">  1       21 0.40342017E-01 0.25300836E+02</pdfrwt>
<pdfrwt beam="2">  1       21 0.48533805E-03 0.25300836E+02</pdfrwt>
<totfact> 0.51832696E+07</totfact>
</mgrwt>
</event>
<event>
 4    1  0.7478314E+004  0.2175857E+02  0.7546771E-02  0.1712461E+00
         21   -1    0    0  503  502  0.00000000000E+00  0.00000000000E+00  0.17755912824E+01  0.17755912824E+01  0.00000000000E+00 0.  1.
         21   -1    0    0  501  503 -0.00000000000E+00 -0.00000000000E+00 -0.41023615428E+03  0.41023615428E+03  0.00000000000E+00 0.  1.
          3    1    1    2  501    0 -0.21253891172E+02 -0.46591184231E+01 -0.32611273301E+03  0.32683780366E+03  0.00000000000E+00 0. -1.
         -3    1    1    2    0  502  0.21253891172E+02  0.46591184231E+01 -0.82347829995E+02  0.85173941903E+02  0.00000000000E+00 0.  1.
<mgrwt>
<rscale>  2 0.21758568E+02</rscale>
<asrwt>0</asrwt>
<pdfrwt beam="1">  1       21 0.27316793E-03 0.21758568E+02</pdfrwt>
<pdfrwt beam="2">  1       21 0.63113246E-01 0.21758568E+02</pdfrwt>
<totfact> 0.48539041E+07</totfact>
</mgrwt>
</event>
<event>
 4    1  0.7478314E+004  0.2183679E+02  0.7546771E-02  0.1711090E+00
         21   -1    0    0  503  502  0.00000000000E+00  0.00000000000E+00  0.10125861310E+03  0.10125861310E+03  0.00000000000E+00 0.  1.
         21   -1    0    0  501  503 -0.00000000000E+00 -0.00000000000E+00 -0.47267115974E+01  0.47267115974E+01  0.00000000000E+00 0.  1.
          4    1    1    2  501    0 -0.16612976603E+02 -0.14172315586E+02  0.51492866269E+02  0.55931751245E+02  0.00000000000E+00 0. -1.
         -4    1    1    2    0  502  0.16612976603E+02  0.14172315586E+02  0.45039035238E+02  0.50053573458E+02  0.00000000000E+00 0.  1.
<mgrwt>
<rscale>  2 0.21836793E+02</rscale>
<asrwt>0</asrwt>
<pdfrwt beam="1">  1       21 0.15578247E-01 0.21836793E+02</pdfrwt>
<pdfrwt beam="2">  1       21 0.72718648E-03 0.21836793E+02</pdfrwt>
<totfact> 0.15031975E+08</totfact>
</mgrwt>
</event>
<event>
 4    1  0.7478314E+004  0.6435386E+02  0.7546771E-02  0.1380419E+00
         21   -1    0    0  501  502  0.00000000000E+00  0.00000000000E+00  0.70822766825E+01  0.70822766825E+01  0.00000000000E+00 0. -1.
         21   -1    0    0  502  503 -0.00000000000E+00 -0.00000000000E+00 -0.11802643598E+04  0.11802643598E+04  0.00000000000E+00 0. -1.
          2    1    1    2  501    0  0.58678196261E+02 -0.26425162413E+02 -0.10082885008E+04  0.10103401015E+04  0.00000000000E+00 0.  1.
         -2    1    1    2    0  503 -0.58678196261E+02  0.26425162413E+02 -0.16489358234E+03  0.17700653497E+03  0.00000000000E+00 0. -1.
<mgrwt>
<rscale>  2 0.64353865E+02</rscale>
<asrwt>0</asrwt>
<pdfrwt beam="1">  1       21 0.10895807E-02 0.64353865E+02</pdfrwt>
<pdfrwt beam="2">  1       21 0.18157918E+00 0.64353865E+02</pdfrwt>
<totfact> 0.60659230E+05</totfact>
</mgrwt>
</event>
<event>
 4    1  0.7478314E+004  0.2566323E+02  0.7546771E-02  0.1651654E+00
         21   -1    0    0  501  502  0.00000000000E+00  0.00000000000E+00  0.12459430496E+02  0.12459430496E+02  0.00000000000E+00 0. -1.
         21   -1    0    0  502  503 -0.00000000000E+00 -0.00000000000E+00 -0.58096860434E+02  0.58096860434E+02  0.00000000000E+00 0. -1.
          2    1    1    2  501    0  0.29529112477E+01  0.25492781321E+02 -0.33410714002E+02  0.42129293780E+02  0.00000000000E+00 0.  1.
         -2    1    1    2    0  503 -0.29529112477E+01 -0.25492781321E+02 -0.12226715936E+02  0.28426997149E+02  0.00000000000E+00 0. -1.
<mgrwt>
<rscale>  2 0.25663234E+02</rscale>
<asrwt>0</asrwt>
<pdfrwt beam="1">  1       21 0.19168355E-02 0.25663234E+02</pdfrwt>
<pdfrwt beam="2">  1       21 0.89379785E-02 0.25663234E+02</pdfrwt>
<totfact> 0.92243401E+07</totfact>
</mgrwt>
</event>
<event>
 4    1  0.7478314E+004  0.3713435E+02  0.7546771E-02  0.1530425E+00
         21   -1    0    0  503  502  0.00000000000E+00  0.00000000000E+00  0.32862316156E+03  0.32862316156E+03  0.00000000000E+00 0. -1.
         21   -1    0    0  501  503 -0.00000000000E+00 -0.00000000000E+00 -0.42329686332E+01  0.42329686332E+01  0.00000000000E+00 0. -1.
          2    1    1    2  501    0 -0.28467389036E+02  0.23844658610E+02  0.14667851726E+03  0.15130613804E+03  0.00000000000E+00 0. -1.
         -2    1    1    2    0  502  0.28467389036E+02 -0.23844658610E+02  0.17771167566E+03  0.18154999215E+03  0.00000000000E+00 0.  1.
<mgrwt>
<rscale>  2 0.37134350E+02</rscale>
<asrwt>0</asrwt>
<pdfrwt beam="1">  1       21 0.50557389E-01 0.37134350E+02</pdfrwt>
<pdfrwt beam="2">  1       21 0.65122620E-03 0.37134350E+02</pdfrwt>
<totfact> 0.23207107E+07</totfact>
</mgrwt>
</event>
<event>
 4    1  0.7478314E+004  0.2047760E+02  0.7546771E-02  0.1735994E+00
         21   -1    0    0  501  502  0.00000000000E+00  0.00000000000E+00  0.69827757158E+02  0.69827757158E+02  0.00000000000E+00 0. -1.
         21   -1    0    0  502  503 -0.00000000000E+00 -0.00000000000E+00 -0.60144793929E+01  0.60144793929E+01  0.00000000000E+00 0. -1.
          1    1    1    2  501    0 -0.17405889888E+02 -0.10787363421E+02  0.30420085295E+02  0.36670339536E+02  0.00000000000E+00 0.  1.
         -1    1    1    2    0  503  0.17405889888E+02  0.10787363421E+02  0.33393192470E+02  0.39171897014E+02  0.00000000000E+00 0. -1.
<mgrwt>
<rscale>  2 0.20477603E+02</rscale>
<asrwt>0</asrwt>
<pdfrwt beam="1">  1       21 0.10742731E-01 0.20477603E+02</pdfrwt>
<pdfrwt beam="2">  1       21 0.92530457E-03 0.20477603E+02</pdfrwt>
<totfact> 0.19205722E+08</totfact>
</mgrwt>
</event>
<event>
 4    1  0.7478314E+004  0.2373795E+02  0.7546771E-02  0.1679820E+00
         21   -1    0    0  501  502  0.00000000000E+00  0.00000000000E+00  0.43872216976E+01  0.43872216976E+01  0.00000000000E+00 0.  1.
         21   -1    0    0  502  503 -0.00000000000E+00 -0.00000000000E+00 -0.12856644245E+03  0.12856644245E+03  0.00000000000E+00 0.  1.
          2    1    1    2  501    0 -0.21536828951E+02 -0.99827384646E+01 -0.59996077946E+02  0.64521464936E+02  0.00000000000E+00 0.  1.
         -2    1    1    2    0  503  0.21536828951E+02  0.99827384646E+01 -0.64183142809E+02  0.68432199214E+02  0.00000000000E+00 0. -1.
<mgrwt>
<rscale>  2 0.23737946E+02</rscale>
<asrwt>0</asrwt>
<pdfrwt beam="1">  1       21 0.67495732E-03 0.23737946E+02</pdfrwt>
<pdfrwt beam="2">  1       21 0.19779449E-01 0.23737946E+02</pdfrwt>
<totfact> 0.11398027E+08</totfact>
</mgrwt>
</event>
<event>
 4    1  0.7478314E+004  0.2133877E+02  0.7546771E-02  0.1719945E+00
         21   -1    0    0  503  502  0.00000000000E+00  0.00000000000E+00  0.67049903813E+01  0.67049903813E+01  0.00000000000E+00 0.  1.
         21   -1    0    0  501  503 -0.00000000000E+00 -0.00000000000E+00 -0.10603729142E+03  0.10603729142E+03  0.00000000000E+00 0.  1.
          4    1    1    2  501    0  0.70653696158E+01  0.20135137519E+02 -0.15864393459E+02  0.26589888878E+02  0.00000000000E+00 0. -1.
         -4    1    1    2    0  502 -0.70653696158E+01 -0.20135137519E+02 -0.83467907579E+02  0.86152392922E+02  0.00000000000E+00 0.  1.
<mgrwt>
<rscale>  2 0.21338772E+02</rscale>
<asrwt>0</asrwt>
<pdfrwt beam="1">  1       21 0.10315370E-02 0.21338772E+02</pdfrwt>
<pdfrwt beam="2">  1       21 0.16313429E-01 0.21338772E+02</pdfrwt>
<totfact> 0.81907450E+07</totfact>
</mgrwt>
</event>
<event>
 4    1  0.7478314E+004  0.4907424E+02  0.7546771E-02  0.1450400E+00
         21   -1    0    0  503  502  0.00000000000E+00  0.00000000000E+00  0.22032517349E+01  0.22032517349E+01  0.00000000000E+00 0.  1.
         21   -1    0    0  501  503 -0.00000000000E+00 -0.00000000000E+00 -0.11354484516E+04  0.11354484516E+04  0.00000000000E+00 0.  1.
          1    1    1    2  501    0  0.25654060491E+02 -0.41834799573E+02 -0.45671412786E+03  0.45934309167E+03  0.00000000000E+00 0.  1.
         -1    1    1    2    0  502 -0.25654060491E+02  0.41834799573E+02 -0.67653107201E+03  0.67830861168E+03  0.00000000000E+00 0. -1.
<mgrwt>
<rscale>  2 0.49074242E+02</rscale>
<asrwt>0</asrwt>
<pdfrwt beam="1">  1       21 0.33896200E-03 0.49074242E+02</pdfrwt>
<pdfrwt beam="2">  1       21 0.17468428E+00 0.49074242E+02</pdfrwt>
<totfact> 0.39656060E+06</totfact>
</mgrwt>
</event>
<event>
 4    1  0.7478314E+004  0.2224079E+02  0.7546771E-02  0.1704121E+00
         21   -1    0    0  503  502  0.00000000000E+00  0.00000000000E+00  0.56873362730E+00  0.56873362730E+00  0.00000000000E+00 0.  1.
         21   -1    0    0  501  503 -0.00000000000E+00 -0.00000000000E+00 -0.87135340565E+03  0.87135340565E+03  0.00000000000E+00 0.  1.
          2    1    1    2  501    0  0.15431662458E+02 -0.16016138609E+02 -0.45412613375E+03  0.45467042817E+03  0.00000000000E+00 0. -1.
         -2    1    1    2    0  502 -0.15431662458E+02  0.16016138609E+02 -0.41665853827E+03  0.41725171110E+03  0.00000000000E+00 0.  1.
<mgrwt>
<rscale>  2 0.22240794E+02</rscale>
<asrwt>0</asrwt>
<pdfrwt beam="1">  1       21 0.87497217E-04 0.22240794E+02</pdfrwt>
<pdfrwt beam="2">  1       21 0.13405477E+00 0.22240794E+02</pdfrwt>
<totfact> 0.49359588E+07</totfact>
</mgrwt>
</event>
<event>
 4    1  0.7478314E+004  0.2363103E+02  0.7546771E-02  0.1681481E+00
         21   -1    0    0  501  502  0.00000000000E+00  0.00000000000E+00  0.16528590194E+03  0.16528590194E+03  0.00000000000E+00 0.  1.
         21   -1    0    0  502  503 -0.00000000000E+00 -0.00000000000E+00 -0.10536511502E+02  0.10536511502E+02  0.00000000000E+00 0.  1.
          5    1    1    2  501    0 -0.23562458523E+02  0.17989002642E+01  0.14983342496E+03  0.15168546644E+03  0.00000000000E+00 0. -1.
         -5    1    1    2    0  503  0.23562458523E+02 -0.17989002642E+01  0.49159654729E+01  0.24136946997E+02  0.00000000000E+00 0.  1.
<mgrwt>
<rscale>  2 0.23631028E+02</rscale>
<asrwt>0</asrwt>
<pdfrwt beam="1">  1       21 0.25428598E-01 0.23631028E+02</pdfrwt>
<pdfrwt beam="2">  1       21 0.16210019E-02 0.23631028E+02</pdfrwt>
<totfact> 0.19528916E+07</totfact>
</mgrwt>
</event>
<event>
 4    1  0.7478314E+004  0.2862965E+02  0.7546771E-02  0.1613749E+00
         21   -1    0    0  501  502  0.00000000000E+00  0.00000000000E+00  0.56827485307E+02  0.56827485307E+02  0.00000000000E+00 0.  1.
         21   -1    0    0  502  503 -0.00000000000E+00 -0.00000000000E+00 -0.21667008052E+02  0.21667008052E+02  0.00000000000E+00 0.  1.
          3    1    1    2  501    0  0.54056221837E+01  0.28114699686E+02 -0.51121967519E+01  0.29082497232E+02  0.00000000000E+00 0. -1.
         -3    1    1    2    0  503 -0.54056221837E+01 -0.28114699686E+02  0.40272674006E+02  0.49411996127E+02  0.00000000000E+00 0.  1.
<mgrwt>
<rscale>  2 0.28629654E+02</rscale>
<asrwt>0</asrwt>
<pdfrwt beam="1">  1       21 0.87426900E-02 0.28629654E+02</pdfrwt>
<pdfrwt beam="2">  1       21 0.33333859E-02 0.28629654E+02</pdfrwt>
<totfact> 0.41515997E+07</totfact>
</mgrwt>
</event>
<event>
 4    1  0.7478314E+004  0.3306841E+02  0.7546771E-02  0.1566454E+00
         21   -1    0    0  501  502  0.00000000000E+00  0.00000000000E+00  0.21634395859E+02  0.21634395859E+02  0.00000000000E+00 0. -1.
         21   -1    0    0  502  503 -0.00000000000E+00 -0.00000000000E+00 -0.63528697015E+02  0.63528697015E+02  0.00000000000E+00 0. -1.
          2    1    1    2  501    0  0.16794406825E+02 -0.28486268458E+02 -0.40197057929E+02  0.52051158079E+02  0.00000000000E+00 0.  1.
         -2    1    1    2    0  503 -0.16794406825E+02  0.28486268458E+02 -0.16972432282E+01  0.33111934795E+02  0.00000000000E+00 0. -1.
<mgrwt>
<rscale>  2 0.33068408E+02</rscale>
<asrwt>0</asrwt>
<pdfrwt beam="1">  1       21 0.33283686E-02 0.33068408E+02</pdfrwt>
<pdfrwt beam="2">  1       21 0.97736457E-02 0.33068408E+02</pdfrwt>
<totfact> 0.35619686E+07</totfact>
</mgrwt>
</event>
<event>
 4    1  0.7478314E+004  0.2141370E+02  0.7546771E-02  0.1718594E+00
         21   -1    0    0  501  502  0.00000000000E+00  0.00000000000E+00  0.18921271496E+02  0.18921271496E+02  0.00000000000E+00 0. -1.
         21   -1    0    0  502  503 -0.00000000000E+00 -0.00000000000E+00 -0.37712463853E+02  0.37712463853E+02  0.00000000000E+00 0. -1.
          1    1    1    2  501    0  0.20975298852E+02 -0.43108285488E+01 -0.26323994924E+02  0.33933745939E+02  0.00000000000E+00 0.  1.
         -1    1    1    2    0  503 -0.20975298852E+02  0.43108285488E+01  0.75328025665E+01  0.22699989410E+02  0.00000000000E+00 0. -1.
<mgrwt>
<rscale>  2 0.21413697E+02</rscale>
<asrwt>0</asrwt>
<pdfrwt beam="1">  1       21 0.29109648E-02 0.21413697E+02</pdfrwt>
<pdfrwt beam="2">  1       21 0.58019175E-02 0.21413697E+02</pdfrwt>
<totfact> 0.92785612E+07</totfact>
</mgrwt>
</event>
<event>
 4    1  0.7478314E+004  0.3004442E+02  0.7546771E-02  0.1597598E+00
         21   -1    0    0  503  502  0.00000000000E+00  0.00000000000E+00  0.16201338762E+02  0.16201338762E+02  0.00000000000E+00 0. -1.
         21   -1    0    0  501  503 -0.00000000000E+00 -0.00000000000E+00 -0.56044600399E+02  0.56044600399E+02  0.00000000000E+00 0. -1.
          3    1    1    2  501    0 -0.27661092558E+02 -0.11727359497E+02 -0.22689383647E+02  0.37649370945E+02  0.00000000000E+00 0.  1.
         -3    1    1    2    0  502  0.27661092558E+02  0.11727359497E+02 -0.17153877990E+02  0.34596568216E+02  0.00000000000E+00 0. -1.
<mgrwt>
<rscale>  2 0.30044417E+02</rscale>
<asrwt>0</asrwt>
<pdfrwt beam="1">  1       21 0.24925137E-02 0.30044417E+02</pdfrwt>
<pdfrwt beam="2">  1       21 0.86222462E-02 0.30044417E+02</pdfrwt>
<totfact> 0.67768837E+07</totfact>
</mgrwt>
</event>
<event>
 4    1  0.7478314E+004  0.2254389E+02  0.7546771E-02  0.1699012E+00
         21   -1    0    0  501  502  0.00000000000E+00  0.00000000000E+00  0.80141744078E+02  0.80141744078E+02  0.00000000000E+00 0. -1.
         21   -1    0    0  502  503 -0.00000000000E+00 -0.00000000000E+00 -0.67521524388E+01  0.67521524388E+01  0.00000000000E+00 0. -1.
          1    1    1    2  501    0  0.10190245325E+02  0.20109350367E+02  0.25981545887E+02  0.34398659838E+02  0.00000000000E+00 0.  1.
         -1    1    1    2    0  503 -0.10190245325E+02 -0.20109350367E+02  0.47408045752E+02  0.52495236679E+02  0.00000000000E+00 0. -1.
<mgrwt>
<rscale>  2 0.22543892E+02</rscale>
<asrwt>0</asrwt>
<pdfrwt beam="1">  1       21 0.12329498E-01 0.22543892E+02</pdfrwt>
<pdfrwt beam="2">  1       21 0.10387927E-02 0.22543892E+02</pdfrwt>
<totfact> 0.13222589E+08</totfact>
</mgrwt>
</event>
<event>
 4    1  0.7478314E+004  0.2916278E+02  0.7546771E-02  0.1607532E+00
         21   -1    0    0  503  502  0.00000000000E+00  0.00000000000E+00  0.23732175835E+02  0.23732175835E+02  0.00000000000E+00 0. -1.
         21   -1    0    0  501  503 -0.00000000000E+00 -0.00000000000E+00 -0.36065411208E+02  0.36065411208E+02  0.00000000000E+00 0. -1.
          5    1    1    2  501    0  0.14237035363E+02  0.25451414309E+02 -0.85509081987E+01  0.30390552764E+02  0.00000000000E+00 0. -1.
         -5    1    1    2    0  502 -0.14237035363E+02 -0.25451414309E+02 -0.37823271741E+01  0.29407034279E+02  0.00000000000E+00 0.  1.
<mgrwt>
<rscale>  2 0.29162779E+02</rscale>
<asrwt>0</asrwt>
<pdfrwt beam="1">  1       21 0.36511040E-02 0.29162779E+02</pdfrwt>
<pdfrwt beam="2">  1       21 0.55485248E-02 0.29162779E+02</pdfrwt>
<totfact> 0.75909120E+07</totfact>
</mgrwt>
</event>
<event>
 4    1  0.7478314E+004  0.2134647E+02  0.7546771E-02  0.1719806E+00
         21   -1    0    0  503  502  0.00000000000E+00  0.00000000000E+00  0.20598976973E+01  0.20598976973E+01  0.00000000000E+00 0. -1.
         21   -1    0    0  501  503 -0.00000000000E+00 -0.00000000000E+00 -0.23492540710E+03  0.23492540710E+03  0.00000000000E+00 0. -1.
          4    1    1    2  501    0  0.54418212952E+01 -0.20641177706E+02 -0.87802977434E+02  0.90360580356E+02  0.00000000000E+00 0. -1.
         -4    1    1    2    0  502 -0.54418212952E+01  0.20641177706E+02 -0.14506253197E+03  0.14662472444E+03  0.00000000000E+00 0.  1.
<mgrwt>
<rscale>  2 0.21346467E+02</rscale>
<asrwt>0</asrwt>
<pdfrwt beam="1">  1       21 0.31690730E-03 0.21346467E+02</pdfrwt>
<pdfrwt beam="2">  1       21 0.36142374E-01 0.21346467E+02</pdfrwt>
<totfact> 0.11399547E+08</totfact>
</mgrwt>
</event>
<event>
 4    1  0.7478314E+004  0.2875456E+02  0.7546771E-02  0.1612278E+00
         21   -1    0    0  503  502  0.00000000000E+00  0.00000000000E+00  0.28769510129E+02  0.28769510129E+02  0.00000000000E+00 0. -1.
         21   -1    0    0  501  503 -0.00000000000E+00 -0.00000000000E+00 -0.28822930465E+02  0.28822930465E+02  0.00000000000E+00 0. -1.
          4    1    1    2  501    0  0.28707284104E+02  0.16481788831E+01 -0.15749148599E+01  0.28797656347E+02  0.00000000000E+00 0. -1.
         -4    1    1    2    0  502 -0.28707284104E+02 -0.16481788831E+01  0.15214945243E+01  0.28794784247E+02  0.00000000000E+00 0.  1.
<mgrwt>
<rscale>  2 0.28754559E+02</rscale>
<asrwt>0</asrwt>
<pdfrwt beam="1">  1       21 0.44260785E-02 0.28754559E+02</pdfrwt>
<pdfrwt beam="2">  1       21 0.44342970E-02 0.28754559E+02</pdfrwt>
<totfact> 0.79827696E+07</totfact>
</mgrwt>
</event>
<event>
 4    1  0.7478314E+004  0.2843659E+02  0.7546771E-02  0.1616042E+00
         21   -1    0    0  501  502  0.00000000000E+00  0.00000000000E+00  0.30913524008E+02  0.30913524008E+02  0.00000000000E+00 0.  1.
         21   -1    0    0  502  503 -0.00000000000E+00 -0.00000000000E+00 -0.40307346304E+02  0.40307346304E+02  0.00000000000E+00 0.  1.
          1    1    1    2  501    0  0.17237836103E+02 -0.22616287350E+02 -0.25795413801E+02  0.38393265298E+02  0.00000000000E+00 0.  1.
         -1    1    1    2    0  503 -0.17237836103E+02  0.22616287350E+02  0.16401591505E+02  0.32827605014E+02  0.00000000000E+00 0. -1.
<mgrwt>
<rscale>  2 0.28436586E+02</rscale>
<asrwt>0</asrwt>
<pdfrwt beam="1">  1       21 0.47559268E-02 0.28436586E+02</pdfrwt>
<pdfrwt beam="2">  1       21 0.62011302E-02 0.28436586E+02</pdfrwt>
<totfact> 0.41372737E+07</totfact>
</mgrwt>
</event>
<event>
 4    1  0.7478314E+004  0.2981167E+02  0.7546771E-02  0.1600180E+00
         21   -1    0    0  503  502  0.00000000000E+00  0.00000000000E+00  0.71416692162E+03  0.71416692162E+03  0.00000000000E+00 0. -1.
         21   -1    0    0  501  503 -0.00000000000E+00 -0.00000000000E+00 -0.15580716759E+01  0.15580716759E+01  0.00000000000E+00 0. -1.
          2    1    1    2  501    0  0.14973225232E+02  0.25778638461E+02  0.19574545541E+03  0.19800257319E+03  0.00000000000E+00 0. -1.
         -2    1    1    2    0  502 -0.14973225232E+02 -0.25778638461E+02  0.51686339453E+03  0.51772242010E+03  0.00000000000E+00 0.  1.
<mgrwt>
<rscale>  2 0.29811670E+02</rscale>
<asrwt>0</asrwt>
<pdfrwt beam="1">  1       21 0.10987157E+00 0.29811670E+02</pdfrwt>
<pdfrwt beam="2">  1       21 0.23970391E-03 0.29811670E+02</pdfrwt>
<totfact> 0.19211095E+07</totfact>
</mgrwt>
</event>
<event>
 4    1  0.7478314E+004  0.2509478E+02  0.7546771E-02  0.1659644E+00
         21   -1    0    0  503  502  0.00000000000E+00  0.00000000000E+00  0.31325785066E+01  0.31325785066E+01  0.00000000000E+00 0. -1.
         21   -1    0    0  501  503 -0.00000000000E+00 -0.00000000000E+00 -0.31877337976E+03  0.31877337976E+03  0.00000000000E+00 0. -1.
          3    1    1    2  501    0 -0.13687537921E+02  0.21033294685E+02 -0.60001504341E+02  0.65037902048E+02  0.00000000000E+00 0.  1.
         -3    1    1    2    0  502  0.13687537921E+02 -0.21033294685E+02 -0.25563929691E+03  0.25686805622E+03  0.00000000000E+00 0. -1.
<mgrwt>
<rscale>  2 0.25094784E+02</rscale>
<asrwt>0</asrwt>
<pdfrwt beam="1">  1       21 0.48193558E-03 0.25094784E+02</pdfrwt>
<pdfrwt beam="2">  1       21 0.49042016E-01 0.25094784E+02</pdfrwt>
<totfact> 0.35938394E+07</totfact>
</mgrwt>
</event>
<event>
 4    1  0.7478314E+004  0.2774206E+02  0.7546771E-02  0.1624478E+00
         21   -1    0    0  501  502  0.00000000000E+00  0.00000000000E+00  0.41170112401E+02  0.41170112401E+02  0.00000000000E+00 0.  1.
         21   -1    0    0  502  503 -0.00000000000E+00 -0.00000000000E+00 -0.20432919388E+02  0.20432919388E+02  0.00000000000E+00 0.  1.
          1    1    1    2  501    0 -0.10696394612E+02 -0.25597050280E+02  0.13822382445E+01  0.27776472477E+02  0.00000000000E+00 0.  1.
         -1    1    1    2    0  503  0.10696394612E+02  0.25597050280E+02  0.19354954769E+02  0.33826559311E+02  0.00000000000E+00 0. -1.
<mgrwt>
<rscale>  2 0.27742059E+02</rscale>
<asrwt>0</asrwt>
<pdfrwt beam="1">  1       21 0.63338634E-02 0.27742059E+02</pdfrwt>
<pdfrwt beam="2">  1       21 0.31435261E-02 0.27742059E+02</pdfrwt>
<totfact> 0.76622397E+07</totfact>
</mgrwt>
</event>
<event>
 4    1  0.7478314E+004  0.2947953E+02  0.7546771E-02  0.1603914E+00
         21   -1    0    0  501  502  0.00000000000E+00  0.00000000000E+00  0.16731645251E+02  0.16731645251E+02  0.00000000000E+00 0. -1.
         21   -1    0    0  502  503 -0.00000000000E+00 -0.00000000000E+00 -0.62180930662E+02  0.62180930662E+02  0.00000000000E+00 0. -1.
          5    1    1    2  501    0 -0.24140118031E+02 -0.16920329549E+02 -0.67122654976E+01  0.30234043043E+02  0.00000000000E+00 0. -1.
         -5    1    1    2    0  503  0.24140118031E+02  0.16920329549E+02 -0.38737019913E+02  0.48678532870E+02  0.00000000000E+00 0.  1.
<mgrwt>
<rscale>  2 0.29479533E+02</rscale>
<asrwt>0</asrwt>
<pdfrwt beam="1">  1       21 0.25740993E-02 0.29479533E+02</pdfrwt>
<pdfrwt beam="2">  1       21 0.95662969E-02 0.29479533E+02</pdfrwt>
<totfact> 0.54000344E+07</totfact>
</mgrwt>
</event>
<event>
 4    1  0.7478314E+004  0.2409364E+02  0.7546771E-02  0.1674372E+00
         21   -1    0    0  501  502  0.00000000000E+00  0.00000000000E+00  0.72835583530E+02  0.72835583530E+02  0.00000000000E+00 0.  1.
         21   -1    0    0  502  503 -0.00000000000E+00 -0.00000000000E+00 -0.10550678679E+02  0.10550678679E+02  0.00000000000E+00 0.  1.
          4    1    1    2  501    0  0.22312665882E+02  0.90911062844E+01  0.10522529468E+02  0.26291194318E+02  0.00000000000E+00 0.  1.
         -4    1    1    2    0  503 -0.22312665882E+02 -0.90911062844E+01  0.51762375383E+02  0.57095067891E+02  0.00000000000E+00 0. -1.
<mgrwt>
<rscale>  2 0.24093636E+02</rscale>
<asrwt>0</asrwt>
<pdfrwt beam="1">  1       21 0.11205474E-01 0.24093636E+02</pdfrwt>
<pdfrwt beam="2">  1       21 0.16231814E-02 0.24093636E+02</pdfrwt>
<totfact> 0.80436114E+07</totfact>
</mgrwt>
</event>
<event>
 4    1  0.7478314E+004  0.2024379E+02  0.7546771E-02  0.1740523E+00
         21   -1    0    0  501  502  0.00000000000E+00  0.00000000000E+00  0.20273893129E+02  0.20273893129E+02  0.00000000000E+00 0. -1.
         21   -1    0    0  502  503 -0.00000000000E+00 -0.00000000000E+00 -0.21728023637E+02  0.21728023637E+02  0.00000000000E+00 0. -1.
          1    1    1    2  501    0 -0.44670633749E+01 -0.19744782021E+02 -0.62711971266E+01  0.21192899416E+02  0.00000000000E+00 0.  1.
         -1    1    1    2    0  503  0.44670633749E+01  0.19744782021E+02  0.48170666183E+01  0.20809017350E+02  0.00000000000E+00 0. -1.
<mgrwt>
<rscale>  2 0.20243791E+02</rscale>
<asrwt>0</asrwt>
<pdfrwt beam="1">  1       21 0.31190605E-02 0.20243791E+02</pdfrwt>
<pdfrwt beam="2">  1       21 0.33427729E-02 0.20243791E+02</pdfrwt>
<totfact> 0.19544952E+08</totfact>
</mgrwt>
</event>
<event>
 4    1  0.7478314E+004  0.2004367E+02  0.7546771E-02  0.1744461E+00
         21   -1    0    0  503  502  0.00000000000E+00  0.00000000000E+00  0.17851823735E+04  0.17851823735E+04  0.00000000000E+00 0. -1.
         21   -1    0    0  501  503 -0.00000000000E+00 -0.00000000000E+00 -0.23464295010E+00  0.23464295010E+00  0.00000000000E+00 0. -1.
          2    1    1    2  501    0 -0.14280320139E+02  0.14064887594E+02  0.71193663133E+03  0.71221872738E+03  0.00000000000E+00 0.  1.
         -2    1    1    2    0  502  0.14280320139E+02 -0.14064887594E+02  0.10730110992E+04  0.10731982891E+04  0.00000000000E+00 0. -1.
<mgrwt>
<rscale>  2 0.20043667E+02</rscale>
<asrwt>0</asrwt>
<pdfrwt beam="1">  1       21 0.27463257E+00 0.20043667E+02</pdfrwt>
<pdfrwt beam="2">  1       21 0.36100345E-04 0.20043667E+02</pdfrwt>
<totfact> 0.26818314E+07</totfact>
</mgrwt>
</event>
<event>
 4    1  0.7478314E+004  0.2933893E+02  0.7546771E-02  0.1605513E+00
         21   -1    0    0  501  502  0.00000000000E+00  0.00000000000E+00  0.21161513813E+02  0.21161513813E+02  0.00000000000E+00 0.  1.
         21   -1    0    0  502  503 -0.00000000000E+00 -0.00000000000E+00 -0.45578925504E+02  0.45578925504E+02  0.00000000000E+00 0.  1.
          4    1    1    2  501    0 -0.11753458428E+02  0.26881757690E+02 -0.23153059898E+02  0.37374280784E+02  0.00000000000E+00 0. -1.
         -4    1    1    2    0  503  0.11753458428E+02 -0.26881757690E+02 -0.12643517929E+01  0.29366158533E+02  0.00000000000E+00 0.  1.
<mgrwt>
<rscale>  2 0.29338928E+02</rscale>
<asrwt>0</asrwt>
<pdfrwt beam="1">  1       21 0.32556176E-02 0.29338928E+02</pdfrwt>
<pdfrwt beam="2">  1       21 0.70121423E-02 0.29338928E+02</pdfrwt>
<totfact> 0.62289433E+07</totfact>
</mgrwt>
</event>
<event>
 4    1  0.7478314E+004  0.2658030E+02  0.7546771E-02  0.1639289E+00
         21   -1    0    0  503  502  0.00000000000E+00  0.00000000000E+00  0.75148011287E+02  0.75148011287E+02  0.00000000000E+00 0. -1.
         21   -1    0    0  501  503 -0.00000000000E+00 -0.00000000000E+00 -0.94034319673E+01  0.94034319673E+01  0.00000000000E+00 0. -1.
          3    1    1    2  501    0  0.18374844924E+02 -0.19206182648E+02  0.32284007513E+02  0.41818291680E+02  0.00000000000E+00 0.  1.
         -3    1    1    2    0  502 -0.18374844924E+02  0.19206182648E+02  0.33460571807E+02  0.42733151575E+02  0.00000000000E+00 0. -1.
<mgrwt>
<rscale>  2 0.26580301E+02</rscale>
<asrwt>0</asrwt>
<pdfrwt beam="1">  1       21 0.11561232E-01 0.26580301E+02</pdfrwt>
<pdfrwt beam="2">  1       21 0.14466819E-02 0.26580301E+02</pdfrwt>
<totfact> 0.93338389E+07</totfact>
</mgrwt>
</event>
<event>
 4    1  0.7478314E+004  0.2028938E+02  0.7546771E-02  0.1739634E+00
         21   -1    0    0  501  502  0.00000000000E+00  0.00000000000E+00  0.86379114982E+02  0.86379114982E+02  0.00000000000E+00 0.  1.
         21   -1    0    0  502  503 -0.00000000000E+00 -0.00000000000E+00 -0.49640175108E+01  0.49640175108E+01  0.00000000000E+00 0.  1.
          3    1    1    2  501    0  0.20196074504E+02 -0.19436127685E+01  0.49835704988E+02  0.53807588197E+02  0.00000000000E+00 0. -1.
         -3    1    1    2    0  503 -0.20196074504E+02  0.19436127685E+01  0.31579392483E+02  0.37535544295E+02  0.00000000000E+00 0.  1.
<mgrwt>
<rscale>  2 0.20289383E+02</rscale>
<asrwt>0</asrwt>
<pdfrwt beam="1">  1       21 0.13289094E-01 0.20289383E+02</pdfrwt>
<pdfrwt beam="2">  1       21 0.76369506E-03 0.20289383E+02</pdfrwt>
<totfact> 0.17880932E+08</totfact>
</mgrwt>
</event>
<event>
 4    1  0.7478314E+004  0.2095500E+02  0.7546771E-02  0.1726977E+00
         21   -1    0    0  503  502  0.00000000000E+00  0.00000000000E+00  0.84313341681E+03  0.84313341681E+03  0.00000000000E+00 0.  1.
         21   -1    0    0  501  503 -0.00000000000E+00 -0.00000000000E+00 -0.52275852951E+00  0.52275852951E+00  0.00000000000E+00 0.  1.
          2    1    1    2  501    0 -0.13532869317E+02 -0.15999177411E+02  0.39555103430E+03  0.39610570933E+03  0.00000000000E+00 0. -1.
         -2    1    1    2    0  502  0.13532869317E+02  0.15999177411E+02  0.44705962398E+03  0.44755046601E+03  0.00000000000E+00 0.  1.
<mgrwt>
<rscale>  2 0.20955005E+02</rscale>
<asrwt>0</asrwt>
<pdfrwt beam="1">  1       21 0.12971174E+00 0.20955005E+02</pdfrwt>
<pdfrwt beam="2">  1       21 0.80425064E-04 0.20955005E+02</pdfrwt>
<totfact> 0.59213778E+07</totfact>
</mgrwt>
</event>
<event>
 4    1  0.7478314E+004  0.2562283E+02  0.7546771E-02  0.1652214E+00
         21   -1    0    0  503  502  0.00000000000E+00  0.00000000000E+00  0.32881002120E+02  0.32881002120E+02  0.00000000000E+00 0.  1.
         21   -1    0    0  501  503 -0.00000000000E+00 -0.00000000000E+00 -0.46792176749E+02  0.46792176749E+02  0.00000000000E+00 0.  1.
          1    1    1    2  501    0 -0.24462981283E+01  0.25505787315E+02 -0.37118144119E+02  0.45103061802E+02  0.00000000000E+00 0.  1.
         -1    1    1    2    0  502  0.24462981283E+01 -0.25505787315E+02  0.23206969490E+02  0.34570117066E+02  0.00000000000E+00 0. -1.
<mgrwt>
<rscale>  2 0.25622833E+02</rscale>
<asrwt>0</asrwt>
<pdfrwt beam="1">  1       21 0.50586157E-02 0.25622833E+02</pdfrwt>
<pdfrwt beam="2">  1       21 0.71987964E-02 0.25622833E+02</pdfrwt>
<totfact> 0.28736268E+07</totfact>
</mgrwt>
</event>
<event>
 4    1  0.7478314E+004  0.2451854E+02  0.7546771E-02  0.1668015E+00
         21   -1    0    0  503  502  0.00000000000E+00  0.00000000000E+00  0.66118911333E+03  0.66118911333E+03  0.00000000000E+00 0. -1.
         21   -1    0    0  501  503 -0.00000000000E+00 -0.00000000000E+00 -0.95161072492E+00  0.95161072492E+00  0.00000000000E+00 0. -1.
          5    1    1    2  501    0  0.24504960006E+02 -0.81592499493E+00  0.40000386552E+03  0.40075460225E+03  0.00000000000E+00 0. -1.
         -5    1    1    2    0  502 -0.24504960006E+02  0.81592499493E+00  0.26023363709E+03  0.26138612180E+03  0.00000000000E+00 0.  1.
<mgrwt>
<rscale>  2 0.24518540E+02</rscale>
<asrwt>0</asrwt>
<pdfrwt beam="1">  1       21 0.10172104E+00 0.24518540E+02</pdfrwt>
<pdfrwt beam="2">  1       21 0.14640218E-03 0.24518540E+02</pdfrwt>
<totfact> 0.45013032E+07</totfact>
</mgrwt>
</event>
<event>
 4    1  0.7478314E+004  0.2251039E+02  0.7546771E-02  0.1699572E+00
         21   -1    0    0  501  502  0.00000000000E+00  0.00000000000E+00  0.71855223866E+01  0.71855223866E+01  0.00000000000E+00 0. -1.
         21   -1    0    0  502  503 -0.00000000000E+00 -0.00000000000E+00 -0.70528223369E+02  0.70528223369E+02  0.00000000000E+00 0. -1.
          1    1    1    2  501    0 -0.22503805300E+02  0.54444948445E+00 -0.32109545671E+02  0.39214035770E+02  0.00000000000E+00 0.  1.
         -1    1    1    2    0  503  0.22503805300E+02 -0.54444948445E+00 -0.31233155312E+02  0.38499709985E+02  0.00000000000E+00 0. -1.
<mgrwt>
<rscale>  2 0.22510390E+02</rscale>
<asrwt>0</asrwt>
<pdfrwt beam="1">  1       21 0.11054650E-02 0.22510390E+02</pdfrwt>
<pdfrwt beam="2">  1       21 0.10850496E-01 0.22510390E+02</pdfrwt>
<totfact> 0.14897167E+08</totfact>
</mgrwt>
</event>
<event>
 4    1  0.7478314E+004  0.2190742E+02  0.7546771E-02  0.1709858E+00
         21   -1    0    0  501  502  0.00000000000E+00  0.00000000000E+00  0.65811633039E+02  0.65811633039E+02  0.00000000000E+00 0. -1.
         21   -1    0    0  502  503 -0.00000000000E+00 -0.00000000000E+00 -0.76409778106E+01  0.76409778106E+01  0.00000000000E+00 0. -1.
          3    1    1    2  501    0 -0.14339571208E+02 -0.16562359732E+02  0.21242818494E+02  0.30515445268E+02  0.00000000000E+00 0. -1.
         -3    1    1    2    0  503  0.14339571208E+02  0.16562359732E+02  0.36927836734E+02  0.42937165582E+02  0.00000000000E+00 0.  1.
<mgrwt>
<rscale>  2 0.21907420E+02</rscale>
<asrwt>0</asrwt>
<pdfrwt beam="1">  1       21 0.10124866E-01 0.21907420E+02</pdfrwt>
<pdfrwt beam="2">  1       21 0.11755351E-02 0.21907420E+02</pdfrwt>
<totfact> 0.15106561E+08</totfact>
</mgrwt>
</event>
<event>
 4    1  0.7478314E+004  0.2708198E+02  0.7546771E-02  0.1632781E+00
         21   -1    0    0  501  502  0.00000000000E+00  0.00000000000E+00  0.34857194774E+01  0.34857194774E+01  0.00000000000E+00 0. -1.
         21   -1    0    0  502  503 -0.00000000000E+00 -0.00000000000E+00 -0.22601195444E+03  0.22601195444E+03  0.00000000000E+00 0. -1.
          4    1    1    2  501    0  0.10372932409E+02  0.25016710787E+02 -0.14141114288E+03  0.14398105735E+03  0.00000000000E+00 0. -1.
         -4    1    1    2    0  503 -0.10372932409E+02 -0.25016710787E+02 -0.81115092089E+02  0.85516616573E+02  0.00000000000E+00 0.  1.
<mgrwt>
<rscale>  2 0.27081978E+02</rscale>
<asrwt>0</asrwt>
<pdfrwt beam="1">  1       21 0.53626457E-03 0.27081978E+02</pdfrwt>
<pdfrwt beam="2">  1       21 0.34771068E-01 0.27081978E+02</pdfrwt>
<totfact> 0.60014945E+07</totfact>
</mgrwt>
</event>
<event>
 4    1  0.7478314E+004  0.2441952E+02  0.7546771E-02  0.1669482E+00
         21   -1    0    0  503  502  0.00000000000E+00  0.00000000000E+00  0.74775325397E+01  0.74775325397E+01  0.00000000000E+00 0.  1.
         21   -1    0    0  501  503 -0.00000000000E+00 -0.00000000000E+00 -0.15088903519E+03  0.15088903519E+03  0.00000000000E+00 0.  1.
          5    1    1    2  501    0 -0.24306138936E+02 -0.23504542966E+01 -0.17334804376E+02  0.29946760561E+02  0.00000000000E+00 0. -1.
         -5    1    1    2    0  502  0.24306138936E+02  0.23504542966E+01 -0.12607669828E+03  0.12841980717E+03  0.00000000000E+00 0.  1.
<mgrwt>
<rscale>  2 0.24419521E+02</rscale>
<asrwt>0</asrwt>
<pdfrwt beam="1">  1       21 0.11503896E-02 0.24419521E+02</pdfrwt>
<pdfrwt beam="2">  1       21 0.23213697E-01 0.24419521E+02</pdfrwt>
<totfact> 0.38948498E+07</totfact>
</mgrwt>
</event>
<event>
 4    1  0.7478314E+004  0.2045329E+02  0.7546771E-02  0.1736461E+00
         21   -1    0    0  503  502  0.00000000000E+00  0.00000000000E+00  0.26984887037E+00  0.26984887037E+00  0.00000000000E+00 0. -1.
         21   -1    0    0  501  503 -0.00000000000E+00 -0.00000000000E+00 -0.17363118152E+04  0.17363118152E+04  0.00000000000E+00 0. -1.
          5    1    1    2  501    0  0.25707061564E+01 -0.20291097848E+02 -0.11522463321E+04  0.11524278489E+04  0.00000000000E+00 0. -1.
         -5    1    1    2    0  502 -0.25707061564E+01  0.20291097848E+02 -0.58379563430E+03  0.58415381519E+03  0.00000000000E+00 0.  1.
<mgrwt>
<rscale>  2 0.20453293E+02</rscale>
<asrwt>0</asrwt>
<pdfrwt beam="1">  1       21 0.41514977E-04 0.20453293E+02</pdfrwt>
<pdfrwt beam="2">  1       21 0.26712640E+00 0.20453293E+02</pdfrwt>
<totfact> 0.24012547E+07</totfact>
</mgrwt>
</event>
<event>
 4    1  0.7478314E+004  0.2947863E+02  0.7546771E-02  0.1603924E+00
         21   -1    0    0  501  502  0.00000000000E+00  0.00000000000E+00  0.12606754163E+02  0.12606754163E+02  0.00000000000E+00 0. -1.
         21   -1    0    0  502  503 -0.00000000000E+00 -0.00000000000E+00 -0.73196055487E+02  0.73196055487E+02  0.00000000000E+00 0. -1.
          3    1    1    2  501    0 -0.10038527437E+02  0.27716733906E+02 -0.40651257185E+02  0.50214679948E+02  0.00000000000E+00 0.  1.
         -3    1    1    2    0  503  0.10038527437E+02 -0.27716733906E+02 -0.19938044139E+02  0.35588129701E+02  0.00000000000E+00 0. -1.
<mgrwt>
<rscale>  2 0.29478626E+02</rscale>
<asrwt>0</asrwt>
<pdfrwt beam="1">  1       21 0.19395007E-02 0.29478626E+02</pdfrwt>
<pdfrwt beam="2">  1       21 0.11260931E-01 0.29478626E+02</pdfrwt>
<totfact> 0.63801852E+07</totfact>
</mgrwt>
</event>
<event>
 4    1  0.7478314E+004  0.2808806E+02  0.7546771E-02  0.1620238E+00
         21   -1    0    0  501  502  0.00000000000E+00  0.00000000000E+00  0.11940625097E+01  0.11940625097E+01  0.00000000000E+00 0.  1.
         21   -1    0    0  502  503 -0.00000000000E+00 -0.00000000000E+00 -0.66075484315E+03  0.66075484315E+03  0.00000000000E+00 0.  1.
          2    1    1    2  501    0 -0.47615721984E+01  0.27681521755E+02 -0.32732650346E+03  0.32852941890E+03  0.00000000000E+00 0. -1.
         -2    1    1    2    0  503  0.47615721984E+01 -0.27681521755E+02 -0.33223427718E+03  0.33341948675E+03  0.00000000000E+00 0.  1.
<mgrwt>
<rscale>  2 0.28088062E+02</rscale>
<asrwt>0</asrwt>
<pdfrwt beam="1">  1       21 0.18370178E-03 0.28088062E+02</pdfrwt>
<pdfrwt beam="2">  1       21 0.10165467E+00 0.28088062E+02</pdfrwt>
<totfact> 0.33343004E+07</totfact>
</mgrwt>
</event>
<event>
 4    1  0.7478314E+004  0.2014975E+02  0.7546771E-02  0.1742366E+00
         21   -1    0    0  503  502  0.00000000000E+00  0.00000000000E+00  0.12607341778E+02  0.12607341778E+02  0.00000000000E+00 0. -1.
         21   -1    0    0  501  503 -0.00000000000E+00 -0.00000000000E+00 -0.48689704439E+02  0.48689704439E+02  0.00000000000E+00 0. -1.
          2    1    1    2  501    0  0.60906086631E+01  0.19207209005E+02 -0.35874777628E+02  0.41146227792E+02  0.00000000000E+00 0. -1.
         -2    1    1    2    0  502 -0.60906086631E+01 -0.19207209005E+02 -0.20758503369E+00  0.20150818425E+02  0.00000000000E+00 0.  1.
<mgrwt>
<rscale>  2 0.20149749E+02</rscale>
<asrwt>0</asrwt>
<pdfrwt beam="1">  1       21 0.19395910E-02 0.20149749E+02</pdfrwt>
<pdfrwt beam="2">  1       21 0.74907239E-02 0.20149749E+02</pdfrwt>
<totfact> 0.11283578E+08</totfact>
</mgrwt>
</event>
<event>
 4    1  0.7478314E+004  0.2362677E+02  0.7546771E-02  0.1681547E+00
         21   -1    0    0  503  502  0.00000000000E+00  0.00000000000E+00  0.72465838330E+00  0.72465838330E+00  0.00000000000E+00 0.  1.
         21   -1    0    0  501  503 -0.00000000000E+00 -0.00000000000E+00 -0.87347818413E+03  0.87347818413E+03  0.00000000000E+00 0.  1.
          2    1    1    2  501    0 -0.22747462033E+02 -0.63856931259E+01 -0.58658465527E+03  0.58706028813E+03  0.00000000000E+00 0.  1.
         -2    1    1    2    0  502  0.22747462033E+02  0.63856931259E+01 -0.28616887048E+03  0.28714255439E+03  0.00000000000E+00 0. -1.
<mgrwt>
<rscale>  2 0.23626767E+02</rscale>
<asrwt>0</asrwt>
<pdfrwt beam="1">  1       21 0.11148525E-03 0.23626767E+02</pdfrwt>
<pdfrwt beam="2">  1       21 0.13438204E+00 0.23626767E+02</pdfrwt>
<totfact> 0.35189875E+07</totfact>
</mgrwt>
</event>
<event>
 4    1  0.7478314E+004  0.2501437E+02  0.7546771E-02  0.1660796E+00
         21   -1    0    0  503  502  0.00000000000E+00  0.00000000000E+00  0.45438601745E+01  0.45438601745E+01  0.00000000000E+00 0. -1.
         21   -1    0    0  501  503 -0.00000000000E+00 -0.00000000000E+00 -0.14900483531E+03  0.14900483531E+03  0.00000000000E+00 0. -1.
          4    1    1    2  501    0 -0.23946951763E+02  0.72292577086E+01 -0.93371459086E+02  0.96664099011E+02  0.00000000000E+00 0. -1.
         -4    1    1    2    0  502  0.23946951763E+02 -0.72292577086E+01 -0.51089516047E+02  0.56884596471E+02  0.00000000000E+00 0.  1.
<mgrwt>
<rscale>  2 0.25014369E+02</rscale>
<asrwt>0</asrwt>
<pdfrwt beam="1">  1       21 0.69905546E-03 0.25014369E+02</pdfrwt>
<pdfrwt beam="2">  1       21 0.22923819E-01 0.25014369E+02</pdfrwt>
<totfact> 0.84606914E+07</totfact>
</mgrwt>
</event>
<event>
 4    1  0.7478314E+004  0.2219643E+02  0.7546771E-02  0.1704877E+00
         21   -1    0    0  501  502  0.00000000000E+00  0.00000000000E+00  0.19480327011E+03  0.19480327011E+03  0.00000000000E+00 0.  1.
         21   -1    0    0  502  503 -0.00000000000E+00 -0.00000000000E+00 -0.25318561570E+01  0.25318561570E+01  0.00000000000E+00 0.  1.
          4    1    1    2  501    0 -0.18916222352E+02 -0.11612846410E+02  0.99376786782E+02  0.10182547530E+03  0.00000000000E+00 0.  1.
         -4    1    1    2    0  503  0.18916222352E+02  0.11612846410E+02  0.92894627169E+02  0.95509650961E+02  0.00000000000E+00 0. -1.
<mgrwt>
<rscale>  2 0.22196434E+02</rscale>
<asrwt>0</asrwt>
<pdfrwt beam="1">  1       21 0.29969722E-01 0.22196434E+02</pdfrwt>
<pdfrwt beam="2">  1       21 0.38951648E-03 0.22196434E+02</pdfrwt>
<totfact> 0.12022747E+08</totfact>
</mgrwt>
</event>
<event>
 4    1  0.7478314E+004  0.4204574E+02  0.7546771E-02  0.1493675E+00
         21   -1    0    0  501  502  0.00000000000E+00  0.00000000000E+00  0.52789152476E+02  0.52789152476E+02  0.00000000000E+00 0. -1.
         21   -1    0    0  502  503 -0.00000000000E+00 -0.00000000000E+00 -0.36166529152E+02  0.36166529152E+02  0.00000000000E+00 0. -1.
          5    1    1    2  501    0  0.42011901838E+02 -0.16865113109E+01 -0.37911962353E+01  0.42216316577E+02  0.00000000000E+00 0. -1.
         -5    1    1    2    0  503 -0.42011901838E+02  0.16865113109E+01  0.20413819559E+02  0.46739365051E+02  0.00000000000E+00 0.  1.
<mgrwt>
<rscale>  2 0.42045740E+02</rscale>
<asrwt>0</asrwt>
<pdfrwt beam="1">  1       21 0.81214081E-02 0.42045740E+02</pdfrwt>
<pdfrwt beam="2">  1       21 0.55640814E-02 0.42045740E+02</pdfrwt>
<totfact> 0.22171378E+07</totfact>
</mgrwt>
</event>
<event>
 4    1  0.7478314E+004  0.4284351E+02  0.7546771E-02  0.1488271E+00
         21   -1    0    0  501  502  0.00000000000E+00  0.00000000000E+00  0.15570268699E+03  0.15570268699E+03  0.00000000000E+00 0.  1.
         21   -1    0    0  502  503 -0.00000000000E+00 -0.00000000000E+00 -0.12779827653E+02  0.12779827653E+02  0.00000000000E+00 0.  1.
          4    1    1    2  501    0 -0.35365912811E+02  0.24183022822E+02  0.94918789421E+02  0.10414001617E+03  0.00000000000E+00 0. -1.
         -4    1    1    2    0  503  0.35365912811E+02 -0.24183022822E+02  0.48004069915E+02  0.64342498476E+02  0.00000000000E+00 0.  1.
<mgrwt>
<rscale>  2 0.42843510E+02</rscale>
<asrwt>0</asrwt>
<pdfrwt beam="1">  1       21 0.23954258E-01 0.42843510E+02</pdfrwt>
<pdfrwt beam="2">  1       21 0.19661274E-02 0.42843510E+02</pdfrwt>
<totfact> 0.17915877E+07</totfact>
</mgrwt>
</event>
<event>
 4    1  0.7478314E+004  0.4112812E+02  0.7546771E-02  0.1500070E+00
         21   -1    0    0  501  502  0.00000000000E+00  0.00000000000E+00  0.98064128680E+02  0.98064128680E+02  0.00000000000E+00 0.  1.
         21   -1    0    0  502  503 -0.00000000000E+00 -0.00000000000E+00 -0.22693514366E+02  0.22693514366E+02  0.00000000000E+00 0.  1.
          1    1    1    2  501    0 -0.36592348227E+02 -0.18775580599E+02  0.67259135266E+02  0.78837260558E+02  0.00000000000E+00 0.  1.
         -1    1    1    2    0  503  0.36592348227E+02  0.18775580599E+02  0.81114790487E+01  0.41920382488E+02  0.00000000000E+00 0. -1.
<mgrwt>
<rscale>  2 0.41128121E+02</rscale>
<asrwt>0</asrwt>
<pdfrwt beam="1">  1       21 0.15086789E-01 0.41128121E+02</pdfrwt>
<pdfrwt beam="2">  1       21 0.34913099E-02 0.41128121E+02</pdfrwt>
<totfact> 0.16336956E+07</totfact>
</mgrwt>
</event>
<event>
 4    1  0.7478314E+004  0.2827549E+02  0.7546771E-02  0.1617972E+00
         21   -1    0    0  503  502  0.00000000000E+00  0.00000000000E+00  0.14206601970E+03  0.14206601970E+03  0.00000000000E+00 0. -1.
         21   -1    0    0  501  503 -0.00000000000E+00 -0.00000000000E+00 -0.61559153108E+01  0.61559153108E+01  0.00000000000E+00 0. -1.
          2    1    1    2  501    0  0.20833693952E+02 -0.19117022180E+02  0.89664375310E+02  0.94017038564E+02  0.00000000000E+00 0. -1.
         -2    1    1    2    0  502 -0.20833693952E+02  0.19117022180E+02  0.46245729080E+02  0.54204896447E+02  0.00000000000E+00 0.  1.
<mgrwt>
<rscale>  2 0.28275490E+02</rscale>
<asrwt>0</asrwt>
<pdfrwt beam="1">  1       21 0.21856308E-01 0.28275490E+02</pdfrwt>
<pdfrwt beam="2">  1       21 0.94706400E-03 0.28275490E+02</pdfrwt>
<totfact> 0.60117377E+07</totfact>
</mgrwt>
</event>
<event>
 4    1  0.7478314E+004  0.3202571E+02  0.7546771E-02  0.1576719E+00
         21   -1    0    0  503  502  0.00000000000E+00  0.00000000000E+00  0.22871494162E+01  0.22871494162E+01  0.00000000000E+00 0.  1.
         21   -1    0    0  501  503 -0.00000000000E+00 -0.00000000000E+00 -0.47829674503E+03  0.47829674503E+03  0.00000000000E+00 0.  1.
          4    1    1    2  501    0 -0.99276823067E-01  0.32025559298E+02 -0.17796748997E+03  0.18082608714E+03  0.00000000000E+00 0.  1.
         -4    1    1    2    0  502  0.99276823067E-01 -0.32025559298E+02 -0.29804210565E+03  0.29975780731E+03  0.00000000000E+00 0. -1.
<mgrwt>
<rscale>  2 0.32025713E+02</rscale>
<asrwt>0</asrwt>
<pdfrwt beam="1">  1       21 0.35186954E-03 0.32025713E+02</pdfrwt>
<pdfrwt beam="2">  1       21 0.73584032E-01 0.32025713E+02</pdfrwt>
<totfact> 0.26413847E+07</totfact>
</mgrwt>
</event>
<event>
 4    1  0.7478314E+004  0.2786033E+02  0.7546771E-02  0.1623020E+00
         21   -1    0    0  503  502  0.00000000000E+00  0.00000000000E+00  0.60568417805E+02  0.60568417805E+02  0.00000000000E+00 0. -1.
         21   -1    0    0  501  503 -0.00000000000E+00 -0.00000000000E+00 -0.12886891244E+02  0.12886891244E+02  0.00000000000E+00 0. -1.
          2    1    1    2  501    0 -0.25604819769E+02  0.10981400112E+02  0.26579651743E+02  0.38505529871E+02  0.00000000000E+00 0. -1.
         -2    1    1    2    0  502  0.25604819769E+02 -0.10981400112E+02  0.21101874818E+02  0.34949779179E+02  0.00000000000E+00 0.  1.
<mgrwt>
<rscale>  2 0.27860329E+02</rscale>
<asrwt>0</asrwt>
<pdfrwt beam="1">  1       21 0.93182180E-02 0.27860329E+02</pdfrwt>
<pdfrwt beam="2">  1       21 0.19825987E-02 0.27860329E+02</pdfrwt>
<totfact> 0.83471715E+07</totfact>
</mgrwt>
</event>
<event>
 4    1  0.7478314E+004  0.2047661E+02  0.7546771E-02  0.1736013E+00
         21   -1    0    0  501  502  0.00000000000E+00  0.00000000000E+00  0.24258703329E+03  0.24258703329E+03  0.00000000000E+00 0.  1.
         21   -1    0    0  502  503 -0.00000000000E+00 -0.00000000000E+00 -0.24803814040E+01  0.24803814040E+01  0.00000000000E+00 0.  1.
          4    1    1    2  501    0 -0.89247795542E+01 -0.18429325949E+02  0.18752084684E+03  0.18863552090E+03  0.00000000000E+00 0.  1.
         -4    1    1    2    0  503  0.89247795542E+01  0.18429325949E+02  0.52585805048E+02  0.56431893798E+02  0.00000000000E+00 0. -1.
<mgrwt>
<rscale>  2 0.20476615E+02</rscale>
<asrwt>0</asrwt>
<pdfrwt beam="1">  1       21 0.37321063E-01 0.20476615E+02</pdfrwt>
<pdfrwt beam="2">  1       21 0.38159733E-03 0.20476615E+02</pdfrwt>
<totfact> 0.81009130E+07</totfact>
</mgrwt>
</event>
<event>
 4    1  0.7478314E+004  0.2210814E+02  0.7546771E-02  0.1706388E+00
         21   -1    0    0  501  502  0.00000000000E+00  0.00000000000E+00  0.83233837469E+00  0.83233837469E+00  0.00000000000E+00 0.  1.
         21   -1    0    0  502  503 -0.00000000000E+00 -0.00000000000E+00 -0.59759339515E+03  0.59759339515E+03  0.00000000000E+00 0.  1.
          2    1    1    2  501    0 -0.99718792556E+01  0.19731488549E+02 -0.25896836558E+03  0.25991033913E+03  0.00000000000E+00 0.  1.
         -2    1    1    2    0  503  0.99718792556E+01 -0.19731488549E+02 -0.33779269119E+03  0.33851539439E+03  0.00000000000E+00 0. -1.
<mgrwt>
<rscale>  2 0.22108144E+02</rscale>
<asrwt>0</asrwt>
<pdfrwt beam="1">  1       21 0.12805202E-03 0.22108144E+02</pdfrwt>
<pdfrwt beam="2">  1       21 0.91937474E-01 0.22108144E+02</pdfrwt>
<totfact> 0.66406847E+07</totfact>
</mgrwt>
</event>
<event>
 4    1  0.7478314E+004  0.2196995E+02  0.7546771E-02  0.1708772E+00
         21   -1    0    0  501  502  0.00000000000E+00  0.00000000000E+00  0.13876402323E+02  0.13876402323E+02  0.00000000000E+00 0. -1.
         21   -1    0    0  502  503 -0.00000000000E+00 -0.00000000000E+00 -0.38546344172E+02  0.38546344172E+02  0.00000000000E+00 0. -1.
          2    1    1    2  501    0 -0.21054407099E+02 -0.62761916168E+01 -0.41461816170E+01  0.22357760655E+02  0.00000000000E+00 0.  1.
         -2    1    1    2    0  503  0.21054407099E+02  0.62761916168E+01 -0.20523760233E+02  0.30064985840E+02  0.00000000000E+00 0. -1.
<mgrwt>
<rscale>  2 0.21969949E+02</rscale>
<asrwt>0</asrwt>
<pdfrwt beam="1">  1       21 0.21348312E-02 0.21969949E+02</pdfrwt>
<pdfrwt beam="2">  1       21 0.59302067E-02 0.21969949E+02</pdfrwt>
<totfact> 0.14567419E+08</totfact>
</mgrwt>
</event>
<event>
 4    1  0.7478314E+004  0.2193488E+02  0.7546771E-02  0.1709381E+00
         21   -1    0    0  503  502  0.00000000000E+00  0.00000000000E+00  0.45783964369E+01  0.45783964369E+01  0.00000000000E+00 0.  1.
         21   -1    0    0  501  503 -0.00000000000E+00 -0.00000000000E+00 -0.16638864737E+03  0.16638864737E+03  0.00000000000E+00 0.  1.
          5    1    1    2  501    0  0.21255687253E+02  0.54161688961E+01 -0.29019204304E+02  0.36376549377E+02  0.00000000000E+00 0. -1.
         -5    1    1    2    0  502 -0.21255687253E+02 -0.54161688961E+01 -0.13279104663E+03  0.13459049443E+03  0.00000000000E+00 0.  1.
<mgrwt>
<rscale>  2 0.21934884E+02</rscale>
<asrwt>0</asrwt>
<pdfrwt beam="1">  1       21 0.70436856E-03 0.21934884E+02</pdfrwt>
<pdfrwt beam="2">  1       21 0.25598258E-01 0.21934884E+02</pdfrwt>
<totfact> 0.66444764E+07</totfact>
</mgrwt>
</event>
<event>
 4    1  0.7478314E+004  0.2616349E+02  0.7546771E-02  0.1644831E+00
         21   -1    0    0  501  502  0.00000000000E+00  0.00000000000E+00  0.36409131914E+03  0.36409131914E+03  0.00000000000E+00 0.  1.
         21   -1    0    0  502  503 -0.00000000000E+00 -0.00000000000E+00 -0.21070210570E+01  0.21070210570E+01  0.00000000000E+00 0.  1.
          1    1    1    2  501    0 -0.70892600814E+01 -0.25184733340E+02  0.24108025499E+03  0.24249580975E+03  0.00000000000E+00 0. -1.
         -1    1    1    2    0  503  0.70892600814E+01  0.25184733340E+02  0.12090404309E+03  0.12370253044E+03  0.00000000000E+00 0.  1.
<mgrwt>
<rscale>  2 0.26163494E+02</rscale>
<asrwt>0</asrwt>
<pdfrwt beam="1">  1       21 0.56013999E-01 0.26163494E+02</pdfrwt>
<pdfrwt beam="2">  1       21 0.32415737E-03 0.26163494E+02</pdfrwt>
<totfact> 0.50046302E+07</totfact>
</mgrwt>
</event>
<event>
 4    1  0.7478314E+004  0.2391268E+02  0.7546771E-02  0.1677129E+00
         21   -1    0    0  501  502  0.00000000000E+00  0.00000000000E+00  0.16448827516E+01  0.16448827516E+01  0.00000000000E+00 0.  1.
         21   -1    0    0  502  503 -0.00000000000E+00 -0.00000000000E+00 -0.36651815593E+03  0.36651815593E+03  0.00000000000E+00 0.  1.
          2    1    1    2  501    0  0.23179862204E+02 -0.58745368145E+01 -0.22422141032E+03  0.22549292016E+03  0.00000000000E+00 0.  1.
         -2    1    1    2    0  503 -0.23179862204E+02  0.58745368145E+01 -0.14065186285E+03  0.14267011852E+03  0.00000000000E+00 0. -1.
<mgrwt>
<rscale>  2 0.23912679E+02</rscale>
<asrwt>0</asrwt>
<pdfrwt beam="1">  1       21 0.25305886E-03 0.23912679E+02</pdfrwt>
<pdfrwt beam="2">  1       21 0.56387414E-01 0.23912679E+02</pdfrwt>
<totfact> 0.69468561E+07</totfact>
</mgrwt>
</event>
<event>
 4    1  0.7478314E+004  0.2827841E+02  0.7546771E-02  0.1617937E+00
         21   -1    0    0  501  502  0.00000000000E+00  0.00000000000E+00  0.13485397343E+03  0.13485397343E+03  0.00000000000E+00 0.  1.
         21   -1    0    0  502  503 -0.00000000000E+00 -0.00000000000E+00 -0.82645388188E+01  0.82645388188E+01  0.00000000000E+00 0.  1.
          5    1    1    2  501    0  0.25013767208E+02  0.13190134860E+02  0.25261068602E+02  0.37918198724E+02  0.00000000000E+00 0. -1.
         -5    1    1    2    0  503 -0.25013767208E+02 -0.13190134860E+02  0.10132836601E+03  0.10520031352E+03  0.00000000000E+00 0.  1.
<mgrwt>
<rscale>  2 0.28278405E+02</rscale>
<asrwt>0</asrwt>
<pdfrwt beam="1">  1       21 0.20746763E-01 0.28278405E+02</pdfrwt>
<pdfrwt beam="2">  1       21 0.12714676E-02 0.28278405E+02</pdfrwt>
<totfact> 0.42173398E+07</totfact>
</mgrwt>
</event>
<event>
 4    1  0.7478314E+004  0.2565697E+02  0.7546771E-02  0.1651741E+00
         21   -1    0    0  501  502  0.00000000000E+00  0.00000000000E+00  0.51109487686E+02  0.51109487686E+02  0.00000000000E+00 0. -1.
         21   -1    0    0  502  503 -0.00000000000E+00 -0.00000000000E+00 -0.13827551520E+02  0.13827551520E+02  0.00000000000E+00 0. -1.
          1    1    1    2  501    0 -0.25102596505E+02 -0.53047142836E+01  0.10140644634E+02  0.27588276831E+02  0.00000000000E+00 0.  1.
         -1    1    1    2    0  503  0.25102596505E+02  0.53047142836E+01  0.27141291532E+02  0.37348762375E+02  0.00000000000E+00 0. -1.
<mgrwt>
<rscale>  2 0.25656975E+02</rscale>
<asrwt>0</asrwt>
<pdfrwt beam="1">  1       21 0.78629980E-02 0.25656975E+02</pdfrwt>
<pdfrwt beam="2">  1       21 0.21273156E-02 0.25656975E+02</pdfrwt>
<totfact> 0.96969257E+07</totfact>
</mgrwt>
</event>
<event>
 4    1  0.7478314E+004  0.2693175E+02  0.7546771E-02  0.1634711E+00
         21   -1    0    0  501  502  0.00000000000E+00  0.00000000000E+00  0.23455410361E+02  0.23455410361E+02  0.00000000000E+00 0.  1.
         21   -1    0    0  502  503 -0.00000000000E+00 -0.00000000000E+00 -0.30950263772E+02  0.30950263772E+02  0.00000000000E+00 0.  1.
          1    1    1    2  501    0 -0.14374661540E+02 -0.22774726519E+02 -0.45501111817E+01  0.27313413814E+02  0.00000000000E+00 0. -1.
         -1    1    1    2    0  503  0.14374661540E+02  0.22774726519E+02 -0.29447422295E+01  0.27092260319E+02  0.00000000000E+00 0.  1.
<mgrwt>
<rscale>  2 0.26931748E+02</rscale>
<asrwt>0</asrwt>
<pdfrwt beam="1">  1       21 0.36085247E-02 0.26931748E+02</pdfrwt>
<pdfrwt beam="2">  1       21 0.47615790E-02 0.26931748E+02</pdfrwt>
<totfact> 0.96877966E+07</totfact>
</mgrwt>
</event>
<event>
 4    1  0.7478314E+004  0.3690491E+02  0.7546771E-02  0.1532307E+00
         21   -1    0    0  501  502  0.00000000000E+00  0.00000000000E+00  0.19647263834E+01  0.19647263834E+01  0.00000000000E+00 0.  1.
         21   -1    0    0  502  503 -0.00000000000E+00 -0.00000000000E+00 -0.69371372036E+03  0.69371372036E+03  0.00000000000E+00 0.  1.
          1    1    1    2  501    0  0.33140291990E+02  0.16238647334E+02 -0.33652341699E+03  0.33854096178E+03  0.00000000000E+00 0. -1.
         -1    1    1    2    0  503 -0.33140291990E+02 -0.16238647334E+02 -0.35522557698E+03  0.35713748496E+03  0.00000000000E+00 0.  1.
<mgrwt>
<rscale>  2 0.36904913E+02</rscale>
<asrwt>0</asrwt>
<pdfrwt beam="1">  1       21 0.30226593E-03 0.36904913E+02</pdfrwt>
<pdfrwt beam="2">  1       21 0.10672507E+00 0.36904913E+02</pdfrwt>
<totfact> 0.15032545E+07</totfact>
</mgrwt>
</event>
<event>
 4    1  0.7478314E+004  0.2278004E+02  0.7546771E-02  0.1695101E+00
         21   -1    0    0  503  502  0.00000000000E+00  0.00000000000E+00  0.33737807590E+03  0.33737807590E+03  0.00000000000E+00 0. -1.
         21   -1    0    0  501  503 -0.00000000000E+00 -0.00000000000E+00 -0.24299991284E+01  0.24299991284E+01  0.00000000000E+00 0. -1.
          2    1    1    2  501    0 -0.12610091277E+02  0.18971447816E+02  0.64541660915E+02  0.68443818040E+02  0.00000000000E+00 0. -1.
         -2    1    1    2    0  502  0.12610091277E+02 -0.18971447816E+02  0.27040641586E+03  0.27136425699E+03  0.00000000000E+00 0.  1.
<mgrwt>
<rscale>  2 0.22780040E+02</rscale>
<asrwt>0</asrwt>
<pdfrwt beam="1">  1       21 0.51904282E-01 0.22780040E+02</pdfrwt>
<pdfrwt beam="2">  1       21 0.37384629E-03 0.22780040E+02</pdfrwt>
<totfact> 0.45750003E+07</totfact>
</mgrwt>
</event>
<event>
 4    1  0.7478314E+004  0.2147403E+02  0.7546771E-02  0.1717510E+00
         21   -1    0    0  503  502  0.00000000000E+00  0.00000000000E+00  0.73303950322E+03  0.73303950322E+03  0.00000000000E+00 0.  1.
         21   -1    0    0  501  503 -0.00000000000E+00 -0.00000000000E+00 -0.98870830076E+00  0.98870830076E+00  0.00000000000E+00 0.  1.
          3    1    1    2  501    0 -0.18767414306E+02 -0.10436380901E+02  0.14467462763E+03  0.14625963820E+03  0.00000000000E+00 0.  1.
         -3    1    1    2    0  502  0.18767414306E+02  0.10436380901E+02  0.58737616729E+03  0.58776857332E+03  0.00000000000E+00 0. -1.
<mgrwt>
<rscale>  2 0.21474028E+02</rscale>
<asrwt>0</asrwt>
<pdfrwt beam="1">  1       21 0.11277487E+00 0.21474028E+02</pdfrwt>
<pdfrwt beam="2">  1       21 0.15210956E-03 0.21474028E+02</pdfrwt>
<totfact> 0.32977999E+07</totfact>
</mgrwt>
</event>
<event>
 4    1  0.7478314E+004  0.2971029E+02  0.7546771E-02  0.1601313E+00
         21   -1    0    0  501  502  0.00000000000E+00  0.00000000000E+00  0.21286520349E+04  0.21286520349E+04  0.00000000000E+00 0. -1.
         21   -1    0    0  502  503 -0.00000000000E+00 -0.00000000000E+00 -0.82413927748E+00  0.82413927748E+00  0.00000000000E+00 0. -1.
          4    1    1    2  501    0  0.24267400369E+02 -0.17140436344E+02  0.31341537457E+03  0.31482042229E+03  0.00000000000E+00 0.  1.
         -4    1    1    2    0  503 -0.24267400369E+02  0.17140436344E+02  0.18144125211E+04  0.18146557519E+04  0.00000000000E+00 0. -1.
<mgrwt>
<rscale>  2 0.29710289E+02</rscale>
<asrwt>0</asrwt>
<pdfrwt beam="1">  1       21 0.32748053E+00 0.29710289E+02</pdfrwt>
<pdfrwt beam="2">  1       21 0.12679236E-03 0.29710289E+02</pdfrwt>
<totfact> 0.25175055E+06</totfact>
</mgrwt>
</event>
<event>
 4    1  0.7478314E+004  0.2673563E+02  0.7546771E-02  0.1637255E+00
         21   -1    0    0  501  502  0.00000000000E+00  0.00000000000E+00  0.25637196200E+01  0.25637196200E+01  0.00000000000E+00 0. -1.
         21   -1    0    0  502  503 -0.00000000000E+00 -0.00000000000E+00 -0.29806899277E+03  0.29806899277E+03  0.00000000000E+00 0. -1.
          1    1    1    2  501    0 -0.27995535827E+01 -0.26588647549E+02 -0.10954489395E+03  0.11276026547E+03  0.00000000000E+00 0.  1.
         -1    1    1    2    0  503  0.27995535827E+01  0.26588647549E+02 -0.18596037921E+03  0.18787244692E+03  0.00000000000E+00 0. -1.
<mgrwt>
<rscale>  2 0.26735626E+02</rscale>
<asrwt>0</asrwt>
<pdfrwt beam="1">  1       21 0.39441864E-03 0.26735626E+02</pdfrwt>
<pdfrwt beam="2">  1       21 0.45856740E-01 0.26735626E+02</pdfrwt>
<totfact> 0.55775487E+07</totfact>
</mgrwt>
</event>
<event>
 4    1  0.7478314E+004  0.2198990E+02  0.7546771E-02  0.1708427E+00
         21   -1    0    0  501  502  0.00000000000E+00  0.00000000000E+00  0.58719184946E+00  0.58719184946E+00  0.00000000000E+00 0. -1.
         21   -1    0    0  502  503 -0.00000000000E+00 -0.00000000000E+00 -0.82358199463E+03  0.82358199463E+03  0.00000000000E+00 0. -1.
          1    1    1    2  501    0 -0.21734208614E+02 -0.33436148095E+01 -0.41547474342E+03  0.41605626783E+03  0.00000000000E+00 0.  1.
         -1    1    1    2    0  503  0.21734208614E+02  0.33436148095E+01 -0.40752005936E+03  0.40811291864E+03  0.00000000000E+00 0. -1.
<mgrwt>
<rscale>  2 0.21989897E+02</rscale>
<asrwt>0</asrwt>
<pdfrwt beam="1">  1       21 0.90336881E-04 0.21989897E+02</pdfrwt>
<pdfrwt beam="2">  1       21 0.12670538E+00 0.21989897E+02</pdfrwt>
<totfact> 0.53560711E+07</totfact>
</mgrwt>
</event>
<event>
 4    1  0.7478314E+004  0.2163863E+02  0.7546771E-02  0.1714578E+00
         21   -1    0    0  503  502  0.00000000000E+00  0.00000000000E+00  0.21835899104E+02  0.21835899104E+02  0.00000000000E+00 0. -1.
         21   -1    0    0  501  503 -0.00000000000E+00 -0.00000000000E+00 -0.22664505520E+02  0.22664505520E+02  0.00000000000E+00 0. -1.
          4    1    1    2  501    0  0.23871016208E+01 -0.21506559017E+02  0.47508464245E+01  0.22154026195E+02  0.00000000000E+00 0. -1.
         -4    1    1    2    0  502 -0.23871016208E+01  0.21506559017E+02 -0.55794528402E+01  0.22346378429E+02  0.00000000000E+00 0.  1.
<mgrwt>
<rscale>  2 0.21638631E+02</rscale>
<asrwt>0</asrwt>
<pdfrwt beam="1">  1       21 0.33593691E-02 0.21638631E+02</pdfrwt>
<pdfrwt beam="2">  1       21 0.34868470E-02 0.21638631E+02</pdfrwt>
<totfact> 0.16652846E+08</totfact>
</mgrwt>
</event>
<event>
 4    1  0.7478314E+004  0.3286261E+02  0.7546771E-02  0.1568444E+00
         21   -1    0    0  503  502  0.00000000000E+00  0.00000000000E+00  0.13731153231E+02  0.13731153231E+02  0.00000000000E+00 0.  1.
         21   -1    0    0  501  503 -0.00000000000E+00 -0.00000000000E+00 -0.10197665360E+03  0.10197665360E+03  0.00000000000E+00 0.  1.
          4    1    1    2  501    0  0.68393652547E+01  0.32143030215E+02 -0.16452623507E+02  0.36751056159E+02  0.00000000000E+00 0.  1.
         -4    1    1    2    0  502 -0.68393652547E+01 -0.32143030215E+02 -0.71792876859E+02  0.78956750669E+02  0.00000000000E+00 0. -1.
<mgrwt>
<rscale>  2 0.32862613E+02</rscale>
<asrwt>0</asrwt>
<pdfrwt beam="1">  1       21 0.21124851E-02 0.32862613E+02</pdfrwt>
<pdfrwt beam="2">  1       21 0.15688716E-01 0.32862613E+02</pdfrwt>
<totfact> 0.32445331E+07</totfact>
</mgrwt>
</event>
<event>
 4    1  0.7478314E+004  0.4583593E+02  0.7546771E-02  0.1469190E+00
         21   -1    0    0  501  502  0.00000000000E+00  0.00000000000E+00  0.34275795995E+02  0.34275795995E+02  0.00000000000E+00 0.  1.
         21   -1    0    0  502  503 -0.00000000000E+00 -0.00000000000E+00 -0.77548455489E+02  0.77548455489E+02  0.00000000000E+00 0.  1.
          5    1    1    2  501    0  0.49703771596E+01 -0.45565645579E+02 -0.47233569854E+02  0.65817496361E+02  0.00000000000E+00 0. -1.
         -5    1    1    2    0  503 -0.49703771596E+01  0.45565645579E+02  0.39609103600E+01  0.46006755124E+02  0.00000000000E+00 0.  1.
<mgrwt>
<rscale>  2 0.45835932E+02</rscale>
<asrwt>0</asrwt>
<pdfrwt beam="1">  1       21 0.52731994E-02 0.45835932E+02</pdfrwt>
<pdfrwt beam="2">  1       21 0.11930532E-01 0.45835932E+02</pdfrwt>
<totfact> 0.12779998E+07</totfact>
</mgrwt>
</event>
<event>
 4    1  0.7478314E+004  0.3309995E+02  0.7546771E-02  0.1566151E+00
         21   -1    0    0  503  502  0.00000000000E+00  0.00000000000E+00  0.67325234958E+01  0.67325234958E+01  0.00000000000E+00 0.  1.
         21   -1    0    0  501  503 -0.00000000000E+00 -0.00000000000E+00 -0.19459044607E+03  0.19459044607E+03  0.00000000000E+00 0.  1.
          5    1    1    2  501    0  0.99139594070E+01  0.31580377426E+02 -0.13465807237E+03  0.13866651825E+03  0.00000000000E+00 0. -1.
         -5    1    1    2    0  502 -0.99139594070E+01 -0.31580377426E+02 -0.53199850200E+02  0.62656451311E+02  0.00000000000E+00 0.  1.
<mgrwt>
<rscale>  2 0.33099952E+02</rscale>
<asrwt>0</asrwt>
<pdfrwt beam="1">  1       21 0.10357729E-02 0.33099952E+02</pdfrwt>
<pdfrwt beam="2">  1       21 0.29936989E-01 0.33099952E+02</pdfrwt>
<totfact> 0.30682787E+07</totfact>
</mgrwt>
</event>
<event>
 4    1  0.7478314E+004  0.2657678E+02  0.7546771E-02  0.1639335E+00
         21   -1    0    0  503  502  0.00000000000E+00  0.00000000000E+00  0.46982511321E+03  0.46982511321E+03  0.00000000000E+00 0.  1.
         21   -1    0    0  501  503 -0.00000000000E+00 -0.00000000000E+00 -0.17127602460E+01  0.17127602460E+01  0.00000000000E+00 0.  1.
          5    1    1    2  501    0  0.26528222072E+02  0.16057989644E+01  0.15162200011E+03  0.15393360931E+03  0.00000000000E+00 0. -1.
         -5    1    1    2    0  502 -0.26528222072E+02 -0.16057989644E+01  0.31649035285E+03  0.31760426415E+03  0.00000000000E+00 0.  1.
<mgrwt>
<rscale>  2 0.26576779E+02</rscale>
<asrwt>0</asrwt>
<pdfrwt beam="1">  1       21 0.72280684E-01 0.26576779E+02</pdfrwt>
<pdfrwt beam="2">  1       21 0.26350195E-03 0.26576779E+02</pdfrwt>
<totfact> 0.40510100E+07</totfact>
</mgrwt>
</event>
<event>
 4    1  0.7478314E+004  0.2394416E+02  0.7546771E-02  0.1676647E+00
         21   -1    0    0  501  502  0.00000000000E+00  0.00000000000E+00  0.42642014258E+03  0.42642014258E+03  0.00000000000E+00 0. -1.
         21   -1    0    0  502  503 -0.00000000000E+00 -0.00000000000E+00 -0.13445281157E+01  0.13445281157E+01  0.00000000000E+00 0. -1.
          4    1    1    2  501    0  0.81133143484E+01  0.22527687370E+02  0.21158815370E+03  0.21293865162E+03  0.00000000000E+00 0. -1.
         -4    1    1    2    0  503 -0.81133143484E+01 -0.22527687370E+02  0.21348746076E+03  0.21482601907E+03  0.00000000000E+00 0.  1.
<mgrwt>
<rscale>  2 0.23944155E+02</rscale>
<asrwt>0</asrwt>
<pdfrwt beam="1">  1       21 0.65602991E-01 0.23944155E+02</pdfrwt>
<pdfrwt beam="2">  1       21 0.20685082E-03 0.23944155E+02</pdfrwt>
<totfact> 0.68697933E+07</totfact>
</mgrwt>
</event>
<event>
 4    1  0.7478314E+004  0.2185570E+02  0.7546771E-02  0.1710760E+00
         21   -1    0    0  503  502  0.00000000000E+00  0.00000000000E+00  0.34223622958E+02  0.34223622958E+02  0.00000000000E+00 0.  1.
         21   -1    0    0  501  503 -0.00000000000E+00 -0.00000000000E+00 -0.18959528529E+02  0.18959528529E+02  0.00000000000E+00 0.  1.
          1    1    1    2  501    0  0.22228701554E+01 -0.21742366628E+02 -0.60266466664E+01  0.22671394495E+02  0.00000000000E+00 0.  1.
         -1    1    1    2    0  502 -0.22228701554E+01  0.21742366628E+02  0.21290741095E+02  0.30511756992E+02  0.00000000000E+00 0. -1.
<mgrwt>
<rscale>  2 0.21855701E+02</rscale>
<asrwt>0</asrwt>
<pdfrwt beam="1">  1       21 0.52651728E-02 0.21855701E+02</pdfrwt>
<pdfrwt beam="2">  1       21 0.29168505E-02 0.21855701E+02</pdfrwt>
<totfact> 0.10863767E+08</totfact>
</mgrwt>
</event>
<event>
 4    1  0.7478314E+004  0.2956240E+02  0.7546771E-02  0.1602977E+00
         21   -1    0    0  501  502  0.00000000000E+00  0.00000000000E+00  0.10953030688E+02  0.10953030688E+02  0.00000000000E+00 0. -1.
         21   -1    0    0  502  503 -0.00000000000E+00 -0.00000000000E+00 -0.17867406838E+03  0.17867406838E+03  0.00000000000E+00 0. -1.
          2    1    1    2  501    0  0.18910532429E+02  0.22722833673E+02 -0.13325596710E+02  0.32426947660E+02  0.00000000000E+00 0.  1.
         -2    1    1    2    0  503 -0.18910532429E+02 -0.22722833673E+02 -0.15439544098E+03  0.15720015141E+03  0.00000000000E+00 0. -1.
<mgrwt>
<rscale>  2 0.29562399E+02</rscale>
<asrwt>0</asrwt>
<pdfrwt beam="1">  1       21 0.16850817E-02 0.29562399E+02</pdfrwt>
<pdfrwt beam="2">  1       21 0.27488317E-01 0.29562399E+02</pdfrwt>
<totfact> 0.16696930E+07</totfact>
</mgrwt>
</event>
<event>
 4    1  0.7478314E+004  0.2167167E+02  0.7546771E-02  0.1713993E+00
         21   -1    0    0  501  502  0.00000000000E+00  0.00000000000E+00  0.85411630894E+02  0.85411630894E+02  0.00000000000E+00 0.  1.
         21   -1    0    0  502  503 -0.00000000000E+00 -0.00000000000E+00 -0.64160736307E+01  0.64160736307E+01  0.00000000000E+00 0.  1.
          4    1    1    2  501    0  0.20926295421E+02 -0.56348293331E+01  0.56858167292E+02  0.60848273019E+02  0.00000000000E+00 0. -1.
         -4    1    1    2    0  503 -0.20926295421E+02  0.56348293331E+01  0.22137389972E+02  0.30979431506E+02  0.00000000000E+00 0.  1.
<mgrwt>
<rscale>  2 0.21671667E+02</rscale>
<asrwt>0</asrwt>
<pdfrwt beam="1">  1       21 0.13140250E-01 0.21671667E+02</pdfrwt>
<pdfrwt beam="2">  1       21 0.98708831E-03 0.21671667E+02</pdfrwt>
<totfact> 0.12679822E+08</totfact>
</mgrwt>
</event>
<event>
 4    1  0.7478314E+004  0.2479142E+02  0.7546771E-02  0.1664016E+00
         21   -1    0    0  503  502  0.00000000000E+00  0.00000000000E+00  0.25319732823E+03  0.25319732823E+03  0.00000000000E+00 0. -1.
         21   -1    0    0  501  503 -0.00000000000E+00 -0.00000000000E+00 -0.26712655883E+01  0.26712655883E+01  0.00000000000E+00 0. -1.
          1    1    1    2  501    0 -0.24790159377E+02 -0.24956081712E+00  0.86609172800E+02  0.90087530189E+02  0.00000000000E+00 0. -1.
         -1    1    1    2    0  502  0.24790159377E+02  0.24956081712E+00  0.16391688984E+03  0.16578106363E+03  0.00000000000E+00 0.  1.
<mgrwt>
<rscale>  2 0.24791416E+02</rscale>
<asrwt>0</asrwt>
<pdfrwt beam="1">  1       21 0.38953416E-01 0.24791416E+02</pdfrwt>
<pdfrwt beam="2">  1       21 0.41096414E-03 0.24791416E+02</pdfrwt>
<totfact> 0.70447036E+07</totfact>
</mgrwt>
</event>
<event>
 4    1  0.7478314E+004  0.2289721E+02  0.7546771E-02  0.1693182E+00
         21   -1    0    0  503  502  0.00000000000E+00  0.00000000000E+00  0.20766691514E+02  0.20766691514E+02  0.00000000000E+00 0. -1.
         21   -1    0    0  501  503 -0.00000000000E+00 -0.00000000000E+00 -0.27563748406E+02  0.27563748406E+02  0.00000000000E+00 0. -1.
          4    1    1    2  501    0 -0.10615398286E+02  0.20287819705E+02  0.36083698773E+01  0.23179789523E+02  0.00000000000E+00 0.  1.
         -4    1    1    2    0  502  0.10615398286E+02 -0.20287819705E+02 -0.10405426769E+02  0.25150650397E+02  0.00000000000E+00 0. -1.
<mgrwt>
<rscale>  2 0.22897212E+02</rscale>
<asrwt>0</asrwt>
<pdfrwt beam="1">  1       21 0.31948756E-02 0.22897212E+02</pdfrwt>
<pdfrwt beam="2">  1       21 0.42405766E-02 0.22897212E+02</pdfrwt>
<totfact> 0.13474654E+08</totfact>
</mgrwt>
</event>
<event>
 4    1  0.7478314E+004  0.2152709E+02  0.7546771E-02  0.1716561E+00
         21   -1    0    0  503  502  0.00000000000E+00  0.00000000000E+00  0.31418701102E+02  0.31418701102E+02  0.00000000000E+00 0. -1.
         21   -1    0    0  501  503 -0.00000000000E+00 -0.00000000000E+00 -0.17026065627E+02  0.17026065627E+02  0.00000000000E+00 0. -1.
          5    1    1    2  501    0 -0.11628746494E+02 -0.18115956365E+02 -0.16606109299E+01  0.21591045568E+02  0.00000000000E+00 0. -1.
         -5    1    1    2    0  502  0.11628746494E+02  0.18115956365E+02  0.16053246405E+02  0.26853721161E+02  0.00000000000E+00 0.  1.
<mgrwt>
<rscale>  2 0.21527090E+02</rscale>
<asrwt>0</asrwt>
<pdfrwt beam="1">  1       21 0.48336463E-02 0.21527090E+02</pdfrwt>
<pdfrwt beam="2">  1       21 0.26193947E-02 0.21527090E+02</pdfrwt>
<totfact> 0.14633669E+08</totfact>
</mgrwt>
</event>
<event>
 4    1  0.7478314E+004  0.2299529E+02  0.7546771E-02  0.1691587E+00
         21   -1    0    0  503  502  0.00000000000E+00  0.00000000000E+00  0.13002502749E+02  0.13002502749E+02  0.00000000000E+00 0. -1.
         21   -1    0    0  501  503 -0.00000000000E+00 -0.00000000000E+00 -0.41207589188E+02  0.41207589188E+02  0.00000000000E+00 0. -1.
          5    1    1    2  501    0  0.10333432278E+02  0.20542719863E+02 -0.11000311513E+02  0.25490979099E+02  0.00000000000E+00 0.  1.
         -5    1    1    2    0  502 -0.10333432278E+02 -0.20542719863E+02 -0.17204774926E+02  0.28719112839E+02  0.00000000000E+00 0. -1.
<mgrwt>
<rscale>  2 0.22995286E+02</rscale>
<asrwt>0</asrwt>
<pdfrwt beam="1">  1       21 0.20003850E-02 0.22995286E+02</pdfrwt>
<pdfrwt beam="2">  1       21 0.63396292E-02 0.22995286E+02</pdfrwt>
<totfact> 0.14661483E+08</totfact>
</mgrwt>
</event>
<event>
 4    1  0.7478314E+004  0.3298766E+02  0.7546771E-02  0.1567233E+00
         21   -1    0    0  503  502  0.00000000000E+00  0.00000000000E+00  0.40135879535E+03  0.40135879535E+03  0.00000000000E+00 0. -1.
         21   -1    0    0  501  503 -0.00000000000E+00 -0.00000000000E+00 -0.28712160199E+01  0.28712160199E+01  0.00000000000E+00 0. -1.
          5    1    1    2  501    0 -0.75806049928E+01 -0.32104829310E+02  0.24694990693E+03  0.24914341687E+03  0.00000000000E+00 0.  1.
         -5    1    1    2    0  502  0.75806049928E+01  0.32104829310E+02  0.15153767240E+03  0.15508659450E+03  0.00000000000E+00 0. -1.
<mgrwt>
<rscale>  2 0.32987659E+02</rscale>
<asrwt>0</asrwt>
<pdfrwt beam="1">  1       21 0.61747462E-01 0.32987659E+02</pdfrwt>
<pdfrwt beam="2">  1       21 0.44172586E-03 0.32987659E+02</pdfrwt>
<totfact> 0.27227978E+07</totfact>
</mgrwt>
</event>
<event>
 4    1  0.7478314E+004  0.2042435E+02  0.7546771E-02  0.1737019E+00
         21   -1    0    0  501  502  0.00000000000E+00  0.00000000000E+00  0.17714354384E+02  0.17714354384E+02  0.00000000000E+00 0. -1.
         21   -1    0    0  502  503 -0.00000000000E+00 -0.00000000000E+00 -0.25327891360E+02  0.25327891360E+02  0.00000000000E+00 0. -1.
          3    1    1    2  501    0  0.20107680007E+02 -0.35826478143E+01 -0.95103570601E+01  0.22530003374E+02  0.00000000000E+00 0.  1.
         -3    1    1    2    0  503 -0.20107680007E+02  0.35826478143E+01  0.18968200838E+01  0.20512242370E+02  0.00000000000E+00 0. -1.
<mgrwt>
<rscale>  2 0.20424352E+02</rscale>
<asrwt>0</asrwt>
<pdfrwt beam="1">  1       21 0.27252853E-02 0.20424352E+02</pdfrwt>
<pdfrwt beam="2">  1       21 0.38965986E-02 0.20424352E+02</pdfrwt>
<totfact> 0.19013542E+08</totfact>
</mgrwt>
</event>
<event>
 4    1  0.7478314E+004  0.2569414E+02  0.7546771E-02  0.1651227E+00
         21   -1    0    0  503  502  0.00000000000E+00  0.00000000000E+00  0.35036495409E+02  0.35036495409E+02  0.00000000000E+00 0. -1.
         21   -1    0    0  501  503 -0.00000000000E+00 -0.00000000000E+00 -0.18877786719E+02  0.18877786719E+02  0.00000000000E+00 0. -1.
          5    1    1    2  501    0 -0.19361974329E+01  0.25621085825E+02  0.69203685982E+01  0.26609780173E+02  0.00000000000E+00 0.  1.
         -5    1    1    2    0  502  0.19361974329E+01 -0.25621085825E+02  0.92383400921E+01  0.27304501955E+02  0.00000000000E+00 0. -1.
<mgrwt>
<rscale>  2 0.25694141E+02</rscale>
<asrwt>0</asrwt>
<pdfrwt beam="1">  1       21 0.53902300E-02 0.25694141E+02</pdfrwt>
<pdfrwt beam="2">  1       21 0.29042749E-02 0.25694141E+02</pdfrwt>
<totfact> 0.11030914E+08</totfact>
</mgrwt>
</event>
<event>
 4    1  0.7478314E+004  0.2241732E+02  0.7546771E-02  0.1701133E+00
         21   -1    0    0  503  502  0.00000000000E+00  0.00000000000E+00  0.29734588901E+01  0.29734588901E+01  0.00000000000E+00 0.  1.
         21   -1    0    0  501  503 -0.00000000000E+00 -0.00000000000E+00 -0.16900781492E+03  0.16900781492E+03  0.00000000000E+00 0.  1.
          2    1    1    2  501    0  0.15895839941E+02 -0.15806914109E+02 -0.83167153956E+02  0.86135426847E+02  0.00000000000E+00 0.  1.
         -2    1    1    2    0  502 -0.15895839941E+02  0.15806914109E+02 -0.82867202070E+02  0.85845846958E+02  0.00000000000E+00 0. -1.
<mgrwt>
<rscale>  2 0.22417321E+02</rscale>
<asrwt>0</asrwt>
<pdfrwt beam="1">  1       21 0.45745522E-03 0.22417321E+02</pdfrwt>
<pdfrwt beam="2">  1       21 0.26001202E-01 0.22417321E+02</pdfrwt>
<totfact> 0.12300378E+08</totfact>
</mgrwt>
</event>
<event>
 4    1  0.7478314E+004  0.2191623E+02  0.7546771E-02  0.1709705E+00
         21   -1    0    0  501  502  0.00000000000E+00  0.00000000000E+00  0.10298859119E+03  0.10298859119E+03  0.00000000000E+00 0. -1.
         21   -1    0    0  502  503 -0.00000000000E+00 -0.00000000000E+00 -0.46638724239E+01  0.46638724239E+01  0.00000000000E+00 0. -1.
          1    1    1    2  501    0  0.18565761262E+02 -0.11646181189E+02  0.49329346969E+02  0.53978750448E+02  0.00000000000E+00 0.  1.
         -1    1    1    2    0  503 -0.18565761262E+02  0.11646181189E+02  0.48995371801E+02  0.53673713170E+02  0.00000000000E+00 0. -1.
<mgrwt>
<rscale>  2 0.21916227E+02</rscale>
<asrwt>0</asrwt>
<pdfrwt beam="1">  1       21 0.15844397E-01 0.21916227E+02</pdfrwt>
<pdfrwt beam="2">  1       21 0.71751891E-03 0.21916227E+02</pdfrwt>
<totfact> 0.14913464E+08</totfact>
</mgrwt>
</event>
<event>
 4    1  0.7478314E+004  0.2101825E+02  0.7546771E-02  0.1725806E+00
         21   -1    0    0  501  502  0.00000000000E+00  0.00000000000E+00  0.45478233155E+01  0.45478233155E+01  0.00000000000E+00 0. -1.
         21   -1    0    0  502  503 -0.00000000000E+00 -0.00000000000E+00 -0.10899768924E+03  0.10899768924E+03  0.00000000000E+00 0. -1.
          5    1    1    2  501    0  0.81055372233E+01 -0.19392446937E+02 -0.33497989519E+02  0.39545948386E+02  0.00000000000E+00 0.  1.
         -5    1    1    2    0  503 -0.81055372233E+01  0.19392446937E+02 -0.70951876401E+02  0.73999564166E+02  0.00000000000E+00 0. -1.
<mgrwt>
<rscale>  2 0.21018248E+02</rscale>
<asrwt>0</asrwt>
<pdfrwt beam="1">  1       21 0.69966513E-03 0.21018248E+02</pdfrwt>
<pdfrwt beam="2">  1       21 0.16768875E-01 0.21018248E+02</pdfrwt>
<totfact> 0.13878449E+08</totfact>
</mgrwt>
</event>
<event>
 4    1  0.7478314E+004  0.3230485E+02  0.7546771E-02  0.1573925E+00
         21   -1    0    0  501  502  0.00000000000E+00  0.00000000000E+00  0.16596605380E+02  0.16596605380E+02  0.00000000000E+00 0.  1.
         21   -1    0    0  502  503 -0.00000000000E+00 -0.00000000000E+00 -0.66642715577E+02  0.66642715577E+02  0.00000000000E+00 0.  1.
          1    1    1    2  501    0  0.61418688862E+01  0.31715627468E+02 -0.34911806852E+02  0.47565090527E+02  0.00000000000E+00 0. -1.
         -1    1    1    2    0  503 -0.61418688862E+01 -0.31715627468E+02 -0.15134303345E+02  0.35674230431E+02  0.00000000000E+00 0.  1.
<mgrwt>
<rscale>  2 0.32304854E+02</rscale>
<asrwt>0</asrwt>
<pdfrwt beam="1">  1       21 0.25533239E-02 0.32304854E+02</pdfrwt>
<pdfrwt beam="2">  1       21 0.10252725E-01 0.32304854E+02</pdfrwt>
<totfact> 0.49672757E+07</totfact>
</mgrwt>
</event>
<event>
 4    1  0.7478314E+004  0.2667993E+02  0.7546771E-02  0.1637982E+00
         21   -1    0    0  501  502  0.00000000000E+00  0.00000000000E+00  0.50988175089E+02  0.50988175089E+02  0.00000000000E+00 0. -1.
         21   -1    0    0  502  503 -0.00000000000E+00 -0.00000000000E+00 -0.15152441169E+02  0.15152441169E+02  0.00000000000E+00 0. -1.
          2    1    1    2  501    0  0.12895670401E+02  0.23356380976E+02  0.27193209587E+02  0.38095793666E+02  0.00000000000E+00 0.  1.
         -2    1    1    2    0  503 -0.12895670401E+02 -0.23356380976E+02  0.86425243334E+01  0.28044822592E+02  0.00000000000E+00 0. -1.
<mgrwt>
<rscale>  2 0.26679933E+02</rscale>
<asrwt>0</asrwt>
<pdfrwt beam="1">  1       21 0.78443345E-02 0.26679933E+02</pdfrwt>
<pdfrwt beam="2">  1       21 0.23311448E-02 0.26679933E+02</pdfrwt>
<totfact> 0.85355018E+07</totfact>
</mgrwt>
</event>
<event>
 4    1  0.7478314E+004  0.2214600E+02  0.7546771E-02  0.1705739E+00
         21   -1    0    0  503  502  0.00000000000E+00  0.00000000000E+00  0.19267149108E+01  0.19267149108E+01  0.00000000000E+00 0. -1.
         21   -1    0    0  501  503 -0.00000000000E+00 -0.00000000000E+00 -0.26749681605E+03  0.26749681605E+03  0.00000000000E+00 0. -1.
          5    1    1    2  501    0 -0.16177689020E+02 -0.15123744592E+02 -0.16242160958E+03  0.16392444763E+03  0.00000000000E+00 0.  1.
         -5    1    1    2    0  502  0.16177689020E+02  0.15123744592E+02 -0.10314849156E+03  0.10549908333E+03  0.00000000000E+00 0. -1.
<mgrwt>
<rscale>  2 0.22145999E+02</rscale>
<asrwt>0</asrwt>
<pdfrwt beam="1">  1       21 0.29641781E-03 0.22145999E+02</pdfrwt>
<pdfrwt beam="2">  1       21 0.41153339E-01 0.22145999E+02</pdfrwt>
<totfact> 0.99537201E+07</totfact>
</mgrwt>
</event>
<event>
 4    1  0.7478314E+004  0.3663251E+02  0.7546771E-02  0.1534564E+00
         21   -1    0    0  501  502  0.00000000000E+00  0.00000000000E+00  0.11066030925E+03  0.11066030925E+03  0.00000000000E+00 0.  1.
         21   -1    0    0  502  503 -0.00000000000E+00 -0.00000000000E+00 -0.12813665907E+02  0.12813665907E+02  0.00000000000E+00 0.  1.
          4    1    1    2  501    0 -0.25226606929E+02  0.26562361613E+02  0.63218404303E+02  0.73065090120E+02  0.00000000000E+00 0. -1.
         -4    1    1    2    0  503  0.25226606929E+02 -0.26562361613E+02  0.34628239037E+02  0.50408885035E+02  0.00000000000E+00 0.  1.
<mgrwt>
<rscale>  2 0.36632509E+02</rscale>
<asrwt>0</asrwt>
<pdfrwt beam="1">  1       21 0.17024662E-01 0.36632509E+02</pdfrwt>
<pdfrwt beam="2">  1       21 0.19713333E-02 0.36632509E+02</pdfrwt>
<totfact> 0.31986781E+07</totfact>
</mgrwt>
</event>
<event>
 4    1  0.7478314E+004  0.2427981E+02  0.7546771E-02  0.1671567E+00
         21   -1    0    0  503  502  0.00000000000E+00  0.00000000000E+00  0.36668045084E+03  0.36668045084E+03  0.00000000000E+00 0.  1.
         21   -1    0    0  501  503 -0.00000000000E+00 -0.00000000000E+00 -0.37270442183E+01  0.37270442183E+01  0.00000000000E+00 0.  1.
          1    1    1    2  501    0  0.15638149433E+02  0.18573031790E+02  0.32113574796E+03  0.32205229055E+03  0.00000000000E+00 0. -1.
         -1    1    1    2    0  502 -0.15638149433E+02 -0.18573031790E+02  0.41817658664E+02  0.48355204515E+02  0.00000000000E+00 0.  1.
<mgrwt>
<rscale>  2 0.24279811E+02</rscale>
<asrwt>0</asrwt>
<pdfrwt beam="1">  1       21 0.56412349E-01 0.24279811E+02</pdfrwt>
<pdfrwt beam="2">  1       21 0.57339171E-03 0.24279811E+02</pdfrwt>
<totfact> 0.20966131E+07</totfact>
</mgrwt>
</event>
<event>
 4    1  0.7478314E+004  0.2054446E+02  0.7546771E-02  0.1734713E+00
         21   -1    0    0  501  502  0.00000000000E+00  0.00000000000E+00  0.53025913936E+02  0.53025913936E+02  0.00000000000E+00 0. -1.
         21   -1    0    0  502  503 -0.00000000000E+00 -0.00000000000E+00 -0.79974728180E+01  0.79974728180E+01  0.00000000000E+00 0. -1.
          3    1    1    2  501    0 -0.17294579258E+02  0.11089286066E+02  0.20419600156E+02  0.28966097557E+02  0.00000000000E+00 0.  1.
         -3    1    1    2    0  503  0.17294579258E+02 -0.11089286066E+02  0.24608840962E+02  0.32057289197E+02  0.00000000000E+00 0. -1.
<mgrwt>
<rscale>  2 0.20544458E+02</rscale>
<asrwt>0</asrwt>
<pdfrwt beam="1">  1       21 0.81578327E-02 0.20544458E+02</pdfrwt>
<pdfrwt beam="2">  1       21 0.12303805E-02 0.20544458E+02</pdfrwt>
<totfact> 0.19697711E+08</totfact>
</mgrwt>
</event>
<event>
 4    1  0.7478314E+004  0.2122502E+02  0.7546771E-02  0.1722010E+00
         21   -1    0    0  501  502  0.00000000000E+00  0.00000000000E+00  0.19183707660E+02  0.19183707660E+02  0.00000000000E+00 0.  1.
         21   -1    0    0  502  503 -0.00000000000E+00 -0.00000000000E+00 -0.24053832410E+02  0.24053832410E+02  0.00000000000E+00 0.  1.
          4    1    1    2  501    0  0.13080529162E+02  0.16715299684E+02 -0.57638435402E+01  0.21993712261E+02  0.00000000000E+00 0. -1.
         -4    1    1    2    0  503 -0.13080529162E+02 -0.16715299684E+02  0.89371878998E+00  0.21243827808E+02  0.00000000000E+00 0.  1.
<mgrwt>
<rscale>  2 0.21225020E+02</rscale>
<asrwt>0</asrwt>
<pdfrwt beam="1">  1       21 0.29513397E-02 0.21225020E+02</pdfrwt>
<pdfrwt beam="2">  1       21 0.37005896E-02 0.21225020E+02</pdfrwt>
<totfact> 0.18447527E+08</totfact>
</mgrwt>
</event>
<event>
 4    1  0.7478314E+004  0.2151334E+02  0.7546771E-02  0.1716807E+00
         21   -1    0    0  503  502  0.00000000000E+00  0.00000000000E+00  0.19377787702E+02  0.19377787702E+02  0.00000000000E+00 0. -1.
         21   -1    0    0  501  503 -0.00000000000E+00 -0.00000000000E+00 -0.24074911446E+02  0.24074911446E+02  0.00000000000E+00 0. -1.
          5    1    1    2  501    0 -0.87618429240E+01  0.19648258020E+02 -0.42820225420E+01  0.21935351643E+02  0.00000000000E+00 0.  1.
         -5    1    1    2    0  502  0.87618429240E+01 -0.19648258020E+02 -0.41510120247E+00  0.21517347505E+02  0.00000000000E+00 0. -1.
<mgrwt>
<rscale>  2 0.21513343E+02</rscale>
<asrwt>0</asrwt>
<pdfrwt beam="1">  1       21 0.29811981E-02 0.21513343E+02</pdfrwt>
<pdfrwt beam="2">  1       21 0.37038325E-02 0.21513343E+02</pdfrwt>
<totfact> 0.18214395E+08</totfact>
</mgrwt>
</event>
<event>
 4    1  0.7478314E+004  0.2551355E+02  0.7546771E-02  0.1653733E+00
         21   -1    0    0  503  502  0.00000000000E+00  0.00000000000E+00  0.97655135515E+03  0.97655135515E+03  0.00000000000E+00 0. -1.
         21   -1    0    0  501  503 -0.00000000000E+00 -0.00000000000E+00 -0.69229117703E+00  0.69229117703E+00  0.00000000000E+00 0. -1.
          5    1    1    2  501    0 -0.17887631055E+02 -0.18192689660E+02  0.39374898353E+03  0.39457471198E+03  0.00000000000E+00 0.  1.
         -5    1    1    2    0  502  0.17887631055E+02  0.18192689660E+02  0.58211008044E+03  0.58266893435E+03  0.00000000000E+00 0. -1.
<mgrwt>
<rscale>  2 0.25513551E+02</rscale>
<asrwt>0</asrwt>
<pdfrwt beam="1">  1       21 0.15023757E+00 0.25513551E+02</pdfrwt>
<pdfrwt beam="2">  1       21 0.10650712E-03 0.25513551E+02</pdfrwt>
<totfact> 0.29296054E+07</totfact>
</mgrwt>
</event>
<event>
 4    1  0.7478314E+004  0.2432568E+02  0.7546771E-02  0.1670881E+00
         21   -1    0    0  501  502  0.00000000000E+00  0.00000000000E+00  0.24643325348E+01  0.24643325348E+01  0.00000000000E+00 0. -1.
         21   -1    0    0  502  503 -0.00000000000E+00 -0.00000000000E+00 -0.32969252067E+03  0.32969252067E+03  0.00000000000E+00 0. -1.
          2    1    1    2  501    0  0.18927183509E+01 -0.24251938573E+02 -0.25017917674E+03  0.25135902487E+03  0.00000000000E+00 0.  1.
         -2    1    1    2    0  503 -0.18927183509E+01  0.24251938573E+02 -0.77049011399E+02  0.80797828342E+02  0.00000000000E+00 0. -1.
<mgrwt>
<rscale>  2 0.24325684E+02</rscale>
<asrwt>0</asrwt>
<pdfrwt beam="1">  1       21 0.37912800E-03 0.24325684E+02</pdfrwt>
<pdfrwt beam="2">  1       21 0.50721938E-01 0.24325684E+02</pdfrwt>
<totfact> 0.47598998E+07</totfact>
</mgrwt>
</event>
<event>
 4    1  0.7478314E+004  0.2155074E+02  0.7546771E-02  0.1716140E+00
         21   -1    0    0  503  502  0.00000000000E+00  0.00000000000E+00  0.12462001240E+03  0.12462001240E+03  0.00000000000E+00 0.  1.
         21   -1    0    0  501  503 -0.00000000000E+00 -0.00000000000E+00 -0.37332713734E+01  0.37332713734E+01  0.00000000000E+00 0.  1.
          2    1    1    2  501    0  0.20427596021E+02  0.68664184059E+01  0.63114474090E+02  0.66692362536E+02  0.00000000000E+00 0. -1.
         -2    1    1    2    0  502 -0.20427596021E+02 -0.68664184059E+01  0.57772266938E+02  0.61660921240E+02  0.00000000000E+00 0.  1.
<mgrwt>
<rscale>  2 0.21550740E+02</rscale>
<asrwt>0</asrwt>
<pdfrwt beam="1">  1       21 0.19172306E-01 0.21550740E+02</pdfrwt>
<pdfrwt beam="2">  1       21 0.57434954E-03 0.21550740E+02</pdfrwt>
<totfact> 0.14867038E+08</totfact>
</mgrwt>
</event>
<event>
 4    1  0.7478314E+004  0.3094690E+02  0.7546771E-02  0.1587852E+00
         21   -1    0    0  503  502  0.00000000000E+00  0.00000000000E+00  0.36130731083E+03  0.36130731083E+03  0.00000000000E+00 0. -1.
         21   -1    0    0  501  503 -0.00000000000E+00 -0.00000000000E+00 -0.29841423600E+01  0.29841423600E+01  0.00000000000E+00 0. -1.
          3    1    1    2  501    0  0.30529086161E+02 -0.50680914893E+01  0.11827360466E+03  0.12225529115E+03  0.00000000000E+00 0.  1.
         -3    1    1    2    0  502 -0.30529086161E+02  0.50680914893E+01  0.24004956381E+03  0.24203616205E+03  0.00000000000E+00 0. -1.
<mgrwt>
<rscale>  2 0.30946901E+02</rscale>
<asrwt>0</asrwt>
<pdfrwt beam="1">  1       21 0.55585705E-01 0.30946901E+02</pdfrwt>
<pdfrwt beam="2">  1       21 0.45909911E-03 0.30946901E+02</pdfrwt>
<totfact> 0.31436455E+07</totfact>
</mgrwt>
</event>
<event>
 4    1  0.7478314E+004  0.3432884E+02  0.7546771E-02  0.1554643E+00
         21   -1    0    0  503  502  0.00000000000E+00  0.00000000000E+00  0.25388304343E+02  0.25388304343E+02  0.00000000000E+00 0.  1.
         21   -1    0    0  501  503 -0.00000000000E+00 -0.00000000000E+00 -0.48417261113E+02  0.48417261113E+02  0.00000000000E+00 0.  1.
          3    1    1    2  501    0 -0.17356402113E+02 -0.29617975218E+02 -0.19013694049E+02  0.39242702655E+02  0.00000000000E+00 0.  1.
         -3    1    1    2    0  502  0.17356402113E+02  0.29617975218E+02 -0.40152627209E+01  0.34562862801E+02  0.00000000000E+00 0. -1.
<mgrwt>
<rscale>  2 0.34328838E+02</rscale>
<asrwt>0</asrwt>
<pdfrwt beam="1">  1       21 0.39058930E-02 0.34328838E+02</pdfrwt>
<pdfrwt beam="2">  1       21 0.74488094E-02 0.34328838E+02</pdfrwt>
<totfact> 0.43708355E+07</totfact>
</mgrwt>
</event>
<event>
 4    1  0.7478314E+004  0.2509178E+02  0.7546771E-02  0.1659687E+00
         21   -1    0    0  503  502  0.00000000000E+00  0.00000000000E+00  0.35179923080E+03  0.35179923080E+03  0.00000000000E+00 0.  1.
         21   -1    0    0  501  503 -0.00000000000E+00 -0.00000000000E+00 -0.19998885022E+01  0.19998885022E+01  0.00000000000E+00 0.  1.
          3    1    1    2  501    0  0.24878289178E+02  0.32661853140E+01  0.11754342313E+03  0.12019173666E+03  0.00000000000E+00 0. -1.
         -3    1    1    2    0  502 -0.24878289178E+02 -0.32661853140E+01  0.23225591916E+03  0.23360738264E+03  0.00000000000E+00 0.  1.
<mgrwt>
<rscale>  2 0.25091776E+02</rscale>
<asrwt>0</asrwt>
<pdfrwt beam="1">  1       21 0.54122909E-01 0.25091776E+02</pdfrwt>
<pdfrwt beam="2">  1       21 0.30767543E-03 0.25091776E+02</pdfrwt>
<totfact> 0.57295984E+07</totfact>
</mgrwt>
</event>
<event>
 4    1  0.7478314E+004  0.2593576E+02  0.7546771E-02  0.1647914E+00
         21   -1    0    0  501  502  0.00000000000E+00  0.00000000000E+00  0.31600800537E+02  0.31600800537E+02  0.00000000000E+00 0.  1.
         21   -1    0    0  502  503 -0.00000000000E+00 -0.00000000000E+00 -0.23989094024E+02  0.23989094024E+02  0.00000000000E+00 0.  1.
          3    1    1    2  501    0 -0.23666021419E+02  0.10610525715E+02  0.13135520529E+02  0.29072422075E+02  0.00000000000E+00 0.  1.
         -3    1    1    2    0  503  0.23666021419E+02 -0.10610525715E+02 -0.55238140158E+01  0.26517472486E+02  0.00000000000E+00 0. -1.
<mgrwt>
<rscale>  2 0.25935763E+02</rscale>
<asrwt>0</asrwt>
<pdfrwt beam="1">  1       21 0.48616616E-02 0.25935763E+02</pdfrwt>
<pdfrwt beam="2">  1       21 0.36906298E-02 0.25935763E+02</pdfrwt>
<totfact> 0.89557949E+07</totfact>
</mgrwt>
</event>
<event>
 4    1  0.7478314E+004  0.2020364E+02  0.7546771E-02  0.1741309E+00
         21   -1    0    0  501  502  0.00000000000E+00  0.00000000000E+00  0.35180810884E+01  0.35180810884E+01  0.00000000000E+00 0. -1.
         21   -1    0    0  502  503 -0.00000000000E+00 -0.00000000000E+00 -0.17131769594E+03  0.17131769594E+03  0.00000000000E+00 0. -1.
          4    1    1    2  501    0 -0.17930666310E+02 -0.93101096376E+01 -0.34236993681E+02  0.39753725261E+02  0.00000000000E+00 0. -1.
         -4    1    1    2    0  503  0.17930666310E+02  0.93101096376E+01 -0.13356262117E+03  0.13508205176E+03  0.00000000000E+00 0.  1.
<mgrwt>
<rscale>  2 0.20203637E+02</rscale>
<asrwt>0</asrwt>
<pdfrwt beam="1">  1       21 0.54124334E-03 0.20203637E+02</pdfrwt>
<pdfrwt beam="2">  1       21 0.26356564E-01 0.20203637E+02</pdfrwt>
<totfact> 0.91056976E+07</totfact>
</mgrwt>
</event>
<event>
 4    1  0.7478314E+004  0.2029193E+02  0.7546771E-02  0.1739584E+00
         21   -1    0    0  501  502  0.00000000000E+00  0.00000000000E+00  0.41387114027E+01  0.41387114027E+01  0.00000000000E+00 0.  1.
         21   -1    0    0  502  503 -0.00000000000E+00 -0.00000000000E+00 -0.13834647379E+03  0.13834647379E+03  0.00000000000E+00 0.  1.
          1    1    1    2  501    0 -0.13026669340E+02 -0.15558543572E+02 -0.10485976736E+03  0.10680511787E+03  0.00000000000E+00 0.  1.
         -1    1    1    2    0  503  0.13026669340E+02  0.15558543572E+02 -0.29347995031E+02  0.35680067328E+02  0.00000000000E+00 0. -1.
<mgrwt>
<rscale>  2 0.20291929E+02</rscale>
<asrwt>0</asrwt>
<pdfrwt beam="1">  1       21 0.63672480E-03 0.20291929E+02</pdfrwt>
<pdfrwt beam="2">  1       21 0.21284074E-01 0.20291929E+02</pdfrwt>
<totfact> 0.10460596E+08</totfact>
</mgrwt>
</event>
<event>
 4    1  0.7478314E+004  0.2156949E+02  0.7546771E-02  0.1715806E+00
         21   -1    0    0  503  502  0.00000000000E+00  0.00000000000E+00  0.70594188615E+00  0.70594188615E+00  0.00000000000E+00 0.  1.
         21   -1    0    0  501  503 -0.00000000000E+00 -0.00000000000E+00 -0.65917946018E+03  0.65917946018E+03  0.00000000000E+00 0.  1.
          3    1    1    2  501    0  0.20574467062E+01 -0.21471136953E+02 -0.33406338448E+03  0.33475899937E+03  0.00000000000E+00 0. -1.
         -3    1    1    2    0  502 -0.20574467062E+01  0.21471136953E+02 -0.32441013381E+03  0.32512640269E+03  0.00000000000E+00 0.  1.
<mgrwt>
<rscale>  2 0.21569488E+02</rscale>
<asrwt>0</asrwt>
<pdfrwt beam="1">  1       21 0.10860643E-03 0.21569488E+02</pdfrwt>
<pdfrwt beam="2">  1       21 0.10141224E+00 0.21569488E+02</pdfrwt>
<totfact> 0.67515262E+07</totfact>
</mgrwt>
</event>
<event>
 4    1  0.7478314E+004  0.2405701E+02  0.7546771E-02  0.1674928E+00
         21   -1    0    0  501  502  0.00000000000E+00  0.00000000000E+00  0.57520613931E+02  0.57520613931E+02  0.00000000000E+00 0.  1.
         21   -1    0    0  502  503 -0.00000000000E+00 -0.00000000000E+00 -0.10325621305E+02  0.10325621305E+02  0.00000000000E+00 0.  1.
          3    1    1    2  501    0  0.76560575458E+01 -0.22806238427E+02  0.29023692919E+02  0.37697672063E+02  0.00000000000E+00 0.  1.
         -3    1    1    2    0  503 -0.76560575458E+01  0.22806238427E+02  0.18171299707E+02  0.30148563173E+02  0.00000000000E+00 0. -1.
<mgrwt>
<rscale>  2 0.24057010E+02</rscale>
<asrwt>0</asrwt>
<pdfrwt beam="1">  1       21 0.88493250E-02 0.24057010E+02</pdfrwt>
<pdfrwt beam="2">  1       21 0.15885572E-02 0.24057010E+02</pdfrwt>
<totfact> 0.12286595E+08</totfact>
</mgrwt>
</event>
<event>
 4    1  0.7478314E+004  0.2138814E+02  0.7546771E-02  0.1719054E+00
         21   -1    0    0  501  502  0.00000000000E+00  0.00000000000E+00  0.12821092452E+02  0.12821092452E+02  0.00000000000E+00 0. -1.
         21   -1    0    0  502  503 -0.00000000000E+00 -0.00000000000E+00 -0.48120120950E+02  0.48120120950E+02  0.00000000000E+00 0. -1.
          2    1    1    2  501    0 -0.12485602633E+02  0.17365545484E+02 -0.21565086327E+01  0.21496580484E+02  0.00000000000E+00 0. -1.
         -2    1    1    2    0  503  0.12485602633E+02 -0.17365545484E+02 -0.33142519864E+02  0.39444632918E+02  0.00000000000E+00 0.  1.
<mgrwt>
<rscale>  2 0.21388138E+02</rscale>
<asrwt>0</asrwt>
<pdfrwt beam="1">  1       21 0.19724758E-02 0.21388138E+02</pdfrwt>
<pdfrwt beam="2">  1       21 0.74030956E-02 0.21388138E+02</pdfrwt>
<totfact> 0.11410825E+08</totfact>
</mgrwt>
</event>
<event>
 4    1  0.7478314E+004  0.2328209E+02  0.7546771E-02  0.1686978E+00
         21   -1    0    0  503  502  0.00000000000E+00  0.00000000000E+00  0.28997971015E+01  0.28997971015E+01  0.00000000000E+00 0.  1.
         21   -1    0    0  501  503 -0.00000000000E+00 -0.00000000000E+00 -0.21057052130E+03  0.21057052130E+03  0.00000000000E+00 0.  1.
          3    1    1    2  501    0  0.10323479127E+02 -0.20868191715E+02 -0.13959952717E+03  0.14152767798E+03  0.00000000000E+00 0.  1.
         -3    1    1    2    0  502 -0.10323479127E+02  0.20868191715E+02 -0.68071197030E+02  0.71942640429E+02  0.00000000000E+00 0. -1.
<mgrwt>
<rscale>  2 0.23282089E+02</rscale>
<asrwt>0</asrwt>
<pdfrwt beam="1">  1       21 0.44612266E-03 0.23282089E+02</pdfrwt>
<pdfrwt beam="2">  1       21 0.32395463E-01 0.23282089E+02</pdfrwt>
<totfact> 0.86575717E+07</totfact>
</mgrwt>
</event>
<event>
 4    1  0.7478314E+004  0.2174382E+02  0.7546771E-02  0.1712720E+00
         21   -1    0    0  501  502  0.00000000000E+00  0.00000000000E+00  0.14936963455E+03  0.14936963455E+03  0.00000000000E+00 0.  1.
         21   -1    0    0  502  503 -0.00000000000E+00 -0.00000000000E+00 -0.32674444363E+01  0.32674444363E+01  0.00000000000E+00 0.  1.
          1    1    1    2  501    0  0.92397177614E+01 -0.19683022560E+02  0.59554697355E+02  0.63399966391E+02  0.00000000000E+00 0. -1.
         -1    1    1    2    0  503 -0.92397177614E+01  0.19683022560E+02  0.86547492760E+02  0.89237112596E+02  0.00000000000E+00 0.  1.
<mgrwt>
<rscale>  2 0.21743821E+02</rscale>
<asrwt>0</asrwt>
<pdfrwt beam="1">  1       21 0.22979939E-01 0.21743821E+02</pdfrwt>
<pdfrwt beam="2">  1       21 0.50268387E-03 0.21743821E+02</pdfrwt>
<totfact> 0.13217726E+08</totfact>
</mgrwt>
</event>
<event>
 4    1  0.7478314E+004  0.2386571E+02  0.7546771E-02  0.1677850E+00
         21   -1    0    0  501  502  0.00000000000E+00  0.00000000000E+00  0.22224721924E+03  0.22224721924E+03  0.00000000000E+00 0.  1.
         21   -1    0    0  502  503 -0.00000000000E+00 -0.00000000000E+00 -0.43151277255E+01  0.43151277255E+01  0.00000000000E+00 0.  1.
          4    1    1    2  501    0 -0.20399546001E+02 -0.12386708715E+02  0.36777161292E+02  0.43842121556E+02  0.00000000000E+00 0.  1.
         -4    1    1    2    0  503  0.20399546001E+02  0.12386708715E+02  0.18115493022E+03  0.18272022541E+03  0.00000000000E+00 0. -1.
<mgrwt>
<rscale>  2 0.23865708E+02</rscale>
<asrwt>0</asrwt>
<pdfrwt beam="1">  1       21 0.34191871E-01 0.23865708E+02</pdfrwt>
<pdfrwt beam="2">  1       21 0.66386598E-03 0.23865708E+02</pdfrwt>
<totfact> 0.43804754E+07</totfact>
</mgrwt>
</event>
<event>
 4    1  0.7478314E+004  0.4432509E+02  0.7546771E-02  0.1478599E+00
         21   -1    0    0  503  502  0.00000000000E+00  0.00000000000E+00  0.25540024520E+01  0.25540024520E+01  0.00000000000E+00 0. -1.
         21   -1    0    0  501  503 -0.00000000000E+00 -0.00000000000E+00 -0.80451606646E+03  0.80451606646E+03  0.00000000000E+00 0. -1.
          2    1    1    2  501    0 -0.25450844624E+02  0.36290052274E+02 -0.48544647320E+03  0.48746588776E+03  0.00000000000E+00 0. -1.
         -2    1    1    2    0  502  0.25450844624E+02 -0.36290052274E+02 -0.31651559080E+03  0.31960418115E+03  0.00000000000E+00 0.  1.
<mgrwt>
<rscale>  2 0.44325088E+02</rscale>
<asrwt>0</asrwt>
<pdfrwt beam="1">  1       21 0.39292353E-03 0.44325088E+02</pdfrwt>
<pdfrwt beam="2">  1       21 0.12377168E+00 0.44325088E+02</pdfrwt>
<totfact> 0.73756726E+06</totfact>
</mgrwt>
</event>
<event>
 4    1  0.7478314E+004  0.3323777E+02  0.7546771E-02  0.1564831E+00
         21   -1    0    0  501  502  0.00000000000E+00  0.00000000000E+00  0.26824312080E+02  0.26824312080E+02  0.00000000000E+00 0. -1.
         21   -1    0    0  502  503 -0.00000000000E+00 -0.00000000000E+00 -0.42188581607E+02  0.42188581607E+02  0.00000000000E+00 0. -1.
          4    1    1    2  501    0 -0.18861353193E+02 -0.27367835945E+02 -0.23590740160E+01  0.33321379305E+02  0.00000000000E+00 0.  1.
         -4    1    1    2    0  503  0.18861353193E+02  0.27367835945E+02 -0.13005195510E+02  0.35691514382E+02  0.00000000000E+00 0. -1.
<mgrwt>
<rscale>  2 0.33237766E+02</rscale>
<asrwt>0</asrwt>
<pdfrwt beam="1">  1       21 0.41268172E-02 0.33237766E+02</pdfrwt>
<pdfrwt beam="2">  1       21 0.64905511E-02 0.33237766E+02</pdfrwt>
<totfact> 0.49851957E+07</totfact>
</mgrwt>
</event>
<event>
 4    1  0.7478314E+004  0.2184705E+02  0.7546771E-02  0.1710911E+00
         21   -1    0    0  503  502  0.00000000000E+00  0.00000000000E+00  0.24264534293E+00  0.24264534293E+00  0.00000000000E+00 0. -1.
         21   -1    0    0  501  503 -0.00000000000E+00 -0.00000000000E+00 -0.20035492199E+04  0.20035492199E+04  0.00000000000E+00 0. -1.
          4    1    1    2  501    0 -0.68717901849E+01  0.20738184089E+02 -0.86641268121E+03  0.86668807996E+03  0.00000000000E+00 0.  1.
         -4    1    1    2    0  502  0.68717901849E+01 -0.20738184089E+02 -0.11368938934E+04  0.11371037853E+04  0.00000000000E+00 0. -1.
<mgrwt>
<rscale>  2 0.21847054E+02</rscale>
<asrwt>0</asrwt>
<pdfrwt beam="1">  1       21 0.37329810E-04 0.21847054E+02</pdfrwt>
<pdfrwt beam="2">  1       21 0.30824034E+00 0.21847054E+02</pdfrwt>
<totfact> 0.17805168E+07</totfact>
</mgrwt>
</event>
<event>
 4    1  0.7478314E+004  0.2780142E+02  0.7546771E-02  0.1623745E+00
         21   -1    0    0  503  502  0.00000000000E+00  0.00000000000E+00  0.68494766552E+03  0.68494766552E+03  0.00000000000E+00 0.  1.
         21   -1    0    0  501  503 -0.00000000000E+00 -0.00000000000E+00 -0.11343133591E+01  0.11343133591E+01  0.00000000000E+00 0.  1.
          3    1    1    2  501    0  0.72482321567E+01 -0.26839931716E+02  0.36660194454E+03  0.36765459951E+03  0.00000000000E+00 0. -1.
         -3    1    1    2    0  502 -0.72482321567E+01  0.26839931716E+02  0.31721140762E+03  0.31842737936E+03  0.00000000000E+00 0.  1.
<mgrwt>
<rscale>  2 0.27801417E+02</rscale>
<asrwt>0</asrwt>
<pdfrwt beam="1">  1       21 0.10537623E+00 0.27801417E+02</pdfrwt>
<pdfrwt beam="2">  1       21 0.17451030E-03 0.27801417E+02</pdfrwt>
<totfact> 0.33093735E+07</totfact>
</mgrwt>
</event>
<event>
 4    1  0.7478314E+004  0.2114668E+02  0.7546771E-02  0.1723442E+00
         21   -1    0    0  503  502  0.00000000000E+00  0.00000000000E+00  0.13303275992E+03  0.13303275992E+03  0.00000000000E+00 0.  1.
         21   -1    0    0  501  503 -0.00000000000E+00 -0.00000000000E+00 -0.33932041881E+01  0.33932041881E+01  0.00000000000E+00 0.  1.
          4    1    1    2  501    0 -0.16238459226E+02  0.13546022472E+02  0.58220477326E+02  0.61941958824E+02  0.00000000000E+00 0.  1.
         -4    1    1    2    0  502  0.16238459226E+02 -0.13546022472E+02  0.71419078406E+02  0.74484005284E+02  0.00000000000E+00 0. -1.
<mgrwt>
<rscale>  2 0.21146685E+02</rscale>
<asrwt>0</asrwt>
<pdfrwt beam="1">  1       21 0.20466574E-01 0.21146685E+02</pdfrwt>
<pdfrwt beam="2">  1       21 0.52203152E-03 0.21146685E+02</pdfrwt>
<totfact> 0.15193017E+08</totfact>
</mgrwt>
</event>
<event>
 4    1  0.7478314E+004  0.2236535E+02  0.7546771E-02  0.1702009E+00
         21   -1    0    0  501  502  0.00000000000E+00  0.00000000000E+00  0.21134663840E+02  0.21134663840E+02  0.00000000000E+00 0.  1.
         21   -1    0    0  502  503 -0.00000000000E+00 -0.00000000000E+00 -0.23851824104E+02  0.23851824104E+02  0.00000000000E+00 0.  1.
          2    1    1    2  501    0  0.21483419491E+02  0.62186487863E+01 -0.33348459979E+01  0.22612609393E+02  0.00000000000E+00 0. -1.
         -2    1    1    2    0  503 -0.21483419491E+02 -0.62186487863E+01  0.61768573325E+00  0.22373878551E+02  0.00000000000E+00 0.  1.
<mgrwt>
<rscale>  2 0.22365351E+02</rscale>
<asrwt>0</asrwt>
<pdfrwt beam="1">  1       21 0.32514868E-02 0.22365351E+02</pdfrwt>
<pdfrwt beam="2">  1       21 0.36695114E-02 0.22365351E+02</pdfrwt>
<totfact> 0.16343961E+08</totfact>
</mgrwt>
</event>
<event>
 4    1  0.7478314E+004  0.2489834E+02  0.7546771E-02  0.1662466E+00
         21   -1    0    0  503  502  0.00000000000E+00  0.00000000000E+00  0.51970353224E+01  0.51970353224E+01  0.00000000000E+00 0.  1.
         21   -1    0    0  501  503 -0.00000000000E+00 -0.00000000000E+00 -0.12094814006E+03  0.12094814006E+03  0.00000000000E+00 0.  1.
          2    1    1    2  501    0  0.15852617749E+02  0.19199521864E+02 -0.65272224040E+02  0.69859790727E+02  0.00000000000E+00 0. -1.
         -2    1    1    2    0  502 -0.15852617749E+02 -0.19199521864E+02 -0.50478880698E+02  0.56285384655E+02  0.00000000000E+00 0.  1.
<mgrwt>
<rscale>  2 0.24898336E+02</rscale>
<asrwt>0</asrwt>
<pdfrwt beam="1">  1       21 0.79954387E-03 0.24898336E+02</pdfrwt>
<pdfrwt beam="2">  1       21 0.18607407E-01 0.24898336E+02</pdfrwt>
<totfact> 0.99738499E+07</totfact>
</mgrwt>
</event>
<event>
 4    1  0.7478314E+004  0.2223194E+02  0.7546771E-02  0.1704271E+00
         21   -1    0    0  503  502  0.00000000000E+00  0.00000000000E+00  0.25752366071E+01  0.25752366071E+01  0.00000000000E+00 0. -1.
         21   -1    0    0  501  503 -0.00000000000E+00 -0.00000000000E+00 -0.20957470812E+03  0.20957470812E+03  0.00000000000E+00 0. -1.
          2    1    1    2  501    0  0.19732542802E+02  0.10241380899E+02 -0.13428051177E+03  0.13610846766E+03  0.00000000000E+00 0.  1.
         -2    1    1    2    0  502 -0.19732542802E+02 -0.10241380899E+02 -0.72718959747E+02  0.76041477069E+02  0.00000000000E+00 0. -1.
<mgrwt>
<rscale>  2 0.22231939E+02</rscale>
<asrwt>0</asrwt>
<pdfrwt beam="1">  1       21 0.39618993E-03 0.22231939E+02</pdfrwt>
<pdfrwt beam="2">  1       21 0.32242288E-01 0.22231939E+02</pdfrwt>
<totfact> 0.10268392E+08</totfact>
</mgrwt>
</event>
<event>
 4    1  0.7478314E+004  0.2443080E+02  0.7546771E-02  0.1669315E+00
         21   -1    0    0  503  502  0.00000000000E+00  0.00000000000E+00  0.55540347267E+03  0.55540347267E+03  0.00000000000E+00 0. -1.
         21   -1    0    0  501  503 -0.00000000000E+00 -0.00000000000E+00 -0.10747136269E+01  0.10747136269E+01  0.00000000000E+00 0. -1.
          2    1    1    2  501    0  0.70744598124E+01 -0.23384099942E+02  0.27501654033E+03  0.27609955011E+03  0.00000000000E+00 0.  1.
         -2    1    1    2    0  502 -0.70744598124E+01  0.23384099942E+02  0.27931221871E+03  0.28037863619E+03  0.00000000000E+00 0. -1.
<mgrwt>
<rscale>  2 0.24430803E+02</rscale>
<asrwt>0</asrwt>
<pdfrwt beam="1">  1       21 0.85446459E-01 0.24430803E+02</pdfrwt>
<pdfrwt beam="2">  1       21 0.16534100E-03 0.24430803E+02</pdfrwt>
<totfact> 0.55053213E+07</totfact>
</mgrwt>
</event>
<event>
 4    1  0.7478314E+004  0.2158203E+02  0.7546771E-02  0.1715582E+00
         21   -1    0    0  503  502  0.00000000000E+00  0.00000000000E+00  0.38890468408E+00  0.38890468408E+00  0.00000000000E+00 0. -1.
         21   -1    0    0  501  503 -0.00000000000E+00 -0.00000000000E+00 -0.13986460041E+04  0.13986460041E+04  0.00000000000E+00 0. -1.
          1    1    1    2  501    0 -0.20185853491E+02 -0.76364618015E+01 -0.43397128023E+03  0.43450760212E+03  0.00000000000E+00 0. -1.
         -1    1    1    2    0  502  0.20185853491E+02  0.76364618015E+01 -0.96428581920E+03  0.96452730669E+03  0.00000000000E+00 0.  1.
<mgrwt>
<rscale>  2 0.21582035E+02</rscale>
<asrwt>0</asrwt>
<pdfrwt beam="1">  1       21 0.59830097E-04 0.21582035E+02</pdfrwt>
<pdfrwt beam="2">  1       21 0.21518132E+00 0.21582035E+02</pdfrwt>
<totfact> 0.26360574E+07</totfact>
</mgrwt>
</event>
<event>
 4    1  0.7478314E+004  0.2490962E+02  0.7546771E-02  0.1662304E+00
         21   -1    0    0  503  502  0.00000000000E+00  0.00000000000E+00  0.92293428899E+02  0.92293428899E+02  0.00000000000E+00 0. -1.
         21   -1    0    0  501  503 -0.00000000000E+00 -0.00000000000E+00 -0.67327630053E+01  0.67327630053E+01  0.00000000000E+00 0. -1.
          2    1    1    2  501    0 -0.15319705218E+02 -0.19641679948E+02  0.44665536023E+02  0.51141950172E+02  0.00000000000E+00 0.  1.
         -2    1    1    2    0  502  0.15319705218E+02  0.19641679948E+02  0.40895129870E+02  0.47884241732E+02  0.00000000000E+00 0. -1.
<mgrwt>
<rscale>  2 0.24909616E+02</rscale>
<asrwt>0</asrwt>
<pdfrwt beam="1">  1       21 0.14198988E-01 0.24909616E+02</pdfrwt>
<pdfrwt beam="2">  1       21 0.10358098E-02 0.24909616E+02</pdfrwt>
<totfact> 0.10763202E+08</totfact>
</mgrwt>
</event>
<event>
 4    1  0.7478314E+004  0.2892483E+02  0.7546771E-02  0.1610287E+00
         21   -1    0    0  503  502  0.00000000000E+00  0.00000000000E+00  0.14854677197E+02  0.14854677197E+02  0.00000000000E+00 0. -1.
         21   -1    0    0  501  503 -0.00000000000E+00 -0.00000000000E+00 -0.72099418933E+02  0.72099418933E+02  0.00000000000E+00 0. -1.
          2    1    1    2  501    0 -0.72704030611E+01 -0.27996201474E+02 -0.82842283919E+01  0.30087779873E+02  0.00000000000E+00 0.  1.
         -2    1    1    2    0  502  0.72704030611E+01  0.27996201474E+02 -0.48960513344E+02  0.56866316256E+02  0.00000000000E+00 0. -1.
<mgrwt>
<rscale>  2 0.28924835E+02</rscale>
<asrwt>0</asrwt>
<pdfrwt beam="1">  1       21 0.22853350E-02 0.28924835E+02</pdfrwt>
<pdfrwt beam="2">  1       21 0.11092218E-01 0.28924835E+02</pdfrwt>
<totfact> 0.50517975E+07</totfact>
</mgrwt>
</event>
<event>
 4    1  0.7478314E+004  0.2048720E+02  0.7546771E-02  0.1735810E+00
         21   -1    0    0  503  502  0.00000000000E+00  0.00000000000E+00  0.21191317495E+03  0.21191317495E+03  0.00000000000E+00 0.  1.
         21   -1    0    0  501  503 -0.00000000000E+00 -0.00000000000E+00 -0.20036003972E+01  0.20036003972E+01  0.00000000000E+00 0.  1.
          3    1    1    2  501    0 -0.10969328385E+02  0.17303155078E+02  0.11640269793E+03  0.11819185008E+03  0.00000000000E+00 0.  1.
         -3    1    1    2    0  502  0.10969328385E+02 -0.17303155078E+02  0.93506876619E+02  0.95724925260E+02  0.00000000000E+00 0. -1.
<mgrwt>
<rscale>  2 0.20487199E+02</rscale>
<asrwt>0</asrwt>
<pdfrwt beam="1">  1       21 0.32602009E-01 0.20487199E+02</pdfrwt>
<pdfrwt beam="2">  1       21 0.30824638E-03 0.20487199E+02</pdfrwt>
<totfact> 0.14181140E+08</totfact>
</mgrwt>
</event>
<event>
 4    1  0.7478314E+004  0.2105140E+02  0.7546771E-02  0.1725193E+00
         21   -1    0    0  501  502  0.00000000000E+00  0.00000000000E+00  0.38916498729E+02  0.38916498729E+02  0.00000000000E+00 0.  1.
         21   -1    0    0  502  503 -0.00000000000E+00 -0.00000000000E+00 -0.11387921586E+02  0.11387921586E+02  0.00000000000E+00 0.  1.
          4    1    1    2  501    0 -0.20994288886E+02  0.15496078824E+01  0.13610419421E+02  0.25068006846E+02  0.00000000000E+00 0.  1.
         -4    1    1    2    0  503  0.20994288886E+02 -0.15496078824E+01  0.13918157721E+02  0.25236413469E+02  0.00000000000E+00 0. -1.
<mgrwt>
<rscale>  2 0.21051400E+02</rscale>
<asrwt>0</asrwt>
<pdfrwt beam="1">  1       21 0.59871536E-02 0.21051400E+02</pdfrwt>
<pdfrwt beam="2">  1       21 0.17519880E-02 0.21051400E+02</pdfrwt>
<totfact> 0.19150155E+08</totfact>
</mgrwt>
</event>
<event>
 4    1  0.7478314E+004  0.2394585E+02  0.7546771E-02  0.1676621E+00
         21   -1    0    0  503  502  0.00000000000E+00  0.00000000000E+00  0.98551983527E+02  0.98551983527E+02  0.00000000000E+00 0. -1.
         21   -1    0    0  501  503 -0.00000000000E+00 -0.00000000000E+00 -0.65462888218E+01  0.65462888218E+01  0.00000000000E+00 0. -1.
          5    1    1    2  501    0  0.70085355745E+01  0.22897253558E+02  0.63526879086E+02  0.67890118264E+02  0.00000000000E+00 0. -1.
         -5    1    1    2    0  502 -0.70085355745E+01 -0.22897253558E+02  0.28478815618E+02  0.37208154085E+02  0.00000000000E+00 0.  1.
<mgrwt>
<rscale>  2 0.23945851E+02</rscale>
<asrwt>0</asrwt>
<pdfrwt beam="1">  1       21 0.15161842E-01 0.23945851E+02</pdfrwt>
<pdfrwt beam="2">  1       21 0.10071214E-02 0.23945851E+02</pdfrwt>
<totfact> 0.99340172E+07</totfact>
</mgrwt>
</event>
<event>
 4    1  0.7478314E+004  0.3317560E+02  0.7546771E-02  0.1565425E+00
         21   -1    0    0  501  502  0.00000000000E+00  0.00000000000E+00  0.10592791336E+03  0.10592791336E+03  0.00000000000E+00 0. -1.
         21   -1    0    0  502  503 -0.00000000000E+00 -0.00000000000E+00 -0.15677244950E+02  0.15677244950E+02  0.00000000000E+00 0. -1.
          4    1    1    2  501    0  0.32795882810E+02 -0.50050416523E+01  0.98159238670E+01  0.34597293718E+02  0.00000000000E+00 0.  1.
         -4    1    1    2    0  503 -0.32795882810E+02  0.50050416523E+01  0.80434744547E+02  0.87007864596E+02  0.00000000000E+00 0. -1.
<mgrwt>
<rscale>  2 0.33175599E+02</rscale>
<asrwt>0</asrwt>
<pdfrwt beam="1">  1       21 0.16296602E-01 0.33175599E+02</pdfrwt>
<pdfrwt beam="2">  1       21 0.24118839E-02 0.33175599E+02</pdfrwt>
<totfact> 0.24741295E+07</totfact>
</mgrwt>
</event>
<event>
 4    1  0.7478314E+004  0.2299933E+02  0.7546771E-02  0.1691521E+00
         21   -1    0    0  501  502  0.00000000000E+00  0.00000000000E+00  0.46706849807E+02  0.46706849807E+02  0.00000000000E+00 0.  1.
         21   -1    0    0  502  503 -0.00000000000E+00 -0.00000000000E+00 -0.12062767167E+02  0.12062767167E+02  0.00000000000E+00 0.  1.
          2    1    1    2  501    0  0.41841436932E+01  0.22615524063E+02  0.10056443388E+02  0.25101813495E+02  0.00000000000E+00 0.  1.
         -2    1    1    2    0  503 -0.41841436932E+01 -0.22615524063E+02  0.24587639252E+02  0.33667803479E+02  0.00000000000E+00 0. -1.
<mgrwt>
<rscale>  2 0.22999326E+02</rscale>
<asrwt>0</asrwt>
<pdfrwt beam="1">  1       21 0.71856691E-02 0.22999326E+02</pdfrwt>
<pdfrwt beam="2">  1       21 0.18558104E-02 0.22999326E+02</pdfrwt>
<totfact> 0.13433425E+08</totfact>
</mgrwt>
</event>
<event>
 4    1  0.7478314E+004  0.2014620E+02  0.7546771E-02  0.1742436E+00
         21   -1    0    0  501  502  0.00000000000E+00  0.00000000000E+00  0.15533708408E+01  0.15533708408E+01  0.00000000000E+00 0. -1.
         21   -1    0    0  502  503 -0.00000000000E+00 -0.00000000000E+00 -0.34673204311E+03  0.34673204311E+03  0.00000000000E+00 0. -1.
          2    1    1    2  501    0  0.12666212332E+02 -0.15666408234E+02 -0.86139915674E+02  0.88464424229E+02  0.00000000000E+00 0.  1.
         -2    1    1    2    0  503 -0.12666212332E+02  0.15666408234E+02 -0.25903875659E+03  0.25982098972E+03  0.00000000000E+00 0. -1.
<mgrwt>
<rscale>  2 0.20146198E+02</rscale>
<asrwt>0</asrwt>
<pdfrwt beam="1">  1       21 0.23898036E-03 0.20146198E+02</pdfrwt>
<pdfrwt beam="2">  1       21 0.53343339E-01 0.20146198E+02</pdfrwt>
<totfact> 0.80612817E+07</totfact>
</mgrwt>
</event>
<event>
 4    1  0.7478314E+004  0.2861680E+02  0.7546771E-02  0.1613901E+00
         21   -1    0    0  501  502  0.00000000000E+00  0.00000000000E+00  0.16601103326E+01  0.16601103326E+01  0.00000000000E+00 0.  1.
         21   -1    0    0  502  503 -0.00000000000E+00 -0.00000000000E+00 -0.59493163815E+03  0.59493163815E+03  0.00000000000E+00 0.  1.
          5    1    1    2  501    0  0.10627048559E+02 -0.26570415461E+02 -0.41992998030E+03  0.42090391955E+03  0.00000000000E+00 0.  1.
         -5    1    1    2    0  503 -0.10627048559E+02  0.26570415461E+02 -0.17334154751E+03  0.17568782893E+03  0.00000000000E+00 0. -1.
<mgrwt>
<rscale>  2 0.28616798E+02</rscale>
<asrwt>0</asrwt>
<pdfrwt beam="1">  1       21 0.25540134E-03 0.28616798E+02</pdfrwt>
<pdfrwt beam="2">  1       21 0.91528035E-01 0.28616798E+02</pdfrwt>
<totfact> 0.26059039E+07</totfact>
</mgrwt>
</event>
<event>
 4    1  0.7478314E+004  0.2200084E+02  0.7546771E-02  0.1708237E+00
         21   -1    0    0  503  502  0.00000000000E+00  0.00000000000E+00  0.49885348898E+03  0.49885348898E+03  0.00000000000E+00 0.  1.
         21   -1    0    0  501  503 -0.00000000000E+00 -0.00000000000E+00 -0.97043240864E+00  0.97043240864E+00  0.00000000000E+00 0.  1.
          3    1    1    2  501    0 -0.24050375702E+01  0.21868992260E+02  0.25187201583E+03  0.25283106887E+03  0.00000000000E+00 0. -1.
         -3    1    1    2    0  502  0.24050375702E+01 -0.21868992260E+02  0.24601104074E+03  0.24699285252E+03  0.00000000000E+00 0.  1.
<mgrwt>
<rscale>  2 0.22000842E+02</rscale>
<asrwt>0</asrwt>
<pdfrwt beam="1">  1       21 0.76746486E-01 0.22000842E+02</pdfrwt>
<pdfrwt beam="2">  1       21 0.14929769E-03 0.22000842E+02</pdfrwt>
<totfact> 0.77975111E+07</totfact>
</mgrwt>
</event>
<event>
 4    1  0.7478314E+004  0.3295741E+02  0.7546771E-02  0.1567525E+00
         21   -1    0    0  503  502  0.00000000000E+00  0.00000000000E+00  0.91400866439E+01  0.91400866439E+01  0.00000000000E+00 0.  1.
         21   -1    0    0  501  503 -0.00000000000E+00 -0.00000000000E+00 -0.12063398505E+03  0.12063398505E+03  0.00000000000E+00 0.  1.
          4    1    1    2  501    0 -0.49972039286E+01  0.32576350915E+02 -0.63663943080E+02  0.71688829915E+02  0.00000000000E+00 0. -1.
         -4    1    1    2    0  502  0.49972039286E+01 -0.32576350915E+02 -0.47829955325E+02  0.58085241778E+02  0.00000000000E+00 0.  1.
<mgrwt>
<rscale>  2 0.32957407E+02</rscale>
<asrwt>0</asrwt>
<pdfrwt beam="1">  1       21 0.14061672E-02 0.32957407E+02</pdfrwt>
<pdfrwt beam="2">  1       21 0.18559075E-01 0.32957407E+02</pdfrwt>
<totfact> 0.45426780E+07</totfact>
</mgrwt>
</event>
<event>
 4    1  0.7478314E+004  0.2453597E+02  0.7546771E-02  0.1667758E+00
         21   -1    0    0  501  502  0.00000000000E+00  0.00000000000E+00  0.46927109209E+02  0.46927109209E+02  0.00000000000E+00 0. -1.
         21   -1    0    0  502  503 -0.00000000000E+00 -0.00000000000E+00 -0.14750515708E+02  0.14750515708E+02  0.00000000000E+00 0. -1.
          1    1    1    2  501    0  0.13221263542E+02 -0.20669105088E+02  0.49568879525E+01  0.25031669001E+02  0.00000000000E+00 0. -1.
         -1    1    1    2    0  503 -0.13221263542E+02  0.20669105088E+02  0.27219705549E+02  0.36645955915E+02  0.00000000000E+00 0.  1.
<mgrwt>
<rscale>  2 0.24535968E+02</rscale>
<asrwt>0</asrwt>
<pdfrwt beam="1">  1       21 0.72195552E-02 0.24535968E+02</pdfrwt>
<pdfrwt beam="2">  1       21 0.22693101E-02 0.24535968E+02</pdfrwt>
<totfact> 0.99696390E+07</totfact>
</mgrwt>
</event>
<event>
 4    1  0.7478314E+004  0.2023145E+02  0.7546771E-02  0.1740764E+00
         21   -1    0    0  503  502  0.00000000000E+00  0.00000000000E+00  0.83361911698E+01  0.83361911698E+01  0.00000000000E+00 0.  1.
         21   -1    0    0  501  503 -0.00000000000E+00 -0.00000000000E+00 -0.49284573802E+02  0.49284573802E+02  0.00000000000E+00 0.  1.
          1    1    1    2  501    0  0.19066566696E+02  0.67659056094E+01 -0.18713640745E+02  0.27559241540E+02  0.00000000000E+00 0.  1.
         -1    1    1    2    0  502 -0.19066566696E+02 -0.67659056094E+01 -0.22234741887E+02  0.30061523432E+02  0.00000000000E+00 0. -1.
<mgrwt>
<rscale>  2 0.20231447E+02</rscale>
<asrwt>0</asrwt>
<pdfrwt beam="1">  1       21 0.12824910E-02 0.20231447E+02</pdfrwt>
<pdfrwt beam="2">  1       21 0.75822420E-02 0.20231447E+02</pdfrwt>
<totfact> 0.20734724E+08</totfact>
</mgrwt>
</event>
<event>
 4    1  0.7478314E+004  0.2200633E+02  0.7546771E-02  0.1708142E+00
         21   -1    0    0  503  502  0.00000000000E+00  0.00000000000E+00  0.96274445112E+02  0.96274445112E+02  0.00000000000E+00 0.  1.
         21   -1    0    0  501  503 -0.00000000000E+00 -0.00000000000E+00 -0.50713543822E+01  0.50713543822E+01  0.00000000000E+00 0.  1.
          3    1    1    2  501    0  0.20264181287E+01 -0.21912835451E+02  0.41036176776E+02  0.46564434199E+02  0.00000000000E+00 0.  1.
         -3    1    1    2    0  502 -0.20264181287E+01  0.21912835451E+02  0.50166913954E+02  0.54781365295E+02  0.00000000000E+00 0. -1.
<mgrwt>
<rscale>  2 0.22006334E+02</rscale>
<asrwt>0</asrwt>
<pdfrwt beam="1">  1       21 0.14811452E-01 0.22006334E+02</pdfrwt>
<pdfrwt beam="2">  1       21 0.78020844E-03 0.22006334E+02</pdfrwt>
<totfact> 0.14785001E+08</totfact>
</mgrwt>
</event>
<event>
 4    1  0.7478314E+004  0.2295924E+02  0.7546771E-02  0.1692172E+00
         21   -1    0    0  501  502  0.00000000000E+00  0.00000000000E+00  0.18539799310E+03  0.18539799310E+03  0.00000000000E+00 0. -1.
         21   -1    0    0  502  503 -0.00000000000E+00 -0.00000000000E+00 -0.28888863433E+01  0.28888863433E+01  0.00000000000E+00 0. -1.
          1    1    1    2  501    0 -0.22078399746E+02 -0.62984921390E+01  0.10309142367E+03  0.10561708371E+03  0.00000000000E+00 0.  1.
         -1    1    1    2    0  503  0.22078399746E+02  0.62984921390E+01  0.79417683089E+02  0.82669795728E+02  0.00000000000E+00 0. -1.
<mgrwt>
<rscale>  2 0.22959241E+02</rscale>
<asrwt>0</asrwt>
<pdfrwt beam="1">  1       21 0.28522759E-01 0.22959241E+02</pdfrwt>
<pdfrwt beam="2">  1       21 0.44444420E-03 0.22959241E+02</pdfrwt>
<totfact> 0.10937927E+08</totfact>
</mgrwt>
</event>
<event>
 4    1  0.7478314E+004  0.2731893E+02  0.7546771E-02  0.1629767E+00
         21   -1    0    0  503  502  0.00000000000E+00  0.00000000000E+00  0.12523284137E+02  0.12523284137E+02  0.00000000000E+00 0.  1.
         21   -1    0    0  501  503 -0.00000000000E+00 -0.00000000000E+00 -0.60585729965E+02  0.60585729965E+02  0.00000000000E+00 0.  1.
          2    1    1    2  501    0 -0.73674067138E+01  0.26306754409E+02 -0.28705912904E+02  0.39627685334E+02  0.00000000000E+00 0. -1.
         -2    1    1    2    0  502  0.73674067138E+01 -0.26306754409E+02 -0.19356532924E+02  0.33481328768E+02  0.00000000000E+00 0.  1.
<mgrwt>
<rscale>  2 0.27318931E+02</rscale>
<asrwt>0</asrwt>
<pdfrwt beam="1">  1       21 0.19266590E-02 0.27318931E+02</pdfrwt>
<pdfrwt beam="2">  1       21 0.93208818E-02 0.27318931E+02</pdfrwt>
<totfact> 0.86767522E+07</totfact>
</mgrwt>
</event>
<event>
 4    1  0.7478314E+004  0.3445539E+02  0.7546771E-02  0.1553491E+00
         21   -1    0    0  501  502  0.00000000000E+00  0.00000000000E+00  0.30201416215E+01  0.30201416215E+01  0.00000000000E+00 0.  1.
         21   -1    0    0  502  503 -0.00000000000E+00 -0.00000000000E+00 -0.40373190868E+03  0.40373190868E+03  0.00000000000E+00 0.  1.
          1    1    1    2  501    0 -0.79864689024E+01  0.33517017336E+02 -0.16733010634E+03  0.17084068200E+03  0.00000000000E+00 0.  1.
         -1    1    1    2    0  503  0.79864689024E+01 -0.33517017336E+02 -0.23338166072E+03  0.23591136831E+03  0.00000000000E+00 0. -1.
<mgrwt>
<rscale>  2 0.34455393E+02</rscale>
<asrwt>0</asrwt>
<pdfrwt beam="1">  1       21 0.46463727E-03 0.34455393E+02</pdfrwt>
<pdfrwt beam="2">  1       21 0.62112588E-01 0.34455393E+02</pdfrwt>
<totfact> 0.25132917E+07</totfact>
</mgrwt>
</event>
<event>
 4    1  0.7478314E+004  0.2132110E+02  0.7546771E-02  0.1720265E+00
         21   -1    0    0  503  502  0.00000000000E+00  0.00000000000E+00  0.56013645527E+01  0.56013645527E+01  0.00000000000E+00 0. -1.
         21   -1    0    0  501  503 -0.00000000000E+00 -0.00000000000E+00 -0.93582773969E+02  0.93582773969E+02  0.00000000000E+00 0. -1.
          2    1    1    2  501    0 -0.74553634182E+01  0.19975158692E+02 -0.62061516597E+02  0.65621804690E+02  0.00000000000E+00 0.  1.
         -2    1    1    2    0  502  0.74553634182E+01 -0.19975158692E+02 -0.25919892819E+02  0.33562333831E+02  0.00000000000E+00 0. -1.
<mgrwt>
<rscale>  2 0.21321102E+02</rscale>
<asrwt>0</asrwt>
<pdfrwt beam="1">  1       21 0.86174845E-03 0.21321102E+02</pdfrwt>
<pdfrwt beam="2">  1       21 0.14397349E-01 0.21321102E+02</pdfrwt>
<totfact> 0.13251528E+08</totfact>
</mgrwt>
</event>
<event>
 4    1  0.7478314E+004  0.2694074E+02  0.7546771E-02  0.1634596E+00
         21   -1    0    0  503  502  0.00000000000E+00  0.00000000000E+00  0.69796205386E+02  0.69796205386E+02  0.00000000000E+00 0.  1.
         21   -1    0    0  501  503 -0.00000000000E+00 -0.00000000000E+00 -0.10782299142E+02  0.10782299142E+02  0.00000000000E+00 0.  1.
          4    1    1    2  501    0 -0.64574808280E+01  0.26155386899E+02  0.21909594296E+02  0.34725115474E+02  0.00000000000E+00 0.  1.
         -4    1    1    2    0  502  0.64574808280E+01 -0.26155386899E+02  0.37104311948E+02  0.45853389053E+02  0.00000000000E+00 0. -1.
<mgrwt>
<rscale>  2 0.26940737E+02</rscale>
<asrwt>0</asrwt>
<pdfrwt beam="1">  1       21 0.10737877E-01 0.26940737E+02</pdfrwt>
<pdfrwt beam="2">  1       21 0.16588153E-02 0.26940737E+02</pdfrwt>
<totfact> 0.85984889E+07</totfact>
</mgrwt>
</event>
<event>
 4    1  0.7478314E+004  0.3727927E+02  0.7546771E-02  0.1529244E+00
         21   -1    0    0  501  502  0.00000000000E+00  0.00000000000E+00  0.35116512594E+02  0.35116512594E+02  0.00000000000E+00 0. -1.
         21   -1    0    0  502  503 -0.00000000000E+00 -0.00000000000E+00 -0.47799880448E+02  0.47799880448E+02  0.00000000000E+00 0. -1.
          2    1    1    2  501    0 -0.36735605810E+02 -0.63434266459E+01 -0.23538812013E+02  0.44088768035E+02  0.00000000000E+00 0. -1.
         -2    1    1    2    0  503  0.36735605810E+02  0.63434266459E+01  0.10855444159E+02  0.38827625007E+02  0.00000000000E+00 0.  1.
<mgrwt>
<rscale>  2 0.37279268E+02</rscale>
<asrwt>0</asrwt>
<pdfrwt beam="1">  1       21 0.54025404E-02 0.37279268E+02</pdfrwt>
<pdfrwt beam="2">  1       21 0.73538277E-02 0.37279268E+02</pdfrwt>
<totfact> 0.26883167E+07</totfact>
</mgrwt>
</event>
<event>
 4    1  0.7478314E+004  0.2222327E+02  0.7546771E-02  0.1704419E+00
         21   -1    0    0  501  502  0.00000000000E+00  0.00000000000E+00  0.21301623913E+03  0.21301623913E+03  0.00000000000E+00 0.  1.
         21   -1    0    0  502  503 -0.00000000000E+00 -0.00000000000E+00 -0.23390354649E+01  0.23390354649E+01  0.00000000000E+00 0.  1.
          5    1    1    2  501    0  0.14181638123E+02 -0.17110076963E+02  0.11543311720E+03  0.11755287381E+03  0.00000000000E+00 0. -1.
         -5    1    1    2    0  503 -0.14181638123E+02  0.17110076963E+02  0.95244086466E+02  0.97802400789E+02  0.00000000000E+00 0.  1.
<mgrwt>
<rscale>  2 0.22223267E+02</rscale>
<asrwt>0</asrwt>
<pdfrwt beam="1">  1       21 0.32771714E-01 0.22223267E+02</pdfrwt>
<pdfrwt beam="2">  1       21 0.35985178E-03 0.22223267E+02</pdfrwt>
<totfact> 0.11471596E+08</totfact>
</mgrwt>
</event>
<event>
 4    1  0.7478314E+004  0.2159303E+02  0.7546771E-02  0.1715387E+00
         21   -1    0    0  503  502  0.00000000000E+00  0.00000000000E+00  0.96158704531E+01  0.96158704531E+01  0.00000000000E+00 0.  1.
         21   -1    0    0  501  503 -0.00000000000E+00 -0.00000000000E+00 -0.16855049483E+03  0.16855049483E+03  0.00000000000E+00 0.  1.
          4    1    1    2  501    0  0.21102555687E+02 -0.45761277527E+01 -0.42819062995E+01  0.22013485033E+02  0.00000000000E+00 0.  1.
         -4    1    1    2    0  502 -0.21102555687E+02  0.45761277527E+01 -0.15465271808E+03  0.15615288025E+03  0.00000000000E+00 0. -1.
<mgrwt>
<rscale>  2 0.21593027E+02</rscale>
<asrwt>0</asrwt>
<pdfrwt beam="1">  1       21 0.14793648E-02 0.21593027E+02</pdfrwt>
<pdfrwt beam="2">  1       21 0.25930844E-01 0.21593027E+02</pdfrwt>
<totfact> 0.21250694E+07</totfact>
</mgrwt>
</event>
<event>
 4    1  0.7478314E+004  0.2311197E+02  0.7546771E-02  0.1689702E+00
         21   -1    0    0  501  502  0.00000000000E+00  0.00000000000E+00  0.97785388284E+02  0.97785388284E+02  0.00000000000E+00 0.  1.
         21   -1    0    0  502  503 -0.00000000000E+00 -0.00000000000E+00 -0.56255115717E+01  0.56255115717E+01  0.00000000000E+00 0.  1.
          5    1    1    2  501    0  0.21040055180E+02 -0.95644713242E+01  0.37281137570E+02  0.43863951626E+02  0.00000000000E+00 0.  1.
         -5    1    1    2    0  503 -0.21040055180E+02  0.95644713242E+01  0.54878739142E+02  0.59546948230E+02  0.00000000000E+00 0. -1.
<mgrwt>
<rscale>  2 0.23111967E+02</rscale>
<asrwt>0</asrwt>
<pdfrwt beam="1">  1       21 0.15043905E-01 0.23111967E+02</pdfrwt>
<pdfrwt beam="2">  1       21 0.86546339E-03 0.23111967E+02</pdfrwt>
<totfact> 0.12511790E+08</totfact>
</mgrwt>
</event>
<event>
 4    1  0.7478314E+004  0.2362341E+02  0.7546771E-02  0.1681600E+00
         21   -1    0    0  503  502  0.00000000000E+00  0.00000000000E+00  0.58909591651E+01  0.58909591651E+01  0.00000000000E+00 0. -1.
         21   -1    0    0  501  503 -0.00000000000E+00 -0.00000000000E+00 -0.98860735517E+02  0.98860735517E+02  0.00000000000E+00 0. -1.
          4    1    1    2  501    0 -0.92558927597E+01 -0.21734626748E+02 -0.35782047985E+02  0.42876806185E+02  0.00000000000E+00 0. -1.
         -4    1    1    2    0  502  0.92558927597E+01  0.21734626748E+02 -0.57187728367E+02  0.61874888497E+02  0.00000000000E+00 0.  1.
<mgrwt>
<rscale>  2 0.23623411E+02</rscale>
<asrwt>0</asrwt>
<pdfrwt beam="1">  1       21 0.90630148E-03 0.23623411E+02</pdfrwt>
<pdfrwt beam="2">  1       21 0.15209343E-01 0.23623411E+02</pdfrwt>
<totfact> 0.11533182E+08</totfact>
</mgrwt>
</event>
<event>
 4    1  0.7478314E+004  0.2041109E+02  0.7546771E-02  0.1737275E+00
         21   -1    0    0  503  502  0.00000000000E+00  0.00000000000E+00  0.52948421194E+01  0.52948421194E+01  0.00000000000E+00 0. -1.
         21   -1    0    0  501  503 -0.00000000000E+00 -0.00000000000E+00 -0.78984080979E+02  0.78984080979E+02  0.00000000000E+00 0. -1.
          4    1    1    2  501    0 -0.18541546778E+02  0.85336647973E+01 -0.39447704164E+02  0.44415467526E+02  0.00000000000E+00 0. -1.
         -4    1    1    2    0  502  0.18541546778E+02 -0.85336647973E+01 -0.34241534696E+02  0.39863455572E+02  0.00000000000E+00 0.  1.
<mgrwt>
<rscale>  2 0.20411085E+02</rscale>
<asrwt>0</asrwt>
<pdfrwt beam="1">  1       21 0.81459114E-03 0.20411085E+02</pdfrwt>
<pdfrwt beam="2">  1       21 0.12151396E-01 0.20411085E+02</pdfrwt>
<totfact> 0.18905289E+08</totfact>
</mgrwt>
</event>
<event>
 4    1  0.7478314E+004  0.2370931E+02  0.7546771E-02  0.1680264E+00
         21   -1    0    0  503  502  0.00000000000E+00  0.00000000000E+00  0.31507796315E+01  0.31507796315E+01  0.00000000000E+00 0.  1.
         21   -1    0    0  501  503 -0.00000000000E+00 -0.00000000000E+00 -0.28803942393E+03  0.28803942393E+03  0.00000000000E+00 0.  1.
          1    1    1    2  501    0  0.18673651792E+02  0.14609116802E+02 -0.23226653564E+03  0.23347349987E+03  0.00000000000E+00 0. -1.
         -1    1    1    2    0  502 -0.18673651792E+02 -0.14609116802E+02 -0.52622108664E+02  0.57716703693E+02  0.00000000000E+00 0.  1.
<mgrwt>
<rscale>  2 0.23709314E+02</rscale>
<asrwt>0</asrwt>
<pdfrwt beam="1">  1       21 0.48473518E-03 0.23709314E+02</pdfrwt>
<pdfrwt beam="2">  1       21 0.44313771E-01 0.23709314E+02</pdfrwt>
<totfact> 0.42791761E+07</totfact>
</mgrwt>
</event>
<event>
 4    1  0.7478314E+004  0.2868991E+02  0.7546771E-02  0.1613038E+00
         21   -1    0    0  503  502  0.00000000000E+00  0.00000000000E+00  0.49509426225E+03  0.49509426225E+03  0.00000000000E+00 0.  1.
         21   -1    0    0  501  503 -0.00000000000E+00 -0.00000000000E+00 -0.32368263371E+01  0.32368263371E+01  0.00000000000E+00 0.  1.
          2    1    1    2  501    0  0.20383033753E+02  0.20190163877E+02  0.41969721710E+03  0.42067667493E+03  0.00000000000E+00 0. -1.
         -2    1    1    2    0  502 -0.20383033753E+02 -0.20190163877E+02  0.72160218805E+02  0.77654413657E+02  0.00000000000E+00 0.  1.
<mgrwt>
<rscale>  2 0.28689907E+02</rscale>
<asrwt>0</asrwt>
<pdfrwt beam="1">  1       21 0.76168288E-01 0.28689907E+02</pdfrwt>
<pdfrwt beam="2">  1       21 0.49797367E-03 0.28689907E+02</pdfrwt>
<totfact> 0.14425022E+07</totfact>
</mgrwt>
</event>
<event>
 4    1  0.7478314E+004  0.2205176E+02  0.7546771E-02  0.1707358E+00
         21   -1    0    0  501  502  0.00000000000E+00  0.00000000000E+00  0.98606059733E+03  0.98606059733E+03  0.00000000000E+00 0.  1.
         21   -1    0    0  502  503 -0.00000000000E+00 -0.00000000000E+00 -0.54660185503E+00  0.54660185503E+00  0.00000000000E+00 0.  1.
          1    1    1    2  501    0  0.10703645365E+01  0.22025772363E+02  0.33850123430E+03  0.33921875825E+03  0.00000000000E+00 0.  1.
         -1    1    1    2    0  503 -0.10703645365E+01 -0.22025772363E+02  0.64701276118E+03  0.64738844094E+03  0.00000000000E+00 0. -1.
<mgrwt>
<rscale>  2 0.22051765E+02</rscale>
<asrwt>0</asrwt>
<pdfrwt beam="1">  1       21 0.15170021E+00 0.22051765E+02</pdfrwt>
<pdfrwt beam="2">  1       21 0.84093382E-04 0.22051765E+02</pdfrwt>
<totfact> 0.39030235E+07</totfact>
</mgrwt>
</event>
<event>
 4    1  0.7478314E+004  0.2004719E+02  0.7546771E-02  0.1744391E+00
         21   -1    0    0  503  502  0.00000000000E+00  0.00000000000E+00  0.78474778195E+03  0.78474778195E+03  0.00000000000E+00 0.  1.
         21   -1    0    0  501  503 -0.00000000000E+00 -0.00000000000E+00 -0.56783742342E+00  0.56783742342E+00  0.00000000000E+00 0.  1.
          5    1    1    2  501    0  0.84779414231E+01  0.18166296714E+02  0.26909879977E+03  0.26984449942E+03  0.00000000000E+00 0. -1.
         -5    1    1    2    0  502 -0.84779414231E+01 -0.18166296714E+02  0.51508114476E+03  0.51547111996E+03  0.00000000000E+00 0.  1.
<mgrwt>
<rscale>  2 0.20047190E+02</rscale>
<asrwt>0</asrwt>
<pdfrwt beam="1">  1       21 0.12072956E+00 0.20047190E+02</pdfrwt>
<pdfrwt beam="2">  1       21 0.87360231E-04 0.20047190E+02</pdfrwt>
<totfact> 0.61373019E+07</totfact>
</mgrwt>
</event>
<event>
 4    1  0.7478314E+004  0.2114036E+02  0.7546771E-02  0.1723558E+00
         21   -1    0    0  503  502  0.00000000000E+00  0.00000000000E+00  0.42016456673E+03  0.42016456673E+03  0.00000000000E+00 0. -1.
         21   -1    0    0  501  503 -0.00000000000E+00 -0.00000000000E+00 -0.10644634014E+01  0.10644634014E+01  0.00000000000E+00 0. -1.
          5    1    1    2  501    0  0.13869353250E+02 -0.15954804830E+02  0.20378549193E+03  0.20487908990E+03  0.00000000000E+00 0.  1.
         -5    1    1    2    0  502 -0.13869353250E+02  0.15954804830E+02  0.21531461140E+03  0.21634994023E+03  0.00000000000E+00 0. -1.
<mgrwt>
<rscale>  2 0.21140358E+02</rscale>
<asrwt>0</asrwt>
<pdfrwt beam="1">  1       21 0.64640570E-01 0.21140358E+02</pdfrwt>
<pdfrwt beam="2">  1       21 0.16376394E-03 0.21140358E+02</pdfrwt>
<totfact> 0.96067674E+07</totfact>
</mgrwt>
</event>
<event>
 4    1  0.7478314E+004  0.2420552E+02  0.7546771E-02  0.1672683E+00
         21   -1    0    0  501  502  0.00000000000E+00  0.00000000000E+00  0.97370651444E+01  0.97370651444E+01  0.00000000000E+00 0.  1.
         21   -1    0    0  502  503 -0.00000000000E+00 -0.00000000000E+00 -0.70332150004E+02  0.70332150004E+02  0.00000000000E+00 0.  1.
          4    1    1    2  501    0  0.15346235681E+02 -0.18718976537E+02 -0.15081897539E+02  0.28519654022E+02  0.00000000000E+00 0. -1.
         -4    1    1    2    0  503 -0.15346235681E+02  0.18718976537E+02 -0.45513187321E+02  0.51549561126E+02  0.00000000000E+00 0.  1.
<mgrwt>
<rscale>  2 0.24205517E+02</rscale>
<asrwt>0</asrwt>
<pdfrwt beam="1">  1       21 0.14980100E-02 0.24205517E+02</pdfrwt>
<pdfrwt beam="2">  1       21 0.10820331E-01 0.24205517E+02</pdfrwt>
<totfact> 0.96489787E+07</totfact>
</mgrwt>
</event>
<event>
 4    1  0.7478314E+004  0.4969811E+02  0.7546771E-02  0.1446977E+00
         21   -1    0    0  501  502  0.00000000000E+00  0.00000000000E+00  0.50017586256E+02  0.50017586256E+02  0.00000000000E+00 0.  1.
         21   -1    0    0  502  503 -0.00000000000E+00 -0.00000000000E+00 -0.52174646747E+02  0.52174646747E+02  0.00000000000E+00 0.  1.
          1    1    1    2  501    0  0.38931715756E+02  0.30890503941E+02 -0.12902677574E+02  0.51345699080E+02  0.00000000000E+00 0.  1.
         -1    1    1    2    0  503 -0.38931715756E+02 -0.30890503941E+02  0.10745617083E+02  0.50846533923E+02  0.00000000000E+00 0. -1.
<mgrwt>
<rscale>  2 0.49698106E+02</rscale>
<asrwt>0</asrwt>
<pdfrwt beam="1">  1       21 0.76950133E-02 0.49698106E+02</pdfrwt>
<pdfrwt beam="2">  1       21 0.80268687E-02 0.49698106E+02</pdfrwt>
<totfact> 0.13544790E+07</totfact>
</mgrwt>
</event>
<event>
 4    1  0.7478314E+004  0.2073500E+02  0.7546771E-02  0.1731095E+00
         21   -1    0    0  503  502  0.00000000000E+00  0.00000000000E+00  0.23005766771E+01  0.23005766771E+01  0.00000000000E+00 0.  1.
         21   -1    0    0  501  503 -0.00000000000E+00 -0.00000000000E+00 -0.20888492507E+03  0.20888492507E+03  0.00000000000E+00 0.  1.
          3    1    1    2  501    0 -0.19102355551E+02  0.80647557346E+01 -0.13756137883E+03  0.13911532345E+03  0.00000000000E+00 0.  1.
         -3    1    1    2    0  502  0.19102355551E+02 -0.80647557346E+01 -0.69022969563E+02  0.72070178298E+02  0.00000000000E+00 0. -1.
<mgrwt>
<rscale>  2 0.20735001E+02</rscale>
<asrwt>0</asrwt>
<pdfrwt beam="1">  1       21 0.35393464E-03 0.20735001E+02</pdfrwt>
<pdfrwt beam="2">  1       21 0.32136163E-01 0.20735001E+02</pdfrwt>
<totfact> 0.11947925E+08</totfact>
</mgrwt>
</event>
<event>
 4    1  0.7478314E+004  0.2730933E+02  0.7546771E-02  0.1629889E+00
         21   -1    0    0  503  502  0.00000000000E+00  0.00000000000E+00  0.30164306483E+02  0.30164306483E+02  0.00000000000E+00 0. -1.
         21   -1    0    0  501  503 -0.00000000000E+00 -0.00000000000E+00 -0.27486695042E+02  0.27486695042E+02  0.00000000000E+00 0. -1.
          2    1    1    2  501    0  0.13341889899E+02  0.23828412069E+02 -0.77989162993E+01  0.28401097571E+02  0.00000000000E+00 0. -1.
         -2    1    1    2    0  502 -0.13341889899E+02 -0.23828412069E+02  0.10476527740E+02  0.29249903954E+02  0.00000000000E+00 0.  1.
<mgrwt>
<rscale>  2 0.27309325E+02</rscale>
<asrwt>0</asrwt>
<pdfrwt beam="1">  1       21 0.46406626E-02 0.27309325E+02</pdfrwt>
<pdfrwt beam="2">  1       21 0.42287223E-02 0.27309325E+02</pdfrwt>
<totfact> 0.78798547E+07</totfact>
</mgrwt>
</event>
<event>
 4    1  0.7478314E+004  0.2718675E+02  0.7546771E-02  0.1631444E+00
         21   -1    0    0  503  502  0.00000000000E+00  0.00000000000E+00  0.56267161726E+02  0.56267161726E+02  0.00000000000E+00 0. -1.
         21   -1    0    0  501  503 -0.00000000000E+00 -0.00000000000E+00 -0.14739893099E+02  0.14739893099E+02  0.00000000000E+00 0. -1.
          5    1    1    2  501    0 -0.24705836331E+02  0.11346422101E+02  0.32475497359E+02  0.42353011369E+02  0.00000000000E+00 0.  1.
         -5    1    1    2    0  502  0.24705836331E+02 -0.11346422101E+02  0.90517712676E+01  0.28654043456E+02  0.00000000000E+00 0. -1.
<mgrwt>
<rscale>  2 0.27186755E+02</rscale>
<asrwt>0</asrwt>
<pdfrwt beam="1">  1       21 0.86564863E-02 0.27186755E+02</pdfrwt>
<pdfrwt beam="2">  1       21 0.22676759E-02 0.27186755E+02</pdfrwt>
<totfact> 0.76123017E+07</totfact>
</mgrwt>
</event>
<event>
 4    1  0.7478314E+004  0.2628440E+02  0.7546771E-02  0.1643211E+00
         21   -1    0    0  501  502  0.00000000000E+00  0.00000000000E+00  0.10416458603E+02  0.10416458603E+02  0.00000000000E+00 0. -1.
         21   -1    0    0  502  503 -0.00000000000E+00 -0.00000000000E+00 -0.68891040236E+02  0.68891040236E+02  0.00000000000E+00 0. -1.
          5    1    1    2  501    0  0.10148501963E+02 -0.24246186666E+02 -0.36890622141E+02  0.45296662812E+02  0.00000000000E+00 0. -1.
         -5    1    1    2    0  503 -0.10148501963E+02  0.24246186666E+02 -0.21583959492E+02  0.34010836028E+02  0.00000000000E+00 0.  1.
<mgrwt>
<rscale>  2 0.26284400E+02</rscale>
<asrwt>0</asrwt>
<pdfrwt beam="1">  1       21 0.16025320E-02 0.26284400E+02</pdfrwt>
<pdfrwt beam="2">  1       21 0.10598622E-01 0.26284400E+02</pdfrwt>
<totfact> 0.92071978E+07</totfact>
</mgrwt>
</event>
<event>
 4    1  0.7478314E+004  0.2735156E+02  0.7546771E-02  0.1629355E+00
         21   -1    0    0  503  502  0.00000000000E+00  0.00000000000E+00  0.28315759088E+02  0.28315759088E+02  0.00000000000E+00 0. -1.
         21   -1    0    0  501  503 -0.00000000000E+00 -0.00000000000E+00 -0.65108584139E+02  0.65108584139E+02  0.00000000000E+00 0. -1.
          1    1    1    2  501    0  0.18796277442E+02 -0.19869765378E+02 -0.54404603759E+02  0.60893091004E+02  0.00000000000E+00 0. -1.
         -1    1    1    2    0  502 -0.18796277442E+02  0.19869765378E+02  0.17611778708E+02  0.32531252222E+02  0.00000000000E+00 0.  1.
<mgrwt>
<rscale>  2 0.27351556E+02</rscale>
<asrwt>0</asrwt>
<pdfrwt beam="1">  1       21 0.43562706E-02 0.27351556E+02</pdfrwt>
<pdfrwt beam="2">  1       21 0.10016705E-01 0.27351556E+02</pdfrwt>
<totfact> 0.21464276E+07</totfact>
</mgrwt>
</event>
<event>
 4    1  0.7478314E+004  0.2786911E+02  0.7546771E-02  0.1622912E+00
         21   -1    0    0  503  502  0.00000000000E+00  0.00000000000E+00  0.14287678765E+02  0.14287678765E+02  0.00000000000E+00 0. -1.
         21   -1    0    0  501  503 -0.00000000000E+00 -0.00000000000E+00 -0.54360617207E+02  0.54360617207E+02  0.00000000000E+00 0. -1.
          4    1    1    2  501    0  0.27089670999E+02  0.65449781692E+01 -0.20030688116E+02  0.34320773308E+02  0.00000000000E+00 0. -1.
         -4    1    1    2    0  502 -0.27089670999E+02 -0.65449781692E+01 -0.20042250326E+02  0.34327522663E+02  0.00000000000E+00 0.  1.
<mgrwt>
<rscale>  2 0.27869105E+02</rscale>
<asrwt>0</asrwt>
<pdfrwt beam="1">  1       21 0.21981044E-02 0.27869105E+02</pdfrwt>
<pdfrwt beam="2">  1       21 0.83631718E-02 0.27869105E+02</pdfrwt>
<totfact> 0.85094135E+07</totfact>
</mgrwt>
</event>
<event>
 4    1  0.7478314E+004  0.3794285E+02  0.7546771E-02  0.1523920E+00
         21   -1    0    0  501  502  0.00000000000E+00  0.00000000000E+00  0.15594238076E+01  0.15594238076E+01  0.00000000000E+00 0. -1.
         21   -1    0    0  502  503 -0.00000000000E+00 -0.00000000000E+00 -0.12550909586E+04  0.12550909586E+04  0.00000000000E+00 0. -1.
          1    1    1    2  501    0 -0.16853234744E+02  0.33994534683E+02 -0.94987148636E+03  0.95062900256E+03  0.00000000000E+00 0.  1.
         -1    1    1    2    0  503  0.16853234744E+02 -0.33994534683E+02 -0.30366004848E+03  0.30602137990E+03  0.00000000000E+00 0. -1.
<mgrwt>
<rscale>  2 0.37942851E+02</rscale>
<asrwt>0</asrwt>
<pdfrwt beam="1">  1       21 0.23991110E-03 0.37942851E+02</pdfrwt>
<pdfrwt beam="2">  1       21 0.19309112E+00 0.37942851E+02</pdfrwt>
<totfact> 0.50283384E+06</totfact>
</mgrwt>
</event>
<event>
 4    1  0.7478314E+004  0.5241177E+02  0.7546771E-02  0.1432751E+00
         21   -1    0    0  501  502  0.00000000000E+00  0.00000000000E+00  0.47508964689E+02  0.47508964689E+02  0.00000000000E+00 0. -1.
         21   -1    0    0  502  503 -0.00000000000E+00 -0.00000000000E+00 -0.58724495409E+02  0.58724495409E+02  0.00000000000E+00 0. -1.
          3    1    1    2  501    0 -0.90133354691E+01  0.51630937878E+02  0.98238530478E+00  0.52420979038E+02  0.00000000000E+00 0. -1.
         -3    1    1    2    0  503  0.90133354691E+01 -0.51630937878E+02 -0.12197916025E+02  0.53812481060E+02  0.00000000000E+00 0.  1.
<mgrwt>
<rscale>  2 0.52411773E+02</rscale>
<asrwt>0</asrwt>
<pdfrwt beam="1">  1       21 0.73090715E-02 0.52411773E+02</pdfrwt>
<pdfrwt beam="2">  1       21 0.90345377E-02 0.52411773E+02</pdfrwt>
<totfact> 0.12177311E+07</totfact>
</mgrwt>
</event>
<event>
 4    1  0.7478314E+004  0.2791462E+02  0.7546771E-02  0.1622354E+00
         21   -1    0    0  501  502  0.00000000000E+00  0.00000000000E+00  0.77959492853E+02  0.77959492853E+02  0.00000000000E+00 0.  1.
         21   -1    0    0  502  503 -0.00000000000E+00 -0.00000000000E+00 -0.10500939231E+02  0.10500939231E+02  0.00000000000E+00 0.  1.
          5    1    1    2  501    0 -0.22207211672E+02 -0.16913480958E+02  0.43435242637E+02  0.51631835057E+02  0.00000000000E+00 0.  1.
         -5    1    1    2    0  503  0.22207211672E+02  0.16913480958E+02  0.24023310984E+02  0.36828597028E+02  0.00000000000E+00 0. -1.
<mgrwt>
<rscale>  2 0.27914621E+02</rscale>
<asrwt>0</asrwt>
<pdfrwt beam="1">  1       21 0.11993768E-01 0.27914621E+02</pdfrwt>
<pdfrwt beam="2">  1       21 0.16155292E-02 0.27914621E+02</pdfrwt>
<totfact> 0.75021826E+07</totfact>
</mgrwt>
</event>
<event>
 4    1  0.7478314E+004  0.2992666E+02  0.7546771E-02  0.1598901E+00
         21   -1    0    0  503  502  0.00000000000E+00  0.00000000000E+00  0.18462223800E+03  0.18462223800E+03  0.00000000000E+00 0. -1.
         21   -1    0    0  501  503 -0.00000000000E+00 -0.00000000000E+00 -0.48515550757E+01  0.48515550757E+01  0.00000000000E+00 0. -1.
          3    1    1    2  501    0  0.16901582302E+02 -0.24696992563E+02  0.90886496964E+02  0.95686782036E+02  0.00000000000E+00 0. -1.
         -3    1    1    2    0  502 -0.16901582302E+02  0.24696992563E+02  0.88884185959E+02  0.93787011039E+02  0.00000000000E+00 0.  1.
<mgrwt>
<rscale>  2 0.29926659E+02</rscale>
<asrwt>0</asrwt>
<pdfrwt beam="1">  1       21 0.28403416E-01 0.29926659E+02</pdfrwt>
<pdfrwt beam="2">  1       21 0.74639323E-03 0.29926659E+02</pdfrwt>
<totfact> 0.54379047E+07</totfact>
</mgrwt>
</event>
<event>
 4    1  0.7478314E+004  0.2376323E+02  0.7546771E-02  0.1679429E+00
         21   -1    0    0  503  502  0.00000000000E+00  0.00000000000E+00  0.18715670544E+03  0.18715670544E+03  0.00000000000E+00 0. -1.
         21   -1    0    0  501  503 -0.00000000000E+00 -0.00000000000E+00 -0.31000351936E+01  0.31000351936E+01  0.00000000000E+00 0. -1.
          4    1    1    2  501    0  0.16457644462E+02  0.17141676390E+02  0.76479161620E+02  0.80085911950E+02  0.00000000000E+00 0. -1.
         -4    1    1    2    0  502 -0.16457644462E+02 -0.17141676390E+02  0.10757750863E+03  0.11017082869E+03  0.00000000000E+00 0.  1.
<mgrwt>
<rscale>  2 0.23763231E+02</rscale>
<asrwt>0</asrwt>
<pdfrwt beam="1">  1       21 0.28793330E-01 0.23763231E+02</pdfrwt>
<pdfrwt beam="2">  1       21 0.47692864E-03 0.23763231E+02</pdfrwt>
<totfact> 0.97820681E+07</totfact>
</mgrwt>
</event>
<event>
 4    1  0.7478314E+004  0.2994622E+02  0.7546771E-02  0.1598684E+00
         21   -1    0    0  503  502  0.00000000000E+00  0.00000000000E+00  0.84267119896E+02  0.84267119896E+02  0.00000000000E+00 0.  1.
         21   -1    0    0  501  503 -0.00000000000E+00 -0.00000000000E+00 -0.11210961777E+02  0.11210961777E+02  0.00000000000E+00 0.  1.
          2    1    1    2  501    0  0.19674040680E+02 -0.22576719074E+02  0.25774099665E+02  0.39510509164E+02  0.00000000000E+00 0.  1.
         -2    1    1    2    0  502 -0.19674040680E+02  0.22576719074E+02  0.47282058455E+02  0.55967572509E+02  0.00000000000E+00 0. -1.
<mgrwt>
<rscale>  2 0.29946220E+02</rscale>
<asrwt>0</asrwt>
<pdfrwt beam="1">  1       21 0.12964172E-01 0.29946220E+02</pdfrwt>
<pdfrwt beam="2">  1       21 0.17247634E-02 0.29946220E+02</pdfrwt>
<totfact> 0.60460882E+07</totfact>
</mgrwt>
</event>
<event>
 4    1  0.7478314E+004  0.2113437E+02  0.7546771E-02  0.1723667E+00
         21   -1    0    0  503  502  0.00000000000E+00  0.00000000000E+00  0.30622396298E+02  0.30622396298E+02  0.00000000000E+00 0. -1.
         21   -1    0    0  501  503 -0.00000000000E+00 -0.00000000000E+00 -0.20040199623E+02  0.20040199623E+02  0.00000000000E+00 0. -1.
          2    1    1    2  501    0  0.30705351158E+01  0.20910123437E+02 -0.79239211356E+01  0.22570998521E+02  0.00000000000E+00 0.  1.
         -2    1    1    2    0  502 -0.30705351158E+01 -0.20910123437E+02  0.18506117811E+02  0.28091597400E+02  0.00000000000E+00 0. -1.
<mgrwt>
<rscale>  2 0.21134367E+02</rscale>
<asrwt>0</asrwt>
<pdfrwt beam="1">  1       21 0.47111379E-02 0.21134367E+02</pdfrwt>
<pdfrwt beam="2">  1       21 0.30831076E-02 0.21134367E+02</pdfrwt>
<totfact> 0.11773400E+08</totfact>
</mgrwt>
</event>
<event>
 4    1  0.7478314E+004  0.2266093E+02  0.7546771E-02  0.1697066E+00
         21   -1    0    0  501  502  0.00000000000E+00  0.00000000000E+00  0.83727877294E+02  0.83727877294E+02  0.00000000000E+00 0. -1.
         21   -1    0    0  502  503 -0.00000000000E+00 -0.00000000000E+00 -0.65651808383E+01  0.65651808383E+01  0.00000000000E+00 0. -1.
          2    1    1    2  501    0 -0.58521456060E+01 -0.21892237347E+02  0.27000344917E+02  0.35249628223E+02  0.00000000000E+00 0.  1.
         -2    1    1    2    0  503  0.58521456060E+01  0.21892237347E+02  0.50162351539E+02  0.55043429909E+02  0.00000000000E+00 0. -1.
<mgrwt>
<rscale>  2 0.22660928E+02</rscale>
<asrwt>0</asrwt>
<pdfrwt beam="1">  1       21 0.12881211E-01 0.22660928E+02</pdfrwt>
<pdfrwt beam="2">  1       21 0.10100279E-02 0.22660928E+02</pdfrwt>
<totfact> 0.12834421E+08</totfact>
</mgrwt>
</event>
<event>
 4    1  0.7478314E+004  0.2073932E+02  0.7546771E-02  0.1731013E+00
         21   -1    0    0  503  502  0.00000000000E+00  0.00000000000E+00  0.79581367962E+01  0.79581367962E+01  0.00000000000E+00 0. -1.
         21   -1    0    0  501  503 -0.00000000000E+00 -0.00000000000E+00 -0.16816354667E+03  0.16816354667E+03  0.00000000000E+00 0. -1.
          5    1    1    2  501    0  0.19965181686E+02  0.56134701545E+01 -0.15264474306E+03  0.15404719118E+03  0.00000000000E+00 0.  1.
         -5    1    1    2    0  502 -0.19965181686E+02 -0.56134701545E+01 -0.75606668115E+01  0.22074492283E+02  0.00000000000E+00 0. -1.
<mgrwt>
<rscale>  2 0.20739323E+02</rscale>
<asrwt>0</asrwt>
<pdfrwt beam="1">  1       21 0.12243288E-02 0.20739323E+02</pdfrwt>
<pdfrwt beam="2">  1       21 0.25871313E-01 0.20739323E+02</pdfrwt>
<totfact> 0.28137642E+07</totfact>
</mgrwt>
</event>
<event>
 4    1  0.7478314E+004  0.2321114E+02  0.7546771E-02  0.1688110E+00
         21   -1    0    0  501  502  0.00000000000E+00  0.00000000000E+00  0.39582116611E+01  0.39582116611E+01  0.00000000000E+00 0. -1.
         21   -1    0    0  502  503 -0.00000000000E+00 -0.00000000000E+00 -0.13646549104E+03  0.13646549104E+03  0.00000000000E+00 0. -1.
          3    1    1    2  501    0  0.19748571643E+01 -0.23126978439E+02 -0.62676467615E+02  0.66836343297E+02  0.00000000000E+00 0.  1.
         -3    1    1    2    0  503 -0.19748571643E+01  0.23126978439E+02 -0.69830811767E+02  0.73587359408E+02  0.00000000000E+00 0. -1.
<mgrwt>
<rscale>  2 0.23211144E+02</rscale>
<asrwt>0</asrwt>
<pdfrwt beam="1">  1       21 0.60895557E-03 0.23211144E+02</pdfrwt>
<pdfrwt beam="2">  1       21 0.20994693E-01 0.23211144E+02</pdfrwt>
<totfact> 0.11889662E+08</totfact>
</mgrwt>
</event>
<event>
 4    1  0.7478314E+004  0.2750716E+02  0.7546771E-02  0.1627400E+00
         21   -1    0    0  501  502  0.00000000000E+00  0.00000000000E+00  0.23561505680E+01  0.23561505680E+01  0.00000000000E+00 0. -1.
         21   -1    0    0  502  503 -0.00000000000E+00 -0.00000000000E+00 -0.32971593240E+03  0.32971593240E+03  0.00000000000E+00 0. -1.
          5    1    1    2  501    0  0.27505721730E+02  0.28146430422E+00 -0.19046436551E+03  0.19244042839E+03  0.00000000000E+00 0.  1.
         -5    1    1    2    0  503 -0.27505721730E+02 -0.28146430422E+00 -0.13689541632E+03  0.13963165457E+03  0.00000000000E+00 0. -1.
<mgrwt>
<rscale>  2 0.27507162E+02</rscale>
<asrwt>0</asrwt>
<pdfrwt beam="1">  1       21 0.36248468E-03 0.27507162E+02</pdfrwt>
<pdfrwt beam="2">  1       21 0.50725532E-01 0.27507162E+02</pdfrwt>
<totfact> 0.52215548E+07</totfact>
</mgrwt>
</event>
<event>
 4    1  0.7478314E+004  0.2261845E+02  0.7546771E-02  0.1697771E+00
         21   -1    0    0  501  502  0.00000000000E+00  0.00000000000E+00  0.15278517175E+01  0.15278517175E+01  0.00000000000E+00 0.  1.
         21   -1    0    0  502  503 -0.00000000000E+00 -0.00000000000E+00 -0.39619449741E+03  0.39619449741E+03  0.00000000000E+00 0.  1.
          1    1    1    2  501    0 -0.16434125828E+02  0.15540720240E+02 -0.11908067525E+03  0.12120974257E+03  0.00000000000E+00 0.  1.
         -1    1    1    2    0  503  0.16434125828E+02 -0.15540720240E+02 -0.27558597044E+03  0.27651260655E+03  0.00000000000E+00 0. -1.
<mgrwt>
<rscale>  2 0.22618454E+02</rscale>
<asrwt>0</asrwt>
<pdfrwt beam="1">  1       21 0.23505405E-03 0.22618454E+02</pdfrwt>
<pdfrwt beam="2">  1       21 0.60953015E-01 0.22618454E+02</pdfrwt>
<totfact> 0.65324687E+07</totfact>
</mgrwt>
</event>
<event>
 4    1  0.7478314E+004  0.2983123E+02  0.7546771E-02  0.1599962E+00
         21   -1    0    0  501  502  0.00000000000E+00  0.00000000000E+00  0.21859534170E+03  0.21859534170E+03  0.00000000000E+00 0. -1.
         21   -1    0    0  502  503 -0.00000000000E+00 -0.00000000000E+00 -0.15737074882E+02  0.15737074882E+02  0.00000000000E+00 0. -1.
          3    1    1    2  501    0  0.10159477473E+02 -0.28047948588E+02  0.20230857848E+03  0.20449612057E+03  0.00000000000E+00 0. -1.
         -3    1    1    2    0  503 -0.10159477473E+02  0.28047948588E+02  0.54968834062E+00  0.29836296013E+02  0.00000000000E+00 0.  1.
<mgrwt>
<rscale>  2 0.29831232E+02</rscale>
<asrwt>0</asrwt>
<pdfrwt beam="1">  1       21 0.33630050E-01 0.29831232E+02</pdfrwt>
<pdfrwt beam="2">  1       21 0.24210886E-02 0.29831232E+02</pdfrwt>
<totfact> 0.65788350E+06</totfact>
</mgrwt>
</event>
<event>
 4    1  0.7478314E+004  0.2499713E+02  0.7546771E-02  0.1661043E+00
         21   -1    0    0  501  502  0.00000000000E+00  0.00000000000E+00  0.84569339866E+01  0.84569339866E+01  0.00000000000E+00 0.  1.
         21   -1    0    0  502  503 -0.00000000000E+00 -0.00000000000E+00 -0.84466051597E+02  0.84466051597E+02  0.00000000000E+00 0.  1.
          2    1    1    2  501    0  0.14467906535E+02  0.20384699207E+02 -0.54447456074E+02  0.59911449274E+02  0.00000000000E+00 0.  1.
         -2    1    1    2    0  503 -0.14467906535E+02 -0.20384699207E+02 -0.21561661537E+02  0.33011536309E+02  0.00000000000E+00 0. -1.
<mgrwt>
<rscale>  2 0.24997125E+02</rscale>
<asrwt>0</asrwt>
<pdfrwt beam="1">  1       21 0.13010668E-02 0.24997125E+02</pdfrwt>
<pdfrwt beam="2">  1       21 0.12994777E-01 0.24997125E+02</pdfrwt>
<totfact> 0.88677402E+07</totfact>
</mgrwt>
</event>
<event>
 4    1  0.7478314E+004  0.4790065E+02  0.7546771E-02  0.1457005E+00
         21   -1    0    0  501  502  0.00000000000E+00  0.00000000000E+00  0.19535437085E+02  0.19535437085E+02  0.00000000000E+00 0. -1.
         21   -1    0    0  502  503 -0.00000000000E+00 -0.00000000000E+00 -0.11774688452E+03  0.11774688452E+03  0.00000000000E+00 0. -1.
          4    1    1    2  501    0  0.46034111747E+02  0.13241331759E+02 -0.45669504991E+02  0.66182898072E+02  0.00000000000E+00 0. -1.
         -4    1    1    2    0  503 -0.46034111747E+02 -0.13241331759E+02 -0.52541942446E+02  0.71099423536E+02  0.00000000000E+00 0.  1.
<mgrwt>
<rscale>  2 0.47900650E+02</rscale>
<asrwt>0</asrwt>
<pdfrwt beam="1">  1       21 0.30054518E-02 0.47900650E+02</pdfrwt>
<pdfrwt beam="2">  1       21 0.18114906E-01 0.47900650E+02</pdfrwt>
<totfact> 0.15372121E+07</totfact>
</mgrwt>
</event>
<event>
 4    1  0.7478314E+004  0.2116463E+02  0.7546771E-02  0.1723113E+00
         21   -1    0    0  501  502  0.00000000000E+00  0.00000000000E+00  0.12594688370E+01  0.12594688370E+01  0.00000000000E+00 0. -1.
         21   -1    0    0  502  503 -0.00000000000E+00 -0.00000000000E+00 -0.35649903172E+03  0.35649903172E+03  0.00000000000E+00 0. -1.
          2    1    1    2  501    0  0.10501763803E+01 -0.21138555335E+02 -0.16893646115E+03  0.17025706828E+03  0.00000000000E+00 0.  1.
         -2    1    1    2    0  503 -0.10501763803E+01  0.21138555335E+02 -0.18630310173E+03  0.18750143228E+03  0.00000000000E+00 0. -1.
<mgrwt>
<rscale>  2 0.21164626E+02</rscale>
<asrwt>0</asrwt>
<pdfrwt beam="1">  1       21 0.19376417E-03 0.21164626E+02</pdfrwt>
<pdfrwt beam="2">  1       21 0.54846079E-01 0.21164626E+02</pdfrwt>
<totfact> 0.10465214E+08</totfact>
</mgrwt>
</event>
<event>
 4    1  0.7478314E+004  0.2525870E+02  0.7546771E-02  0.1657314E+00
         21   -1    0    0  503  502  0.00000000000E+00  0.00000000000E+00  0.42386734324E+00  0.42386734324E+00  0.00000000000E+00 0. -1.
         21   -1    0    0  501  503 -0.00000000000E+00 -0.00000000000E+00 -0.15143902781E+04  0.15143902781E+04  0.00000000000E+00 0. -1.
          4    1    1    2  501    0 -0.90990934393E+01 -0.23562860052E+02 -0.69795550600E+03  0.69841240699E+03  0.00000000000E+00 0. -1.
         -4    1    1    2    0  502  0.90990934393E+01  0.23562860052E+02 -0.81601090474E+03  0.81640173844E+03  0.00000000000E+00 0.  1.
<mgrwt>
<rscale>  2 0.25258699E+02</rscale>
<asrwt>0</asrwt>
<pdfrwt beam="1">  1       21 0.65209614E-04 0.25258699E+02</pdfrwt>
<pdfrwt beam="2">  1       21 0.23298579E+00 0.25258699E+02</pdfrwt>
<totfact> 0.19208328E+07</totfact>
</mgrwt>
</event>
<event>
 4    1  0.7478314E+004  0.2048331E+02  0.7546771E-02  0.1735884E+00
         21   -1    0    0  501  502  0.00000000000E+00  0.00000000000E+00  0.69135111252E+03  0.69135111252E+03  0.00000000000E+00 0.  1.
         21   -1    0    0  502  503 -0.00000000000E+00 -0.00000000000E+00 -0.60752114607E+00  0.60752114607E+00  0.00000000000E+00 0.  1.
          5    1    1    2  501    0 -0.16811401929E+02 -0.11702258301E+02  0.33411859968E+03  0.33474588084E+03  0.00000000000E+00 0. -1.
         -5    1    1    2    0  503  0.16811401929E+02  0.11702258301E+02  0.35662499169E+03  0.35721275283E+03  0.00000000000E+00 0.  1.
<mgrwt>
<rscale>  2 0.20483312E+02</rscale>
<asrwt>0</asrwt>
<pdfrwt beam="1">  1       21 0.10636108E+00 0.20483312E+02</pdfrwt>
<pdfrwt beam="2">  1       21 0.93465345E-04 0.20483312E+02</pdfrwt>
<totfact> 0.74320187E+07</totfact>
</mgrwt>
</event>
<event>
 4    1  0.7478314E+004  0.2199784E+02  0.7546771E-02  0.1708289E+00
         21   -1    0    0  501  502  0.00000000000E+00  0.00000000000E+00  0.52586667400E+01  0.52586667400E+01  0.00000000000E+00 0. -1.
         21   -1    0    0  502  503 -0.00000000000E+00 -0.00000000000E+00 -0.10225192083E+03  0.10225192083E+03  0.00000000000E+00 0. -1.
          5    1    1    2  501    0 -0.21799645351E+02 -0.29462392192E+01 -0.65500764433E+02  0.69095983995E+02  0.00000000000E+00 0. -1.
         -5    1    1    2    0  503  0.21799645351E+02  0.29462392192E+01 -0.31492489654E+02  0.38414603572E+02  0.00000000000E+00 0.  1.
<mgrwt>
<rscale>  2 0.21997838E+02</rscale>
<asrwt>0</asrwt>
<pdfrwt beam="1">  1       21 0.80902567E-03 0.21997838E+02</pdfrwt>
<pdfrwt beam="2">  1       21 0.15731064E-01 0.21997838E+02</pdfrwt>
<totfact> 0.12641017E+08</totfact>
</mgrwt>
</event>
<event>
 4    1  0.7478314E+004  0.3483042E+02  0.7546771E-02  0.1550112E+00
         21   -1    0    0  503  502  0.00000000000E+00  0.00000000000E+00  0.52150425367E+02  0.52150425367E+02  0.00000000000E+00 0.  1.
         21   -1    0    0  501  503 -0.00000000000E+00 -0.00000000000E+00 -0.24601993963E+02  0.24601993963E+02  0.00000000000E+00 0.  1.
          4    1    1    2  501    0 -0.30898849457E+02 -0.16075422192E+02  0.48201584687E+01  0.35162366588E+02  0.00000000000E+00 0. -1.
         -4    1    1    2    0  502  0.30898849457E+02  0.16075422192E+02  0.22728272935E+02  0.41590052741E+02  0.00000000000E+00 0.  1.
<mgrwt>
<rscale>  2 0.34830419E+02</rscale>
<asrwt>0</asrwt>
<pdfrwt beam="1">  1       21 0.80231423E-02 0.34830419E+02</pdfrwt>
<pdfrwt beam="2">  1       21 0.37849222E-02 0.34830419E+02</pdfrwt>
<totfact> 0.40767886E+07</totfact>
</mgrwt>
</event>
<event>
 4    1  0.7478314E+004  0.3412374E+02  0.7546771E-02  0.1556523E+00
         21   -1    0    0  503  502  0.00000000000E+00  0.00000000000E+00  0.24055462017E+02  0.24055462017E+02  0.00000000000E+00 0.  1.
         21   -1    0    0  501  503 -0.00000000000E+00 -0.00000000000E+00 -0.90902576913E+02  0.90902576913E+02  0.00000000000E+00 0.  1.
          5    1    1    2  501    0 -0.43282464358E+01  0.33848128030E+02  0.58769410776E+01  0.34626116224E+02  0.00000000000E+00 0. -1.
         -5    1    1    2    0  502  0.43282464358E+01 -0.33848128030E+02 -0.72724055974E+02  0.80331922706E+02  0.00000000000E+00 0.  1.
<mgrwt>
<rscale>  2 0.34123738E+02</rscale>
<asrwt>0</asrwt>
<pdfrwt beam="1">  1       21 0.37008402E-02 0.34123738E+02</pdfrwt>
<pdfrwt beam="2">  1       21 0.13985012E-01 0.34123738E+02</pdfrwt>
<totfact> 0.16479978E+07</totfact>
</mgrwt>
</event>
<event>
 4    1  0.7478314E+004  0.2287766E+02  0.7546771E-02  0.1693501E+00
         21   -1    0    0  503  502  0.00000000000E+00  0.00000000000E+00  0.68992060403E+01  0.68992060403E+01  0.00000000000E+00 0. -1.
         21   -1    0    0  501  503 -0.00000000000E+00 -0.00000000000E+00 -0.79359951292E+02  0.79359951292E+02  0.00000000000E+00 0. -1.
          1    1    1    2  501    0  0.47836350114E+01  0.22371948744E+02 -0.27175460826E+02  0.35523132261E+02  0.00000000000E+00 0.  1.
         -1    1    1    2    0  502 -0.47836350114E+01 -0.22371948744E+02 -0.45285284425E+02  0.50736025071E+02  0.00000000000E+00 0. -1.
<mgrwt>
<rscale>  2 0.22877658E+02</rscale>
<asrwt>0</asrwt>
<pdfrwt beam="1">  1       21 0.10614163E-02 0.22877658E+02</pdfrwt>
<pdfrwt beam="2">  1       21 0.12209224E-01 0.22877658E+02</pdfrwt>
<totfact> 0.13069486E+08</totfact>
</mgrwt>
</event>
<event>
 4    1  0.7478314E+004  0.2180428E+02  0.7546771E-02  0.1711659E+00
         21   -1    0    0  501  502  0.00000000000E+00  0.00000000000E+00  0.24854575319E+02  0.24854575319E+02  0.00000000000E+00 0.  1.
         21   -1    0    0  502  503 -0.00000000000E+00 -0.00000000000E+00 -0.19485920998E+02  0.19485920998E+02  0.00000000000E+00 0.  1.
          1    1    1    2  501    0 -0.21223352862E+02 -0.49996127317E+01 -0.31895175320E+00  0.21806617445E+02  0.00000000000E+00 0. -1.
         -1    1    1    2    0  503  0.21223352862E+02  0.49996127317E+01  0.56876060749E+01  0.22533878872E+02  0.00000000000E+00 0.  1.
<mgrwt>
<rscale>  2 0.21804285E+02</rscale>
<asrwt>0</asrwt>
<pdfrwt beam="1">  1       21 0.38237808E-02 0.21804285E+02</pdfrwt>
<pdfrwt beam="2">  1       21 0.29978340E-02 0.21804285E+02</pdfrwt>
<totfact> 0.17250234E+08</totfact>
</mgrwt>
</event>
<event>
 4    1  0.7478314E+004  0.7382739E+02  0.7546771E-02  0.1347541E+00
         21   -1    0    0  501  502  0.00000000000E+00  0.00000000000E+00  0.27265893077E+04  0.27265893077E+04  0.00000000000E+00 0. -1.
         21   -1    0    0  502  503 -0.00000000000E+00 -0.00000000000E+00 -0.23349733391E+01  0.23349733391E+01  0.00000000000E+00 0. -1.
          1    1    1    2  501    0  0.13514932860E+02  0.72579814281E+02  0.18796930346E+04  0.18811423091E+04  0.00000000000E+00 0. -1.
         -1    1    1    2    0  503 -0.13514932860E+02 -0.72579814281E+02  0.84456129979E+03  0.84778197194E+03  0.00000000000E+00 0.  1.
<mgrwt>
<rscale>  2 0.73827386E+02</rscale>
<asrwt>0</asrwt>
<pdfrwt beam="1">  1       21 0.41947273E+00 0.73827386E+02</pdfrwt>
<pdfrwt beam="2">  1       21 0.35922885E-03 0.73827386E+02</pdfrwt>
<totfact> 0.14767026E+05</totfact>
</mgrwt>
</event>
<event>
 4    1  0.7478314E+004  0.3891350E+02  0.7546771E-02  0.1516363E+00
         21   -1    0    0  501  502  0.00000000000E+00  0.00000000000E+00  0.76750892050E+01  0.76750892050E+01  0.00000000000E+00 0.  1.
         21   -1    0    0  502  503 -0.00000000000E+00 -0.00000000000E+00 -0.29434694362E+03  0.29434694362E+03  0.00000000000E+00 0.  1.
          3    1    1    2  501    0 -0.14335789157E+02 -0.36176592112E+02 -0.56623801165E+02  0.68706007932E+02  0.00000000000E+00 0. -1.
         -3    1    1    2    0  503  0.14335789157E+02  0.36176592112E+02 -0.23004805325E+03  0.23331602489E+03  0.00000000000E+00 0.  1.
<mgrwt>
<rscale>  2 0.38913502E+02</rscale>
<asrwt>0</asrwt>
<pdfrwt beam="1">  1       21 0.11807831E-02 0.38913502E+02</pdfrwt>
<pdfrwt beam="2">  1       21 0.45284140E-01 0.38913502E+02</pdfrwt>
<totfact> 0.11740598E+07</totfact>
</mgrwt>
</event>
<event>
 4    1  0.7478314E+004  0.3392421E+02  0.7546771E-02  0.1558367E+00
         21   -1    0    0  503  502  0.00000000000E+00  0.00000000000E+00  0.13442679711E+03  0.13442679711E+03  0.00000000000E+00 0. -1.
         21   -1    0    0  501  503 -0.00000000000E+00 -0.00000000000E+00 -0.91897331429E+01  0.91897331429E+01  0.00000000000E+00 0. -1.
          2    1    1    2  501    0 -0.24725514546E+02 -0.23227153184E+02  0.81398495167E+02  0.88184844107E+02  0.00000000000E+00 0.  1.
         -2    1    1    2    0  502  0.24725514546E+02  0.23227153184E+02  0.43838568799E+02  0.55431686146E+02  0.00000000000E+00 0. -1.
<mgrwt>
<rscale>  2 0.33924205E+02</rscale>
<asrwt>0</asrwt>
<pdfrwt beam="1">  1       21 0.20681044E-01 0.33924205E+02</pdfrwt>
<pdfrwt beam="2">  1       21 0.14138052E-02 0.33924205E+02</pdfrwt>
<totfact> 0.37416480E+07</totfact>
</mgrwt>
</event>
<event>
 4    1  0.7478314E+004  0.2609321E+02  0.7546771E-02  0.1645779E+00
         21   -1    0    0  503  502  0.00000000000E+00  0.00000000000E+00  0.45608990311E+01  0.45608990311E+01  0.00000000000E+00 0. -1.
         21   -1    0    0  501  503 -0.00000000000E+00 -0.00000000000E+00 -0.15533428763E+03  0.15533428763E+03  0.00000000000E+00 0. -1.
          2    1    1    2  501    0  0.93723495851E+01  0.24351891175E+02 -0.59604492119E+02  0.65065743839E+02  0.00000000000E+00 0.  1.
         -2    1    1    2    0  502 -0.93723495851E+01 -0.24351891175E+02 -0.91168896479E+02  0.94829442821E+02  0.00000000000E+00 0. -1.
<mgrwt>
<rscale>  2 0.26093209E+02</rscale>
<asrwt>0</asrwt>
<pdfrwt beam="1">  1       21 0.70167673E-03 0.26093209E+02</pdfrwt>
<pdfrwt beam="2">  1       21 0.23897584E-01 0.26093209E+02</pdfrwt>
<totfact> 0.78949798E+07</totfact>
</mgrwt>
</event>
<event>
 4    1  0.7478314E+004  0.2852316E+02  0.7546771E-02  0.1615011E+00
         21   -1    0    0  501  502  0.00000000000E+00  0.00000000000E+00  0.15688870858E+03  0.15688870858E+03  0.00000000000E+00 0. -1.
         21   -1    0    0  502  503 -0.00000000000E+00 -0.00000000000E+00 -0.52385611964E+01  0.52385611964E+01  0.00000000000E+00 0. -1.
          1    1    1    2  501    0 -0.23577154753E+02  0.16052682558E+02  0.67678593642E+02  0.73443603404E+02  0.00000000000E+00 0. -1.
         -1    1    1    2    0  503  0.23577154753E+02 -0.16052682558E+02  0.83971553742E+02  0.88683666374E+02  0.00000000000E+00 0.  1.
<mgrwt>
<rscale>  2 0.28523163E+02</rscale>
<asrwt>0</asrwt>
<pdfrwt beam="1">  1       21 0.24136721E-01 0.28523163E+02</pdfrwt>
<pdfrwt beam="2">  1       21 0.80593261E-03 0.28523163E+02</pdfrwt>
<totfact> 0.64360013E+07</totfact>
</mgrwt>
</event>
<event>
 4    1  0.7478314E+004  0.2067954E+02  0.7546771E-02  0.1732143E+00
         21   -1    0    0  501  502  0.00000000000E+00  0.00000000000E+00  0.80709145708E+00  0.80709145708E+00  0.00000000000E+00 0. -1.
         21   -1    0    0  502  503 -0.00000000000E+00 -0.00000000000E+00 -0.53311850699E+03  0.53311850699E+03  0.00000000000E+00 0. -1.
          3    1    1    2  501    0  0.61426442662E+01  0.19746173040E+02 -0.28703508250E+03  0.28777905069E+03  0.00000000000E+00 0. -1.
         -3    1    1    2    0  503 -0.61426442662E+01 -0.19746173040E+02 -0.24527633303E+03  0.24614654776E+03  0.00000000000E+00 0.  1.
<mgrwt>
<rscale>  2 0.20679541E+02</rscale>
<asrwt>0</asrwt>
<pdfrwt beam="1">  1       21 0.12416790E-03 0.20679541E+02</pdfrwt>
<pdfrwt beam="2">  1       21 0.82018240E-01 0.20679541E+02</pdfrwt>
<totfact> 0.86962103E+07</totfact>
</mgrwt>
</event>
<event>
 4    1  0.7478314E+004  0.2058569E+02  0.7546771E-02  0.1733926E+00
         21   -1    0    0  501  502  0.00000000000E+00  0.00000000000E+00  0.57288762358E+03  0.57288762358E+03  0.00000000000E+00 0.  1.
         21   -1    0    0  502  503 -0.00000000000E+00 -0.00000000000E+00 -0.96395291861E+00  0.96395291861E+00  0.00000000000E+00 0.  1.
          1    1    1    2  501    0 -0.20462701085E+02 -0.22469067972E+01  0.42435065458E+03  0.42484967785E+03  0.00000000000E+00 0. -1.
         -1    1    1    2    0  503  0.20462701085E+02  0.22469067972E+01  0.14757301608E+03  0.14900189865E+03  0.00000000000E+00 0.  1.
<mgrwt>
<rscale>  2 0.20585692E+02</rscale>
<asrwt>0</asrwt>
<pdfrwt beam="1">  1       21 0.88136285E-01 0.20585692E+02</pdfrwt>
<pdfrwt beam="2">  1       21 0.14830091E-03 0.20585692E+02</pdfrwt>
<totfact> 0.57927155E+07</totfact>
</mgrwt>
</event>
<event>
 4    1  0.7478314E+004  0.2224025E+02  0.7546771E-02  0.1704130E+00
         21   -1    0    0  503  502  0.00000000000E+00  0.00000000000E+00  0.19619700702E+01  0.19619700702E+01  0.00000000000E+00 0.  1.
         21   -1    0    0  501  503 -0.00000000000E+00 -0.00000000000E+00 -0.40534157222E+03  0.40534157222E+03  0.00000000000E+00 0.  1.
          5    1    1    2  501    0 -0.16853037464E+01  0.22176304503E+02 -0.32690420962E+03  0.32765987090E+03  0.00000000000E+00 0.  1.
         -5    1    1    2    0  502  0.16853037464E+01 -0.22176304503E+02 -0.76475392531E+02  0.79643671393E+02  0.00000000000E+00 0. -1.
<mgrwt>
<rscale>  2 0.22240250E+02</rscale>
<asrwt>0</asrwt>
<pdfrwt beam="1">  1       21 0.30184100E-03 0.22240250E+02</pdfrwt>
<pdfrwt beam="2">  1       21 0.62360356E-01 0.22240250E+02</pdfrwt>
<totfact> 0.43228533E+07</totfact>
</mgrwt>
</event>
<event>
 4    1  0.7478314E+004  0.3663820E+02  0.7546771E-02  0.1534516E+00
         21   -1    0    0  501  502  0.00000000000E+00  0.00000000000E+00  0.48336530922E+03  0.48336530922E+03  0.00000000000E+00 0.  1.
         21   -1    0    0  502  503 -0.00000000000E+00 -0.00000000000E+00 -0.60409742931E+01  0.60409742931E+01  0.00000000000E+00 0.  1.
          4    1    1    2  501    0  0.16791582895E+02  0.32563786816E+02  0.41852948529E+03  0.42013008405E+03  0.00000000000E+00 0.  1.
         -4    1    1    2    0  503 -0.16791582895E+02 -0.32563786816E+02  0.58794849632E+02  0.69276199456E+02  0.00000000000E+00 0. -1.
<mgrwt>
<rscale>  2 0.36638197E+02</rscale>
<asrwt>0</asrwt>
<pdfrwt beam="1">  1       21 0.74363863E-01 0.36638197E+02</pdfrwt>
<pdfrwt beam="2">  1       21 0.92938104E-03 0.36638197E+02</pdfrwt>
<totfact> 0.61372947E+06</totfact>
</mgrwt>
</event>
<event>
 4    1  0.7478314E+004  0.3522005E+02  0.7546771E-02  0.1546655E+00
         21   -1    0    0  501  502  0.00000000000E+00  0.00000000000E+00  0.44295390683E+03  0.44295390683E+03  0.00000000000E+00 0.  1.
         21   -1    0    0  502  503 -0.00000000000E+00 -0.00000000000E+00 -0.32469705135E+01  0.32469705135E+01  0.00000000000E+00 0.  1.
          3    1    1    2  501    0 -0.10269037239E+02 -0.33689743804E+02  0.13711603270E+03  0.14156715151E+03  0.00000000000E+00 0.  1.
         -3    1    1    2    0  503  0.10269037239E+02  0.33689743804E+02  0.30259090361E+03  0.30463372583E+03  0.00000000000E+00 0. -1.
<mgrwt>
<rscale>  2 0.35220051E+02</rscale>
<asrwt>0</asrwt>
<pdfrwt beam="1">  1       21 0.68146707E-01 0.35220051E+02</pdfrwt>
<pdfrwt beam="2">  1       21 0.49953427E-03 0.35220051E+02</pdfrwt>
<totfact> 0.18698787E+07</totfact>
</mgrwt>
</event>
<event>
 4    1  0.7478314E+004  0.2033106E+02  0.7546771E-02  0.1738824E+00
         21   -1    0    0  501  502  0.00000000000E+00  0.00000000000E+00  0.63294032299E+02  0.63294032299E+02  0.00000000000E+00 0.  1.
         21   -1    0    0  502  503 -0.00000000000E+00 -0.00000000000E+00 -0.66493511363E+01  0.66493511363E+01  0.00000000000E+00 0.  1.
          2    1    1    2  501    0  0.20309613117E+02  0.93355929883E+00  0.32994663888E+02  0.38755641692E+02  0.00000000000E+00 0. -1.
         -2    1    1    2    0  503 -0.20309613117E+02 -0.93355929883E+00  0.23650017275E+02  0.31187741743E+02  0.00000000000E+00 0.  1.
<mgrwt>
<rscale>  2 0.20331058E+02</rscale>
<asrwt>0</asrwt>
<pdfrwt beam="1">  1       21 0.97375430E-02 0.20331058E+02</pdfrwt>
<pdfrwt beam="2">  1       21 0.10229771E-02 0.20331058E+02</pdfrwt>
<totfact> 0.19392786E+08</totfact>
</mgrwt>
</event>
<event>
 4    1  0.7478314E+004  0.3921866E+02  0.7546771E-02  0.1514041E+00
         21   -1    0    0  503  502  0.00000000000E+00  0.00000000000E+00  0.10148064859E+03  0.10148064859E+03  0.00000000000E+00 0.  1.
         21   -1    0    0  501  503 -0.00000000000E+00 -0.00000000000E+00 -0.19597724791E+02  0.19597724791E+02  0.00000000000E+00 0.  1.
          3    1    1    2  501    0 -0.34819822833E+02 -0.18046702177E+02  0.12122434727E+02  0.41049445128E+02  0.00000000000E+00 0. -1.
         -3    1    1    2    0  502  0.34819822833E+02  0.18046702177E+02  0.69760489068E+02  0.80028928248E+02  0.00000000000E+00 0.  1.
<mgrwt>
<rscale>  2 0.39218663E+02</rscale>
<asrwt>0</asrwt>
<pdfrwt beam="1">  1       21 0.15612407E-01 0.39218663E+02</pdfrwt>
<pdfrwt beam="2">  1       21 0.30150346E-02 0.39218663E+02</pdfrwt>
<totfact> 0.19297974E+07</totfact>
</mgrwt>
</event>
<event>
 4    1  0.7478314E+004  0.2048033E+02  0.7546771E-02  0.1735941E+00
         21   -1    0    0  503  502  0.00000000000E+00  0.00000000000E+00  0.79869575847E+01  0.79869575847E+01  0.00000000000E+00 0.  1.
         21   -1    0    0  501  503 -0.00000000000E+00 -0.00000000000E+00 -0.64015585401E+02  0.64015585401E+02  0.00000000000E+00 0.  1.
          2    1    1    2  501    0 -0.20034234980E+02  0.42512600777E+01 -0.12755725076E+02  0.24127832594E+02  0.00000000000E+00 0.  1.
         -2    1    1    2    0  502  0.20034234980E+02 -0.42512600777E+01 -0.43272902740E+02  0.47874710391E+02  0.00000000000E+00 0. -1.
<mgrwt>
<rscale>  2 0.20480327E+02</rscale>
<asrwt>0</asrwt>
<pdfrwt beam="1">  1       21 0.12287627E-02 0.20480327E+02</pdfrwt>
<pdfrwt beam="2">  1       21 0.98485515E-02 0.20480327E+02</pdfrwt>
<totfact> 0.14491538E+08</totfact>
</mgrwt>
</event>
<event>
 4    1  0.7478314E+004  0.2312160E+02  0.7546771E-02  0.1689547E+00
         21   -1    0    0  503  502  0.00000000000E+00  0.00000000000E+00  0.31011278085E+03  0.31011278085E+03  0.00000000000E+00 0.  1.
         21   -1    0    0  501  503 -0.00000000000E+00 -0.00000000000E+00 -0.17319200787E+01  0.17319200787E+01  0.00000000000E+00 0.  1.
          3    1    1    2  501    0 -0.27455540183E+01 -0.22958015720E+02  0.14359092916E+03  0.14544058405E+03  0.00000000000E+00 0.  1.
         -3    1    1    2    0  502  0.27455540183E+01  0.22958015720E+02  0.16478993161E+03  0.16640411688E+03  0.00000000000E+00 0. -1.
<mgrwt>
<rscale>  2 0.23121604E+02</rscale>
<asrwt>0</asrwt>
<pdfrwt beam="1">  1       21 0.47709614E-01 0.23121604E+02</pdfrwt>
<pdfrwt beam="2">  1       21 0.26644949E-03 0.23121604E+02</pdfrwt>
<totfact> 0.88632724E+07</totfact>
</mgrwt>
</event>
<event>
 4    1  0.7478314E+004  0.2436499E+02  0.7546771E-02  0.1670294E+00
         21   -1    0    0  503  502  0.00000000000E+00  0.00000000000E+00  0.24761389444E+01  0.24761389444E+01  0.00000000000E+00 0.  1.
         21   -1    0    0  501  503 -0.00000000000E+00 -0.00000000000E+00 -0.29051850436E+03  0.29051850436E+03  0.00000000000E+00 0.  1.
          1    1    1    2  501    0 -0.15832528061E+02 -0.18519815187E+02 -0.82780066120E+02  0.86291319646E+02  0.00000000000E+00 0.  1.
         -1    1    1    2    0  502  0.15832528061E+02  0.18519815187E+02 -0.20526229930E+03  0.20670332366E+03  0.00000000000E+00 0. -1.
<mgrwt>
<rscale>  2 0.24364985E+02</rscale>
<asrwt>0</asrwt>
<pdfrwt beam="1">  1       21 0.38094483E-03 0.24364985E+02</pdfrwt>
<pdfrwt beam="2">  1       21 0.44695110E-01 0.24364985E+02</pdfrwt>
<totfact> 0.60396751E+07</totfact>
</mgrwt>
</event>
<event>
 4    1  0.7478314E+004  0.2356290E+02  0.7546771E-02  0.1682545E+00
         21   -1    0    0  503  502  0.00000000000E+00  0.00000000000E+00  0.30661863185E+02  0.30661863185E+02  0.00000000000E+00 0. -1.
         21   -1    0    0  501  503 -0.00000000000E+00 -0.00000000000E+00 -0.18768116543E+02  0.18768116543E+02  0.00000000000E+00 0. -1.
          2    1    1    2  501    0 -0.23207897944E+02 -0.40747452620E+01  0.13100489094E+01  0.23599286093E+02  0.00000000000E+00 0. -1.
         -2    1    1    2    0  502  0.23207897944E+02  0.40747452620E+01  0.10583697733E+02  0.25830693635E+02  0.00000000000E+00 0.  1.
<mgrwt>
<rscale>  2 0.23562896E+02</rscale>
<asrwt>0</asrwt>
<pdfrwt beam="1">  1       21 0.47172097E-02 0.23562896E+02</pdfrwt>
<pdfrwt beam="2">  1       21 0.28874025E-02 0.23562896E+02</pdfrwt>
<totfact> 0.13441593E+08</totfact>
</mgrwt>
</event>
<event>
 4    1  0.7478314E+004  0.2495128E+02  0.7546771E-02  0.1661703E+00
         21   -1    0    0  501  502  0.00000000000E+00  0.00000000000E+00  0.41500048546E+01  0.41500048546E+01  0.00000000000E+00 0. -1.
         21   -1    0    0  502  503 -0.00000000000E+00 -0.00000000000E+00 -0.15001587743E+03  0.15001587743E+03  0.00000000000E+00 0. -1.
          3    1    1    2  501    0  0.13030351813E+02 -0.21278542365E+02 -0.72890798342E+02  0.77043071826E+02  0.00000000000E+00 0.  1.
         -3    1    1    2    0  503 -0.13030351813E+02  0.21278542365E+02 -0.72975074235E+02  0.77122810459E+02  0.00000000000E+00 0. -1.
<mgrwt>
<rscale>  2 0.24951281E+02</rscale>
<asrwt>0</asrwt>
<pdfrwt beam="1">  1       21 0.63846223E-03 0.24951281E+02</pdfrwt>
<pdfrwt beam="2">  1       21 0.23079368E-01 0.24951281E+02</pdfrwt>
<totfact> 0.95628256E+07</totfact>
</mgrwt>
</event>
<event>
 4    1  0.7478314E+004  0.2080808E+02  0.7546771E-02  0.1729720E+00
         21   -1    0    0  501  502  0.00000000000E+00  0.00000000000E+00  0.23720495978E+02  0.23720495978E+02  0.00000000000E+00 0.  1.
         21   -1    0    0  502  503 -0.00000000000E+00 -0.00000000000E+00 -0.18528099153E+02  0.18528099153E+02  0.00000000000E+00 0.  1.
          4    1    1    2  501    0 -0.70047361322E+00  0.20796290963E+02  0.23397853326E-01  0.20808097668E+02  0.00000000000E+00 0.  1.
         -4    1    1    2    0  503  0.70047361322E+00 -0.20796290963E+02  0.51689989720E+01  0.21440497464E+02  0.00000000000E+00 0. -1.
<mgrwt>
<rscale>  2 0.20808085E+02</rscale>
<asrwt>0</asrwt>
<pdfrwt beam="1">  1       21 0.36493071E-02 0.20808085E+02</pdfrwt>
<pdfrwt beam="2">  1       21 0.28504768E-02 0.20808085E+02</pdfrwt>
<totfact> 0.19772764E+08</totfact>
</mgrwt>
</event>
<event>
 4    1  0.7478314E+004  0.2155366E+02  0.7546771E-02  0.1716087E+00
         21   -1    0    0  503  502  0.00000000000E+00  0.00000000000E+00  0.19849608311E+03  0.19849608311E+03  0.00000000000E+00 0. -1.
         21   -1    0    0  501  503 -0.00000000000E+00 -0.00000000000E+00 -0.26357134129E+01  0.26357134129E+01  0.00000000000E+00 0. -1.
          4    1    1    2  501    0  0.18665861532E+02  0.10777101544E+02  0.64267948477E+02  0.67785909346E+02  0.00000000000E+00 0. -1.
         -4    1    1    2    0  502 -0.18665861532E+02 -0.10777101544E+02  0.13159242122E+03  0.13334588717E+03  0.00000000000E+00 0.  1.
<mgrwt>
<rscale>  2 0.21553661E+02</rscale>
<asrwt>0</asrwt>
<pdfrwt beam="1">  1       21 0.30537847E-01 0.21553661E+02</pdfrwt>
<pdfrwt beam="2">  1       21 0.40549453E-03 0.21553661E+02</pdfrwt>
<totfact> 0.10866171E+08</totfact>
</mgrwt>
</event>
<event>
 4    1  0.7478314E+004  0.2140501E+02  0.7546771E-02  0.1718750E+00
         21   -1    0    0  501  502  0.00000000000E+00  0.00000000000E+00  0.15376392920E+01  0.15376392920E+01  0.00000000000E+00 0.  1.
         21   -1    0    0  502  503 -0.00000000000E+00 -0.00000000000E+00 -0.33948704349E+03  0.33948704349E+03  0.00000000000E+00 0.  1.
          1    1    1    2  501    0 -0.21085769608E+02 -0.36830372669E+01 -0.10934761380E+03  0.11142295583E+03  0.00000000000E+00 0.  1.
         -1    1    1    2    0  503  0.21085769608E+02  0.36830372669E+01 -0.22860179040E+03  0.22960172694E+03  0.00000000000E+00 0. -1.
<mgrwt>
<rscale>  2 0.21405010E+02</rscale>
<asrwt>0</asrwt>
<pdfrwt beam="1">  1       21 0.23655966E-03 0.21405010E+02</pdfrwt>
<pdfrwt beam="2">  1       21 0.52228828E-01 0.21405010E+02</pdfrwt>
<totfact> 0.86615288E+07</totfact>
</mgrwt>
</event>
<event>
 4    1  0.7478314E+004  0.7369272E+02  0.7546771E-02  0.1347968E+00
         21   -1    0    0  503  502  0.00000000000E+00  0.00000000000E+00  0.78909384464E+01  0.78909384464E+01  0.00000000000E+00 0. -1.
         21   -1    0    0  501  503 -0.00000000000E+00 -0.00000000000E+00 -0.73282339926E+03  0.73282339926E+03  0.00000000000E+00 0. -1.
          1    1    1    2  501    0  0.32527404362E+02  0.66125525192E+02 -0.45384750742E+03  0.45979144958E+03  0.00000000000E+00 0. -1.
         -1    1    1    2    0  502 -0.32527404362E+02 -0.66125525192E+02 -0.27108495340E+03  0.28092288813E+03  0.00000000000E+00 0.  1.
<mgrwt>
<rscale>  2 0.73692721E+02</rscale>
<asrwt>0</asrwt>
<pdfrwt beam="1">  1       21 0.12139908E-02 0.73692721E+02</pdfrwt>
<pdfrwt beam="2">  1       21 0.11274204E+00 0.73692721E+02</pdfrwt>
<totfact> 0.16841500E+06</totfact>
</mgrwt>
</event>
<event>
 4    1  0.7478314E+004  0.2512080E+02  0.7546771E-02  0.1659273E+00
         21   -1    0    0  503  502  0.00000000000E+00  0.00000000000E+00  0.36545400695E+03  0.36545400695E+03  0.00000000000E+00 0.  1.
         21   -1    0    0  501  503 -0.00000000000E+00 -0.00000000000E+00 -0.17530025428E+01  0.17530025428E+01  0.00000000000E+00 0.  1.
          2    1    1    2  501    0  0.21308567769E+02 -0.13304109077E+02  0.15938974907E+03  0.16135720154E+03  0.00000000000E+00 0. -1.
         -2    1    1    2    0  502 -0.21308567769E+02  0.13304109077E+02  0.20431125533E+03  0.20584980795E+03  0.00000000000E+00 0.  1.
<mgrwt>
<rscale>  2 0.25120796E+02</rscale>
<asrwt>0</asrwt>
<pdfrwt beam="1">  1       21 0.56223633E-01 0.25120796E+02</pdfrwt>
<pdfrwt beam="2">  1       21 0.26969299E-03 0.25120796E+02</pdfrwt>
<totfact> 0.64422085E+07</totfact>
</mgrwt>
</event>
<event>
 4    1  0.7478314E+004  0.2919433E+02  0.7546771E-02  0.1607169E+00
         21   -1    0    0  503  502  0.00000000000E+00  0.00000000000E+00  0.10845892953E+04  0.10845892953E+04  0.00000000000E+00 0.  1.
         21   -1    0    0  501  503 -0.00000000000E+00 -0.00000000000E+00 -0.90074935514E+00  0.90074935514E+00  0.00000000000E+00 0.  1.
          1    1    1    2  501    0 -0.29043340235E+02 -0.29653524798E+01  0.73570051720E+03  0.73627953927E+03  0.00000000000E+00 0. -1.
         -1    1    1    2    0  502  0.29043340235E+02  0.29653524798E+01  0.34798802877E+03  0.34921050541E+03  0.00000000000E+00 0.  1.
<mgrwt>
<rscale>  2 0.29194330E+02</rscale>
<asrwt>0</asrwt>
<pdfrwt beam="1">  1       21 0.16685885E+00 0.29194330E+02</pdfrwt>
<pdfrwt beam="2">  1       21 0.13857769E-03 0.29194330E+02</pdfrwt>
<totfact> 0.15866424E+07</totfact>
</mgrwt>
</event>
<event>
 4    1  0.7478314E+004  0.2539118E+02  0.7546771E-02  0.1655446E+00
         21   -1    0    0  501  502  0.00000000000E+00  0.00000000000E+00  0.93209577492E+01  0.93209577492E+01  0.00000000000E+00 0. -1.
         21   -1    0    0  502  503 -0.00000000000E+00 -0.00000000000E+00 -0.76606566939E+02  0.76606566939E+02  0.00000000000E+00 0. -1.
          4    1    1    2  501    0  0.23174998186E+02 -0.10374564739E+02 -0.47030737888E+02  0.53447193011E+02  0.00000000000E+00 0. -1.
         -4    1    1    2    0  503 -0.23174998186E+02  0.10374564739E+02 -0.20254871302E+02  0.32480331678E+02  0.00000000000E+00 0.  1.
<mgrwt>
<rscale>  2 0.25391182E+02</rscale>
<asrwt>0</asrwt>
<pdfrwt beam="1">  1       21 0.14339935E-02 0.25391182E+02</pdfrwt>
<pdfrwt beam="2">  1       21 0.11785626E-01 0.25391182E+02</pdfrwt>
<totfact> 0.90524202E+07</totfact>
</mgrwt>
</event>
<event>
 4    1  0.7478314E+004  0.3381438E+02  0.7546771E-02  0.1559388E+00
         21   -1    0    0  503  502  0.00000000000E+00  0.00000000000E+00  0.33464275256E+01  0.33464275256E+01  0.00000000000E+00 0.  1.
         21   -1    0    0  501  503 -0.00000000000E+00 -0.00000000000E+00 -0.34221709371E+03  0.34221709371E+03  0.00000000000E+00 0.  1.
          3    1    1    2  501    0  0.32181801897E+02  0.10379966478E+02 -0.17627131685E+03  0.17948534542E+03  0.00000000000E+00 0.  1.
         -3    1    1    2    0  502 -0.32181801897E+02 -0.10379966478E+02 -0.16259934933E+03  0.16607817581E+03  0.00000000000E+00 0. -1.
<mgrwt>
<rscale>  2 0.33814377E+02</rscale>
<asrwt>0</asrwt>
<pdfrwt beam="1">  1       21 0.51483471E-03 0.33814377E+02</pdfrwt>
<pdfrwt beam="2">  1       21 0.52648814E-01 0.33814377E+02</pdfrwt>
<totfact> 0.29999875E+07</totfact>
</mgrwt>
</event>
<event>
 4    1  0.7478314E+004  0.2991136E+02  0.7546771E-02  0.1599071E+00
         21   -1    0    0  503  502  0.00000000000E+00  0.00000000000E+00  0.71091407471E+03  0.71091407471E+03  0.00000000000E+00 0.  1.
         21   -1    0    0  501  503 -0.00000000000E+00 -0.00000000000E+00 -0.15303210034E+01  0.15303210034E+01  0.00000000000E+00 0.  1.
          2    1    1    2  501    0 -0.14085968033E+02  0.26387021299E+02  0.50482160272E+03  0.50570697045E+03  0.00000000000E+00 0. -1.
         -2    1    1    2    0  502  0.14085968033E+02 -0.26387021299E+02  0.20456215098E+03  0.20673742526E+03  0.00000000000E+00 0.  1.
<mgrwt>
<rscale>  2 0.29911359E+02</rscale>
<asrwt>0</asrwt>
<pdfrwt beam="1">  1       21 0.10937113E+00 0.29911359E+02</pdfrwt>
<pdfrwt beam="2">  1       21 0.23543457E-03 0.29911359E+02</pdfrwt>
<totfact> 0.19936489E+07</totfact>
</mgrwt>
</event>
<event>
 4    1  0.7478314E+004  0.2005806E+02  0.7546771E-02  0.1744176E+00
         21   -1    0    0  503  502  0.00000000000E+00  0.00000000000E+00  0.63378858118E+00  0.63378858118E+00  0.00000000000E+00 0. -1.
         21   -1    0    0  501  503 -0.00000000000E+00 -0.00000000000E+00 -0.64294243782E+03  0.64294243782E+03  0.00000000000E+00 0. -1.
          3    1    1    2  501    0  0.11279722188E+02  0.16585944382E+02 -0.35737865042E+03  0.35794109217E+03  0.00000000000E+00 0.  1.
         -3    1    1    2    0  502 -0.11279722188E+02 -0.16585944382E+02 -0.28492999882E+03  0.28563513424E+03  0.00000000000E+00 0. -1.
<mgrwt>
<rscale>  2 0.20058058E+02</rscale>
<asrwt>0</asrwt>
<pdfrwt beam="1">  1       21 0.97505818E-04 0.20058058E+02</pdfrwt>
<pdfrwt beam="2">  1       21 0.98914341E-01 0.20058058E+02</pdfrwt>
<totfact> 0.81614306E+07</totfact>
</mgrwt>
</event>
<event>
 4    1  0.7478314E+004  0.2147493E+02  0.7546771E-02  0.1717494E+00
         21   -1    0    0  501  502  0.00000000000E+00  0.00000000000E+00  0.74783823973E+00  0.74783823973E+00  0.00000000000E+00 0.  1.
         21   -1    0    0  502  503 -0.00000000000E+00 -0.00000000000E+00 -0.61708202879E+03  0.61708202879E+03  0.00000000000E+00 0.  1.
          5    1    1    2  501    0 -0.17542553288E+02 -0.12386739795E+02 -0.30022487877E+03  0.30099194397E+03  0.00000000000E+00 0. -1.
         -5    1    1    2    0  503  0.17542553288E+02  0.12386739795E+02 -0.31610931178E+03  0.31683792306E+03  0.00000000000E+00 0.  1.
<mgrwt>
<rscale>  2 0.21474927E+02</rscale>
<asrwt>0</asrwt>
<pdfrwt beam="1">  1       21 0.11505283E-03 0.21474927E+02</pdfrwt>
<pdfrwt beam="2">  1       21 0.94935039E-01 0.21474927E+02</pdfrwt>
<totfact> 0.71704854E+07</totfact>
</mgrwt>
</event>
<event>
 4    1  0.7478314E+004  0.2299150E+02  0.7546771E-02  0.1691648E+00
         21   -1    0    0  503  502  0.00000000000E+00  0.00000000000E+00  0.58283458041E+02  0.58283458041E+02  0.00000000000E+00 0.  1.
         21   -1    0    0  501  503 -0.00000000000E+00 -0.00000000000E+00 -0.11572316085E+02  0.11572316085E+02  0.00000000000E+00 0.  1.
          3    1    1    2  501    0  0.14826790271E+00  0.22991025426E+02  0.71125948129E+01  0.24066537734E+02  0.00000000000E+00 0. -1.
         -3    1    1    2    0  502 -0.14826790271E+00 -0.22991025426E+02  0.39598547143E+02  0.45789236392E+02  0.00000000000E+00 0.  1.
<mgrwt>
<rscale>  2 0.22991504E+02</rscale>
<asrwt>0</asrwt>
<pdfrwt beam="1">  1       21 0.89666856E-02 0.22991504E+02</pdfrwt>
<pdfrwt beam="2">  1       21 0.17803564E-02 0.22991504E+02</pdfrwt>
<totfact> 0.99717101E+07</totfact>
</mgrwt>
</event>
<event>
 4    1  0.7478314E+004  0.2304386E+02  0.7546771E-02  0.1690800E+00
         21   -1    0    0  501  502  0.00000000000E+00  0.00000000000E+00  0.15416123644E+01  0.15416123644E+01  0.00000000000E+00 0. -1.
         21   -1    0    0  502  503 -0.00000000000E+00 -0.00000000000E+00 -0.36118278251E+03  0.36118278251E+03  0.00000000000E+00 0. -1.
          2    1    1    2  501    0 -0.32174640331E+01 -0.22818141461E+02 -0.21884823431E+03  0.22005810441E+03  0.00000000000E+00 0.  1.
         -2    1    1    2    0  503  0.32174640331E+01  0.22818141461E+02 -0.14079293583E+03  0.14266629047E+03  0.00000000000E+00 0. -1.
<mgrwt>
<rscale>  2 0.23043864E+02</rscale>
<asrwt>0</asrwt>
<pdfrwt beam="1">  1       21 0.23717094E-03 0.23043864E+02</pdfrwt>
<pdfrwt beam="2">  1       21 0.55566627E-01 0.23043864E+02</pdfrwt>
<totfact> 0.77862904E+07</totfact>
</mgrwt>
</event>
<event>
 4    1  0.7478314E+004  0.2076245E+02  0.7546771E-02  0.1730578E+00
         21   -1    0    0  503  502  0.00000000000E+00  0.00000000000E+00  0.11813092337E+03  0.11813092337E+03  0.00000000000E+00 0. -1.
         21   -1    0    0  501  503 -0.00000000000E+00 -0.00000000000E+00 -0.37769067021E+01  0.37769067021E+01  0.00000000000E+00 0. -1.
          3    1    1    2  501    0  0.10300922063E+02  0.18026928432E+02  0.68386891266E+02  0.71469196449E+02  0.00000000000E+00 0.  1.
         -3    1    1    2    0  502 -0.10300922063E+02 -0.18026928432E+02  0.45967125400E+02  0.50438633621E+02  0.00000000000E+00 0. -1.
<mgrwt>
<rscale>  2 0.20762446E+02</rscale>
<asrwt>0</asrwt>
<pdfrwt beam="1">  1       21 0.18173985E-01 0.20762446E+02</pdfrwt>
<pdfrwt beam="2">  1       21 0.58106266E-03 0.20762446E+02</pdfrwt>
<totfact> 0.15851285E+08</totfact>
</mgrwt>
</event>
<event>
 4    1  0.7478314E+004  0.2059544E+02  0.7546771E-02  0.1733740E+00
         21   -1    0    0  501  502  0.00000000000E+00  0.00000000000E+00  0.17533747114E+02  0.17533747114E+02  0.00000000000E+00 0. -1.
         21   -1    0    0  502  503 -0.00000000000E+00 -0.00000000000E+00 -0.24567270228E+02  0.24567270228E+02  0.00000000000E+00 0. -1.
          2    1    1    2  501    0  0.11801820478E+02  0.16878655457E+02 -0.91419129149E+00  0.20615715422E+02  0.00000000000E+00 0. -1.
         -2    1    1    2    0  503 -0.11801820478E+02 -0.16878655457E+02 -0.61193318224E+01  0.21485301920E+02  0.00000000000E+00 0.  1.
<mgrwt>
<rscale>  2 0.20595436E+02</rscale>
<asrwt>0</asrwt>
<pdfrwt beam="1">  1       21 0.26974996E-02 0.20595436E+02</pdfrwt>
<pdfrwt beam="2">  1       21 0.37795800E-02 0.20595436E+02</pdfrwt>
<totfact> 0.20315972E+08</totfact>
</mgrwt>
</event>
<event>
 4    1  0.7478314E+004  0.2179997E+02  0.7546771E-02  0.1711734E+00
         21   -1    0    0  503  502  0.00000000000E+00  0.00000000000E+00  0.27135451493E+01  0.27135451493E+01  0.00000000000E+00 0. -1.
         21   -1    0    0  501  503 -0.00000000000E+00 -0.00000000000E+00 -0.21862046406E+03  0.21862046406E+03  0.00000000000E+00 0. -1.
          2    1    1    2  501    0  0.11087936974E+02 -0.18769563371E+02 -0.15730956587E+03  0.15881290366E+03  0.00000000000E+00 0. -1.
         -2    1    1    2    0  502 -0.11087936974E+02  0.18769563371E+02 -0.58597353045E+02  0.62521105551E+02  0.00000000000E+00 0.  1.
<mgrwt>
<rscale>  2 0.21799974E+02</rscale>
<asrwt>0</asrwt>
<pdfrwt beam="1">  1       21 0.41746851E-03 0.21799974E+02</pdfrwt>
<pdfrwt beam="2">  1       21 0.33633915E-01 0.21799974E+02</pdfrwt>
<totfact> 0.87545913E+07</totfact>
</mgrwt>
</event>
<event>
 4    1  0.7478314E+004  0.2314110E+02  0.7546771E-02  0.1689233E+00
         21   -1    0    0  503  502  0.00000000000E+00  0.00000000000E+00  0.20712184342E+03  0.20712184342E+03  0.00000000000E+00 0.  1.
         21   -1    0    0  501  503 -0.00000000000E+00 -0.00000000000E+00 -0.36150043793E+01  0.36150043793E+01  0.00000000000E+00 0.  1.
          5    1    1    2  501    0  0.22383816736E+02 -0.58715556285E+01  0.15798409949E+03  0.15966992863E+03  0.00000000000E+00 0.  1.
         -5    1    1    2    0  502 -0.22383816736E+02  0.58715556285E+01  0.45522739549E+02  0.51066919167E+02  0.00000000000E+00 0. -1.
<mgrwt>
<rscale>  2 0.23141098E+02</rscale>
<asrwt>0</asrwt>
<pdfrwt beam="1">  1       21 0.31864890E-01 0.23141098E+02</pdfrwt>
<pdfrwt beam="2">  1       21 0.55615468E-03 0.23141098E+02</pdfrwt>
<totfact> 0.64361973E+07</totfact>
</mgrwt>
</event>
<event>
 4    1  0.7478314E+004  0.2385812E+02  0.7546771E-02  0.1677966E+00
         21   -1    0    0  501  502  0.00000000000E+00  0.00000000000E+00  0.35470869142E+01  0.35470869142E+01  0.00000000000E+00 0.  1.
         21   -1    0    0  502  503 -0.00000000000E+00 -0.00000000000E+00 -0.20343867950E+03  0.20343867950E+03  0.00000000000E+00 0.  1.
          1    1    1    2  501    0 -0.15367346834E+02 -0.18249784659E+02 -0.14750745274E+03  0.14942442439E+03  0.00000000000E+00 0. -1.
         -1    1    1    2    0  503  0.15367346834E+02  0.18249784659E+02 -0.52384139842E+02  0.57561342025E+02  0.00000000000E+00 0.  1.
<mgrwt>
<rscale>  2 0.23858122E+02</rscale>
<asrwt>0</asrwt>
<pdfrwt beam="1">  1       21 0.54570557E-03 0.23858122E+02</pdfrwt>
<pdfrwt beam="2">  1       21 0.31298265E-01 0.23858122E+02</pdfrwt>
<totfact> 0.68935359E+07</totfact>
</mgrwt>
</event>
<event>
 4    1  0.7478314E+004  0.2490738E+02  0.7546771E-02  0.1662336E+00
         21   -1    0    0  501  502  0.00000000000E+00  0.00000000000E+00  0.62888631254E+03  0.62888631254E+03  0.00000000000E+00 0.  1.
         21   -1    0    0  502  503 -0.00000000000E+00 -0.00000000000E+00 -0.13125207226E+01  0.13125207226E+01  0.00000000000E+00 0.  1.
          4    1    1    2  501    0 -0.24895501891E+02  0.76904342249E+00  0.15673718583E+03  0.15870388422E+03  0.00000000000E+00 0.  1.
         -4    1    1    2    0  503  0.24895501891E+02 -0.76904342249E+00  0.47083660599E+03  0.47149494905E+03  0.00000000000E+00 0. -1.
<mgrwt>
<rscale>  2 0.24907377E+02</rscale>
<asrwt>0</asrwt>
<pdfrwt beam="1">  1       21 0.96751500E-01 0.24907377E+02</pdfrwt>
<pdfrwt beam="2">  1       21 0.20192677E-03 0.24907377E+02</pdfrwt>
<totfact> 0.31690450E+07</totfact>
</mgrwt>
</event>
<event>
 4    1  0.7478314E+004  0.2539798E+02  0.7546771E-02  0.1655350E+00
         21   -1    0    0  501  502  0.00000000000E+00  0.00000000000E+00  0.42905112304E+02  0.42905112304E+02  0.00000000000E+00 0.  1.
         21   -1    0    0  502  503 -0.00000000000E+00 -0.00000000000E+00 -0.15959223697E+02  0.15959223697E+02  0.00000000000E+00 0.  1.
          4    1    1    2  501    0 -0.24277163347E+02 -0.74616934468E+01  0.63882848054E+01  0.26189076196E+02  0.00000000000E+00 0. -1.
         -4    1    1    2    0  503  0.24277163347E+02  0.74616934468E+01  0.20557603802E+02  0.32675259805E+02  0.00000000000E+00 0.  1.
<mgrwt>
<rscale>  2 0.25397983E+02</rscale>
<asrwt>0</asrwt>
<pdfrwt beam="1">  1       21 0.66007865E-02 0.25397983E+02</pdfrwt>
<pdfrwt beam="2">  1       21 0.24552652E-02 0.25397983E+02</pdfrwt>
<totfact> 0.10301470E+08</totfact>
</mgrwt>
</event>
<event>
 4    1  0.7478314E+004  0.3604806E+02  0.7546771E-02  0.1539486E+00
         21   -1    0    0  503  502  0.00000000000E+00  0.00000000000E+00  0.57055106181E+03  0.57055106181E+03  0.00000000000E+00 0.  1.
         21   -1    0    0  501  503 -0.00000000000E+00 -0.00000000000E+00 -0.23361560920E+01  0.23361560920E+01  0.00000000000E+00 0.  1.
          1    1    1    2  501    0 -0.29492516592E+02  0.20728099565E+02  0.32947372778E+03  0.33143988889E+03  0.00000000000E+00 0.  1.
         -1    1    1    2    0  502  0.29492516592E+02 -0.20728099565E+02  0.23874117793E+03  0.24144732901E+03  0.00000000000E+00 0. -1.
<mgrwt>
<rscale>  2 0.36048060E+02</rscale>
<asrwt>0</asrwt>
<pdfrwt beam="1">  1       21 0.87776976E-01 0.36048060E+02</pdfrwt>
<pdfrwt beam="2">  1       21 0.35940908E-03 0.36048060E+02</pdfrwt>
<totfact> 0.17891021E+07</totfact>
</mgrwt>
</event>
<event>
 4    1  0.7478314E+004  0.2523586E+02  0.7546771E-02  0.1657637E+00
         21   -1    0    0  503  502  0.00000000000E+00  0.00000000000E+00  0.79308453763E+01  0.79308453763E+01  0.00000000000E+00 0.  1.
         21   -1    0    0  501  503 -0.00000000000E+00 -0.00000000000E+00 -0.80423210090E+02  0.80423210090E+02  0.00000000000E+00 0.  1.
          5    1    1    2  501    0 -0.24730308276E+02  0.50259830572E+01 -0.37973751250E+02  0.45594456210E+02  0.00000000000E+00 0.  1.
         -5    1    1    2    0  502  0.24730308276E+02 -0.50259830572E+01 -0.34518613464E+02  0.42759599257E+02  0.00000000000E+00 0. -1.
<mgrwt>
<rscale>  2 0.25235860E+02</rscale>
<asrwt>0</asrwt>
<pdfrwt beam="1">  1       21 0.12201301E-02 0.25235860E+02</pdfrwt>
<pdfrwt beam="2">  1       21 0.12372801E-01 0.25235860E+02</pdfrwt>
<totfact> 0.10644561E+08</totfact>
</mgrwt>
</event>
<event>
 4    1  0.7478314E+004  0.2451268E+02  0.7546771E-02  0.1668102E+00
         21   -1    0    0  503  502  0.00000000000E+00  0.00000000000E+00  0.25465835276E+02  0.25465835276E+02  0.00000000000E+00 0. -1.
         21   -1    0    0  501  503 -0.00000000000E+00 -0.00000000000E+00 -0.32132877820E+02  0.32132877820E+02  0.00000000000E+00 0. -1.
          1    1    1    2  501    0 -0.93100113678E+01  0.22675876857E+02  0.11511390754E+02  0.27081060171E+02  0.00000000000E+00 0. -1.
         -1    1    1    2    0  502  0.93100113678E+01 -0.22675876857E+02 -0.18178433298E+02  0.30517652925E+02  0.00000000000E+00 0.  1.
<mgrwt>
<rscale>  2 0.24512685E+02</rscale>
<asrwt>0</asrwt>
<pdfrwt beam="1">  1       21 0.39178209E-02 0.24512685E+02</pdfrwt>
<pdfrwt beam="2">  1       21 0.49435196E-02 0.24512685E+02</pdfrwt>
<totfact> 0.78207157E+07</totfact>
</mgrwt>
</event>
<event>
 4    1  0.7478314E+004  0.2416838E+02  0.7546771E-02  0.1673242E+00
         21   -1    0    0  501  502  0.00000000000E+00  0.00000000000E+00  0.32005725720E+02  0.32005725720E+02  0.00000000000E+00 0. -1.
         21   -1    0    0  502  503 -0.00000000000E+00 -0.00000000000E+00 -0.18400617210E+02  0.18400617210E+02  0.00000000000E+00 0. -1.
          3    1    1    2  501    0 -0.19051672979E+02 -0.14870928546E+02  0.45238187663E+01  0.24588121021E+02  0.00000000000E+00 0.  1.
         -3    1    1    2    0  503  0.19051672979E+02  0.14870928546E+02  0.90812897438E+01  0.25818221909E+02  0.00000000000E+00 0. -1.
<mgrwt>
<rscale>  2 0.24168383E+02</rscale>
<asrwt>0</asrwt>
<pdfrwt beam="1">  1       21 0.49239578E-02 0.24168383E+02</pdfrwt>
<pdfrwt beam="2">  1       21 0.28308642E-02 0.24168383E+02</pdfrwt>
<totfact> 0.13045069E+08</totfact>
</mgrwt>
</event>
<event>
 4    1  0.7478314E+004  0.9462624E+02  0.7546771E-02  0.1292020E+00
         21   -1    0    0  503  502  0.00000000000E+00  0.00000000000E+00  0.15138185326E+02  0.15138185326E+02  0.00000000000E+00 0.  1.
         21   -1    0    0  501  503 -0.00000000000E+00 -0.00000000000E+00 -0.59236538605E+03  0.59236538605E+03  0.00000000000E+00 0.  1.
          1    1    1    2  501    0  0.91796201488E+02  0.22969164553E+02 -0.30027281201E+03  0.31482993308E+03  0.00000000000E+00 0. -1.
         -1    1    1    2    0  502 -0.91796201488E+02 -0.22969164553E+02 -0.27695438871E+03  0.29267363830E+03  0.00000000000E+00 0.  1.
<mgrwt>
<rscale>  2 0.94626239E+02</rscale>
<asrwt>0</asrwt>
<pdfrwt beam="1">  1       21 0.23289516E-02 0.94626239E+02</pdfrwt>
<pdfrwt beam="2">  1       21 0.91133137E-01 0.94626239E+02</pdfrwt>
<totfact> 0.98370605E+05</totfact>
</mgrwt>
</event>
<event>
 4    1  0.7478314E+004  0.2068599E+02  0.7546771E-02  0.1732021E+00
         21   -1    0    0  503  502  0.00000000000E+00  0.00000000000E+00  0.91564197237E+03  0.91564197237E+03  0.00000000000E+00 0.  1.
         21   -1    0    0  501  503 -0.00000000000E+00 -0.00000000000E+00 -0.63268579676E+00  0.63268579676E+00  0.00000000000E+00 0.  1.
          5    1    1    2  501    0 -0.81758003701E+01 -0.19001744899E+02  0.69171546806E+03  0.69202470965E+03  0.00000000000E+00 0.  1.
         -5    1    1    2    0  502  0.81758003701E+01  0.19001744899E+02  0.22329381852E+03  0.22424994852E+03  0.00000000000E+00 0. -1.
<mgrwt>
<rscale>  2 0.20685986E+02</rscale>
<asrwt>0</asrwt>
<pdfrwt beam="1">  1       21 0.14086694E+00 0.20685986E+02</pdfrwt>
<pdfrwt beam="2">  1       21 0.97337009E-04 0.20685986E+02</pdfrwt>
<totfact> 0.37260420E+07</totfact>
</mgrwt>
</event>
<event>
 4    1  0.7478314E+004  0.2573622E+02  0.7546771E-02  0.1650647E+00
         21   -1    0    0  503  502  0.00000000000E+00  0.00000000000E+00  0.81093276932E+01  0.81093276932E+01  0.00000000000E+00 0. -1.
         21   -1    0    0  501  503 -0.00000000000E+00 -0.00000000000E+00 -0.11315627496E+03  0.11315627496E+03  0.00000000000E+00 0. -1.
          4    1    1    2  501    0  0.59357467876E+01 -0.25042357915E+02 -0.20543762995E+02  0.32930213754E+02  0.00000000000E+00 0. -1.
         -4    1    1    2    0  502 -0.59357467876E+01  0.25042357915E+02 -0.84503184268E+02  0.88335388895E+02  0.00000000000E+00 0.  1.
<mgrwt>
<rscale>  2 0.25736215E+02</rscale>
<asrwt>0</asrwt>
<pdfrwt beam="1">  1       21 0.12475890E-02 0.25736215E+02</pdfrwt>
<pdfrwt beam="2">  1       21 0.17408656E-01 0.25736215E+02</pdfrwt>
<totfact> 0.57730722E+07</totfact>
</mgrwt>
</event>
<event>
 4    1  0.7478314E+004  0.2109726E+02  0.7546771E-02  0.1724349E+00
         21   -1    0    0  501  502  0.00000000000E+00  0.00000000000E+00  0.64598966780E+02  0.64598966780E+02  0.00000000000E+00 0. -1.
         21   -1    0    0  502  503 -0.00000000000E+00 -0.00000000000E+00 -0.73071340074E+01  0.73071340074E+01  0.00000000000E+00 0. -1.
          4    1    1    2  501    0  0.17899787401E+02  0.11166558962E+02  0.20056984059E+02  0.29109741284E+02  0.00000000000E+00 0. -1.
         -4    1    1    2    0  503 -0.17899787401E+02 -0.11166558962E+02  0.37234848714E+02  0.42796359504E+02  0.00000000000E+00 0.  1.
<mgrwt>
<rscale>  2 0.21097261E+02</rscale>
<asrwt>0</asrwt>
<pdfrwt beam="1">  1       21 0.99383022E-02 0.21097261E+02</pdfrwt>
<pdfrwt beam="2">  1       21 0.11241745E-02 0.21097261E+02</pdfrwt>
<totfact> 0.16469168E+08</totfact>
</mgrwt>
</event>
<event>
 4    1  0.7478314E+004  0.3001118E+02  0.7546771E-02  0.1597965E+00
         21   -1    0    0  503  502  0.00000000000E+00  0.00000000000E+00  0.19731237720E+01  0.19731237720E+01  0.00000000000E+00 0. -1.
         21   -1    0    0  501  503 -0.00000000000E+00 -0.00000000000E+00 -0.45686155608E+03  0.45686155608E+03  0.00000000000E+00 0. -1.
          5    1    1    2  501    0  0.23932389042E+02 -0.18108338899E+02 -0.22072518596E+03  0.22275609733E+03  0.00000000000E+00 0. -1.
         -5    1    1    2    0  502 -0.23932389042E+02  0.18108338899E+02 -0.23416324634E+03  0.23607858251E+03  0.00000000000E+00 0.  1.
<mgrwt>
<rscale>  2 0.30011184E+02</rscale>
<asrwt>0</asrwt>
<pdfrwt beam="1">  1       21 0.30355764E-03 0.30011184E+02</pdfrwt>
<pdfrwt beam="2">  1       21 0.70286362E-01 0.30011184E+02</pdfrwt>
<totfact> 0.35725524E+07</totfact>
</mgrwt>
</event>
<event>
 4    1  0.7478314E+004  0.2734806E+02  0.7546771E-02  0.1629399E+00
         21   -1    0    0  503  502  0.00000000000E+00  0.00000000000E+00  0.77770391439E+01  0.77770391439E+01  0.00000000000E+00 0.  1.
         21   -1    0    0  501  503 -0.00000000000E+00 -0.00000000000E+00 -0.10873937456E+03  0.10873937456E+03  0.00000000000E+00 0.  1.
          4    1    1    2  501    0 -0.74063764881E+01  0.26326067273E+02 -0.30673919731E+02  0.41095079783E+02  0.00000000000E+00 0. -1.
         -4    1    1    2    0  502  0.74063764881E+01 -0.26326067273E+02 -0.70288415683E+02  0.75421333918E+02  0.00000000000E+00 0.  1.
<mgrwt>
<rscale>  2 0.27348057E+02</rscale>
<asrwt>0</asrwt>
<pdfrwt beam="1">  1       21 0.11964676E-02 0.27348057E+02</pdfrwt>
<pdfrwt beam="2">  1       21 0.16729135E-01 0.27348057E+02</pdfrwt>
<totfact> 0.66867342E+07</totfact>
</mgrwt>
</event>
<event>
 4    1  0.7478314E+004  0.7702448E+02  0.7546771E-02  0.1337714E+00
         21   -1    0    0  501  502  0.00000000000E+00  0.00000000000E+00  0.24594240944E+02  0.24594240944E+02  0.00000000000E+00 0.  1.
         21   -1    0    0  502  503 -0.00000000000E+00 -0.00000000000E+00 -0.34504752112E+03  0.34504752112E+03  0.00000000000E+00 0.  1.
          1    1    1    2  501    0 -0.66601171495E+02  0.38691783558E+02 -0.58845938659E+02  0.96930978826E+02  0.00000000000E+00 0.  1.
         -1    1    1    2    0  503  0.66601171495E+02 -0.38691783558E+02 -0.26160734152E+03  0.27271078324E+03  0.00000000000E+00 0. -1.
<mgrwt>
<rscale>  2 0.77024478E+02</rscale>
<asrwt>0</asrwt>
<pdfrwt beam="1">  1       21 0.37837297E-02 0.77024478E+02</pdfrwt>
<pdfrwt beam="2">  1       21 0.53084230E-01 0.77024478E+02</pdfrwt>
<totfact> 0.14276527E+06</totfact>
</mgrwt>
</event>
<event>
 4    1  0.7478314E+004  0.2633796E+02  0.7546771E-02  0.1642496E+00
         21   -1    0    0  501  502  0.00000000000E+00  0.00000000000E+00  0.39334491470E+02  0.39334491470E+02  0.00000000000E+00 0.  1.
         21   -1    0    0  502  503 -0.00000000000E+00 -0.00000000000E+00 -0.17838297230E+02  0.17838297230E+02  0.00000000000E+00 0.  1.
          2    1    1    2  501    0 -0.11231482029E+02 -0.23823134084E+02  0.77009624104E+01  0.27440712968E+02  0.00000000000E+00 0.  1.
         -2    1    1    2    0  503  0.11231482029E+02  0.23823134084E+02  0.13795231830E+02  0.29732075733E+02  0.00000000000E+00 0. -1.
<mgrwt>
<rscale>  2 0.26337956E+02</rscale>
<asrwt>0</asrwt>
<pdfrwt beam="1">  1       21 0.60514602E-02 0.26337956E+02</pdfrwt>
<pdfrwt beam="2">  1       21 0.27443534E-02 0.26337956E+02</pdfrwt>
<totfact> 0.10068157E+08</totfact>
</mgrwt>
</event>
<event>
 4    1  0.7478314E+004  0.2274747E+02  0.7546771E-02  0.1695636E+00
         21   -1    0    0  503  502  0.00000000000E+00  0.00000000000E+00  0.37826235838E+03  0.37826235838E+03  0.00000000000E+00 0.  1.
         21   -1    0    0  501  503 -0.00000000000E+00 -0.00000000000E+00 -0.14434546593E+01  0.14434546593E+01  0.00000000000E+00 0.  1.
          2    1    1    2  501    0  0.57687500485E+01  0.22003841865E+02  0.23182803335E+03  0.23294137584E+03  0.00000000000E+00 0.  1.
         -2    1    1    2    0  502 -0.57687500485E+01 -0.22003841865E+02  0.14499087037E+03  0.14676443719E+03  0.00000000000E+00 0. -1.
<mgrwt>
<rscale>  2 0.22747473E+02</rscale>
<asrwt>0</asrwt>
<pdfrwt beam="1">  1       21 0.58194130E-01 0.22747473E+02</pdfrwt>
<pdfrwt beam="2">  1       21 0.22207025E-03 0.22747473E+02</pdfrwt>
<totfact> 0.77902210E+07</totfact>
</mgrwt>
</event>
<event>
 4    1  0.7478314E+004  0.3643112E+02  0.7546771E-02  0.1536247E+00
         21   -1    0    0  503  502  0.00000000000E+00  0.00000000000E+00  0.23096633358E+03  0.23096633358E+03  0.00000000000E+00 0. -1.
         21   -1    0    0  501  503 -0.00000000000E+00 -0.00000000000E+00 -0.63139192650E+01  0.63139192650E+01  0.00000000000E+00 0. -1.
          2    1    1    2  501    0  0.35818415312E+02 -0.66534091773E+01  0.14789502471E+03  0.15231600397E+03  0.00000000000E+00 0. -1.
         -2    1    1    2    0  502 -0.35818415312E+02  0.66534091773E+01  0.76757389599E+02  0.84964248877E+02  0.00000000000E+00 0.  1.
<mgrwt>
<rscale>  2 0.36431123E+02</rscale>
<asrwt>0</asrwt>
<pdfrwt beam="1">  1       21 0.35533275E-01 0.36431123E+02</pdfrwt>
<pdfrwt beam="2">  1       21 0.97137238E-03 0.36431123E+02</pdfrwt>
<totfact> 0.24984274E+07</totfact>
</mgrwt>
</event>
<event>
 4    1  0.7478314E+004  0.2192525E+02  0.7546771E-02  0.1709548E+00
         21   -1    0    0  501  502  0.00000000000E+00  0.00000000000E+00  0.50816361197E+01  0.50816361197E+01  0.00000000000E+00 0. -1.
         21   -1    0    0  502  503 -0.00000000000E+00 -0.00000000000E+00 -0.13084570953E+03  0.13084570953E+03  0.00000000000E+00 0. -1.
          1    1    1    2  501    0 -0.11166488059E+02  0.18868649960E+02 -0.98653187322E+02  0.10106021856E+03  0.00000000000E+00 0.  1.
         -1    1    1    2    0  503  0.11166488059E+02 -0.18868649960E+02 -0.27110886087E+02  0.34867127087E+02  0.00000000000E+00 0. -1.
<mgrwt>
<rscale>  2 0.21925246E+02</rscale>
<asrwt>0</asrwt>
<pdfrwt beam="1">  1       21 0.78179019E-03 0.21925246E+02</pdfrwt>
<pdfrwt beam="2">  1       21 0.20130109E-01 0.21925246E+02</pdfrwt>
<totfact> 0.86891852E+07</totfact>
</mgrwt>
</event>
<event>
 4    1  0.7478314E+004  0.2485046E+02  0.7546771E-02  0.1663159E+00
         21   -1    0    0  503  502  0.00000000000E+00  0.00000000000E+00  0.62788983472E+03  0.62788983472E+03  0.00000000000E+00 0. -1.
         21   -1    0    0  501  503 -0.00000000000E+00 -0.00000000000E+00 -0.10394918465E+01  0.10394918465E+01  0.00000000000E+00 0. -1.
          2    1    1    2  501    0  0.38587574990E+01  0.24549036828E+02  0.38639234694E+03  0.38719063908E+03  0.00000000000E+00 0.  1.
         -2    1    1    2    0  502 -0.38587574990E+01 -0.24549036828E+02  0.24045799594E+03  0.24173868749E+03  0.00000000000E+00 0. -1.
<mgrwt>
<rscale>  2 0.24850457E+02</rscale>
<asrwt>0</asrwt>
<pdfrwt beam="1">  1       21 0.96598133E-01 0.24850457E+02</pdfrwt>
<pdfrwt beam="2">  1       21 0.15992232E-03 0.24850457E+02</pdfrwt>
<totfact> 0.44515066E+07</totfact>
</mgrwt>
</event>
<event>
 4    1  0.7478314E+004  0.2253279E+02  0.7546771E-02  0.1699197E+00
         21   -1    0    0  501  502  0.00000000000E+00  0.00000000000E+00  0.17685529113E+01  0.17685529113E+01  0.00000000000E+00 0. -1.
         21   -1    0    0  502  503 -0.00000000000E+00 -0.00000000000E+00 -0.29057829710E+03  0.29057829710E+03  0.00000000000E+00 0. -1.
          2    1    1    2  501    0 -0.11646008536E+02  0.19289822914E+02 -0.12838008146E+03  0.13034251839E+03  0.00000000000E+00 0. -1.
         -2    1    1    2    0  503  0.11646008536E+02 -0.19289822914E+02 -0.16042966272E+03  0.16200433162E+03  0.00000000000E+00 0.  1.
<mgrwt>
<rscale>  2 0.22532793E+02</rscale>
<asrwt>0</asrwt>
<pdfrwt beam="1">  1       21 0.27208497E-03 0.22532793E+02</pdfrwt>
<pdfrwt beam="2">  1       21 0.44704369E-01 0.22532793E+02</pdfrwt>
<totfact> 0.96775910E+07</totfact>
</mgrwt>
</event>
<event>
 4    1  0.7478314E+004  0.2379744E+02  0.7546771E-02  0.1678901E+00
         21   -1    0    0  503  502  0.00000000000E+00  0.00000000000E+00  0.11004166817E+03  0.11004166817E+03  0.00000000000E+00 0.  1.
         21   -1    0    0  501  503 -0.00000000000E+00 -0.00000000000E+00 -0.53944172905E+01  0.53944172905E+01  0.00000000000E+00 0.  1.
          1    1    1    2  501    0 -0.90284853930E+01  0.22018274938E+02  0.64699730172E+02  0.68937457627E+02  0.00000000000E+00 0. -1.
         -1    1    1    2    0  502  0.90284853930E+01 -0.22018274938E+02  0.39947520708E+02  0.46498627834E+02  0.00000000000E+00 0.  1.
<mgrwt>
<rscale>  2 0.23797436E+02</rscale>
<asrwt>0</asrwt>
<pdfrwt beam="1">  1       21 0.16929486E-01 0.23797436E+02</pdfrwt>
<pdfrwt beam="2">  1       21 0.82991043E-03 0.23797436E+02</pdfrwt>
<totfact> 0.10973818E+08</totfact>
</mgrwt>
</event>
<event>
 4    1  0.7478314E+004  0.2000537E+02  0.7546771E-02  0.1745221E+00
         21   -1    0    0  503  502  0.00000000000E+00  0.00000000000E+00  0.31573945756E+03  0.31573945756E+03  0.00000000000E+00 0.  1.
         21   -1    0    0  501  503 -0.00000000000E+00 -0.00000000000E+00 -0.12808973615E+01  0.12808973615E+01  0.00000000000E+00 0.  1.
          1    1    1    2  501    0  0.16701217764E+02 -0.11012916355E+02  0.17341104670E+03  0.17456118159E+03  0.00000000000E+00 0.  1.
         -1    1    1    2    0  502 -0.16701217764E+02  0.11012916355E+02  0.14104751350E+03  0.14245917333E+03  0.00000000000E+00 0. -1.
<mgrwt>
<rscale>  2 0.20005374E+02</rscale>
<asrwt>0</asrwt>
<pdfrwt beam="1">  1       21 0.48575239E-01 0.20005374E+02</pdfrwt>
<pdfrwt beam="2">  1       21 0.19706138E-03 0.20005374E+02</pdfrwt>
<totfact> 0.12732489E+08</totfact>
</mgrwt>
</event>
<event>
 4    1  0.7478314E+004  0.2181280E+02  0.7546771E-02  0.1711510E+00
         21   -1    0    0  501  502  0.00000000000E+00  0.00000000000E+00  0.19431501824E+01  0.19431501824E+01  0.00000000000E+00 0. -1.
         21   -1    0    0  502  503 -0.00000000000E+00 -0.00000000000E+00 -0.25876095252E+03  0.25876095252E+03  0.00000000000E+00 0. -1.
          5    1    1    2  501    0 -0.48258339743E+01  0.21272269808E+02 -0.98195210346E+02  0.10058875420E+03  0.00000000000E+00 0.  1.
         -5    1    1    2    0  503  0.48258339743E+01 -0.21272269808E+02 -0.15862259199E+03  0.16011534850E+03  0.00000000000E+00 0. -1.
<mgrwt>
<rscale>  2 0.21812798E+02</rscale>
<asrwt>0</asrwt>
<pdfrwt beam="1">  1       21 0.29894602E-03 0.21812798E+02</pdfrwt>
<pdfrwt beam="2">  1       21 0.39809399E-01 0.21812798E+02</pdfrwt>
<totfact> 0.10423560E+08</totfact>
</mgrwt>
</event>
<event>
 4    1  0.7478314E+004  0.3567661E+02  0.7546771E-02  0.1542673E+00
         21   -1    0    0  503  502  0.00000000000E+00  0.00000000000E+00  0.17771570545E+03  0.17771570545E+03  0.00000000000E+00 0.  1.
         21   -1    0    0  501  503 -0.00000000000E+00 -0.00000000000E+00 -0.78705627317E+01  0.78705627317E+01  0.00000000000E+00 0.  1.
          4    1    1    2  501    0  0.26391853594E+02  0.24006052051E+02  0.57082740222E+02  0.67314632157E+02  0.00000000000E+00 0.  1.
         -4    1    1    2    0  502 -0.26391853594E+02 -0.24006052051E+02  0.11276240250E+03  0.11827163602E+03  0.00000000000E+00 0. -1.
<mgrwt>
<rscale>  2 0.35676610E+02</rscale>
<asrwt>0</asrwt>
<pdfrwt beam="1">  1       21 0.27340875E-01 0.35676610E+02</pdfrwt>
<pdfrwt beam="2">  1       21 0.12108559E-02 0.35676610E+02</pdfrwt>
<totfact> 0.28954961E+07</totfact>
</mgrwt>
</event>
<event>
 4    1  0.7478314E+004  0.2239725E+02  0.7546771E-02  0.1701471E+00
         21   -1    0    0  503  502  0.00000000000E+00  0.00000000000E+00  0.13748870392E+02  0.13748870392E+02  0.00000000000E+00 0.  1.
         21   -1    0    0  501  503 -0.00000000000E+00 -0.00000000000E+00 -0.36559716241E+02  0.36559716241E+02  0.00000000000E+00 0.  1.
          1    1    1    2  501    0  0.18829197326E+02  0.12128393231E+02 -0.12537549534E+02  0.25667620509E+02  0.00000000000E+00 0.  1.
         -1    1    1    2    0  502 -0.18829197326E+02 -0.12128393231E+02 -0.10273296315E+02  0.24640966123E+02  0.00000000000E+00 0. -1.
<mgrwt>
<rscale>  2 0.22397245E+02</rscale>
<asrwt>0</asrwt>
<pdfrwt beam="1">  1       21 0.21152109E-02 0.22397245E+02</pdfrwt>
<pdfrwt beam="2">  1       21 0.56245717E-02 0.22397245E+02</pdfrwt>
<totfact> 0.16176745E+08</totfact>
</mgrwt>
</event>
<event>
 4    1  0.7478314E+004  0.2548041E+02  0.7546771E-02  0.1654196E+00
         21   -1    0    0  501  502  0.00000000000E+00  0.00000000000E+00  0.21151419916E+02  0.21151419916E+02  0.00000000000E+00 0.  1.
         21   -1    0    0  502  503 -0.00000000000E+00 -0.00000000000E+00 -0.30706420578E+02  0.30706420578E+02  0.00000000000E+00 0.  1.
          1    1    1    2  501    0  0.13490576811E+02  0.21616097890E+02 -0.52686569626E+01  0.26019417689E+02  0.00000000000E+00 0. -1.
         -1    1    1    2    0  503 -0.13490576811E+02 -0.21616097890E+02 -0.42863436989E+01  0.25838422804E+02  0.00000000000E+00 0.  1.
<mgrwt>
<rscale>  2 0.25480411E+02</rscale>
<asrwt>0</asrwt>
<pdfrwt beam="1">  1       21 0.32540646E-02 0.25480411E+02</pdfrwt>
<pdfrwt beam="2">  1       21 0.47240647E-02 0.25480411E+02</pdfrwt>
<totfact> 0.11375309E+08</totfact>
</mgrwt>
</event>
<event>
 4    1  0.7478314E+004  0.3351918E+02  0.7546771E-02  0.1562158E+00
         21   -1    0    0  503  502  0.00000000000E+00  0.00000000000E+00  0.11855289253E+01  0.11855289253E+01  0.00000000000E+00 0.  1.
         21   -1    0    0  501  503 -0.00000000000E+00 -0.00000000000E+00 -0.11707031914E+04  0.11707031914E+04  0.00000000000E+00 0.  1.
          1    1    1    2  501    0 -0.31930058830E+02 -0.10198382836E+02 -0.84048806606E+03  0.84115618340E+03  0.00000000000E+00 0.  1.
         -1    1    1    2    0  502  0.31930058830E+02  0.10198382836E+02 -0.32902959636E+03  0.33073253688E+03  0.00000000000E+00 0. -1.
<mgrwt>
<rscale>  2 0.33519184E+02</rscale>
<asrwt>0</asrwt>
<pdfrwt beam="1">  1       21 0.18238781E-03 0.33519184E+02</pdfrwt>
<pdfrwt beam="2">  1       21 0.18010942E+00 0.33519184E+02</pdfrwt>
<totfact> 0.89219141E+06</totfact>
</mgrwt>
</event>
<event>
 4    1  0.7478314E+004  0.2324473E+02  0.7546771E-02  0.1687574E+00
         21   -1    0    0  503  502  0.00000000000E+00  0.00000000000E+00  0.56842828682E+02  0.56842828682E+02  0.00000000000E+00 0. -1.
         21   -1    0    0  501  503 -0.00000000000E+00 -0.00000000000E+00 -0.11191522357E+02  0.11191522357E+02  0.00000000000E+00 0. -1.
          5    1    1    2  501    0 -0.12327942772E+02 -0.19706326326E+02  0.96221264268E+01  0.25157559246E+02  0.00000000000E+00 0.  1.
         -5    1    1    2    0  502  0.12327942772E+02  0.19706326326E+02  0.36029179898E+02  0.42876791792E+02  0.00000000000E+00 0. -1.
<mgrwt>
<rscale>  2 0.23244730E+02</rscale>
<asrwt>0</asrwt>
<pdfrwt beam="1">  1       21 0.87450504E-02 0.23244730E+02</pdfrwt>
<pdfrwt beam="2">  1       21 0.17217727E-02 0.23244730E+02</pdfrwt>
<totfact> 0.10969421E+08</totfact>
</mgrwt>
</event>
<event>
 4    1  0.7478314E+004  0.2249801E+02  0.7546771E-02  0.1699779E+00
         21   -1    0    0  503  502  0.00000000000E+00  0.00000000000E+00  0.61531964558E+01  0.61531964558E+01  0.00000000000E+00 0. -1.
         21   -1    0    0  501  503 -0.00000000000E+00 -0.00000000000E+00 -0.86505779681E+02  0.86505779681E+02  0.00000000000E+00 0. -1.
          4    1    1    2  501    0  0.13868147592E+02 -0.17715393259E+02 -0.50440469643E+02  0.55230441369E+02  0.00000000000E+00 0. -1.
         -4    1    1    2    0  502 -0.13868147592E+02  0.17715393259E+02 -0.29912113582E+02  0.37428534768E+02  0.00000000000E+00 0.  1.
<mgrwt>
<rscale>  2 0.22498015E+02</rscale>
<asrwt>0</asrwt>
<pdfrwt beam="1">  1       21 0.94664564E-03 0.22498015E+02</pdfrwt>
<pdfrwt beam="2">  1       21 0.13308581E-01 0.22498015E+02</pdfrwt>
<totfact> 0.13360092E+08</totfact>
</mgrwt>
</event>
<event>
 4    1  0.7478314E+004  0.2474160E+02  0.7546771E-02  0.1664741E+00
         21   -1    0    0  501  502  0.00000000000E+00  0.00000000000E+00  0.85678854211E+01  0.85678854211E+01  0.00000000000E+00 0.  1.
         21   -1    0    0  502  503 -0.00000000000E+00 -0.00000000000E+00 -0.75491133221E+02  0.75491133221E+02  0.00000000000E+00 0.  1.
          5    1    1    2  501    0  0.59287476777E+01 -0.24020753442E+02 -0.43189953580E+02  0.49774679660E+02  0.00000000000E+00 0.  1.
         -5    1    1    2    0  503 -0.59287476777E+01  0.24020753442E+02 -0.23733294220E+02  0.34284338982E+02  0.00000000000E+00 0. -1.
<mgrwt>
<rscale>  2 0.24741597E+02</rscale>
<asrwt>0</asrwt>
<pdfrwt beam="1">  1       21 0.13181363E-02 0.24741597E+02</pdfrwt>
<pdfrwt beam="2">  1       21 0.11614020E-01 0.24741597E+02</pdfrwt>
<totfact> 0.10474878E+08</totfact>
</mgrwt>
</event>
<event>
 4    1  0.7478314E+004  0.8915694E+02  0.7546771E-02  0.1304906E+00
         21   -1    0    0  503  502  0.00000000000E+00  0.00000000000E+00  0.91426886739E+02  0.91426886739E+02  0.00000000000E+00 0.  1.
         21   -1    0    0  501  503 -0.00000000000E+00 -0.00000000000E+00 -0.89750566334E+02  0.89750566334E+02  0.00000000000E+00 0.  1.
          3    1    1    2  501    0 -0.73514692090E+02 -0.50443535637E+02  0.16859289860E+02  0.90736959918E+02  0.00000000000E+00 0. -1.
         -3    1    1    2    0  502  0.73514692090E+02  0.50443535637E+02 -0.15182969456E+02  0.90440493155E+02  0.00000000000E+00 0.  1.
<mgrwt>
<rscale>  2 0.89156942E+02</rscale>
<asrwt>0</asrwt>
<pdfrwt beam="1">  1       21 0.14065675E-01 0.89156942E+02</pdfrwt>
<pdfrwt beam="2">  1       21 0.13807779E-01 0.89156942E+02</pdfrwt>
<totfact> 0.19738481E+06</totfact>
</mgrwt>
</event>
<event>
 4    1  0.7478314E+004  0.2498477E+02  0.7546771E-02  0.1661221E+00
         21   -1    0    0  501  502  0.00000000000E+00  0.00000000000E+00  0.40924519231E+01  0.40924519231E+01  0.00000000000E+00 0. -1.
         21   -1    0    0  502  503 -0.00000000000E+00 -0.00000000000E+00 -0.15606684628E+03  0.15606684628E+03  0.00000000000E+00 0. -1.
          4    1    1    2  501    0 -0.10703940241E+02 -0.22575745588E+02 -0.88035357426E+02  0.91512090909E+02  0.00000000000E+00 0. -1.
         -4    1    1    2    0  503  0.10703940241E+02  0.22575745588E+02 -0.63939036929E+02  0.68647207292E+02  0.00000000000E+00 0.  1.
<mgrwt>
<rscale>  2 0.24984768E+02</rscale>
<asrwt>0</asrwt>
<pdfrwt beam="1">  1       21 0.62960799E-03 0.24984768E+02</pdfrwt>
<pdfrwt beam="2">  1       21 0.24010284E-01 0.24984768E+02</pdfrwt>
<totfact> 0.91036518E+07</totfact>
</mgrwt>
</event>
<event>
 4    1  0.7478314E+004  0.2075769E+02  0.7546771E-02  0.1730667E+00
         21   -1    0    0  501  502  0.00000000000E+00  0.00000000000E+00  0.17118078837E+01  0.17118078837E+01  0.00000000000E+00 0.  1.
         21   -1    0    0  502  503 -0.00000000000E+00 -0.00000000000E+00 -0.27154220726E+03  0.27154220726E+03  0.00000000000E+00 0.  1.
          2    1    1    2  501    0 -0.20720668643E+02  0.12392596414E+01 -0.17183727206E+03  0.17308648111E+03  0.00000000000E+00 0. -1.
         -2    1    1    2    0  503  0.20720668643E+02 -0.12392596414E+01 -0.97993127316E+02  0.10016753403E+03  0.00000000000E+00 0.  1.
<mgrwt>
<rscale>  2 0.20757694E+02</rscale>
<asrwt>0</asrwt>
<pdfrwt beam="1">  1       21 0.26335514E-03 0.20757694E+02</pdfrwt>
<pdfrwt beam="2">  1       21 0.41775711E-01 0.20757694E+02</pdfrwt>
<totfact> 0.11287160E+08</totfact>
</mgrwt>
</event>
<event>
 4    1  0.7478314E+004  0.2331610E+02  0.7546771E-02  0.1686437E+00
         21   -1    0    0  501  502  0.00000000000E+00  0.00000000000E+00  0.47161990376E+02  0.47161990376E+02  0.00000000000E+00 0. -1.
         21   -1    0    0  502  503 -0.00000000000E+00 -0.00000000000E+00 -0.12044111857E+02  0.12044111857E+02  0.00000000000E+00 0. -1.
          3    1    1    2  501    0  0.13869000008E+02 -0.18742763978E+02  0.23692389226E+02  0.33241084068E+02  0.00000000000E+00 0.  1.
         -3    1    1    2    0  503 -0.13869000008E+02  0.18742763978E+02  0.11425489293E+02  0.25965018165E+02  0.00000000000E+00 0. -1.
<mgrwt>
<rscale>  2 0.23316097E+02</rscale>
<asrwt>0</asrwt>
<pdfrwt beam="1">  1       21 0.72556907E-02 0.23316097E+02</pdfrwt>
<pdfrwt beam="2">  1       21 0.18529403E-02 0.23316097E+02</pdfrwt>
<totfact> 0.13309149E+08</totfact>
</mgrwt>
</event>
<event>
 4    1  0.7478314E+004  0.2022240E+02  0.7546771E-02  0.1740941E+00
         21   -1    0    0  503  502  0.00000000000E+00  0.00000000000E+00  0.48911089931E+02  0.48911089931E+02  0.00000000000E+00 0.  1.
         21   -1    0    0  501  503 -0.00000000000E+00 -0.00000000000E+00 -0.10626015456E+02  0.10626015456E+02  0.00000000000E+00 0.  1.
          3    1    1    2  501    0  0.18654371106E+02 -0.78076742626E+01  0.32886394645E+02  0.38606479916E+02  0.00000000000E+00 0. -1.
         -3    1    1    2    0  502 -0.18654371106E+02  0.78076742626E+01  0.53986798305E+01  0.20930625472E+02  0.00000000000E+00 0.  1.
<mgrwt>
<rscale>  2 0.20222397E+02</rscale>
<asrwt>0</asrwt>
<pdfrwt beam="1">  1       21 0.75247829E-02 0.20222397E+02</pdfrwt>
<pdfrwt beam="2">  1       21 0.16347716E-02 0.20222397E+02</pdfrwt>
<totfact> 0.14544401E+08</totfact>
</mgrwt>
</event>
<event>
 4    1  0.7478314E+004  0.2020454E+02  0.7546771E-02  0.1741291E+00
         21   -1    0    0  501  502  0.00000000000E+00  0.00000000000E+00  0.21136793447E+01  0.21136793447E+01  0.00000000000E+00 0. -1.
         21   -1    0    0  502  503 -0.00000000000E+00 -0.00000000000E+00 -0.29251375742E+03  0.29251375742E+03  0.00000000000E+00 0. -1.
          4    1    1    2  501    0  0.97349813553E+01 -0.17704621575E+02 -0.59334507163E+02  0.62680198048E+02  0.00000000000E+00 0. -1.
         -4    1    1    2    0  503 -0.97349813553E+01  0.17704621575E+02 -0.23106557091E+03  0.23194723871E+03  0.00000000000E+00 0.  1.
<mgrwt>
<rscale>  2 0.20204541E+02</rscale>
<asrwt>0</asrwt>
<pdfrwt beam="1">  1       21 0.32518162E-03 0.20204541E+02</pdfrwt>
<pdfrwt beam="2">  1       21 0.45002092E-01 0.20204541E+02</pdfrwt>
<totfact> 0.71670396E+07</totfact>
</mgrwt>
</event>
<event>
 4    1  0.7478314E+004  0.2390985E+02  0.7546771E-02  0.1677173E+00
         21   -1    0    0  501  502  0.00000000000E+00  0.00000000000E+00  0.47432547716E+00  0.47432547716E+00  0.00000000000E+00 0. -1.
         21   -1    0    0  502  503 -0.00000000000E+00 -0.00000000000E+00 -0.12085371714E+04  0.12085371714E+04  0.00000000000E+00 0. -1.
          1    1    1    2  501    0  0.23907076341E+02 -0.36392041810E+00 -0.63555879278E+03  0.63600838030E+03  0.00000000000E+00 0.  1.
         -1    1    1    2    0  503 -0.23907076341E+02  0.36392041810E+00 -0.57250405313E+03  0.57300311656E+03  0.00000000000E+00 0. -1.
<mgrwt>
<rscale>  2 0.23909846E+02</rscale>
<asrwt>0</asrwt>
<pdfrwt beam="1">  1       21 0.72974646E-04 0.23909846E+02</pdfrwt>
<pdfrwt beam="2">  1       21 0.18592498E+00 0.23909846E+02</pdfrwt>
<totfact> 0.29455021E+07</totfact>
</mgrwt>
</event>
<event>
 4    1  0.7478314E+004  0.2159146E+02  0.7546771E-02  0.1715415E+00
         21   -1    0    0  501  502  0.00000000000E+00  0.00000000000E+00  0.25508188343E+01  0.25508188343E+01  0.00000000000E+00 0.  1.
         21   -1    0    0  502  503 -0.00000000000E+00 -0.00000000000E+00 -0.18734653441E+03  0.18734653441E+03  0.00000000000E+00 0.  1.
          3    1    1    2  501    0  0.13897392060E+02 -0.16524333735E+02 -0.10725188308E+03  0.10940364499E+03  0.00000000000E+00 0.  1.
         -3    1    1    2    0  503 -0.13897392060E+02  0.16524333735E+02 -0.77543832497E+02  0.80493708262E+02  0.00000000000E+00 0. -1.
<mgrwt>
<rscale>  2 0.21591459E+02</rscale>
<asrwt>0</asrwt>
<pdfrwt beam="1">  1       21 0.39243363E-03 0.21591459E+02</pdfrwt>
<pdfrwt beam="2">  1       21 0.28822546E-01 0.21591459E+02</pdfrwt>
<totfact> 0.12664369E+08</totfact>
</mgrwt>
</event>
<event>
 4    1  0.7478314E+004  0.2202132E+02  0.7546771E-02  0.1707884E+00
         21   -1    0    0  501  502  0.00000000000E+00  0.00000000000E+00  0.75806052767E+00  0.75806052767E+00  0.00000000000E+00 0.  1.
         21   -1    0    0  502  503 -0.00000000000E+00 -0.00000000000E+00 -0.72458964426E+03  0.72458964426E+03  0.00000000000E+00 0.  1.
          3    1    1    2  501    0  0.18404799597E+02 -0.12091388918E+02 -0.23778661672E+03  0.23880413192E+03  0.00000000000E+00 0. -1.
         -3    1    1    2    0  503 -0.18404799597E+02  0.12091388918E+02 -0.48604496701E+03  0.48654357286E+03  0.00000000000E+00 0.  1.
<mgrwt>
<rscale>  2 0.22021315E+02</rscale>
<asrwt>0</asrwt>
<pdfrwt beam="1">  1       21 0.11662419E-03 0.22021315E+02</pdfrwt>
<pdfrwt beam="2">  1       21 0.11147582E+00 0.22021315E+02</pdfrwt>
<totfact> 0.49729537E+07</totfact>
</mgrwt>
</event>
<event>
 4    1  0.7478314E+004  0.3388127E+02  0.7546771E-02  0.1558766E+00
         21   -1    0    0  501  502  0.00000000000E+00  0.00000000000E+00  0.18661575933E+04  0.18661575933E+04  0.00000000000E+00 0. -1.
         21   -1    0    0  502  503 -0.00000000000E+00 -0.00000000000E+00 -0.62870879262E+00  0.62870879262E+00  0.00000000000E+00 0. -1.
          4    1    1    2  501    0 -0.20623941328E+02 -0.26881099548E+02  0.79562051551E+03  0.79634160080E+03  0.00000000000E+00 0. -1.
         -4    1    1    2    0  503  0.20623941328E+02  0.26881099548E+02  0.10699083690E+04  0.10704447013E+04  0.00000000000E+00 0.  1.
<mgrwt>
<rscale>  2 0.33881270E+02</rscale>
<asrwt>0</asrwt>
<pdfrwt beam="1">  1       21 0.28709673E+00 0.33881270E+02</pdfrwt>
<pdfrwt beam="2">  1       21 0.96725924E-04 0.33881270E+02</pdfrwt>
<totfact> 0.59098736E+06</totfact>
</mgrwt>
</event>
<event>
 4    1  0.7478314E+004  0.2036914E+02  0.7546771E-02  0.1738085E+00
         21   -1    0    0  501  502  0.00000000000E+00  0.00000000000E+00  0.98189163866E+01  0.98189163866E+01  0.00000000000E+00 0.  1.
         21   -1    0    0  502  503 -0.00000000000E+00 -0.00000000000E+00 -0.64648819977E+02  0.64648819977E+02  0.00000000000E+00 0.  1.
          5    1    1    2  501    0  0.11161173654E+02 -0.17039069003E+02 -0.49328799089E+02  0.53368830692E+02  0.00000000000E+00 0. -1.
         -5    1    1    2    0  503 -0.11161173654E+02  0.17039069003E+02 -0.55011045020E+01  0.21098905672E+02  0.00000000000E+00 0.  1.
<mgrwt>
<rscale>  2 0.20369135E+02</rscale>
<asrwt>0</asrwt>
<pdfrwt beam="1">  1       21 0.15106025E-02 0.20369135E+02</pdfrwt>
<pdfrwt beam="2">  1       21 0.99459722E-02 0.20369135E+02</pdfrwt>
<totfact> 0.10424413E+08</totfact>
</mgrwt>
</event>
<event>
 4    1  0.7478314E+004  0.2165378E+02  0.7546771E-02  0.1714309E+00
         21   -1    0    0  503  502  0.00000000000E+00  0.00000000000E+00  0.28647870155E+01  0.28647870155E+01  0.00000000000E+00 0.  1.
         21   -1    0    0  501  503 -0.00000000000E+00 -0.00000000000E+00 -0.21886762555E+03  0.21886762555E+03  0.00000000000E+00 0.  1.
          1    1    1    2  501    0  0.16755477402E+02 -0.13716427176E+02 -0.52326523633E+02  0.56629952083E+02  0.00000000000E+00 0. -1.
         -1    1    1    2    0  502 -0.16755477402E+02  0.13716427176E+02 -0.16367631490E+03  0.16510246048E+03  0.00000000000E+00 0.  1.
<mgrwt>
<rscale>  2 0.21653785E+02</rscale>
<asrwt>0</asrwt>
<pdfrwt beam="1">  1       21 0.44073640E-03 0.21653785E+02</pdfrwt>
<pdfrwt beam="2">  1       21 0.33671948E-01 0.21653785E+02</pdfrwt>
<totfact> 0.80540148E+07</totfact>
</mgrwt>
</event>
<event>
 4    1  0.7478314E+004  0.2000390E+02  0.7546771E-02  0.1745251E+00
         21   -1    0    0  501  502  0.00000000000E+00  0.00000000000E+00  0.69088759400E+02  0.69088759400E+02  0.00000000000E+00 0.  1.
         21   -1    0    0  502  503 -0.00000000000E+00 -0.00000000000E+00 -0.58336340854E+01  0.58336340854E+01  0.00000000000E+00 0.  1.
          1    1    1    2  501    0  0.17329493959E+02  0.99922311144E+01  0.28459506409E+02  0.34786485142E+02  0.00000000000E+00 0. -1.
         -1    1    1    2    0  503 -0.17329493959E+02 -0.99922311144E+01  0.34795618906E+02  0.40135908344E+02  0.00000000000E+00 0.  1.
<mgrwt>
<rscale>  2 0.20003901E+02</rscale>
<asrwt>0</asrwt>
<pdfrwt beam="1">  1       21 0.10629039E-01 0.20003901E+02</pdfrwt>
<pdfrwt beam="2">  1       21 0.89748222E-03 0.20003901E+02</pdfrwt>
<totfact> 0.20300819E+08</totfact>
</mgrwt>
</event>
<event>
 4    1  0.7478314E+004  0.2982468E+02  0.7546771E-02  0.1600035E+00
         21   -1    0    0  501  502  0.00000000000E+00  0.00000000000E+00  0.28731151970E+01  0.28731151970E+01  0.00000000000E+00 0.  1.
         21   -1    0    0  502  503 -0.00000000000E+00 -0.00000000000E+00 -0.30963647604E+03  0.30963647604E+03  0.00000000000E+00 0.  1.
          2    1    1    2  501    0  0.21247579073E+02  0.20929693198E+02 -0.15164740412E+03  0.15455240810E+03  0.00000000000E+00 0.  1.
         -2    1    1    2    0  503 -0.21247579073E+02 -0.20929693198E+02 -0.15511595672E+03  0.15795718313E+03  0.00000000000E+00 0. -1.
<mgrwt>
<rscale>  2 0.29824682E+02</rscale>
<asrwt>0</asrwt>
<pdfrwt beam="1">  1       21 0.44201768E-03 0.29824682E+02</pdfrwt>
<pdfrwt beam="2">  1       21 0.47636386E-01 0.29824682E+02</pdfrwt>
<totfact> 0.44794597E+07</totfact>
</mgrwt>
</event>
<event>
 4    1  0.7478314E+004  0.2604331E+02  0.7546771E-02  0.1646453E+00
         21   -1    0    0  501  502  0.00000000000E+00  0.00000000000E+00  0.20391913193E+04  0.20391913193E+04  0.00000000000E+00 0. -1.
         21   -1    0    0  502  503 -0.00000000000E+00 -0.00000000000E+00 -0.38729327167E+00  0.38729327167E+00  0.00000000000E+00 0. -1.
          2    1    1    2  501    0  0.22297991700E+02  0.13455607184E+02  0.14025979444E+04  0.14028397084E+04  0.00000000000E+00 0. -1.
         -2    1    1    2    0  503 -0.22297991700E+02 -0.13455607184E+02  0.63620608163E+03  0.63673890418E+03  0.00000000000E+00 0.  1.
<mgrwt>
<rscale>  2 0.26043306E+02</rscale>
<asrwt>0</asrwt>
<pdfrwt beam="1">  1       21 0.31371314E+00 0.26043306E+02</pdfrwt>
<pdfrwt beam="2">  1       21 0.59585213E-04 0.26043306E+02</pdfrwt>
<totfact> 0.87028546E+06</totfact>
</mgrwt>
</event>
<event>
 4    1  0.7478314E+004  0.2193248E+02  0.7546771E-02  0.1709422E+00
         21   -1    0    0  503  502  0.00000000000E+00  0.00000000000E+00  0.35181307991E+01  0.35181307991E+01  0.00000000000E+00 0.  1.
         21   -1    0    0  501  503 -0.00000000000E+00 -0.00000000000E+00 -0.18574706379E+03  0.18574706379E+03  0.00000000000E+00 0.  1.
          2    1    1    2  501    0  0.12893561726E+02  0.17742321225E+02 -0.42501336043E+02  0.47826744211E+02  0.00000000000E+00 0. -1.
         -2    1    1    2    0  502 -0.12893561726E+02 -0.17742321225E+02 -0.13972759695E+03  0.14143845038E+03  0.00000000000E+00 0.  1.
<mgrwt>
<rscale>  2 0.21932485E+02</rscale>
<asrwt>0</asrwt>
<pdfrwt beam="1">  1       21 0.54125078E-03 0.21932485E+02</pdfrwt>
<pdfrwt beam="2">  1       21 0.28576477E-01 0.21932485E+02</pdfrwt>
<totfact> 0.80543821E+07</totfact>
</mgrwt>
</event>
<event>
 4    1  0.7478314E+004  0.2125710E+02  0.7546771E-02  0.1721426E+00
         21   -1    0    0  501  502  0.00000000000E+00  0.00000000000E+00  0.66622712171E+00  0.66622712171E+00  0.00000000000E+00 0.  1.
         21   -1    0    0  502  503 -0.00000000000E+00 -0.00000000000E+00 -0.67918715870E+03  0.67918715870E+03  0.00000000000E+00 0.  1.
          1    1    1    2  501    0  0.68298657284E+01 -0.20130004600E+02 -0.35193173245E+03  0.35257312498E+03  0.00000000000E+00 0. -1.
         -1    1    1    2    0  503 -0.68298657284E+01  0.20130004600E+02 -0.32658919913E+03  0.32728026085E+03  0.00000000000E+00 0.  1.
<mgrwt>
<rscale>  2 0.21257096E+02</rscale>
<asrwt>0</asrwt>
<pdfrwt beam="1">  1       21 0.10249632E-03 0.21257096E+02</pdfrwt>
<pdfrwt beam="2">  1       21 0.10449050E+00 0.21257096E+02</pdfrwt>
<totfact> 0.68412545E+07</totfact>
</mgrwt>
</event>
<event>
 4    1  0.7478314E+004  0.2618969E+02  0.7546771E-02  0.1644479E+00
         21   -1    0    0  501  502  0.00000000000E+00  0.00000000000E+00  0.43221279701E+03  0.43221279701E+03  0.00000000000E+00 0.  1.
         21   -1    0    0  502  503 -0.00000000000E+00 -0.00000000000E+00 -0.17390218679E+01  0.17390218679E+01  0.00000000000E+00 0.  1.
          2    1    1    2  501    0  0.18981988577E+02  0.18043949579E+02  0.27939975115E+03  0.28062451951E+03  0.00000000000E+00 0. -1.
         -2    1    1    2    0  503 -0.18981988577E+02 -0.18043949579E+02  0.15107402399E+03  0.15332729937E+03  0.00000000000E+00 0.  1.
<mgrwt>
<rscale>  2 0.26189693E+02</rscale>
<asrwt>0</asrwt>
<pdfrwt beam="1">  1       21 0.66494191E-01 0.26189693E+02</pdfrwt>
<pdfrwt beam="2">  1       21 0.26754217E-03 0.26189693E+02</pdfrwt>
<totfact> 0.46906349E+07</totfact>
</mgrwt>
</event>
<event>
 4    1  0.7478314E+004  0.2413432E+02  0.7546771E-02  0.1673757E+00
         21   -1    0    0  501  502  0.00000000000E+00  0.00000000000E+00  0.27869386158E+03  0.27869386158E+03  0.00000000000E+00 0. -1.
         21   -1    0    0  502  503 -0.00000000000E+00 -0.00000000000E+00 -0.35654333622E+01  0.35654333622E+01  0.00000000000E+00 0. -1.
          2    1    1    2  501    0  0.14048972972E+02 -0.19623757601E+02  0.22835135909E+03  0.22962318851E+03  0.00000000000E+00 0.  1.
         -2    1    1    2    0  503 -0.14048972972E+02  0.19623757601E+02  0.46777069126E+02  0.52636106429E+02  0.00000000000E+00 0. -1.
<mgrwt>
<rscale>  2 0.24134322E+02</rscale>
<asrwt>0</asrwt>
<pdfrwt beam="1">  1       21 0.42875961E-01 0.24134322E+02</pdfrwt>
<pdfrwt beam="2">  1       21 0.54852843E-03 0.24134322E+02</pdfrwt>
<totfact> 0.38117303E+07</totfact>
</mgrwt>
</event>
<event>
 4    1  0.7478314E+004  0.2408173E+02  0.7546771E-02  0.1674553E+00
         21   -1    0    0  503  502  0.00000000000E+00  0.00000000000E+00  0.10274676894E+02  0.10274676894E+02  0.00000000000E+00 0.  1.
         21   -1    0    0  501  503 -0.00000000000E+00 -0.00000000000E+00 -0.66908786099E+02  0.66908786099E+02  0.00000000000E+00 0.  1.
          5    1    1    2  501    0  0.22461814433E+02  0.86831325804E+01 -0.13053838069E+02  0.27392199389E+02  0.00000000000E+00 0.  1.
         -5    1    1    2    0  502 -0.22461814433E+02 -0.86831325804E+01 -0.43580271136E+02  0.49791263604E+02  0.00000000000E+00 0. -1.
<mgrwt>
<rscale>  2 0.24081734E+02</rscale>
<asrwt>0</asrwt>
<pdfrwt beam="1">  1       21 0.15807195E-02 0.24081734E+02</pdfrwt>
<pdfrwt beam="2">  1       21 0.10293660E-01 0.24081734E+02</pdfrwt>
<totfact> 0.96456791E+07</totfact>
</mgrwt>
</event>
<event>
 4    1  0.7478314E+004  0.2557596E+02  0.7546771E-02  0.1652864E+00
         21   -1    0    0  501  502  0.00000000000E+00  0.00000000000E+00  0.89949012871E+01  0.89949012871E+01  0.00000000000E+00 0. -1.
         21   -1    0    0  502  503 -0.00000000000E+00 -0.00000000000E+00 -0.10097207235E+03  0.10097207235E+03  0.00000000000E+00 0. -1.
          3    1    1    2  501    0 -0.24254541507E+02  0.81146203280E+01 -0.16905587579E+02  0.30658257259E+02  0.00000000000E+00 0. -1.
         -3    1    1    2    0  503  0.24254541507E+02 -0.81146203280E+01 -0.75071583485E+02  0.79308716380E+02  0.00000000000E+00 0.  1.
<mgrwt>
<rscale>  2 0.25575962E+02</rscale>
<asrwt>0</asrwt>
<pdfrwt beam="1">  1       21 0.13838311E-02 0.25575962E+02</pdfrwt>
<pdfrwt beam="2">  1       21 0.15534164E-01 0.25575962E+02</pdfrwt>
<totfact> 0.59925046E+07</totfact>
</mgrwt>
</event>
<event>
 4    1  0.7478314E+004  0.2386037E+02  0.7546771E-02  0.1677932E+00
         21   -1    0    0  503  502  0.00000000000E+00  0.00000000000E+00  0.27979652808E+02  0.27979652808E+02  0.00000000000E+00 0.  1.
         21   -1    0    0  501  503 -0.00000000000E+00 -0.00000000000E+00 -0.25955061019E+02  0.25955061019E+02  0.00000000000E+00 0.  1.
          3    1    1    2  501    0  0.23813772958E+02  0.14904939366E+01 -0.11522361414E+02  0.26496833155E+02  0.00000000000E+00 0.  1.
         -3    1    1    2    0  502 -0.23813772958E+02 -0.14904939366E+01  0.13546953204E+02  0.27437880672E+02  0.00000000000E+00 0. -1.
<mgrwt>
<rscale>  2 0.23860372E+02</rscale>
<asrwt>0</asrwt>
<pdfrwt beam="1">  1       21 0.43045619E-02 0.23860372E+02</pdfrwt>
<pdfrwt beam="2">  1       21 0.39930863E-02 0.23860372E+02</pdfrwt>
<totfact> 0.93858931E+07</totfact>
</mgrwt>
</event>
<event>
 4    1  0.7478314E+004  0.2190218E+02  0.7546771E-02  0.1709949E+00
         21   -1    0    0  501  502  0.00000000000E+00  0.00000000000E+00  0.13650334598E+03  0.13650334598E+03  0.00000000000E+00 0.  1.
         21   -1    0    0  502  503 -0.00000000000E+00 -0.00000000000E+00 -0.36484069632E+01  0.36484069632E+01  0.00000000000E+00 0.  1.
          3    1    1    2  501    0 -0.20850077091E+02  0.67067010222E+01  0.52989325724E+02  0.57337371705E+02  0.00000000000E+00 0. -1.
         -3    1    1    2    0  503  0.20850077091E+02 -0.67067010222E+01  0.79865613288E+02  0.82814381234E+02  0.00000000000E+00 0.  1.
<mgrwt>
<rscale>  2 0.21902181E+02</rscale>
<asrwt>0</asrwt>
<pdfrwt beam="1">  1       21 0.21000511E-01 0.21902181E+02</pdfrwt>
<pdfrwt beam="2">  1       21 0.56129348E-03 0.21902181E+02</pdfrwt>
<totfact> 0.13187135E+08</totfact>
</mgrwt>
</event>
<event>
 4    1  0.7478314E+004  0.2666452E+02  0.7546771E-02  0.1638184E+00
         21   -1    0    0  501  502  0.00000000000E+00  0.00000000000E+00  0.13327139701E+03  0.13327139701E+03  0.00000000000E+00 0. -1.
         21   -1    0    0  502  503 -0.00000000000E+00 -0.00000000000E+00 -0.63221338705E+01  0.63221338705E+01  0.00000000000E+00 0. -1.
          3    1    1    2  501    0  0.99360750266E+01 -0.24744109596E+02  0.35894141969E+02  0.44714494007E+02  0.00000000000E+00 0.  1.
         -3    1    1    2    0  503 -0.99360750266E+01  0.24744109596E+02  0.91055121170E+02  0.94879036873E+02  0.00000000000E+00 0. -1.
<mgrwt>
<rscale>  2 0.26664518E+02</rscale>
<asrwt>0</asrwt>
<pdfrwt beam="1">  1       21 0.20503290E-01 0.26664518E+02</pdfrwt>
<pdfrwt beam="2">  1       21 0.97263608E-03 0.26664518E+02</pdfrwt>
<totfact> 0.63769958E+07</totfact>
</mgrwt>
</event>
<event>
 4    1  0.7478314E+004  0.2952241E+02  0.7546771E-02  0.1603429E+00
         21   -1    0    0  503  502  0.00000000000E+00  0.00000000000E+00  0.20479749729E+03  0.20479749729E+03  0.00000000000E+00 0.  1.
         21   -1    0    0  501  503 -0.00000000000E+00 -0.00000000000E+00 -0.51056773942E+01  0.51056773942E+01  0.00000000000E+00 0.  1.
          5    1    1    2  501    0 -0.26906537056E+02  0.12149535586E+02  0.57025999760E+02  0.64214777115E+02  0.00000000000E+00 0. -1.
         -5    1    1    2    0  502  0.26906537056E+02 -0.12149535586E+02  0.14266582013E+03  0.14568839757E+03  0.00000000000E+00 0.  1.
<mgrwt>
<rscale>  2 0.29522414E+02</rscale>
<asrwt>0</asrwt>
<pdfrwt beam="1">  1       21 0.31507301E-01 0.29522414E+02</pdfrwt>
<pdfrwt beam="2">  1       21 0.78548899E-03 0.29522414E+02</pdfrwt>
<totfact> 0.41504262E+07</totfact>
</mgrwt>
</event>
<event>
 4    1  0.7478314E+004  0.2022103E+02  0.7546771E-02  0.1740968E+00
         21   -1    0    0  503  502  0.00000000000E+00  0.00000000000E+00  0.45145783297E+01  0.45145783297E+01  0.00000000000E+00 0.  1.
         21   -1    0    0  501  503 -0.00000000000E+00 -0.00000000000E+00 -0.95902967023E+02  0.95902967023E+02  0.00000000000E+00 0.  1.
          4    1    1    2  501    0  0.12176517999E+02 -0.16143807354E+02 -0.33855461701E+02  0.39434533007E+02  0.00000000000E+00 0.  1.
         -4    1    1    2    0  502 -0.12176517999E+02  0.16143807354E+02 -0.57532926992E+02  0.60983012345E+02  0.00000000000E+00 0. -1.
<mgrwt>
<rscale>  2 0.20221031E+02</rscale>
<asrwt>0</asrwt>
<pdfrwt beam="1">  1       21 0.69455061E-03 0.20221031E+02</pdfrwt>
<pdfrwt beam="2">  1       21 0.14754301E-01 0.20221031E+02</pdfrwt>
<totfact> 0.17239083E+08</totfact>
</mgrwt>
</event>
<event>
 4    1  0.7478314E+004  0.2870785E+02  0.7546771E-02  0.1612827E+00
         21   -1    0    0  503  502  0.00000000000E+00  0.00000000000E+00  0.78028672443E+01  0.78028672443E+01  0.00000000000E+00 0. -1.
         21   -1    0    0  501  503 -0.00000000000E+00 -0.00000000000E+00 -0.10891528947E+03  0.10891528947E+03  0.00000000000E+00 0. -1.
          2    1    1    2  501    0  0.19738868116E+02 -0.20845095803E+02 -0.40405578956E+02  0.49565630676E+02  0.00000000000E+00 0. -1.
         -2    1    1    2    0  502 -0.19738868116E+02  0.20845095803E+02 -0.60706843268E+02  0.67152526037E+02  0.00000000000E+00 0.  1.
<mgrwt>
<rscale>  2 0.28707855E+02</rscale>
<asrwt>0</asrwt>
<pdfrwt beam="1">  1       21 0.12004412E-02 0.28707855E+02</pdfrwt>
<pdfrwt beam="2">  1       21 0.16756197E-01 0.28707855E+02</pdfrwt>
<totfact> 0.67118164E+07</totfact>
</mgrwt>
</event>
<event>
 4    1  0.7478314E+004  0.2449540E+02  0.7546771E-02  0.1668357E+00
         21   -1    0    0  501  502  0.00000000000E+00  0.00000000000E+00  0.26064630400E+01  0.26064630400E+01  0.00000000000E+00 0.  1.
         21   -1    0    0  502  503 -0.00000000000E+00 -0.00000000000E+00 -0.23103633966E+03  0.23103633966E+03  0.00000000000E+00 0.  1.
          5    1    1    2  501    0  0.19176895480E+02  0.15240450598E+02 -0.10721349943E+03  0.10997617521E+03  0.00000000000E+00 0.  1.
         -5    1    1    2    0  503 -0.19176895480E+02 -0.15240450598E+02 -0.12121637719E+03  0.12366662748E+03  0.00000000000E+00 0. -1.
<mgrwt>
<rscale>  2 0.24495401E+02</rscale>
<asrwt>0</asrwt>
<pdfrwt beam="1">  1       21 0.40099437E-03 0.24495401E+02</pdfrwt>
<pdfrwt beam="2">  1       21 0.35544047E-01 0.24495401E+02</pdfrwt>
<totfact> 0.86448737E+07</totfact>
</mgrwt>
</event>
<event>
 4    1  0.7478314E+004  0.3381390E+02  0.7546771E-02  0.1559393E+00
         21   -1    0    0  501  502  0.00000000000E+00  0.00000000000E+00  0.74607871416E+01  0.74607871416E+01  0.00000000000E+00 0. -1.
         21   -1    0    0  502  503 -0.00000000000E+00 -0.00000000000E+00 -0.25230049505E+03  0.25230049505E+03  0.00000000000E+00 0. -1.
          5    1    1    2  501    0 -0.29472436997E+02  0.16575734459E+02 -0.20379834211E+03  0.20658447125E+03  0.00000000000E+00 0. -1.
         -5    1    1    2    0  503  0.29472436997E+02 -0.16575734459E+02 -0.41041365806E+02  0.53176810948E+02  0.00000000000E+00 0.  1.
<mgrwt>
<rscale>  2 0.33813895E+02</rscale>
<asrwt>0</asrwt>
<pdfrwt beam="1">  1       21 0.11478134E-02 0.33813895E+02</pdfrwt>
<pdfrwt beam="2">  1       21 0.38815462E-01 0.33813895E+02</pdfrwt>
<totfact> 0.16179521E+07</totfact>
</mgrwt>
</event>
<event>
 4    1  0.7478314E+004  0.3436626E+02  0.7546771E-02  0.1554301E+00
         21   -1    0    0  503  502  0.00000000000E+00  0.00000000000E+00  0.14592535156E+03  0.14592535156E+03  0.00000000000E+00 0.  1.
         21   -1    0    0  501  503 -0.00000000000E+00 -0.00000000000E+00 -0.80950803711E+01  0.80950803711E+01  0.00000000000E+00 0.  1.
          4    1    1    2  501    0  0.34255238757E+02 -0.27601456319E+01  0.67822807568E+02  0.76032710149E+02  0.00000000000E+00 0.  1.
         -4    1    1    2    0  502 -0.34255238757E+02  0.27601456319E+01  0.70007463625E+02  0.77987721786E+02  0.00000000000E+00 0. -1.
<mgrwt>
<rscale>  2 0.34366259E+02</rscale>
<asrwt>0</asrwt>
<pdfrwt beam="1">  1       21 0.22450052E-01 0.34366259E+02</pdfrwt>
<pdfrwt beam="2">  1       21 0.12453971E-02 0.34366259E+02</pdfrwt>
<totfact> 0.39359995E+07</totfact>
</mgrwt>
</event>
<event>
 4    1  0.7478314E+004  0.2224287E+02  0.7546771E-02  0.1704085E+00
         21   -1    0    0  501  502  0.00000000000E+00  0.00000000000E+00  0.17845501132E+01  0.17845501132E+01  0.00000000000E+00 0. -1.
         21   -1    0    0  502  503 -0.00000000000E+00 -0.00000000000E+00 -0.29601358674E+03  0.29601358674E+03  0.00000000000E+00 0. -1.
          3    1    1    2  501    0 -0.18962755551E+01  0.22161890855E+02 -0.10961446710E+03  0.11184845401E+03  0.00000000000E+00 0. -1.
         -3    1    1    2    0  503  0.18962755551E+01 -0.22161890855E+02 -0.18461456952E+03  0.18594968284E+03  0.00000000000E+00 0.  1.
<mgrwt>
<rscale>  2 0.22242870E+02</rscale>
<asrwt>0</asrwt>
<pdfrwt beam="1">  1       21 0.27454585E-03 0.22242870E+02</pdfrwt>
<pdfrwt beam="2">  1       21 0.45540605E-01 0.22242870E+02</pdfrwt>
<totfact> 0.91878789E+07</totfact>
</mgrwt>
</event>
<event>
 4    1  0.7478314E+004  0.2268023E+02  0.7546771E-02  0.1696747E+00
         21   -1    0    0  501  502  0.00000000000E+00  0.00000000000E+00  0.19871590086E+02  0.19871590086E+02  0.00000000000E+00 0.  1.
         21   -1    0    0  502  503 -0.00000000000E+00 -0.00000000000E+00 -0.30353101974E+02  0.30353101974E+02  0.00000000000E+00 0.  1.
          1    1    1    2  501    0  0.10795251068E+02  0.19946308167E+02 -0.14874759792E+02  0.27122889484E+02  0.00000000000E+00 0. -1.
         -1    1    1    2    0  503 -0.10795251068E+02 -0.19946308167E+02  0.43932479042E+01  0.23101802576E+02  0.00000000000E+00 0.  1.
<mgrwt>
<rscale>  2 0.22680226E+02</rscale>
<asrwt>0</asrwt>
<pdfrwt beam="1">  1       21 0.30571677E-02 0.22680226E+02</pdfrwt>
<pdfrwt beam="2">  1       21 0.46697080E-02 0.22680226E+02</pdfrwt>
<totfact> 0.12355189E+08</totfact>
</mgrwt>
</event>
<event>
 4    1  0.7478314E+004  0.5500840E+02  0.7546771E-02  0.1420059E+00
         21   -1    0    0  501  502  0.00000000000E+00  0.00000000000E+00  0.44597032126E+02  0.44597032126E+02  0.00000000000E+00 0.  1.
         21   -1    0    0  502  503 -0.00000000000E+00 -0.00000000000E+00 -0.68700088965E+02  0.68700088965E+02  0.00000000000E+00 0.  1.
          3    1    1    2  501    0 -0.46874024530E+02  0.28788019194E+02 -0.57513467109E+01  0.55308247249E+02  0.00000000000E+00 0.  1.
         -3    1    1    2    0  503  0.46874024530E+02 -0.28788019194E+02 -0.18351710128E+02  0.57988873841E+02  0.00000000000E+00 0. -1.
<mgrwt>
<rscale>  2 0.55008401E+02</rscale>
<asrwt>0</asrwt>
<pdfrwt beam="1">  1       21 0.68610819E-02 0.55008401E+02</pdfrwt>
<pdfrwt beam="2">  1       21 0.10569244E-01 0.55008401E+02</pdfrwt>
<totfact> 0.10417612E+07</totfact>
</mgrwt>
</event>
<event>
 4    1  0.7478314E+004  0.2058351E+02  0.7546771E-02  0.1733967E+00
         21   -1    0    0  503  502  0.00000000000E+00  0.00000000000E+00  0.13029633006E+02  0.13029633006E+02  0.00000000000E+00 0. -1.
         21   -1    0    0  501  503 -0.00000000000E+00 -0.00000000000E+00 -0.48411265409E+02  0.48411265409E+02  0.00000000000E+00 0. -1.
          3    1    1    2  501    0  0.17371662373E+02  0.11041107092E+02 -0.35293489961E+02  0.40857204176E+02  0.00000000000E+00 0.  1.
         -3    1    1    2    0  502 -0.17371662373E+02 -0.11041107092E+02 -0.88142442512E-01  0.20583694239E+02  0.00000000000E+00 0. -1.
<mgrwt>
<rscale>  2 0.20583506E+02</rscale>
<asrwt>0</asrwt>
<pdfrwt beam="1">  1       21 0.20045589E-02 0.20583506E+02</pdfrwt>
<pdfrwt beam="2">  1       21 0.74478870E-02 0.20583506E+02</pdfrwt>
<totfact> 0.10900017E+08</totfact>
</mgrwt>
</event>
<event>
 4    1  0.7478314E+004  0.6120143E+02  0.7546771E-02  0.1392858E+00
         21   -1    0    0  503  502  0.00000000000E+00  0.00000000000E+00  0.83463791811E+03  0.83463791811E+03  0.00000000000E+00 0. -1.
         21   -1    0    0  501  503 -0.00000000000E+00 -0.00000000000E+00 -0.55727593078E+01  0.55727593078E+01  0.00000000000E+00 0. -1.
          3    1    1    2  501    0  0.56974369571E+02 -0.22350312184E+02  0.59990590472E+03  0.60301965952E+03  0.00000000000E+00 0.  1.
         -3    1    1    2    0  502 -0.56974369571E+02  0.22350312184E+02  0.22915925408E+03  0.23719101790E+03  0.00000000000E+00 0. -1.
<mgrwt>
<rscale>  2 0.61201432E+02</rscale>
<asrwt>0</asrwt>
<pdfrwt beam="1">  1       21 0.12840573E+00 0.61201432E+02</pdfrwt>
<pdfrwt beam="2">  1       21 0.85734825E-03 0.61201432E+02</pdfrwt>
<totfact> 0.21087474E+06</totfact>
</mgrwt>
</event>
<event>
 4    1  0.7478314E+004  0.3745552E+02  0.7546771E-02  0.1527817E+00
         21   -1    0    0  503  502  0.00000000000E+00  0.00000000000E+00  0.29397983673E+03  0.29397983673E+03  0.00000000000E+00 0.  1.
         21   -1    0    0  501  503 -0.00000000000E+00 -0.00000000000E+00 -0.50304190953E+01  0.50304190953E+01  0.00000000000E+00 0.  1.
          1    1    1    2  501    0  0.33719966460E+02 -0.16305812685E+02  0.11059880955E+03  0.11676905557E+03  0.00000000000E+00 0.  1.
         -1    1    1    2    0  502 -0.33719966460E+02  0.16305812685E+02  0.17835060809E+03  0.18224120026E+03  0.00000000000E+00 0. -1.
<mgrwt>
<rscale>  2 0.37455516E+02</rscale>
<asrwt>0</asrwt>
<pdfrwt beam="1">  1       21 0.45227654E-01 0.37455516E+02</pdfrwt>
<pdfrwt beam="2">  1       21 0.77391086E-03 0.37455516E+02</pdfrwt>
<totfact> 0.22294097E+07</totfact>
</mgrwt>
</event>
<event>
 4    1  0.7478314E+004  0.2830384E+02  0.7546771E-02  0.1617631E+00
         21   -1    0    0  503  502  0.00000000000E+00  0.00000000000E+00  0.91458092619E+01  0.91458092619E+01  0.00000000000E+00 0.  1.
         21   -1    0    0  501  503 -0.00000000000E+00 -0.00000000000E+00 -0.96766709439E+02  0.96766709439E+02  0.00000000000E+00 0.  1.
          1    1    1    2  501    0 -0.15600214172E+01  0.28260813074E+02 -0.27505064627E+02  0.39466895021E+02  0.00000000000E+00 0.  1.
         -1    1    1    2    0  502  0.15600214172E+01 -0.28260813074E+02 -0.60115835550E+02  0.66445623681E+02  0.00000000000E+00 0. -1.
<mgrwt>
<rscale>  2 0.28303838E+02</rscale>
<asrwt>0</asrwt>
<pdfrwt beam="1">  1       21 0.14070475E-02 0.28303838E+02</pdfrwt>
<pdfrwt beam="2">  1       21 0.14887187E-01 0.28303838E+02</pdfrwt>
<totfact> 0.64388736E+07</totfact>
</mgrwt>
</event>
<event>
 4    1  0.7478314E+004  0.2074929E+02  0.7546771E-02  0.1730825E+00
         21   -1    0    0  503  502  0.00000000000E+00  0.00000000000E+00  0.18145548202E+02  0.18145548202E+02  0.00000000000E+00 0.  1.
         21   -1    0    0  501  503 -0.00000000000E+00 -0.00000000000E+00 -0.24101713613E+02  0.24101713613E+02  0.00000000000E+00 0.  1.
          4    1    1    2  501    0  0.11485324303E+02 -0.17280637611E+02 -0.34299047399E+00  0.20752126471E+02  0.00000000000E+00 0. -1.
         -4    1    1    2    0  502 -0.11485324303E+02  0.17280637611E+02 -0.56131749369E+01  0.21495135344E+02  0.00000000000E+00 0.  1.
<mgrwt>
<rscale>  2 0.20749292E+02</rscale>
<asrwt>0</asrwt>
<pdfrwt beam="1">  1       21 0.27916228E-02 0.20749292E+02</pdfrwt>
<pdfrwt beam="2">  1       21 0.37079559E-02 0.20749292E+02</pdfrwt>
<totfact> 0.19900454E+08</totfact>
</mgrwt>
</event>
<event>
 4    1  0.7478314E+004  0.2091319E+02  0.7546771E-02  0.1727755E+00
         21   -1    0    0  501  502  0.00000000000E+00  0.00000000000E+00  0.14469686735E+02  0.14469686735E+02  0.00000000000E+00 0. -1.
         21   -1    0    0  502  503 -0.00000000000E+00 -0.00000000000E+00 -0.30241580878E+02  0.30241580878E+02  0.00000000000E+00 0. -1.
          2    1    1    2  501    0 -0.45084745483E+01 -0.20421438475E+02 -0.73793462152E+01  0.22176930416E+02  0.00000000000E+00 0.  1.
         -2    1    1    2    0  503  0.45084745483E+01  0.20421438475E+02 -0.83925479281E+01  0.22534337196E+02  0.00000000000E+00 0. -1.
<mgrwt>
<rscale>  2 0.20913189E+02</rscale>
<asrwt>0</asrwt>
<pdfrwt beam="1">  1       21 0.22261057E-02 0.20913189E+02</pdfrwt>
<pdfrwt beam="2">  1       21 0.46525509E-02 0.20913189E+02</pdfrwt>
<totfact> 0.19790270E+08</totfact>
</mgrwt>
</event>
<event>
 4    1  0.7478314E+004  0.2496867E+02  0.7546771E-02  0.1661452E+00
         21   -1    0    0  501  502  0.00000000000E+00  0.00000000000E+00  0.56452637555E+01  0.56452637555E+01  0.00000000000E+00 0.  1.
         21   -1    0    0  502  503 -0.00000000000E+00 -0.00000000000E+00 -0.11816810420E+03  0.11816810420E+03  0.00000000000E+00 0.  1.
          2    1    1    2  501    0  0.22974992094E+02 -0.97767108537E+01 -0.72098173803E+02  0.76299285728E+02  0.00000000000E+00 0. -1.
         -2    1    1    2    0  503 -0.22974992094E+02  0.97767108537E+01 -0.40424666638E+02  0.47514082225E+02  0.00000000000E+00 0.  1.
<mgrwt>
<rscale>  2 0.24968667E+02</rscale>
<asrwt>0</asrwt>
<pdfrwt beam="1">  1       21 0.86850216E-03 0.24968667E+02</pdfrwt>
<pdfrwt beam="2">  1       21 0.18179707E-01 0.24968667E+02</pdfrwt>
<totfact> 0.91808142E+07</totfact>
</mgrwt>
</event>
<event>
 4    1  0.7478314E+004  0.2213392E+02  0.7546771E-02  0.1705946E+00
         21   -1    0    0  503  502  0.00000000000E+00  0.00000000000E+00  0.36328848620E+02  0.36328848620E+02  0.00000000000E+00 0.  1.
         21   -1    0    0  501  503 -0.00000000000E+00 -0.00000000000E+00 -0.15310308491E+02  0.15310308491E+02  0.00000000000E+00 0.  1.
          4    1    1    2  501    0 -0.21669427436E+02  0.45106853937E+01  0.19423286364E+02  0.29447825409E+02  0.00000000000E+00 0.  1.
         -4    1    1    2    0  502  0.21669427436E+02 -0.45106853937E+01  0.15952537657E+01  0.22191331702E+02  0.00000000000E+00 0. -1.
<mgrwt>
<rscale>  2 0.22133919E+02</rscale>
<asrwt>0</asrwt>
<pdfrwt beam="1">  1       21 0.55890536E-02 0.22133919E+02</pdfrwt>
<pdfrwt beam="2">  1       21 0.23554321E-02 0.22133919E+02</pdfrwt>
<totfact> 0.13799089E+08</totfact>
</mgrwt>
</event>
<event>
 4    1  0.7478314E+004  0.2218854E+02  0.7546771E-02  0.1705011E+00
         21   -1    0    0  503  502  0.00000000000E+00  0.00000000000E+00  0.10516207628E+04  0.10516207628E+04  0.00000000000E+00 0. -1.
         21   -1    0    0  501  503 -0.00000000000E+00 -0.00000000000E+00 -0.48485330013E+00  0.48485330013E+00  0.00000000000E+00 0. -1.
          2    1    1    2  501    0 -0.45674677944E+01 -0.21713353918E+02  0.42797087501E+03  0.42854568176E+03  0.00000000000E+00 0.  1.
         -2    1    1    2    0  502  0.45674677944E+01  0.21713353918E+02  0.62316503444E+03  0.62355993429E+03  0.00000000000E+00 0. -1.
<mgrwt>
<rscale>  2 0.22188544E+02</rscale>
<asrwt>0</asrwt>
<pdfrwt beam="1">  1       21 0.16178598E+00 0.22188544E+02</pdfrwt>
<pdfrwt beam="2">  1       21 0.74593657E-04 0.22188544E+02</pdfrwt>
<totfact> 0.39704534E+07</totfact>
</mgrwt>
</event>
<event>
 4    1  0.7478314E+004  0.2581573E+02  0.7546771E-02  0.1649554E+00
         21   -1    0    0  503  502  0.00000000000E+00  0.00000000000E+00  0.35064513517E+03  0.35064513517E+03  0.00000000000E+00 0.  1.
         21   -1    0    0  501  503 -0.00000000000E+00 -0.00000000000E+00 -0.19942298687E+01  0.19942298687E+01  0.00000000000E+00 0.  1.
          1    1    1    2  501    0  0.26774920632E+01  0.25676510024E+02  0.13612973896E+03  0.13855597410E+03  0.00000000000E+00 0. -1.
         -1    1    1    2    0  502 -0.26774920632E+01 -0.25676510024E+02  0.21252116634E+03  0.21408339094E+03  0.00000000000E+00 0.  1.
<mgrwt>
<rscale>  2 0.25815734E+02</rscale>
<asrwt>0</asrwt>
<pdfrwt beam="1">  1       21 0.53945356E-01 0.25815734E+02</pdfrwt>
<pdfrwt beam="2">  1       21 0.30680487E-03 0.25815734E+02</pdfrwt>
<totfact> 0.58275457E+07</totfact>
</mgrwt>
</event>
<event>
 4    1  0.7478314E+004  0.2634889E+02  0.7546771E-02  0.1642350E+00
         21   -1    0    0  501  502  0.00000000000E+00  0.00000000000E+00  0.23678823267E+01  0.23678823267E+01  0.00000000000E+00 0. -1.
         21   -1    0    0  502  503 -0.00000000000E+00 -0.00000000000E+00 -0.36025415974E+03  0.36025415974E+03  0.00000000000E+00 0. -1.
          5    1    1    2  501    0  0.24068468432E+02 -0.10722530645E+02 -0.10072066342E+03  0.10411011419E+03  0.00000000000E+00 0.  1.
         -5    1    1    2    0  503 -0.24068468432E+02  0.10722530645E+02 -0.25716561399E+03  0.25851192788E+03  0.00000000000E+00 0. -1.
<mgrwt>
<rscale>  2 0.26348887E+02</rscale>
<asrwt>0</asrwt>
<pdfrwt beam="1">  1       21 0.36428948E-03 0.26348887E+02</pdfrwt>
<pdfrwt beam="2">  1       21 0.55423733E-01 0.26348887E+02</pdfrwt>
<totfact> 0.43126394E+07</totfact>
</mgrwt>
</event>
<event>
 4    1  0.7478314E+004  0.2238365E+02  0.7546771E-02  0.1701700E+00
         21   -1    0    0  501  502  0.00000000000E+00  0.00000000000E+00  0.46878062662E+01  0.46878062662E+01  0.00000000000E+00 0.  1.
         21   -1    0    0  502  503 -0.00000000000E+00 -0.00000000000E+00 -0.11804170917E+03  0.11804170917E+03  0.00000000000E+00 0.  1.
          3    1    1    2  501    0 -0.21866070795E+02  0.47857021230E+01 -0.75547576604E+02  0.78793808942E+02  0.00000000000E+00 0. -1.
         -3    1    1    2    0  503  0.21866070795E+02 -0.47857021230E+01 -0.37806326297E+02  0.43935706491E+02  0.00000000000E+00 0.  1.
<mgrwt>
<rscale>  2 0.22383655E+02</rscale>
<asrwt>0</asrwt>
<pdfrwt beam="1">  1       21 0.72120102E-03 0.22383655E+02</pdfrwt>
<pdfrwt beam="2">  1       21 0.18160262E-01 0.22383655E+02</pdfrwt>
<totfact> 0.11782313E+08</totfact>
</mgrwt>
</event>
<event>
 4    1  0.7478314E+004  0.2076120E+02  0.7546771E-02  0.1730601E+00
         21   -1    0    0  501  502  0.00000000000E+00  0.00000000000E+00  0.18218172109E+03  0.18218172109E+03  0.00000000000E+00 0.  1.
         21   -1    0    0  502  503 -0.00000000000E+00 -0.00000000000E+00 -0.24002919148E+01  0.24002919148E+01  0.00000000000E+00 0.  1.
          5    1    1    2  501    0  0.60832311389E+01 -0.19849985629E+02  0.10093456311E+03  0.10304762812E+03  0.00000000000E+00 0.  1.
         -5    1    1    2    0  503 -0.60832311389E+01  0.19849985629E+02  0.78846866066E+02  0.81534384887E+02  0.00000000000E+00 0. -1.
<mgrwt>
<rscale>  2 0.20761205E+02</rscale>
<asrwt>0</asrwt>
<pdfrwt beam="1">  1       21 0.28027946E-01 0.20761205E+02</pdfrwt>
<pdfrwt beam="2">  1       21 0.36927582E-03 0.20761205E+02</pdfrwt>
<totfact> 0.14393032E+08</totfact>
</mgrwt>
</event>
<event>
 4    1  0.7478314E+004  0.2047492E+02  0.7546771E-02  0.1736045E+00
         21   -1    0    0  501  502  0.00000000000E+00  0.00000000000E+00  0.19306901895E+03  0.19306901895E+03  0.00000000000E+00 0. -1.
         21   -1    0    0  502  503 -0.00000000000E+00 -0.00000000000E+00 -0.29901567079E+01  0.29901567079E+01  0.00000000000E+00 0. -1.
          2    1    1    2  501    0 -0.19684354210E+02 -0.56345675670E+01  0.14633720401E+03  0.14776264558E+03  0.00000000000E+00 0.  1.
         -2    1    1    2    0  503  0.19684354210E+02  0.56345675670E+01  0.43741658228E+02  0.48296530071E+02  0.00000000000E+00 0. -1.
<mgrwt>
<rscale>  2 0.20474915E+02</rscale>
<asrwt>0</asrwt>
<pdfrwt beam="1">  1       21 0.29702916E-01 0.20474915E+02</pdfrwt>
<pdfrwt beam="2">  1       21 0.46002426E-03 0.20474915E+02</pdfrwt>
<totfact> 0.93636021E+07</totfact>
</mgrwt>
</event>
<event>
 4    1  0.7478314E+004  0.4933166E+02  0.7546771E-02  0.1448980E+00
         21   -1    0    0  503  502  0.00000000000E+00  0.00000000000E+00  0.37734974298E+03  0.37734974298E+03  0.00000000000E+00 0.  1.
         21   -1    0    0  501  503 -0.00000000000E+00 -0.00000000000E+00 -0.65729968527E+01  0.65729968527E+01  0.00000000000E+00 0.  1.
          3    1    1    2  501    0  0.49143410202E+02 -0.43055909438E+01  0.15904657140E+03  0.16652154441E+03  0.00000000000E+00 0. -1.
         -3    1    1    2    0  502 -0.49143410202E+02  0.43055909438E+01  0.21173017473E+03  0.21740119542E+03  0.00000000000E+00 0.  1.
<mgrwt>
<rscale>  2 0.49331662E+02</rscale>
<asrwt>0</asrwt>
<pdfrwt beam="1">  1       21 0.58053790E-01 0.49331662E+02</pdfrwt>
<pdfrwt beam="2">  1       21 0.10112306E-02 0.49331662E+02</pdfrwt>
<totfact> 0.93230414E+06</totfact>
</mgrwt>
</event>
<event>
 4    1  0.7478314E+004  0.2777725E+02  0.7546771E-02  0.1624043E+00
         21   -1    0    0  501  502  0.00000000000E+00  0.00000000000E+00  0.35889460264E+02  0.35889460264E+02  0.00000000000E+00 0.  1.
         21   -1    0    0  502  503 -0.00000000000E+00 -0.00000000000E+00 -0.36622395114E+02  0.36622395114E+02  0.00000000000E+00 0.  1.
          4    1    1    2  501    0  0.11187601325E+02  0.25424661928E+02  0.22932408020E+02  0.36020427470E+02  0.00000000000E+00 0.  1.
         -4    1    1    2    0  503 -0.11187601325E+02 -0.25424661928E+02 -0.23665342871E+02  0.36491427907E+02  0.00000000000E+00 0. -1.
<mgrwt>
<rscale>  2 0.27777254E+02</rscale>
<asrwt>0</asrwt>
<pdfrwt beam="1">  1       21 0.55214554E-02 0.27777254E+02</pdfrwt>
<pdfrwt beam="2">  1       21 0.56342146E-02 0.27777254E+02</pdfrwt>
<totfact> 0.37813558E+07</totfact>
</mgrwt>
</event>
<event>
 4    1  0.7478314E+004  0.2525774E+02  0.7546771E-02  0.1657327E+00
         21   -1    0    0  501  502  0.00000000000E+00  0.00000000000E+00  0.37350072095E+02  0.37350072095E+02  0.00000000000E+00 0. -1.
         21   -1    0    0  502  503 -0.00000000000E+00 -0.00000000000E+00 -0.17257383592E+02  0.17257383592E+02  0.00000000000E+00 0. -1.
          4    1    1    2  501    0 -0.25193207676E+02  0.18043538155E+01  0.72811469471E+01  0.26286279816E+02  0.00000000000E+00 0. -1.
         -4    1    1    2    0  503  0.25193207676E+02 -0.18043538155E+01  0.12811541555E+02  0.28321175871E+02  0.00000000000E+00 0.  1.
<mgrwt>
<rscale>  2 0.25257740E+02</rscale>
<asrwt>0</asrwt>
<pdfrwt beam="1">  1       21 0.57461649E-02 0.25257740E+02</pdfrwt>
<pdfrwt beam="2">  1       21 0.26549821E-02 0.25257740E+02</pdfrwt>
<totfact> 0.11395532E+08</totfact>
</mgrwt>
</event>
<event>
 4    1  0.7478314E+004  0.2613854E+02  0.7546771E-02  0.1645167E+00
         21   -1    0    0  501  502  0.00000000000E+00  0.00000000000E+00  0.90114108715E+01  0.90114108715E+01  0.00000000000E+00 0. -1.
         21   -1    0    0  502  503 -0.00000000000E+00 -0.00000000000E+00 -0.75829194571E+02  0.75829194571E+02  0.00000000000E+00 0. -1.
          4    1    1    2  501    0  0.67873530291E+01 -0.25241930770E+02 -0.33934226532E+02  0.42834039740E+02  0.00000000000E+00 0.  1.
         -4    1    1    2    0  503 -0.67873530291E+01  0.25241930770E+02 -0.32883557167E+02  0.42006565702E+02  0.00000000000E+00 0. -1.
<mgrwt>
<rscale>  2 0.26138539E+02</rscale>
<asrwt>0</asrwt>
<pdfrwt beam="1">  1       21 0.13863709E-02 0.26138539E+02</pdfrwt>
<pdfrwt beam="2">  1       21 0.11666030E-01 0.26138539E+02</pdfrwt>
<totfact> 0.97678894E+07</totfact>
</mgrwt>
</event>
<event>
 4    1  0.7478314E+004  0.2159584E+02  0.7546771E-02  0.1715337E+00
         21   -1    0    0  503  502  0.00000000000E+00  0.00000000000E+00  0.19315340622E+02  0.19315340622E+02  0.00000000000E+00 0.  1.
         21   -1    0    0  501  503 -0.00000000000E+00 -0.00000000000E+00 -0.26716460081E+02  0.26716460081E+02  0.00000000000E+00 0.  1.
          3    1    1    2  501    0  0.20654813801E+02  0.63054841770E+01  0.34391053563E+01  0.21867965372E+02  0.00000000000E+00 0. -1.
         -3    1    1    2    0  502 -0.20654813801E+02 -0.63054841770E+01 -0.10840224815E+02  0.24163835331E+02  0.00000000000E+00 0.  1.
<mgrwt>
<rscale>  2 0.21595844E+02</rscale>
<asrwt>0</asrwt>
<pdfrwt beam="1">  1       21 0.29715909E-02 0.21595844E+02</pdfrwt>
<pdfrwt beam="2">  1       21 0.41102246E-02 0.21595844E+02</pdfrwt>
<totfact> 0.15564152E+08</totfact>
</mgrwt>
</event>
<event>
 4    1  0.7478314E+004  0.2154335E+02  0.7546771E-02  0.1716271E+00
         21   -1    0    0  503  502  0.00000000000E+00  0.00000000000E+00  0.16520115060E+02  0.16520115060E+02  0.00000000000E+00 0. -1.
         21   -1    0    0  501  503 -0.00000000000E+00 -0.00000000000E+00 -0.28622084365E+02  0.28622084365E+02  0.00000000000E+00 0. -1.
          5    1    1    2  501    0  0.21480334582E+02  0.16465187947E+01 -0.29850593047E+01  0.21749169569E+02  0.00000000000E+00 0. -1.
         -5    1    1    2    0  502 -0.21480334582E+02 -0.16465187947E+01 -0.91169100007E+01  0.23393029856E+02  0.00000000000E+00 0.  1.
<mgrwt>
<rscale>  2 0.21543347E+02</rscale>
<asrwt>0</asrwt>
<pdfrwt beam="1">  1       21 0.25415562E-02 0.21543347E+02</pdfrwt>
<pdfrwt beam="2">  1       21 0.44033976E-02 0.21543347E+02</pdfrwt>
<totfact> 0.17771877E+08</totfact>
</mgrwt>
</event>
<event>
 4    1  0.7478314E+004  0.2450684E+02  0.7546771E-02  0.1668188E+00
         21   -1    0    0  501  502  0.00000000000E+00  0.00000000000E+00  0.31479270752E+01  0.31479270752E+01  0.00000000000E+00 0.  1.
         21   -1    0    0  502  503 -0.00000000000E+00 -0.00000000000E+00 -0.19079541927E+03  0.19079541927E+03  0.00000000000E+00 0.  1.
          2    1    1    2  501    0 -0.23594960453E+02  0.66229350212E+01 -0.94444844880E+02  0.97572609637E+02  0.00000000000E+00 0.  1.
         -2    1    1    2    0  503  0.23594960453E+02 -0.66229350212E+01 -0.93202647315E+02  0.96370736708E+02  0.00000000000E+00 0. -1.
<mgrwt>
<rscale>  2 0.24506844E+02</rscale>
<asrwt>0</asrwt>
<pdfrwt beam="1">  1       21 0.48429650E-03 0.24506844E+02</pdfrwt>
<pdfrwt beam="2">  1       21 0.29353140E-01 0.24506844E+02</pdfrwt>
<totfact> 0.93097500E+07</totfact>
</mgrwt>
</event>
<event>
 4    1  0.7478314E+004  0.2866333E+02  0.7546771E-02  0.1613352E+00
         21   -1    0    0  503  502  0.00000000000E+00  0.00000000000E+00  0.35834607234E+01  0.35834607234E+01  0.00000000000E+00 0.  1.
         21   -1    0    0  501  503 -0.00000000000E+00 -0.00000000000E+00 -0.26484466634E+03  0.26484466634E+03  0.00000000000E+00 0.  1.
          5    1    1    2  501    0  0.26789863169E+02  0.10192630158E+02 -0.81442297414E+02  0.86339065818E+02  0.00000000000E+00 0. -1.
         -5    1    1    2    0  502 -0.26789863169E+02 -0.10192630158E+02 -0.17981890820E+03  0.18208906125E+03  0.00000000000E+00 0.  1.
<mgrwt>
<rscale>  2 0.28663330E+02</rscale>
<asrwt>0</asrwt>
<pdfrwt beam="1">  1       21 0.55130147E-03 0.28663330E+02</pdfrwt>
<pdfrwt beam="2">  1       21 0.40745346E-01 0.28663330E+02</pdfrwt>
<totfact> 0.43251225E+07</totfact>
</mgrwt>
</event>
<event>
 4    1  0.7478314E+004  0.2439736E+02  0.7546771E-02  0.1669812E+00
         21   -1    0    0  501  502  0.00000000000E+00  0.00000000000E+00  0.40782927031E+01  0.40782927031E+01  0.00000000000E+00 0. -1.
         21   -1    0    0  502  503 -0.00000000000E+00 -0.00000000000E+00 -0.15296386145E+03  0.15296386145E+03  0.00000000000E+00 0. -1.
          1    1    1    2  501    0 -0.21295963690E+02  0.11904321145E+02 -0.91255551851E+02  0.94460609119E+02  0.00000000000E+00 0.  1.
         -1    1    1    2    0  503  0.21295963690E+02 -0.11904321145E+02 -0.57630016891E+02  0.62581545029E+02  0.00000000000E+00 0. -1.
<mgrwt>
<rscale>  2 0.24397355E+02</rscale>
<asrwt>0</asrwt>
<pdfrwt beam="1">  1       21 0.62742974E-03 0.24397355E+02</pdfrwt>
<pdfrwt beam="2">  1       21 0.23532898E-01 0.24397355E+02</pdfrwt>
<totfact> 0.94266820E+07</totfact>
</mgrwt>
</event>
<event>
 4    1  0.7478314E+004  0.2140522E+02  0.7546771E-02  0.1718746E+00
         21   -1    0    0  503  502  0.00000000000E+00  0.00000000000E+00  0.34141561235E+03  0.34141561235E+03  0.00000000000E+00 0. -1.
         21   -1    0    0  501  503 -0.00000000000E+00 -0.00000000000E+00 -0.14566639372E+01  0.14566639372E+01  0.00000000000E+00 0. -1.
          1    1    1    2  501    0  0.12615360605E+02  0.17292659848E+02  0.12188271267E+03  0.12374804667E+03  0.00000000000E+00 0.  1.
         -1    1    1    2    0  502 -0.12615360605E+02 -0.17292659848E+02  0.21807623574E+03  0.21912422961E+03  0.00000000000E+00 0. -1.
<mgrwt>
<rscale>  2 0.21405219E+02</rscale>
<asrwt>0</asrwt>
<pdfrwt beam="1">  1       21 0.52525415E-01 0.21405219E+02</pdfrwt>
<pdfrwt beam="2">  1       21 0.22410242E-03 0.21405219E+02</pdfrwt>
<totfact> 0.92628787E+07</totfact>
</mgrwt>
</event>
<event>
 4    1  0.7478314E+004  0.4156239E+02  0.7546771E-02  0.1497019E+00
         21   -1    0    0  503  502  0.00000000000E+00  0.00000000000E+00  0.58516654608E+01  0.58516654608E+01  0.00000000000E+00 0. -1.
         21   -1    0    0  501  503 -0.00000000000E+00 -0.00000000000E+00 -0.33608421893E+03  0.33608421893E+03  0.00000000000E+00 0. -1.
          4    1    1    2  501    0 -0.41545648988E+02 -0.11796113026E+01 -0.22474418948E+03  0.22855498930E+03  0.00000000000E+00 0.  1.
         -4    1    1    2    0  502  0.41545648988E+02  0.11796113026E+01 -0.10548836399E+03  0.11338089508E+03  0.00000000000E+00 0. -1.
<mgrwt>
<rscale>  2 0.41562392E+02</rscale>
<asrwt>0</asrwt>
<pdfrwt beam="1">  1       21 0.90025580E-03 0.41562392E+02</pdfrwt>
<pdfrwt beam="2">  1       21 0.51705289E-01 0.41562392E+02</pdfrwt>
<totfact> 0.13801482E+07</totfact>
</mgrwt>
</event>
<event>
 4    1  0.7478314E+004  0.2616663E+02  0.7546771E-02  0.1644789E+00
         21   -1    0    0  501  502  0.00000000000E+00  0.00000000000E+00  0.13719275851E+01  0.13719275851E+01  0.00000000000E+00 0.  1.
         21   -1    0    0  502  503 -0.00000000000E+00 -0.00000000000E+00 -0.49983509942E+03  0.49983509942E+03  0.00000000000E+00 0.  1.
          5    1    1    2  501    0  0.17766136071E+02 -0.19210859383E+02 -0.23944940864E+03  0.24087488871E+03  0.00000000000E+00 0.  1.
         -5    1    1    2    0  503 -0.17766136071E+02  0.19210859383E+02 -0.25901376319E+03  0.26033213830E+03  0.00000000000E+00 0. -1.
<mgrwt>
<rscale>  2 0.26166634E+02</rscale>
<asrwt>0</asrwt>
<pdfrwt beam="1">  1       21 0.21106552E-03 0.26166634E+02</pdfrwt>
<pdfrwt beam="2">  1       21 0.76897803E-01 0.26166634E+02</pdfrwt>
<totfact> 0.49022908E+07</totfact>
</mgrwt>
</event>
