<event>
 4    1  0.9138221E+003  0.4340679E+02  0.7546771E-02  0.1484540E+00
         21   -1    0    0  502  501  0.00000000000E+00  0.00000000000E+00  0.10111533112E+04  0.10111533112E+04  0.00000000000E+00 0.  1.
         21   -1    0    0  504  502 -0.00000000000E+00 -0.00000000000E+00 -0.25087814773E+01  0.25087814773E+01  0.00000000000E+00 0.  1.
         21    1    1    2  503  501 -0.39453192488E+02 -0.18099580956E+02  0.76139221022E+03  0.76262851180E+03  0.00000000000E+00 0.  1.
         21    1    1    2  504  503  0.39453192488E+02  0.18099580956E+02  0.24725231953E+03  0.25103358090E+03  0.00000000000E+00 0.  1.
<mgrwt>
<rscale>  2 0.43406788E+02</rscale>
<asrwt>0</asrwt>
<pdfrwt beam="1">  1       21 0.15556172E+00 0.43406788E+02</pdfrwt>
<pdfrwt beam="2">  1       21 0.38596719E-03 0.43406788E+02</pdfrwt>
<totfact> 0.43547794E+06</totfact>
</mgrwt>
</event>
<event>
 4    1  0.9138221E+003  0.2679241E+02  0.7546771E-02  0.1636516E+00
         21   -1    0    0  504  501  0.00000000000E+00  0.00000000000E+00  0.10649511518E+03  0.10649511518E+03  0.00000000000E+00 0.  1.
         21   -1    0    0  501  502 -0.00000000000E+00 -0.00000000000E+00 -0.20470106679E+02  0.20470106679E+02  0.00000000000E+00 0.  1.
         21    1    1    2  503  502 -0.17430875627E+02  0.20346938961E+02  0.95002924241E+02  0.98708606335E+02  0.00000000000E+00 0.  1.
         21    1    1    2  504  503  0.17430875627E+02 -0.20346938961E+02 -0.89779157360E+01  0.28256615529E+02  0.00000000000E+00 0.  1.
<mgrwt>
<rscale>  2 0.26792412E+02</rscale>
<asrwt>0</asrwt>
<pdfrwt beam="1">  1       21 0.16383863E-01 0.26792412E+02</pdfrwt>
<pdfrwt beam="2">  1       21 0.31492473E-02 0.26792412E+02</pdfrwt>
<totfact> 0.15509118E+07</totfact>
</mgrwt>
</event>
<event>
 4    1  0.9138221E+003  0.2863242E+02  0.7546771E-02  0.1613717E+00
         21   -1    0    0  502  501  0.00000000000E+00  0.00000000000E+00  0.10275265396E+02  0.10275265396E+02  0.00000000000E+00 0. -1.
         21   -1    0    0  504  502 -0.00000000000E+00 -0.00000000000E+00 -0.14808637806E+03  0.14808637806E+03  0.00000000000E+00 0. -1.
         21    1    1    2  503  501 -0.21967279231E+02 -0.18364479076E+02 -0.12268002530E+03  0.12597699812E+03  0.00000000000E+00 0.  1.
         21    1    1    2  504  503  0.21967279231E+02  0.18364479076E+02 -0.15131087368E+02  0.32384645335E+02  0.00000000000E+00 0.  1.
<mgrwt>
<rscale>  2 0.28632420E+02</rscale>
<asrwt>0</asrwt>
<pdfrwt beam="1">  1       21 0.15808102E-02 0.28632420E+02</pdfrwt>
<pdfrwt beam="2">  1       21 0.22782518E-01 0.28632420E+02</pdfrwt>
<totfact> 0.25672402E+07</totfact>
</mgrwt>
</event>
<event>
 4    1  0.9138221E+003  0.5412011E+02  0.7546771E-02  0.1424306E+00
         21   -1    0    0  502  501  0.00000000000E+00  0.00000000000E+00  0.11243074343E+03  0.11243074343E+03  0.00000000000E+00 0. -1.
         21   -1    0    0  503  502 -0.00000000000E+00 -0.00000000000E+00 -0.28370072367E+02  0.28370072367E+02  0.00000000000E+00 0. -1.
         21    1    1    2  503  504 -0.35557754036E+02 -0.40799905298E+02  0.21904306864E+02  0.58384799423E+02  0.00000000000E+00 0.  1.
         21    1    1    2  504  501  0.35557754036E+02  0.40799905298E+02  0.62156364199E+02  0.82416016374E+02  0.00000000000E+00 0.  1.
<mgrwt>
<rscale>  2 0.54120109E+02</rscale>
<asrwt>0</asrwt>
<pdfrwt beam="1">  1       21 0.17297037E-01 0.54120109E+02</pdfrwt>
<pdfrwt beam="2">  1       21 0.43646266E-02 0.54120109E+02</pdfrwt>
<totfact> 0.92808168E+06</totfact>
</mgrwt>
</event>
<event>
 4    1  0.9138221E+003  0.3263340E+02  0.7546771E-02  0.1570680E+00
         21   -1    0    0  504  501  0.00000000000E+00  0.00000000000E+00  0.10725095091E+03  0.10725095091E+03  0.00000000000E+00 0. -1.
         21   -1    0    0  501  502 -0.00000000000E+00 -0.00000000000E+00 -0.39884916215E+02  0.39884916215E+02  0.00000000000E+00 0. -1.
         21    1    1    2  503  502  0.31956841241E+02  0.66105126015E+01  0.97439236194E+02  0.10275866547E+03  0.00000000000E+00 0.  1.
         21    1    1    2  504  503 -0.31956841241E+02 -0.66105126015E+01 -0.30073201495E+02  0.44377201659E+02  0.00000000000E+00 0.  1.
<mgrwt>
<rscale>  2 0.32633397E+02</rscale>
<asrwt>0</asrwt>
<pdfrwt beam="1">  1       21 0.16500146E-01 0.32633397E+02</pdfrwt>
<pdfrwt beam="2">  1       21 0.61361410E-02 0.32633397E+02</pdfrwt>
<totfact> 0.54452228E+06</totfact>
</mgrwt>
</event>
<event>
 4    1  0.9138221E+003  0.2151190E+02  0.7546771E-02  0.1716833E+00
         21   -1    0    0  503  501  0.00000000000E+00  0.00000000000E+00  0.23811641274E+02  0.23811641274E+02  0.00000000000E+00 0. -1.
         21   -1    0    0  501  502 -0.00000000000E+00 -0.00000000000E+00 -0.37616996892E+02  0.37616996892E+02  0.00000000000E+00 0. -1.
         21    1    1    2  503  504  0.91180567649E+01  0.19483913383E+02  0.14451278601E+02  0.25915271426E+02  0.00000000000E+00 0.  1.
         21    1    1    2  504  502 -0.91180567649E+01 -0.19483913383E+02 -0.28256634218E+02  0.35513366740E+02  0.00000000000E+00 0.  1.
<mgrwt>
<rscale>  2 0.21511900E+02</rscale>
<asrwt>0</asrwt>
<pdfrwt beam="1">  1       21 0.36633294E-02 0.21511900E+02</pdfrwt>
<pdfrwt beam="2">  1       21 0.57872303E-02 0.21511900E+02</pdfrwt>
<totfact> 0.65195005E+07</totfact>
</mgrwt>
</event>
<event>
 4    1  0.9138221E+003  0.3273859E+02  0.7546771E-02  0.1569651E+00
         21   -1    0    0  502  501  0.00000000000E+00  0.00000000000E+00  0.88782506032E+03  0.88782506032E+03  0.00000000000E+00 0.  1.
         21   -1    0    0  503  502 -0.00000000000E+00 -0.00000000000E+00 -0.17754110702E+01  0.17754110702E+01  0.00000000000E+00 0.  1.
         21    1    1    2  503  504 -0.19007077965E+02  0.26656075932E+02  0.69465121869E+03  0.69542226814E+03  0.00000000000E+00 0. -1.
         21    1    1    2  504  501  0.19007077965E+02 -0.26656075932E+02  0.19139843057E+03  0.19417820326E+03  0.00000000000E+00 0. -1.
<mgrwt>
<rscale>  2 0.32738592E+02</rscale>
<asrwt>0</asrwt>
<pdfrwt beam="1">  1       21 0.13658812E+00 0.32738592E+02</pdfrwt>
<pdfrwt beam="2">  1       21 0.27314087E-03 0.32738592E+02</pdfrwt>
<totfact> 0.97200070E+06</totfact>
</mgrwt>
</event>
<event>
 4    1  0.9138221E+003  0.2567942E+02  0.7546771E-02  0.1651431E+00
         21   -1    0    0  502  501  0.00000000000E+00  0.00000000000E+00  0.53845459692E+03  0.53845459692E+03  0.00000000000E+00 0. -1.
         21   -1    0    0  504  502 -0.00000000000E+00 -0.00000000000E+00 -0.13862951504E+01  0.13862951504E+01  0.00000000000E+00 0. -1.
         21    1    1    2  503  501  0.25161568155E+02  0.51310789464E+01  0.17637166342E+03  0.17823129955E+03  0.00000000000E+00 0. -1.
         21    1    1    2  504  503 -0.25161568155E+02 -0.51310789464E+01  0.36069663835E+03  0.36160959251E+03  0.00000000000E+00 0. -1.
<mgrwt>
<rscale>  2 0.25679418E+02</rscale>
<asrwt>0</asrwt>
<pdfrwt beam="1">  1       21 0.82839002E-01 0.25679418E+02</pdfrwt>
<pdfrwt beam="2">  1       21 0.21327661E-03 0.25679418E+02</pdfrwt>
<totfact> 0.41117726E+07</totfact>
</mgrwt>
</event>
<event>
 4    1  0.9138221E+003  0.2113898E+02  0.7546771E-02  0.1723583E+00
         21   -1    0    0  504  501  0.00000000000E+00  0.00000000000E+00  0.19050010179E+01  0.19050010179E+01  0.00000000000E+00 0. -1.
         21   -1    0    0  501  502 -0.00000000000E+00 -0.00000000000E+00 -0.24608716837E+03  0.24608716837E+03  0.00000000000E+00 0. -1.
         21    1    1    2  503  502  0.18197770969E+02  0.10756288303E+02 -0.14891555820E+03  0.15040844418E+03  0.00000000000E+00 0. -1.
         21    1    1    2  504  503 -0.18197770969E+02 -0.10756288303E+02 -0.95266609151E+02  0.97583725208E+02  0.00000000000E+00 0. -1.
<mgrwt>
<rscale>  2 0.21138983E+02</rscale>
<asrwt>0</asrwt>
<pdfrwt beam="1">  1       21 0.29307739E-03 0.21138983E+02</pdfrwt>
<pdfrwt beam="2">  1       21 0.37859524E-01 0.21138983E+02</pdfrwt>
<totfact> 0.11684245E+08</totfact>
</mgrwt>
</event>
<event>
 4    1  0.9138221E+003  0.2224675E+02  0.7546771E-02  0.1704019E+00
         21   -1    0    0  502  501  0.00000000000E+00  0.00000000000E+00  0.35677432330E+03  0.35677432330E+03  0.00000000000E+00 0. -1.
         21   -1    0    0  503  502 -0.00000000000E+00 -0.00000000000E+00 -0.40872922615E+01  0.40872922615E+01  0.00000000000E+00 0. -1.
         21    1    1    2  503  504 -0.13649504864E+02 -0.17567270984E+02  0.32299349351E+03  0.32375872937E+03  0.00000000000E+00 0. -1.
         21    1    1    2  504  501  0.13649504864E+02  0.17567270984E+02  0.29693537528E+02  0.37102886192E+02  0.00000000000E+00 0. -1.
<mgrwt>
<rscale>  2 0.22246752E+02</rscale>
<asrwt>0</asrwt>
<pdfrwt beam="1">  1       21 0.54888333E-01 0.22246752E+02</pdfrwt>
<pdfrwt beam="2">  1       21 0.62881448E-03 0.22246752E+02</pdfrwt>
<totfact> 0.18964952E+07</totfact>
</mgrwt>
</event>
<event>
 4    1  0.9138221E+003  0.2007295E+02  0.7546771E-02  0.1743881E+00
         21   -1    0    0  503  501  0.00000000000E+00  0.00000000000E+00  0.33721087224E+01  0.33721087224E+01  0.00000000000E+00 0. -1.
         21   -1    0    0  501  502 -0.00000000000E+00 -0.00000000000E+00 -0.22385853217E+03  0.22385853217E+03  0.00000000000E+00 0. -1.
         21    1    1    2  503  504 -0.11430282263E+01 -0.20040382620E+02 -0.32664793599E+02  0.38339433876E+02  0.00000000000E+00 0.  1.
         21    1    1    2  504  502  0.11430282263E+01  0.20040382620E+02 -0.18782162985E+03  0.18889120702E+03  0.00000000000E+00 0.  1.
<mgrwt>
<rscale>  2 0.20072953E+02</rscale>
<asrwt>0</asrwt>
<pdfrwt beam="1">  1       21 0.51878583E-03 0.20072953E+02</pdfrwt>
<pdfrwt beam="2">  1       21 0.34439783E-01 0.20072953E+02</pdfrwt>
<totfact> 0.59615559E+07</totfact>
</mgrwt>
</event>
<event>
 4    1  0.9138221E+003  0.3742552E+02  0.7546771E-02  0.1528059E+00
         21   -1    0    0  504  501  0.00000000000E+00  0.00000000000E+00  0.88141224833E+01  0.88141224833E+01  0.00000000000E+00 0. -1.
         21   -1    0    0  501  502 -0.00000000000E+00 -0.00000000000E+00 -0.19361265618E+03  0.19361265618E+03  0.00000000000E+00 0. -1.
         21    1    1    2  503  502  0.27196994038E+02  0.25709791909E+02 -0.49550344587E+02  0.62095946192E+02  0.00000000000E+00 0. -1.
         21    1    1    2  504  503 -0.27196994038E+02 -0.25709791909E+02 -0.13524818911E+03  0.14033083247E+03  0.00000000000E+00 0. -1.
<mgrwt>
<rscale>  2 0.37425525E+02</rscale>
<asrwt>0</asrwt>
<pdfrwt beam="1">  1       21 0.13560189E-02 0.37425525E+02</pdfrwt>
<pdfrwt beam="2">  1       21 0.29786561E-01 0.37425525E+02</pdfrwt>
<totfact> 0.20941510E+07</totfact>
</mgrwt>
</event>
<event>
 4    1  0.9138221E+003  0.2060172E+02  0.7546771E-02  0.1733620E+00
         21   -1    0    0  504  501  0.00000000000E+00  0.00000000000E+00  0.38473856693E+03  0.38473856693E+03  0.00000000000E+00 0. -1.
         21   -1    0    0  501  502 -0.00000000000E+00 -0.00000000000E+00 -0.12600923420E+01  0.12600923420E+01  0.00000000000E+00 0. -1.
         21    1    1    2  503  502 -0.14765071799E+02  0.14367440336E+02  0.25984782717E+03  0.26066323863E+03  0.00000000000E+00 0.  1.
         21    1    1    2  504  503  0.14765071799E+02 -0.14367440336E+02  0.12363064742E+03  0.12533542065E+03  0.00000000000E+00 0.  1.
<mgrwt>
<rscale>  2 0.20601716E+02</rscale>
<asrwt>0</asrwt>
<pdfrwt beam="1">  1       21 0.59190455E-01 0.20601716E+02</pdfrwt>
<pdfrwt beam="2">  1       21 0.19386067E-03 0.20601716E+02</pdfrwt>
<totfact> 0.89325257E+07</totfact>
</mgrwt>
</event>
<event>
 4    1  0.9138221E+003  0.2261669E+02  0.7546771E-02  0.1697800E+00
         21   -1    0    0  502  501  0.00000000000E+00  0.00000000000E+00  0.38819757894E+02  0.38819757894E+02  0.00000000000E+00 0. -1.
         21   -1    0    0  503  502 -0.00000000000E+00 -0.00000000000E+00 -0.29241490345E+02  0.29241490345E+02  0.00000000000E+00 0. -1.
         21    1    1    2  503  504 -0.17782884183E+02  0.13974398013E+02  0.30012800970E+02  0.37580353800E+02  0.00000000000E+00 0. -1.
         21    1    1    2  504  501  0.17782884183E+02 -0.13974398013E+02 -0.20434533421E+02  0.30480894439E+02  0.00000000000E+00 0. -1.
<mgrwt>
<rscale>  2 0.22616692E+02</rscale>
<asrwt>0</asrwt>
<pdfrwt beam="1">  1       21 0.59722704E-02 0.22616692E+02</pdfrwt>
<pdfrwt beam="2">  1       21 0.44986908E-02 0.22616692E+02</pdfrwt>
<totfact> 0.45465163E+07</totfact>
</mgrwt>
</event>
<event>
 4    1  0.9138221E+003  0.2104721E+02  0.7546771E-02  0.1725271E+00
         21   -1    0    0  502  501  0.00000000000E+00  0.00000000000E+00  0.95888086013E+00  0.95888086013E+00  0.00000000000E+00 0. -1.
         21   -1    0    0  503  502 -0.00000000000E+00 -0.00000000000E+00 -0.73200208182E+03  0.73200208182E+03  0.00000000000E+00 0. -1.
         21    1    1    2  503  504  0.88292835191E+00  0.21028684575E+02 -0.14293798470E+03  0.14447924629E+03  0.00000000000E+00 0.  1.
         21    1    1    2  504  501 -0.88292835191E+00 -0.21028684575E+02 -0.58810521626E+03  0.58848171639E+03  0.00000000000E+00 0.  1.
<mgrwt>
<rscale>  2 0.21047212E+02</rscale>
<asrwt>0</asrwt>
<pdfrwt beam="1">  1       21 0.14751982E-03 0.21047212E+02</pdfrwt>
<pdfrwt beam="2">  1       21 0.11261594E+00 0.21047212E+02</pdfrwt>
<totfact> 0.34418683E+07</totfact>
</mgrwt>
</event>
<event>
 4    1  0.9138221E+003  0.2493202E+02  0.7546771E-02  0.1661980E+00
         21   -1    0    0  504  501  0.00000000000E+00  0.00000000000E+00  0.83084196726E+01  0.83084196726E+01  0.00000000000E+00 0.  1.
         21   -1    0    0  501  502 -0.00000000000E+00 -0.00000000000E+00 -0.84703837331E+02  0.84703837331E+02  0.00000000000E+00 0.  1.
         21    1    1    2  503  502 -0.26769556084E+01  0.24787893074E+02 -0.22308533782E+02  0.33455588680E+02  0.00000000000E+00 0. -1.
         21    1    1    2  504  503  0.26769556084E+01 -0.24787893074E+02 -0.54086883877E+02  0.59556668324E+02  0.00000000000E+00 0. -1.
<mgrwt>
<rscale>  2 0.24932022E+02</rscale>
<asrwt>0</asrwt>
<pdfrwt beam="1">  1       21 0.12782184E-02 0.24932022E+02</pdfrwt>
<pdfrwt beam="2">  1       21 0.13031359E-01 0.24932022E+02</pdfrwt>
<totfact> 0.90601112E+07</totfact>
</mgrwt>
</event>
<event>
 4    1  0.9138221E+003  0.2308091E+02  0.7546771E-02  0.1690202E+00
         21   -1    0    0  502  501  0.00000000000E+00  0.00000000000E+00  0.68846878126E+01  0.68846878126E+01  0.00000000000E+00 0.  1.
         21   -1    0    0  504  502 -0.00000000000E+00 -0.00000000000E+00 -0.15480042353E+03  0.15480042353E+03  0.00000000000E+00 0.  1.
         21    1    1    2  503  501 -0.22851985249E+02  0.32427151548E+01 -0.13113011765E+03  0.13314592065E+03  0.00000000000E+00 0. -1.
         21    1    1    2  504  503  0.22851985249E+02 -0.32427151548E+01 -0.16785618069E+02  0.28539190692E+02  0.00000000000E+00 0. -1.
<mgrwt>
<rscale>  2 0.23080911E+02</rscale>
<asrwt>0</asrwt>
<pdfrwt beam="1">  1       21 0.10591827E-02 0.23080911E+02</pdfrwt>
<pdfrwt beam="2">  1       21 0.23815450E-01 0.23080911E+02</pdfrwt>
<totfact> 0.41589003E+07</totfact>
</mgrwt>
</event>
<event>
 4    1  0.9138221E+003  0.3161300E+02  0.7546771E-02  0.1580914E+00
         21   -1    0    0  502  501  0.00000000000E+00  0.00000000000E+00  0.16812049711E+02  0.16812049711E+02  0.00000000000E+00 0. -1.
         21   -1    0    0  504  502 -0.00000000000E+00 -0.00000000000E+00 -0.84608406678E+02  0.84608406678E+02  0.00000000000E+00 0. -1.
         21    1    1    2  503  501 -0.30451340027E+02 -0.84910203417E+01 -0.61553521364E+02  0.69196947390E+02  0.00000000000E+00 0.  1.
         21    1    1    2  504  503  0.30451340027E+02  0.84910203417E+01 -0.62428356038E+01  0.32223508999E+02  0.00000000000E+00 0.  1.
<mgrwt>
<rscale>  2 0.31612996E+02</rscale>
<asrwt>0</asrwt>
<pdfrwt beam="1">  1       21 0.25864691E-02 0.31612996E+02</pdfrwt>
<pdfrwt beam="2">  1       21 0.13016678E-01 0.31612996E+02</pdfrwt>
<totfact> 0.32360471E+07</totfact>
</mgrwt>
</event>
<event>
 4    1  0.9138221E+003  0.2856767E+02  0.7546771E-02  0.1614483E+00
         21   -1    0    0  502  501  0.00000000000E+00  0.00000000000E+00  0.30942544126E+02  0.30942544126E+02  0.00000000000E+00 0.  1.
         21   -1    0    0  504  502 -0.00000000000E+00 -0.00000000000E+00 -0.88694001196E+02  0.88694001196E+02  0.00000000000E+00 0.  1.
         21    1    1    2  503  501  0.23189715014E+02 -0.16683788193E+02  0.21265705823E+02  0.35613788271E+02  0.00000000000E+00 0. -1.
         21    1    1    2  504  503 -0.23189715014E+02  0.16683788193E+02 -0.79017162892E+02  0.84022757051E+02  0.00000000000E+00 0. -1.
<mgrwt>
<rscale>  2 0.28567668E+02</rscale>
<asrwt>0</asrwt>
<pdfrwt beam="1">  1       21 0.47603915E-02 0.28567668E+02</pdfrwt>
<pdfrwt beam="2">  1       21 0.13645231E-01 0.28567668E+02</pdfrwt>
<totfact> 0.11157075E+07</totfact>
</mgrwt>
</event>
<event>
 4    1  0.9138221E+003  0.3917195E+02  0.7546771E-02  0.1514395E+00
         21   -1    0    0  503  501  0.00000000000E+00  0.00000000000E+00  0.74573449978E+01  0.74573449978E+01  0.00000000000E+00 0. -1.
         21   -1    0    0  501  502 -0.00000000000E+00 -0.00000000000E+00 -0.32529944861E+03  0.32529944861E+03  0.00000000000E+00 0. -1.
         21    1    1    2  503  504  0.34423230963E+02  0.18694457755E+02 -0.58063959268E+02  0.70041879948E+02  0.00000000000E+00 0. -1.
         21    1    1    2  504  502 -0.34423230963E+02 -0.18694457755E+02 -0.25977814435E+03  0.26271491366E+03  0.00000000000E+00 0. -1.
<mgrwt>
<rscale>  2 0.39171949E+02</rscale>
<asrwt>0</asrwt>
<pdfrwt beam="1">  1       21 0.11472840E-02 0.39171949E+02</pdfrwt>
<pdfrwt beam="2">  1       21 0.50046062E-01 0.39171949E+02</pdfrwt>
<totfact> 0.10084149E+07</totfact>
</mgrwt>
</event>
<event>
 4    1  0.9138221E+003  0.2134403E+02  0.7546771E-02  0.1719850E+00
         21   -1    0    0  503  501  0.00000000000E+00  0.00000000000E+00  0.74222886075E+02  0.74222886075E+02  0.00000000000E+00 0.  1.
         21   -1    0    0  501  502 -0.00000000000E+00 -0.00000000000E+00 -0.23339873321E+02  0.23339873321E+02  0.00000000000E+00 0.  1.
         21    1    1    2  503  504 -0.21067852176E+02 -0.34224723000E+01  0.67320362155E+02  0.70622934466E+02  0.00000000000E+00 0.  1.
         21    1    1    2  504  502  0.21067852176E+02  0.34224723000E+01 -0.16437349400E+02  0.26939824930E+02  0.00000000000E+00 0.  1.
<mgrwt>
<rscale>  2 0.21344032E+02</rscale>
<asrwt>0</asrwt>
<pdfrwt beam="1">  1       21 0.11418905E-01 0.21344032E+02</pdfrwt>
<pdfrwt beam="2">  1       21 0.35907498E-02 0.21344032E+02</pdfrwt>
<totfact> 0.22184102E+07</totfact>
</mgrwt>
</event>
<event>
 4    1  0.9138221E+003  0.2699511E+02  0.7546771E-02  0.1633895E+00
         21   -1    0    0  502  501  0.00000000000E+00  0.00000000000E+00  0.15766340091E+02  0.15766340091E+02  0.00000000000E+00 0. -1.
         21   -1    0    0  503  502 -0.00000000000E+00 -0.00000000000E+00 -0.14220187006E+03  0.14220187006E+03  0.00000000000E+00 0. -1.
         21    1    1    2  503  504 -0.28937343527E+01  0.26839569218E+02 -0.12810800266E+03  0.13092133714E+03  0.00000000000E+00 0. -1.
         21    1    1    2  504  501  0.28937343527E+01 -0.26839569218E+02  0.16724726952E+01  0.27046873003E+02  0.00000000000E+00 0. -1.
<mgrwt>
<rscale>  2 0.26995114E+02</rscale>
<asrwt>0</asrwt>
<pdfrwt beam="1">  1       21 0.24255908E-02 0.26995114E+02</pdfrwt>
<pdfrwt beam="2">  1       21 0.21877211E-01 0.26995114E+02</pdfrwt>
<totfact> 0.14085113E+07</totfact>
</mgrwt>
</event>
<event>
 4    1  0.9138221E+003  0.2382720E+02  0.7546771E-02  0.1678442E+00
         21   -1    0    0  504  501  0.00000000000E+00  0.00000000000E+00  0.88759832698E+02  0.88759832698E+02  0.00000000000E+00 0.  1.
         21   -1    0    0  501  502 -0.00000000000E+00 -0.00000000000E+00 -0.65438959486E+01  0.65438959486E+01  0.00000000000E+00 0.  1.
         21    1    1    2  503  502 -0.23824296359E+02  0.37206679565E+00  0.33951773905E+02  0.41478409829E+02  0.00000000000E+00 0.  1.
         21    1    1    2  504  503  0.23824296359E+02 -0.37206679565E+00  0.48264162844E+02  0.53825318817E+02  0.00000000000E+00 0.  1.
<mgrwt>
<rscale>  2 0.23827201E+02</rscale>
<asrwt>0</asrwt>
<pdfrwt beam="1">  1       21 0.13655358E-01 0.23827201E+02</pdfrwt>
<pdfrwt beam="2">  1       21 0.10067533E-02 0.23827201E+02</pdfrwt>
<totfact> 0.11858157E+08</totfact>
</mgrwt>
</event>
<event>
 4    1  0.9138221E+003  0.2332128E+02  0.7546771E-02  0.1686355E+00
         21   -1    0    0  502  501  0.00000000000E+00  0.00000000000E+00  0.36809254912E+02  0.36809254912E+02  0.00000000000E+00 0. -1.
         21   -1    0    0  503  502 -0.00000000000E+00 -0.00000000000E+00 -0.18652401698E+02  0.18652401698E+02  0.00000000000E+00 0. -1.
         21    1    1    2  503  504 -0.42962313474E+01 -0.22922137769E+02 -0.35639120943E+01  0.23592021386E+02  0.00000000000E+00 0. -1.
         21    1    1    2  504  501  0.42962313474E+01  0.22922137769E+02  0.21720765308E+02  0.31869635223E+02  0.00000000000E+00 0. -1.
<mgrwt>
<rscale>  2 0.23321278E+02</rscale>
<asrwt>0</asrwt>
<pdfrwt beam="1">  1       21 0.56629623E-02 0.23321278E+02</pdfrwt>
<pdfrwt beam="2">  1       21 0.28696003E-02 0.23321278E+02</pdfrwt>
<totfact> 0.10108414E+08</totfact>
</mgrwt>
</event>
<event>
 4    1  0.9138221E+003  0.2097739E+02  0.7546771E-02  0.1726562E+00
         21   -1    0    0  502  501  0.00000000000E+00  0.00000000000E+00  0.10295902659E+03  0.10295902659E+03  0.00000000000E+00 0.  1.
         21   -1    0    0  503  502 -0.00000000000E+00 -0.00000000000E+00 -0.91940305614E+01  0.91940305614E+01  0.00000000000E+00 0.  1.
         21    1    1    2  503  504  0.17584726944E+02  0.11438024493E+02  0.87903878553E+02  0.90372246241E+02  0.00000000000E+00 0.  1.
         21    1    1    2  504  501 -0.17584726944E+02 -0.11438024493E+02  0.58611174808E+01  0.21780810915E+02  0.00000000000E+00 0.  1.
<mgrwt>
<rscale>  2 0.20977393E+02</rscale>
<asrwt>0</asrwt>
<pdfrwt beam="1">  1       21 0.15839849E-01 0.20977393E+02</pdfrwt>
<pdfrwt beam="2">  1       21 0.14144663E-02 0.20977393E+02</pdfrwt>
<totfact> 0.53299524E+07</totfact>
</mgrwt>
</event>
<event>
 4    1  0.9138221E+003  0.2248324E+02  0.7546771E-02  0.1700026E+00
         21   -1    0    0  502  501  0.00000000000E+00  0.00000000000E+00  0.37063428688E+02  0.37063428688E+02  0.00000000000E+00 0. -1.
         21   -1    0    0  503  502 -0.00000000000E+00 -0.00000000000E+00 -0.25927584221E+02  0.25927584221E+02  0.00000000000E+00 0. -1.
         21    1    1    2  503  504 -0.91705858697E+01  0.20527944190E+02 -0.16115318902E+02  0.27662242158E+02  0.00000000000E+00 0. -1.
         21    1    1    2  504  501  0.91705858697E+01 -0.20527944190E+02  0.27251163369E+02  0.35328770752E+02  0.00000000000E+00 0. -1.
<mgrwt>
<rscale>  2 0.22483241E+02</rscale>
<asrwt>0</asrwt>
<pdfrwt beam="1">  1       21 0.57020660E-02 0.22483241E+02</pdfrwt>
<pdfrwt beam="2">  1       21 0.39888591E-02 0.22483241E+02</pdfrwt>
<totfact> 0.59113666E+07</totfact>
</mgrwt>
</event>
<event>
 4    1  0.9138221E+003  0.2389650E+02  0.7546771E-02  0.1677377E+00
         21   -1    0    0  504  501  0.00000000000E+00  0.00000000000E+00  0.56872067411E+00  0.56872067411E+00  0.00000000000E+00 0. -1.
         21   -1    0    0  501  502 -0.00000000000E+00 -0.00000000000E+00 -0.13124440733E+04  0.13124440733E+04  0.00000000000E+00 0. -1.
         21    1    1    2  503  502 -0.70515846792E+01  0.22832383103E+02 -0.33771686683E+03  0.33856125695E+03  0.00000000000E+00 0.  1.
         21    1    1    2  504  503  0.70515846792E+01 -0.22832383103E+02 -0.97415848581E+03  0.97445153704E+03  0.00000000000E+00 0.  1.
<mgrwt>
<rscale>  2 0.23896497E+02</rscale>
<asrwt>0</asrwt>
<pdfrwt beam="1">  1       21 0.87495566E-04 0.23896497E+02</pdfrwt>
<pdfrwt beam="2">  1       21 0.20191429E+00 0.23896497E+02</pdfrwt>
<totfact> 0.18433094E+07</totfact>
</mgrwt>
</event>
<event>
 4    1  0.9138221E+003  0.2153545E+02  0.7546771E-02  0.1716412E+00
         21   -1    0    0  503  501  0.00000000000E+00  0.00000000000E+00  0.36822622268E+02  0.36822622268E+02  0.00000000000E+00 0. -1.
         21   -1    0    0  501  502 -0.00000000000E+00 -0.00000000000E+00 -0.65657810252E+02  0.65657810252E+02  0.00000000000E+00 0. -1.
         21    1    1    2  503  504  0.21300952106E+02  0.31694200896E+01  0.31646597378E+02  0.38279013962E+02  0.00000000000E+00 0.  1.
         21    1    1    2  504  502 -0.21300952106E+02 -0.31694200896E+01 -0.60481785362E+02  0.64201418558E+02  0.00000000000E+00 0.  1.
<mgrwt>
<rscale>  2 0.21535454E+02</rscale>
<asrwt>0</asrwt>
<pdfrwt beam="1">  1       21 0.56650189E-02 0.21535454E+02</pdfrwt>
<pdfrwt beam="2">  1       21 0.10101201E-01 0.21535454E+02</pdfrwt>
<totfact> 0.13250792E+07</totfact>
</mgrwt>
</event>
<event>
 4    1  0.9138221E+003  0.2841397E+02  0.7546771E-02  0.1616312E+00
         21   -1    0    0  502  501  0.00000000000E+00  0.00000000000E+00  0.10174552918E+03  0.10174552918E+03  0.00000000000E+00 0.  1.
         21   -1    0    0  503  502 -0.00000000000E+00 -0.00000000000E+00 -0.98166066677E+01  0.98166066677E+01  0.00000000000E+00 0.  1.
         21    1    1    2  503  504 -0.18551155634E+02  0.21522272809E+02  0.21543241968E+02  0.35657606155E+02  0.00000000000E+00 0.  1.
         21    1    1    2  504  501  0.18551155634E+02 -0.21522272809E+02  0.70385680547E+02  0.75904529696E+02  0.00000000000E+00 0.  1.
<mgrwt>
<rscale>  2 0.28413968E+02</rscale>
<asrwt>0</asrwt>
<pdfrwt beam="1">  1       21 0.15653158E-01 0.28413968E+02</pdfrwt>
<pdfrwt beam="2">  1       21 0.15102472E-02 0.28413968E+02</pdfrwt>
<totfact> 0.53052063E+07</totfact>
</mgrwt>
</event>
<event>
 4    1  0.9138221E+003  0.2614465E+02  0.7546771E-02  0.1645085E+00
         21   -1    0    0  504  501  0.00000000000E+00  0.00000000000E+00  0.25179000411E+01  0.25179000411E+01  0.00000000000E+00 0. -1.
         21   -1    0    0  501  502 -0.00000000000E+00 -0.00000000000E+00 -0.49795068811E+03  0.49795068811E+03  0.00000000000E+00 0. -1.
         21    1    1    2  503  502 -0.91297299964E+01  0.24498790826E+02 -0.78957741009E+02  0.83173719329E+02  0.00000000000E+00 0.  1.
         21    1    1    2  504  503  0.91297299964E+01 -0.24498790826E+02 -0.41647504706E+03  0.41729486883E+03  0.00000000000E+00 0.  1.
<mgrwt>
<rscale>  2 0.26144650E+02</rscale>
<asrwt>0</asrwt>
<pdfrwt beam="1">  1       21 0.38736896E-03 0.26144650E+02</pdfrwt>
<pdfrwt beam="2">  1       21 0.76607853E-01 0.26144650E+02</pdfrwt>
<totfact> 0.20337771E+07</totfact>
</mgrwt>
</event>
<event>
 4    1  0.9138221E+003  0.2024757E+02  0.7546771E-02  0.1740449E+00
         21   -1    0    0  503  501  0.00000000000E+00  0.00000000000E+00  0.86339621020E+01  0.86339621020E+01  0.00000000000E+00 0.  1.
         21   -1    0    0  501  502 -0.00000000000E+00 -0.00000000000E+00 -0.63585988553E+02  0.63585988553E+02  0.00000000000E+00 0.  1.
         21    1    1    2  503  504 -0.11188720869E+02  0.16875330396E+02 -0.45648029289E+02  0.49937028632E+02  0.00000000000E+00 0. -1.
         21    1    1    2  504  502  0.11188720869E+02 -0.16875330396E+02 -0.93039971616E+01  0.22282922022E+02  0.00000000000E+00 0. -1.
<mgrwt>
<rscale>  2 0.20247574E+02</rscale>
<asrwt>0</asrwt>
<pdfrwt beam="1">  1       21 0.13283018E-02 0.20247574E+02</pdfrwt>
<pdfrwt beam="2">  1       21 0.97824599E-02 0.20247574E+02</pdfrwt>
<totfact> 0.12985885E+08</totfact>
</mgrwt>
</event>
<event>
 4    1  0.9138221E+003  0.2458100E+02  0.7546771E-02  0.1667094E+00
         21   -1    0    0  504  501  0.00000000000E+00  0.00000000000E+00  0.18183254746E+01  0.18183254746E+01  0.00000000000E+00 0.  1.
         21   -1    0    0  501  502 -0.00000000000E+00 -0.00000000000E+00 -0.60648029563E+03  0.60648029563E+03  0.00000000000E+00 0.  1.
         21    1    1    2  503  502 -0.92552372893E+01  0.22772044762E+02 -0.50683338137E+03  0.50742911023E+03  0.00000000000E+00 0. -1.
         21    1    1    2  504  503  0.92552372893E+01 -0.22772044762E+02 -0.97828588785E+02  0.10086951087E+03  0.00000000000E+00 0. -1.
<mgrwt>
<rscale>  2 0.24580998E+02</rscale>
<asrwt>0</asrwt>
<pdfrwt beam="1">  1       21 0.27974226E-03 0.24580998E+02</pdfrwt>
<pdfrwt beam="2">  1       21 0.93304703E-01 0.24580998E+02</pdfrwt>
<totfact> 0.21300220E+07</totfact>
</mgrwt>
</event>
<event>
 4    1  0.9138221E+003  0.2127776E+02  0.7546771E-02  0.1721051E+00
         21   -1    0    0  503  501  0.00000000000E+00  0.00000000000E+00  0.79713070539E+02  0.79713070539E+02  0.00000000000E+00 0.  1.
         21   -1    0    0  501  502 -0.00000000000E+00 -0.00000000000E+00 -0.74829403825E+01  0.74829403825E+01  0.00000000000E+00 0.  1.
         21    1    1    2  503  504 -0.12422160653E+02  0.17275207651E+02  0.14712663624E+02  0.25869003568E+02  0.00000000000E+00 0. -1.
         21    1    1    2  504  502  0.12422160653E+02 -0.17275207651E+02  0.57517466533E+02  0.61327007354E+02  0.00000000000E+00 0. -1.
<mgrwt>
<rscale>  2 0.21277755E+02</rscale>
<asrwt>0</asrwt>
<pdfrwt beam="1">  1       21 0.12263549E-01 0.21277755E+02</pdfrwt>
<pdfrwt beam="2">  1       21 0.11512217E-02 0.21277755E+02</pdfrwt>
<totfact> 0.11240162E+08</totfact>
</mgrwt>
</event>
<event>
 4    1  0.9138221E+003  0.2273368E+02  0.7546771E-02  0.1695864E+00
         21   -1    0    0  502  501  0.00000000000E+00  0.00000000000E+00  0.90753427374E+01  0.90753427374E+01  0.00000000000E+00 0. -1.
         21   -1    0    0  503  502 -0.00000000000E+00 -0.00000000000E+00 -0.82906600503E+02  0.82906600503E+02  0.00000000000E+00 0. -1.
         21    1    1    2  503  504  0.22531796363E+02  0.30230066899E+01 -0.11180834812E+02  0.25334393300E+02  0.00000000000E+00 0.  1.
         21    1    1    2  504  501 -0.22531796363E+02 -0.30230066899E+01 -0.62650422953E+02  0.66647549940E+02  0.00000000000E+00 0.  1.
<mgrwt>
<rscale>  2 0.22733685E+02</rscale>
<asrwt>0</asrwt>
<pdfrwt beam="1">  1       21 0.13962065E-02 0.22733685E+02</pdfrwt>
<pdfrwt beam="2">  1       21 0.12754862E-01 0.22733685E+02</pdfrwt>
<totfact> 0.80135338E+07</totfact>
</mgrwt>
</event>
<event>
 4    1  0.9138221E+003  0.2053848E+02  0.7546771E-02  0.1734827E+00
         21   -1    0    0  502  501  0.00000000000E+00  0.00000000000E+00  0.15428003398E+02  0.15428003398E+02  0.00000000000E+00 0.  1.
         21   -1    0    0  504  502 -0.00000000000E+00 -0.00000000000E+00 -0.60301401940E+02  0.60301401940E+02  0.00000000000E+00 0.  1.
         21    1    1    2  503  501  0.19006525298E+02 -0.77833981900E+01 -0.50430499861E+02  0.54452406811E+02  0.00000000000E+00 0.  1.
         21    1    1    2  504  503 -0.19006525298E+02  0.77833981900E+01  0.55571013188E+01  0.21276998528E+02  0.00000000000E+00 0.  1.
<mgrwt>
<rscale>  2 0.20538483E+02</rscale>
<asrwt>0</asrwt>
<pdfrwt beam="1">  1       21 0.23735390E-02 0.20538483E+02</pdfrwt>
<pdfrwt beam="2">  1       21 0.92771388E-02 0.20538483E+02</pdfrwt>
<totfact> 0.58810293E+07</totfact>
</mgrwt>
</event>
<event>
 4    1  0.9138221E+003  0.3190077E+02  0.7546771E-02  0.1577981E+00
         21   -1    0    0  502  501  0.00000000000E+00  0.00000000000E+00  0.41774736560E+02  0.41774736560E+02  0.00000000000E+00 0. -1.
         21   -1    0    0  503  502 -0.00000000000E+00 -0.00000000000E+00 -0.43998849397E+02  0.43998849397E+02  0.00000000000E+00 0. -1.
         21    1    1    2  503  504  0.27148684030E+02  0.16751364743E+02  0.27539872760E+02  0.42143847201E+02  0.00000000000E+00 0. -1.
         21    1    1    2  504  501 -0.27148684030E+02 -0.16751364743E+02 -0.29763985597E+02  0.43629738756E+02  0.00000000000E+00 0. -1.
<mgrwt>
<rscale>  2 0.31900772E+02</rscale>
<asrwt>0</asrwt>
<pdfrwt beam="1">  1       21 0.64268826E-02 0.31900772E+02</pdfrwt>
<pdfrwt beam="2">  1       21 0.67690537E-02 0.31900772E+02</pdfrwt>
<totfact> 0.22566623E+07</totfact>
</mgrwt>
</event>
<event>
 4    1  0.9138221E+003  0.2512873E+02  0.7546771E-02  0.1659160E+00
         21   -1    0    0  503  501  0.00000000000E+00  0.00000000000E+00  0.80202391611E+01  0.80202391611E+01  0.00000000000E+00 0. -1.
         21   -1    0    0  501  502 -0.00000000000E+00 -0.00000000000E+00 -0.95300667873E+02  0.95300667873E+02  0.00000000000E+00 0. -1.
         21    1    1    2  503  504 -0.20859470126E+02  0.14011983108E+02 -0.65180328511E+02  0.69856484233E+02  0.00000000000E+00 0. -1.
         21    1    1    2  504  502  0.20859470126E+02 -0.14011983108E+02 -0.22100100201E+02  0.33464422802E+02  0.00000000000E+00 0. -1.
<mgrwt>
<rscale>  2 0.25128732E+02</rscale>
<asrwt>0</asrwt>
<pdfrwt beam="1">  1       21 0.12338830E-02 0.25128732E+02</pdfrwt>
<pdfrwt beam="2">  1       21 0.14661641E-01 0.25128732E+02</pdfrwt>
<totfact> 0.78400371E+07</totfact>
</mgrwt>
</event>
<event>
 4    1  0.9138221E+003  0.2008888E+02  0.7546771E-02  0.1743566E+00
         21   -1    0    0  504  501  0.00000000000E+00  0.00000000000E+00  0.44826998384E+02  0.44826998384E+02  0.00000000000E+00 0. -1.
         21   -1    0    0  501  502 -0.00000000000E+00 -0.00000000000E+00 -0.92879522135E+01  0.92879522135E+01  0.00000000000E+00 0. -1.
         21    1    1    2  503  502 -0.58485321994E+01  0.19218685983E+02  0.22511455465E+02  0.30171656351E+02  0.00000000000E+00 0.  1.
         21    1    1    2  504  503  0.58485321994E+01 -0.19218685983E+02  0.13027590706E+02  0.23943294247E+02  0.00000000000E+00 0.  1.
<mgrwt>
<rscale>  2 0.20088883E+02</rscale>
<asrwt>0</asrwt>
<pdfrwt beam="1">  1       21 0.68964612E-02 0.20088883E+02</pdfrwt>
<pdfrwt beam="2">  1       21 0.14289157E-02 0.20088883E+02</pdfrwt>
<totfact> 0.20477712E+08</totfact>
</mgrwt>
</event>
<event>
 4    1  0.9138221E+003  0.2671931E+02  0.7546771E-02  0.1637468E+00
         21   -1    0    0  502  501  0.00000000000E+00  0.00000000000E+00  0.15905417047E+04  0.15905417047E+04  0.00000000000E+00 0.  1.
         21   -1    0    0  504  502 -0.00000000000E+00 -0.00000000000E+00 -0.31221685341E+01  0.31221685341E+01  0.00000000000E+00 0.  1.
         21    1    1    2  503  501  0.23770162714E+02 -0.12202498521E+02  0.56376957550E+02  0.62388163526E+02  0.00000000000E+00 0.  1.
         21    1    1    2  504  503 -0.23770162714E+02  0.12202498521E+02  0.15310425786E+04  0.15312757097E+04  0.00000000000E+00 0.  1.
<mgrwt>
<rscale>  2 0.26719311E+02</rscale>
<asrwt>0</asrwt>
<pdfrwt beam="1">  1       21 0.24469808E+00 0.26719311E+02</pdfrwt>
<pdfrwt beam="2">  1       21 0.48033489E-03 0.26719311E+02</pdfrwt>
<totfact> 0.93323588E+05</totfact>
</mgrwt>
</event>
<event>
 4    1  0.9138221E+003  0.2215628E+02  0.7546771E-02  0.1705563E+00
         21   -1    0    0  503  501  0.00000000000E+00  0.00000000000E+00  0.16763883952E+02  0.16763883952E+02  0.00000000000E+00 0. -1.
         21   -1    0    0  501  502 -0.00000000000E+00 -0.00000000000E+00 -0.29924177653E+02  0.29924177653E+02  0.00000000000E+00 0. -1.
         21    1    1    2  503  504  0.11708356784E+02  0.18809975838E+02 -0.99965820188E+01  0.24307045515E+02  0.00000000000E+00 0. -1.
         21    1    1    2  504  502 -0.11708356784E+02 -0.18809975838E+02 -0.31637116822E+01  0.22381016090E+02  0.00000000000E+00 0. -1.
<mgrwt>
<rscale>  2 0.22156281E+02</rscale>
<asrwt>0</asrwt>
<pdfrwt beam="1">  1       21 0.25790591E-02 0.22156281E+02</pdfrwt>
<pdfrwt beam="2">  1       21 0.46037196E-02 0.22156281E+02</pdfrwt>
<totfact> 0.16336782E+08</totfact>
</mgrwt>
</event>
<event>
 4    1  0.9138221E+003  0.2230288E+02  0.7546771E-02  0.1703066E+00
         21   -1    0    0  502  501  0.00000000000E+00  0.00000000000E+00  0.17687567352E+01  0.17687567352E+01  0.00000000000E+00 0. -1.
         21   -1    0    0  503  502 -0.00000000000E+00 -0.00000000000E+00 -0.37317933626E+03  0.37317933626E+03  0.00000000000E+00 0. -1.
         21    1    1    2  503  504  0.20727357289E+02 -0.82337693492E+01 -0.27876654089E+03  0.27965729495E+03  0.00000000000E+00 0. -1.
         21    1    1    2  504  501 -0.20727357289E+02  0.82337693492E+01 -0.92644038637E+02  0.95290798050E+02  0.00000000000E+00 0. -1.
<mgrwt>
<rscale>  2 0.22302876E+02</rscale>
<asrwt>0</asrwt>
<pdfrwt beam="1">  1       21 0.27211606E-03 0.22302876E+02</pdfrwt>
<pdfrwt beam="2">  1       21 0.57412282E-01 0.22302876E+02</pdfrwt>
<totfact> 0.59315864E+07</totfact>
</mgrwt>
</event>
<event>
 4    1  0.9138221E+003  0.2079456E+02  0.7546771E-02  0.1729974E+00
         21   -1    0    0  504  501  0.00000000000E+00  0.00000000000E+00  0.56366496937E+02  0.56366496937E+02  0.00000000000E+00 0.  1.
         21   -1    0    0  501  502 -0.00000000000E+00 -0.00000000000E+00 -0.18063822595E+02  0.18063822595E+02  0.00000000000E+00 0.  1.
         21    1    1    2  503  502 -0.20059993377E+02  0.54781776979E+01  0.47378812795E+02  0.51741334222E+02  0.00000000000E+00 0. -1.
         21    1    1    2  504  503  0.20059993377E+02 -0.54781776979E+01 -0.90761384529E+01  0.22688985310E+02  0.00000000000E+00 0. -1.
<mgrwt>
<rscale>  2 0.20794561E+02</rscale>
<asrwt>0</asrwt>
<pdfrwt beam="1">  1       21 0.86717686E-02 0.20794561E+02</pdfrwt>
<pdfrwt beam="2">  1       21 0.27790497E-02 0.20794561E+02</pdfrwt>
<totfact> 0.51668989E+07</totfact>
</mgrwt>
</event>
<event>
 4    1  0.9138221E+003  0.2612242E+02  0.7546771E-02  0.1645385E+00
         21   -1    0    0  504  501  0.00000000000E+00  0.00000000000E+00  0.97998708613E+01  0.97998708613E+01  0.00000000000E+00 0. -1.
         21   -1    0    0  501  502 -0.00000000000E+00 -0.00000000000E+00 -0.87242021042E+02  0.87242021042E+02  0.00000000000E+00 0. -1.
         21    1    1    2  503  502  0.26059043312E+02  0.18184901941E+01 -0.16921334582E+02  0.31124141899E+02  0.00000000000E+00 0.  1.
         21    1    1    2  504  503 -0.26059043312E+02 -0.18184901941E+01 -0.60520815599E+02  0.65917750004E+02  0.00000000000E+00 0.  1.
<mgrwt>
<rscale>  2 0.26122417E+02</rscale>
<asrwt>0</asrwt>
<pdfrwt beam="1">  1       21 0.15076724E-02 0.26122417E+02</pdfrwt>
<pdfrwt beam="2">  1       21 0.13421850E-01 0.26122417E+02</pdfrwt>
<totfact> 0.67821496E+07</totfact>
</mgrwt>
</event>
<event>
 4    1  0.9138221E+003  0.2574313E+02  0.7546771E-02  0.1650552E+00
         21   -1    0    0  502  501  0.00000000000E+00  0.00000000000E+00  0.27271753457E+02  0.27271753457E+02  0.00000000000E+00 0. -1.
         21   -1    0    0  504  502 -0.00000000000E+00 -0.00000000000E+00 -0.40489009090E+02  0.40489009090E+02  0.00000000000E+00 0. -1.
         21    1    1    2  503  501 -0.25725507875E+02  0.95232252165E+00  0.14814720919E+02  0.29701593047E+02  0.00000000000E+00 0. -1.
         21    1    1    2  504  503  0.25725507875E+02 -0.95232252165E+00 -0.28031976552E+02  0.38059169500E+02  0.00000000000E+00 0. -1.
<mgrwt>
<rscale>  2 0.25743129E+02</rscale>
<asrwt>0</asrwt>
<pdfrwt beam="1">  1       21 0.41956544E-02 0.25743129E+02</pdfrwt>
<pdfrwt beam="2">  1       21 0.62290783E-02 0.25743129E+02</pdfrwt>
<totfact> 0.49006498E+07</totfact>
</mgrwt>
</event>
<event>
 4    1  0.9138221E+003  0.3275952E+02  0.7546771E-02  0.1569447E+00
         21   -1    0    0  502  501  0.00000000000E+00  0.00000000000E+00  0.98036168755E+01  0.98036168755E+01  0.00000000000E+00 0.  1.
         21   -1    0    0  504  502 -0.00000000000E+00 -0.00000000000E+00 -0.11366273137E+03  0.11366273137E+03  0.00000000000E+00 0.  1.
         21    1    1    2  503  501  0.72153485206E+01 -0.31955045565E+02 -0.63788371372E+02  0.71708733872E+02  0.00000000000E+00 0.  1.
         21    1    1    2  504  503 -0.72153485206E+01  0.31955045565E+02 -0.40070743127E+02  0.51757614378E+02  0.00000000000E+00 0.  1.
<mgrwt>
<rscale>  2 0.32759521E+02</rscale>
<asrwt>0</asrwt>
<pdfrwt beam="1">  1       21 0.15082488E-02 0.32759521E+02</pdfrwt>
<pdfrwt beam="2">  1       21 0.17486574E-01 0.32759521E+02</pdfrwt>
<totfact> 0.45217890E+07</totfact>
</mgrwt>
</event>
<event>
 4    1  0.9138221E+003  0.2900297E+02  0.7546771E-02  0.1609378E+00
         21   -1    0    0  502  501  0.00000000000E+00  0.00000000000E+00  0.22714806117E+02  0.22714806117E+02  0.00000000000E+00 0.  1.
         21   -1    0    0  503  502 -0.00000000000E+00 -0.00000000000E+00 -0.43117846252E+02  0.43117846252E+02  0.00000000000E+00 0.  1.
         21    1    1    2  503  504  0.99525544085E+01  0.27241863984E+02  0.21649794079E+01  0.29083666007E+02  0.00000000000E+00 0. -1.
         21    1    1    2  504  501 -0.99525544085E+01 -0.27241863984E+02 -0.22568019543E+02  0.36748986362E+02  0.00000000000E+00 0. -1.
<mgrwt>
<rscale>  2 0.29002974E+02</rscale>
<asrwt>0</asrwt>
<pdfrwt beam="1">  1       21 0.34945856E-02 0.29002974E+02</pdfrwt>
<pdfrwt beam="2">  1       21 0.66335147E-02 0.29002974E+02</pdfrwt>
<totfact> 0.60813904E+07</totfact>
</mgrwt>
</event>
<event>
 4    1  0.9138221E+003  0.2194615E+02  0.7546771E-02  0.1709185E+00
         21   -1    0    0  504  501  0.00000000000E+00  0.00000000000E+00  0.94167020250E+03  0.94167020250E+03  0.00000000000E+00 0.  1.
         21   -1    0    0  501  502 -0.00000000000E+00 -0.00000000000E+00 -0.71755206782E+00  0.71755206782E+00  0.00000000000E+00 0.  1.
         21    1    1    2  503  502 -0.36780867843E+01 -0.21635736877E+02  0.21795621607E+03  0.21905831543E+03  0.00000000000E+00 0.  1.
         21    1    1    2  504  503  0.36780867843E+01  0.21635736877E+02  0.72299643436E+03  0.72332943914E+03  0.00000000000E+00 0.  1.
<mgrwt>
<rscale>  2 0.21946148E+02</rscale>
<asrwt>0</asrwt>
<pdfrwt beam="1">  1       21 0.14487135E+00 0.21946148E+02</pdfrwt>
<pdfrwt beam="2">  1       21 0.11039338E-03 0.21946148E+02</pdfrwt>
<totfact> 0.29528171E+07</totfact>
</mgrwt>
</event>
<event>
 4    1  0.9138221E+003  0.2925627E+02  0.7546771E-02  0.1606458E+00
         21   -1    0    0  504  501  0.00000000000E+00  0.00000000000E+00  0.31920876841E+02  0.31920876841E+02  0.00000000000E+00 0. -1.
         21   -1    0    0  501  502 -0.00000000000E+00 -0.00000000000E+00 -0.48794470457E+02  0.48794470457E+02  0.00000000000E+00 0. -1.
         21    1    1    2  503  502 -0.29020341806E+02 -0.37080006222E+01 -0.35523637100E+02  0.46020194480E+02  0.00000000000E+00 0.  1.
         21    1    1    2  504  503  0.29020341806E+02  0.37080006222E+01  0.18650043485E+02  0.34695152819E+02  0.00000000000E+00 0.  1.
<mgrwt>
<rscale>  2 0.29256273E+02</rscale>
<asrwt>0</asrwt>
<pdfrwt beam="1">  1       21 0.49109042E-02 0.29256273E+02</pdfrwt>
<pdfrwt beam="2">  1       21 0.75068416E-02 0.29256273E+02</pdfrwt>
<totfact> 0.28952679E+07</totfact>
</mgrwt>
</event>
<event>
 4    1  0.9138221E+003  0.3471987E+02  0.7546771E-02  0.1551102E+00
         21   -1    0    0  504  501  0.00000000000E+00  0.00000000000E+00  0.75737420335E+03  0.75737420335E+03  0.00000000000E+00 0. -1.
         21   -1    0    0  501  502 -0.00000000000E+00 -0.00000000000E+00 -0.16651097759E+01  0.16651097759E+01  0.00000000000E+00 0. -1.
         21    1    1    2  503  502 -0.31787136385E+02 -0.13965927654E+02  0.29813606667E+03  0.30015093440E+03  0.00000000000E+00 0.  1.
         21    1    1    2  504  503  0.31787136385E+02  0.13965927654E+02  0.45757302691E+03  0.45888837872E+03  0.00000000000E+00 0.  1.
<mgrwt>
<rscale>  2 0.34719867E+02</rscale>
<asrwt>0</asrwt>
<pdfrwt beam="1">  1       21 0.11651883E+00 0.34719867E+02</pdfrwt>
<pdfrwt beam="2">  1       21 0.25617134E-03 0.34719867E+02</pdfrwt>
<totfact> 0.15586129E+07</totfact>
</mgrwt>
</event>
<event>
 4    1  0.9138221E+003  0.2165825E+02  0.7546771E-02  0.1714230E+00
         21   -1    0    0  502  501  0.00000000000E+00  0.00000000000E+00  0.17228079493E+02  0.17228079493E+02  0.00000000000E+00 0. -1.
         21   -1    0    0  503  502 -0.00000000000E+00 -0.00000000000E+00 -0.36085747608E+02  0.36085747608E+02  0.00000000000E+00 0. -1.
         21    1    1    2  503  504 -0.18717080139E+02  0.10897279051E+02 -0.22636093919E+02  0.31328461941E+02  0.00000000000E+00 0. -1.
         21    1    1    2  504  501  0.18717080139E+02 -0.10897279051E+02  0.37784258046E+01  0.21985365160E+02  0.00000000000E+00 0. -1.
<mgrwt>
<rscale>  2 0.21658250E+02</rscale>
<asrwt>0</asrwt>
<pdfrwt beam="1">  1       21 0.26504738E-02 0.21658250E+02</pdfrwt>
<pdfrwt beam="2">  1       21 0.55516534E-02 0.21658250E+02</pdfrwt>
<totfact> 0.11549512E+08</totfact>
</mgrwt>
</event>
<event>
 4    1  0.9138221E+003  0.2875562E+02  0.7546771E-02  0.1612265E+00
         21   -1    0    0  503  501  0.00000000000E+00  0.00000000000E+00  0.34525001174E+02  0.34525001174E+02  0.00000000000E+00 0. -1.
         21   -1    0    0  501  502 -0.00000000000E+00 -0.00000000000E+00 -0.33337973596E+02  0.33337973596E+02  0.00000000000E+00 0. -1.
         21    1    1    2  503  504  0.28720513042E+02  0.14205651239E+01 -0.17412232383E+02  0.33616539251E+02  0.00000000000E+00 0. -1.
         21    1    1    2  504  502 -0.28720513042E+02 -0.14205651239E+01  0.18599259960E+02  0.34246435519E+02  0.00000000000E+00 0. -1.
<mgrwt>
<rscale>  2 0.28755623E+02</rscale>
<asrwt>0</asrwt>
<pdfrwt beam="1">  1       21 0.53115386E-02 0.28755623E+02</pdfrwt>
<pdfrwt beam="2">  1       21 0.51289190E-02 0.28755623E+02</pdfrwt>
<totfact> 0.47196571E+07</totfact>
</mgrwt>
</event>
<event>
 4    1  0.9138221E+003  0.2018043E+02  0.7546771E-02  0.1741764E+00
         21   -1    0    0  502  501  0.00000000000E+00  0.00000000000E+00  0.39311668320E+03  0.39311668320E+03  0.00000000000E+00 0. -1.
         21   -1    0    0  504  502 -0.00000000000E+00 -0.00000000000E+00 -0.20632679453E+01  0.20632679453E+01  0.00000000000E+00 0. -1.
         21    1    1    2  503  501 -0.36205745905E+01  0.19852987283E+02  0.33495127146E+03  0.33555864453E+03  0.00000000000E+00 0.  1.
         21    1    1    2  504  503  0.36205745905E+01 -0.19852987283E+02  0.56102143789E+02  0.59621306612E+02  0.00000000000E+00 0.  1.
<mgrwt>
<rscale>  2 0.20180428E+02</rscale>
<asrwt>0</asrwt>
<pdfrwt beam="1">  1       21 0.60479430E-01 0.20180428E+02</pdfrwt>
<pdfrwt beam="2">  1       21 0.31742615E-03 0.20180428E+02</pdfrwt>
<totfact> 0.41753353E+07</totfact>
</mgrwt>
</event>
<event>
 4    1  0.9138221E+003  0.2059781E+02  0.7546771E-02  0.1733695E+00
         21   -1    0    0  503  501  0.00000000000E+00  0.00000000000E+00  0.57609638655E+00  0.57609638655E+00  0.00000000000E+00 0.  1.
         21   -1    0    0  501  502 -0.00000000000E+00 -0.00000000000E+00 -0.76220361558E+03  0.76220361558E+03  0.00000000000E+00 0.  1.
         21    1    1    2  503  504  0.16137798027E+02  0.12800050214E+02 -0.31071672400E+03  0.31139870324E+03  0.00000000000E+00 0. -1.
         21    1    1    2  504  502 -0.16137798027E+02 -0.12800050214E+02 -0.45091079519E+03  0.45138100872E+03  0.00000000000E+00 0. -1.
<mgrwt>
<rscale>  2 0.20597811E+02</rscale>
<asrwt>0</asrwt>
<pdfrwt beam="1">  1       21 0.88630197E-04 0.20597811E+02</pdfrwt>
<pdfrwt beam="2">  1       21 0.11726212E+00 0.20597811E+02</pdfrwt>
<totfact> 0.64616287E+07</totfact>
</mgrwt>
</event>
<event>
 4    1  0.9138221E+003  0.2919281E+02  0.7546771E-02  0.1607186E+00
         21   -1    0    0  502  501  0.00000000000E+00  0.00000000000E+00  0.41678744989E+02  0.41678744989E+02  0.00000000000E+00 0.  1.
         21   -1    0    0  503  502 -0.00000000000E+00 -0.00000000000E+00 -0.24342303793E+02  0.24342303793E+02  0.00000000000E+00 0.  1.
         21    1    1    2  503  504  0.28581485991E+02  0.59429555734E+01  0.21872737103E+02  0.36477893179E+02  0.00000000000E+00 0.  1.
         21    1    1    2  504  501 -0.28581485991E+02 -0.59429555734E+01 -0.45362959071E+01  0.29543155603E+02  0.00000000000E+00 0.  1.
<mgrwt>
<rscale>  2 0.29192808E+02</rscale>
<asrwt>0</asrwt>
<pdfrwt beam="1">  1       21 0.64121146E-02 0.29192808E+02</pdfrwt>
<pdfrwt beam="2">  1       21 0.37449698E-02 0.29192808E+02</pdfrwt>
<totfact> 0.57692056E+07</totfact>
</mgrwt>
</event>
<event>
 4    1  0.9138221E+003  0.2317836E+02  0.7546771E-02  0.1688635E+00
         21   -1    0    0  504  501  0.00000000000E+00  0.00000000000E+00  0.16243889505E+04  0.16243889505E+04  0.00000000000E+00 0. -1.
         21   -1    0    0  501  502 -0.00000000000E+00 -0.00000000000E+00 -0.41401111529E+00  0.41401111529E+00  0.00000000000E+00 0. -1.
         21    1    1    2  503  502 -0.12777607634E+02  0.19338277571E+02  0.11763507769E+04  0.11765791034E+04  0.00000000000E+00 0.  1.
         21    1    1    2  504  503  0.12777607634E+02 -0.19338277571E+02  0.44762416245E+03  0.44822385818E+03  0.00000000000E+00 0.  1.
<mgrwt>
<rscale>  2 0.23178357E+02</rscale>
<asrwt>0</asrwt>
<pdfrwt beam="1">  1       21 0.24990089E+00 0.23178357E+02</pdfrwt>
<pdfrwt beam="2">  1       21 0.63695318E-04 0.23178357E+02</pdfrwt>
<totfact> 0.16167526E+07</totfact>
</mgrwt>
</event>
<event>
 4    1  0.9138221E+003  0.2598132E+02  0.7546771E-02  0.1647294E+00
         21   -1    0    0  502  501  0.00000000000E+00  0.00000000000E+00  0.43202646896E+02  0.43202646896E+02  0.00000000000E+00 0. -1.
         21   -1    0    0  504  502 -0.00000000000E+00 -0.00000000000E+00 -0.26805790954E+02  0.26805790954E+02  0.00000000000E+00 0. -1.
         21    1    1    2  503  501 -0.24946463191E+02  0.72596712850E+01  0.30805689758E+02  0.40299123742E+02  0.00000000000E+00 0.  1.
         21    1    1    2  504  503  0.24946463191E+02 -0.72596712850E+01 -0.14408833816E+02  0.29709314109E+02  0.00000000000E+00 0.  1.
<mgrwt>
<rscale>  2 0.25981317E+02</rscale>
<asrwt>0</asrwt>
<pdfrwt beam="1">  1       21 0.66465611E-02 0.25981317E+02</pdfrwt>
<pdfrwt beam="2">  1       21 0.41239678E-02 0.25981317E+02</pdfrwt>
<totfact> 0.45438886E+07</totfact>
</mgrwt>
</event>
<event>
 4    1  0.9138221E+003  0.3293733E+02  0.7546771E-02  0.1567719E+00
         21   -1    0    0  502  501  0.00000000000E+00  0.00000000000E+00  0.52721865120E+03  0.52721865120E+03  0.00000000000E+00 0.  1.
         21   -1    0    0  504  502 -0.00000000000E+00 -0.00000000000E+00 -0.29606670094E+01  0.29606670094E+01  0.00000000000E+00 0.  1.
         21    1    1    2  503  501 -0.57525070269E+00  0.32932305335E+02  0.11573290717E+03  0.12032860612E+03  0.00000000000E+00 0. -1.
         21    1    1    2  504  503  0.57525070269E+00 -0.32932305335E+02  0.40852507701E+03  0.40985071209E+03  0.00000000000E+00 0. -1.
<mgrwt>
<rscale>  2 0.32937329E+02</rscale>
<asrwt>0</asrwt>
<pdfrwt beam="1">  1       21 0.81110487E-01 0.32937329E+02</pdfrwt>
<pdfrwt beam="2">  1       21 0.45548765E-03 0.32937329E+02</pdfrwt>
<totfact> 0.14722743E+07</totfact>
</mgrwt>
</event>
<event>
 4    1  0.9138221E+003  0.2275282E+02  0.7546771E-02  0.1695548E+00
         21   -1    0    0  502  501  0.00000000000E+00  0.00000000000E+00  0.27883687650E+02  0.27883687650E+02  0.00000000000E+00 0.  1.
         21   -1    0    0  504  502 -0.00000000000E+00 -0.00000000000E+00 -0.21970357983E+02  0.21970357983E+02  0.00000000000E+00 0.  1.
         21    1    1    2  503  501 -0.16684108445E+02 -0.15470338315E+02  0.12768815320E+02  0.26090869799E+02  0.00000000000E+00 0. -1.
         21    1    1    2  504  503  0.16684108445E+02  0.15470338315E+02 -0.68554856536E+01  0.23763175834E+02  0.00000000000E+00 0. -1.
<mgrwt>
<rscale>  2 0.22752821E+02</rscale>
<asrwt>0</asrwt>
<pdfrwt beam="1">  1       21 0.42897981E-02 0.22752821E+02</pdfrwt>
<pdfrwt beam="2">  1       21 0.33800551E-02 0.22752821E+02</pdfrwt>
<totfact> 0.12093274E+08</totfact>
</mgrwt>
</event>
<event>
 4    1  0.9138221E+003  0.2269518E+02  0.7546771E-02  0.1696499E+00
         21   -1    0    0  502  501  0.00000000000E+00  0.00000000000E+00  0.11002429973E+03  0.11002429973E+03  0.00000000000E+00 0.  1.
         21   -1    0    0  503  502 -0.00000000000E+00 -0.00000000000E+00 -0.61854905562E+01  0.61854905562E+01  0.00000000000E+00 0.  1.
         21    1    1    2  503  504  0.22296255270E+02 -0.42365272363E+01  0.23267191555E+02  0.32502820876E+02  0.00000000000E+00 0. -1.
         21    1    1    2  504  501 -0.22296255270E+02  0.42365272363E+01  0.80571617618E+02  0.83706969409E+02  0.00000000000E+00 0. -1.
<mgrwt>
<rscale>  2 0.22695179E+02</rscale>
<asrwt>0</asrwt>
<pdfrwt beam="1">  1       21 0.16926814E-01 0.22695179E+02</pdfrwt>
<pdfrwt beam="2">  1       21 0.95161402E-03 0.22695179E+02</pdfrwt>
<totfact> 0.88259386E+07</totfact>
</mgrwt>
</event>
<event>
 4    1  0.9138221E+003  0.2331573E+02  0.7546771E-02  0.1686443E+00
         21   -1    0    0  504  501  0.00000000000E+00  0.00000000000E+00  0.15020292782E+02  0.15020292782E+02  0.00000000000E+00 0.  1.
         21   -1    0    0  501  502 -0.00000000000E+00 -0.00000000000E+00 -0.56856693382E+02  0.56856693382E+02  0.00000000000E+00 0.  1.
         21    1    1    2  503  502  0.68501920665E+01  0.22286725566E+02  0.74773130880E+00  0.23327716774E+02  0.00000000000E+00 0. -1.
         21    1    1    2  504  503 -0.68501920665E+01 -0.22286725566E+02 -0.42584131910E+02  0.48549269390E+02  0.00000000000E+00 0. -1.
<mgrwt>
<rscale>  2 0.23315730E+02</rscale>
<asrwt>0</asrwt>
<pdfrwt beam="1">  1       21 0.23108143E-02 0.23315730E+02</pdfrwt>
<pdfrwt beam="2">  1       21 0.87471836E-02 0.23315730E+02</pdfrwt>
<totfact> 0.69859772E+07</totfact>
</mgrwt>
</event>
<event>
 4    1  0.9138221E+003  0.2166926E+02  0.7546771E-02  0.1714036E+00
         21   -1    0    0  502  501  0.00000000000E+00  0.00000000000E+00  0.37892952073E+02  0.37892952073E+02  0.00000000000E+00 0.  1.
         21   -1    0    0  504  502 -0.00000000000E+00 -0.00000000000E+00 -0.27209119969E+02  0.27209119969E+02  0.00000000000E+00 0.  1.
         21    1    1    2  503  501  0.61402611444E+01  0.20781092746E+02 -0.18679269178E+02  0.28608944749E+02  0.00000000000E+00 0.  1.
         21    1    1    2  504  503 -0.61402611444E+01 -0.20781092746E+02  0.29363101282E+02  0.36493127292E+02  0.00000000000E+00 0.  1.
<mgrwt>
<rscale>  2 0.21669255E+02</rscale>
<asrwt>0</asrwt>
<pdfrwt beam="1">  1       21 0.58296849E-02 0.21669255E+02</pdfrwt>
<pdfrwt beam="2">  1       21 0.41860184E-02 0.21669255E+02</pdfrwt>
<totfact> 0.52363612E+07</totfact>
</mgrwt>
</event>
<event>
 4    1  0.9138221E+003  0.2302028E+02  0.7546771E-02  0.1691182E+00
         21   -1    0    0  503  501  0.00000000000E+00  0.00000000000E+00  0.70944894612E+01  0.70944894612E+01  0.00000000000E+00 0.  1.
         21   -1    0    0  501  502 -0.00000000000E+00 -0.00000000000E+00 -0.21423716739E+03  0.21423716739E+03  0.00000000000E+00 0.  1.
         21    1    1    2  503  504  0.23020007008E+02 -0.11183945673E+00 -0.19288473323E+03  0.19425358052E+03  0.00000000000E+00 0. -1.
         21    1    1    2  504  502 -0.23020007008E+02  0.11183945673E+00 -0.14257944692E+02  0.27078076327E+02  0.00000000000E+00 0. -1.
<mgrwt>
<rscale>  2 0.23020279E+02</rscale>
<asrwt>0</asrwt>
<pdfrwt beam="1">  1       21 0.10914599E-02 0.23020279E+02</pdfrwt>
<pdfrwt beam="2">  1       21 0.32959565E-01 0.23020279E+02</pdfrwt>
<totfact> 0.22094136E+07</totfact>
</mgrwt>
</event>
<event>
 4    1  0.9138221E+003  0.2267404E+02  0.7546771E-02  0.1696849E+00
         21   -1    0    0  504  501  0.00000000000E+00  0.00000000000E+00  0.28141247095E+01  0.28141247095E+01  0.00000000000E+00 0.  1.
         21   -1    0    0  501  502 -0.00000000000E+00 -0.00000000000E+00 -0.20825910140E+03  0.20825910140E+03  0.00000000000E+00 0.  1.
         21    1    1    2  503  502  0.14440746533E+01  0.22628012725E+02 -0.13970183956E+03  0.14152991305E+03  0.00000000000E+00 0. -1.
         21    1    1    2  504  503 -0.14440746533E+01 -0.22628012725E+02 -0.65743137126E+02  0.69543313055E+02  0.00000000000E+00 0. -1.
<mgrwt>
<rscale>  2 0.22674045E+02</rscale>
<asrwt>0</asrwt>
<pdfrwt beam="1">  1       21 0.43294225E-03 0.22674045E+02</pdfrwt>
<pdfrwt beam="2">  1       21 0.32039863E-01 0.22674045E+02</pdfrwt>
<totfact> 0.91684795E+07</totfact>
</mgrwt>
</event>
<event>
 4    1  0.9138221E+003  0.2679685E+02  0.7546771E-02  0.1636458E+00
         21   -1    0    0  503  501  0.00000000000E+00  0.00000000000E+00  0.40567688950E+02  0.40567688950E+02  0.00000000000E+00 0.  1.
         21   -1    0    0  501  502 -0.00000000000E+00 -0.00000000000E+00 -0.13047259438E+03  0.13047259438E+03  0.00000000000E+00 0.  1.
         21    1    1    2  503  504 -0.45492493088E+01 -0.26407872116E+02  0.34555293566E+02  0.43728019534E+02  0.00000000000E+00 0. -1.
         21    1    1    2  504  502  0.45492493088E+01  0.26407872116E+02 -0.12446019899E+03  0.12731226379E+03  0.00000000000E+00 0. -1.
<mgrwt>
<rscale>  2 0.26796854E+02</rscale>
<asrwt>0</asrwt>
<pdfrwt beam="1">  1       21 0.62411830E-02 0.26796854E+02</pdfrwt>
<pdfrwt beam="2">  1       21 0.20072707E-01 0.26796854E+02</pdfrwt>
<totfact> 0.36632626E+06</totfact>
</mgrwt>
</event>
<event>
 4    1  0.9138221E+003  0.2326493E+02  0.7546771E-02  0.1687251E+00
         21   -1    0    0  502  501  0.00000000000E+00  0.00000000000E+00  0.37972125978E+03  0.37972125978E+03  0.00000000000E+00 0. -1.
         21   -1    0    0  504  502 -0.00000000000E+00 -0.00000000000E+00 -0.22070732102E+01  0.22070732102E+01  0.00000000000E+00 0. -1.
         21    1    1    2  503  501  0.23240766855E+02 -0.10599776234E+01  0.75110981884E+02  0.78631522916E+02  0.00000000000E+00 0. -1.
         21    1    1    2  504  503 -0.23240766855E+02  0.10599776234E+01  0.30240320468E+03  0.30329681007E+03  0.00000000000E+00 0. -1.
<mgrwt>
<rscale>  2 0.23264926E+02</rscale>
<asrwt>0</asrwt>
<pdfrwt beam="1">  1       21 0.58418603E-01 0.23264926E+02</pdfrwt>
<pdfrwt beam="2">  1       21 0.33955003E-03 0.23264926E+02</pdfrwt>
<totfact> 0.41914447E+07</totfact>
</mgrwt>
</event>
<event>
 4    1  0.9138221E+003  0.2538517E+02  0.7546771E-02  0.1655530E+00
         21   -1    0    0  502  501  0.00000000000E+00  0.00000000000E+00  0.99061784325E+03  0.99061784325E+03  0.00000000000E+00 0.  1.
         21   -1    0    0  503  502 -0.00000000000E+00 -0.00000000000E+00 -0.73691819793E+00  0.73691819793E+00  0.00000000000E+00 0.  1.
         21    1    1    2  503  504 -0.15610721855E+02  0.20017798538E+02  0.32520729088E+03  0.32619654955E+03  0.00000000000E+00 0. -1.
         21    1    1    2  504  501  0.15610721855E+02 -0.20017798538E+02  0.66467363417E+03  0.66515821190E+03  0.00000000000E+00 0. -1.
<mgrwt>
<rscale>  2 0.25385171E+02</rscale>
<asrwt>0</asrwt>
<pdfrwt beam="1">  1       21 0.15240168E+00 0.25385171E+02</pdfrwt>
<pdfrwt beam="2">  1       21 0.11337282E-03 0.25385171E+02</pdfrwt>
<totfact> 0.25869793E+07</totfact>
</mgrwt>
</event>
<event>
 4    1  0.9138221E+003  0.2064346E+02  0.7546771E-02  0.1732827E+00
         21   -1    0    0  502  501  0.00000000000E+00  0.00000000000E+00  0.24256149298E+01  0.24256149298E+01  0.00000000000E+00 0.  1.
         21   -1    0    0  504  502 -0.00000000000E+00 -0.00000000000E+00 -0.23476702434E+03  0.23476702434E+03  0.00000000000E+00 0.  1.
         21    1    1    2  503  501  0.18350670971E+01  0.20561735697E+02 -0.56677441516E+02  0.60319854301E+02  0.00000000000E+00 0. -1.
         21    1    1    2  504  503 -0.18350670971E+01 -0.20561735697E+02 -0.17566396789E+03  0.17687278497E+03  0.00000000000E+00 0. -1.
<mgrwt>
<rscale>  2 0.20643460E+02</rscale>
<asrwt>0</asrwt>
<pdfrwt beam="1">  1       21 0.37317144E-03 0.20643460E+02</pdfrwt>
<pdfrwt beam="2">  1       21 0.36118012E-01 0.20643460E+02</pdfrwt>
<totfact> 0.89128639E+07</totfact>
</mgrwt>
</event>
<event>
 4    1  0.9138221E+003  0.2080446E+02  0.7546771E-02  0.1729788E+00
         21   -1    0    0  504  501  0.00000000000E+00  0.00000000000E+00  0.17195747520E+02  0.17195747520E+02  0.00000000000E+00 0.  1.
         21   -1    0    0  501  502 -0.00000000000E+00 -0.00000000000E+00 -0.47170058092E+02  0.47170058092E+02  0.00000000000E+00 0.  1.
         21    1    1    2  503  502  0.18700393392E+02  0.91170655363E+01 -0.36965701744E+02  0.42418023320E+02  0.00000000000E+00 0.  1.
         21    1    1    2  504  503 -0.18700393392E+02 -0.91170655363E+01  0.69913911712E+01  0.21947782292E+02  0.00000000000E+00 0.  1.
<mgrwt>
<rscale>  2 0.20804461E+02</rscale>
<asrwt>0</asrwt>
<pdfrwt beam="1">  1       21 0.26454997E-02 0.20804461E+02</pdfrwt>
<pdfrwt beam="2">  1       21 0.72569319E-02 0.20804461E+02</pdfrwt>
<totfact> 0.74466602E+07</totfact>
</mgrwt>
</event>
<event>
 4    1  0.9138221E+003  0.2157103E+02  0.7546771E-02  0.1715778E+00
         21   -1    0    0  504  501  0.00000000000E+00  0.00000000000E+00  0.20991968509E+02  0.20991968509E+02  0.00000000000E+00 0. -1.
         21   -1    0    0  501  502 -0.00000000000E+00 -0.00000000000E+00 -0.39707679846E+02  0.39707679846E+02  0.00000000000E+00 0. -1.
         21    1    1    2  503  502 -0.20986100611E+02 -0.49892880855E+01 -0.29530074203E+02  0.36569587048E+02  0.00000000000E+00 0.  1.
         21    1    1    2  504  503  0.20986100611E+02  0.49892880855E+01  0.10814362867E+02  0.24130061307E+02  0.00000000000E+00 0.  1.
<mgrwt>
<rscale>  2 0.21571032E+02</rscale>
<asrwt>0</asrwt>
<pdfrwt beam="1">  1       21 0.32295336E-02 0.21571032E+02</pdfrwt>
<pdfrwt beam="2">  1       21 0.61088738E-02 0.21571032E+02</pdfrwt>
<totfact> 0.72848595E+07</totfact>
</mgrwt>
</event>
<event>
 4    1  0.9138221E+003  0.2836146E+02  0.7546771E-02  0.1616940E+00
         21   -1    0    0  504  501  0.00000000000E+00  0.00000000000E+00  0.36376998976E+03  0.36376998976E+03  0.00000000000E+00 0. -1.
         21   -1    0    0  501  502 -0.00000000000E+00 -0.00000000000E+00 -0.41114306476E+01  0.41114306476E+01  0.00000000000E+00 0. -1.
         21    1    1    2  503  502  0.19980592003E+02 -0.20128290994E+02  0.30487916310E+03  0.30619548698E+03  0.00000000000E+00 0.  1.
         21    1    1    2  504  503 -0.19980592003E+02  0.20128290994E+02  0.54779396008E+02  0.61685933422E+02  0.00000000000E+00 0.  1.
<mgrwt>
<rscale>  2 0.28361455E+02</rscale>
<asrwt>0</asrwt>
<pdfrwt beam="1">  1       21 0.55964589E-01 0.28361455E+02</pdfrwt>
<pdfrwt beam="2">  1       21 0.63252808E-03 0.28361455E+02</pdfrwt>
<totfact> 0.18941689E+07</totfact>
</mgrwt>
</event>
<event>
 4    1  0.9138221E+003  0.2071670E+02  0.7546771E-02  0.1731440E+00
         21   -1    0    0  502  501  0.00000000000E+00  0.00000000000E+00  0.15279504094E+02  0.15279504094E+02  0.00000000000E+00 0.  1.
         21   -1    0    0  504  502 -0.00000000000E+00 -0.00000000000E+00 -0.71931009386E+02  0.71931009386E+02  0.00000000000E+00 0.  1.
         21    1    1    2  503  501  0.10362806975E+02  0.17938615499E+02 -0.62368718446E+02  0.65719393903E+02  0.00000000000E+00 0. -1.
         21    1    1    2  504  503 -0.10362806975E+02 -0.17938615499E+02  0.57172131534E+01  0.21491119577E+02  0.00000000000E+00 0. -1.
<mgrwt>
<rscale>  2 0.20716701E+02</rscale>
<asrwt>0</asrwt>
<pdfrwt beam="1">  1       21 0.23506930E-02 0.20716701E+02</pdfrwt>
<pdfrwt beam="2">  1       21 0.11066309E-01 0.20716701E+02</pdfrwt>
<totfact> 0.44738797E+07</totfact>
</mgrwt>
</event>
<event>
 4    1  0.9138221E+003  0.2349039E+02  0.7546771E-02  0.1683682E+00
         21   -1    0    0  502  501  0.00000000000E+00  0.00000000000E+00  0.65883552512E+02  0.65883552512E+02  0.00000000000E+00 0.  1.
         21   -1    0    0  504  502 -0.00000000000E+00 -0.00000000000E+00 -0.10691482690E+02  0.10691482690E+02  0.00000000000E+00 0.  1.
         21    1    1    2  503  501 -0.15788917002E+02  0.17392774641E+02  0.97755726518E+01  0.25443276725E+02  0.00000000000E+00 0. -1.
         21    1    1    2  504  503  0.15788917002E+02 -0.17392774641E+02  0.45416497171E+02  0.51131758478E+02  0.00000000000E+00 0. -1.
<mgrwt>
<rscale>  2 0.23490392E+02</rscale>
<asrwt>0</asrwt>
<pdfrwt beam="1">  1       21 0.10135931E-01 0.23490392E+02</pdfrwt>
<pdfrwt beam="2">  1       21 0.16448435E-02 0.23490392E+02</pdfrwt>
<totfact> 0.92487224E+07</totfact>
</mgrwt>
</event>
<event>
 4    1  0.9138221E+003  0.2051052E+02  0.7546771E-02  0.1735362E+00
         21   -1    0    0  502  501  0.00000000000E+00  0.00000000000E+00  0.43737493977E+01  0.43737493977E+01  0.00000000000E+00 0. -1.
         21   -1    0    0  504  502 -0.00000000000E+00 -0.00000000000E+00 -0.11780761726E+03  0.11780761726E+03  0.00000000000E+00 0. -1.
         21    1    1    2  503  501 -0.14891539637E+02  0.14104020093E+02 -0.82890338736E+02  0.85390219530E+02  0.00000000000E+00 0.  1.
         21    1    1    2  504  503  0.14891539637E+02 -0.14104020093E+02 -0.30543529129E+02  0.36791147131E+02  0.00000000000E+00 0.  1.
<mgrwt>
<rscale>  2 0.20510518E+02</rscale>
<asrwt>0</asrwt>
<pdfrwt beam="1">  1       21 0.67288461E-03 0.20510518E+02</pdfrwt>
<pdfrwt beam="2">  1       21 0.18124246E-01 0.20510518E+02</pdfrwt>
<totfact> 0.12775823E+08</totfact>
</mgrwt>
</event>
<event>
 4    1  0.9138221E+003  0.2195244E+02  0.7546771E-02  0.1709076E+00
         21   -1    0    0  504  501  0.00000000000E+00  0.00000000000E+00  0.50036288886E+01  0.50036288886E+01  0.00000000000E+00 0.  1.
         21   -1    0    0  501  502 -0.00000000000E+00 -0.00000000000E+00 -0.14725452132E+03  0.14725452132E+03  0.00000000000E+00 0.  1.
         21    1    1    2  503  502  0.21944269576E+02 -0.59877751067E+00 -0.11590259700E+03  0.11796322094E+03  0.00000000000E+00 0.  1.
         21    1    1    2  504  503 -0.21944269576E+02  0.59877751067E+00 -0.26348295427E+02  0.34294929270E+02  0.00000000000E+00 0.  1.
<mgrwt>
<rscale>  2 0.21952437E+02</rscale>
<asrwt>0</asrwt>
<pdfrwt beam="1">  1       21 0.76978905E-03 0.21952437E+02</pdfrwt>
<pdfrwt beam="2">  1       21 0.22654542E-01 0.21952437E+02</pdfrwt>
<totfact> 0.72316159E+07</totfact>
</mgrwt>
</event>
<event>
 4    1  0.9138221E+003  0.2471545E+02  0.7546771E-02  0.1665123E+00
         21   -1    0    0  504  501  0.00000000000E+00  0.00000000000E+00  0.98479259715E+03  0.98479259715E+03  0.00000000000E+00 0. -1.
         21   -1    0    0  501  502 -0.00000000000E+00 -0.00000000000E+00 -0.16300195138E+01  0.16300195138E+01  0.00000000000E+00 0. -1.
         21    1    1    2  503  502 -0.64095069906E+01 -0.23869888206E+02  0.10339521797E+03  0.10630815792E+03  0.00000000000E+00 0.  1.
         21    1    1    2  504  503  0.64095069906E+01  0.23869888206E+02  0.87976735967E+03  0.88011445874E+03  0.00000000000E+00 0.  1.
<mgrwt>
<rscale>  2 0.24715447E+02</rscale>
<asrwt>0</asrwt>
<pdfrwt beam="1">  1       21 0.15150608E+00 0.24715447E+02</pdfrwt>
<pdfrwt beam="2">  1       21 0.25077302E-03 0.24715447E+02</pdfrwt>
<totfact> 0.83133631E+06</totfact>
</mgrwt>
</event>
<event>
 4    1  0.9138221E+003  0.2681055E+02  0.7546771E-02  0.1636280E+00
         21   -1    0    0  502  501  0.00000000000E+00  0.00000000000E+00  0.38257299940E+02  0.38257299940E+02  0.00000000000E+00 0. -1.
         21   -1    0    0  503  502 -0.00000000000E+00 -0.00000000000E+00 -0.20655056433E+02  0.20655056433E+02  0.00000000000E+00 0. -1.
         21    1    1    2  503  504 -0.21339111903E+02  0.16231071099E+02 -0.53279074699E-01  0.26810598735E+02  0.00000000000E+00 0. -1.
         21    1    1    2  504  501  0.21339111903E+02 -0.16231071099E+02  0.17655522582E+02  0.32101757639E+02  0.00000000000E+00 0. -1.
<mgrwt>
<rscale>  2 0.26810546E+02</rscale>
<asrwt>0</asrwt>
<pdfrwt beam="1">  1       21 0.58857384E-02 0.26810546E+02</pdfrwt>
<pdfrwt beam="2">  1       21 0.31777010E-02 0.26810546E+02</pdfrwt>
<totfact> 0.84100270E+07</totfact>
</mgrwt>
</event>
<event>
 4    1  0.9138221E+003  0.3308544E+02  0.7546771E-02  0.1566291E+00
         21   -1    0    0  502  501  0.00000000000E+00  0.00000000000E+00  0.10237944137E+01  0.10237944137E+01  0.00000000000E+00 0. -1.
         21   -1    0    0  504  502 -0.00000000000E+00 -0.00000000000E+00 -0.15027555580E+04  0.15027555580E+04  0.00000000000E+00 0. -1.
         21    1    1    2  503  501 -0.30563277318E+00 -0.33084029900E+02 -0.34700698099E+03  0.34858068119E+03  0.00000000000E+00 0.  1.
         21    1    1    2  504  503  0.30563277318E+00  0.33084029900E+02 -0.11547247826E+04  0.11551986712E+04  0.00000000000E+00 0.  1.
<mgrwt>
<rscale>  2 0.33085442E+02</rscale>
<asrwt>0</asrwt>
<pdfrwt beam="1">  1       21 0.15750603E-03 0.33085442E+02</pdfrwt>
<pdfrwt beam="2">  1       21 0.23119434E+00 0.33085442E+02</pdfrwt>
<totfact> 0.56510621E+06</totfact>
</mgrwt>
</event>
<event>
 4    1  0.9138221E+003  0.2541956E+02  0.7546771E-02  0.1655048E+00
         21   -1    0    0  502  501  0.00000000000E+00  0.00000000000E+00  0.26147594302E+03  0.26147594302E+03  0.00000000000E+00 0.  1.
         21   -1    0    0  504  502 -0.00000000000E+00 -0.00000000000E+00 -0.87599388575E+01  0.87599388575E+01  0.00000000000E+00 0.  1.
         21    1    1    2  503  501  0.63426539468E+01 -0.24615536990E+02  0.11873953724E+02  0.28056099113E+02  0.00000000000E+00 0. -1.
         21    1    1    2  504  503 -0.63426539468E+01  0.24615536990E+02  0.24084205044E+03  0.24217978276E+03  0.00000000000E+00 0. -1.
<mgrwt>
<rscale>  2 0.25419558E+02</rscale>
<asrwt>0</asrwt>
<pdfrwt beam="1">  1       21 0.40227062E-01 0.25419558E+02</pdfrwt>
<pdfrwt beam="2">  1       21 0.13476831E-02 0.25419558E+02</pdfrwt>
<totfact> 0.11288787E+07</totfact>
</mgrwt>
</event>
<event>
 4    1  0.9138221E+003  0.2203083E+02  0.7546771E-02  0.1707719E+00
         21   -1    0    0  502  501  0.00000000000E+00  0.00000000000E+00  0.16465488360E+01  0.16465488360E+01  0.00000000000E+00 0.  1.
         21   -1    0    0  504  502 -0.00000000000E+00 -0.00000000000E+00 -0.11952157605E+04  0.11952157605E+04  0.00000000000E+00 0.  1.
         21    1    1    2  503  501 -0.51375149837E+01 -0.21423427694E+02 -0.11162052611E+04  0.11164226539E+04  0.00000000000E+00 0. -1.
         21    1    1    2  504  503  0.51375149837E+01  0.21423427694E+02 -0.77363950625E+02  0.80439655461E+02  0.00000000000E+00 0. -1.
<mgrwt>
<rscale>  2 0.22030826E+02</rscale>
<asrwt>0</asrwt>
<pdfrwt beam="1">  1       21 0.25331585E-03 0.22030826E+02</pdfrwt>
<pdfrwt beam="2">  1       21 0.18387888E+00 0.22030826E+02</pdfrwt>
<totfact> 0.50372627E+06</totfact>
</mgrwt>
</event>
<event>
 4    1  0.9138221E+003  0.2392281E+02  0.7546771E-02  0.1676974E+00
         21   -1    0    0  502  501  0.00000000000E+00  0.00000000000E+00  0.26791517206E+01  0.26791517206E+01  0.00000000000E+00 0. -1.
         21   -1    0    0  504  502 -0.00000000000E+00 -0.00000000000E+00 -0.30251734934E+03  0.30251734934E+03  0.00000000000E+00 0. -1.
         21    1    1    2  503  501  0.11749322689E+01  0.23893938721E+02 -0.67194112837E+02  0.71325658591E+02  0.00000000000E+00 0.  1.
         21    1    1    2  504  503 -0.11749322689E+01 -0.23893938721E+02 -0.23264408478E+03  0.23387084247E+03  0.00000000000E+00 0.  1.
<mgrwt>
<rscale>  2 0.23922809E+02</rscale>
<asrwt>0</asrwt>
<pdfrwt beam="1">  1       21 0.41217743E-03 0.23922809E+02</pdfrwt>
<pdfrwt beam="2">  1       21 0.46541103E-01 0.23922809E+02</pdfrwt>
<totfact> 0.49552756E+07</totfact>
</mgrwt>
</event>
<event>
 4    1  0.9138221E+003  0.2041724E+02  0.7546771E-02  0.1737156E+00
         21   -1    0    0  504  501  0.00000000000E+00  0.00000000000E+00  0.41045250813E+01  0.41045250813E+01  0.00000000000E+00 0. -1.
         21   -1    0    0  501  502 -0.00000000000E+00 -0.00000000000E+00 -0.18157992731E+03  0.18157992731E+03  0.00000000000E+00 0. -1.
         21    1    1    2  503  502  0.19162392629E+02  0.70474328250E+01 -0.15036957771E+03  0.15174937727E+03  0.00000000000E+00 0.  1.
         21    1    1    2  504  503 -0.19162392629E+02 -0.70474328250E+01 -0.27105824513E+02  0.33935075118E+02  0.00000000000E+00 0.  1.
<mgrwt>
<rscale>  2 0.20417238E+02</rscale>
<asrwt>0</asrwt>
<pdfrwt beam="1">  1       21 0.63146548E-03 0.20417238E+02</pdfrwt>
<pdfrwt beam="2">  1       21 0.27935370E-01 0.20417238E+02</pdfrwt>
<totfact> 0.65564028E+07</totfact>
</mgrwt>
</event>
<event>
 4    1  0.9138221E+003  0.3019077E+02  0.7546771E-02  0.1595990E+00
         21   -1    0    0  502  501  0.00000000000E+00  0.00000000000E+00  0.70774128489E+02  0.70774128489E+02  0.00000000000E+00 0. -1.
         21   -1    0    0  503  502 -0.00000000000E+00 -0.00000000000E+00 -0.20458838373E+02  0.20458838373E+02  0.00000000000E+00 0. -1.
         21    1    1    2  503  504 -0.17688093865E+02  0.24466585235E+02  0.52923969274E+02  0.60929705246E+02  0.00000000000E+00 0.  1.
         21    1    1    2  504  501  0.17688093865E+02 -0.24466585235E+02 -0.26086791587E+01  0.30303261616E+02  0.00000000000E+00 0.  1.
<mgrwt>
<rscale>  2 0.30190768E+02</rscale>
<asrwt>0</asrwt>
<pdfrwt beam="1">  1       21 0.10888327E-01 0.30190768E+02</pdfrwt>
<pdfrwt beam="2">  1       21 0.31475136E-02 0.30190768E+02</pdfrwt>
<totfact> 0.31873029E+07</totfact>
</mgrwt>
</event>
<event>
 4    1  0.9138221E+003  0.2945819E+02  0.7546771E-02  0.1604156E+00
         21   -1    0    0  502  501  0.00000000000E+00  0.00000000000E+00  0.16903402077E+03  0.16903402077E+03  0.00000000000E+00 0.  1.
         21   -1    0    0  503  502 -0.00000000000E+00 -0.00000000000E+00 -0.78384309064E+01  0.78384309064E+01  0.00000000000E+00 0.  1.
         21    1    1    2  503  504 -0.53993393076E+01 -0.28959146896E+02  0.28649596361E+02  0.41092388900E+02  0.00000000000E+00 0.  1.
         21    1    1    2  504  501  0.53993393076E+01  0.28959146896E+02  0.13254599350E+03  0.13578006278E+03  0.00000000000E+00 0.  1.
<mgrwt>
<rscale>  2 0.29458192E+02</rscale>
<asrwt>0</asrwt>
<pdfrwt beam="1">  1       21 0.26005231E-01 0.29458192E+02</pdfrwt>
<pdfrwt beam="2">  1       21 0.12059126E-02 0.29458192E+02</pdfrwt>
<totfact> 0.30797468E+07</totfact>
</mgrwt>
</event>
<event>
 4    1  0.9138221E+003  0.5590923E+02  0.7546771E-02  0.1415847E+00
         21   -1    0    0  504  501  0.00000000000E+00  0.00000000000E+00  0.22229456284E+04  0.22229456284E+04  0.00000000000E+00 0.  1.
         21   -1    0    0  501  502 -0.00000000000E+00 -0.00000000000E+00 -0.17705277735E+01  0.17705277735E+01  0.00000000000E+00 0.  1.
         21    1    1    2  503  502 -0.52220954595E+02  0.19970318828E+02  0.16151984766E+04  0.16161658209E+04  0.00000000000E+00 0. -1.
         21    1    1    2  504  503  0.52220954595E+02 -0.19970318828E+02  0.60597662399E+03  0.60855033527E+03  0.00000000000E+00 0. -1.
<mgrwt>
<rscale>  2 0.55909228E+02</rscale>
<asrwt>0</asrwt>
<pdfrwt beam="1">  1       21 0.34198940E+00 0.55909228E+02</pdfrwt>
<pdfrwt beam="2">  1       21 0.27239067E-03 0.55909228E+02</pdfrwt>
<totfact> 0.65120228E+05</totfact>
</mgrwt>
</event>
<event>
 4    1  0.9138221E+003  0.3018338E+02  0.7546771E-02  0.1596070E+00
         21   -1    0    0  503  501  0.00000000000E+00  0.00000000000E+00  0.14893675863E+03  0.14893675863E+03  0.00000000000E+00 0. -1.
         21   -1    0    0  501  502 -0.00000000000E+00 -0.00000000000E+00 -0.73133350649E+01  0.73133350649E+01  0.00000000000E+00 0. -1.
         21    1    1    2  503  504  0.91269951139E-01  0.30183238786E+02  0.10241054589E+03  0.10676589410E+03  0.00000000000E+00 0. -1.
         21    1    1    2  504  502 -0.91269951139E-01 -0.30183238786E+02  0.39212877676E+02  0.49484199594E+02  0.00000000000E+00 0. -1.
<mgrwt>
<rscale>  2 0.30183377E+02</rscale>
<asrwt>0</asrwt>
<pdfrwt beam="1">  1       21 0.22913345E-01 0.30183377E+02</pdfrwt>
<pdfrwt beam="2">  1       21 0.11251286E-02 0.30183377E+02</pdfrwt>
<totfact> 0.43178960E+07</totfact>
</mgrwt>
</event>
<event>
 4    1  0.9138221E+003  0.3434242E+02  0.7546771E-02  0.1554519E+00
         21   -1    0    0  504  501  0.00000000000E+00  0.00000000000E+00  0.79589246899E+02  0.79589246899E+02  0.00000000000E+00 0. -1.
         21   -1    0    0  501  502 -0.00000000000E+00 -0.00000000000E+00 -0.22010942023E+02  0.22010942023E+02  0.00000000000E+00 0. -1.
         21    1    1    2  503  502 -0.34054841717E+02 -0.44350254938E+01 -0.24974936115E+00  0.34343326430E+02  0.00000000000E+00 0.  1.
         21    1    1    2  504  503  0.34054841717E+02  0.44350254938E+01  0.57828054237E+02  0.67256862492E+02  0.00000000000E+00 0.  1.
<mgrwt>
<rscale>  2 0.34342418E+02</rscale>
<asrwt>0</asrwt>
<pdfrwt beam="1">  1       21 0.12244499E-01 0.34342418E+02</pdfrwt>
<pdfrwt beam="2">  1       21 0.33862988E-02 0.34342418E+02</pdfrwt>
<totfact> 0.23856946E+07</totfact>
</mgrwt>
</event>
<event>
 4    1  0.9138221E+003  0.2363928E+02  0.7546771E-02  0.1681352E+00
         21   -1    0    0  502  501  0.00000000000E+00  0.00000000000E+00  0.56117988694E+01  0.56117988694E+01  0.00000000000E+00 0. -1.
         21   -1    0    0  503  502 -0.00000000000E+00 -0.00000000000E+00 -0.15011018883E+03  0.15011018883E+03  0.00000000000E+00 0. -1.
         21    1    1    2  503  504 -0.19507539133E+01  0.23558648439E+02 -0.11742398245E+03  0.11977982723E+03  0.00000000000E+00 0. -1.
         21    1    1    2  504  501  0.19507539133E+01 -0.23558648439E+02 -0.27074407512E+02  0.35942160470E+02  0.00000000000E+00 0. -1.
<mgrwt>
<rscale>  2 0.23639276E+02</rscale>
<asrwt>0</asrwt>
<pdfrwt beam="1">  1       21 0.86335366E-03 0.23639276E+02</pdfrwt>
<pdfrwt beam="2">  1       21 0.23093876E-01 0.23639276E+02</pdfrwt>
<totfact> 0.60048100E+07</totfact>
</mgrwt>
</event>
<event>
 4    1  0.9138221E+003  0.2108333E+02  0.7546771E-02  0.1724605E+00
         21   -1    0    0  503  501  0.00000000000E+00  0.00000000000E+00  0.12584377782E+03  0.12584377782E+03  0.00000000000E+00 0.  1.
         21   -1    0    0  501  502 -0.00000000000E+00 -0.00000000000E+00 -0.51696051582E+01  0.51696051582E+01  0.00000000000E+00 0.  1.
         21    1    1    2  503  504  0.79165212386E+01  0.19540612337E+02  0.97203723987E+02  0.99463917055E+02  0.00000000000E+00 0. -1.
         21    1    1    2  504  502 -0.79165212386E+01 -0.19540612337E+02  0.23470448675E+02  0.31549465923E+02  0.00000000000E+00 0. -1.
<mgrwt>
<rscale>  2 0.21083331E+02</rscale>
<asrwt>0</asrwt>
<pdfrwt beam="1">  1       21 0.19360579E-01 0.21083331E+02</pdfrwt>
<pdfrwt beam="2">  1       21 0.79532397E-03 0.21083331E+02</pdfrwt>
<totfact> 0.89658537E+07</totfact>
</mgrwt>
</event>
<event>
 4    1  0.9138221E+003  0.3314533E+02  0.7546771E-02  0.1565715E+00
         21   -1    0    0  502  501  0.00000000000E+00  0.00000000000E+00  0.26674639801E+04  0.26674639801E+04  0.00000000000E+00 0. -1.
         21   -1    0    0  503  502 -0.00000000000E+00 -0.00000000000E+00 -0.45412250386E+00  0.45412250386E+00  0.00000000000E+00 0. -1.
         21    1    1    2  503  504 -0.30824568006E+02  0.12184376139E+02  0.92654621159E+03  0.92713887591E+03  0.00000000000E+00 0.  1.
         21    1    1    2  504  501  0.30824568006E+02 -0.12184376139E+02  0.17404636460E+04  0.17407792267E+04  0.00000000000E+00 0.  1.
<mgrwt>
<rscale>  2 0.33145332E+02</rscale>
<asrwt>0</asrwt>
<pdfrwt beam="1">  1       21 0.41036653E+00 0.33145332E+02</pdfrwt>
<pdfrwt beam="2">  1       21 0.69867136E-04 0.33145332E+02</pdfrwt>
<totfact> 0.21230042E+06</totfact>
</mgrwt>
</event>
<event>
 4    1  0.9138221E+003  0.2408199E+02  0.7546771E-02  0.1674549E+00
         21   -1    0    0  502  501  0.00000000000E+00  0.00000000000E+00  0.28449494948E+02  0.28449494948E+02  0.00000000000E+00 0.  1.
         21   -1    0    0  503  502 -0.00000000000E+00 -0.00000000000E+00 -0.36049579723E+02  0.36049579723E+02  0.00000000000E+00 0.  1.
         21    1    1    2  503  504  0.24037884322E+02 -0.14567512529E+01  0.17458487151E+02  0.29744592458E+02  0.00000000000E+00 0. -1.
         21    1    1    2  504  501 -0.24037884322E+02  0.14567512529E+01 -0.25058571926E+02  0.34754482213E+02  0.00000000000E+00 0. -1.
<mgrwt>
<rscale>  2 0.24081985E+02</rscale>
<asrwt>0</asrwt>
<pdfrwt beam="1">  1       21 0.43768454E-02 0.24081985E+02</pdfrwt>
<pdfrwt beam="2">  1       21 0.55460891E-02 0.24081985E+02</pdfrwt>
<totfact> 0.54354467E+07</totfact>
</mgrwt>
</event>
<event>
 4    1  0.9138221E+003  0.3808538E+02  0.7546771E-02  0.1522793E+00
         21   -1    0    0  502  501  0.00000000000E+00  0.00000000000E+00  0.10338181398E+02  0.10338181398E+02  0.00000000000E+00 0. -1.
         21   -1    0    0  503  502 -0.00000000000E+00 -0.00000000000E+00 -0.14777490470E+03  0.14777490470E+03  0.00000000000E+00 0. -1.
         21    1    1    2  503  504 -0.28113254502E+02  0.25693217948E+02 -0.86492995745E+02  0.94506797851E+02  0.00000000000E+00 0. -1.
         21    1    1    2  504  501  0.28113254502E+02 -0.25693217948E+02 -0.50943727554E+02  0.63606288245E+02  0.00000000000E+00 0. -1.
<mgrwt>
<rscale>  2 0.38085385E+02</rscale>
<asrwt>0</asrwt>
<pdfrwt beam="1">  1       21 0.15904895E-02 0.38085385E+02</pdfrwt>
<pdfrwt beam="2">  1       21 0.22734600E-01 0.38085385E+02</pdfrwt>
<totfact> 0.26889979E+07</totfact>
</mgrwt>
</event>
<event>
 4    1  0.9138221E+003  0.2082422E+02  0.7546771E-02  0.1729417E+00
         21   -1    0    0  502  501  0.00000000000E+00  0.00000000000E+00  0.41278771564E+01  0.41278771564E+01  0.00000000000E+00 0. -1.
         21   -1    0    0  503  502 -0.00000000000E+00 -0.00000000000E+00 -0.25754686835E+03  0.25754686835E+03  0.00000000000E+00 0. -1.
         21    1    1    2  503  504  0.17194373126E+02  0.11747407409E+02 -0.22738623009E+03  0.22833778856E+03  0.00000000000E+00 0. -1.
         21    1    1    2  504  501 -0.17194373126E+02 -0.11747407409E+02 -0.26032761102E+02  0.33336956949E+02  0.00000000000E+00 0. -1.
<mgrwt>
<rscale>  2 0.20824218E+02</rscale>
<asrwt>0</asrwt>
<pdfrwt beam="1">  1       21 0.63505782E-03 0.20824218E+02</pdfrwt>
<pdfrwt beam="2">  1       21 0.39622608E-01 0.20824218E+02</pdfrwt>
<totfact> 0.34432814E+07</totfact>
</mgrwt>
</event>
<event>
 4    1  0.9138221E+003  0.2358738E+02  0.7546771E-02  0.1682162E+00
         21   -1    0    0  504  501  0.00000000000E+00  0.00000000000E+00  0.80187019836E+03  0.80187019836E+03  0.00000000000E+00 0. -1.
         21   -1    0    0  501  502 -0.00000000000E+00 -0.00000000000E+00 -0.13617100652E+01  0.13617100652E+01  0.00000000000E+00 0. -1.
         21    1    1    2  503  502  0.18202425163E+02  0.15001199455E+02  0.11898853229E+03  0.12130389558E+03  0.00000000000E+00 0. -1.
         21    1    1    2  504  503 -0.18202425163E+02 -0.15001199455E+02  0.68151995601E+03  0.68192801285E+03  0.00000000000E+00 0. -1.
<mgrwt>
<rscale>  2 0.23587375E+02</rscale>
<asrwt>0</asrwt>
<pdfrwt beam="1">  1       21 0.12336427E+00 0.23587375E+02</pdfrwt>
<pdfrwt beam="2">  1       21 0.20949450E-03 0.23587375E+02</pdfrwt>
<totfact> 0.17300682E+07</totfact>
</mgrwt>
</event>
<event>
 4    1  0.9138221E+003  0.2353298E+02  0.7546771E-02  0.1683014E+00
         21   -1    0    0  502  501  0.00000000000E+00  0.00000000000E+00  0.40062099866E+01  0.40062099866E+01  0.00000000000E+00 0.  1.
         21   -1    0    0  504  502 -0.00000000000E+00 -0.00000000000E+00 -0.16996221605E+03  0.16996221605E+03  0.00000000000E+00 0.  1.
         21    1    1    2  503  501  0.13654243634E+02 -0.19166704186E+02 -0.12055966573E+03  0.12283498654E+03  0.00000000000E+00 0. -1.
         21    1    1    2  504  503 -0.13654243634E+02  0.19166704186E+02 -0.45396340334E+02  0.51133439493E+02  0.00000000000E+00 0. -1.
<mgrwt>
<rscale>  2 0.23532975E+02</rscale>
<asrwt>0</asrwt>
<pdfrwt beam="1">  1       21 0.61633998E-03 0.23532975E+02</pdfrwt>
<pdfrwt beam="2">  1       21 0.26148034E-01 0.23532975E+02</pdfrwt>
<totfact> 0.79439259E+07</totfact>
</mgrwt>
</event>
<event>
 4    1  0.9138221E+003  0.3863207E+02  0.7546771E-02  0.1518526E+00
         21   -1    0    0  502  501  0.00000000000E+00  0.00000000000E+00  0.15423862456E+03  0.15423862456E+03  0.00000000000E+00 0.  1.
         21   -1    0    0  503  502 -0.00000000000E+00 -0.00000000000E+00 -0.13356067214E+02  0.13356067214E+02  0.00000000000E+00 0.  1.
         21    1    1    2  503  504  0.35654751099E+02 -0.14871964825E+02  0.26455753605E+02  0.46822468031E+02  0.00000000000E+00 0. -1.
         21    1    1    2  504  501 -0.35654751099E+02  0.14871964825E+02  0.11442680374E+03  0.12077222374E+03  0.00000000000E+00 0. -1.
<mgrwt>
<rscale>  2 0.38632067E+02</rscale>
<asrwt>0</asrwt>
<pdfrwt beam="1">  1       21 0.23729018E-01 0.38632067E+02</pdfrwt>
<pdfrwt beam="2">  1       21 0.20547797E-02 0.38632067E+02</pdfrwt>
<totfact> 0.16745834E+07</totfact>
</mgrwt>
</event>
<event>
 4    1  0.9138221E+003  0.2337300E+02  0.7546771E-02  0.1685534E+00
         21   -1    0    0  502  501  0.00000000000E+00  0.00000000000E+00  0.60422990305E+01  0.60422990305E+01  0.00000000000E+00 0.  1.
         21   -1    0    0  504  502 -0.00000000000E+00 -0.00000000000E+00 -0.18175279953E+03  0.18175279953E+03  0.00000000000E+00 0.  1.
         21    1    1    2  503  501  0.22376041074E+02  0.67535278202E+01 -0.21290285096E+02  0.31616033774E+02  0.00000000000E+00 0. -1.
         21    1    1    2  504  503 -0.22376041074E+02 -0.67535278202E+01 -0.15442021540E+03  0.15617906478E+03  0.00000000000E+00 0. -1.
<mgrwt>
<rscale>  2 0.23373005E+02</rscale>
<asrwt>0</asrwt>
<pdfrwt beam="1">  1       21 0.92958442E-03 0.23373005E+02</pdfrwt>
<pdfrwt beam="2">  1       21 0.27961971E-01 0.23373005E+02</pdfrwt>
<totfact> 0.38077965E+07</totfact>
</mgrwt>
</event>
<event>
 4    1  0.9138221E+003  0.2193172E+02  0.7546771E-02  0.1709436E+00
         21   -1    0    0  502  501  0.00000000000E+00  0.00000000000E+00  0.14064790009E+01  0.14064790009E+01  0.00000000000E+00 0. -1.
         21   -1    0    0  503  502 -0.00000000000E+00 -0.00000000000E+00 -0.40578016939E+03  0.40578016939E+03  0.00000000000E+00 0. -1.
         21    1    1    2  503  504  0.21820489669E+02  0.22060503528E+01 -0.28291001567E+03  0.28375883667E+03  0.00000000000E+00 0. -1.
         21    1    1    2  504  501 -0.21820489669E+02 -0.22060503528E+01 -0.12146367473E+03  0.12342781172E+03  0.00000000000E+00 0. -1.
<mgrwt>
<rscale>  2 0.21931722E+02</rscale>
<asrwt>0</asrwt>
<pdfrwt beam="1">  1       21 0.21638140E-03 0.21931722E+02</pdfrwt>
<pdfrwt beam="2">  1       21 0.62427714E-01 0.21931722E+02</pdfrwt>
<totfact> 0.69658169E+07</totfact>
</mgrwt>
</event>
<event>
 4    1  0.9138221E+003  0.2850872E+02  0.7546771E-02  0.1615183E+00
         21   -1    0    0  502  501  0.00000000000E+00  0.00000000000E+00  0.10951442885E+02  0.10951442885E+02  0.00000000000E+00 0.  1.
         21   -1    0    0  504  502 -0.00000000000E+00 -0.00000000000E+00 -0.87561453093E+02  0.87561453093E+02  0.00000000000E+00 0.  1.
         21    1    1    2  503  501  0.27567761977E+01 -0.28375118343E+02 -0.57536391988E+02  0.64212020362E+02  0.00000000000E+00 0.  1.
         21    1    1    2  504  503 -0.27567761977E+01  0.28375118343E+02 -0.19073618221E+02  0.34300875616E+02  0.00000000000E+00 0.  1.
<mgrwt>
<rscale>  2 0.28508721E+02</rscale>
<asrwt>0</asrwt>
<pdfrwt beam="1">  1       21 0.16848374E-02 0.28508721E+02</pdfrwt>
<pdfrwt beam="2">  1       21 0.13470992E-01 0.28508721E+02</pdfrwt>
<totfact> 0.58056086E+07</totfact>
</mgrwt>
</event>
<event>
 4    1  0.9138221E+003  0.2704772E+02  0.7546771E-02  0.1633220E+00
         21   -1    0    0  502  501  0.00000000000E+00  0.00000000000E+00  0.50436870633E+02  0.50436870633E+02  0.00000000000E+00 0. -1.
         21   -1    0    0  504  502 -0.00000000000E+00 -0.00000000000E+00 -0.78319145718E+02  0.78319145718E+02  0.00000000000E+00 0. -1.
         21    1    1    2  503  501 -0.21396721638E+02  0.16545684293E+02  0.44170424152E+02  0.51793877393E+02  0.00000000000E+00 0. -1.
         21    1    1    2  504  503  0.21396721638E+02 -0.16545684293E+02 -0.72052699238E+02  0.76962138958E+02  0.00000000000E+00 0. -1.
<mgrwt>
<rscale>  2 0.27047724E+02</rscale>
<asrwt>0</asrwt>
<pdfrwt beam="1">  1       21 0.77595186E-02 0.27047724E+02</pdfrwt>
<pdfrwt beam="2">  1       21 0.12049099E-01 0.27047724E+02</pdfrwt>
<totfact> 0.61875293E+06</totfact>
</mgrwt>
</event>
<event>
 4    1  0.9138221E+003  0.2590287E+02  0.7546771E-02  0.1648362E+00
         21   -1    0    0  504  501  0.00000000000E+00  0.00000000000E+00  0.28638800572E+02  0.28638800572E+02  0.00000000000E+00 0. -1.
         21   -1    0    0  501  502 -0.00000000000E+00 -0.00000000000E+00 -0.47463859015E+02  0.47463859015E+02  0.00000000000E+00 0. -1.
         21    1    1    2  503  502  0.24531596678E+02  0.83162186496E+01  0.17665392592E+02  0.31353226686E+02  0.00000000000E+00 0.  1.
         21    1    1    2  504  503 -0.24531596678E+02 -0.83162186496E+01 -0.36490451035E+02  0.44749432900E+02  0.00000000000E+00 0.  1.
<mgrwt>
<rscale>  2 0.25902871E+02</rscale>
<asrwt>0</asrwt>
<pdfrwt beam="1">  1       21 0.44059694E-02 0.25902871E+02</pdfrwt>
<pdfrwt beam="2">  1       21 0.73021321E-02 0.25902871E+02</pdfrwt>
<totfact> 0.35079535E+07</totfact>
</mgrwt>
</event>
<event>
 4    1  0.9138221E+003  0.2228482E+02  0.7546771E-02  0.1703372E+00
         21   -1    0    0  502  501  0.00000000000E+00  0.00000000000E+00  0.71301051576E+01  0.71301051576E+01  0.00000000000E+00 0.  1.
         21   -1    0    0  504  502 -0.00000000000E+00 -0.00000000000E+00 -0.13813753242E+03  0.13813753242E+03  0.00000000000E+00 0.  1.
         21    1    1    2  503  501  0.21228658484E+02 -0.67791771745E+01 -0.11664694754E+03  0.11875657267E+03  0.00000000000E+00 0. -1.
         21    1    1    2  504  503 -0.21228658484E+02  0.67791771745E+01 -0.14360479725E+02  0.26511064900E+02  0.00000000000E+00 0. -1.
<mgrwt>
<rscale>  2 0.22284820E+02</rscale>
<asrwt>0</asrwt>
<pdfrwt beam="1">  1       21 0.10969392E-02 0.22284820E+02</pdfrwt>
<pdfrwt beam="2">  1       21 0.21251930E-01 0.22284820E+02</pdfrwt>
<totfact> 0.47812036E+07</totfact>
</mgrwt>
</event>
<event>
 4    1  0.9138221E+003  0.2074146E+02  0.7546771E-02  0.1730973E+00
         21   -1    0    0  502  501  0.00000000000E+00  0.00000000000E+00  0.10132932744E+01  0.10132932744E+01  0.00000000000E+00 0.  1.
         21   -1    0    0  503  502 -0.00000000000E+00 -0.00000000000E+00 -0.59543474851E+03  0.59543474851E+03  0.00000000000E+00 0.  1.
         21    1    1    2  503  504  0.20600669840E+02  0.24125704556E+01 -0.13745402684E+03  0.13901013484E+03  0.00000000000E+00 0. -1.
         21    1    1    2  504  501 -0.20600669840E+02 -0.24125704556E+01 -0.45696742839E+03  0.45743790694E+03  0.00000000000E+00 0. -1.
<mgrwt>
<rscale>  2 0.20741458E+02</rscale>
<asrwt>0</asrwt>
<pdfrwt beam="1">  1       21 0.15589132E-03 0.20741458E+02</pdfrwt>
<pdfrwt beam="2">  1       21 0.91605317E-01 0.20741458E+02</pdfrwt>
<totfact> 0.49765810E+07</totfact>
</mgrwt>
</event>
<event>
 4    1  0.9138221E+003  0.2264655E+02  0.7546771E-02  0.1697304E+00
         21   -1    0    0  502  501  0.00000000000E+00  0.00000000000E+00  0.21418428573E+03  0.21418428573E+03  0.00000000000E+00 0. -1.
         21   -1    0    0  503  502 -0.00000000000E+00 -0.00000000000E+00 -0.14297039239E+02  0.14297039239E+02  0.00000000000E+00 0. -1.
         21    1    1    2  503  504 -0.55901144410E+01  0.21945765931E+02  0.20417952318E+03  0.20543160347E+03  0.00000000000E+00 0.  1.
         21    1    1    2  504  501  0.55901144410E+01 -0.21945765931E+02 -0.42922766857E+01  0.23049721493E+02  0.00000000000E+00 0.  1.
<mgrwt>
<rscale>  2 0.22646545E+02</rscale>
<asrwt>0</asrwt>
<pdfrwt beam="1">  1       21 0.32951426E-01 0.22646545E+02</pdfrwt>
<pdfrwt beam="2">  1       21 0.21995447E-02 0.22646545E+02</pdfrwt>
<totfact> 0.75865799E+06</totfact>
</mgrwt>
</event>
<event>
 4    1  0.9138221E+003  0.2689193E+02  0.7546771E-02  0.1635226E+00
         21   -1    0    0  502  501  0.00000000000E+00  0.00000000000E+00  0.58210672405E+01  0.58210672405E+01  0.00000000000E+00 0. -1.
         21   -1    0    0  504  502 -0.00000000000E+00 -0.00000000000E+00 -0.14512326379E+03  0.14512326379E+03  0.00000000000E+00 0. -1.
         21    1    1    2  503  501 -0.41633458538E+01  0.26567694149E+02 -0.98284796453E+02  0.10189738483E+03  0.00000000000E+00 0.  1.
         21    1    1    2  504  503  0.41633458538E+01 -0.26567694149E+02 -0.41017400097E+02  0.49046946203E+02  0.00000000000E+00 0.  1.
<mgrwt>
<rscale>  2 0.26891929E+02</rscale>
<asrwt>0</asrwt>
<pdfrwt beam="1">  1       21 0.89554885E-03 0.26891929E+02</pdfrwt>
<pdfrwt beam="2">  1       21 0.22326655E-01 0.26891929E+02</pdfrwt>
<totfact> 0.62249858E+07</totfact>
</mgrwt>
</event>
<event>
 4    1  0.9138221E+003  0.2509699E+02  0.7546771E-02  0.1659613E+00
         21   -1    0    0  502  501  0.00000000000E+00  0.00000000000E+00  0.59818530042E+02  0.59818530042E+02  0.00000000000E+00 0. -1.
         21   -1    0    0  503  502 -0.00000000000E+00 -0.00000000000E+00 -0.13424083866E+02  0.13424083866E+02  0.00000000000E+00 0. -1.
         21    1    1    2  503  504 -0.12783378043E+02  0.21597317219E+02  0.40202551149E+02  0.47393079496E+02  0.00000000000E+00 0.  1.
         21    1    1    2  504  501  0.12783378043E+02 -0.21597317219E+02  0.61918950268E+01  0.25849534411E+02  0.00000000000E+00 0.  1.
<mgrwt>
<rscale>  2 0.25096989E+02</rscale>
<asrwt>0</asrwt>
<pdfrwt beam="1">  1       21 0.92028506E-02 0.25096989E+02</pdfrwt>
<pdfrwt beam="2">  1       21 0.20652437E-02 0.25096989E+02</pdfrwt>
<totfact> 0.77919377E+07</totfact>
</mgrwt>
</event>
<event>
 4    1  0.9138221E+003  0.2319068E+02  0.7546771E-02  0.1688438E+00
         21   -1    0    0  502  501  0.00000000000E+00  0.00000000000E+00  0.12619934026E+02  0.12619934026E+02  0.00000000000E+00 0.  1.
         21   -1    0    0  503  502 -0.00000000000E+00 -0.00000000000E+00 -0.61662362721E+02  0.61662362721E+02  0.00000000000E+00 0.  1.
         21    1    1    2  503  504  0.16377308789E+02 -0.16419243834E+02 -0.38790966035E+01  0.23512873106E+02  0.00000000000E+00 0. -1.
         21    1    1    2  504  501 -0.16377308789E+02  0.16419243834E+02 -0.45163332091E+02  0.50769423641E+02  0.00000000000E+00 0. -1.
<mgrwt>
<rscale>  2 0.23190684E+02</rscale>
<asrwt>0</asrwt>
<pdfrwt beam="1">  1       21 0.19415283E-02 0.23190684E+02</pdfrwt>
<pdfrwt beam="2">  1       21 0.94865174E-02 0.23190684E+02</pdfrwt>
<totfact> 0.79785101E+07</totfact>
</mgrwt>
</event>
<event>
 4    1  0.9138221E+003  0.3109928E+02  0.7546771E-02  0.1586246E+00
         21   -1    0    0  503  501  0.00000000000E+00  0.00000000000E+00  0.38421883928E+01  0.38421883928E+01  0.00000000000E+00 0.  1.
         21   -1    0    0  501  502 -0.00000000000E+00 -0.00000000000E+00 -0.32811253908E+03  0.32811253908E+03  0.00000000000E+00 0.  1.
         21    1    1    2  503  504 -0.86476432686E+01 -0.29872792084E+02 -0.82049344332E+02  0.87745429205E+02  0.00000000000E+00 0.  1.
         21    1    1    2  504  502  0.86476432686E+01  0.29872792084E+02 -0.24222100635E+03  0.24420929826E+03  0.00000000000E+00 0.  1.
<mgrwt>
<rscale>  2 0.31099284E+02</rscale>
<asrwt>0</asrwt>
<pdfrwt beam="1">  1       21 0.59110610E-03 0.31099284E+02</pdfrwt>
<pdfrwt beam="2">  1       21 0.50478835E-01 0.31099284E+02</pdfrwt>
<totfact> 0.26137065E+07</totfact>
</mgrwt>
</event>
<event>
 4    1  0.9138221E+003  0.2025065E+02  0.7546771E-02  0.1740389E+00
         21   -1    0    0  503  501  0.00000000000E+00  0.00000000000E+00  0.65553314454E+02  0.65553314454E+02  0.00000000000E+00 0.  1.
         21   -1    0    0  501  502 -0.00000000000E+00 -0.00000000000E+00 -0.67371828218E+01  0.67371828218E+01  0.00000000000E+00 0.  1.
         21    1    1    2  503  504 -0.14081941669E+02  0.14552923371E+02  0.19746317381E+02  0.28284372186E+02  0.00000000000E+00 0. -1.
         21    1    1    2  504  502  0.14081941669E+02 -0.14552923371E+02  0.39069814251E+02  0.44006125090E+02  0.00000000000E+00 0. -1.
<mgrwt>
<rscale>  2 0.20250646E+02</rscale>
<asrwt>0</asrwt>
<pdfrwt beam="1">  1       21 0.10085125E-01 0.20250646E+02</pdfrwt>
<pdfrwt beam="2">  1       21 0.10364897E-02 0.20250646E+02</pdfrwt>
<totfact> 0.17927496E+08</totfact>
</mgrwt>
</event>
<event>
 4    1  0.9138221E+003  0.3668571E+02  0.7546771E-02  0.1534121E+00
         21   -1    0    0  502  501  0.00000000000E+00  0.00000000000E+00  0.53946610922E+02  0.53946610922E+02  0.00000000000E+00 0. -1.
         21   -1    0    0  504  502 -0.00000000000E+00 -0.00000000000E+00 -0.61415248784E+02  0.61415248784E+02  0.00000000000E+00 0. -1.
         21    1    1    2  503  501 -0.32989292568E+02  0.16048297670E+02  0.40713219750E+02  0.54803353407E+02  0.00000000000E+00 0.  1.
         21    1    1    2  504  503  0.32989292568E+02 -0.16048297670E+02 -0.48181857611E+02  0.60558506299E+02  0.00000000000E+00 0.  1.
<mgrwt>
<rscale>  2 0.36685710E+02</rscale>
<asrwt>0</asrwt>
<pdfrwt beam="1">  1       21 0.82994787E-02 0.36685710E+02</pdfrwt>
<pdfrwt beam="2">  1       21 0.94484997E-02 0.36685710E+02</pdfrwt>
<totfact> 0.87173844E+06</totfact>
</mgrwt>
</event>
<event>
 4    1  0.9138221E+003  0.2470836E+02  0.7546771E-02  0.1665227E+00
         21   -1    0    0  503  501  0.00000000000E+00  0.00000000000E+00  0.27684012077E+03  0.27684012077E+03  0.00000000000E+00 0.  1.
         21   -1    0    0  501  502 -0.00000000000E+00 -0.00000000000E+00 -0.24697255912E+01  0.24697255912E+01  0.00000000000E+00 0.  1.
         21    1    1    2  503  504  0.24666661883E+02 -0.14348467117E+01  0.18288568069E+03  0.18454721671E+03  0.00000000000E+00 0.  1.
         21    1    1    2  504  502 -0.24666661883E+02  0.14348467117E+01  0.91484714489E+02  0.94762629652E+02  0.00000000000E+00 0.  1.
<mgrwt>
<rscale>  2 0.24708359E+02</rscale>
<asrwt>0</asrwt>
<pdfrwt beam="1">  1       21 0.42590763E-01 0.24708359E+02</pdfrwt>
<pdfrwt beam="2">  1       21 0.37995800E-03 0.24708359E+02</pdfrwt>
<totfact> 0.66700987E+07</totfact>
</mgrwt>
</event>
<event>
 4    1  0.9138221E+003  0.2873731E+02  0.7546771E-02  0.1612480E+00
         21   -1    0    0  502  501  0.00000000000E+00  0.00000000000E+00  0.21426146657E+02  0.21426146657E+02  0.00000000000E+00 0.  1.
         21   -1    0    0  504  502 -0.00000000000E+00 -0.00000000000E+00 -0.40513807790E+02  0.40513807790E+02  0.00000000000E+00 0.  1.
         21    1    1    2  503  501  0.28644381558E+02 -0.23092522531E+01 -0.27136153816E+01  0.28865151121E+02  0.00000000000E+00 0. -1.
         21    1    1    2  504  503 -0.28644381558E+02  0.23092522531E+01 -0.16374045751E+02  0.33074803326E+02  0.00000000000E+00 0. -1.
<mgrwt>
<rscale>  2 0.28737314E+02</rscale>
<asrwt>0</asrwt>
<pdfrwt beam="1">  1       21 0.32963303E-02 0.28737314E+02</pdfrwt>
<pdfrwt beam="2">  1       21 0.62328934E-02 0.28737314E+02</pdfrwt>
<totfact> 0.73632090E+07</totfact>
</mgrwt>
</event>
<event>
 4    1  0.9138221E+003  0.3251681E+02  0.7546771E-02  0.1571826E+00
         21   -1    0    0  502  501  0.00000000000E+00  0.00000000000E+00  0.14855369720E+03  0.14855369720E+03  0.00000000000E+00 0. -1.
         21   -1    0    0  504  502 -0.00000000000E+00 -0.00000000000E+00 -0.81412870130E+01  0.81412870130E+01  0.00000000000E+00 0. -1.
         21    1    1    2  503  501 -0.32516732832E+02 -0.68752637984E-01  0.42424002931E+02  0.53452209175E+02  0.00000000000E+00 0. -1.
         21    1    1    2  504  503  0.32516732832E+02  0.68752637984E-01  0.97988407255E+02  0.10324277504E+03  0.00000000000E+00 0. -1.
<mgrwt>
<rscale>  2 0.32516806E+02</rscale>
<asrwt>0</asrwt>
<pdfrwt beam="1">  1       21 0.22854413E-01 0.32516806E+02</pdfrwt>
<pdfrwt beam="2">  1       21 0.12525058E-02 0.32516806E+02</pdfrwt>
<totfact> 0.37383415E+07</totfact>
</mgrwt>
</event>
<event>
 4    1  0.9138221E+003  0.3525896E+02  0.7546771E-02  0.1546313E+00
         21   -1    0    0  502  501  0.00000000000E+00  0.00000000000E+00  0.36815434126E+02  0.36815434126E+02  0.00000000000E+00 0.  1.
         21   -1    0    0  504  502 -0.00000000000E+00 -0.00000000000E+00 -0.41535566120E+02  0.41535566120E+02  0.00000000000E+00 0.  1.
         21    1    1    2  503  501  0.31504204894E+02 -0.15832847829E+02 -0.19301066358E+02  0.40196083875E+02  0.00000000000E+00 0. -1.
         21    1    1    2  504  503 -0.31504204894E+02  0.15832847829E+02  0.14580934364E+02  0.38154916371E+02  0.00000000000E+00 0. -1.
<mgrwt>
<rscale>  2 0.35258956E+02</rscale>
<asrwt>0</asrwt>
<pdfrwt beam="1">  1       21 0.56639130E-02 0.35258956E+02</pdfrwt>
<pdfrwt beam="2">  1       21 0.63900871E-02 0.35258956E+02</pdfrwt>
<totfact> 0.31057544E+07</totfact>
</mgrwt>
</event>
<event>
 4    1  0.9138221E+003  0.2022376E+02  0.7546771E-02  0.1740915E+00
         21   -1    0    0  502  501  0.00000000000E+00  0.00000000000E+00  0.82404563933E+03  0.82404563933E+03  0.00000000000E+00 0. -1.
         21   -1    0    0  504  502 -0.00000000000E+00 -0.00000000000E+00 -0.70030254668E+00  0.70030254668E+00  0.00000000000E+00 0. -1.
         21    1    1    2  503  501  0.17296994493E+02  0.10479232771E+02  0.63422436872E+03  0.63454672816E+03  0.00000000000E+00 0. -1.
         21    1    1    2  504  503 -0.17296994493E+02 -0.10479232771E+02  0.18912096807E+03  0.19019921372E+03  0.00000000000E+00 0. -1.
<mgrwt>
<rscale>  2 0.20223757E+02</rscale>
<asrwt>0</asrwt>
<pdfrwt beam="1">  1       21 0.12677548E+00 0.20223757E+02</pdfrwt>
<pdfrwt beam="2">  1       21 0.10773951E-03 0.20223757E+02</pdfrwt>
<totfact> 0.40903491E+07</totfact>
</mgrwt>
</event>
<event>
 4    1  0.9138221E+003  0.2082465E+02  0.7546771E-02  0.1729409E+00
         21   -1    0    0  502  501  0.00000000000E+00  0.00000000000E+00  0.15033090683E+01  0.15033090683E+01  0.00000000000E+00 0. -1.
         21   -1    0    0  503  502 -0.00000000000E+00 -0.00000000000E+00 -0.37592748940E+03  0.37592748940E+03  0.00000000000E+00 0. -1.
         21    1    1    2  503  504 -0.12686772203E+02  0.16513992811E+02 -0.96190811483E+02  0.98419197117E+02  0.00000000000E+00 0. -1.
         21    1    1    2  504  501  0.12686772203E+02 -0.16513992811E+02 -0.27823336885E+03  0.27901160135E+03  0.00000000000E+00 0. -1.
<mgrwt>
<rscale>  2 0.20824652E+02</rscale>
<asrwt>0</asrwt>
<pdfrwt beam="1">  1       21 0.23127837E-03 0.20824652E+02</pdfrwt>
<pdfrwt beam="2">  1       21 0.57834985E-01 0.20824652E+02</pdfrwt>
<totfact> 0.72730815E+07</totfact>
</mgrwt>
</event>
<event>
 4    1  0.9138221E+003  0.2250880E+02  0.7546771E-02  0.1699598E+00
         21   -1    0    0  503  501  0.00000000000E+00  0.00000000000E+00  0.98231485602E+00  0.98231485602E+00  0.00000000000E+00 0. -1.
         21   -1    0    0  501  502 -0.00000000000E+00 -0.00000000000E+00 -0.12607359384E+04  0.12607359384E+04  0.00000000000E+00 0. -1.
         21    1    1    2  503  504 -0.15969445883E+02  0.15862622272E+02 -0.14493538316E+03  0.14667280348E+03  0.00000000000E+00 0.  1.
         21    1    1    2  504  502  0.15969445883E+02 -0.15862622272E+02 -0.11148182404E+04  0.11150454498E+04  0.00000000000E+00 0.  1.
<mgrwt>
<rscale>  2 0.22508798E+02</rscale>
<asrwt>0</asrwt>
<pdfrwt beam="1">  1       21 0.15112518E-03 0.22508798E+02</pdfrwt>
<pdfrwt beam="2">  1       21 0.19395960E+00 0.22508798E+02</pdfrwt>
<totfact> 0.92955892E+06</totfact>
</mgrwt>
</event>
<event>
 4    1  0.9138221E+003  0.2476280E+02  0.7546771E-02  0.1664432E+00
         21   -1    0    0  504  501  0.00000000000E+00  0.00000000000E+00  0.27549863483E+01  0.27549863483E+01  0.00000000000E+00 0. -1.
         21   -1    0    0  501  502 -0.00000000000E+00 -0.00000000000E+00 -0.34230471908E+03  0.34230471908E+03  0.00000000000E+00 0. -1.
         21    1    1    2  503  502 -0.19083038207E+02 -0.15780806368E+02 -0.27181133644E+03  0.27293698689E+03  0.00000000000E+00 0. -1.
         21    1    1    2  504  503  0.19083038207E+02  0.15780806368E+02 -0.67738396298E+02  0.72122718542E+02  0.00000000000E+00 0. -1.
<mgrwt>
<rscale>  2 0.24762799E+02</rscale>
<asrwt>0</asrwt>
<pdfrwt beam="1">  1       21 0.42384407E-03 0.24762799E+02</pdfrwt>
<pdfrwt beam="2">  1       21 0.52662262E-01 0.24762799E+02</pdfrwt>
<totfact> 0.37684379E+07</totfact>
</mgrwt>
</event>
<event>
 4    1  0.9138221E+003  0.2741918E+02  0.7546771E-02  0.1628503E+00
         21   -1    0    0  503  501  0.00000000000E+00  0.00000000000E+00  0.22564683314E+03  0.22564683314E+03  0.00000000000E+00 0. -1.
         21   -1    0    0  501  502 -0.00000000000E+00 -0.00000000000E+00 -0.39915651690E+01  0.39915651690E+01  0.00000000000E+00 0. -1.
         21    1    1    2  503  504  0.22107927990E+02  0.16218848930E+02  0.15750813614E+03  0.15987690418E+03  0.00000000000E+00 0.  1.
         21    1    1    2  504  502 -0.22107927990E+02 -0.16218848930E+02  0.64147131830E+02  0.69761494126E+02  0.00000000000E+00 0.  1.
<mgrwt>
<rscale>  2 0.27419182E+02</rscale>
<asrwt>0</asrwt>
<pdfrwt beam="1">  1       21 0.34714887E-01 0.27419182E+02</pdfrwt>
<pdfrwt beam="2">  1       21 0.61408713E-03 0.27419182E+02</pdfrwt>
<totfact> 0.49337402E+07</totfact>
</mgrwt>
</event>
<event>
 4    1  0.9138221E+003  0.2084090E+02  0.7546771E-02  0.1729105E+00
         21   -1    0    0  504  501  0.00000000000E+00  0.00000000000E+00  0.10171942634E+04  0.10171942634E+04  0.00000000000E+00 0.  1.
         21   -1    0    0  501  502 -0.00000000000E+00 -0.00000000000E+00 -0.69330159264E+00  0.69330159264E+00  0.00000000000E+00 0.  1.
         21    1    1    2  503  502 -0.18887600330E+02 -0.88091904083E+01  0.19282663054E+03  0.19394961389E+03  0.00000000000E+00 0. -1.
         21    1    1    2  504  503  0.18887600330E+02  0.88091904083E+01  0.82367433128E+03  0.82393795112E+03  0.00000000000E+00 0. -1.
<mgrwt>
<rscale>  2 0.20840904E+02</rscale>
<asrwt>0</asrwt>
<pdfrwt beam="1">  1       21 0.15649023E+00 0.20840904E+02</pdfrwt>
<pdfrwt beam="2">  1       21 0.10666260E-03 0.20840904E+02</pdfrwt>
<totfact> 0.25594077E+07</totfact>
</mgrwt>
</event>
<event>
 4    1  0.9138221E+003  0.2469268E+02  0.7546771E-02  0.1665456E+00
         21   -1    0    0  502  501  0.00000000000E+00  0.00000000000E+00  0.66856306634E+03  0.66856306634E+03  0.00000000000E+00 0. -1.
         21   -1    0    0  504  502 -0.00000000000E+00 -0.00000000000E+00 -0.13692920353E+01  0.13692920353E+01  0.00000000000E+00 0. -1.
         21    1    1    2  503  501 -0.40107067412E+01 -0.24364778489E+02  0.14002126106E+03  0.14218186153E+03  0.00000000000E+00 0. -1.
         21    1    1    2  504  503  0.40107067412E+01  0.24364778489E+02  0.52717251325E+03  0.52775049685E+03  0.00000000000E+00 0. -1.
<mgrwt>
<rscale>  2 0.24692675E+02</rscale>
<asrwt>0</asrwt>
<pdfrwt beam="1">  1       21 0.10285560E+00 0.24692675E+02</pdfrwt>
<pdfrwt beam="2">  1       21 0.21066085E-03 0.24692675E+02</pdfrwt>
<totfact> 0.26016819E+07</totfact>
</mgrwt>
</event>
<event>
 4    1  0.9138221E+003  0.2655350E+02  0.7546771E-02  0.1639641E+00
         21   -1    0    0  503  501  0.00000000000E+00  0.00000000000E+00  0.10055005848E+02  0.10055005848E+02  0.00000000000E+00 0. -1.
         21   -1    0    0  501  502 -0.00000000000E+00 -0.00000000000E+00 -0.10578412830E+03  0.10578412830E+03  0.00000000000E+00 0. -1.
         21    1    1    2  503  504  0.26369150040E+02 -0.31235336528E+01 -0.14235730530E+02  0.30128799512E+02  0.00000000000E+00 0.  1.
         21    1    1    2  504  502 -0.26369150040E+02  0.31235336528E+01 -0.81493391919E+02  0.85710334633E+02  0.00000000000E+00 0.  1.
<mgrwt>
<rscale>  2 0.26553503E+02</rscale>
<asrwt>0</asrwt>
<pdfrwt beam="1">  1       21 0.15469239E-02 0.26553503E+02</pdfrwt>
<pdfrwt beam="2">  1       21 0.16274482E-01 0.26553503E+02</pdfrwt>
<totfact> 0.47080714E+07</totfact>
</mgrwt>
</event>
<event>
 4    1  0.9138221E+003  0.2454964E+02  0.7546771E-02  0.1667556E+00
         21   -1    0    0  503  501  0.00000000000E+00  0.00000000000E+00  0.12248459865E+03  0.12248459865E+03  0.00000000000E+00 0.  1.
         21   -1    0    0  501  502 -0.00000000000E+00 -0.00000000000E+00 -0.12248651210E+02  0.12248651210E+02  0.00000000000E+00 0.  1.
         21    1    1    2  503  504  0.22062399895E+02 -0.10767317586E+02  0.10722521400E+03  0.10999968698E+03  0.00000000000E+00 0. -1.
         21    1    1    2  504  502 -0.22062399895E+02  0.10767317586E+02  0.30107334385E+01  0.24733562884E+02  0.00000000000E+00 0. -1.
<mgrwt>
<rscale>  2 0.24549636E+02</rscale>
<asrwt>0</asrwt>
<pdfrwt beam="1">  1       21 0.18843784E-01 0.24549636E+02</pdfrwt>
<pdfrwt beam="2">  1       21 0.18844080E-02 0.24549636E+02</pdfrwt>
<totfact> 0.26532416E+07</totfact>
</mgrwt>
</event>
<event>
 4    1  0.9138221E+003  0.2198742E+02  0.7546771E-02  0.1708470E+00
         21   -1    0    0  504  501  0.00000000000E+00  0.00000000000E+00  0.90787061903E+02  0.90787061903E+02  0.00000000000E+00 0.  1.
         21   -1    0    0  501  502 -0.00000000000E+00 -0.00000000000E+00 -0.68866305861E+01  0.68866305861E+01  0.00000000000E+00 0.  1.
         21    1    1    2  503  502 -0.19583723252E+02  0.99962203732E+01  0.65205673540E+02  0.68812982060E+02  0.00000000000E+00 0.  1.
         21    1    1    2  504  503  0.19583723252E+02 -0.99962203732E+01  0.18694757777E+02  0.28860710429E+02  0.00000000000E+00 0.  1.
<mgrwt>
<rscale>  2 0.21987420E+02</rscale>
<asrwt>0</asrwt>
<pdfrwt beam="1">  1       21 0.13967239E-01 0.21987420E+02</pdfrwt>
<pdfrwt beam="2">  1       21 0.10594817E-02 0.21987420E+02</pdfrwt>
<totfact> 0.10330973E+08</totfact>
</mgrwt>
</event>
<event>
 4    1  0.9138221E+003  0.2263407E+02  0.7546771E-02  0.1697511E+00
         21   -1    0    0  502  501  0.00000000000E+00  0.00000000000E+00  0.86563285869E+02  0.86563285869E+02  0.00000000000E+00 0.  1.
         21   -1    0    0  504  502 -0.00000000000E+00 -0.00000000000E+00 -0.83949427018E+01  0.83949427018E+01  0.00000000000E+00 0.  1.
         21    1    1    2  503  501 -0.19635593723E+02  0.11258091614E+02  0.13295330417E+02  0.26250085305E+02  0.00000000000E+00 0. -1.
         21    1    1    2  504  503  0.19635593723E+02 -0.11258091614E+02  0.64873012750E+02  0.68708143265E+02  0.00000000000E+00 0. -1.
<mgrwt>
<rscale>  2 0.22634071E+02</rscale>
<asrwt>0</asrwt>
<pdfrwt beam="1">  1       21 0.13317428E-01 0.22634071E+02</pdfrwt>
<pdfrwt beam="2">  1       21 0.12915297E-02 0.22634071E+02</pdfrwt>
<totfact> 0.83749874E+07</totfact>
</mgrwt>
</event>
<event>
 4    1  0.9138221E+003  0.9657825E+02  0.7546771E-02  0.1287661E+00
         21   -1    0    0  504  501  0.00000000000E+00  0.00000000000E+00  0.21556890435E+03  0.21556890435E+03  0.00000000000E+00 0.  1.
         21   -1    0    0  501  502 -0.00000000000E+00 -0.00000000000E+00 -0.11341657955E+03  0.11341657955E+03  0.00000000000E+00 0.  1.
         21    1    1    2  503  502 -0.36355480933E+01  0.96509801400E+02 -0.78288640941E+02  0.12432405349E+03  0.00000000000E+00 0.  1.
         21    1    1    2  504  503  0.36355480933E+01 -0.96509801400E+02  0.18044096574E+03  0.20466143040E+03  0.00000000000E+00 0.  1.
<mgrwt>
<rscale>  2 0.96578253E+02</rscale>
<asrwt>0</asrwt>
<pdfrwt beam="1">  1       21 0.33164447E-01 0.96578253E+02</pdfrwt>
<pdfrwt beam="2">  1       21 0.17448705E-01 0.96578253E+02</pdfrwt>
<totfact> 0.26594493E+05</totfact>
</mgrwt>
</event>
<event>
 4    1  0.9138221E+003  0.2139419E+02  0.7546771E-02  0.1718945E+00
         21   -1    0    0  504  501  0.00000000000E+00  0.00000000000E+00  0.95690070041E+00  0.95690070041E+00  0.00000000000E+00 0.  1.
         21   -1    0    0  501  502 -0.00000000000E+00 -0.00000000000E+00 -0.55611970252E+03  0.55611970252E+03  0.00000000000E+00 0.  1.
         21    1    1    2  503  502 -0.19623260549E+02 -0.85228614552E+01 -0.17340484953E+03  0.17471964218E+03  0.00000000000E+00 0. -1.
         21    1    1    2  504  503  0.19623260549E+02  0.85228614552E+01 -0.38175795229E+03  0.38235696104E+03  0.00000000000E+00 0. -1.
<mgrwt>
<rscale>  2 0.21394194E+02</rscale>
<asrwt>0</asrwt>
<pdfrwt beam="1">  1       21 0.14721572E-03 0.21394194E+02</pdfrwt>
<pdfrwt beam="2">  1       21 0.85556743E-01 0.21394194E+02</pdfrwt>
<totfact> 0.62920172E+07</totfact>
</mgrwt>
</event>
<event>
 4    1  0.9138221E+003  0.3735655E+02  0.7546771E-02  0.1528617E+00
         21   -1    0    0  504  501  0.00000000000E+00  0.00000000000E+00  0.20289874039E+03  0.20289874039E+03  0.00000000000E+00 0. -1.
         21   -1    0    0  501  502 -0.00000000000E+00 -0.00000000000E+00 -0.14725457627E+02  0.14725457627E+02  0.00000000000E+00 0. -1.
         21    1    1    2  503  502 -0.16715841330E+02 -0.33407967324E+02  0.14651840674E+02  0.40127148755E+02  0.00000000000E+00 0. -1.
         21    1    1    2  504  503  0.16715841330E+02  0.33407967324E+02  0.17352144209E+03  0.17749704927E+03  0.00000000000E+00 0. -1.
<mgrwt>
<rscale>  2 0.37356547E+02</rscale>
<asrwt>0</asrwt>
<pdfrwt beam="1">  1       21 0.31215189E-01 0.37356547E+02</pdfrwt>
<pdfrwt beam="2">  1       21 0.22654552E-02 0.37356547E+02</pdfrwt>
<totfact> 0.86466345E+06</totfact>
</mgrwt>
</event>
<event>
 4    1  0.9138221E+003  0.5699467E+02  0.7546771E-02  0.1410895E+00
         21   -1    0    0  504  501  0.00000000000E+00  0.00000000000E+00  0.63703437402E+02  0.63703437402E+02  0.00000000000E+00 0.  1.
         21   -1    0    0  501  502 -0.00000000000E+00 -0.00000000000E+00 -0.16655810041E+03  0.16655810041E+03  0.00000000000E+00 0.  1.
         21    1    1    2  503  502  0.54868036223E+02  0.15423699137E+02 -0.14732829752E+03  0.15796841185E+03  0.00000000000E+00 0. -1.
         21    1    1    2  504  503 -0.54868036223E+02 -0.15423699137E+02  0.44473634512E+02  0.72293125957E+02  0.00000000000E+00 0. -1.
<mgrwt>
<rscale>  2 0.56994665E+02</rscale>
<asrwt>0</asrwt>
<pdfrwt beam="1">  1       21 0.98005291E-02 0.56994665E+02</pdfrwt>
<pdfrwt beam="2">  1       21 0.25624323E-01 0.56994665E+02</pdfrwt>
<totfact> 0.11876206E+06</totfact>
</mgrwt>
</event>
<event>
 4    1  0.9138221E+003  0.2193592E+02  0.7546771E-02  0.1709363E+00
         21   -1    0    0  502  501  0.00000000000E+00  0.00000000000E+00  0.53605854853E+00  0.53605854853E+00  0.00000000000E+00 0. -1.
         21   -1    0    0  504  502 -0.00000000000E+00 -0.00000000000E+00 -0.10188970959E+04  0.10188970959E+04  0.00000000000E+00 0. -1.
         21    1    1    2  503  501 -0.58420903808E+01  0.21143661171E+02 -0.33333643552E+03  0.33405742572E+03  0.00000000000E+00 0. -1.
         21    1    1    2  504  503  0.58420903808E+01 -0.21143661171E+02 -0.68502460187E+03  0.68537572878E+03  0.00000000000E+00 0. -1.
<mgrwt>
<rscale>  2 0.21935916E+02</rscale>
<asrwt>0</asrwt>
<pdfrwt beam="1">  1       21 0.82470564E-04 0.21935916E+02</pdfrwt>
<pdfrwt beam="2">  1       21 0.15675336E+00 0.21935916E+02</pdfrwt>
<totfact> 0.37077865E+07</totfact>
</mgrwt>
</event>
<event>
 4    1  0.9138221E+003  0.2998014E+02  0.7546771E-02  0.1598308E+00
         21   -1    0    0  503  501  0.00000000000E+00  0.00000000000E+00  0.29125649336E+02  0.29125649336E+02  0.00000000000E+00 0. -1.
         21   -1    0    0  501  502 -0.00000000000E+00 -0.00000000000E+00 -0.51108373465E+02  0.51108373465E+02  0.00000000000E+00 0. -1.
         21    1    1    2  503  504  0.29821726597E+02 -0.30778608767E+01 -0.36242497001E+02  0.47035382359E+02  0.00000000000E+00 0. -1.
         21    1    1    2  504  502 -0.29821726597E+02  0.30778608767E+01  0.14259772872E+02  0.33198640441E+02  0.00000000000E+00 0. -1.
<mgrwt>
<rscale>  2 0.29980137E+02</rscale>
<asrwt>0</asrwt>
<pdfrwt beam="1">  1       21 0.44808692E-02 0.29980137E+02</pdfrwt>
<pdfrwt beam="2">  1       21 0.78628266E-02 0.29980137E+02</pdfrwt>
<totfact> 0.31227840E+07</totfact>
</mgrwt>
</event>
<event>
 4    1  0.9138221E+003  0.4153889E+02  0.7546771E-02  0.1497183E+00
         21   -1    0    0  502  501  0.00000000000E+00  0.00000000000E+00  0.54287536364E+03  0.54287536364E+03  0.00000000000E+00 0. -1.
         21   -1    0    0  503  502 -0.00000000000E+00 -0.00000000000E+00 -0.39745863369E+01  0.39745863369E+01  0.00000000000E+00 0. -1.
         21    1    1    2  503  504  0.13073537251E+02  0.39427937837E+02  0.39182667261E+03  0.39402236107E+03  0.00000000000E+00 0.  1.
         21    1    1    2  504  501 -0.13073537251E+02 -0.39427937837E+02  0.14707410470E+03  0.15282758890E+03  0.00000000000E+00 0.  1.
<mgrwt>
<rscale>  2 0.41538893E+02</rscale>
<asrwt>0</asrwt>
<pdfrwt beam="1">  1       21 0.83519228E-01 0.41538893E+02</pdfrwt>
<pdfrwt beam="2">  1       21 0.61147525E-03 0.41538893E+02</pdfrwt>
<totfact> 0.91577154E+06</totfact>
</mgrwt>
</event>
<event>
 4    1  0.9138221E+003  0.2596565E+02  0.7546771E-02  0.1647507E+00
         21   -1    0    0  504  501  0.00000000000E+00  0.00000000000E+00  0.16626610276E+03  0.16626610276E+03  0.00000000000E+00 0. -1.
         21   -1    0    0  501  502 -0.00000000000E+00 -0.00000000000E+00 -0.60145011298E+01  0.60145011298E+01  0.00000000000E+00 0. -1.
         21    1    1    2  503  502 -0.96908279965E+01 -0.24089474485E+02  0.30958606841E+02  0.40406067190E+02  0.00000000000E+00 0.  1.
         21    1    1    2  504  503  0.96908279965E+01  0.24089474485E+02  0.12929299479E+03  0.13187453670E+03  0.00000000000E+00 0.  1.
<mgrwt>
<rscale>  2 0.25965649E+02</rscale>
<asrwt>0</asrwt>
<pdfrwt beam="1">  1       21 0.25579397E-01 0.25965649E+02</pdfrwt>
<pdfrwt beam="2">  1       21 0.92530799E-03 0.25965649E+02</pdfrwt>
<totfact> 0.46113002E+07</totfact>
</mgrwt>
</event>
<event>
 4    1  0.9138221E+003  0.3253183E+02  0.7546771E-02  0.1571678E+00
         21   -1    0    0  504  501  0.00000000000E+00  0.00000000000E+00  0.64096712361E+02  0.64096712361E+02  0.00000000000E+00 0. -1.
         21   -1    0    0  501  502 -0.00000000000E+00 -0.00000000000E+00 -0.22193078665E+02  0.22193078665E+02  0.00000000000E+00 0. -1.
         21    1    1    2  503  502 -0.85521968277E+01 -0.31387579865E+02  0.42782266729E+02  0.53746093689E+02  0.00000000000E+00 0. -1.
         21    1    1    2  504  503  0.85521968277E+01  0.31387579865E+02 -0.87863303343E+00  0.32543697337E+02  0.00000000000E+00 0. -1.
<mgrwt>
<rscale>  2 0.32531834E+02</rscale>
<asrwt>0</asrwt>
<pdfrwt beam="1">  1       21 0.98610326E-02 0.32531834E+02</pdfrwt>
<pdfrwt beam="2">  1       21 0.34143198E-02 0.32531834E+02</pdfrwt>
<totfact> 0.33592791E+07</totfact>
</mgrwt>
</event>
<event>
 4    1  0.9138221E+003  0.2293615E+02  0.7546771E-02  0.1692547E+00
         21   -1    0    0  504  501  0.00000000000E+00  0.00000000000E+00  0.14657123913E+02  0.14657123913E+02  0.00000000000E+00 0.  1.
         21   -1    0    0  501  502 -0.00000000000E+00 -0.00000000000E+00 -0.13873648700E+03  0.13873648700E+03  0.00000000000E+00 0.  1.
         21    1    1    2  503  502  0.90393476056E+01 -0.21079786494E+02 -0.12807455386E+03  0.13011209994E+03  0.00000000000E+00 0. -1.
         21    1    1    2  504  503 -0.90393476056E+01  0.21079786494E+02  0.39951907768E+01  0.23281510971E+02  0.00000000000E+00 0. -1.
<mgrwt>
<rscale>  2 0.22936155E+02</rscale>
<asrwt>0</asrwt>
<pdfrwt beam="1">  1       21 0.22549421E-02 0.22936155E+02</pdfrwt>
<pdfrwt beam="2">  1       21 0.21344075E-01 0.22936155E+02</pdfrwt>
<totfact> 0.15955445E+07</totfact>
</mgrwt>
</event>
<event>
 4    1  0.9138221E+003  0.2322302E+02  0.7546771E-02  0.1687920E+00
         21   -1    0    0  502  501  0.00000000000E+00  0.00000000000E+00  0.34775107217E+02  0.34775107217E+02  0.00000000000E+00 0.  1.
         21   -1    0    0  503  502 -0.00000000000E+00 -0.00000000000E+00 -0.31805316590E+02  0.31805316590E+02  0.00000000000E+00 0.  1.
         21    1    1    2  503  504 -0.47395278372E+01 -0.22734238078E+02 -0.22344799893E+02  0.32227298791E+02  0.00000000000E+00 0.  1.
         21    1    1    2  504  501  0.47395278372E+01  0.22734238078E+02  0.25314590520E+02  0.34353125015E+02  0.00000000000E+00 0.  1.
<mgrwt>
<rscale>  2 0.23223021E+02</rscale>
<asrwt>0</asrwt>
<pdfrwt beam="1">  1       21 0.53500165E-02 0.23223021E+02</pdfrwt>
<pdfrwt beam="2">  1       21 0.48931256E-02 0.23223021E+02</pdfrwt>
<totfact> 0.47778653E+07</totfact>
</mgrwt>
</event>
<event>
 4    1  0.9138221E+003  0.3065634E+02  0.7546771E-02  0.1590945E+00
         21   -1    0    0  502  501  0.00000000000E+00  0.00000000000E+00  0.72340552205E+03  0.72340552205E+03  0.00000000000E+00 0. -1.
         21   -1    0    0  504  502 -0.00000000000E+00 -0.00000000000E+00 -0.16568342078E+01  0.16568342078E+01  0.00000000000E+00 0. -1.
         21    1    1    2  503  501  0.70497163963E+01 -0.29834751559E+02  0.52931886093E+03  0.53020587269E+03  0.00000000000E+00 0.  1.
         21    1    1    2  504  503 -0.70497163963E+01  0.29834751559E+02  0.19242982691E+03  0.19485648356E+03  0.00000000000E+00 0.  1.
<mgrwt>
<rscale>  2 0.30656335E+02</rscale>
<asrwt>0</asrwt>
<pdfrwt beam="1">  1       21 0.11129290E+00 0.30656335E+02</pdfrwt>
<pdfrwt beam="2">  1       21 0.25489815E-03 0.30656335E+02</pdfrwt>
<totfact> 0.17128217E+07</totfact>
</mgrwt>
</event>
<event>
 4    1  0.9138221E+003  0.2055382E+02  0.7546771E-02  0.1734534E+00
         21   -1    0    0  502  501  0.00000000000E+00  0.00000000000E+00  0.22359290281E+02  0.22359290281E+02  0.00000000000E+00 0.  1.
         21   -1    0    0  503  502 -0.00000000000E+00 -0.00000000000E+00 -0.89655297966E+02  0.89655297966E+02  0.00000000000E+00 0.  1.
         21    1    1    2  503  504  0.39322143891E+01  0.20174168062E+02  0.16108986615E+02  0.26114341209E+02  0.00000000000E+00 0. -1.
         21    1    1    2  504  501 -0.39322143891E+01 -0.20174168062E+02 -0.83404994301E+02  0.85900247039E+02  0.00000000000E+00 0. -1.
<mgrwt>
<rscale>  2 0.20553816E+02</rscale>
<asrwt>0</asrwt>
<pdfrwt beam="1">  1       21 0.34398909E-02 0.20553816E+02</pdfrwt>
<pdfrwt beam="2">  1       21 0.13793122E-01 0.20553816E+02</pdfrwt>
<totfact> 0.17147218E+07</totfact>
</mgrwt>
</event>
<event>
 4    1  0.9138221E+003  0.2477221E+02  0.7546771E-02  0.1664295E+00
         21   -1    0    0  504  501  0.00000000000E+00  0.00000000000E+00  0.29717108468E+01  0.29717108468E+01  0.00000000000E+00 0. -1.
         21   -1    0    0  501  502 -0.00000000000E+00 -0.00000000000E+00 -0.31859712211E+03  0.31859712211E+03  0.00000000000E+00 0. -1.
         21    1    1    2  503  502  0.24736830028E+02 -0.13235228704E+01 -0.62441442531E+02  0.67175860381E+02  0.00000000000E+00 0. -1.
         21    1    1    2  504  503 -0.24736830028E+02  0.13235228704E+01 -0.25318396873E+03  0.25439297258E+03  0.00000000000E+00 0. -1.
<mgrwt>
<rscale>  2 0.24772212E+02</rscale>
<asrwt>0</asrwt>
<pdfrwt beam="1">  1       21 0.45718648E-03 0.24772212E+02</pdfrwt>
<pdfrwt beam="2">  1       21 0.49014921E-01 0.24772212E+02</pdfrwt>
<totfact> 0.38783693E+07</totfact>
</mgrwt>
</event>
<event>
 4    1  0.9138221E+003  0.2840323E+02  0.7546771E-02  0.1616440E+00
         21   -1    0    0  502  501  0.00000000000E+00  0.00000000000E+00  0.49156620827E+01  0.49156620827E+01  0.00000000000E+00 0. -1.
         21   -1    0    0  504  502 -0.00000000000E+00 -0.00000000000E+00 -0.22074060907E+03  0.22074060907E+03  0.00000000000E+00 0. -1.
         21    1    1    2  503  501 -0.28375170222E+02  0.12622799884E+01 -0.50767882602E+02  0.58173202935E+02  0.00000000000E+00 0. -1.
         21    1    1    2  504  503  0.28375170222E+02 -0.12622799884E+01 -0.16505706439E+03  0.16748306822E+03  0.00000000000E+00 0. -1.
<mgrwt>
<rscale>  2 0.28403233E+02</rscale>
<asrwt>0</asrwt>
<pdfrwt beam="1">  1       21 0.75625572E-03 0.28403233E+02</pdfrwt>
<pdfrwt beam="2">  1       21 0.33960093E-01 0.28403233E+02</pdfrwt>
<totfact> 0.37925436E+07</totfact>
</mgrwt>
</event>
<event>
 4    1  0.9138221E+003  0.2103785E+02  0.7546771E-02  0.1725444E+00
         21   -1    0    0  503  501  0.00000000000E+00  0.00000000000E+00  0.39095333109E+02  0.39095333109E+02  0.00000000000E+00 0.  1.
         21   -1    0    0  501  502 -0.00000000000E+00 -0.00000000000E+00 -0.15648046686E+02  0.15648046686E+02  0.00000000000E+00 0.  1.
         21    1    1    2  503  504  0.20812652320E+02  0.30699313737E+01 -0.26701975432E+01  0.21206624676E+02  0.00000000000E+00 0. -1.
         21    1    1    2  504  502 -0.20812652320E+02 -0.30699313737E+01  0.26117483966E+02  0.33536755120E+02  0.00000000000E+00 0. -1.
<mgrwt>
<rscale>  2 0.21037846E+02</rscale>
<asrwt>0</asrwt>
<pdfrwt beam="1">  1       21 0.60146666E-02 0.21037846E+02</pdfrwt>
<pdfrwt beam="2">  1       21 0.24073918E-02 0.21037846E+02</pdfrwt>
<totfact> 0.11685398E+08</totfact>
</mgrwt>
</event>
<event>
 4    1  0.9138221E+003  0.3132141E+02  0.7546771E-02  0.1583925E+00
         21   -1    0    0  503  501  0.00000000000E+00  0.00000000000E+00  0.12715351068E+03  0.12715351068E+03  0.00000000000E+00 0. -1.
         21   -1    0    0  501  502 -0.00000000000E+00 -0.00000000000E+00 -0.20719347083E+02  0.20719347083E+02  0.00000000000E+00 0. -1.
         21    1    1    2  503  504 -0.31044012210E+02  0.41593669193E+01 -0.53575056533E+01  0.31776310265E+02  0.00000000000E+00 0. -1.
         21    1    1    2  504  502  0.31044012210E+02 -0.41593669193E+01  0.11179166925E+03  0.11609654750E+03  0.00000000000E+00 0. -1.
<mgrwt>
<rscale>  2 0.31321415E+02</rscale>
<asrwt>0</asrwt>
<pdfrwt beam="1">  1       21 0.19562078E-01 0.31321415E+02</pdfrwt>
<pdfrwt beam="2">  1       21 0.31875919E-02 0.31321415E+02</pdfrwt>
<totfact> 0.11479281E+07</totfact>
</mgrwt>
</event>
<event>
 4    1  0.9138221E+003  0.2206084E+02  0.7546771E-02  0.1707202E+00
         21   -1    0    0  502  501  0.00000000000E+00  0.00000000000E+00  0.14440253935E+02  0.14440253935E+02  0.00000000000E+00 0.  1.
         21   -1    0    0  504  502 -0.00000000000E+00 -0.00000000000E+00 -0.69230573074E+02  0.69230573074E+02  0.00000000000E+00 0.  1.
         21    1    1    2  503  501  0.11991940199E+02 -0.18516863048E+02 -0.57364519209E+02  0.61460303538E+02  0.00000000000E+00 0. -1.
         21    1    1    2  504  503 -0.11991940199E+02  0.18516863048E+02  0.25742000704E+01  0.22210523471E+02  0.00000000000E+00 0. -1.
<mgrwt>
<rscale>  2 0.22060844E+02</rscale>
<asrwt>0</asrwt>
<pdfrwt beam="1">  1       21 0.22215775E-02 0.22060844E+02</pdfrwt>
<pdfrwt beam="2">  1       21 0.10650857E-01 0.22060844E+02</pdfrwt>
<totfact> 0.52854153E+07</totfact>
</mgrwt>
</event>
<event>
 4    1  0.9138221E+003  0.2384754E+02  0.7546771E-02  0.1678129E+00
         21   -1    0    0  504  501  0.00000000000E+00  0.00000000000E+00  0.98404825837E+02  0.98404825837E+02  0.00000000000E+00 0.  1.
         21   -1    0    0  501  502 -0.00000000000E+00 -0.00000000000E+00 -0.11157294777E+02  0.11157294777E+02  0.00000000000E+00 0.  1.
         21    1    1    2  503  502 -0.11538703789E+02  0.20870159482E+02  0.81657024013E+02  0.85068059886E+02  0.00000000000E+00 0.  1.
         21    1    1    2  504  503  0.11538703789E+02 -0.20870159482E+02  0.55905070460E+01  0.24494060729E+02  0.00000000000E+00 0.  1.
<mgrwt>
<rscale>  2 0.23847542E+02</rscale>
<asrwt>0</asrwt>
<pdfrwt beam="1">  1       21 0.15139203E-01 0.23847542E+02</pdfrwt>
<pdfrwt beam="2">  1       21 0.17165070E-02 0.23847542E+02</pdfrwt>
<totfact> 0.44327586E+07</totfact>
</mgrwt>
</event>
<event>
 4    1  0.9138221E+003  0.3019506E+02  0.7546771E-02  0.1595942E+00
         21   -1    0    0  502  501  0.00000000000E+00  0.00000000000E+00  0.81765127185E+02  0.81765127185E+02  0.00000000000E+00 0.  1.
         21   -1    0    0  503  502 -0.00000000000E+00 -0.00000000000E+00 -0.24198791816E+02  0.24198791816E+02  0.00000000000E+00 0.  1.
         21    1    1    2  503  504 -0.69913946234E+01  0.29374513607E+02 -0.10121706600E+02  0.31846359178E+02  0.00000000000E+00 0. -1.
         21    1    1    2  504  501  0.69913946234E+01 -0.29374513607E+02  0.67688041969E+02  0.74117559822E+02  0.00000000000E+00 0. -1.
<mgrwt>
<rscale>  2 0.30195060E+02</rscale>
<asrwt>0</asrwt>
<pdfrwt beam="1">  1       21 0.12579250E-01 0.30195060E+02</pdfrwt>
<pdfrwt beam="2">  1       21 0.37228911E-02 0.30195060E+02</pdfrwt>
<totfact> 0.19150580E+07</totfact>
</mgrwt>
</event>
<event>
 4    1  0.9138221E+003  0.2086890E+02  0.7546771E-02  0.1728581E+00
         21   -1    0    0  503  501  0.00000000000E+00  0.00000000000E+00  0.26228591325E+02  0.26228591325E+02  0.00000000000E+00 0.  1.
         21   -1    0    0  501  502 -0.00000000000E+00 -0.00000000000E+00 -0.20630881438E+02  0.20630881438E+02  0.00000000000E+00 0.  1.
         21    1    1    2  503  504 -0.19578871661E+02  0.72234799601E+01 -0.75518421696E+01  0.22193269214E+02  0.00000000000E+00 0.  1.
         21    1    1    2  504  502  0.19578871661E+02 -0.72234799601E+01  0.13149552057E+02  0.24666203549E+02  0.00000000000E+00 0.  1.
<mgrwt>
<rscale>  2 0.20868897E+02</rscale>
<asrwt>0</asrwt>
<pdfrwt beam="1">  1       21 0.40351679E-02 0.20868897E+02</pdfrwt>
<pdfrwt beam="2">  1       21 0.31739817E-02 0.20868897E+02</pdfrwt>
<totfact> 0.14310094E+08</totfact>
</mgrwt>
</event>
<event>
 4    1  0.9138221E+003  0.3065286E+02  0.7546771E-02  0.1590982E+00
         21   -1    0    0  502  501  0.00000000000E+00  0.00000000000E+00  0.10608394858E+04  0.10608394858E+04  0.00000000000E+00 0.  1.
         21   -1    0    0  503  502 -0.00000000000E+00 -0.00000000000E+00 -0.13071480652E+01  0.13071480652E+01  0.00000000000E+00 0.  1.
         21    1    1    2  503  504 -0.12026894572E+02  0.28194888295E+02  0.83131531654E+03  0.83188025186E+03  0.00000000000E+00 0. -1.
         21    1    1    2  504  501  0.12026894572E+02 -0.28194888295E+02  0.22821702116E+03  0.23026638197E+03  0.00000000000E+00 0. -1.
<mgrwt>
<rscale>  2 0.30652862E+02</rscale>
<asrwt>0</asrwt>
<pdfrwt beam="1">  1       21 0.16320539E+00 0.30652862E+02</pdfrwt>
<pdfrwt beam="2">  1       21 0.20110055E-03 0.30652862E+02</pdfrwt>
<totfact> 0.98224225E+06</totfact>
</mgrwt>
</event>
<event>
 4    1  0.9138221E+003  0.7217721E+02  0.7546771E-02  0.1352842E+00
         21   -1    0    0  503  501  0.00000000000E+00  0.00000000000E+00  0.47008280130E+01  0.47008280130E+01  0.00000000000E+00 0. -1.
         21   -1    0    0  501  502 -0.00000000000E+00 -0.00000000000E+00 -0.16261284733E+04  0.16261284733E+04  0.00000000000E+00 0. -1.
         21    1    1    2  503  504  0.65745644136E+02  0.29783545691E+02 -0.35053376228E+03  0.35788750720E+03  0.00000000000E+00 0.  1.
         21    1    1    2  504  502 -0.65745644136E+02 -0.29783545691E+02 -0.12708938830E+04  0.12729417941E+04  0.00000000000E+00 0.  1.
<mgrwt>
<rscale>  2 0.72177208E+02</rscale>
<asrwt>0</asrwt>
<pdfrwt beam="1">  1       21 0.72320389E-03 0.72177208E+02</pdfrwt>
<pdfrwt beam="2">  1       21 0.25017376E+00 0.72177208E+02</pdfrwt>
<totfact> 0.45073088E+05</totfact>
</mgrwt>
</event>
<event>
 4    1  0.9138221E+003  0.3167850E+02  0.7546771E-02  0.1580243E+00
         21   -1    0    0  503  501  0.00000000000E+00  0.00000000000E+00  0.68988384917E+00  0.68988384917E+00  0.00000000000E+00 0.  1.
         21   -1    0    0  501  502 -0.00000000000E+00 -0.00000000000E+00 -0.16196962792E+04  0.16196962792E+04  0.00000000000E+00 0.  1.
         21    1    1    2  503  504 -0.41110188704E+01  0.31410615180E+02 -0.55086176373E+03  0.55177188218E+03  0.00000000000E+00 0. -1.
         21    1    1    2  504  502  0.41110188704E+01 -0.31410615180E+02 -0.10681446316E+04  0.10686142808E+04  0.00000000000E+00 0. -1.
<mgrwt>
<rscale>  2 0.31678498E+02</rscale>
<asrwt>0</asrwt>
<pdfrwt beam="1">  1       21 0.10613560E-03 0.31678498E+02</pdfrwt>
<pdfrwt beam="2">  1       21 0.24918494E+00 0.31678498E+02</pdfrwt>
<totfact> 0.80392856E+06</totfact>
</mgrwt>
</event>
<event>
 4    1  0.9138221E+003  0.2976360E+02  0.7546771E-02  0.1600717E+00
         21   -1    0    0  502  501  0.00000000000E+00  0.00000000000E+00  0.12771856521E+03  0.12771856521E+03  0.00000000000E+00 0.  1.
         21   -1    0    0  504  502 -0.00000000000E+00 -0.00000000000E+00 -0.10684365353E+02  0.10684365353E+02  0.00000000000E+00 0.  1.
         21    1    1    2  503  501 -0.26205617742E+02  0.14111610052E+02  0.99504902740E+02  0.10386095324E+03  0.00000000000E+00 0.  1.
         21    1    1    2  504  503  0.26205617742E+02 -0.14111610052E+02  0.17529297113E+02  0.34541977315E+02  0.00000000000E+00 0.  1.
<mgrwt>
<rscale>  2 0.29763601E+02</rscale>
<asrwt>0</asrwt>
<pdfrwt beam="1">  1       21 0.19649009E-01 0.29763601E+02</pdfrwt>
<pdfrwt beam="2">  1       21 0.16437486E-02 0.29763601E+02</pdfrwt>
<totfact> 0.31670632E+07</totfact>
</mgrwt>
</event>
<event>
 4    1  0.9138221E+003  0.2605505E+02  0.7546771E-02  0.1646295E+00
         21   -1    0    0  504  501  0.00000000000E+00  0.00000000000E+00  0.10142863349E+01  0.10142863349E+01  0.00000000000E+00 0.  1.
         21   -1    0    0  501  502 -0.00000000000E+00 -0.00000000000E+00 -0.86989536811E+03  0.86989536811E+03  0.00000000000E+00 0.  1.
         21    1    1    2  503  502  0.13247604420E+02 -0.22435828063E+02 -0.64354642371E+03  0.64407364864E+03  0.00000000000E+00 0. -1.
         21    1    1    2  504  503 -0.13247604420E+02  0.22435828063E+02 -0.22533465807E+03  0.22683600581E+03  0.00000000000E+00 0. -1.
<mgrwt>
<rscale>  2 0.26055046E+02</rscale>
<asrwt>0</asrwt>
<pdfrwt beam="1">  1       21 0.15604422E-03 0.26055046E+02</pdfrwt>
<pdfrwt beam="2">  1       21 0.13382991E+00 0.26055046E+02</pdfrwt>
<totfact> 0.22314887E+07</totfact>
</mgrwt>
</event>
<event>
 4    1  0.9138221E+003  0.2060581E+02  0.7546771E-02  0.1733542E+00
         21   -1    0    0  502  501  0.00000000000E+00  0.00000000000E+00  0.19336100786E+01  0.19336100786E+01  0.00000000000E+00 0.  1.
         21   -1    0    0  504  502 -0.00000000000E+00 -0.00000000000E+00 -0.22891691028E+03  0.22891691028E+03  0.00000000000E+00 0.  1.
         21    1    1    2  503  501 -0.20598545021E+02  0.54707880303E+00 -0.13679165042E+03  0.13833493766E+03  0.00000000000E+00 0. -1.
         21    1    1    2  504  503  0.20598545021E+02 -0.54707880303E+00 -0.90191649786E+02  0.92515582705E+02  0.00000000000E+00 0. -1.
<mgrwt>
<rscale>  2 0.20605809E+02</rscale>
<asrwt>0</asrwt>
<pdfrwt beam="1">  1       21 0.29747874E-03 0.20605809E+02</pdfrwt>
<pdfrwt beam="2">  1       21 0.35217955E-01 0.20605809E+02</pdfrwt>
<totfact> 0.12981168E+08</totfact>
</mgrwt>
</event>
<event>
 4    1  0.9138221E+003  0.3784085E+02  0.7546771E-02  0.1524729E+00
         21   -1    0    0  502  501  0.00000000000E+00  0.00000000000E+00  0.12225396182E+02  0.12225396182E+02  0.00000000000E+00 0. -1.
         21   -1    0    0  504  502 -0.00000000000E+00 -0.00000000000E+00 -0.28182989352E+03  0.28182989352E+03  0.00000000000E+00 0. -1.
         21    1    1    2  503  501 -0.67491253917E+01 -0.37234112658E+02 -0.24719943894E+03  0.25007897243E+03  0.00000000000E+00 0. -1.
         21    1    1    2  504  503  0.67491253917E+01  0.37234112658E+02 -0.22405058395E+02  0.43976317270E+02  0.00000000000E+00 0. -1.
<mgrwt>
<rscale>  2 0.37840849E+02</rscale>
<asrwt>0</asrwt>
<pdfrwt beam="1">  1       21 0.18808304E-02 0.37840849E+02</pdfrwt>
<pdfrwt beam="2">  1       21 0.43358441E-01 0.37840849E+02</pdfrwt>
<totfact> 0.61997150E+06</totfact>
</mgrwt>
</event>
<event>
 4    1  0.9138221E+003  0.2051706E+02  0.7546771E-02  0.1735237E+00
         21   -1    0    0  503  501  0.00000000000E+00  0.00000000000E+00  0.11748206783E+02  0.11748206783E+02  0.00000000000E+00 0. -1.
         21   -1    0    0  501  502 -0.00000000000E+00 -0.00000000000E+00 -0.37519530972E+02  0.37519530972E+02  0.00000000000E+00 0. -1.
         21    1    1    2  503  504 -0.11102965396E+02 -0.17253229832E+02 -0.76597654532E+01  0.21900269109E+02  0.00000000000E+00 0.  1.
         21    1    1    2  504  502  0.11102965396E+02  0.17253229832E+02 -0.18111558736E+02  0.27367468646E+02  0.00000000000E+00 0.  1.
<mgrwt>
<rscale>  2 0.20517061E+02</rscale>
<asrwt>0</asrwt>
<pdfrwt beam="1">  1       21 0.18074165E-02 0.20517061E+02</pdfrwt>
<pdfrwt beam="2">  1       21 0.57722354E-02 0.20517061E+02</pdfrwt>
<totfact> 0.19203495E+08</totfact>
</mgrwt>
</event>
<event>
 4    1  0.9138221E+003  0.2677880E+02  0.7546771E-02  0.1636693E+00
         21   -1    0    0  504  501  0.00000000000E+00  0.00000000000E+00  0.73934833762E+02  0.73934833762E+02  0.00000000000E+00 0.  1.
         21   -1    0    0  501  502 -0.00000000000E+00 -0.00000000000E+00 -0.19603902485E+02  0.19603902485E+02  0.00000000000E+00 0.  1.
         21    1    1    2  503  502 -0.21870492097E+02 -0.15452686343E+02 -0.60784656752E+01  0.27460001543E+02  0.00000000000E+00 0. -1.
         21    1    1    2  504  503  0.21870492097E+02  0.15452686343E+02  0.60409396953E+02  0.66078734704E+02  0.00000000000E+00 0. -1.
<mgrwt>
<rscale>  2 0.26778796E+02</rscale>
<asrwt>0</asrwt>
<pdfrwt beam="1">  1       21 0.11374590E-01 0.26778796E+02</pdfrwt>
<pdfrwt beam="2">  1       21 0.30159850E-02 0.26778796E+02</pdfrwt>
<totfact> 0.30875627E+07</totfact>
</mgrwt>
</event>
<event>
 4    1  0.9138221E+003  0.2236672E+02  0.7546771E-02  0.1701986E+00
         21   -1    0    0  502  501  0.00000000000E+00  0.00000000000E+00  0.14049469283E+03  0.14049469283E+03  0.00000000000E+00 0. -1.
         21   -1    0    0  503  502 -0.00000000000E+00 -0.00000000000E+00 -0.51836462318E+01  0.51836462318E+01  0.00000000000E+00 0. -1.
         21    1    1    2  503  504  0.22342099346E+02 -0.10491091756E+01  0.26899734987E+02  0.34983793042E+02  0.00000000000E+00 0. -1.
         21    1    1    2  504  501 -0.22342099346E+02  0.10491091756E+01  0.10841131161E+03  0.11069454602E+03  0.00000000000E+00 0. -1.
<mgrwt>
<rscale>  2 0.22366717E+02</rscale>
<asrwt>0</asrwt>
<pdfrwt beam="1">  1       21 0.21614565E-01 0.22366717E+02</pdfrwt>
<pdfrwt beam="2">  1       21 0.79748414E-03 0.22366717E+02</pdfrwt>
<totfact> 0.74889404E+07</totfact>
</mgrwt>
</event>
<event>
 4    1  0.9138221E+003  0.4133777E+02  0.7546771E-02  0.1498591E+00
         21   -1    0    0  502  501  0.00000000000E+00  0.00000000000E+00  0.12659886028E+03  0.12659886028E+03  0.00000000000E+00 0. -1.
         21   -1    0    0  504  502 -0.00000000000E+00 -0.00000000000E+00 -0.24294745038E+02  0.24294745038E+02  0.00000000000E+00 0. -1.
         21    1    1    2  503  501 -0.38366547090E+02  0.15388927981E+02  0.85595578098E+00  0.41346628645E+02  0.00000000000E+00 0. -1.
         21    1    1    2  504  503  0.38366547090E+02 -0.15388927981E+02  0.10144815946E+03  0.10954697668E+03  0.00000000000E+00 0. -1.
<mgrwt>
<rscale>  2 0.41337768E+02</rscale>
<asrwt>0</asrwt>
<pdfrwt beam="1">  1       21 0.19476747E-01 0.41337768E+02</pdfrwt>
<pdfrwt beam="2">  1       21 0.37376532E-02 0.41337768E+02</pdfrwt>
<totfact> 0.93483316E+06</totfact>
</mgrwt>
</event>
<event>
 4    1  0.9138221E+003  0.2711059E+02  0.7546771E-02  0.1632415E+00
         21   -1    0    0  502  501  0.00000000000E+00  0.00000000000E+00  0.21389608288E+01  0.21389608288E+01  0.00000000000E+00 0. -1.
         21   -1    0    0  503  502 -0.00000000000E+00 -0.00000000000E+00 -0.36080144044E+03  0.36080144044E+03  0.00000000000E+00 0. -1.
         21    1    1    2  503  504  0.55359843499E+01 -0.26539352401E+02 -0.13972781820E+03  0.14233357836E+03  0.00000000000E+00 0.  1.
         21    1    1    2  504  501 -0.55359843499E+01  0.26539352401E+02 -0.21893466141E+03  0.22060682291E+03  0.00000000000E+00 0.  1.
<mgrwt>
<rscale>  2 0.27110595E+02</rscale>
<asrwt>0</asrwt>
<pdfrwt beam="1">  1       21 0.32907069E-03 0.27110595E+02</pdfrwt>
<pdfrwt beam="2">  1       21 0.55507948E-01 0.27110595E+02</pdfrwt>
<totfact> 0.50224575E+07</totfact>
</mgrwt>
</event>
<event>
 4    1  0.9138221E+003  0.2610206E+02  0.7546771E-02  0.1645659E+00
         21   -1    0    0  502  501  0.00000000000E+00  0.00000000000E+00  0.30191793423E+02  0.30191793423E+02  0.00000000000E+00 0. -1.
         21   -1    0    0  504  502 -0.00000000000E+00 -0.00000000000E+00 -0.42605910888E+02  0.42605910888E+02  0.00000000000E+00 0. -1.
         21    1    1    2  503  501  0.47658179401E+01 -0.25663291640E+02  0.18755967159E+02  0.32141933086E+02  0.00000000000E+00 0. -1.
         21    1    1    2  504  503 -0.47658179401E+01  0.25663291640E+02 -0.31170084623E+02  0.40655771225E+02  0.00000000000E+00 0. -1.
<mgrwt>
<rscale>  2 0.26102060E+02</rscale>
<asrwt>0</asrwt>
<pdfrwt beam="1">  1       21 0.46448913E-02 0.26102060E+02</pdfrwt>
<pdfrwt beam="2">  1       21 0.65547555E-02 0.26102060E+02</pdfrwt>
<totfact> 0.38508921E+07</totfact>
</mgrwt>
</event>
<event>
 4    1  0.9138221E+003  0.2060983E+02  0.7546771E-02  0.1733466E+00
         21   -1    0    0  503  501  0.00000000000E+00  0.00000000000E+00  0.85633926005E+01  0.85633926005E+01  0.00000000000E+00 0.  1.
         21   -1    0    0  501  502 -0.00000000000E+00 -0.00000000000E+00 -0.61412457662E+02  0.61412457662E+02  0.00000000000E+00 0.  1.
         21    1    1    2  503  504 -0.12755742488E+02 -0.16188147801E+02 -0.11081352607E+02  0.23400031436E+02  0.00000000000E+00 0.  1.
         21    1    1    2  504  502  0.12755742488E+02  0.16188147801E+02 -0.41767712455E+02  0.46575818826E+02  0.00000000000E+00 0.  1.
<mgrwt>
<rscale>  2 0.20609830E+02</rscale>
<asrwt>0</asrwt>
<pdfrwt beam="1">  1       21 0.13174450E-02 0.20609830E+02</pdfrwt>
<pdfrwt beam="2">  1       21 0.94480707E-02 0.20609830E+02</pdfrwt>
<totfact> 0.13995338E+08</totfact>
</mgrwt>
</event>
<event>
 4    1  0.9138221E+003  0.2322849E+02  0.7546771E-02  0.1687833E+00
         21   -1    0    0  503  501  0.00000000000E+00  0.00000000000E+00  0.30134052740E+03  0.30134052740E+03  0.00000000000E+00 0.  1.
         21   -1    0    0  501  502 -0.00000000000E+00 -0.00000000000E+00 -0.35142331116E+01  0.35142331116E+01  0.00000000000E+00 0.  1.
         21    1    1    2  503  504 -0.16776652338E+02 -0.16065700095E+02  0.42160793266E+02  0.48136215805E+02  0.00000000000E+00 0. -1.
         21    1    1    2  504  502  0.16776652338E+02  0.16065700095E+02  0.25566550102E+03  0.25671854471E+03  0.00000000000E+00 0. -1.
<mgrwt>
<rscale>  2 0.23228491E+02</rscale>
<asrwt>0</asrwt>
<pdfrwt beam="1">  1       21 0.46360061E-01 0.23228491E+02</pdfrwt>
<pdfrwt beam="2">  1       21 0.54065149E-03 0.23228491E+02</pdfrwt>
<totfact> 0.33243822E+07</totfact>
</mgrwt>
</event>
<event>
 4    1  0.9138221E+003  0.2434496E+02  0.7546771E-02  0.1670593E+00
         21   -1    0    0  502  501  0.00000000000E+00  0.00000000000E+00  0.84190719754E+00  0.84190719754E+00  0.00000000000E+00 0. -1.
         21   -1    0    0  504  502 -0.00000000000E+00 -0.00000000000E+00 -0.76108982731E+03  0.76108982731E+03  0.00000000000E+00 0. -1.
         21    1    1    2  503  501  0.78674270640E+01 -0.23038679420E+02 -0.27575708309E+03  0.27682963359E+03  0.00000000000E+00 0. -1.
         21    1    1    2  504  503 -0.78674270640E+01  0.23038679420E+02 -0.48449083702E+03  0.48510210092E+03  0.00000000000E+00 0. -1.
<mgrwt>
<rscale>  2 0.24344962E+02</rscale>
<asrwt>0</asrwt>
<pdfrwt beam="1">  1       21 0.12952439E-03 0.24344962E+02</pdfrwt>
<pdfrwt beam="2">  1       21 0.11709056E+00 0.24344962E+02</pdfrwt>
<totfact> 0.39153937E+07</totfact>
</mgrwt>
</event>
<event>
 4    1  0.9138221E+003  0.3610504E+02  0.7546771E-02  0.1539001E+00
         21   -1    0    0  502  501  0.00000000000E+00  0.00000000000E+00  0.26146171915E+02  0.26146171915E+02  0.00000000000E+00 0.  1.
         21   -1    0    0  504  502 -0.00000000000E+00 -0.00000000000E+00 -0.69163346505E+02  0.69163346505E+02  0.00000000000E+00 0.  1.
         21    1    1    2  503  501  0.18698692905E+02  0.30885806967E+02  0.36691324262E+01  0.36291000553E+02  0.00000000000E+00 0.  1.
         21    1    1    2  504  503 -0.18698692905E+02 -0.30885806967E+02 -0.46686307016E+02  0.59018517867E+02  0.00000000000E+00 0.  1.
<mgrwt>
<rscale>  2 0.36105044E+02</rscale>
<asrwt>0</asrwt>
<pdfrwt beam="1">  1       21 0.40224880E-02 0.36105044E+02</pdfrwt>
<pdfrwt beam="2">  1       21 0.10640515E-01 0.36105044E+02</pdfrwt>
<totfact> 0.23212622E+07</totfact>
</mgrwt>
</event>
<event>
 4    1  0.9138221E+003  0.2016853E+02  0.7546771E-02  0.1741997E+00
         21   -1    0    0  502  501  0.00000000000E+00  0.00000000000E+00  0.62481508623E+02  0.62481508623E+02  0.00000000000E+00 0.  1.
         21   -1    0    0  503  502 -0.00000000000E+00 -0.00000000000E+00 -0.14092696974E+02  0.14092696974E+02  0.00000000000E+00 0.  1.
         21    1    1    2  503  504  0.18754049717E+02  0.74199250894E+01 -0.38896870619E+01  0.20540188280E+02  0.00000000000E+00 0.  1.
         21    1    1    2  504  501 -0.18754049717E+02 -0.74199250894E+01  0.52278498711E+02  0.56034017317E+02  0.00000000000E+00 0.  1.
<mgrwt>
<rscale>  2 0.20168532E+02</rscale>
<asrwt>0</asrwt>
<pdfrwt beam="1">  1       21 0.96125396E-02 0.20168532E+02</pdfrwt>
<pdfrwt beam="2">  1       21 0.21681073E-02 0.20168532E+02</pdfrwt>
<totfact> 0.63428149E+07</totfact>
</mgrwt>
</event>
<event>
 4    1  0.9138221E+003  0.3305645E+02  0.7546771E-02  0.1566570E+00
         21   -1    0    0  502  501  0.00000000000E+00  0.00000000000E+00  0.10071715342E+02  0.10071715342E+02  0.00000000000E+00 0.  1.
         21   -1    0    0  503  502 -0.00000000000E+00 -0.00000000000E+00 -0.12703349127E+03  0.12703349127E+03  0.00000000000E+00 0.  1.
         21    1    1    2  503  504 -0.25265989942E+02  0.21315696893E+02 -0.32292795893E+02  0.46212053064E+02  0.00000000000E+00 0. -1.
         21    1    1    2  504  501  0.25265989942E+02 -0.21315696893E+02 -0.84668980039E+02  0.90893153552E+02  0.00000000000E+00 0. -1.
<mgrwt>
<rscale>  2 0.33056454E+02</rscale>
<asrwt>0</asrwt>
<pdfrwt beam="1">  1       21 0.15494947E-02 0.33056454E+02</pdfrwt>
<pdfrwt beam="2">  1       21 0.19543614E-01 0.33056454E+02</pdfrwt>
<totfact> 0.35739849E+07</totfact>
</mgrwt>
</event>
<event>
 4    1  0.9138221E+003  0.3589482E+02  0.7546771E-02  0.1540795E+00
         21   -1    0    0  502  501  0.00000000000E+00  0.00000000000E+00  0.98421180311E+03  0.98421180311E+03  0.00000000000E+00 0.  1.
         21   -1    0    0  504  502 -0.00000000000E+00 -0.00000000000E+00 -0.14713981016E+01  0.14713981016E+01  0.00000000000E+00 0.  1.
         21    1    1    2  503  501  0.16457187622E+02 -0.31899824784E+02  0.65504830819E+03  0.65603103883E+03  0.00000000000E+00 0.  1.
         21    1    1    2  504  503 -0.16457187622E+02  0.31899824784E+02  0.32769209683E+03  0.32965216239E+03  0.00000000000E+00 0.  1.
<mgrwt>
<rscale>  2 0.35894816E+02</rscale>
<asrwt>0</asrwt>
<pdfrwt beam="1">  1       21 0.15141667E+00 0.35894816E+02</pdfrwt>
<pdfrwt beam="2">  1       21 0.22636973E-03 0.35894816E+02</pdfrwt>
<totfact> 0.10097255E+07</totfact>
</mgrwt>
</event>
<event>
 4    1  0.9138221E+003  0.1074792E+03  0.7546771E-02  0.1265310E+00
         21   -1    0    0  502  501  0.00000000000E+00  0.00000000000E+00  0.40122079545E+03  0.40122079545E+03  0.00000000000E+00 0. -1.
         21   -1    0    0  503  502 -0.00000000000E+00 -0.00000000000E+00 -0.79822535026E+02  0.79822535026E+02  0.00000000000E+00 0. -1.
         21    1    1    2  503  504 -0.49433275147E+02  0.95436553689E+02 -0.31613696428E+02  0.11203218410E+03  0.00000000000E+00 0.  1.
         21    1    1    2  504  501  0.49433275147E+02 -0.95436553689E+02  0.35301195685E+03  0.36901114638E+03  0.00000000000E+00 0.  1.
<mgrwt>
<rscale>  2 0.10747923E+03</rscale>
<asrwt>0</asrwt>
<pdfrwt beam="1">  1       21 0.61726275E-01 0.10747923E+03</pdfrwt>
<pdfrwt beam="2">  1       21 0.12280390E-01 0.10747923E+03</pdfrwt>
<totfact> 0.14139001E+05</totfact>
</mgrwt>
</event>
<event>
 4    1  0.9138221E+003  0.2191758E+02  0.7546771E-02  0.1709681E+00
         21   -1    0    0  502  501  0.00000000000E+00  0.00000000000E+00  0.12130459277E+02  0.12130459277E+02  0.00000000000E+00 0.  1.
         21   -1    0    0  503  502 -0.00000000000E+00 -0.00000000000E+00 -0.54127804247E+02  0.54127804247E+02  0.00000000000E+00 0.  1.
         21    1    1    2  503  504  0.21815020943E+02  0.21178322751E+01 -0.38161244968E+02  0.44007510379E+02  0.00000000000E+00 0.  1.
         21    1    1    2  504  501 -0.21815020943E+02 -0.21178322751E+01 -0.38361000020E+01  0.22250753145E+02  0.00000000000E+00 0.  1.
<mgrwt>
<rscale>  2 0.21917581E+02</rscale>
<asrwt>0</asrwt>
<pdfrwt beam="1">  1       21 0.18662246E-02 0.21917581E+02</pdfrwt>
<pdfrwt beam="2">  1       21 0.83273543E-02 0.21917581E+02</pdfrwt>
<totfact> 0.10330558E+08</totfact>
</mgrwt>
</event>
<event>
 4    1  0.9138221E+003  0.2176098E+02  0.7546771E-02  0.1712419E+00
         21   -1    0    0  502  501  0.00000000000E+00  0.00000000000E+00  0.13250197763E+03  0.13250197763E+03  0.00000000000E+00 0. -1.
         21   -1    0    0  503  502 -0.00000000000E+00 -0.00000000000E+00 -0.41099207424E+01  0.41099207424E+01  0.00000000000E+00 0. -1.
         21    1    1    2  503  504 -0.10986194636E+02 -0.18784138257E+02  0.88865427877E+02  0.91491008271E+02  0.00000000000E+00 0.  1.
         21    1    1    2  504  501  0.10986194636E+02  0.18784138257E+02  0.39526629013E+02  0.45120890104E+02  0.00000000000E+00 0.  1.
<mgrwt>
<rscale>  2 0.21760982E+02</rscale>
<asrwt>0</asrwt>
<pdfrwt beam="1">  1       21 0.20384916E-01 0.21760982E+02</pdfrwt>
<pdfrwt beam="2">  1       21 0.63229560E-03 0.21760982E+02</pdfrwt>
<totfact> 0.11625682E+08</totfact>
</mgrwt>
</event>
<event>
 4    1  0.9138221E+003  0.2993629E+02  0.7546771E-02  0.1598794E+00
         21   -1    0    0  504  501  0.00000000000E+00  0.00000000000E+00  0.14404881667E+02  0.14404881667E+02  0.00000000000E+00 0.  1.
         21   -1    0    0  501  502 -0.00000000000E+00 -0.00000000000E+00 -0.13427864058E+03  0.13427864058E+03  0.00000000000E+00 0.  1.
         21    1    1    2  503  502  0.12593631694E+02  0.27158461654E+02 -0.11439858849E+03  0.11825066024E+03  0.00000000000E+00 0. -1.
         21    1    1    2  504  503 -0.12593631694E+02 -0.27158461654E+02 -0.54751704206E+01  0.30432862005E+02  0.00000000000E+00 0. -1.
<mgrwt>
<rscale>  2 0.29936292E+02</rscale>
<asrwt>0</asrwt>
<pdfrwt beam="1">  1       21 0.22161356E-02 0.29936292E+02</pdfrwt>
<pdfrwt beam="2">  1       21 0.20658253E-01 0.29936292E+02</pdfrwt>
<totfact> 0.18284413E+07</totfact>
</mgrwt>
</event>
<event>
 4    1  0.9138221E+003  0.2853337E+02  0.7546771E-02  0.1614890E+00
         21   -1    0    0  502  501  0.00000000000E+00  0.00000000000E+00  0.15860547036E+02  0.15860547036E+02  0.00000000000E+00 0. -1.
         21   -1    0    0  503  502 -0.00000000000E+00 -0.00000000000E+00 -0.14607556008E+03  0.14607556008E+03  0.00000000000E+00 0. -1.
         21    1    1    2  503  504 -0.28035986033E+02 -0.53044237652E+01  0.10033045471E+00  0.28533550261E+02  0.00000000000E+00 0. -1.
         21    1    1    2  504  501  0.28035986033E+02  0.53044237652E+01 -0.13031534349E+03  0.13340255685E+03  0.00000000000E+00 0. -1.
<mgrwt>
<rscale>  2 0.28533374E+02</rscale>
<asrwt>0</asrwt>
<pdfrwt beam="1">  1       21 0.24400841E-02 0.28533374E+02</pdfrwt>
<pdfrwt beam="2">  1       21 0.22473164E-01 0.28533374E+02</pdfrwt>
<totfact> 0.13439263E+07</totfact>
</mgrwt>
</event>
<event>
 4    1  0.9138221E+003  0.2406732E+02  0.7546771E-02  0.1674771E+00
         21   -1    0    0  504  501  0.00000000000E+00  0.00000000000E+00  0.27484197348E+02  0.27484197348E+02  0.00000000000E+00 0. -1.
         21   -1    0    0  501  502 -0.00000000000E+00 -0.00000000000E+00 -0.23687592768E+02  0.23687592768E+02  0.00000000000E+00 0. -1.
         21    1    1    2  503  502 -0.23081245577E+02  0.68185183585E+01 -0.65985086858E+01  0.24955488512E+02  0.00000000000E+00 0.  1.
         21    1    1    2  504  503  0.23081245577E+02 -0.68185183585E+01  0.10395113265E+02  0.26216301604E+02  0.00000000000E+00 0.  1.
<mgrwt>
<rscale>  2 0.24067324E+02</rscale>
<asrwt>0</asrwt>
<pdfrwt beam="1">  1       21 0.42283380E-02 0.24067324E+02</pdfrwt>
<pdfrwt beam="2">  1       21 0.36442451E-02 0.24067324E+02</pdfrwt>
<totfact> 0.11178130E+08</totfact>
</mgrwt>
</event>
<event>
 4    1  0.9138221E+003  0.2295107E+02  0.7546771E-02  0.1692304E+00
         21   -1    0    0  502  501  0.00000000000E+00  0.00000000000E+00  0.40335810829E+02  0.40335810829E+02  0.00000000000E+00 0. -1.
         21   -1    0    0  504  502 -0.00000000000E+00 -0.00000000000E+00 -0.30090099728E+02  0.30090099728E+02  0.00000000000E+00 0. -1.
         21    1    1    2  503  501  0.20890755744E+02 -0.95041063636E+01  0.31614565857E+02  0.39067025580E+02  0.00000000000E+00 0. -1.
         21    1    1    2  504  503 -0.20890755744E+02  0.95041063636E+01 -0.21368854757E+02  0.31358884976E+02  0.00000000000E+00 0. -1.
<mgrwt>
<rscale>  2 0.22951072E+02</rscale>
<asrwt>0</asrwt>
<pdfrwt beam="1">  1       21 0.62055093E-02 0.22951072E+02</pdfrwt>
<pdfrwt beam="2">  1       21 0.46292461E-02 0.22951072E+02</pdfrwt>
<totfact> 0.41009767E+07</totfact>
</mgrwt>
</event>
<event>
 4    1  0.9138221E+003  0.2282510E+02  0.7546771E-02  0.1694361E+00
         21   -1    0    0  504  501  0.00000000000E+00  0.00000000000E+00  0.28249393362E+02  0.28249393362E+02  0.00000000000E+00 0. -1.
         21   -1    0    0  501  502 -0.00000000000E+00 -0.00000000000E+00 -0.34361384159E+02  0.34361384159E+02  0.00000000000E+00 0. -1.
         21    1    1    2  503  502  0.22512903703E+02  0.37622540678E+01 -0.24363963717E+02  0.33385447681E+02  0.00000000000E+00 0. -1.
         21    1    1    2  504  503 -0.22512903703E+02 -0.37622540678E+01  0.18251972920E+02  0.29225329841E+02  0.00000000000E+00 0. -1.
<mgrwt>
<rscale>  2 0.22825104E+02</rscale>
<asrwt>0</asrwt>
<pdfrwt beam="1">  1       21 0.43460605E-02 0.22825104E+02</pdfrwt>
<pdfrwt beam="2">  1       21 0.52863668E-02 0.22825104E+02</pdfrwt>
<totfact> 0.58509135E+07</totfact>
</mgrwt>
</event>
<event>
 4    1  0.9138221E+003  0.2159316E+02  0.7546771E-02  0.1715385E+00
         21   -1    0    0  502  501  0.00000000000E+00  0.00000000000E+00  0.16183513523E+02  0.16183513523E+02  0.00000000000E+00 0.  1.
         21   -1    0    0  503  502 -0.00000000000E+00 -0.00000000000E+00 -0.40379279021E+02  0.40379279021E+02  0.00000000000E+00 0.  1.
         21    1    1    2  503  504 -0.13555672593E+02 -0.16807981158E+02 -0.27235393254E+02  0.34756742307E+02  0.00000000000E+00 0. -1.
         21    1    1    2  504  501  0.13555672593E+02  0.16807981158E+02  0.30396277563E+01  0.21806050237E+02  0.00000000000E+00 0. -1.
<mgrwt>
<rscale>  2 0.21593158E+02</rscale>
<asrwt>0</asrwt>
<pdfrwt beam="1">  1       21 0.24897714E-02 0.21593158E+02</pdfrwt>
<pdfrwt beam="2">  1       21 0.62121966E-02 0.21593158E+02</pdfrwt>
<totfact> 0.10616706E+08</totfact>
</mgrwt>
</event>
<event>
 4    1  0.9138221E+003  0.3807125E+02  0.7546771E-02  0.1522904E+00
         21   -1    0    0  503  501  0.00000000000E+00  0.00000000000E+00  0.14304558368E+04  0.14304558368E+04  0.00000000000E+00 0. -1.
         21   -1    0    0  501  502 -0.00000000000E+00 -0.00000000000E+00 -0.35178910412E+01  0.35178910412E+01  0.00000000000E+00 0. -1.
         21    1    1    2  503  504  0.31904934251E+02  0.20772461969E+02  0.13184504933E+04  0.13190000468E+04  0.00000000000E+00 0. -1.
         21    1    1    2  504  502 -0.31904934251E+02 -0.20772461969E+02  0.10848745245E+03  0.11497368109E+03  0.00000000000E+00 0. -1.
<mgrwt>
<rscale>  2 0.38071249E+02</rscale>
<asrwt>0</asrwt>
<pdfrwt beam="1">  1       21 0.22006966E+00 0.38071249E+02</pdfrwt>
<pdfrwt beam="2">  1       21 0.54121515E-03 0.38071249E+02</pdfrwt>
<totfact> 0.10521425E+06</totfact>
</mgrwt>
</event>
<event>
 4    1  0.9138221E+003  0.2248055E+02  0.7546771E-02  0.1700071E+00
         21   -1    0    0  504  501  0.00000000000E+00  0.00000000000E+00  0.58516160440E+01  0.58516160440E+01  0.00000000000E+00 0. -1.
         21   -1    0    0  501  502 -0.00000000000E+00 -0.00000000000E+00 -0.11831990081E+03  0.11831990081E+03  0.00000000000E+00 0. -1.
         21    1    1    2  503  502  0.22458037956E+02 -0.10058518498E+01 -0.23969163914E+02  0.32861771491E+02  0.00000000000E+00 0. -1.
         21    1    1    2  504  503 -0.22458037956E+02  0.10058518498E+01 -0.88499120856E+02  0.91309745368E+02  0.00000000000E+00 0. -1.
<mgrwt>
<rscale>  2 0.22480552E+02</rscale>
<asrwt>0</asrwt>
<pdfrwt beam="1">  1       21 0.90024866E-03 0.22480552E+02</pdfrwt>
<pdfrwt beam="2">  1       21 0.18203061E-01 0.22480552E+02</pdfrwt>
<totfact> 0.84396157E+07</totfact>
</mgrwt>
</event>
<event>
 4    1  0.9138221E+003  0.2279141E+02  0.7546771E-02  0.1694914E+00
         21   -1    0    0  503  501  0.00000000000E+00  0.00000000000E+00  0.10313293908E+02  0.10313293908E+02  0.00000000000E+00 0.  1.
         21   -1    0    0  501  502 -0.00000000000E+00 -0.00000000000E+00 -0.54787765823E+02  0.54787765823E+02  0.00000000000E+00 0.  1.
         21    1    1    2  503  504  0.70569639527E+01  0.21671357701E+02 -0.31483593589E+02  0.38867276083E+02  0.00000000000E+00 0. -1.
         21    1    1    2  504  502 -0.70569639527E+01 -0.21671357701E+02 -0.12990878325E+02  0.26233783648E+02  0.00000000000E+00 0. -1.
<mgrwt>
<rscale>  2 0.22791413E+02</rscale>
<asrwt>0</asrwt>
<pdfrwt beam="1">  1       21 0.15866606E-02 0.22791413E+02</pdfrwt>
<pdfrwt beam="2">  1       21 0.84288872E-02 0.22791413E+02</pdfrwt>
<totfact> 0.13121914E+08</totfact>
</mgrwt>
</event>
<event>
 4    1  0.9138221E+003  0.2048884E+02  0.7546771E-02  0.1735778E+00
         21   -1    0    0  502  501  0.00000000000E+00  0.00000000000E+00  0.13665542576E+03  0.13665542576E+03  0.00000000000E+00 0. -1.
         21   -1    0    0  503  502 -0.00000000000E+00 -0.00000000000E+00 -0.44607222484E+01  0.44607222484E+01  0.00000000000E+00 0. -1.
         21    1    1    2  503  504  0.20018402278E+02 -0.43653316258E+01  0.10546745952E+03  0.10743918079E+03  0.00000000000E+00 0.  1.
         21    1    1    2  504  501 -0.20018402278E+02  0.43653316258E+01  0.26727243986E+02  0.33676967218E+02  0.00000000000E+00 0.  1.
<mgrwt>
<rscale>  2 0.20488840E+02</rscale>
<asrwt>0</asrwt>
<pdfrwt beam="1">  1       21 0.21023908E-01 0.20488840E+02</pdfrwt>
<pdfrwt beam="2">  1       21 0.68626507E-03 0.20488840E+02</pdfrwt>
<totfact> 0.95927274E+07</totfact>
</mgrwt>
</event>
<event>
 4    1  0.9138221E+003  0.2535824E+02  0.7546771E-02  0.1655909E+00
         21   -1    0    0  503  501  0.00000000000E+00  0.00000000000E+00  0.13506070731E+03  0.13506070731E+03  0.00000000000E+00 0. -1.
         21   -1    0    0  501  502 -0.00000000000E+00 -0.00000000000E+00 -0.89672029269E+01  0.89672029269E+01  0.00000000000E+00 0. -1.
         21    1    1    2  503  504  0.25294143823E+02 -0.18018267611E+01  0.11236720538E+03  0.11519300820E+03  0.00000000000E+00 0.  1.
         21    1    1    2  504  502 -0.25294143823E+02  0.18018267611E+01  0.13726298997E+02  0.28834902039E+02  0.00000000000E+00 0.  1.
<mgrwt>
<rscale>  2 0.25358239E+02</rscale>
<asrwt>0</asrwt>
<pdfrwt beam="1">  1       21 0.20778569E-01 0.25358239E+02</pdfrwt>
<pdfrwt beam="2">  1       21 0.13795698E-02 0.25358239E+02</pdfrwt>
<totfact> 0.36266232E+07</totfact>
</mgrwt>
</event>
<event>
 4    1  0.9138221E+003  0.2011371E+02  0.7546771E-02  0.1743076E+00
         21   -1    0    0  504  501  0.00000000000E+00  0.00000000000E+00  0.15003030803E+03  0.15003030803E+03  0.00000000000E+00 0.  1.
         21   -1    0    0  501  502 -0.00000000000E+00 -0.00000000000E+00 -0.80631558546E+01  0.80631558546E+01  0.00000000000E+00 0.  1.
         21    1    1    2  503  502  0.16932613433E+02  0.10855783362E+02  0.64951174814E+01  0.21136413631E+02  0.00000000000E+00 0.  1.
         21    1    1    2  504  503 -0.16932613433E+02 -0.10855783362E+02  0.13547203470E+03  0.13695705026E+03  0.00000000000E+00 0.  1.
<mgrwt>
<rscale>  2 0.20113712E+02</rscale>
<asrwt>0</asrwt>
<pdfrwt beam="1">  1       21 0.23081584E-01 0.20113712E+02</pdfrwt>
<pdfrwt beam="2">  1       21 0.12404856E-02 0.20113712E+02</pdfrwt>
<totfact> 0.33511314E+07</totfact>
</mgrwt>
</event>
<event>
 4    1  0.9138221E+003  0.3373634E+02  0.7546771E-02  0.1560117E+00
         21   -1    0    0  503  501  0.00000000000E+00  0.00000000000E+00  0.31494404500E+02  0.31494404500E+02  0.00000000000E+00 0. -1.
         21   -1    0    0  501  502 -0.00000000000E+00 -0.00000000000E+00 -0.72660094096E+02  0.72660094096E+02  0.00000000000E+00 0. -1.
         21    1    1    2  503  504 -0.18525522138E+02  0.28194778131E+02 -0.57504291287E+02  0.66669963258E+02  0.00000000000E+00 0.  1.
         21    1    1    2  504  502  0.18525522138E+02 -0.28194778131E+02  0.16338601691E+02  0.37484535339E+02  0.00000000000E+00 0.  1.
<mgrwt>
<rscale>  2 0.33736338E+02</rscale>
<asrwt>0</asrwt>
<pdfrwt beam="1">  1       21 0.48452930E-02 0.33736338E+02</pdfrwt>
<pdfrwt beam="2">  1       21 0.11178476E-01 0.33736338E+02</pdfrwt>
<totfact> 0.15648423E+07</totfact>
</mgrwt>
</event>
<event>
 4    1  0.9138221E+003  0.2175456E+02  0.7546771E-02  0.1712532E+00
         21   -1    0    0  502  501  0.00000000000E+00  0.00000000000E+00  0.22773816653E+02  0.22773816653E+02  0.00000000000E+00 0.  1.
         21   -1    0    0  504  502 -0.00000000000E+00 -0.00000000000E+00 -0.45947610703E+02  0.45947610703E+02  0.00000000000E+00 0.  1.
         21    1    1    2  503  501 -0.18734644686E+02 -0.11057746354E+02 -0.37016749419E+02  0.42936003581E+02  0.00000000000E+00 0.  1.
         21    1    1    2  504  503  0.18734644686E+02  0.11057746354E+02  0.13842955369E+02  0.25785423775E+02  0.00000000000E+00 0.  1.
<mgrwt>
<rscale>  2 0.21754555E+02</rscale>
<asrwt>0</asrwt>
<pdfrwt beam="1">  1       21 0.35036641E-02 0.21754555E+02</pdfrwt>
<pdfrwt beam="2">  1       21 0.70688632E-02 0.21754555E+02</pdfrwt>
<totfact> 0.50831474E+07</totfact>
</mgrwt>
</event>
<event>
 4    1  0.9138221E+003  0.2018942E+02  0.7546771E-02  0.1741587E+00
         21   -1    0    0  504  501  0.00000000000E+00  0.00000000000E+00  0.13262726544E+02  0.13262726544E+02  0.00000000000E+00 0.  1.
         21   -1    0    0  501  502 -0.00000000000E+00 -0.00000000000E+00 -0.46858893375E+02  0.46858893375E+02  0.00000000000E+00 0.  1.
         21    1    1    2  503  502 -0.14856813833E+02  0.13670693100E+02  0.83616765252E+00  0.20206730152E+02  0.00000000000E+00 0. -1.
         21    1    1    2  504  503  0.14856813833E+02 -0.13670693100E+02 -0.34432334483E+02  0.39914889766E+02  0.00000000000E+00 0. -1.
<mgrwt>
<rscale>  2 0.20189422E+02</rscale>
<asrwt>0</asrwt>
<pdfrwt beam="1">  1       21 0.20404195E-02 0.20189422E+02</pdfrwt>
<pdfrwt beam="2">  1       21 0.72090605E-02 0.20189422E+02</pdfrwt>
<totfact> 0.11117481E+08</totfact>
</mgrwt>
</event>
<event>
 4    1  0.9138221E+003  0.2054331E+02  0.7546771E-02  0.1734735E+00
         21   -1    0    0  502  501  0.00000000000E+00  0.00000000000E+00  0.88645946475E+01  0.88645946475E+01  0.00000000000E+00 0.  1.
         21   -1    0    0  504  502 -0.00000000000E+00 -0.00000000000E+00 -0.89591451448E+02  0.89591451448E+02  0.00000000000E+00 0.  1.
         21    1    1    2  503  501  0.11416695011E+02  0.17078838744E+02 -0.74062426616E+02  0.76858771094E+02  0.00000000000E+00 0.  1.
         21    1    1    2  504  503 -0.11416695011E+02 -0.17078838744E+02 -0.66644301847E+01  0.21597275002E+02  0.00000000000E+00 0.  1.
<mgrwt>
<rscale>  2 0.20543312E+02</rscale>
<asrwt>0</asrwt>
<pdfrwt beam="1">  1       21 0.13637838E-02 0.20543312E+02</pdfrwt>
<pdfrwt beam="2">  1       21 0.13783300E-01 0.20543312E+02</pdfrwt>
<totfact> 0.70873509E+07</totfact>
</mgrwt>
</event>
<event>
 4    1  0.9138221E+003  0.6625213E+02  0.7546771E-02  0.1373322E+00
         21   -1    0    0  502  501  0.00000000000E+00  0.00000000000E+00  0.11645383805E+03  0.11645383805E+03  0.00000000000E+00 0.  1.
         21   -1    0    0  504  502 -0.00000000000E+00 -0.00000000000E+00 -0.44672603646E+02  0.44672603646E+02  0.00000000000E+00 0.  1.
         21    1    1    2  503  501 -0.32129608968E+02 -0.57939907033E+02  0.67737843711E+02  0.94751042580E+02  0.00000000000E+00 0. -1.
         21    1    1    2  504  503  0.32129608968E+02  0.57939907033E+02  0.40433906935E+01  0.66375399115E+02  0.00000000000E+00 0. -1.
<mgrwt>
<rscale>  2 0.66252129E+02</rscale>
<asrwt>0</asrwt>
<pdfrwt beam="1">  1       21 0.17915975E-01 0.66252129E+02</pdfrwt>
<pdfrwt beam="2">  1       21 0.68727083E-02 0.66252129E+02</pdfrwt>
<totfact> 0.41920726E+06</totfact>
</mgrwt>
</event>
<event>
 4    1  0.9138221E+003  0.3901301E+02  0.7546771E-02  0.1515603E+00
         21   -1    0    0  503  501  0.00000000000E+00  0.00000000000E+00  0.73785472971E+01  0.73785472971E+01  0.00000000000E+00 0.  1.
         21   -1    0    0  501  502 -0.00000000000E+00 -0.00000000000E+00 -0.26075524504E+03  0.26075524504E+03  0.00000000000E+00 0.  1.
         21    1    1    2  503  504 -0.17066007304E+02 -0.35082282562E+02 -0.65407935597E+02  0.76159130733E+02  0.00000000000E+00 0.  1.
         21    1    1    2  504  502  0.17066007304E+02  0.35082282562E+02 -0.18796876215E+03  0.19197466160E+03  0.00000000000E+00 0.  1.
<mgrwt>
<rscale>  2 0.39013013E+02</rscale>
<asrwt>0</asrwt>
<pdfrwt beam="1">  1       21 0.11351612E-02 0.39013013E+02</pdfrwt>
<pdfrwt beam="2">  1       21 0.40116190E-01 0.39013013E+02</pdfrwt>
<totfact> 0.15786034E+07</totfact>
</mgrwt>
</event>
<event>
 4    1  0.9138221E+003  0.2065427E+02  0.7546771E-02  0.1732622E+00
         21   -1    0    0  502  501  0.00000000000E+00  0.00000000000E+00  0.44379601004E+00  0.44379601004E+00  0.00000000000E+00 0.  1.
         21   -1    0    0  504  502 -0.00000000000E+00 -0.00000000000E+00 -0.14306234836E+04  0.14306234836E+04  0.00000000000E+00 0.  1.
         21    1    1    2  503  501 -0.68117688646E+01  0.19498686196E+02 -0.11249414218E+04  0.11251310152E+04  0.00000000000E+00 0. -1.
         21    1    1    2  504  503  0.68117688646E+01 -0.19498686196E+02 -0.30523826585E+03  0.30593626444E+03  0.00000000000E+00 0. -1.
<mgrwt>
<rscale>  2 0.20654272E+02</rscale>
<asrwt>0</asrwt>
<pdfrwt beam="1">  1       21 0.68277563E-04 0.20654272E+02</pdfrwt>
<pdfrwt beam="2">  1       21 0.22009188E+00 0.20654272E+02</pdfrwt>
<totfact> 0.20487184E+07</totfact>
</mgrwt>
</event>
<event>
 4    1  0.9138221E+003  0.4628935E+02  0.7546771E-02  0.1466449E+00
         21   -1    0    0  504  501  0.00000000000E+00  0.00000000000E+00  0.32455977901E+02  0.32455977901E+02  0.00000000000E+00 0.  1.
         21   -1    0    0  501  502 -0.00000000000E+00 -0.00000000000E+00 -0.84631869047E+02  0.84631869047E+02  0.00000000000E+00 0.  1.
         21    1    1    2  503  502  0.22840632786E+02  0.40261755807E+02  0.13672343216E+01  0.46309532673E+02  0.00000000000E+00 0. -1.
         21    1    1    2  504  503 -0.22840632786E+02 -0.40261755807E+02 -0.53543125468E+02  0.70778314275E+02  0.00000000000E+00 0. -1.
<mgrwt>
<rscale>  2 0.46289345E+02</rscale>
<asrwt>0</asrwt>
<pdfrwt beam="1">  1       21 0.49932275E-02 0.46289345E+02</pdfrwt>
<pdfrwt beam="2">  1       21 0.13020287E-01 0.46289345E+02</pdfrwt>
<totfact> 0.12033202E+07</totfact>
</mgrwt>
</event>
<event>
 4    1  0.9138221E+003  0.2085391E+02  0.7546771E-02  0.1728862E+00
         21   -1    0    0  502  501  0.00000000000E+00  0.00000000000E+00  0.87584981916E+03  0.87584981916E+03  0.00000000000E+00 0. -1.
         21   -1    0    0  504  502 -0.00000000000E+00 -0.00000000000E+00 -0.74079380516E+00  0.74079380516E+00  0.00000000000E+00 0. -1.
         21    1    1    2  503  501 -0.20612308891E+02 -0.31651528166E+01  0.68923407634E+03  0.68954948876E+03  0.00000000000E+00 0. -1.
         21    1    1    2  504  503  0.20612308891E+02  0.31651528166E+01  0.18587494902E+03  0.18704112420E+03  0.00000000000E+00 0. -1.
<mgrwt>
<rscale>  2 0.20853908E+02</rscale>
<asrwt>0</asrwt>
<pdfrwt beam="1">  1       21 0.13474530E+00 0.20853908E+02</pdfrwt>
<pdfrwt beam="2">  1       21 0.11396898E-03 0.20853908E+02</pdfrwt>
<totfact> 0.33062924E+07</totfact>
</mgrwt>
</event>
<event>
 4    1  0.9138221E+003  0.2038241E+02  0.7546771E-02  0.1737829E+00
         21   -1    0    0  502  501  0.00000000000E+00  0.00000000000E+00  0.90283536447E+01  0.90283536447E+01  0.00000000000E+00 0. -1.
         21   -1    0    0  504  502 -0.00000000000E+00 -0.00000000000E+00 -0.56957905092E+02  0.56957905092E+02  0.00000000000E+00 0. -1.
         21    1    1    2  503  501 -0.11882506269E+02 -0.16560451872E+02 -0.38426051412E+02  0.43497171731E+02  0.00000000000E+00 0.  1.
         21    1    1    2  504  503  0.11882506269E+02  0.16560451872E+02 -0.95035000346E+01  0.22489087006E+02  0.00000000000E+00 0.  1.
<mgrwt>
<rscale>  2 0.20382407E+02</rscale>
<asrwt>0</asrwt>
<pdfrwt beam="1">  1       21 0.13889775E-02 0.20382407E+02</pdfrwt>
<pdfrwt beam="2">  1       21 0.87627545E-02 0.20382407E+02</pdfrwt>
<totfact> 0.14567322E+08</totfact>
</mgrwt>
</event>
<event>
 4    1  0.9138221E+003  0.2510208E+02  0.7546771E-02  0.1659540E+00
         21   -1    0    0  502  501  0.00000000000E+00  0.00000000000E+00  0.31075434820E+02  0.31075434820E+02  0.00000000000E+00 0. -1.
         21   -1    0    0  504  502 -0.00000000000E+00 -0.00000000000E+00 -0.23691172498E+02  0.23691172498E+02  0.00000000000E+00 0. -1.
         21    1    1    2  503  501 -0.66555840831E+01 -0.24203673947E+02 -0.67032233837E+01  0.25981682696E+02  0.00000000000E+00 0. -1.
         21    1    1    2  504  503  0.66555840831E+01  0.24203673947E+02  0.14087485706E+02  0.28784924622E+02  0.00000000000E+00 0. -1.
<mgrwt>
<rscale>  2 0.25102084E+02</rscale>
<asrwt>0</asrwt>
<pdfrwt beam="1">  1       21 0.47808361E-02 0.25102084E+02</pdfrwt>
<pdfrwt beam="2">  1       21 0.36447958E-02 0.25102084E+02</pdfrwt>
<totfact> 0.93017312E+07</totfact>
</mgrwt>
</event>
<event>
 4    1  0.9138221E+003  0.2159900E+02  0.7546771E-02  0.1715281E+00
         21   -1    0    0  502  501  0.00000000000E+00  0.00000000000E+00  0.10920011737E+03  0.10920011737E+03  0.00000000000E+00 0.  1.
         21   -1    0    0  504  502 -0.00000000000E+00 -0.00000000000E+00 -0.51881328272E+01  0.51881328272E+01  0.00000000000E+00 0.  1.
         21    1    1    2  503  501 -0.21528615156E+02  0.17422691038E+01  0.27973711408E+02  0.35341835013E+02  0.00000000000E+00 0.  1.
         21    1    1    2  504  503  0.21528615156E+02 -0.17422691038E+01  0.76038273138E+02  0.79046415188E+02  0.00000000000E+00 0.  1.
<mgrwt>
<rscale>  2 0.21598999E+02</rscale>
<asrwt>0</asrwt>
<pdfrwt beam="1">  1       21 0.16800016E-01 0.21598999E+02</pdfrwt>
<pdfrwt beam="2">  1       21 0.79817436E-03 0.21598999E+02</pdfrwt>
<totfact> 0.11465907E+08</totfact>
</mgrwt>
</event>
<event>
 4    1  0.9138221E+003  0.2066226E+02  0.7546771E-02  0.1732470E+00
         21   -1    0    0  503  501  0.00000000000E+00  0.00000000000E+00  0.23133118315E+02  0.23133118315E+02  0.00000000000E+00 0.  1.
         21   -1    0    0  501  502 -0.00000000000E+00 -0.00000000000E+00 -0.21199677123E+02  0.21199677123E+02  0.00000000000E+00 0.  1.
         21    1    1    2  503  504 -0.19694420189E+02 -0.62496927362E+01  0.89421060836E+01  0.22514220108E+02  0.00000000000E+00 0.  1.
         21    1    1    2  504  502  0.19694420189E+02  0.62496927362E+01 -0.70086648910E+01  0.21818575330E+02  0.00000000000E+00 0.  1.
<mgrwt>
<rscale>  2 0.20662257E+02</rscale>
<asrwt>0</asrwt>
<pdfrwt beam="1">  1       21 0.35589413E-02 0.20662257E+02</pdfrwt>
<pdfrwt beam="2">  1       21 0.32614888E-02 0.20662257E+02</pdfrwt>
<totfact> 0.16646365E+08</totfact>
</mgrwt>
</event>
<event>
 4    1  0.9138221E+003  0.2066907E+02  0.7546771E-02  0.1732341E+00
         21   -1    0    0  502  501  0.00000000000E+00  0.00000000000E+00  0.62498686137E+02  0.62498686137E+02  0.00000000000E+00 0. -1.
         21   -1    0    0  504  502 -0.00000000000E+00 -0.00000000000E+00 -0.10668014331E+02  0.10668014331E+02  0.00000000000E+00 0. -1.
         21    1    1    2  503  501  0.13829529157E+02  0.15360809385E+02  0.39881421430E+01  0.21050311623E+02  0.00000000000E+00 0.  1.
         21    1    1    2  504  503 -0.13829529157E+02 -0.15360809385E+02  0.47842529664E+02  0.52116388845E+02  0.00000000000E+00 0.  1.
<mgrwt>
<rscale>  2 0.20669067E+02</rscale>
<asrwt>0</asrwt>
<pdfrwt beam="1">  1       21 0.96151822E-02 0.20669067E+02</pdfrwt>
<pdfrwt beam="2">  1       21 0.16412330E-02 0.20669067E+02</pdfrwt>
<totfact> 0.97600406E+07</totfact>
</mgrwt>
</event>
<event>
 4    1  0.9138221E+003  0.2491566E+02  0.7546771E-02  0.1662216E+00
         21   -1    0    0  502  501  0.00000000000E+00  0.00000000000E+00  0.13773435523E+02  0.13773435523E+02  0.00000000000E+00 0.  1.
         21   -1    0    0  503  502 -0.00000000000E+00 -0.00000000000E+00 -0.51730949134E+02  0.51730949134E+02  0.00000000000E+00 0.  1.
         21    1    1    2  503  504  0.23946901685E+02  0.68801083780E+01 -0.30729975336E+02  0.39561614929E+02  0.00000000000E+00 0. -1.
         21    1    1    2  504  501 -0.23946901685E+02 -0.68801083780E+01 -0.72275382751E+01  0.25942769728E+02  0.00000000000E+00 0. -1.
<mgrwt>
<rscale>  2 0.24915658E+02</rscale>
<asrwt>0</asrwt>
<pdfrwt beam="1">  1       21 0.21189901E-02 0.24915658E+02</pdfrwt>
<pdfrwt beam="2">  1       21 0.79586076E-02 0.24915658E+02</pdfrwt>
<totfact> 0.94913645E+07</totfact>
</mgrwt>
</event>
<event>
 4    1  0.9138221E+003  0.2798180E+02  0.7546771E-02  0.1621532E+00
         21   -1    0    0  504  501  0.00000000000E+00  0.00000000000E+00  0.15266962374E+01  0.15266962374E+01  0.00000000000E+00 0.  1.
         21   -1    0    0  501  502 -0.00000000000E+00 -0.00000000000E+00 -0.57179176727E+03  0.57179176727E+03  0.00000000000E+00 0.  1.
         21    1    1    2  503  502  0.76713511775E+01 -0.26909691688E+02 -0.37716105433E+03  0.37819762300E+03  0.00000000000E+00 0.  1.
         21    1    1    2  504  503 -0.76713511775E+01  0.26909691688E+02 -0.19310401670E+03  0.19512084051E+03  0.00000000000E+00 0.  1.
<mgrwt>
<rscale>  2 0.27981800E+02</rscale>
<asrwt>0</asrwt>
<pdfrwt beam="1">  1       21 0.23487612E-03 0.27981800E+02</pdfrwt>
<pdfrwt beam="2">  1       21 0.87968047E-01 0.27981800E+02</pdfrwt>
<totfact> 0.31956462E+07</totfact>
</mgrwt>
</event>
<event>
 4    1  0.9138221E+003  0.3780220E+02  0.7546771E-02  0.1525037E+00
         21   -1    0    0  502  501  0.00000000000E+00  0.00000000000E+00  0.87352332927E+03  0.87352332927E+03  0.00000000000E+00 0. -1.
         21   -1    0    0  503  502 -0.00000000000E+00 -0.00000000000E+00 -0.18794631857E+01  0.18794631857E+01  0.00000000000E+00 0. -1.
         21    1    1    2  503  504  0.34920190675E+01 -0.37640562215E+02  0.59338605888E+03  0.59458895129E+03  0.00000000000E+00 0. -1.
         21    1    1    2  504  501 -0.34920190675E+01  0.37640562215E+02  0.27825780720E+03  0.28081384117E+03  0.00000000000E+00 0. -1.
<mgrwt>
<rscale>  2 0.37802197E+02</rscale>
<asrwt>0</asrwt>
<pdfrwt beam="1">  1       21 0.13438788E+00 0.37802197E+02</pdfrwt>
<pdfrwt beam="2">  1       21 0.28914888E-03 0.37802197E+02</pdfrwt>
<totfact> 0.94346446E+06</totfact>
</mgrwt>
</event>
<event>
 4    1  0.9138221E+003  0.2756993E+02  0.7546771E-02  0.1626616E+00
         21   -1    0    0  503  501  0.00000000000E+00  0.00000000000E+00  0.12600095300E+04  0.12600095300E+04  0.00000000000E+00 0.  1.
         21   -1    0    0  501  502 -0.00000000000E+00 -0.00000000000E+00 -0.99230262622E+00  0.99230262622E+00  0.00000000000E+00 0.  1.
         21    1    1    2  503  504 -0.23214725346E+02  0.14872035248E+02  0.10243000814E+04  0.10246710485E+04  0.00000000000E+00 0. -1.
         21    1    1    2  504  502  0.23214725346E+02 -0.14872035248E+02  0.23471714596E+03  0.23633078410E+03  0.00000000000E+00 0. -1.
<mgrwt>
<rscale>  2 0.27569928E+02</rscale>
<asrwt>0</asrwt>
<pdfrwt beam="1">  1       21 0.19384634E+00 0.27569928E+02</pdfrwt>
<pdfrwt beam="2">  1       21 0.15266295E-03 0.27569928E+02</pdfrwt>
<totfact> 0.93840020E+06</totfact>
</mgrwt>
</event>
<event>
 4    1  0.9138221E+003  0.2650969E+02  0.7546771E-02  0.1640219E+00
         21   -1    0    0  504  501  0.00000000000E+00  0.00000000000E+00  0.62813130660E+01  0.62813130660E+01  0.00000000000E+00 0.  1.
         21   -1    0    0  501  502 -0.00000000000E+00 -0.00000000000E+00 -0.11793116073E+03  0.11793116073E+03  0.00000000000E+00 0.  1.
         21    1    1    2  503  502 -0.18970173190E+02 -0.18517456625E+02 -0.41758585784E+02  0.49462542973E+02  0.00000000000E+00 0.  1.
         21    1    1    2  504  503  0.18970173190E+02  0.18517456625E+02 -0.69891261877E+02  0.74749930819E+02  0.00000000000E+00 0.  1.
<mgrwt>
<rscale>  2 0.26509690E+02</rscale>
<asrwt>0</asrwt>
<pdfrwt beam="1">  1       21 0.96635587E-03 0.26509690E+02</pdfrwt>
<pdfrwt beam="2">  1       21 0.18143255E-01 0.26509690E+02</pdfrwt>
<totfact> 0.79647927E+07</totfact>
</mgrwt>
</event>
<event>
 4    1  0.9138221E+003  0.2866651E+02  0.7546771E-02  0.1613314E+00
         21   -1    0    0  504  501  0.00000000000E+00  0.00000000000E+00  0.16216822988E+01  0.16216822988E+01  0.00000000000E+00 0.  1.
         21   -1    0    0  501  502 -0.00000000000E+00 -0.00000000000E+00 -0.78429160661E+03  0.78429160661E+03  0.00000000000E+00 0.  1.
         21    1    1    2  503  502 -0.28597498479E+02 -0.19879411229E+01 -0.15757027207E+03  0.16015667163E+03  0.00000000000E+00 0. -1.
         21    1    1    2  504  503  0.28597498479E+02  0.19879411229E+01 -0.62509965225E+03  0.62575661728E+03  0.00000000000E+00 0. -1.
<mgrwt>
<rscale>  2 0.28666511E+02</rscale>
<asrwt>0</asrwt>
<pdfrwt beam="1">  1       21 0.24948936E-03 0.28666511E+02</pdfrwt>
<pdfrwt beam="2">  1       21 0.12066035E+00 0.28666511E+02</pdfrwt>
<totfact> 0.14562581E+07</totfact>
</mgrwt>
</event>
<event>
 4    1  0.9138221E+003  0.3122719E+02  0.7546771E-02  0.1584907E+00
         21   -1    0    0  503  501  0.00000000000E+00  0.00000000000E+00  0.19213021171E+02  0.19213021171E+02  0.00000000000E+00 0.  1.
         21   -1    0    0  501  502 -0.00000000000E+00 -0.00000000000E+00 -0.82955876878E+02  0.82955876878E+02  0.00000000000E+00 0.  1.
         21    1    1    2  503  504 -0.83473781336E+01 -0.30090835944E+02 -0.63699176454E+02  0.70941681756E+02  0.00000000000E+00 0.  1.
         21    1    1    2  504  502  0.83473781336E+01  0.30090835944E+02 -0.43679252789E-01  0.31227216293E+02  0.00000000000E+00 0.  1.
<mgrwt>
<rscale>  2 0.31227186E+02</rscale>
<asrwt>0</asrwt>
<pdfrwt beam="1">  1       21 0.29558495E-02 0.31227186E+02</pdfrwt>
<pdfrwt beam="2">  1       21 0.12762442E-01 0.31227186E+02</pdfrwt>
<totfact> 0.27074616E+07</totfact>
</mgrwt>
</event>
<event>
 4    1  0.9138221E+003  0.2147279E+02  0.7546771E-02  0.1717533E+00
         21   -1    0    0  504  501  0.00000000000E+00  0.00000000000E+00  0.23819965828E+02  0.23819965828E+02  0.00000000000E+00 0. -1.
         21   -1    0    0  501  502 -0.00000000000E+00 -0.00000000000E+00 -0.43538155551E+02  0.43538155551E+02  0.00000000000E+00 0. -1.
         21    1    1    2  503  502  0.21264363615E+02 -0.29845368194E+01  0.15240366954E+02  0.26331528723E+02  0.00000000000E+00 0.  1.
         21    1    1    2  504  503 -0.21264363615E+02  0.29845368194E+01 -0.34958556677E+02  0.41026592655E+02  0.00000000000E+00 0.  1.
<mgrwt>
<rscale>  2 0.21472788E+02</rscale>
<asrwt>0</asrwt>
<pdfrwt beam="1">  1       21 0.36646101E-02 0.21472788E+02</pdfrwt>
<pdfrwt beam="2">  1       21 0.66981778E-02 0.21472788E+02</pdfrwt>
<totfact> 0.51507417E+07</totfact>
</mgrwt>
</event>
<event>
 4    1  0.9138221E+003  0.2971107E+02  0.7546771E-02  0.1601305E+00
         21   -1    0    0  502  501  0.00000000000E+00  0.00000000000E+00  0.14061107483E+03  0.14061107483E+03  0.00000000000E+00 0.  1.
         21   -1    0    0  504  502 -0.00000000000E+00 -0.00000000000E+00 -0.31703947796E+02  0.31703947796E+02  0.00000000000E+00 0.  1.
         21    1    1    2  503  501  0.13654155359E+02  0.26387721118E+02 -0.22703478208E+02  0.37392455216E+02  0.00000000000E+00 0.  1.
         21    1    1    2  504  503 -0.13654155359E+02 -0.26387721118E+02  0.13161060524E+03  0.13492256741E+03  0.00000000000E+00 0.  1.
<mgrwt>
<rscale>  2 0.29711072E+02</rscale>
<asrwt>0</asrwt>
<pdfrwt beam="1">  1       21 0.21632473E-01 0.29711072E+02</pdfrwt>
<pdfrwt beam="2">  1       21 0.48775305E-02 0.29711072E+02</pdfrwt>
<totfact> 0.48442150E+06</totfact>
</mgrwt>
</event>
<event>
 4    1  0.9138221E+003  0.2104476E+02  0.7546771E-02  0.1725316E+00
         21   -1    0    0  503  501  0.00000000000E+00  0.00000000000E+00  0.69859556755E+01  0.69859556755E+01  0.00000000000E+00 0.  1.
         21   -1    0    0  501  502 -0.00000000000E+00 -0.00000000000E+00 -0.11694115086E+03  0.11694115086E+03  0.00000000000E+00 0.  1.
         21    1    1    2  503  504 -0.13760392310E+02 -0.15922740449E+02 -0.13048794477E+02  0.24761928383E+02  0.00000000000E+00 0. -1.
         21    1    1    2  504  502  0.13760392310E+02  0.15922740449E+02 -0.96906400704E+02  0.99165178149E+02  0.00000000000E+00 0. -1.
<mgrwt>
<rscale>  2 0.21044763E+02</rscale>
<asrwt>0</asrwt>
<pdfrwt beam="1">  1       21 0.10747623E-02 0.21044763E+02</pdfrwt>
<pdfrwt beam="2">  1       21 0.17990948E-01 0.21044763E+02</pdfrwt>
<totfact> 0.64870516E+07</totfact>
</mgrwt>
</event>
<event>
 4    1  0.9138221E+003  0.3636253E+02  0.7546771E-02  0.1536823E+00
         21   -1    0    0  502  501  0.00000000000E+00  0.00000000000E+00  0.40661303421E+01  0.40661303421E+01  0.00000000000E+00 0.  1.
         21   -1    0    0  504  502 -0.00000000000E+00 -0.00000000000E+00 -0.35975932071E+03  0.35975932071E+03  0.00000000000E+00 0.  1.
         21    1    1    2  503  501 -0.55977595185E+00  0.36358221779E+02 -0.23424291992E+03  0.23704847431E+03  0.00000000000E+00 0. -1.
         21    1    1    2  504  503  0.55977595185E+00 -0.36358221779E+02 -0.12145027045E+03  0.12677697675E+03  0.00000000000E+00 0. -1.
<mgrwt>
<rscale>  2 0.36362531E+02</rscale>
<asrwt>0</asrwt>
<pdfrwt beam="1">  1       21 0.62555822E-03 0.36362531E+02</pdfrwt>
<pdfrwt beam="2">  1       21 0.55347614E-01 0.36362531E+02</pdfrwt>
<totfact> 0.20511582E+07</totfact>
</mgrwt>
</event>
<event>
 4    1  0.9138221E+003  0.2273881E+02  0.7546771E-02  0.1695779E+00
         21   -1    0    0  503  501  0.00000000000E+00  0.00000000000E+00  0.64936641164E+02  0.64936641164E+02  0.00000000000E+00 0. -1.
         21   -1    0    0  501  502 -0.00000000000E+00 -0.00000000000E+00 -0.14385553044E+02  0.14385553044E+02  0.00000000000E+00 0. -1.
         21    1    1    2  503  504 -0.21836174198E+02  0.63430869933E+01  0.51777301142E+02  0.56550350748E+02  0.00000000000E+00 0. -1.
         21    1    1    2  504  502  0.21836174198E+02 -0.63430869933E+01 -0.12262130221E+01  0.22771843460E+02  0.00000000000E+00 0. -1.
<mgrwt>
<rscale>  2 0.22738805E+02</rscale>
<asrwt>0</asrwt>
<pdfrwt beam="1">  1       21 0.99902523E-02 0.22738805E+02</pdfrwt>
<pdfrwt beam="2">  1       21 0.22131620E-02 0.22738805E+02</pdfrwt>
<totfact> 0.59584601E+07</totfact>
</mgrwt>
</event>
<event>
 4    1  0.9138221E+003  0.2982645E+02  0.7546771E-02  0.1600015E+00
         21   -1    0    0  502  501  0.00000000000E+00  0.00000000000E+00  0.35375863662E+02  0.35375863662E+02  0.00000000000E+00 0. -1.
         21   -1    0    0  503  502 -0.00000000000E+00 -0.00000000000E+00 -0.32468525835E+02  0.32468525835E+02  0.00000000000E+00 0. -1.
         21    1    1    2  503  504  0.16901580415E+02  0.24575464073E+02  0.17561485628E+02  0.34612463541E+02  0.00000000000E+00 0. -1.
         21    1    1    2  504  501 -0.16901580415E+02 -0.24575464073E+02 -0.14654147801E+02  0.33231925955E+02  0.00000000000E+00 0. -1.
<mgrwt>
<rscale>  2 0.29826446E+02</rscale>
<asrwt>0</asrwt>
<pdfrwt beam="1">  1       21 0.54424405E-02 0.29826446E+02</pdfrwt>
<pdfrwt beam="2">  1       21 0.49951578E-02 0.29826446E+02</pdfrwt>
<totfact> 0.47742747E+07</totfact>
</mgrwt>
</event>
<event>
 4    1  0.9138221E+003  0.2377375E+02  0.7546771E-02  0.1679266E+00
         21   -1    0    0  504  501  0.00000000000E+00  0.00000000000E+00  0.10698164605E+02  0.10698164605E+02  0.00000000000E+00 0.  1.
         21   -1    0    0  501  502 -0.00000000000E+00 -0.00000000000E+00 -0.64141084439E+02  0.64141084439E+02  0.00000000000E+00 0.  1.
         21    1    1    2  503  502 -0.20532062057E+02  0.11984393274E+02 -0.11008049832E+02  0.26198633849E+02  0.00000000000E+00 0. -1.
         21    1    1    2  504  503  0.20532062057E+02 -0.11984393274E+02 -0.42434870002E+02  0.48640615195E+02  0.00000000000E+00 0. -1.
<mgrwt>
<rscale>  2 0.23773751E+02</rscale>
<asrwt>0</asrwt>
<pdfrwt beam="1">  1       21 0.16458714E-02 0.23773751E+02</pdfrwt>
<pdfrwt beam="2">  1       21 0.98678594E-02 0.23773751E+02</pdfrwt>
<totfact> 0.96919520E+07</totfact>
</mgrwt>
</event>
<event>
 4    1  0.9138221E+003  0.3605856E+02  0.7546771E-02  0.1539396E+00
         21   -1    0    0  504  501  0.00000000000E+00  0.00000000000E+00  0.21028538244E+02  0.21028538244E+02  0.00000000000E+00 0.  1.
         21   -1    0    0  501  502 -0.00000000000E+00 -0.00000000000E+00 -0.15362178706E+03  0.15362178706E+03  0.00000000000E+00 0.  1.
         21    1    1    2  503  502  0.75287853668E+01 -0.35263824830E+02  0.12046618260E+01  0.36078680143E+02  0.00000000000E+00 0.  1.
         21    1    1    2  504  503 -0.75287853668E+01  0.35263824830E+02 -0.13379791065E+03  0.13857164517E+03  0.00000000000E+00 0.  1.
<mgrwt>
<rscale>  2 0.36058563E+02</rscale>
<asrwt>0</asrwt>
<pdfrwt beam="1">  1       21 0.32351597E-02 0.36058563E+02</pdfrwt>
<pdfrwt beam="2">  1       21 0.23634121E-01 0.36058563E+02</pdfrwt>
<totfact> 0.81722014E+06</totfact>
</mgrwt>
</event>
<event>
 4    1  0.9138221E+003  0.2074855E+02  0.7546771E-02  0.1730839E+00
         21   -1    0    0  504  501  0.00000000000E+00  0.00000000000E+00  0.90207401081E+02  0.90207401081E+02  0.00000000000E+00 0.  1.
         21   -1    0    0  501  502 -0.00000000000E+00 -0.00000000000E+00 -0.13681995120E+02  0.13681995120E+02  0.00000000000E+00 0.  1.
         21    1    1    2  503  502  0.80559546816E+01 -0.19120770881E+02  0.80180306474E+02  0.82821397182E+02  0.00000000000E+00 0. -1.
         21    1    1    2  504  503 -0.80559546816E+01  0.19120770881E+02 -0.36549005124E+01  0.21067999019E+02  0.00000000000E+00 0. -1.
<mgrwt>
<rscale>  2 0.20748549E+02</rscale>
<asrwt>0</asrwt>
<pdfrwt beam="1">  1       21 0.13878061E-01 0.20748549E+02</pdfrwt>
<pdfrwt beam="2">  1       21 0.21049224E-02 0.20748549E+02</pdfrwt>
<totfact> 0.36317896E+07</totfact>
</mgrwt>
</event>
<event>
 4    1  0.9138221E+003  0.2815426E+02  0.7546771E-02  0.1619435E+00
         21   -1    0    0  502  501  0.00000000000E+00  0.00000000000E+00  0.31411529988E+02  0.31411529988E+02  0.00000000000E+00 0. -1.
         21   -1    0    0  503  502 -0.00000000000E+00 -0.00000000000E+00 -0.40738962982E+02  0.40738962982E+02  0.00000000000E+00 0. -1.
         21    1    1    2  503  504 -0.28095134479E+02 -0.18236755946E+01  0.17591358681E+02  0.33198166732E+02  0.00000000000E+00 0. -1.
         21    1    1    2  504  501  0.28095134479E+02  0.18236755946E+01 -0.26918791675E+02  0.38952326238E+02  0.00000000000E+00 0. -1.
<mgrwt>
<rscale>  2 0.28154260E+02</rscale>
<asrwt>0</asrwt>
<pdfrwt beam="1">  1       21 0.48325431E-02 0.28154260E+02</pdfrwt>
<pdfrwt beam="2">  1       21 0.62675327E-02 0.28154260E+02</pdfrwt>
<totfact> 0.39546569E+07</totfact>
</mgrwt>
</event>
<event>
 4    1  0.9138221E+003  0.2060763E+02  0.7546771E-02  0.1733508E+00
         21   -1    0    0  502  501  0.00000000000E+00  0.00000000000E+00  0.59031562529E+00  0.59031562529E+00  0.00000000000E+00 0. -1.
         21   -1    0    0  504  502 -0.00000000000E+00 -0.00000000000E+00 -0.16281481584E+04  0.16281481584E+04  0.00000000000E+00 0. -1.
         21    1    1    2  503  501  0.19487793181E+02  0.67007827205E+01 -0.20537002102E+03  0.20640135684E+03  0.00000000000E+00 0.  1.
         21    1    1    2  504  503 -0.19487793181E+02 -0.67007827205E+01 -0.14221878218E+04  0.14223371172E+04  0.00000000000E+00 0.  1.
<mgrwt>
<rscale>  2 0.20607634E+02</rscale>
<asrwt>0</asrwt>
<pdfrwt beam="1">  1       21 0.90818453E-04 0.20607634E+02</pdfrwt>
<pdfrwt beam="2">  1       21 0.25048250E+00 0.20607634E+02</pdfrwt>
<totfact> 0.96177316E+06</totfact>
</mgrwt>
</event>
<event>
 4    1  0.9138221E+003  0.2304870E+02  0.7546771E-02  0.1690722E+00
         21   -1    0    0  502  501  0.00000000000E+00  0.00000000000E+00  0.20528917319E+02  0.20528917319E+02  0.00000000000E+00 0.  1.
         21   -1    0    0  503  502 -0.00000000000E+00 -0.00000000000E+00 -0.14933297947E+03  0.14933297947E+03  0.00000000000E+00 0.  1.
         21    1    1    2  503  504  0.12310535322E+02  0.19485717992E+02  0.12820286045E+02  0.26374271930E+02  0.00000000000E+00 0. -1.
         21    1    1    2  504  501 -0.12310535322E+02 -0.19485717992E+02 -0.14162434820E+03  0.14348762486E+03  0.00000000000E+00 0. -1.
<mgrwt>
<rscale>  2 0.23048698E+02</rscale>
<asrwt>0</asrwt>
<pdfrwt beam="1">  1       21 0.31582950E-02 0.23048698E+02</pdfrwt>
<pdfrwt beam="2">  1       21 0.22974304E-01 0.23048698E+02</pdfrwt>
<totfact> 0.83209981E+06</totfact>
</mgrwt>
</event>
<event>
 4    1  0.9138221E+003  0.4627810E+02  0.7546771E-02  0.1466517E+00
         21   -1    0    0  503  501  0.00000000000E+00  0.00000000000E+00  0.23036923491E+02  0.23036923491E+02  0.00000000000E+00 0.  1.
         21   -1    0    0  501  502 -0.00000000000E+00 -0.00000000000E+00 -0.16298358735E+03  0.16298358735E+03  0.00000000000E+00 0.  1.
         21    1    1    2  503  504  0.43896507045E+02 -0.14654653941E+02 -0.90110925134E+01  0.47147237471E+02  0.00000000000E+00 0.  1.
         21    1    1    2  504  502 -0.43896507045E+02  0.14654653941E+02 -0.13093557134E+03  0.13887327337E+03  0.00000000000E+00 0.  1.
<mgrwt>
<rscale>  2 0.46278096E+02</rscale>
<asrwt>0</asrwt>
<pdfrwt beam="1">  1       21 0.35441422E-02 0.46278096E+02</pdfrwt>
<pdfrwt beam="2">  1       21 0.25074397E-01 0.46278096E+02</pdfrwt>
<totfact> 0.65376800E+06</totfact>
</mgrwt>
</event>
<event>
 4    1  0.9138221E+003  0.2147285E+02  0.7546771E-02  0.1717532E+00
         21   -1    0    0  503  501  0.00000000000E+00  0.00000000000E+00  0.12270339536E+02  0.12270339536E+02  0.00000000000E+00 0.  1.
         21   -1    0    0  501  502 -0.00000000000E+00 -0.00000000000E+00 -0.55141249406E+02  0.55141249406E+02  0.00000000000E+00 0.  1.
         21    1    1    2  503  504  0.37303776802E+01  0.21146333075E+02 -0.24123900585E+01  0.21607932478E+02  0.00000000000E+00 0.  1.
         21    1    1    2  504  502 -0.37303776802E+01 -0.21146333075E+02 -0.40458519811E+02  0.45803656464E+02  0.00000000000E+00 0.  1.
<mgrwt>
<rscale>  2 0.21472846E+02</rscale>
<asrwt>0</asrwt>
<pdfrwt beam="1">  1       21 0.18877446E-02 0.21472846E+02</pdfrwt>
<pdfrwt beam="2">  1       21 0.84832691E-02 0.21472846E+02</pdfrwt>
<totfact> 0.97900765E+07</totfact>
</mgrwt>
</event>
<event>
 4    1  0.9138221E+003  0.3537958E+02  0.7546771E-02  0.1545255E+00
         21   -1    0    0  502  501  0.00000000000E+00  0.00000000000E+00  0.98728893804E+02  0.98728893804E+02  0.00000000000E+00 0. -1.
         21   -1    0    0  503  502 -0.00000000000E+00 -0.00000000000E+00 -0.30568511703E+02  0.30568511703E+02  0.00000000000E+00 0. -1.
         21    1    1    2  503  504  0.35344524845E+02 -0.15745754399E+01 -0.15377106729E+02  0.38576808263E+02  0.00000000000E+00 0. -1.
         21    1    1    2  504  501 -0.35344524845E+02  0.15745754399E+01  0.83537488830E+02  0.90720597244E+02  0.00000000000E+00 0. -1.
<mgrwt>
<rscale>  2 0.35379581E+02</rscale>
<asrwt>0</asrwt>
<pdfrwt beam="1">  1       21 0.15189060E-01 0.35379581E+02</pdfrwt>
<pdfrwt beam="2">  1       21 0.47028480E-02 0.35379581E+02</pdfrwt>
<totfact> 0.97890795E+06</totfact>
</mgrwt>
</event>
<event>
 4    1  0.9138221E+003  0.3103213E+02  0.7546771E-02  0.1586952E+00
         21   -1    0    0  502  501  0.00000000000E+00  0.00000000000E+00  0.31816943718E+02  0.31816943718E+02  0.00000000000E+00 0. -1.
         21   -1    0    0  504  502 -0.00000000000E+00 -0.00000000000E+00 -0.73298026581E+02  0.73298026581E+02  0.00000000000E+00 0. -1.
         21    1    1    2  503  501 -0.20175855339E+02 -0.23578118933E+02  0.19529397462E+02  0.36665926912E+02  0.00000000000E+00 0. -1.
         21    1    1    2  504  503  0.20175855339E+02  0.23578118933E+02 -0.61010480326E+02  0.68449043387E+02  0.00000000000E+00 0. -1.
<mgrwt>
<rscale>  2 0.31032126E+02</rscale>
<asrwt>0</asrwt>
<pdfrwt beam="1">  1       21 0.48949145E-02 0.31032126E+02</pdfrwt>
<pdfrwt beam="2">  1       21 0.11276619E-01 0.31032126E+02</pdfrwt>
<totfact> 0.14953349E+07</totfact>
</mgrwt>
</event>
<event>
 4    1  0.9138221E+003  0.2022734E+02  0.7546771E-02  0.1740845E+00
         21   -1    0    0  504  501  0.00000000000E+00  0.00000000000E+00  0.33472658435E+02  0.33472658435E+02  0.00000000000E+00 0. -1.
         21   -1    0    0  501  502 -0.00000000000E+00 -0.00000000000E+00 -0.23942754999E+02  0.23942754999E+02  0.00000000000E+00 0. -1.
         21    1    1    2  503  502  0.13332879240E+01  0.20183345747E+02 -0.15319770809E+02  0.25374011900E+02  0.00000000000E+00 0. -1.
         21    1    1    2  504  503 -0.13332879240E+01 -0.20183345747E+02  0.24849674244E+02  0.32041401534E+02  0.00000000000E+00 0. -1.
<mgrwt>
<rscale>  2 0.20227336E+02</rscale>
<asrwt>0</asrwt>
<pdfrwt beam="1">  1       21 0.51496398E-02 0.20227336E+02</pdfrwt>
<pdfrwt beam="2">  1       21 0.36835008E-02 0.20227336E+02</pdfrwt>
<totfact> 0.76509728E+07</totfact>
</mgrwt>
</event>
<event>
 4    1  0.9138221E+003  0.2900871E+02  0.7546771E-02  0.1609312E+00
         21   -1    0    0  503  501  0.00000000000E+00  0.00000000000E+00  0.22067370863E+03  0.22067370863E+03  0.00000000000E+00 0.  1.
         21   -1    0    0  501  502 -0.00000000000E+00 -0.00000000000E+00 -0.52552803208E+01  0.52552803208E+01  0.00000000000E+00 0.  1.
         21    1    1    2  503  504  0.13869172731E+02  0.25478442861E+02  0.48537125848E+02  0.56545181832E+02  0.00000000000E+00 0.  1.
         21    1    1    2  504  502 -0.13869172731E+02 -0.25478442861E+02  0.16688130246E+03  0.16938380712E+03  0.00000000000E+00 0.  1.
<mgrwt>
<rscale>  2 0.29008706E+02</rscale>
<asrwt>0</asrwt>
<pdfrwt beam="1">  1       21 0.33949794E-01 0.29008706E+02</pdfrwt>
<pdfrwt beam="2">  1       21 0.80850483E-03 0.29008706E+02</pdfrwt>
<totfact> 0.34471767E+07</totfact>
</mgrwt>
</event>
<event>
 4    1  0.9138221E+003  0.3512893E+02  0.7546771E-02  0.1547459E+00
         21   -1    0    0  504  501  0.00000000000E+00  0.00000000000E+00  0.89649051399E+02  0.89649051399E+02  0.00000000000E+00 0.  1.
         21   -1    0    0  501  502 -0.00000000000E+00 -0.00000000000E+00 -0.17371132839E+02  0.17371132839E+02  0.00000000000E+00 0.  1.
         21    1    1    2  503  502 -0.18650536274E+02 -0.29769093759E+02  0.11759305153E+02  0.37044874197E+02  0.00000000000E+00 0. -1.
         21    1    1    2  504  503  0.18650536274E+02  0.29769093759E+02  0.60518613407E+02  0.69975310041E+02  0.00000000000E+00 0. -1.
<mgrwt>
<rscale>  2 0.35128926E+02</rscale>
<asrwt>0</asrwt>
<pdfrwt beam="1">  1       21 0.13792162E-01 0.35128926E+02</pdfrwt>
<pdfrwt beam="2">  1       21 0.26724820E-02 0.35128926E+02</pdfrwt>
<totfact> 0.28410492E+07</totfact>
</mgrwt>
</event>
<event>
 4    1  0.9138221E+003  0.2384025E+02  0.7546771E-02  0.1678241E+00
         21   -1    0    0  503  501  0.00000000000E+00  0.00000000000E+00  0.38991209202E+01  0.38991209202E+01  0.00000000000E+00 0.  1.
         21   -1    0    0  501  502 -0.00000000000E+00 -0.00000000000E+00 -0.23003042647E+03  0.23003042647E+03  0.00000000000E+00 0.  1.
         21    1    1    2  503  504  0.12482511564E+02 -0.20311186284E+02 -0.18385791937E+03  0.18539711945E+03  0.00000000000E+00 0.  1.
         21    1    1    2  504  502 -0.12482511564E+02  0.20311186284E+02 -0.42273386178E+02  0.48532427944E+02  0.00000000000E+00 0.  1.
<mgrwt>
<rscale>  2 0.23840247E+02</rscale>
<asrwt>0</asrwt>
<pdfrwt beam="1">  1       21 0.59986470E-03 0.23840247E+02</pdfrwt>
<pdfrwt beam="2">  1       21 0.35389300E-01 0.23840247E+02</pdfrwt>
<totfact> 0.47763170E+07</totfact>
</mgrwt>
</event>
<event>
 4    1  0.9138221E+003  0.2562663E+02  0.7546771E-02  0.1652161E+00
         21   -1    0    0  502  501  0.00000000000E+00  0.00000000000E+00  0.23540644994E+03  0.23540644994E+03  0.00000000000E+00 0. -1.
         21   -1    0    0  503  502 -0.00000000000E+00 -0.00000000000E+00 -0.46025763043E+01  0.46025763043E+01  0.00000000000E+00 0. -1.
         21    1    1    2  503  504  0.10194450317E+02  0.23511639250E+02  0.40087928671E+02  0.47579050249E+02  0.00000000000E+00 0.  1.
         21    1    1    2  504  501 -0.10194450317E+02 -0.23511639250E+02  0.19071594496E+03  0.19242997599E+03  0.00000000000E+00 0.  1.
<mgrwt>
<rscale>  2 0.25626627E+02</rscale>
<asrwt>0</asrwt>
<pdfrwt beam="1">  1       21 0.36216368E-01 0.25626627E+02</pdfrwt>
<pdfrwt beam="2">  1       21 0.70808885E-03 0.25626627E+02</pdfrwt>
<totfact> 0.36324751E+07</totfact>
</mgrwt>
</event>
<event>
 4    1  0.9138221E+003  0.2774734E+02  0.7546771E-02  0.1624413E+00
         21   -1    0    0  502  501  0.00000000000E+00  0.00000000000E+00  0.64671457944E+03  0.64671457944E+03  0.00000000000E+00 0. -1.
         21   -1    0    0  504  502 -0.00000000000E+00 -0.00000000000E+00 -0.17752727804E+01  0.17752727804E+01  0.00000000000E+00 0. -1.
         21    1    1    2  503  501 -0.26977316064E+02  0.64914615553E+01  0.13637509591E+03  0.13916925465E+03  0.00000000000E+00 0. -1.
         21    1    1    2  504  503  0.26977316064E+02 -0.64914615553E+01  0.50856421075E+03  0.50932059757E+03  0.00000000000E+00 0. -1.
<mgrwt>
<rscale>  2 0.27747336E+02</rscale>
<asrwt>0</asrwt>
<pdfrwt beam="1">  1       21 0.99494363E-01 0.27747336E+02</pdfrwt>
<pdfrwt beam="2">  1       21 0.27311941E-03 0.27747336E+02</pdfrwt>
<totfact> 0.19581983E+07</totfact>
</mgrwt>
</event>
<event>
 4    1  0.9138221E+003  0.2397325E+02  0.7546771E-02  0.1676203E+00
         21   -1    0    0  503  501  0.00000000000E+00  0.00000000000E+00  0.56219434535E+02  0.56219434535E+02  0.00000000000E+00 0.  1.
         21   -1    0    0  501  502 -0.00000000000E+00 -0.00000000000E+00 -0.18111304221E+02  0.18111304221E+02  0.00000000000E+00 0.  1.
         21    1    1    2  503  504  0.98141319925E+01 -0.21872348568E+02 -0.54739551377E+01  0.24590262371E+02  0.00000000000E+00 0.  1.
         21    1    1    2  504  502 -0.98141319925E+01  0.21872348568E+02  0.43582085452E+02  0.49740476385E+02  0.00000000000E+00 0.  1.
<mgrwt>
<rscale>  2 0.23973252E+02</rscale>
<asrwt>0</asrwt>
<pdfrwt beam="1">  1       21 0.86491437E-02 0.23973252E+02</pdfrwt>
<pdfrwt beam="2">  1       21 0.27863545E-02 0.23973252E+02</pdfrwt>
<totfact> 0.53652968E+07</totfact>
</mgrwt>
</event>
<event>
 4    1  0.9138221E+003  0.2426289E+02  0.7546771E-02  0.1671821E+00
         21   -1    0    0  502  501  0.00000000000E+00  0.00000000000E+00  0.94807693559E+02  0.94807693559E+02  0.00000000000E+00 0. -1.
         21   -1    0    0  504  502 -0.00000000000E+00 -0.00000000000E+00 -0.72222733165E+01  0.72222733165E+01  0.00000000000E+00 0. -1.
         21    1    1    2  503  501  0.16113461881E+02 -0.18139571824E+02  0.24686980905E+02  0.34614083058E+02  0.00000000000E+00 0. -1.
         21    1    1    2  504  503 -0.16113461881E+02  0.18139571824E+02  0.62898439338E+02  0.67415883818E+02  0.00000000000E+00 0. -1.
<mgrwt>
<rscale>  2 0.24262888E+02</rscale>
<asrwt>0</asrwt>
<pdfrwt beam="1">  1       21 0.14585798E-01 0.24262888E+02</pdfrwt>
<pdfrwt beam="2">  1       21 0.11111190E-02 0.24262888E+02</pdfrwt>
<totfact> 0.91848397E+07</totfact>
</mgrwt>
</event>
<event>
 4    1  0.9138221E+003  0.2278740E+02  0.7546771E-02  0.1694980E+00
         21   -1    0    0  503  501  0.00000000000E+00  0.00000000000E+00  0.16938107562E+03  0.16938107562E+03  0.00000000000E+00 0.  1.
         21   -1    0    0  501  502 -0.00000000000E+00 -0.00000000000E+00 -0.40321134839E+01  0.40321134839E+01  0.00000000000E+00 0.  1.
         21    1    1    2  503  504 -0.10960022405E+02  0.19978575558E+02  0.40224725509E+02  0.46230878368E+02  0.00000000000E+00 0. -1.
         21    1    1    2  504  502  0.10960022405E+02 -0.19978575558E+02  0.12512423663E+03  0.12718231074E+03  0.00000000000E+00 0. -1.
<mgrwt>
<rscale>  2 0.22787399E+02</rscale>
<asrwt>0</asrwt>
<pdfrwt beam="1">  1       21 0.26058621E-01 0.22787399E+02</pdfrwt>
<pdfrwt beam="2">  1       21 0.62032528E-03 0.22787399E+02</pdfrwt>
<totfact> 0.78499230E+07</totfact>
</mgrwt>
</event>
<event>
 4    1  0.9138221E+003  0.2079371E+02  0.7546771E-02  0.1729990E+00
         21   -1    0    0  502  501  0.00000000000E+00  0.00000000000E+00  0.28136886052E+01  0.28136886052E+01  0.00000000000E+00 0. -1.
         21   -1    0    0  504  502 -0.00000000000E+00 -0.00000000000E+00 -0.20378303493E+03  0.20378303493E+03  0.00000000000E+00 0. -1.
         21    1    1    2  503  501 -0.19523143958E+02  0.71571680476E+01 -0.15171024461E+03  0.15312862738E+03  0.00000000000E+00 0. -1.
         21    1    1    2  504  503  0.19523143958E+02 -0.71571680476E+01 -0.49259101716E+02  0.53468096154E+02  0.00000000000E+00 0. -1.
<mgrwt>
<rscale>  2 0.20793706E+02</rscale>
<asrwt>0</asrwt>
<pdfrwt beam="1">  1       21 0.43287519E-03 0.20793706E+02</pdfrwt>
<pdfrwt beam="2">  1       21 0.31351235E-01 0.20793706E+02</pdfrwt>
<totfact> 0.93208802E+07</totfact>
</mgrwt>
</event>
<event>
 4    1  0.9138221E+003  0.3094721E+02  0.7546771E-02  0.1587849E+00
         21   -1    0    0  502  501  0.00000000000E+00  0.00000000000E+00  0.21136622106E+01  0.21136622106E+01  0.00000000000E+00 0.  1.
         21   -1    0    0  503  502 -0.00000000000E+00 -0.00000000000E+00 -0.81520827820E+03  0.81520827820E+03  0.00000000000E+00 0.  1.
         21    1    1    2  503  504  0.17219802220E+02 -0.25713964479E+02 -0.67890510357E+03  0.67961008616E+03  0.00000000000E+00 0. -1.
         21    1    1    2  504  501 -0.17219802220E+02  0.25713964479E+02 -0.13418951243E+03  0.13771185426E+03  0.00000000000E+00 0. -1.
<mgrwt>
<rscale>  2 0.30947206E+02</rscale>
<asrwt>0</asrwt>
<pdfrwt beam="1">  1       21 0.32517820E-03 0.30947206E+02</pdfrwt>
<pdfrwt beam="2">  1       21 0.12541689E+00 0.30947206E+02</pdfrwt>
<totfact> 0.91212726E+06</totfact>
</mgrwt>
</event>
<event>
 4    1  0.9138221E+003  0.2290284E+02  0.7546771E-02  0.1693090E+00
         21   -1    0    0  503  501  0.00000000000E+00  0.00000000000E+00  0.68919599748E+01  0.68919599748E+01  0.00000000000E+00 0.  1.
         21   -1    0    0  501  502 -0.00000000000E+00 -0.00000000000E+00 -0.10977930933E+03  0.10977930933E+03  0.00000000000E+00 0.  1.
         21    1    1    2  503  504  0.17396464339E+02 -0.14896406741E+02 -0.83750738669E+02  0.86825837934E+02  0.00000000000E+00 0. -1.
         21    1    1    2  504  502 -0.17396464339E+02  0.14896406741E+02 -0.19136610691E+02  0.29845431376E+02  0.00000000000E+00 0. -1.
<mgrwt>
<rscale>  2 0.22902836E+02</rscale>
<asrwt>0</asrwt>
<pdfrwt beam="1">  1       21 0.10603015E-02 0.22902836E+02</pdfrwt>
<pdfrwt beam="2">  1       21 0.16889125E-01 0.22902836E+02</pdfrwt>
<totfact> 0.75503729E+07</totfact>
</mgrwt>
</event>
<event>
 4    1  0.9138221E+003  0.2655114E+02  0.7546771E-02  0.1639672E+00
         21   -1    0    0  502  501  0.00000000000E+00  0.00000000000E+00  0.13387210592E+03  0.13387210592E+03  0.00000000000E+00 0.  1.
         21   -1    0    0  504  502 -0.00000000000E+00 -0.00000000000E+00 -0.16240452636E+02  0.16240452636E+02  0.00000000000E+00 0.  1.
         21    1    1    2  503  501  0.25051951608E+02 -0.87956249458E+01  0.12051515937E+03  0.12340529541E+03  0.00000000000E+00 0.  1.
         21    1    1    2  504  503 -0.25051951608E+02  0.87956249458E+01 -0.28835060824E+01  0.26707263149E+02  0.00000000000E+00 0.  1.
<mgrwt>
<rscale>  2 0.26551145E+02</rscale>
<asrwt>0</asrwt>
<pdfrwt beam="1">  1       21 0.20595708E-01 0.26551145E+02</pdfrwt>
<pdfrwt beam="2">  1       21 0.24985313E-02 0.26551145E+02</pdfrwt>
<totfact> 0.14918338E+07</totfact>
</mgrwt>
</event>
<event>
 4    1  0.9138221E+003  0.2443174E+02  0.7546771E-02  0.1669301E+00
         21   -1    0    0  502  501  0.00000000000E+00  0.00000000000E+00  0.28696195997E+03  0.28696195997E+03  0.00000000000E+00 0. -1.
         21   -1    0    0  503  502 -0.00000000000E+00 -0.00000000000E+00 -0.24836398804E+01  0.24836398804E+01  0.00000000000E+00 0. -1.
         21    1    1    2  503  504  0.45453725165E+01  0.24005202182E+02  0.83903407461E+02  0.87388168116E+02  0.00000000000E+00 0.  1.
         21    1    1    2  504  501 -0.45453725165E+01 -0.24005202182E+02  0.20057491263E+03  0.20205743174E+03  0.00000000000E+00 0.  1.
<mgrwt>
<rscale>  2 0.24431745E+02</rscale>
<asrwt>0</asrwt>
<pdfrwt beam="1">  1       21 0.44147968E-01 0.24431745E+02</pdfrwt>
<pdfrwt beam="2">  1       21 0.38209867E-03 0.24431745E+02</pdfrwt>
<totfact> 0.61605550E+07</totfact>
</mgrwt>
</event>
<event>
 4    1  0.9138221E+003  0.2810427E+02  0.7546771E-02  0.1620041E+00
         21   -1    0    0  502  501  0.00000000000E+00  0.00000000000E+00  0.13927437412E+02  0.13927437412E+02  0.00000000000E+00 0. -1.
         21   -1    0    0  503  502 -0.00000000000E+00 -0.00000000000E+00 -0.61661316569E+02  0.61661316569E+02  0.00000000000E+00 0. -1.
         21    1    1    2  503  504 -0.14232970185E+02 -0.24233707720E+02 -0.34574788429E+02  0.44556324187E+02  0.00000000000E+00 0. -1.
         21    1    1    2  504  501  0.14232970185E+02  0.24233707720E+02 -0.13159090728E+02  0.31032429794E+02  0.00000000000E+00 0. -1.
<mgrwt>
<rscale>  2 0.28104271E+02</rscale>
<asrwt>0</asrwt>
<pdfrwt beam="1">  1       21 0.21426826E-02 0.28104271E+02</pdfrwt>
<pdfrwt beam="2">  1       21 0.94863566E-02 0.28104271E+02</pdfrwt>
<totfact> 0.72013806E+07</totfact>
</mgrwt>
</event>
<event>
 4    1  0.9138221E+003  0.3116070E+02  0.7546771E-02  0.1585602E+00
         21   -1    0    0  502  501  0.00000000000E+00  0.00000000000E+00  0.19207433001E+02  0.19207433001E+02  0.00000000000E+00 0.  1.
         21   -1    0    0  504  502 -0.00000000000E+00 -0.00000000000E+00 -0.58727289962E+02  0.58727289962E+02  0.00000000000E+00 0.  1.
         21    1    1    2  503  501 -0.33175910061E+01 -0.30983592223E+02 -0.34298158006E+02  0.46339540780E+02  0.00000000000E+00 0.  1.
         21    1    1    2  504  503  0.33175910061E+01  0.30983592223E+02 -0.52216989555E+01  0.31595182182E+02  0.00000000000E+00 0.  1.
<mgrwt>
<rscale>  2 0.31160703E+02</rscale>
<asrwt>0</asrwt>
<pdfrwt beam="1">  1       21 0.29549897E-02 0.31160703E+02</pdfrwt>
<pdfrwt beam="2">  1       21 0.90349676E-02 0.31160703E+02</pdfrwt>
<totfact> 0.48411132E+07</totfact>
</mgrwt>
</event>
<event>
 4    1  0.9138221E+003  0.2204532E+02  0.7546771E-02  0.1707469E+00
         21   -1    0    0  504  501  0.00000000000E+00  0.00000000000E+00  0.14229755206E+04  0.14229755206E+04  0.00000000000E+00 0.  1.
         21   -1    0    0  501  502 -0.00000000000E+00 -0.00000000000E+00 -0.41447700490E+00  0.41447700490E+00  0.00000000000E+00 0.  1.
         21    1    1    2  503  502 -0.59143552355E+01  0.21237152481E+02  0.10098407240E+04  0.10100813255E+04  0.00000000000E+00 0.  1.
         21    1    1    2  504  503  0.59143552355E+01 -0.21237152481E+02  0.41272031958E+03  0.41330867211E+03  0.00000000000E+00 0.  1.
<mgrwt>
<rscale>  2 0.22045322E+02</rscale>
<asrwt>0</asrwt>
<pdfrwt beam="1">  1       21 0.21891540E+00 0.22045322E+02</pdfrwt>
<pdfrwt beam="2">  1       21 0.63766832E-04 0.22045322E+02</pdfrwt>
<totfact> 0.23093976E+07</totfact>
</mgrwt>
</event>
<event>
 4    1  0.9138221E+003  0.2321556E+02  0.7546771E-02  0.1688040E+00
         21   -1    0    0  502  501  0.00000000000E+00  0.00000000000E+00  0.28701353203E+02  0.28701353203E+02  0.00000000000E+00 0.  1.
         21   -1    0    0  503  502 -0.00000000000E+00 -0.00000000000E+00 -0.42839539273E+02  0.42839539273E+02  0.00000000000E+00 0.  1.
         21    1    1    2  503  504 -0.22842512262E+02 -0.41451186996E+01 -0.33876884431E+02  0.41068304984E+02  0.00000000000E+00 0. -1.
         21    1    1    2  504  501  0.22842512262E+02  0.41451186996E+01  0.19738698360E+02  0.30472587492E+02  0.00000000000E+00 0. -1.
<mgrwt>
<rscale>  2 0.23215563E+02</rscale>
<asrwt>0</asrwt>
<pdfrwt beam="1">  1       21 0.44155928E-02 0.23215563E+02</pdfrwt>
<pdfrwt beam="2">  1       21 0.65906983E-02 0.23215563E+02</pdfrwt>
<totfact> 0.40226001E+07</totfact>
</mgrwt>
</event>
<event>
 4    1  0.9138221E+003  0.2018636E+02  0.7546771E-02  0.1741647E+00
         21   -1    0    0  504  501  0.00000000000E+00  0.00000000000E+00  0.11713993211E+04  0.11713993211E+04  0.00000000000E+00 0.  1.
         21   -1    0    0  501  502 -0.00000000000E+00 -0.00000000000E+00 -0.46723705262E+00  0.46723705262E+00  0.00000000000E+00 0.  1.
         21    1    1    2  503  502 -0.10246242857E+02  0.17392634513E+02  0.28930342970E+03  0.29000683382E+03  0.00000000000E+00 0. -1.
         21    1    1    2  504  503  0.10246242857E+02 -0.17392634513E+02  0.88162865439E+03  0.88185972437E+03  0.00000000000E+00 0. -1.
<mgrwt>
<rscale>  2 0.20186362E+02</rscale>
<asrwt>0</asrwt>
<pdfrwt beam="1">  1       21 0.18021293E+00 0.20186362E+02</pdfrwt>
<pdfrwt beam="2">  1       21 0.71883561E-04 0.20186362E+02</pdfrwt>
<totfact> 0.31596183E+07</totfact>
</mgrwt>
</event>
<event>
 4    1  0.9138221E+003  0.4702658E+02  0.7546771E-02  0.1462073E+00
         21   -1    0    0  503  501  0.00000000000E+00  0.00000000000E+00  0.49049187581E+03  0.49049187581E+03  0.00000000000E+00 0. -1.
         21   -1    0    0  501  502 -0.00000000000E+00 -0.00000000000E+00 -0.52842906046E+01  0.52842906046E+01  0.00000000000E+00 0. -1.
         21    1    1    2  503  504 -0.44823172031E+02 -0.14226133813E+02  0.33756971175E+03  0.34082959075E+03  0.00000000000E+00 0. -1.
         21    1    1    2  504  502  0.44823172031E+02  0.14226133813E+02  0.14763787345E+03  0.15494657567E+03  0.00000000000E+00 0. -1.
<mgrwt>
<rscale>  2 0.47026584E+02</rscale>
<asrwt>0</asrwt>
<pdfrwt beam="1">  1       21 0.75460253E-01 0.47026584E+02</pdfrwt>
<pdfrwt beam="2">  1       21 0.81296817E-03 0.47026584E+02</pdfrwt>
<totfact> 0.74887815E+06</totfact>
</mgrwt>
</event>
<event>
 4    1  0.9138221E+003  0.2757872E+02  0.7546771E-02  0.1626506E+00
         21   -1    0    0  503  501  0.00000000000E+00  0.00000000000E+00  0.51442351474E+01  0.51442351474E+01  0.00000000000E+00 0.  1.
         21   -1    0    0  501  502 -0.00000000000E+00 -0.00000000000E+00 -0.31581721048E+03  0.31581721048E+03  0.00000000000E+00 0.  1.
         21    1    1    2  503  504 -0.26932802350E+02 -0.59337798237E+01 -0.27237117835E+03  0.27376384783E+03  0.00000000000E+00 0. -1.
         21    1    1    2  504  502  0.26932802350E+02  0.59337798237E+01 -0.38301796987E+02  0.47197597797E+02  0.00000000000E+00 0. -1.
<mgrwt>
<rscale>  2 0.27578716E+02</rscale>
<asrwt>0</asrwt>
<pdfrwt beam="1">  1       21 0.79142097E-03 0.27578716E+02</pdfrwt>
<pdfrwt beam="2">  1       21 0.48587252E-01 0.27578716E+02</pdfrwt>
<totfact> 0.17804848E+07</totfact>
</mgrwt>
</event>
<event>
 4    1  0.9138221E+003  0.2061648E+02  0.7546771E-02  0.1733339E+00
         21   -1    0    0  504  501  0.00000000000E+00  0.00000000000E+00  0.67548812693E+01  0.67548812693E+01  0.00000000000E+00 0.  1.
         21   -1    0    0  501  502 -0.00000000000E+00 -0.00000000000E+00 -0.96119028041E+02  0.96119028041E+02  0.00000000000E+00 0.  1.
         21    1    1    2  503  502 -0.20178679968E+02 -0.42261467787E+01 -0.14453918335E+02  0.25178466933E+02  0.00000000000E+00 0. -1.
         21    1    1    2  504  503  0.20178679968E+02  0.42261467787E+01 -0.74910228436E+02  0.77695442377E+02  0.00000000000E+00 0. -1.
<mgrwt>
<rscale>  2 0.20616485E+02</rscale>
<asrwt>0</asrwt>
<pdfrwt beam="1">  1       21 0.10392125E-02 0.20616485E+02</pdfrwt>
<pdfrwt beam="2">  1       21 0.14787543E-01 0.20616485E+02</pdfrwt>
<totfact> 0.94801664E+07</totfact>
</mgrwt>
</event>
<event>
 4    1  0.9138221E+003  0.2454855E+02  0.7546771E-02  0.1667572E+00
         21   -1    0    0  502  501  0.00000000000E+00  0.00000000000E+00  0.53486505011E+01  0.53486505011E+01  0.00000000000E+00 0.  1.
         21   -1    0    0  504  502 -0.00000000000E+00 -0.00000000000E+00 -0.18937824219E+03  0.18937824219E+03  0.00000000000E+00 0.  1.
         21    1    1    2  503  501 -0.22891881525E+02 -0.88652781656E+01 -0.15398065441E+03  0.15592521711E+03  0.00000000000E+00 0.  1.
         21    1    1    2  504  503  0.22891881525E+02  0.88652781656E+01 -0.30048937279E+02  0.38801675586E+02  0.00000000000E+00 0.  1.
<mgrwt>
<rscale>  2 0.24548552E+02</rscale>
<asrwt>0</asrwt>
<pdfrwt beam="1">  1       21 0.82286930E-03 0.24548552E+02</pdfrwt>
<pdfrwt beam="2">  1       21 0.29135114E-01 0.24548552E+02</pdfrwt>
<totfact> 0.42923832E+07</totfact>
</mgrwt>
</event>
<event>
 4    1  0.9138221E+003  0.2304039E+02  0.7546771E-02  0.1690856E+00
         21   -1    0    0  504  501  0.00000000000E+00  0.00000000000E+00  0.17262962707E+01  0.17262962707E+01  0.00000000000E+00 0. -1.
         21   -1    0    0  501  502 -0.00000000000E+00 -0.00000000000E+00 -0.52864394362E+03  0.52864394362E+03  0.00000000000E+00 0. -1.
         21    1    1    2  503  502  0.14702160055E+01 -0.22993438228E+02 -0.91947972390E+02  0.94790766235E+02  0.00000000000E+00 0.  1.
         21    1    1    2  504  503 -0.14702160055E+01  0.22993438228E+02 -0.43496967496E+03  0.43557947366E+03  0.00000000000E+00 0.  1.
<mgrwt>
<rscale>  2 0.23040394E+02</rscale>
<asrwt>0</asrwt>
<pdfrwt beam="1">  1       21 0.26558407E-03 0.23040394E+02</pdfrwt>
<pdfrwt beam="2">  1       21 0.81329828E-01 0.23040394E+02</pdfrwt>
<totfact> 0.30402583E+07</totfact>
</mgrwt>
</event>
<event>
 4    1  0.9138221E+003  0.2583935E+02  0.7546771E-02  0.1649231E+00
         21   -1    0    0  503  501  0.00000000000E+00  0.00000000000E+00  0.18377514430E+01  0.18377514430E+01  0.00000000000E+00 0. -1.
         21   -1    0    0  501  502 -0.00000000000E+00 -0.00000000000E+00 -0.55728714858E+03  0.55728714858E+03  0.00000000000E+00 0. -1.
         21    1    1    2  503  504 -0.30938387880E+01  0.25653458889E+02 -0.11278863096E+03  0.11571061777E+03  0.00000000000E+00 0. -1.
         21    1    1    2  504  502  0.30938387880E+01 -0.25653458889E+02 -0.44266076618E+03  0.44341428225E+03  0.00000000000E+00 0. -1.
<mgrwt>
<rscale>  2 0.25839346E+02</rscale>
<asrwt>0</asrwt>
<pdfrwt beam="1">  1       21 0.28273070E-03 0.25839346E+02</pdfrwt>
<pdfrwt beam="2">  1       21 0.85736572E-01 0.25839346E+02</pdfrwt>
<totfact> 0.25383211E+07</totfact>
</mgrwt>
</event>
<event>
 4    1  0.9138221E+003  0.2199790E+02  0.7546771E-02  0.1708288E+00
         21   -1    0    0  503  501  0.00000000000E+00  0.00000000000E+00  0.20898316777E+01  0.20898316777E+01  0.00000000000E+00 0. -1.
         21   -1    0    0  501  502 -0.00000000000E+00 -0.00000000000E+00 -0.84881292373E+03  0.84881292373E+03  0.00000000000E+00 0. -1.
         21    1    1    2  503  504  0.26625604252E+01  0.21836172275E+02 -0.60552723436E+02  0.64424684424E+02  0.00000000000E+00 0. -1.
         21    1    1    2  504  502 -0.26625604252E+01 -0.21836172275E+02 -0.78617036862E+03  0.78647807099E+03  0.00000000000E+00 0. -1.
<mgrwt>
<rscale>  2 0.21997901E+02</rscale>
<asrwt>0</asrwt>
<pdfrwt beam="1">  1       21 0.32151229E-03 0.21997901E+02</pdfrwt>
<pdfrwt beam="2">  1       21 0.13058672E+00 0.21997901E+02</pdfrwt>
<totfact> 0.80627131E+06</totfact>
</mgrwt>
</event>
<event>
 4    1  0.9138221E+003  0.2322612E+02  0.7546771E-02  0.1687871E+00
         21   -1    0    0  504  501  0.00000000000E+00  0.00000000000E+00  0.22977427282E+02  0.22977427282E+02  0.00000000000E+00 0.  1.
         21   -1    0    0  501  502 -0.00000000000E+00 -0.00000000000E+00 -0.28798134322E+02  0.28798134322E+02  0.00000000000E+00 0.  1.
         21    1    1    2  503  502  0.34202672788E+01  0.22972907537E+02  0.82170559034E+01  0.24636816286E+02  0.00000000000E+00 0. -1.
         21    1    1    2  504  503 -0.34202672788E+01 -0.22972907537E+02 -0.14037762944E+02  0.27138745318E+02  0.00000000000E+00 0. -1.
<mgrwt>
<rscale>  2 0.23226121E+02</rscale>
<asrwt>0</asrwt>
<pdfrwt beam="1">  1       21 0.35349888E-02 0.23226121E+02</pdfrwt>
<pdfrwt beam="2">  1       21 0.44304822E-02 0.23226121E+02</pdfrwt>
<totfact> 0.10777559E+08</totfact>
</mgrwt>
</event>
<event>
 4    1  0.9138221E+003  0.2271916E+02  0.7546771E-02  0.1696103E+00
         21   -1    0    0  502  501  0.00000000000E+00  0.00000000000E+00  0.52471566804E+02  0.52471566804E+02  0.00000000000E+00 0. -1.
         21   -1    0    0  504  502 -0.00000000000E+00 -0.00000000000E+00 -0.12005278951E+02  0.12005278951E+02  0.00000000000E+00 0. -1.
         21    1    1    2  503  501 -0.16078281514E+02  0.16051455602E+02  0.33934069031E+02  0.40837255103E+02  0.00000000000E+00 0. -1.
         21    1    1    2  504  503  0.16078281514E+02 -0.16051455602E+02  0.65322188225E+01  0.23639590651E+02  0.00000000000E+00 0. -1.
<mgrwt>
<rscale>  2 0.22719163E+02</rscale>
<asrwt>0</asrwt>
<pdfrwt beam="1">  1       21 0.80725486E-02 0.22719163E+02</pdfrwt>
<pdfrwt beam="2">  1       21 0.18469660E-02 0.22719163E+02</pdfrwt>
<totfact> 0.11157653E+08</totfact>
</mgrwt>
</event>
<event>
 4    1  0.9138221E+003  0.3211786E+02  0.7546771E-02  0.1575793E+00
         21   -1    0    0  503  501  0.00000000000E+00  0.00000000000E+00  0.35581103820E+01  0.35581103820E+01  0.00000000000E+00 0. -1.
         21   -1    0    0  501  502 -0.00000000000E+00 -0.00000000000E+00 -0.34628106514E+03  0.34628106514E+03  0.00000000000E+00 0. -1.
         21    1    1    2  503  504  0.27705173991E+02 -0.16247468797E+02 -0.10079068592E+03  0.10578430544E+03  0.00000000000E+00 0. -1.
         21    1    1    2  504  502 -0.27705173991E+02  0.16247468797E+02 -0.24193226884E+03  0.24405487009E+03  0.00000000000E+00 0. -1.
<mgrwt>
<rscale>  2 0.32117860E+02</rscale>
<asrwt>0</asrwt>
<pdfrwt beam="1">  1       21 0.54740149E-03 0.32117860E+02</pdfrwt>
<pdfrwt beam="2">  1       21 0.53274020E-01 0.32117860E+02</pdfrwt>
<totfact> 0.26498792E+07</totfact>
</mgrwt>
</event>
<event>
 4    1  0.9138221E+003  0.2218270E+02  0.7546771E-02  0.1705111E+00
         21   -1    0    0  502  501  0.00000000000E+00  0.00000000000E+00  0.17676335089E+03  0.17676335089E+03  0.00000000000E+00 0. -1.
         21   -1    0    0  503  502 -0.00000000000E+00 -0.00000000000E+00 -0.30576130155E+01  0.30576130155E+01  0.00000000000E+00 0. -1.
         21    1    1    2  503  504 -0.19818746247E+02 -0.99644075467E+01  0.11375915268E+03  0.11590175555E+03  0.00000000000E+00 0.  1.
         21    1    1    2  504  501  0.19818746247E+02  0.99644075467E+01  0.59946585190E+02  0.63919208353E+02  0.00000000000E+00 0.  1.
<mgrwt>
<rscale>  2 0.22182699E+02</rscale>
<asrwt>0</asrwt>
<pdfrwt beam="1">  1       21 0.27194354E-01 0.22182699E+02</pdfrwt>
<pdfrwt beam="2">  1       21 0.47040214E-03 0.22182699E+02</pdfrwt>
<totfact> 0.10861814E+08</totfact>
</mgrwt>
</event>
<event>
 4    1  0.9138221E+003  0.2560801E+02  0.7546771E-02  0.1652419E+00
         21   -1    0    0  502  501  0.00000000000E+00  0.00000000000E+00  0.57563926150E+01  0.57563926150E+01  0.00000000000E+00 0. -1.
         21   -1    0    0  503  502 -0.00000000000E+00 -0.00000000000E+00 -0.32285875132E+03  0.32285875132E+03  0.00000000000E+00 0. -1.
         21    1    1    2  503  504  0.90728577938E-01  0.25607846941E+02 -0.29072957228E+03  0.29185519399E+03  0.00000000000E+00 0.  1.
         21    1    1    2  504  501 -0.90728577938E-01 -0.25607846941E+02 -0.26372786424E+02  0.36759949951E+02  0.00000000000E+00 0.  1.
<mgrwt>
<rscale>  2 0.25608008E+02</rscale>
<asrwt>0</asrwt>
<pdfrwt beam="1">  1       21 0.88559874E-03 0.25608008E+02</pdfrwt>
<pdfrwt beam="2">  1       21 0.49670584E-01 0.25608008E+02</pdfrwt>
<totfact> 0.14216102E+07</totfact>
</mgrwt>
</event>
<event>
 4    1  0.9138221E+003  0.2586530E+02  0.7546771E-02  0.1648876E+00
         21   -1    0    0  502  501  0.00000000000E+00  0.00000000000E+00  0.13118844384E+02  0.13118844384E+02  0.00000000000E+00 0.  1.
         21   -1    0    0  503  502 -0.00000000000E+00 -0.00000000000E+00 -0.69139457740E+02  0.69139457740E+02  0.00000000000E+00 0.  1.
         21    1    1    2  503  504  0.25083787262E+02 -0.63101134056E+01 -0.69414033571E+01  0.26780533885E+02  0.00000000000E+00 0. -1.
         21    1    1    2  504  501 -0.25083787262E+02  0.63101134056E+01 -0.49079209999E+02  0.55477768239E+02  0.00000000000E+00 0. -1.
<mgrwt>
<rscale>  2 0.25865303E+02</rscale>
<asrwt>0</asrwt>
<pdfrwt beam="1">  1       21 0.20182838E-02 0.25865303E+02</pdfrwt>
<pdfrwt beam="2">  1       21 0.10636840E-01 0.25865303E+02</pdfrwt>
<totfact> 0.63960089E+07</totfact>
</mgrwt>
</event>
<event>
 4    1  0.9138221E+003  0.2669768E+02  0.7546771E-02  0.1637750E+00
         21   -1    0    0  502  501  0.00000000000E+00  0.00000000000E+00  0.84995764776E+02  0.84995764776E+02  0.00000000000E+00 0. -1.
         21   -1    0    0  503  502 -0.00000000000E+00 -0.00000000000E+00 -0.12114618273E+02  0.12114618273E+02  0.00000000000E+00 0. -1.
         21    1    1    2  503  504 -0.26680357510E+02 -0.96144947543E+00  0.95028632369E+01  0.28338494520E+02  0.00000000000E+00 0.  1.
         21    1    1    2  504  501  0.26680357510E+02  0.96144947543E+00  0.63378283266E+02  0.68771888528E+02  0.00000000000E+00 0.  1.
<mgrwt>
<rscale>  2 0.26697675E+02</rscale>
<asrwt>0</asrwt>
<pdfrwt beam="1">  1       21 0.13076271E-01 0.26697675E+02</pdfrwt>
<pdfrwt beam="2">  1       21 0.18637875E-02 0.26697675E+02</pdfrwt>
<totfact> 0.51484231E+07</totfact>
</mgrwt>
</event>
<event>
 4    1  0.9138221E+003  0.2818035E+02  0.7546771E-02  0.1619120E+00
         21   -1    0    0  503  501  0.00000000000E+00  0.00000000000E+00  0.43136358911E+03  0.43136358911E+03  0.00000000000E+00 0.  1.
         21   -1    0    0  501  502 -0.00000000000E+00 -0.00000000000E+00 -0.24578678007E+01  0.24578678007E+01  0.00000000000E+00 0.  1.
         21    1    1    2  503  504  0.95326293795E+01 -0.26519074354E+02  0.10578418244E+03  0.10947340125E+03  0.00000000000E+00 0.  1.
         21    1    1    2  504  502 -0.95326293795E+01  0.26519074354E+02  0.32312153888E+03  0.32434805566E+03  0.00000000000E+00 0.  1.
<mgrwt>
<rscale>  2 0.28180354E+02</rscale>
<asrwt>0</asrwt>
<pdfrwt beam="1">  1       21 0.66363569E-01 0.28180354E+02</pdfrwt>
<pdfrwt beam="2">  1       21 0.37813385E-03 0.28180354E+02</pdfrwt>
<totfact> 0.28764937E+07</totfact>
</mgrwt>
</event>
<event>
 4    1  0.9138221E+003  0.2010012E+02  0.7546771E-02  0.1743344E+00
         21   -1    0    0  503  501  0.00000000000E+00  0.00000000000E+00  0.27494868901E+02  0.27494868901E+02  0.00000000000E+00 0. -1.
         21   -1    0    0  501  502 -0.00000000000E+00 -0.00000000000E+00 -0.43281043799E+02  0.43281043799E+02  0.00000000000E+00 0. -1.
         21    1    1    2  503  504 -0.18909331659E+02  0.68155748557E+01  0.20866972337E+02  0.28973184480E+02  0.00000000000E+00 0. -1.
         21    1    1    2  504  502  0.18909331659E+02 -0.68155748557E+01 -0.36653147235E+02  0.41802728220E+02  0.00000000000E+00 0. -1.
<mgrwt>
<rscale>  2 0.20100122E+02</rscale>
<asrwt>0</asrwt>
<pdfrwt beam="1">  1       21 0.42299798E-02 0.20100122E+02</pdfrwt>
<pdfrwt beam="2">  1       21 0.66586221E-02 0.20100122E+02</pdfrwt>
<totfact> 0.40804245E+07</totfact>
</mgrwt>
</event>
<event>
 4    1  0.9138221E+003  0.2357588E+02  0.7546771E-02  0.1682342E+00
         21   -1    0    0  503  501  0.00000000000E+00  0.00000000000E+00  0.85682693241E+01  0.85682693241E+01  0.00000000000E+00 0.  1.
         21   -1    0    0  501  502 -0.00000000000E+00 -0.00000000000E+00 -0.10119523106E+03  0.10119523106E+03  0.00000000000E+00 0.  1.
         21    1    1    2  503  504 -0.23556000516E+02  0.96792337642E+00 -0.13431858671E+02  0.27133685030E+02  0.00000000000E+00 0. -1.
         21    1    1    2  504  502  0.23556000516E+02 -0.96792337642E+00 -0.79195103068E+02  0.82629815357E+02  0.00000000000E+00 0. -1.
<mgrwt>
<rscale>  2 0.23575878E+02</rscale>
<asrwt>0</asrwt>
<pdfrwt beam="1">  1       21 0.13181953E-02 0.23575878E+02</pdfrwt>
<pdfrwt beam="2">  1       21 0.15568496E-01 0.23575878E+02</pdfrwt>
<totfact> 0.62975710E+07</totfact>
</mgrwt>
</event>
<event>
 4    1  0.9138221E+003  0.2337034E+02  0.7546771E-02  0.1685576E+00
         21   -1    0    0  502  501  0.00000000000E+00  0.00000000000E+00  0.27567076141E+03  0.27567076141E+03  0.00000000000E+00 0. -1.
         21   -1    0    0  503  502 -0.00000000000E+00 -0.00000000000E+00 -0.24063825098E+01  0.24063825098E+01  0.00000000000E+00 0. -1.
         21    1    1    2  503  504 -0.18969068133E+02  0.13650902872E+02  0.19507285153E+03  0.19646778387E+03  0.00000000000E+00 0.  1.
         21    1    1    2  504  501  0.18969068133E+02 -0.13650902872E+02  0.78191527363E+02  0.81609360042E+02  0.00000000000E+00 0.  1.
<mgrwt>
<rscale>  2 0.23370338E+02</rscale>
<asrwt>0</asrwt>
<pdfrwt beam="1">  1       21 0.42410861E-01 0.23370338E+02</pdfrwt>
<pdfrwt beam="2">  1       21 0.37021291E-03 0.23370338E+02</pdfrwt>
<totfact> 0.68910842E+07</totfact>
</mgrwt>
</event>
<event>
 4    1  0.9138221E+003  0.2178756E+02  0.7546771E-02  0.1711952E+00
         21   -1    0    0  502  501  0.00000000000E+00  0.00000000000E+00  0.80894996985E+01  0.80894996985E+01  0.00000000000E+00 0.  1.
         21   -1    0    0  504  502 -0.00000000000E+00 -0.00000000000E+00 -0.17335701844E+03  0.17335701844E+03  0.00000000000E+00 0.  1.
         21    1    1    2  503  501  0.20977872969E+02  0.58844439205E+01 -0.88459321085E+01  0.23514853804E+02  0.00000000000E+00 0.  1.
         21    1    1    2  504  503 -0.20977872969E+02 -0.58844439205E+01 -0.15642158664E+03  0.15793166434E+03  0.00000000000E+00 0.  1.
<mgrwt>
<rscale>  2 0.21787561E+02</rscale>
<asrwt>0</asrwt>
<pdfrwt beam="1">  1       21 0.12445384E-02 0.21787561E+02</pdfrwt>
<pdfrwt beam="2">  1       21 0.26670311E-01 0.21787561E+02</pdfrwt>
<totfact> 0.26298368E+07</totfact>
</mgrwt>
</event>
<event>
 4    1  0.9138221E+003  0.2490871E+02  0.7546771E-02  0.1662317E+00
         21   -1    0    0  502  501  0.00000000000E+00  0.00000000000E+00  0.15650958370E+03  0.15650958370E+03  0.00000000000E+00 0. -1.
         21   -1    0    0  503  502 -0.00000000000E+00 -0.00000000000E+00 -0.48790590857E+01  0.48790590857E+01  0.00000000000E+00 0. -1.
         21    1    1    2  503  504 -0.21395954740E+02 -0.12753711912E+02  0.40873986383E+02  0.47865716432E+02  0.00000000000E+00 0. -1.
         21    1    1    2  504  501  0.21395954740E+02  0.12753711912E+02  0.11075653824E+03  0.11352292636E+03  0.00000000000E+00 0. -1.
<mgrwt>
<rscale>  2 0.24908714E+02</rscale>
<asrwt>0</asrwt>
<pdfrwt beam="1">  1       21 0.24078394E-01 0.24908714E+02</pdfrwt>
<pdfrwt beam="2">  1       21 0.75062460E-03 0.24908714E+02</pdfrwt>
<totfact> 0.69640101E+07</totfact>
</mgrwt>
</event>
<event>
 4    1  0.9138221E+003  0.2001906E+02  0.7546771E-02  0.1744949E+00
         21   -1    0    0  502  501  0.00000000000E+00  0.00000000000E+00  0.69829044061E+03  0.69829044061E+03  0.00000000000E+00 0.  1.
         21   -1    0    0  504  502 -0.00000000000E+00 -0.00000000000E+00 -0.86892598670E+00  0.86892598670E+00  0.00000000000E+00 0.  1.
         21    1    1    2  503  501  0.18886327888E+02 -0.66384759787E+01  0.55240104304E+03  0.55276367020E+03  0.00000000000E+00 0. -1.
         21    1    1    2  504  503 -0.18886327888E+02  0.66384759787E+01  0.14502047159E+03  0.14639569640E+03  0.00000000000E+00 0. -1.
<mgrwt>
<rscale>  2 0.20019060E+02</rscale>
<asrwt>0</asrwt>
<pdfrwt beam="1">  1       21 0.10742885E+00 0.20019060E+02</pdfrwt>
<pdfrwt beam="2">  1       21 0.13368148E-03 0.20019060E+02</pdfrwt>
<totfact> 0.43489570E+07</totfact>
</mgrwt>
</event>
<event>
 4    1  0.9138221E+003  0.2220298E+02  0.7546771E-02  0.1704765E+00
         21   -1    0    0  502  501  0.00000000000E+00  0.00000000000E+00  0.98079664222E+02  0.98079664222E+02  0.00000000000E+00 0.  1.
         21   -1    0    0  504  502 -0.00000000000E+00 -0.00000000000E+00 -0.96934647615E+01  0.96934647615E+01  0.00000000000E+00 0.  1.
         21    1    1    2  503  501  0.11175885255E+02 -0.19185205256E+02  0.68018431037E+01  0.23221489650E+02  0.00000000000E+00 0. -1.
         21    1    1    2  504  503 -0.11175885255E+02  0.19185205256E+02  0.81584356357E+02  0.84551639334E+02  0.00000000000E+00 0. -1.
<mgrwt>
<rscale>  2 0.22202984E+02</rscale>
<asrwt>0</asrwt>
<pdfrwt beam="1">  1       21 0.15089178E-01 0.22202984E+02</pdfrwt>
<pdfrwt beam="2">  1       21 0.14913023E-02 0.22202984E+02</pdfrwt>
<totfact> 0.54231541E+07</totfact>
</mgrwt>
</event>
<event>
 4    1  0.9138221E+003  0.2440922E+02  0.7546771E-02  0.1669635E+00
         21   -1    0    0  503  501  0.00000000000E+00  0.00000000000E+00  0.19713277524E+01  0.19713277524E+01  0.00000000000E+00 0. -1.
         21   -1    0    0  501  502 -0.00000000000E+00 -0.00000000000E+00 -0.34179821283E+03  0.34179821283E+03  0.00000000000E+00 0. -1.
         21    1    1    2  503  504 -0.24330394752E+02  0.19601001203E+01 -0.11143686190E+03  0.11407885120E+03  0.00000000000E+00 0. -1.
         21    1    1    2  504  502  0.24330394752E+02 -0.19601001203E+01 -0.22839002318E+03  0.22969068938E+03  0.00000000000E+00 0. -1.
<mgrwt>
<rscale>  2 0.24409222E+02</rscale>
<asrwt>0</asrwt>
<pdfrwt beam="1">  1       21 0.30328103E-03 0.24409222E+02</pdfrwt>
<pdfrwt beam="2">  1       21 0.52584369E-01 0.24409222E+02</pdfrwt>
<totfact> 0.61546855E+07</totfact>
</mgrwt>
</event>
<event>
 4    1  0.9138221E+003  0.2335742E+02  0.7546771E-02  0.1685781E+00
         21   -1    0    0  502  501  0.00000000000E+00  0.00000000000E+00  0.15586351315E+02  0.15586351315E+02  0.00000000000E+00 0.  1.
         21   -1    0    0  503  502 -0.00000000000E+00 -0.00000000000E+00 -0.16130394146E+03  0.16130394146E+03  0.00000000000E+00 0.  1.
         21    1    1    2  503  504 -0.16131395740E+02  0.16892217894E+02  0.54039038066E+01  0.23974384877E+02  0.00000000000E+00 0.  1.
         21    1    1    2  504  501  0.16131395740E+02 -0.16892217894E+02 -0.15112149395E+03  0.15291590790E+03  0.00000000000E+00 0.  1.
<mgrwt>
<rscale>  2 0.23357418E+02</rscale>
<asrwt>0</asrwt>
<pdfrwt beam="1">  1       21 0.23979002E-02 0.23357418E+02</pdfrwt>
<pdfrwt beam="2">  1       21 0.24815991E-01 0.23357418E+02</pdfrwt>
<totfact> 0.11156868E+07</totfact>
</mgrwt>
</event>
<event>
 4    1  0.9138221E+003  0.2240096E+02  0.7546771E-02  0.1701408E+00
         21   -1    0    0  502  501  0.00000000000E+00  0.00000000000E+00  0.37336425980E+02  0.37336425980E+02  0.00000000000E+00 0.  1.
         21   -1    0    0  503  502 -0.00000000000E+00 -0.00000000000E+00 -0.22324700337E+02  0.22324700337E+02  0.00000000000E+00 0.  1.
         21    1    1    2  503  504 -0.15570199874E+02  0.16105029504E+02 -0.11312811274E+02  0.25095473663E+02  0.00000000000E+00 0. -1.
         21    1    1    2  504  501  0.15570199874E+02 -0.16105029504E+02  0.26324536917E+02  0.34565652653E+02  0.00000000000E+00 0. -1.
<mgrwt>
<rscale>  2 0.22400962E+02</rscale>
<asrwt>0</asrwt>
<pdfrwt beam="1">  1       21 0.57440655E-02 0.22400962E+02</pdfrwt>
<pdfrwt beam="2">  1       21 0.34345693E-02 0.22400962E+02</pdfrwt>
<totfact> 0.73807896E+07</totfact>
</mgrwt>
</event>
<event>
 4    1  0.9138221E+003  0.2350034E+02  0.7546771E-02  0.1683526E+00
         21   -1    0    0  504  501  0.00000000000E+00  0.00000000000E+00  0.11945057055E+04  0.11945057055E+04  0.00000000000E+00 0.  1.
         21   -1    0    0  501  502 -0.00000000000E+00 -0.00000000000E+00 -0.11649187822E+01  0.11649187822E+01  0.00000000000E+00 0.  1.
         21    1    1    2  503  502 -0.23438138555E+02 -0.17086937133E+01  0.10609522573E+04  0.10612124944E+04  0.00000000000E+00 0.  1.
         21    1    1    2  504  503  0.23438138555E+02  0.17086937133E+01  0.13238852933E+03  0.13445812981E+03  0.00000000000E+00 0.  1.
<mgrwt>
<rscale>  2 0.23500340E+02</rscale>
<asrwt>0</asrwt>
<pdfrwt beam="1">  1       21 0.18376913E+00 0.23500340E+02</pdfrwt>
<pdfrwt beam="2">  1       21 0.17921923E-03 0.23500340E+02</pdfrwt>
<totfact> 0.83803465E+06</totfact>
</mgrwt>
</event>
<event>
 4    1  0.9138221E+003  0.2324714E+02  0.7546771E-02  0.1687535E+00
         21   -1    0    0  503  501  0.00000000000E+00  0.00000000000E+00  0.76731789801E+02  0.76731789801E+02  0.00000000000E+00 0. -1.
         21   -1    0    0  501  502 -0.00000000000E+00 -0.00000000000E+00 -0.13863910080E+02  0.13863910080E+02  0.00000000000E+00 0. -1.
         21    1    1    2  503  504  0.62817890960E+01  0.22382332788E+02  0.63206535075E+02  0.67346089504E+02  0.00000000000E+00 0.  1.
         21    1    1    2  504  502 -0.62817890960E+01 -0.22382332788E+02 -0.33865535408E+00  0.23249610378E+02  0.00000000000E+00 0.  1.
<mgrwt>
<rscale>  2 0.23247144E+02</rscale>
<asrwt>0</asrwt>
<pdfrwt beam="1">  1       21 0.11804891E-01 0.23247144E+02</pdfrwt>
<pdfrwt beam="2">  1       21 0.21329093E-02 0.23247144E+02</pdfrwt>
<totfact> 0.48058888E+07</totfact>
</mgrwt>
</event>
<event>
 4    1  0.9138221E+003  0.3041299E+02  0.7546771E-02  0.1593568E+00
         21   -1    0    0  502  501  0.00000000000E+00  0.00000000000E+00  0.19728440226E+02  0.19728440226E+02  0.00000000000E+00 0.  1.
         21   -1    0    0  503  502 -0.00000000000E+00 -0.00000000000E+00 -0.15917343595E+03  0.15917343595E+03  0.00000000000E+00 0.  1.
         21    1    1    2  503  504  0.25839762437E+02  0.16039229662E+02  0.54084479397E+01  0.30890152477E+02  0.00000000000E+00 0.  1.
         21    1    1    2  504  501 -0.25839762437E+02 -0.16039229662E+02 -0.14485344367E+03  0.14801172370E+03  0.00000000000E+00 0.  1.
<mgrwt>
<rscale>  2 0.30412994E+02</rscale>
<asrwt>0</asrwt>
<pdfrwt beam="1">  1       21 0.30351447E-02 0.30412994E+02</pdfrwt>
<pdfrwt beam="2">  1       21 0.24488221E-01 0.30412994E+02</pdfrwt>
<totfact> 0.82750000E+06</totfact>
</mgrwt>
</event>
<event>
 4    1  0.9138221E+003  0.2536977E+02  0.7546771E-02  0.1655747E+00
         21   -1    0    0  502  501  0.00000000000E+00  0.00000000000E+00  0.25935845545E+02  0.25935845545E+02  0.00000000000E+00 0. -1.
         21   -1    0    0  503  502 -0.00000000000E+00 -0.00000000000E+00 -0.37942861375E+02  0.37942861375E+02  0.00000000000E+00 0. -1.
         21    1    1    2  503  504 -0.18961007721E+02  0.16855424610E+02  0.12782770703E+02  0.28408174518E+02  0.00000000000E+00 0.  1.
         21    1    1    2  504  501  0.18961007721E+02 -0.16855424610E+02 -0.24789786532E+02  0.35470532402E+02  0.00000000000E+00 0.  1.
<mgrwt>
<rscale>  2 0.25369768E+02</rscale>
<asrwt>0</asrwt>
<pdfrwt beam="1">  1       21 0.39901301E-02 0.25369768E+02</pdfrwt>
<pdfrwt beam="2">  1       21 0.58373632E-02 0.25369768E+02</pdfrwt>
<totfact> 0.58718610E+07</totfact>
</mgrwt>
</event>
<event>
 4    1  0.9138221E+003  0.2539462E+02  0.7546771E-02  0.1655398E+00
         21   -1    0    0  503  501  0.00000000000E+00  0.00000000000E+00  0.96114396977E+01  0.96114396977E+01  0.00000000000E+00 0. -1.
         21   -1    0    0  501  502 -0.00000000000E+00 -0.00000000000E+00 -0.21042830486E+03  0.21042830486E+03  0.00000000000E+00 0. -1.
         21    1    1    2  503  504 -0.19825897611E+02 -0.15868848979E+02 -0.96072497100E+01  0.27151166292E+02  0.00000000000E+00 0.  1.
         21    1    1    2  504  502  0.19825897611E+02  0.15868848979E+02 -0.19120961545E+03  0.19288857827E+03  0.00000000000E+00 0.  1.
<mgrwt>
<rscale>  2 0.25394617E+02</rscale>
<asrwt>0</asrwt>
<pdfrwt beam="1">  1       21 0.14786831E-02 0.25394617E+02</pdfrwt>
<pdfrwt beam="2">  1       21 0.32373584E-01 0.25394617E+02</pdfrwt>
<totfact> 0.14702285E+07</totfact>
</mgrwt>
</event>
<event>
 4    1  0.9138221E+003  0.3460614E+02  0.7546771E-02  0.1552126E+00
         21   -1    0    0  502  501  0.00000000000E+00  0.00000000000E+00  0.26423710116E+02  0.26423710116E+02  0.00000000000E+00 0.  1.
         21   -1    0    0  503  502 -0.00000000000E+00 -0.00000000000E+00 -0.77900457458E+02  0.77900457458E+02  0.00000000000E+00 0.  1.
         21    1    1    2  503  504  0.29067438820E+02 -0.18779488302E+02  0.79940632843E+01  0.35517463708E+02  0.00000000000E+00 0. -1.
         21    1    1    2  504  501 -0.29067438820E+02  0.18779488302E+02 -0.59470810626E+02  0.68806703866E+02  0.00000000000E+00 0. -1.
<mgrwt>
<rscale>  2 0.34606144E+02</rscale>
<asrwt>0</asrwt>
<pdfrwt beam="1">  1       21 0.40651862E-02 0.34606144E+02</pdfrwt>
<pdfrwt beam="2">  1       21 0.11984686E-01 0.34606144E+02</pdfrwt>
<totfact> 0.18516792E+07</totfact>
</mgrwt>
</event>
<event>
 4    1  0.9138221E+003  0.2108278E+02  0.7546771E-02  0.1724615E+00
         21   -1    0    0  502  501  0.00000000000E+00  0.00000000000E+00  0.90916876825E+02  0.90916876825E+02  0.00000000000E+00 0. -1.
         21   -1    0    0  504  502 -0.00000000000E+00 -0.00000000000E+00 -0.15700008491E+02  0.15700008491E+02  0.00000000000E+00 0. -1.
         21    1    1    2  503  501  0.11360786356E+02  0.17759961659E+02  0.81844971371E+02  0.84516761909E+02  0.00000000000E+00 0.  1.
         21    1    1    2  504  503 -0.11360786356E+02 -0.17759961659E+02 -0.66281030377E+01  0.22100123408E+02  0.00000000000E+00 0.  1.
<mgrwt>
<rscale>  2 0.21082782E+02</rscale>
<asrwt>0</asrwt>
<pdfrwt beam="1">  1       21 0.13987212E-01 0.21082782E+02</pdfrwt>
<pdfrwt beam="2">  1       21 0.24153860E-02 0.21082782E+02</pdfrwt>
<totfact> 0.29130732E+07</totfact>
</mgrwt>
</event>
<event>
 4    1  0.9138221E+003  0.3193401E+02  0.7546771E-02  0.1577645E+00
         21   -1    0    0  502  501  0.00000000000E+00  0.00000000000E+00  0.39371172276E+03  0.39371172276E+03  0.00000000000E+00 0.  1.
         21   -1    0    0  503  502 -0.00000000000E+00 -0.00000000000E+00 -0.70892657081E+01  0.70892657081E+01  0.00000000000E+00 0.  1.
         21    1    1    2  503  504 -0.17347233747E+02 -0.26811465977E+02  0.33664265005E+02  0.46401120298E+02  0.00000000000E+00 0. -1.
         21    1    1    2  504  501  0.17347233747E+02  0.26811465977E+02  0.35295819205E+03  0.35439986817E+03  0.00000000000E+00 0. -1.
<mgrwt>
<rscale>  2 0.31934014E+02</rscale>
<asrwt>0</asrwt>
<pdfrwt beam="1">  1       21 0.60571017E-01 0.31934014E+02</pdfrwt>
<pdfrwt beam="2">  1       21 0.10906566E-02 0.31934014E+02</pdfrwt>
<totfact> 0.72338705E+06</totfact>
</mgrwt>
</event>
<event>
 4    1  0.9138221E+003  0.2799128E+02  0.7546771E-02  0.1621416E+00
         21   -1    0    0  502  501  0.00000000000E+00  0.00000000000E+00  0.29370580057E+02  0.29370580057E+02  0.00000000000E+00 0. -1.
         21   -1    0    0  503  502 -0.00000000000E+00 -0.00000000000E+00 -0.28633895420E+02  0.28633895420E+02  0.00000000000E+00 0. -1.
         21    1    1    2  503  504  0.20712960009E+02 -0.18827778022E+02 -0.72139695783E+01  0.28905938744E+02  0.00000000000E+00 0.  1.
         21    1    1    2  504  501 -0.20712960009E+02  0.18827778022E+02  0.79506542156E+01  0.29098536733E+02  0.00000000000E+00 0.  1.
<mgrwt>
<rscale>  2 0.27991283E+02</rscale>
<asrwt>0</asrwt>
<pdfrwt beam="1">  1       21 0.45185508E-02 0.27991283E+02</pdfrwt>
<pdfrwt beam="2">  1       21 0.44052147E-02 0.27991283E+02</pdfrwt>
<totfact> 0.77523928E+07</totfact>
</mgrwt>
</event>
<event>
 4    1  0.9138221E+003  0.2476957E+02  0.7546771E-02  0.1664334E+00
         21   -1    0    0  502  501  0.00000000000E+00  0.00000000000E+00  0.20538100725E+03  0.20538100725E+03  0.00000000000E+00 0. -1.
         21   -1    0    0  503  502 -0.00000000000E+00 -0.00000000000E+00 -0.33508475583E+01  0.33508475583E+01  0.00000000000E+00 0. -1.
         21    1    1    2  503  504  0.23542719400E+02 -0.76988324289E+01  0.13539230480E+03  0.13763941243E+03  0.00000000000E+00 0.  1.
         21    1    1    2  504  501 -0.23542719400E+02  0.76988324289E+01  0.66637854897E+02  0.71092442375E+02  0.00000000000E+00 0.  1.
<mgrwt>
<rscale>  2 0.24769571E+02</rscale>
<asrwt>0</asrwt>
<pdfrwt beam="1">  1       21 0.31597068E-01 0.24769571E+02</pdfrwt>
<pdfrwt beam="2">  1       21 0.51551517E-03 0.24769571E+02</pdfrwt>
<totfact> 0.74387551E+07</totfact>
</mgrwt>
</event>
<event>
 4    1  0.9138221E+003  0.2907358E+02  0.7546771E-02  0.1608561E+00
         21   -1    0    0  503  501  0.00000000000E+00  0.00000000000E+00  0.40047213279E+02  0.40047213279E+02  0.00000000000E+00 0.  1.
         21   -1    0    0  501  502 -0.00000000000E+00 -0.00000000000E+00 -0.24090721380E+02  0.24090721380E+02  0.00000000000E+00 0.  1.
         21    1    1    2  503  504 -0.92236291592E+00 -0.29058946552E+02 -0.33078929106E+01  0.29261156566E+02  0.00000000000E+00 0. -1.
         21    1    1    2  504  502  0.92236291592E+00  0.29058946552E+02  0.19264384810E+02  0.34876778093E+02  0.00000000000E+00 0. -1.
<mgrwt>
<rscale>  2 0.29073581E+02</rscale>
<asrwt>0</asrwt>
<pdfrwt beam="1">  1       21 0.61611097E-02 0.29073581E+02</pdfrwt>
<pdfrwt beam="2">  1       21 0.37062648E-02 0.29073581E+02</pdfrwt>
<totfact> 0.62520951E+07</totfact>
</mgrwt>
</event>
<event>
 4    1  0.9138221E+003  0.2431139E+02  0.7546771E-02  0.1671094E+00
         21   -1    0    0  504  501  0.00000000000E+00  0.00000000000E+00  0.10751369451E+04  0.10751369451E+04  0.00000000000E+00 0.  1.
         21   -1    0    0  501  502 -0.00000000000E+00 -0.00000000000E+00 -0.18930220443E+01  0.18930220443E+01  0.00000000000E+00 0.  1.
         21    1    1    2  503  502  0.23820087529E+02 -0.48628398228E+01  0.82989774579E+02  0.86477433275E+02  0.00000000000E+00 0. -1.
         21    1    1    2  504  503 -0.23820087529E+02  0.48628398228E+01  0.99025414843E+03  0.99055253383E+03  0.00000000000E+00 0. -1.
<mgrwt>
<rscale>  2 0.24311392E+02</rscale>
<asrwt>0</asrwt>
<pdfrwt beam="1">  1       21 0.16540520E+00 0.24311392E+02</pdfrwt>
<pdfrwt beam="2">  1       21 0.29123502E-03 0.24311392E+02</pdfrwt>
<totfact> 0.53988214E+06</totfact>
</mgrwt>
</event>
<event>
 4    1  0.9138221E+003  0.3350381E+02  0.7546771E-02  0.1562303E+00
         21   -1    0    0  503  501  0.00000000000E+00  0.00000000000E+00  0.12236594253E+02  0.12236594253E+02  0.00000000000E+00 0.  1.
         21   -1    0    0  501  502 -0.00000000000E+00 -0.00000000000E+00 -0.10940240983E+03  0.10940240983E+03  0.00000000000E+00 0.  1.
         21    1    1    2  503  504  0.22837046751E+02 -0.24514788179E+02 -0.24141041243E+02  0.41295222679E+02  0.00000000000E+00 0. -1.
         21    1    1    2  504  502 -0.22837046751E+02  0.24514788179E+02 -0.73024774337E+02  0.80343781407E+02  0.00000000000E+00 0. -1.
<mgrwt>
<rscale>  2 0.33503814E+02</rscale>
<asrwt>0</asrwt>
<pdfrwt beam="1">  1       21 0.18825530E-02 0.33503814E+02</pdfrwt>
<pdfrwt beam="2">  1       21 0.16831140E-01 0.33503814E+02</pdfrwt>
<totfact> 0.34473074E+07</totfact>
</mgrwt>
</event>
<event>
 4    1  0.9138221E+003  0.2218926E+02  0.7546771E-02  0.1704999E+00
         21   -1    0    0  503  501  0.00000000000E+00  0.00000000000E+00  0.44012166893E+01  0.44012166893E+01  0.00000000000E+00 0.  1.
         21   -1    0    0  501  502 -0.00000000000E+00 -0.00000000000E+00 -0.22039338907E+03  0.22039338907E+03  0.00000000000E+00 0.  1.
         21    1    1    2  503  504  0.20200924384E+02 -0.91807411849E+01 -0.29124853951E+02  0.36614484461E+02  0.00000000000E+00 0. -1.
         21    1    1    2  504  502 -0.20200924384E+02  0.91807411849E+01 -0.18686731843E+03  0.18818012130E+03  0.00000000000E+00 0. -1.
<mgrwt>
<rscale>  2 0.22189262E+02</rscale>
<asrwt>0</asrwt>
<pdfrwt beam="1">  1       21 0.67710998E-03 0.22189262E+02</pdfrwt>
<pdfrwt beam="2">  1       21 0.33906689E-01 0.22189262E+02</pdfrwt>
<totfact> 0.42456536E+07</totfact>
</mgrwt>
</event>
<event>
 4    1  0.9138221E+003  0.2476394E+02  0.7546771E-02  0.1664416E+00
         21   -1    0    0  503  501  0.00000000000E+00  0.00000000000E+00  0.11637627681E+03  0.11637627681E+03  0.00000000000E+00 0.  1.
         21   -1    0    0  501  502 -0.00000000000E+00 -0.00000000000E+00 -0.68524157601E+01  0.68524157601E+01  0.00000000000E+00 0.  1.
         21    1    1    2  503  504  0.91955766015E+01 -0.22993350212E+02  0.84374730463E+02  0.87933770098E+02  0.00000000000E+00 0.  1.
         21    1    1    2  504  502 -0.91955766015E+01  0.22993350212E+02  0.25149130588E+02  0.35294922473E+02  0.00000000000E+00 0.  1.
<mgrwt>
<rscale>  2 0.24763941E+02</rscale>
<asrwt>0</asrwt>
<pdfrwt beam="1">  1       21 0.17904041E-01 0.24763941E+02</pdfrwt>
<pdfrwt beam="2">  1       21 0.10542179E-02 0.24763941E+02</pdfrwt>
<totfact> 0.70291839E+07</totfact>
</mgrwt>
</event>
<event>
 4    1  0.9138221E+003  0.2524707E+02  0.7546771E-02  0.1657478E+00
         21   -1    0    0  502  501  0.00000000000E+00  0.00000000000E+00  0.18070854714E+02  0.18070854714E+02  0.00000000000E+00 0. -1.
         21   -1    0    0  503  502 -0.00000000000E+00 -0.00000000000E+00 -0.52431262105E+02  0.52431262105E+02  0.00000000000E+00 0. -1.
         21    1    1    2  503  504  0.34797547426E+01  0.25006118895E+02 -0.37345873964E+02  0.45079141268E+02  0.00000000000E+00 0.  1.
         21    1    1    2  504  501 -0.34797547426E+01 -0.25006118895E+02  0.29854665732E+01  0.25422975552E+02  0.00000000000E+00 0.  1.
<mgrwt>
<rscale>  2 0.25247073E+02</rscale>
<asrwt>0</asrwt>
<pdfrwt beam="1">  1       21 0.27801315E-02 0.25247073E+02</pdfrwt>
<pdfrwt beam="2">  1       21 0.80663479E-02 0.25247073E+02</pdfrwt>
<totfact> 0.61155502E+07</totfact>
</mgrwt>
</event>
<event>
 4    1  0.9138221E+003  0.3067603E+02  0.7546771E-02  0.1590734E+00
         21   -1    0    0  502  501  0.00000000000E+00  0.00000000000E+00  0.10258130467E+03  0.10258130467E+03  0.00000000000E+00 0.  1.
         21   -1    0    0  504  502 -0.00000000000E+00 -0.00000000000E+00 -0.10358839118E+02  0.10358839118E+02  0.00000000000E+00 0.  1.
         21    1    1    2  503  501 -0.30671967915E+02  0.49912731441E+00  0.27008148633E+02  0.40871247062E+02  0.00000000000E+00 0. -1.
         21    1    1    2  504  503  0.30671967915E+02 -0.49912731441E+00  0.65214316917E+02  0.72068896723E+02  0.00000000000E+00 0. -1.
<mgrwt>
<rscale>  2 0.30676029E+02</rscale>
<asrwt>0</asrwt>
<pdfrwt beam="1">  1       21 0.15781739E-01 0.30676029E+02</pdfrwt>
<pdfrwt beam="2">  1       21 0.15936676E-02 0.30676029E+02</pdfrwt>
<totfact> 0.48983836E+07</totfact>
</mgrwt>
</event>
<event>
 4    1  0.9138221E+003  0.2019744E+02  0.7546771E-02  0.1741430E+00
         21   -1    0    0  502  501  0.00000000000E+00  0.00000000000E+00  0.64359637155E+02  0.64359637155E+02  0.00000000000E+00 0. -1.
         21   -1    0    0  504  502 -0.00000000000E+00 -0.00000000000E+00 -0.13186750800E+02  0.13186750800E+02  0.00000000000E+00 0. -1.
         21    1    1    2  503  501  0.17750977721E+02 -0.96353216827E+01 -0.23554558623E+01  0.20334325814E+02  0.00000000000E+00 0. -1.
         21    1    1    2  504  503 -0.17750977721E+02  0.96353216827E+01  0.53528342218E+02  0.57212062142E+02  0.00000000000E+00 0. -1.
<mgrwt>
<rscale>  2 0.20197441E+02</rscale>
<asrwt>0</asrwt>
<pdfrwt beam="1">  1       21 0.99014824E-02 0.20197441E+02</pdfrwt>
<pdfrwt beam="2">  1       21 0.20287309E-02 0.20197441E+02</pdfrwt>
<totfact> 0.66906704E+07</totfact>
</mgrwt>
</event>
<event>
 4    1  0.9138221E+003  0.2030741E+02  0.7546771E-02  0.1739283E+00
         21   -1    0    0  502  501  0.00000000000E+00  0.00000000000E+00  0.39874052235E+02  0.39874052235E+02  0.00000000000E+00 0.  1.
         21   -1    0    0  504  502 -0.00000000000E+00 -0.00000000000E+00 -0.17849153749E+02  0.17849153749E+02  0.00000000000E+00 0.  1.
         21    1    1    2  503  501 -0.16094713488E+02 -0.12383508108E+02 -0.77046870529E+01  0.21719882087E+02  0.00000000000E+00 0.  1.
         21    1    1    2  504  503  0.16094713488E+02  0.12383508108E+02  0.29729585539E+02  0.36003323897E+02  0.00000000000E+00 0.  1.
<mgrwt>
<rscale>  2 0.20307414E+02</rscale>
<asrwt>0</asrwt>
<pdfrwt beam="1">  1       21 0.61344695E-02 0.20307414E+02</pdfrwt>
<pdfrwt beam="2">  1       21 0.27460237E-02 0.20307414E+02</pdfrwt>
<totfact> 0.91471724E+07</totfact>
</mgrwt>
</event>
<event>
 4    1  0.9138221E+003  0.2748879E+02  0.7546771E-02  0.1627630E+00
         21   -1    0    0  502  501  0.00000000000E+00  0.00000000000E+00  0.54501689151E+02  0.54501689151E+02  0.00000000000E+00 0.  1.
         21   -1    0    0  504  502 -0.00000000000E+00 -0.00000000000E+00 -0.51415663182E+02  0.51415663182E+02  0.00000000000E+00 0.  1.
         21    1    1    2  503  501 -0.27488655345E+02 -0.86408532958E-01 -0.43715640634E+02  0.51640012347E+02  0.00000000000E+00 0.  1.
         21    1    1    2  504  503  0.27488655345E+02  0.86408532958E-01  0.46801666604E+02  0.54277339986E+02  0.00000000000E+00 0.  1.
<mgrwt>
<rscale>  2 0.27488791E+02</rscale>
<asrwt>0</asrwt>
<pdfrwt beam="1">  1       21 0.83848752E-02 0.27488791E+02</pdfrwt>
<pdfrwt beam="2">  1       21 0.79101021E-02 0.27488791E+02</pdfrwt>
<totfact> 0.10999779E+07</totfact>
</mgrwt>
</event>
<event>
 4    1  0.9138221E+003  0.2880920E+02  0.7546771E-02  0.1611637E+00
         21   -1    0    0  502  501  0.00000000000E+00  0.00000000000E+00  0.76752276960E+03  0.76752276960E+03  0.00000000000E+00 0. -1.
         21   -1    0    0  504  502 -0.00000000000E+00 -0.00000000000E+00 -0.13817096312E+01  0.13817096312E+01  0.00000000000E+00 0. -1.
         21    1    1    2  503  501 -0.45303391388E+01 -0.28450765860E+02  0.56231510497E+03  0.56305261506E+03  0.00000000000E+00 0. -1.
         21    1    1    2  504  503  0.45303391388E+01  0.28450765860E+02  0.20382595500E+03  0.20585186417E+03  0.00000000000E+00 0. -1.
<mgrwt>
<rscale>  2 0.28809201E+02</rscale>
<asrwt>0</asrwt>
<pdfrwt beam="1">  1       21 0.11808009E+00 0.28809201E+02</pdfrwt>
<pdfrwt beam="2">  1       21 0.21257133E-03 0.28809201E+02</pdfrwt>
<totfact> 0.19343478E+07</totfact>
</mgrwt>
</event>
<event>
 4    1  0.9138221E+003  0.2347760E+02  0.7546771E-02  0.1683883E+00
         21   -1    0    0  503  501  0.00000000000E+00  0.00000000000E+00  0.29073202954E+03  0.29073202954E+03  0.00000000000E+00 0. -1.
         21   -1    0    0  501  502 -0.00000000000E+00 -0.00000000000E+00 -0.51337012137E+01  0.51337012137E+01  0.00000000000E+00 0. -1.
         21    1    1    2  503  504  0.67268088233E+01  0.22493280472E+02  0.26028208893E+03  0.26133879054E+03  0.00000000000E+00 0. -1.
         21    1    1    2  504  502 -0.67268088233E+01 -0.22493280472E+02  0.25316239396E+02  0.34526940213E+02  0.00000000000E+00 0. -1.
<mgrwt>
<rscale>  2 0.23477598E+02</rscale>
<asrwt>0</asrwt>
<pdfrwt beam="1">  1       21 0.44727992E-01 0.23477598E+02</pdfrwt>
<pdfrwt beam="2">  1       21 0.78980041E-03 0.23477598E+02</pdfrwt>
<totfact> 0.20325227E+07</totfact>
</mgrwt>
</event>
<event>
 4    1  0.9138221E+003  0.3853128E+02  0.7546771E-02  0.1519306E+00
         21   -1    0    0  502  501  0.00000000000E+00  0.00000000000E+00  0.18702964073E+04  0.18702964073E+04  0.00000000000E+00 0. -1.
         21   -1    0    0  503  502 -0.00000000000E+00 -0.00000000000E+00 -0.17996466616E+01  0.17996466616E+01  0.00000000000E+00 0. -1.
         21    1    1    2  503  504 -0.36132374064E+02  0.13383240265E+02  0.16340392763E+04  0.16344935044E+04  0.00000000000E+00 0. -1.
         21    1    1    2  504  501  0.36132374064E+02 -0.13383240265E+02  0.23445748436E+03  0.23760254954E+03  0.00000000000E+00 0. -1.
<mgrwt>
<rscale>  2 0.38531280E+02</rscale>
<asrwt>0</asrwt>
<pdfrwt beam="1">  1       21 0.28773635E+00 0.38531280E+02</pdfrwt>
<pdfrwt beam="2">  1       21 0.27687021E-03 0.38531280E+02</pdfrwt>
<totfact> 0.12617052E+06</totfact>
</mgrwt>
</event>
<event>
 4    1  0.9138221E+003  0.2658046E+02  0.7546771E-02  0.1639287E+00
         21   -1    0    0  503  501  0.00000000000E+00  0.00000000000E+00  0.32101058126E+03  0.32101058126E+03  0.00000000000E+00 0.  1.
         21   -1    0    0  501  502 -0.00000000000E+00 -0.00000000000E+00 -0.56258630467E+01  0.56258630467E+01  0.00000000000E+00 0.  1.
         21    1    1    2  503  504  0.11552617981E+02  0.23938623086E+02  0.28512079080E+03  0.28635709525E+03  0.00000000000E+00 0. -1.
         21    1    1    2  504  502 -0.11552617981E+02 -0.23938623086E+02  0.30263927416E+02  0.40279349053E+02  0.00000000000E+00 0. -1.
<mgrwt>
<rscale>  2 0.26580456E+02</rscale>
<asrwt>0</asrwt>
<pdfrwt beam="1">  1       21 0.49386229E-01 0.26580456E+02</pdfrwt>
<pdfrwt beam="2">  1       21 0.86551764E-03 0.26580456E+02</pdfrwt>
<totfact> 0.14978478E+07</totfact>
</mgrwt>
</event>
<event>
 4    1  0.9138221E+003  0.3030739E+02  0.7546771E-02  0.1594715E+00
         21   -1    0    0  503  501  0.00000000000E+00  0.00000000000E+00  0.54631013517E+02  0.54631013517E+02  0.00000000000E+00 0. -1.
         21   -1    0    0  501  502 -0.00000000000E+00 -0.00000000000E+00 -0.21370774834E+02  0.21370774834E+02  0.00000000000E+00 0. -1.
         21    1    1    2  503  504 -0.54115876640E+01  0.29820341207E+02 -0.91824896714E+00  0.30321299640E+02  0.00000000000E+00 0. -1.
         21    1    1    2  504  502  0.54115876640E+01 -0.29820341207E+02  0.34178487651E+02  0.45680488710E+02  0.00000000000E+00 0. -1.
<mgrwt>
<rscale>  2 0.30307392E+02</rscale>
<asrwt>0</asrwt>
<pdfrwt beam="1">  1       21 0.84047713E-02 0.30307392E+02</pdfrwt>
<pdfrwt beam="2">  1       21 0.32878115E-02 0.30307392E+02</pdfrwt>
<totfact> 0.45856210E+07</totfact>
</mgrwt>
</event>
<event>
 4    1  0.9138221E+003  0.2853503E+02  0.7546771E-02  0.1614870E+00
         21   -1    0    0  502  501  0.00000000000E+00  0.00000000000E+00  0.22572864089E+01  0.22572864089E+01  0.00000000000E+00 0.  1.
         21   -1    0    0  504  502 -0.00000000000E+00 -0.00000000000E+00 -0.74846841044E+03  0.74846841044E+03  0.00000000000E+00 0.  1.
         21    1    1    2  503  501 -0.28303374559E+02 -0.36286266660E+01 -0.64327714244E+03  0.64390972188E+03  0.00000000000E+00 0. -1.
         21    1    1    2  504  503  0.28303374559E+02  0.36286266660E+01 -0.10293398159E+03  0.10681597497E+03  0.00000000000E+00 0. -1.
<mgrwt>
<rscale>  2 0.28535030E+02</rscale>
<asrwt>0</asrwt>
<pdfrwt beam="1">  1       21 0.34727472E-03 0.28535030E+02</pdfrwt>
<pdfrwt beam="2">  1       21 0.11514902E+00 0.28535030E+02</pdfrwt>
<totfact> 0.99673721E+06</totfact>
</mgrwt>
</event>
<event>
 4    1  0.9138221E+003  0.3635913E+02  0.7546771E-02  0.1536852E+00
         21   -1    0    0  502  501  0.00000000000E+00  0.00000000000E+00  0.35916219378E+01  0.35916219378E+01  0.00000000000E+00 0. -1.
         21   -1    0    0  503  502 -0.00000000000E+00 -0.00000000000E+00 -0.52317337199E+03  0.52317337199E+03  0.00000000000E+00 0. -1.
         21    1    1    2  503  504 -0.22246746216E+02 -0.28758802496E+02 -0.40319697963E+03  0.40483304067E+03  0.00000000000E+00 0. -1.
         21    1    1    2  504  501  0.22246746216E+02  0.28758802496E+02 -0.11638477043E+03  0.12193195326E+03  0.00000000000E+00 0. -1.
<mgrwt>
<rscale>  2 0.36359131E+02</rscale>
<asrwt>0</asrwt>
<pdfrwt beam="1">  1       21 0.55255761E-03 0.36359131E+02</pdfrwt>
<pdfrwt beam="2">  1       21 0.80488154E-01 0.36359131E+02</pdfrwt>
<totfact> 0.11367592E+07</totfact>
</mgrwt>
</event>
<event>
 4    1  0.9138221E+003  0.2248893E+02  0.7546771E-02  0.1699931E+00
         21   -1    0    0  502  501  0.00000000000E+00  0.00000000000E+00  0.70028483421E+01  0.70028483421E+01  0.00000000000E+00 0.  1.
         21   -1    0    0  503  502 -0.00000000000E+00 -0.00000000000E+00 -0.75324862398E+02  0.75324862398E+02  0.00000000000E+00 0.  1.
         21    1    1    2  503  504 -0.20699489173E+02 -0.87910878548E+01 -0.25804891846E+02  0.34229293316E+02  0.00000000000E+00 0. -1.
         21    1    1    2  504  501  0.20699489173E+02  0.87910878548E+01 -0.42517122210E+02  0.48098417424E+02  0.00000000000E+00 0. -1.
<mgrwt>
<rscale>  2 0.22488932E+02</rscale>
<asrwt>0</asrwt>
<pdfrwt beam="1">  1       21 0.10773613E-02 0.22488932E+02</pdfrwt>
<pdfrwt beam="2">  1       21 0.11588441E-01 0.22488932E+02</pdfrwt>
<totfact> 0.13874759E+08</totfact>
</mgrwt>
</event>
<event>
 4    1  0.9138221E+003  0.2482071E+02  0.7546771E-02  0.1663591E+00
         21   -1    0    0  504  501  0.00000000000E+00  0.00000000000E+00  0.88556728609E+01  0.88556728609E+01  0.00000000000E+00 0. -1.
         21   -1    0    0  501  502 -0.00000000000E+00 -0.00000000000E+00 -0.14531078436E+03  0.14531078436E+03  0.00000000000E+00 0. -1.
         21    1    1    2  503  502  0.24695583275E+02 -0.24891020241E+01 -0.12575284007E+02  0.27824543663E+02  0.00000000000E+00 0. -1.
         21    1    1    2  504  503 -0.24695583275E+02  0.24891020241E+01 -0.12387982749E+03  0.12634191355E+03  0.00000000000E+00 0. -1.
<mgrwt>
<rscale>  2 0.24820706E+02</rscale>
<asrwt>0</asrwt>
<pdfrwt beam="1">  1       21 0.13624112E-02 0.24820706E+02</pdfrwt>
<pdfrwt beam="2">  1       21 0.22355505E-01 0.24820706E+02</pdfrwt>
<totfact> 0.32337684E+07</totfact>
</mgrwt>
</event>
<event>
 4    1  0.9138221E+003  0.2004001E+02  0.7546771E-02  0.1744534E+00
         21   -1    0    0  504  501  0.00000000000E+00  0.00000000000E+00  0.84627269856E+00  0.84627269856E+00  0.00000000000E+00 0. -1.
         21   -1    0    0  501  502 -0.00000000000E+00 -0.00000000000E+00 -0.60005753782E+03  0.60005753782E+03  0.00000000000E+00 0. -1.
         21    1    1    2  503  502  0.16875682917E+02  0.10808029956E+02 -0.16219943799E+03  0.16343273806E+03  0.00000000000E+00 0.  1.
         21    1    1    2  504  503 -0.16875682917E+02 -0.10808029956E+02 -0.43701182714E+03  0.43747107246E+03  0.00000000000E+00 0.  1.
<mgrwt>
<rscale>  2 0.20040015E+02</rscale>
<asrwt>0</asrwt>
<pdfrwt beam="1">  1       21 0.13019540E-03 0.20040015E+02</pdfrwt>
<pdfrwt beam="2">  1       21 0.92316826E-01 0.20040015E+02</pdfrwt>
<totfact> 0.62781703E+07</totfact>
</mgrwt>
</event>
<event>
 4    1  0.9138221E+003  0.2791590E+02  0.7546771E-02  0.1622338E+00
         21   -1    0    0  502  501  0.00000000000E+00  0.00000000000E+00  0.27740018780E+02  0.27740018780E+02  0.00000000000E+00 0.  1.
         21   -1    0    0  504  502 -0.00000000000E+00 -0.00000000000E+00 -0.30014920413E+02  0.30014920413E+02  0.00000000000E+00 0.  1.
         21    1    1    2  503  501  0.27900924746E+02  0.91434523449E+00 -0.84449589928E+01  0.29165304066E+02  0.00000000000E+00 0. -1.
         21    1    1    2  504  503 -0.27900924746E+02 -0.91434523449E+00  0.61700573590E+01  0.28589635127E+02  0.00000000000E+00 0. -1.
<mgrwt>
<rscale>  2 0.27915903E+02</rscale>
<asrwt>0</asrwt>
<pdfrwt beam="1">  1       21 0.42676952E-02 0.27915903E+02</pdfrwt>
<pdfrwt beam="2">  1       21 0.46176801E-02 0.27915903E+02</pdfrwt>
<totfact> 0.78710905E+07</totfact>
</mgrwt>
</event>
<event>
 4    1  0.9138221E+003  0.2099018E+02  0.7546771E-02  0.1726325E+00
         21   -1    0    0  503  501  0.00000000000E+00  0.00000000000E+00  0.24830531481E+03  0.24830531481E+03  0.00000000000E+00 0. -1.
         21   -1    0    0  501  502 -0.00000000000E+00 -0.00000000000E+00 -0.45632324469E+01  0.45632324469E+01  0.00000000000E+00 0. -1.
         21    1    1    2  503  504  0.15978077324E+02  0.13612074716E+02  0.23029062217E+02  0.31159673292E+02  0.00000000000E+00 0.  1.
         21    1    1    2  504  502 -0.15978077324E+02 -0.13612074716E+02  0.22071302015E+03  0.22170887397E+03  0.00000000000E+00 0.  1.
<mgrwt>
<rscale>  2 0.20990177E+02</rscale>
<asrwt>0</asrwt>
<pdfrwt beam="1">  1       21 0.38200807E-01 0.20990177E+02</pdfrwt>
<pdfrwt beam="2">  1       21 0.70203595E-03 0.20990177E+02</pdfrwt>
<totfact> 0.31839284E+07</totfact>
</mgrwt>
</event>
<event>
 4    1  0.9138221E+003  0.2288923E+02  0.7546771E-02  0.1693312E+00
         21   -1    0    0  502  501  0.00000000000E+00  0.00000000000E+00  0.10057395656E+01  0.10057395656E+01  0.00000000000E+00 0. -1.
         21   -1    0    0  503  502 -0.00000000000E+00 -0.00000000000E+00 -0.66875165088E+03  0.66875165088E+03  0.00000000000E+00 0. -1.
         21    1    1    2  503  504 -0.80372694859E+01  0.21431733776E+02 -0.17642809499E+03  0.17790668794E+03  0.00000000000E+00 0.  1.
         21    1    1    2  504  501  0.80372694859E+01 -0.21431733776E+02 -0.49131781633E+03  0.49185070250E+03  0.00000000000E+00 0.  1.
<mgrwt>
<rscale>  2 0.22889231E+02</rscale>
<asrwt>0</asrwt>
<pdfrwt beam="1">  1       21 0.15472912E-03 0.22889231E+02</pdfrwt>
<pdfrwt beam="2">  1       21 0.10288490E+00 0.22889231E+02</pdfrwt>
<totfact> 0.39967414E+07</totfact>
</mgrwt>
</event>
<event>
 4    1  0.9138221E+003  0.2328717E+02  0.7546771E-02  0.1686897E+00
         21   -1    0    0  502  501  0.00000000000E+00  0.00000000000E+00  0.74584347202E+02  0.74584347202E+02  0.00000000000E+00 0. -1.
         21   -1    0    0  504  502 -0.00000000000E+00 -0.00000000000E+00 -0.86290400303E+01  0.86290400303E+01  0.00000000000E+00 0. -1.
         21    1    1    2  503  501  0.21121964939E+02  0.98058614145E+01  0.16470937236E+02  0.28523395562E+02  0.00000000000E+00 0.  1.
         21    1    1    2  504  503 -0.21121964939E+02 -0.98058614145E+01  0.49484369936E+02  0.54689991670E+02  0.00000000000E+00 0.  1.
<mgrwt>
<rscale>  2 0.23287171E+02</rscale>
<asrwt>0</asrwt>
<pdfrwt beam="1">  1       21 0.11474515E-01 0.23287171E+02</pdfrwt>
<pdfrwt beam="2">  1       21 0.13275447E-02 0.23287171E+02</pdfrwt>
<totfact> 0.10396928E+08</totfact>
</mgrwt>
</event>
<event>
 4    1  0.9138221E+003  0.3174071E+02  0.7546771E-02  0.1579608E+00
         21   -1    0    0  502  501  0.00000000000E+00  0.00000000000E+00  0.98018863073E+01  0.98018863073E+01  0.00000000000E+00 0. -1.
         21   -1    0    0  504  502 -0.00000000000E+00 -0.00000000000E+00 -0.14900786783E+03  0.14900786783E+03  0.00000000000E+00 0. -1.
         21    1    1    2  503  501 -0.27932222433E+02  0.15075255758E+02 -0.11382902212E+03  0.11817156453E+03  0.00000000000E+00 0. -1.
         21    1    1    2  504  503  0.27932222433E+02 -0.15075255758E+02 -0.25376959403E+02  0.40638189610E+02  0.00000000000E+00 0. -1.
<mgrwt>
<rscale>  2 0.31740706E+02</rscale>
<asrwt>0</asrwt>
<pdfrwt beam="1">  1       21 0.15079826E-02 0.31740706E+02</pdfrwt>
<pdfrwt beam="2">  1       21 0.22924287E-01 0.31740706E+02</pdfrwt>
<totfact> 0.27840348E+07</totfact>
</mgrwt>
</event>
<event>
 4    1  0.9138221E+003  0.2316595E+02  0.7546771E-02  0.1688834E+00
         21   -1    0    0  503  501  0.00000000000E+00  0.00000000000E+00  0.72681834341E+03  0.72681834341E+03  0.00000000000E+00 0.  1.
         21   -1    0    0  501  502 -0.00000000000E+00 -0.00000000000E+00 -0.10095279538E+01  0.10095279538E+01  0.00000000000E+00 0.  1.
         21    1    1    2  503  504 -0.66856333173E+01  0.22180255052E+02  0.17430076187E+03  0.17583349224E+03  0.00000000000E+00 0. -1.
         21    1    1    2  504  502  0.66856333173E+01 -0.22180255052E+02  0.55150805359E+03  0.55199437912E+03  0.00000000000E+00 0. -1.
<mgrwt>
<rscale>  2 0.23165954E+02</rscale>
<asrwt>0</asrwt>
<pdfrwt beam="1">  1       21 0.11181779E+00 0.23165954E+02</pdfrwt>
<pdfrwt beam="2">  1       21 0.15531257E-03 0.23165954E+02</pdfrwt>
<totfact> 0.33130034E+07</totfact>
</mgrwt>
</event>
<event>
 4    1  0.9138221E+003  0.2577434E+02  0.7546771E-02  0.1650123E+00
         21   -1    0    0  502  501  0.00000000000E+00  0.00000000000E+00  0.16157876627E+03  0.16157876627E+03  0.00000000000E+00 0. -1.
         21   -1    0    0  504  502 -0.00000000000E+00 -0.00000000000E+00 -0.52391069154E+01  0.52391069154E+01  0.00000000000E+00 0. -1.
         21    1    1    2  503  501  0.83391840941E+01 -0.24387998496E+02  0.39472565595E+02  0.47142336563E+02  0.00000000000E+00 0.  1.
         21    1    1    2  504  503 -0.83391840941E+01  0.24387998496E+02  0.11686709376E+03  0.11967553662E+03  0.00000000000E+00 0.  1.
<mgrwt>
<rscale>  2 0.25774337E+02</rscale>
<asrwt>0</asrwt>
<pdfrwt beam="1">  1       21 0.24858268E-01 0.25774337E+02</pdfrwt>
<pdfrwt beam="2">  1       21 0.80601657E-03 0.25774337E+02</pdfrwt>
<totfact> 0.59619056E+07</totfact>
</mgrwt>
</event>
<event>
 4    1  0.9138221E+003  0.2078076E+02  0.7546771E-02  0.1730233E+00
         21   -1    0    0  503  501  0.00000000000E+00  0.00000000000E+00  0.10426724102E+04  0.10426724102E+04  0.00000000000E+00 0. -1.
         21   -1    0    0  501  502 -0.00000000000E+00 -0.00000000000E+00 -0.41778575628E+00  0.41778575628E+00  0.00000000000E+00 0. -1.
         21    1    1    2  503  504 -0.93841032702E+01  0.18541269274E+02  0.56966960105E+03  0.57004850181E+03  0.00000000000E+00 0. -1.
         21    1    1    2  504  502  0.93841032702E+01 -0.18541269274E+02  0.47258502338E+03  0.47304169412E+03  0.00000000000E+00 0. -1.
<mgrwt>
<rscale>  2 0.20780762E+02</rscale>
<asrwt>0</asrwt>
<pdfrwt beam="1">  1       21 0.16040906E+00 0.20780762E+02</pdfrwt>
<pdfrwt beam="2">  1       21 0.64275567E-04 0.20780762E+02</pdfrwt>
<totfact> 0.49359561E+07</totfact>
</mgrwt>
</event>
<event>
 4    1  0.9138221E+003  0.2076703E+02  0.7546771E-02  0.1730491E+00
         21   -1    0    0  504  501  0.00000000000E+00  0.00000000000E+00  0.55232217485E+03  0.55232217485E+03  0.00000000000E+00 0. -1.
         21   -1    0    0  501  502 -0.00000000000E+00 -0.00000000000E+00 -0.17955273300E+01  0.17955273300E+01  0.00000000000E+00 0. -1.
         21    1    1    2  503  502 -0.20092169900E+02  0.52511339179E+01  0.66984897513E+02  0.70130208851E+02  0.00000000000E+00 0.  1.
         21    1    1    2  504  503  0.20092169900E+02 -0.52511339179E+01  0.48354175001E+03  0.48398749333E+03  0.00000000000E+00 0.  1.
<mgrwt>
<rscale>  2 0.20767034E+02</rscale>
<asrwt>0</asrwt>
<pdfrwt beam="1">  1       21 0.84972507E-01 0.20767034E+02</pdfrwt>
<pdfrwt beam="2">  1       21 0.27623541E-03 0.20767034E+02</pdfrwt>
<totfact> 0.25619793E+07</totfact>
</mgrwt>
</event>
<event>
 4    1  0.9138221E+003  0.4507844E+02  0.7546771E-02  0.1473853E+00
         21   -1    0    0  503  501  0.00000000000E+00  0.00000000000E+00  0.10251548049E+03  0.10251548049E+03  0.00000000000E+00 0.  1.
         21   -1    0    0  501  502 -0.00000000000E+00 -0.00000000000E+00 -0.23930730591E+02  0.23930730591E+02  0.00000000000E+00 0.  1.
         21    1    1    2  503  504  0.31891850771E+02 -0.31858680176E+02  0.13095485772E+02  0.46942064247E+02  0.00000000000E+00 0.  1.
         21    1    1    2  504  502 -0.31891850771E+02  0.31858680176E+02  0.65489264126E+02  0.79504146834E+02  0.00000000000E+00 0.  1.
<mgrwt>
<rscale>  2 0.45078439E+02</rscale>
<asrwt>0</asrwt>
<pdfrwt beam="1">  1       21 0.15771612E-01 0.45078439E+02</pdfrwt>
<pdfrwt beam="2">  1       21 0.36816509E-02 0.45078439E+02</pdfrwt>
<totfact> 0.14066913E+07</totfact>
</mgrwt>
</event>
<event>
 4    1  0.9138221E+003  0.3103189E+02  0.7546771E-02  0.1586955E+00
         21   -1    0    0  502  501  0.00000000000E+00  0.00000000000E+00  0.20917460795E+03  0.20917460795E+03  0.00000000000E+00 0.  1.
         21   -1    0    0  504  502 -0.00000000000E+00 -0.00000000000E+00 -0.73720304477E+01  0.73720304477E+01  0.00000000000E+00 0.  1.
         21    1    1    2  503  501  0.30947345748E+02  0.22890496412E+01  0.16725061998E+03  0.17010510821E+03  0.00000000000E+00 0. -1.
         21    1    1    2  504  503 -0.30947345748E+02 -0.22890496412E+01  0.34551957523E+02  0.46441530183E+02  0.00000000000E+00 0. -1.
<mgrwt>
<rscale>  2 0.31031886E+02</rscale>
<asrwt>0</asrwt>
<pdfrwt beam="1">  1       21 0.32180704E-01 0.31031886E+02</pdfrwt>
<pdfrwt beam="2">  1       21 0.11341587E-02 0.31031886E+02</pdfrwt>
<totfact> 0.23105037E+07</totfact>
</mgrwt>
</event>
<event>
 4    1  0.9138221E+003  0.2793424E+02  0.7546771E-02  0.1622114E+00
         21   -1    0    0  503  501  0.00000000000E+00  0.00000000000E+00  0.11507711527E+02  0.11507711527E+02  0.00000000000E+00 0. -1.
         21   -1    0    0  501  502 -0.00000000000E+00 -0.00000000000E+00 -0.96322682586E+02  0.96322682586E+02  0.00000000000E+00 0. -1.
         21    1    1    2  503  504  0.27876760393E+02  0.17910906947E+01 -0.13073124347E+02  0.30841990145E+02  0.00000000000E+00 0.  1.
         21    1    1    2  504  502 -0.27876760393E+02 -0.17910906947E+01 -0.71741846712E+02  0.76988403968E+02  0.00000000000E+00 0.  1.
<mgrwt>
<rscale>  2 0.27934240E+02</rscale>
<asrwt>0</asrwt>
<pdfrwt beam="1">  1       21 0.17704172E-02 0.27934240E+02</pdfrwt>
<pdfrwt beam="2">  1       21 0.14818874E-01 0.27934240E+02</pdfrwt>
<totfact> 0.45490752E+07</totfact>
</mgrwt>
</event>
<event>
 4    1  0.9138221E+003  0.2715259E+02  0.7546771E-02  0.1631879E+00
         21   -1    0    0  503  501  0.00000000000E+00  0.00000000000E+00  0.93195484615E+00  0.93195484615E+00  0.00000000000E+00 0. -1.
         21   -1    0    0  501  502 -0.00000000000E+00 -0.00000000000E+00 -0.93079094810E+03  0.93079094810E+03  0.00000000000E+00 0. -1.
         21    1    1    2  503  504  0.70080610306E+01 -0.26232617559E+02 -0.64540796615E+03  0.64597887420E+03  0.00000000000E+00 0. -1.
         21    1    1    2  504  502 -0.70080610306E+01  0.26232617559E+02 -0.28445102710E+03  0.28574402874E+03  0.00000000000E+00 0. -1.
<mgrwt>
<rscale>  2 0.27152590E+02</rscale>
<asrwt>0</asrwt>
<pdfrwt beam="1">  1       21 0.14337708E-03 0.27152590E+02</pdfrwt>
<pdfrwt beam="2">  1       21 0.14319919E+00 0.27152590E+02</pdfrwt>
<totfact> 0.21647437E+07</totfact>
</mgrwt>
</event>
<event>
 4    1  0.9138221E+003  0.2601001E+02  0.7546771E-02  0.1646905E+00
         21   -1    0    0  503  501  0.00000000000E+00  0.00000000000E+00  0.38638570867E+01  0.38638570867E+01  0.00000000000E+00 0. -1.
         21   -1    0    0  501  502 -0.00000000000E+00 -0.00000000000E+00 -0.22618872354E+03  0.22618872354E+03  0.00000000000E+00 0. -1.
         21    1    1    2  503  504  0.23350306879E+02 -0.11457918072E+02 -0.16583492722E+03  0.16786227629E+03  0.00000000000E+00 0. -1.
         21    1    1    2  504  502 -0.23350306879E+02  0.11457918072E+02 -0.56489939234E+02  0.62190304329E+02  0.00000000000E+00 0. -1.
<mgrwt>
<rscale>  2 0.26010012E+02</rscale>
<asrwt>0</asrwt>
<pdfrwt beam="1">  1       21 0.59443950E-03 0.26010012E+02</pdfrwt>
<pdfrwt beam="2">  1       21 0.34798268E-01 0.26010012E+02</pdfrwt>
<totfact> 0.50955965E+07</totfact>
</mgrwt>
</event>
<event>
 4    1  0.9138221E+003  0.2234587E+02  0.7546771E-02  0.1702338E+00
         21   -1    0    0  504  501  0.00000000000E+00  0.00000000000E+00  0.13186994547E+03  0.13186994547E+03  0.00000000000E+00 0. -1.
         21   -1    0    0  501  502 -0.00000000000E+00 -0.00000000000E+00 -0.43891237389E+01  0.43891237389E+01  0.00000000000E+00 0. -1.
         21    1    1    2  503  502  0.94732535218E+01  0.20238459029E+02  0.38497684029E+02  0.44513025417E+02  0.00000000000E+00 0.  1.
         21    1    1    2  504  503 -0.94732535218E+01 -0.20238459029E+02  0.88983137701E+02  0.91746043791E+02  0.00000000000E+00 0.  1.
<mgrwt>
<rscale>  2 0.22345867E+02</rscale>
<asrwt>0</asrwt>
<pdfrwt beam="1">  1       21 0.20287681E-01 0.22345867E+02</pdfrwt>
<pdfrwt beam="2">  1       21 0.67524991E-03 0.22345867E+02</pdfrwt>
<totfact> 0.10714652E+08</totfact>
</mgrwt>
</event>
<event>
 4    1  0.9138221E+003  0.2375758E+02  0.7546771E-02  0.1679516E+00
         21   -1    0    0  504  501  0.00000000000E+00  0.00000000000E+00  0.14289996153E+03  0.14289996153E+03  0.00000000000E+00 0. -1.
         21   -1    0    0  501  502 -0.00000000000E+00 -0.00000000000E+00 -0.73658274619E+01  0.73658274619E+01  0.00000000000E+00 0. -1.
         21    1    1    2  503  502  0.75935035931E+01 -0.22511361651E+02  0.11893308433E+03  0.12128273269E+03  0.00000000000E+00 0.  1.
         21    1    1    2  504  503 -0.75935035931E+01  0.22511361651E+02  0.16601049734E+02  0.28983056300E+02  0.00000000000E+00 0.  1.
<mgrwt>
<rscale>  2 0.23757582E+02</rscale>
<asrwt>0</asrwt>
<pdfrwt beam="1">  1       21 0.21984607E-01 0.23757582E+02</pdfrwt>
<pdfrwt beam="2">  1       21 0.11332043E-02 0.23757582E+02</pdfrwt>
<totfact> 0.43578203E+07</totfact>
</mgrwt>
</event>
<event>
 4    1  0.9138221E+003  0.2127658E+02  0.7546771E-02  0.1721072E+00
         21   -1    0    0  503  501  0.00000000000E+00  0.00000000000E+00  0.49058171515E+00  0.49058171515E+00  0.00000000000E+00 0. -1.
         21   -1    0    0  501  502 -0.00000000000E+00 -0.00000000000E+00 -0.14576660444E+04  0.14576660444E+04  0.00000000000E+00 0. -1.
         21    1    1    2  503  504  0.18879454981E+02 -0.98111775520E+01 -0.11702402739E+04  0.11704336768E+04  0.00000000000E+00 0.  1.
         21    1    1    2  504  502 -0.18879454981E+02  0.98111775520E+01 -0.28693518879E+03  0.28772294936E+03  0.00000000000E+00 0.  1.
<mgrwt>
<rscale>  2 0.21276584E+02</rscale>
<asrwt>0</asrwt>
<pdfrwt beam="1">  1       21 0.75474732E-04 0.21276584E+02</pdfrwt>
<pdfrwt beam="2">  1       21 0.22425447E+00 0.21276584E+02</pdfrwt>
<totfact> 0.16989883E+07</totfact>
</mgrwt>
</event>
<event>
 4    1  0.9138221E+003  0.2699221E+02  0.7546771E-02  0.1633933E+00
         21   -1    0    0  502  501  0.00000000000E+00  0.00000000000E+00  0.15237919936E+03  0.15237919936E+03  0.00000000000E+00 0.  1.
         21   -1    0    0  504  502 -0.00000000000E+00 -0.00000000000E+00 -0.54306294599E+01  0.54306294599E+01  0.00000000000E+00 0.  1.
         21    1    1    2  503  501 -0.23848853874E+02  0.12641667189E+02  0.46191295445E+02  0.53499676217E+02  0.00000000000E+00 0.  1.
         21    1    1    2  504  503  0.23848853874E+02 -0.12641667189E+02  0.10075727446E+03  0.10431015261E+03  0.00000000000E+00 0.  1.
<mgrwt>
<rscale>  2 0.26992213E+02</rscale>
<asrwt>0</asrwt>
<pdfrwt beam="1">  1       21 0.23442951E-01 0.26992213E+02</pdfrwt>
<pdfrwt beam="2">  1       21 0.83548157E-03 0.26992213E+02</pdfrwt>
<totfact> 0.63412160E+07</totfact>
</mgrwt>
</event>
<event>
 4    1  0.9138221E+003  0.2972578E+02  0.7546771E-02  0.1601140E+00
         21   -1    0    0  504  501  0.00000000000E+00  0.00000000000E+00  0.12389521238E+02  0.12389521238E+02  0.00000000000E+00 0.  1.
         21   -1    0    0  501  502 -0.00000000000E+00 -0.00000000000E+00 -0.79860999526E+02  0.79860999526E+02  0.00000000000E+00 0.  1.
         21    1    1    2  503  502 -0.29554349755E+02  0.31878636443E+01 -0.18651517100E+02  0.35092750736E+02  0.00000000000E+00 0.  1.
         21    1    1    2  504  503  0.29554349755E+02 -0.31878636443E+01 -0.48819961189E+02  0.57157770028E+02  0.00000000000E+00 0.  1.
<mgrwt>
<rscale>  2 0.29725781E+02</rscale>
<asrwt>0</asrwt>
<pdfrwt beam="1">  1       21 0.19060803E-02 0.29725781E+02</pdfrwt>
<pdfrwt beam="2">  1       21 0.12286307E-01 0.29725781E+02</pdfrwt>
<totfact> 0.56672742E+07</totfact>
</mgrwt>
</event>
<event>
 4    1  0.9138221E+003  0.2702100E+02  0.7546771E-02  0.1633563E+00
         21   -1    0    0  503  501  0.00000000000E+00  0.00000000000E+00  0.18176982671E+03  0.18176982671E+03  0.00000000000E+00 0. -1.
         21   -1    0    0  501  502 -0.00000000000E+00 -0.00000000000E+00 -0.10403789528E+02  0.10403789528E+02  0.00000000000E+00 0. -1.
         21    1    1    2  503  504  0.24742048541E+02 -0.10861186891E+02  0.10396737356E+02  0.28952141447E+02  0.00000000000E+00 0. -1.
         21    1    1    2  504  502 -0.24742048541E+02  0.10861186891E+02  0.16096929983E+03  0.16322147479E+03  0.00000000000E+00 0. -1.
<mgrwt>
<rscale>  2 0.27020998E+02</rscale>
<asrwt>0</asrwt>
<pdfrwt beam="1">  1       21 0.27964586E-01 0.27020998E+02</pdfrwt>
<pdfrwt beam="2">  1       21 0.16005831E-02 0.27020998E+02</pdfrwt>
<totfact> 0.17224549E+07</totfact>
</mgrwt>
</event>
<event>
 4    1  0.9138221E+003  0.4341894E+02  0.7546771E-02  0.1484460E+00
         21   -1    0    0  502  501  0.00000000000E+00  0.00000000000E+00  0.12497499935E+02  0.12497499935E+02  0.00000000000E+00 0. -1.
         21   -1    0    0  504  502 -0.00000000000E+00 -0.00000000000E+00 -0.17358989851E+03  0.17358989851E+03  0.00000000000E+00 0. -1.
         21    1    1    2  503  501  0.24013776951E+02  0.36173790655E+02 -0.11422464579E+03  0.12219850375E+03  0.00000000000E+00 0.  1.
         21    1    1    2  504  503 -0.24013776951E+02 -0.36173790655E+02 -0.46867752791E+02  0.63888894697E+02  0.00000000000E+00 0.  1.
<mgrwt>
<rscale>  2 0.43418943E+02</rscale>
<asrwt>0</asrwt>
<pdfrwt beam="1">  1       21 0.19226924E-02 0.43418943E+02</pdfrwt>
<pdfrwt beam="2">  1       21 0.26706137E-01 0.43418943E+02</pdfrwt>
<totfact> 0.15234300E+07</totfact>
</mgrwt>
</event>
<event>
 4    1  0.9138221E+003  0.2097584E+02  0.7546771E-02  0.1726591E+00
         21   -1    0    0  502  501  0.00000000000E+00  0.00000000000E+00  0.25939082916E+02  0.25939082916E+02  0.00000000000E+00 0.  1.
         21   -1    0    0  503  502 -0.00000000000E+00 -0.00000000000E+00 -0.51190190412E+02  0.51190190412E+02  0.00000000000E+00 0.  1.
         21    1    1    2  503  504 -0.17220898883E+02  0.11976073648E+02 -0.44160067263E+02  0.48888620753E+02  0.00000000000E+00 0.  1.
         21    1    1    2  504  501  0.17220898883E+02 -0.11976073648E+02  0.18908959767E+02  0.28240652575E+02  0.00000000000E+00 0.  1.
<mgrwt>
<rscale>  2 0.20975836E+02</rscale>
<asrwt>0</asrwt>
<pdfrwt beam="1">  1       21 0.39906282E-02 0.20975836E+02</pdfrwt>
<pdfrwt beam="2">  1       21 0.78754138E-02 0.20975836E+02</pdfrwt>
<totfact> 0.34473916E+07</totfact>
</mgrwt>
</event>
<event>
 4    1  0.9138221E+003  0.3014114E+02  0.7546771E-02  0.1596534E+00
         21   -1    0    0  504  501  0.00000000000E+00  0.00000000000E+00  0.48373952353E+02  0.48373952353E+02  0.00000000000E+00 0. -1.
         21   -1    0    0  501  502 -0.00000000000E+00 -0.00000000000E+00 -0.30818780464E+02  0.30818780464E+02  0.00000000000E+00 0. -1.
         21    1    1    2  503  502 -0.43854784788E+01  0.29820397091E+02  0.33524969078E+02  0.45082280952E+02  0.00000000000E+00 0.  1.
         21    1    1    2  504  503  0.43854784788E+01 -0.29820397091E+02 -0.15969797188E+02  0.34110451865E+02  0.00000000000E+00 0.  1.
<mgrwt>
<rscale>  2 0.30141143E+02</rscale>
<asrwt>0</asrwt>
<pdfrwt beam="1">  1       21 0.74421465E-02 0.30141143E+02</pdfrwt>
<pdfrwt beam="2">  1       21 0.47413508E-02 0.30141143E+02</pdfrwt>
<totfact> 0.31258116E+07</totfact>
</mgrwt>
</event>
<event>
 4    1  0.9138221E+003  0.2559077E+02  0.7546771E-02  0.1652659E+00
         21   -1    0    0  502  501  0.00000000000E+00  0.00000000000E+00  0.14782309452E+02  0.14782309452E+02  0.00000000000E+00 0. -1.
         21   -1    0    0  503  502 -0.00000000000E+00 -0.00000000000E+00 -0.60729176291E+02  0.60729176291E+02  0.00000000000E+00 0. -1.
         21    1    1    2  503  504  0.24935016302E+02 -0.57561008352E+01 -0.33369317511E+01  0.25807418475E+02  0.00000000000E+00 0.  1.
         21    1    1    2  504  501 -0.24935016302E+02  0.57561008352E+01 -0.42609935088E+02  0.49704067269E+02  0.00000000000E+00 0.  1.
<mgrwt>
<rscale>  2 0.25590774E+02</rscale>
<asrwt>0</asrwt>
<pdfrwt beam="1">  1       21 0.22742015E-02 0.25590774E+02</pdfrwt>
<pdfrwt beam="2">  1       21 0.93429501E-02 0.25590774E+02</pdfrwt>
<totfact> 0.65808838E+07</totfact>
</mgrwt>
</event>
<event>
 4    1  0.9138221E+003  0.3053406E+02  0.7546771E-02  0.1592259E+00
         21   -1    0    0  503  501  0.00000000000E+00  0.00000000000E+00  0.17850138926E+02  0.17850138926E+02  0.00000000000E+00 0.  1.
         21   -1    0    0  501  502 -0.00000000000E+00 -0.00000000000E+00 -0.60407392034E+02  0.60407392034E+02  0.00000000000E+00 0.  1.
         21    1    1    2  503  504  0.46451971089E+01 -0.30178652221E+02 -0.68828702660E+01  0.31300204618E+02  0.00000000000E+00 0. -1.
         21    1    1    2  504  502 -0.46451971089E+01  0.30178652221E+02 -0.35674382842E+02  0.46957326342E+02  0.00000000000E+00 0. -1.
<mgrwt>
<rscale>  2 0.30534061E+02</rscale>
<asrwt>0</asrwt>
<pdfrwt beam="1">  1       21 0.27461753E-02 0.30534061E+02</pdfrwt>
<pdfrwt beam="2">  1       21 0.92934448E-02 0.30534061E+02</pdfrwt>
<totfact> 0.51601090E+07</totfact>
</mgrwt>
</event>
<event>
 4    1  0.9138221E+003  0.2326409E+02  0.7546771E-02  0.1687265E+00
         21   -1    0    0  503  501  0.00000000000E+00  0.00000000000E+00  0.59339989545E+02  0.59339989545E+02  0.00000000000E+00 0.  1.
         21   -1    0    0  501  502 -0.00000000000E+00 -0.00000000000E+00 -0.47811839273E+02  0.47811839273E+02  0.00000000000E+00 0.  1.
         21    1    1    2  503  504 -0.15324877268E+02 -0.17503319428E+02 -0.42431594827E+02  0.48390683957E+02  0.00000000000E+00 0. -1.
         21    1    1    2  504  502  0.15324877268E+02  0.17503319428E+02  0.53959745098E+02  0.58761144861E+02  0.00000000000E+00 0. -1.
<mgrwt>
<rscale>  2 0.23264094E+02</rscale>
<asrwt>0</asrwt>
<pdfrwt beam="1">  1       21 0.91292291E-02 0.23264094E+02</pdfrwt>
<pdfrwt beam="2">  1       21 0.73556676E-02 0.23264094E+02</pdfrwt>
<totfact> 0.10441846E+07</totfact>
</mgrwt>
</event>
<event>
 4    1  0.9138221E+003  0.2111379E+02  0.7546771E-02  0.1724045E+00
         21   -1    0    0  504  501  0.00000000000E+00  0.00000000000E+00  0.61572219689E+00  0.61572219689E+00  0.00000000000E+00 0.  1.
         21   -1    0    0  501  502 -0.00000000000E+00 -0.00000000000E+00 -0.11367335706E+04  0.11367335706E+04  0.00000000000E+00 0.  1.
         21    1    1    2  503  502  0.13597427774E+02  0.16152462582E+02 -0.91071745071E+03  0.91096216558E+03  0.00000000000E+00 0. -1.
         21    1    1    2  504  503 -0.13597427774E+02 -0.16152462582E+02 -0.22540039768E+03  0.22638712721E+03  0.00000000000E+00 0. -1.
<mgrwt>
<rscale>  2 0.21113789E+02</rscale>
<asrwt>0</asrwt>
<pdfrwt beam="1">  1       21 0.94726757E-04 0.21113789E+02</pdfrwt>
<pdfrwt beam="2">  1       21 0.17488160E+00 0.21113789E+02</pdfrwt>
<totfact> 0.23216373E+07</totfact>
</mgrwt>
</event>
<event>
 4    1  0.9138221E+003  0.2104727E+02  0.7546771E-02  0.1725270E+00
         21   -1    0    0  502  501  0.00000000000E+00  0.00000000000E+00  0.27070757799E+01  0.27070757799E+01  0.00000000000E+00 0.  1.
         21   -1    0    0  503  502 -0.00000000000E+00 -0.00000000000E+00 -0.41530259318E+03  0.41530259318E+03  0.00000000000E+00 0.  1.
         21    1    1    2  503  504 -0.10993692761E+02  0.17947876705E+02 -0.43599535832E+02  0.48413914152E+02  0.00000000000E+00 0.  1.
         21    1    1    2  504  501  0.10993692761E+02 -0.17947876705E+02 -0.36899598157E+03  0.36959575481E+03  0.00000000000E+00 0.  1.
<mgrwt>
<rscale>  2 0.21047270E+02</rscale>
<asrwt>0</asrwt>
<pdfrwt beam="1">  1       21 0.41647347E-03 0.21047270E+02</pdfrwt>
<pdfrwt beam="2">  1       21 0.63892665E-01 0.21047270E+02</pdfrwt>
<totfact> 0.25419129E+07</totfact>
</mgrwt>
</event>
<event>
 4    1  0.9138221E+003  0.2252732E+02  0.7546771E-02  0.1699289E+00
         21   -1    0    0  502  501  0.00000000000E+00  0.00000000000E+00  0.10207235308E+02  0.10207235308E+02  0.00000000000E+00 0.  1.
         21   -1    0    0  504  502 -0.00000000000E+00 -0.00000000000E+00 -0.13643185851E+03  0.13643185851E+03  0.00000000000E+00 0.  1.
         21    1    1    2  503  501  0.99782193651E+00  0.22505211747E+02 -0.12156532381E+03  0.12363497950E+03  0.00000000000E+00 0. -1.
         21    1    1    2  504  503 -0.99782193651E+00 -0.22505211747E+02 -0.46592993897E+01  0.23004114310E+02  0.00000000000E+00 0. -1.
<mgrwt>
<rscale>  2 0.22527321E+02</rscale>
<asrwt>0</asrwt>
<pdfrwt beam="1">  1       21 0.15703441E-02 0.22527321E+02</pdfrwt>
<pdfrwt beam="2">  1       21 0.20989514E-01 0.22527321E+02</pdfrwt>
<totfact> 0.28474996E+07</totfact>
</mgrwt>
</event>
<event>
 4    1  0.9138221E+003  0.2604503E+02  0.7546771E-02  0.1646430E+00
         21   -1    0    0  504  501  0.00000000000E+00  0.00000000000E+00  0.12871400805E+04  0.12871400805E+04  0.00000000000E+00 0.  1.
         21   -1    0    0  501  502 -0.00000000000E+00 -0.00000000000E+00 -0.55188447329E+00  0.55188447329E+00  0.00000000000E+00 0.  1.
         21    1    1    2  503  502 -0.18564098221E+02 -0.18267949543E+02  0.77996636067E+03  0.78040109399E+03  0.00000000000E+00 0.  1.
         21    1    1    2  504  503  0.18564098221E+02  0.18267949543E+02  0.50662183535E+03  0.50729087098E+03  0.00000000000E+00 0.  1.
<mgrwt>
<rscale>  2 0.26045033E+02</rscale>
<asrwt>0</asrwt>
<pdfrwt beam="1">  1       21 0.19801915E+00 0.26045033E+02</pdfrwt>
<pdfrwt beam="2">  1       21 0.84906334E-04 0.26045033E+02</pdfrwt>
<totfact> 0.20465476E+07</totfact>
</mgrwt>
</event>
<event>
 4    1  0.9138221E+003  0.2897426E+02  0.7546771E-02  0.1609712E+00
         21   -1    0    0  504  501  0.00000000000E+00  0.00000000000E+00  0.44542013031E+01  0.44542013031E+01  0.00000000000E+00 0. -1.
         21   -1    0    0  501  502 -0.00000000000E+00 -0.00000000000E+00 -0.19856584517E+03  0.19856584517E+03  0.00000000000E+00 0. -1.
         21    1    1    2  503  502 -0.27240643207E+02 -0.98719403693E+01 -0.11993864030E+03  0.12338875672E+03  0.00000000000E+00 0.  1.
         21    1    1    2  504  503  0.27240643207E+02  0.98719403693E+01 -0.74173003576E+02  0.79631289758E+02  0.00000000000E+00 0.  1.
<mgrwt>
<rscale>  2 0.28974262E+02</rscale>
<asrwt>0</asrwt>
<pdfrwt beam="1">  1       21 0.68526192E-03 0.28974262E+02</pdfrwt>
<pdfrwt beam="2">  1       21 0.30548583E-01 0.28974262E+02</pdfrwt>
<totfact> 0.53715878E+07</totfact>
</mgrwt>
</event>
<event>
 4    1  0.9138221E+003  0.2030264E+02  0.7546771E-02  0.1739376E+00
         21   -1    0    0  504  501  0.00000000000E+00  0.00000000000E+00  0.15041240291E+01  0.15041240291E+01  0.00000000000E+00 0. -1.
         21   -1    0    0  501  502 -0.00000000000E+00 -0.00000000000E+00 -0.34004644122E+03  0.34004644122E+03  0.00000000000E+00 0. -1.
         21    1    1    2  503  502  0.48202248278E+01  0.19722131781E+02 -0.94033726947E+02  0.96200513787E+02  0.00000000000E+00 0.  1.
         21    1    1    2  504  503 -0.48202248278E+01 -0.19722131781E+02 -0.24450859025E+03  0.24535005147E+03  0.00000000000E+00 0.  1.
<mgrwt>
<rscale>  2 0.20302637E+02</rscale>
<asrwt>0</asrwt>
<pdfrwt beam="1">  1       21 0.23140371E-03 0.20302637E+02</pdfrwt>
<pdfrwt beam="2">  1       21 0.52314834E-01 0.20302637E+02</pdfrwt>
<totfact> 0.87896740E+07</totfact>
</mgrwt>
</event>
<event>
 4    1  0.9138221E+003  0.2123735E+02  0.7546771E-02  0.1721785E+00
         21   -1    0    0  503  501  0.00000000000E+00  0.00000000000E+00  0.12686853967E+03  0.12686853967E+03  0.00000000000E+00 0.  1.
         21   -1    0    0  501  502 -0.00000000000E+00 -0.00000000000E+00 -0.70794042742E+01  0.70794042742E+01  0.00000000000E+00 0.  1.
         21    1    1    2  503  504 -0.71060761187E+01  0.20013210775E+02  0.10714948753E+03  0.10923386655E+03  0.00000000000E+00 0.  1.
         21    1    1    2  504  502  0.71060761187E+01 -0.20013210775E+02  0.12639647866E+02  0.24714077395E+02  0.00000000000E+00 0.  1.
<mgrwt>
<rscale>  2 0.21237347E+02</rscale>
<asrwt>0</asrwt>
<pdfrwt beam="1">  1       21 0.19518235E-01 0.21237347E+02</pdfrwt>
<pdfrwt beam="2">  1       21 0.10891392E-02 0.21237347E+02</pdfrwt>
<totfact> 0.55370608E+07</totfact>
</mgrwt>
</event>
<event>
 4    1  0.9138221E+003  0.2163285E+02  0.7546771E-02  0.1714680E+00
         21   -1    0    0  504  501  0.00000000000E+00  0.00000000000E+00  0.15943938131E+01  0.15943938131E+01  0.00000000000E+00 0.  1.
         21   -1    0    0  501  502 -0.00000000000E+00 -0.00000000000E+00 -0.37189530146E+03  0.37189530146E+03  0.00000000000E+00 0.  1.
         21    1    1    2  503  502 -0.63079219977E+01 -0.20692757981E+02 -0.27088166217E+03  0.27174409839E+03  0.00000000000E+00 0.  1.
         21    1    1    2  504  503  0.63079219977E+01  0.20692757981E+02 -0.99419245478E+02  0.10174559688E+03  0.00000000000E+00 0.  1.
<mgrwt>
<rscale>  2 0.21632848E+02</rscale>
<asrwt>0</asrwt>
<pdfrwt beam="1">  1       21 0.24529157E-03 0.21632848E+02</pdfrwt>
<pdfrwt beam="2">  1       21 0.57214611E-01 0.21632848E+02</pdfrwt>
<totfact> 0.68902147E+07</totfact>
</mgrwt>
</event>
<event>
 4    1  0.9138221E+003  0.3997277E+02  0.7546771E-02  0.1508412E+00
         21   -1    0    0  504  501  0.00000000000E+00  0.00000000000E+00  0.36839872946E+02  0.36839872946E+02  0.00000000000E+00 0.  1.
         21   -1    0    0  501  502 -0.00000000000E+00 -0.00000000000E+00 -0.66805396363E+02  0.66805396363E+02  0.00000000000E+00 0.  1.
         21    1    1    2  503  502 -0.39859688575E+02 -0.30046209328E+01  0.15709609506E+02  0.42948973807E+02  0.00000000000E+00 0.  1.
         21    1    1    2  504  503  0.39859688575E+02  0.30046209328E+01 -0.45675132922E+02  0.60696295502E+02  0.00000000000E+00 0.  1.
<mgrwt>
<rscale>  2 0.39972772E+02</rscale>
<asrwt>0</asrwt>
<pdfrwt beam="1">  1       21 0.56676728E-02 0.39972772E+02</pdfrwt>
<pdfrwt beam="2">  1       21 0.10277753E-01 0.39972772E+02</pdfrwt>
<totfact> 0.14365023E+07</totfact>
</mgrwt>
</event>
<event>
 4    1  0.9138221E+003  0.2083350E+02  0.7546771E-02  0.1729244E+00
         21   -1    0    0  502  501  0.00000000000E+00  0.00000000000E+00  0.71413210015E+02  0.71413210015E+02  0.00000000000E+00 0.  1.
         21   -1    0    0  503  502 -0.00000000000E+00 -0.00000000000E+00 -0.94253475176E+01  0.94253475176E+01  0.00000000000E+00 0.  1.
         21    1    1    2  503  504  0.90899985792E+01  0.18745839636E+02  0.69057604823E+01  0.21948214180E+02  0.00000000000E+00 0. -1.
         21    1    1    2  504  501 -0.90899985792E+01 -0.18745839636E+02  0.55082102015E+02  0.58890343353E+02  0.00000000000E+00 0. -1.
<mgrwt>
<rscale>  2 0.20833497E+02</rscale>
<asrwt>0</asrwt>
<pdfrwt beam="1">  1       21 0.10986647E-01 0.20833497E+02</pdfrwt>
<pdfrwt beam="2">  1       21 0.14500535E-02 0.20833497E+02</pdfrwt>
<totfact> 0.94715884E+07</totfact>
</mgrwt>
</event>
<event>
 4    1  0.9138221E+003  0.2459601E+02  0.7546771E-02  0.1666873E+00
         21   -1    0    0  503  501  0.00000000000E+00  0.00000000000E+00  0.16512613898E+04  0.16512613898E+04  0.00000000000E+00 0. -1.
         21   -1    0    0  501  502 -0.00000000000E+00 -0.00000000000E+00 -0.50547309046E+00  0.50547309046E+00  0.00000000000E+00 0. -1.
         21    1    1    2  503  504 -0.78782609907E+01 -0.23300147187E+02  0.12586357914E+04  0.12588760936E+04  0.00000000000E+00 0. -1.
         21    1    1    2  504  502  0.78782609907E+01  0.23300147187E+02  0.39212012534E+03  0.39289076924E+03  0.00000000000E+00 0. -1.
<mgrwt>
<rscale>  2 0.24596013E+02</rscale>
<asrwt>0</asrwt>
<pdfrwt beam="1">  1       21 0.25403590E+00 0.24596013E+02</pdfrwt>
<pdfrwt beam="2">  1       21 0.77766413E-04 0.24596013E+02</pdfrwt>
<totfact> 0.11674898E+07</totfact>
</mgrwt>
</event>
<event>
 4    1  0.9138221E+003  0.2310849E+02  0.7546771E-02  0.1689758E+00
         21   -1    0    0  502  501  0.00000000000E+00  0.00000000000E+00  0.61128576731E+02  0.61128576731E+02  0.00000000000E+00 0. -1.
         21   -1    0    0  504  502 -0.00000000000E+00 -0.00000000000E+00 -0.11214709673E+02  0.11214709673E+02  0.00000000000E+00 0. -1.
         21    1    1    2  503  501 -0.77079935306E+01  0.21785062683E+02  0.79505646958E+01  0.24437954075E+02  0.00000000000E+00 0.  1.
         21    1    1    2  504  503  0.77079935306E+01 -0.21785062683E+02  0.41963302362E+02  0.47905332329E+02  0.00000000000E+00 0.  1.
<mgrwt>
<rscale>  2 0.23108486E+02</rscale>
<asrwt>0</asrwt>
<pdfrwt beam="1">  1       21 0.94043962E-02 0.23108486E+02</pdfrwt>
<pdfrwt beam="2">  1       21 0.17253400E-02 0.23108486E+02</pdfrwt>
<totfact> 0.96863988E+07</totfact>
</mgrwt>
</event>
<event>
 4    1  0.9138221E+003  0.2216262E+02  0.7546771E-02  0.1705455E+00
         21   -1    0    0  504  501  0.00000000000E+00  0.00000000000E+00  0.36253676067E+02  0.36253676067E+02  0.00000000000E+00 0. -1.
         21   -1    0    0  501  502 -0.00000000000E+00 -0.00000000000E+00 -0.22156975123E+02  0.22156975123E+02  0.00000000000E+00 0. -1.
         21    1    1    2  503  502 -0.93893730604E+01 -0.20075394839E+02  0.25252513450E+02  0.33598679140E+02  0.00000000000E+00 0.  1.
         21    1    1    2  504  503  0.93893730604E+01  0.20075394839E+02 -0.11155812506E+02  0.24811972051E+02  0.00000000000E+00 0.  1.
<mgrwt>
<rscale>  2 0.22162622E+02</rscale>
<asrwt>0</asrwt>
<pdfrwt beam="1">  1       21 0.55774886E-02 0.22162622E+02</pdfrwt>
<pdfrwt beam="2">  1       21 0.34087654E-02 0.22162622E+02</pdfrwt>
<totfact> 0.78049067E+07</totfact>
</mgrwt>
</event>
<event>
 4    1  0.9138221E+003  0.2221135E+02  0.7546771E-02  0.1704622E+00
         21   -1    0    0  503  501  0.00000000000E+00  0.00000000000E+00  0.35341320519E+03  0.35341320519E+03  0.00000000000E+00 0. -1.
         21   -1    0    0  501  502 -0.00000000000E+00 -0.00000000000E+00 -0.16767850690E+01  0.16767850690E+01  0.00000000000E+00 0. -1.
         21    1    1    2  503  504 -0.20424279113E+02 -0.87288657838E+01  0.10320715083E+03  0.10557016746E+03  0.00000000000E+00 0. -1.
         21    1    1    2  504  502  0.20424279113E+02  0.87288657838E+01  0.24852926929E+03  0.24951982280E+03  0.00000000000E+00 0. -1.
<mgrwt>
<rscale>  2 0.22211355E+02</rscale>
<asrwt>0</asrwt>
<pdfrwt beam="1">  1       21 0.54371203E-01 0.22211355E+02</pdfrwt>
<pdfrwt beam="2">  1       21 0.25796721E-03 0.22211355E+02</pdfrwt>
<totfact> 0.71290457E+07</totfact>
</mgrwt>
</event>
<event>
 4    1  0.9138221E+003  0.2028305E+02  0.7546771E-02  0.1739757E+00
         21   -1    0    0  502  501  0.00000000000E+00  0.00000000000E+00  0.10850742765E+02  0.10850742765E+02  0.00000000000E+00 0. -1.
         21   -1    0    0  504  502 -0.00000000000E+00 -0.00000000000E+00 -0.63736465412E+02  0.63736465412E+02  0.00000000000E+00 0. -1.
         21    1    1    2  503  501 -0.13690639361E+02  0.14965582202E+02 -0.27054342269E+01  0.20462688756E+02  0.00000000000E+00 0.  1.
         21    1    1    2  504  503  0.13690639361E+02 -0.14965582202E+02 -0.50180288420E+02  0.54124519422E+02  0.00000000000E+00 0.  1.
<mgrwt>
<rscale>  2 0.20283053E+02</rscale>
<asrwt>0</asrwt>
<pdfrwt beam="1">  1       21 0.16693450E-02 0.20283053E+02</pdfrwt>
<pdfrwt beam="2">  1       21 0.98056102E-02 0.20283053E+02</pdfrwt>
<totfact> 0.91598146E+07</totfact>
</mgrwt>
</event>
<event>
 4    1  0.9138221E+003  0.2235156E+02  0.7546771E-02  0.1702242E+00
         21   -1    0    0  503  501  0.00000000000E+00  0.00000000000E+00  0.17797828514E+03  0.17797828514E+03  0.00000000000E+00 0.  1.
         21   -1    0    0  501  502 -0.00000000000E+00 -0.00000000000E+00 -0.30353904491E+01  0.30353904491E+01  0.00000000000E+00 0.  1.
         21    1    1    2  503  504  0.14613618214E+02  0.16912552163E+02  0.62647287975E+02  0.66515223436E+02  0.00000000000E+00 0.  1.
         21    1    1    2  504  502 -0.14613618214E+02 -0.16912552163E+02  0.11229560672E+03  0.11449845216E+03  0.00000000000E+00 0.  1.
<mgrwt>
<rscale>  2 0.22351561E+02</rscale>
<asrwt>0</asrwt>
<pdfrwt beam="1">  1       21 0.27381266E-01 0.22351561E+02</pdfrwt>
<pdfrwt beam="2">  1       21 0.46698329E-03 0.22351561E+02</pdfrwt>
<totfact> 0.10867405E+08</totfact>
</mgrwt>
</event>
<event>
 4    1  0.9138221E+003  0.4424623E+02  0.7546771E-02  0.1479103E+00
         21   -1    0    0  502  501  0.00000000000E+00  0.00000000000E+00  0.19633368078E+02  0.19633368078E+02  0.00000000000E+00 0. -1.
         21   -1    0    0  503  502 -0.00000000000E+00 -0.00000000000E+00 -0.37893638460E+03  0.37893638460E+03  0.00000000000E+00 0. -1.
         21    1    1    2  503  504  0.22724996751E+02  0.37964506817E+02 -0.85846012869E+01  0.45071328297E+02  0.00000000000E+00 0.  1.
         21    1    1    2  504  501 -0.22724996751E+02 -0.37964506817E+02 -0.35071841524E+03  0.35349842438E+03  0.00000000000E+00 0.  1.
<mgrwt>
<rscale>  2 0.44246234E+02</rscale>
<asrwt>0</asrwt>
<pdfrwt beam="1">  1       21 0.30205184E-02 0.44246234E+02</pdfrwt>
<pdfrwt beam="2">  1       21 0.58297901E-01 0.44246234E+02</pdfrwt>
<totfact> 0.16533480E+06</totfact>
</mgrwt>
</event>
<event>
 4    1  0.9138221E+003  0.3186035E+02  0.7546771E-02  0.1578391E+00
         21   -1    0    0  502  501  0.00000000000E+00  0.00000000000E+00  0.13319690399E+03  0.13319690399E+03  0.00000000000E+00 0. -1.
         21   -1    0    0  503  502 -0.00000000000E+00 -0.00000000000E+00 -0.92542096811E+01  0.92542096811E+01  0.00000000000E+00 0. -1.
         21    1    1    2  503  504  0.46364411803E+01 -0.31521184578E+02  0.32048764331E+02  0.45190761878E+02  0.00000000000E+00 0.  1.
         21    1    1    2  504  501 -0.46364411803E+01  0.31521184578E+02  0.91893929980E+02  0.97260351795E+02  0.00000000000E+00 0.  1.
<mgrwt>
<rscale>  2 0.31860346E+02</rscale>
<asrwt>0</asrwt>
<pdfrwt beam="1">  1       21 0.20491830E-01 0.31860346E+02</pdfrwt>
<pdfrwt beam="2">  1       21 0.14237247E-02 0.31860346E+02</pdfrwt>
<totfact> 0.37164990E+07</totfact>
</mgrwt>
</event>
<event>
 4    1  0.9138221E+003  0.2203037E+02  0.7546771E-02  0.1707727E+00
         21   -1    0    0  502  501  0.00000000000E+00  0.00000000000E+00  0.46166999818E+03  0.46166999818E+03  0.00000000000E+00 0.  1.
         21   -1    0    0  503  502 -0.00000000000E+00 -0.00000000000E+00 -0.19739054782E+01  0.19739054782E+01  0.00000000000E+00 0.  1.
         21    1    1    2  503  504  0.15302472749E+02 -0.15848385783E+02  0.38834024574E+03  0.38896463010E+03  0.00000000000E+00 0. -1.
         21    1    1    2  504  501 -0.15302472749E+02  0.15848385783E+02  0.71355846959E+02  0.74679273560E+02  0.00000000000E+00 0. -1.
<mgrwt>
<rscale>  2 0.22030366E+02</rscale>
<asrwt>0</asrwt>
<pdfrwt beam="1">  1       21 0.71026068E-01 0.22030366E+02</pdfrwt>
<pdfrwt beam="2">  1       21 0.30367813E-03 0.22030366E+02</pdfrwt>
<totfact> 0.32833404E+07</totfact>
</mgrwt>
</event>
<event>
 4    1  0.9138221E+003  0.3181470E+02  0.7546771E-02  0.1578854E+00
         21   -1    0    0  502  501  0.00000000000E+00  0.00000000000E+00  0.26319581496E+01  0.26319581496E+01  0.00000000000E+00 0.  1.
         21   -1    0    0  503  502 -0.00000000000E+00 -0.00000000000E+00 -0.50807053207E+03  0.50807053207E+03  0.00000000000E+00 0.  1.
         21    1    1    2  503  504  0.30953808612E+02 -0.73509780740E+01 -0.12682431477E+03  0.13075389846E+03  0.00000000000E+00 0.  1.
         21    1    1    2  504  501 -0.30953808612E+02  0.73509780740E+01 -0.37861425915E+03  0.37994859175E+03  0.00000000000E+00 0.  1.
<mgrwt>
<rscale>  2 0.31814700E+02</rscale>
<asrwt>0</asrwt>
<pdfrwt beam="1">  1       21 0.40491690E-03 0.31814700E+02</pdfrwt>
<pdfrwt beam="2">  1       21 0.78164647E-01 0.31814700E+02</pdfrwt>
<totfact> 0.18871868E+07</totfact>
</mgrwt>
</event>
<event>
 4    1  0.9138221E+003  0.2096681E+02  0.7546771E-02  0.1726758E+00
         21   -1    0    0  504  501  0.00000000000E+00  0.00000000000E+00  0.62509776666E+01  0.62509776666E+01  0.00000000000E+00 0.  1.
         21   -1    0    0  501  502 -0.00000000000E+00 -0.00000000000E+00 -0.88175794817E+02  0.88175794817E+02  0.00000000000E+00 0.  1.
         21    1    1    2  503  502  0.16951143270E+02 -0.12339602615E+02 -0.19719913584E+02  0.28783363991E+02  0.00000000000E+00 0. -1.
         21    1    1    2  504  503 -0.16951143270E+02  0.12339602615E+02 -0.62204903567E+02  0.65643408493E+02  0.00000000000E+00 0. -1.
<mgrwt>
<rscale>  2 0.20966808E+02</rscale>
<asrwt>0</asrwt>
<pdfrwt beam="1">  1       21 0.96168896E-03 0.20966808E+02</pdfrwt>
<pdfrwt beam="2">  1       21 0.13565506E-01 0.20966808E+02</pdfrwt>
<totfact> 0.12375266E+08</totfact>
</mgrwt>
</event>
<event>
 4    1  0.9138221E+003  0.2821220E+02  0.7546771E-02  0.1618735E+00
         21   -1    0    0  503  501  0.00000000000E+00  0.00000000000E+00  0.70852690721E+03  0.70852690721E+03  0.00000000000E+00 0. -1.
         21   -1    0    0  501  502 -0.00000000000E+00 -0.00000000000E+00 -0.14368410407E+01  0.14368410407E+01  0.00000000000E+00 0. -1.
         21    1    1    2  503  504 -0.15510301225E+02  0.23566047373E+02  0.18773525127E+03  0.18984323165E+03  0.00000000000E+00 0.  1.
         21    1    1    2  504  502  0.15510301225E+02 -0.23566047373E+02  0.51935481490E+03  0.52012051660E+03  0.00000000000E+00 0.  1.
<mgrwt>
<rscale>  2 0.28212197E+02</rscale>
<asrwt>0</asrwt>
<pdfrwt beam="1">  1       21 0.10900386E+00 0.28212197E+02</pdfrwt>
<pdfrwt beam="2">  1       21 0.22105303E-03 0.28212197E+02</pdfrwt>
<totfact> 0.21817669E+07</totfact>
</mgrwt>
</event>
<event>
 4    1  0.9138221E+003  0.4297937E+02  0.7546771E-02  0.1487365E+00
         21   -1    0    0  502  501  0.00000000000E+00  0.00000000000E+00  0.22982737994E+02  0.22982737994E+02  0.00000000000E+00 0. -1.
         21   -1    0    0  504  502 -0.00000000000E+00 -0.00000000000E+00 -0.97566178406E+02  0.97566178406E+02  0.00000000000E+00 0. -1.
         21    1    1    2  503  501  0.10600199938E+01 -0.42966294520E+02 -0.11990422915E+02  0.44620582121E+02  0.00000000000E+00 0. -1.
         21    1    1    2  504  503 -0.10600199938E+01  0.42966294520E+02 -0.62593017496E+02  0.75928334279E+02  0.00000000000E+00 0. -1.
<mgrwt>
<rscale>  2 0.42979368E+02</rscale>
<asrwt>0</asrwt>
<pdfrwt beam="1">  1       21 0.35358059E-02 0.42979368E+02</pdfrwt>
<pdfrwt beam="2">  1       21 0.15010181E-01 0.42979368E+02</pdfrwt>
<totfact> 0.16260225E+07</totfact>
</mgrwt>
</event>
<event>
 4    1  0.9138221E+003  0.3371911E+02  0.7546771E-02  0.1560278E+00
         21   -1    0    0  504  501  0.00000000000E+00  0.00000000000E+00  0.43022864088E+00  0.43022864088E+00  0.00000000000E+00 0. -1.
         21   -1    0    0  501  502 -0.00000000000E+00 -0.00000000000E+00 -0.26925329358E+04  0.26925329358E+04  0.00000000000E+00 0. -1.
         21    1    1    2  503  502 -0.33699605630E+02  0.11468523784E+01 -0.15291738769E+04  0.15295455941E+04  0.00000000000E+00 0. -1.
         21    1    1    2  504  503  0.33699605630E+02 -0.11468523784E+01 -0.11629288303E+04  0.11634175703E+04  0.00000000000E+00 0. -1.
<mgrwt>
<rscale>  2 0.33719115E+02</rscale>
<asrwt>0</asrwt>
<pdfrwt beam="1">  1       21 0.66189281E-04 0.33719115E+02</pdfrwt>
<pdfrwt beam="2">  1       21 0.41423421E+00 0.33719115E+02</pdfrwt>
<totfact> 0.21744452E+06</totfact>
</mgrwt>
</event>
<event>
 4    1  0.9138221E+003  0.2634957E+02  0.7546771E-02  0.1642341E+00
         21   -1    0    0  502  501  0.00000000000E+00  0.00000000000E+00  0.23274373638E+02  0.23274373638E+02  0.00000000000E+00 0. -1.
         21   -1    0    0  504  502 -0.00000000000E+00 -0.00000000000E+00 -0.35406052080E+02  0.35406052080E+02  0.00000000000E+00 0. -1.
         21    1    1    2  503  501 -0.25181213722E+02 -0.77592567063E+01  0.55766553875E+01  0.26933226217E+02  0.00000000000E+00 0. -1.
         21    1    1    2  504  503  0.25181213722E+02  0.77592567063E+01 -0.17708333830E+02  0.31747199501E+02  0.00000000000E+00 0. -1.
<mgrwt>
<rscale>  2 0.26349565E+02</rscale>
<asrwt>0</asrwt>
<pdfrwt beam="1">  1       21 0.35806729E-02 0.26349565E+02</pdfrwt>
<pdfrwt beam="2">  1       21 0.54470849E-02 0.26349565E+02</pdfrwt>
<totfact> 0.78609898E+07</totfact>
</mgrwt>
</event>
<event>
 4    1  0.9138221E+003  0.2497971E+02  0.7546771E-02  0.1661294E+00
         21   -1    0    0  503  501  0.00000000000E+00  0.00000000000E+00  0.10905418182E+01  0.10905418182E+01  0.00000000000E+00 0. -1.
         21   -1    0    0  501  502 -0.00000000000E+00 -0.00000000000E+00 -0.95150188265E+03  0.95150188265E+03  0.00000000000E+00 0. -1.
         21    1    1    2  503  504  0.16857998847E+02  0.18433493742E+02 -0.77593546728E+03  0.77633744931E+03  0.00000000000E+00 0.  1.
         21    1    1    2  504  502 -0.16857998847E+02 -0.18433493742E+02 -0.17447587354E+03  0.17625497515E+03  0.00000000000E+00 0.  1.
<mgrwt>
<rscale>  2 0.24979708E+02</rscale>
<asrwt>0</asrwt>
<pdfrwt beam="1">  1       21 0.16777616E-03 0.24979708E+02</pdfrwt>
<pdfrwt beam="2">  1       21 0.14638447E+00 0.24979708E+02</pdfrwt>
<totfact> 0.16171105E+07</totfact>
</mgrwt>
</event>
<event>
 4    1  0.9138221E+003  0.3062870E+02  0.7546771E-02  0.1591241E+00
         21   -1    0    0  504  501  0.00000000000E+00  0.00000000000E+00  0.44032551754E+02  0.44032551754E+02  0.00000000000E+00 0.  1.
         21   -1    0    0  501  502 -0.00000000000E+00 -0.00000000000E+00 -0.30550850170E+02  0.30550850170E+02  0.00000000000E+00 0.  1.
         21    1    1    2  503  502 -0.10047816582E+02 -0.28933698539E+02  0.27255865256E+02  0.40999996586E+02  0.00000000000E+00 0.  1.
         21    1    1    2  504  503  0.10047816582E+02  0.28933698539E+02 -0.13774163672E+02  0.33583405338E+02  0.00000000000E+00 0.  1.
<mgrwt>
<rscale>  2 0.30628704E+02</rscale>
<asrwt>0</asrwt>
<pdfrwt beam="1">  1       21 0.67742387E-02 0.30628704E+02</pdfrwt>
<pdfrwt beam="2">  1       21 0.47001308E-02 0.30628704E+02</pdfrwt>
<totfact> 0.37099402E+07</totfact>
</mgrwt>
</event>
<event>
 4    1  0.9138221E+003  0.2041040E+02  0.7546771E-02  0.1737288E+00
         21   -1    0    0  502  501  0.00000000000E+00  0.00000000000E+00  0.24637857037E+01  0.24637857037E+01  0.00000000000E+00 0.  1.
         21   -1    0    0  504  502 -0.00000000000E+00 -0.00000000000E+00 -0.23365882196E+03  0.23365882196E+03  0.00000000000E+00 0.  1.
         21    1    1    2  503  501 -0.19739404205E+02 -0.51904203605E+01 -0.17766313771E+03  0.17883169474E+03  0.00000000000E+00 0. -1.
         21    1    1    2  504  503  0.19739404205E+02  0.51904203605E+01 -0.53531898543E+02  0.57290912923E+02  0.00000000000E+00 0. -1.
<mgrwt>
<rscale>  2 0.20410403E+02</rscale>
<asrwt>0</asrwt>
<pdfrwt beam="1">  1       21 0.37904376E-03 0.20410403E+02</pdfrwt>
<pdfrwt beam="2">  1       21 0.35947529E-01 0.20410403E+02</pdfrwt>
<totfact> 0.87616259E+07</totfact>
</mgrwt>
</event>
<event>
 4    1  0.9138221E+003  0.2246553E+02  0.7546771E-02  0.1700323E+00
         21   -1    0    0  503  501  0.00000000000E+00  0.00000000000E+00  0.45803451467E+02  0.45803451467E+02  0.00000000000E+00 0. -1.
         21   -1    0    0  501  502 -0.00000000000E+00 -0.00000000000E+00 -0.22923920539E+02  0.22923920539E+02  0.00000000000E+00 0. -1.
         21    1    1    2  503  504  0.19667545785E+02  0.10857616996E+02 -0.13324288523E+02  0.26119664407E+02  0.00000000000E+00 0. -1.
         21    1    1    2  504  502 -0.19667545785E+02 -0.10857616996E+02  0.36203819451E+02  0.42607707599E+02  0.00000000000E+00 0. -1.
<mgrwt>
<rscale>  2 0.22465534E+02</rscale>
<asrwt>0</asrwt>
<pdfrwt beam="1">  1       21 0.70466849E-02 0.22465534E+02</pdfrwt>
<pdfrwt beam="2">  1       21 0.35267570E-02 0.22465534E+02</pdfrwt>
<totfact> 0.50998196E+07</totfact>
</mgrwt>
</event>
<event>
 4    1  0.9138221E+003  0.2410435E+02  0.7546771E-02  0.1674210E+00
         21   -1    0    0  502  501  0.00000000000E+00  0.00000000000E+00  0.18430200458E+02  0.18430200458E+02  0.00000000000E+00 0. -1.
         21   -1    0    0  504  502 -0.00000000000E+00 -0.00000000000E+00 -0.46953972159E+02  0.46953972159E+02  0.00000000000E+00 0. -1.
         21    1    1    2  503  501 -0.13947445571E+02  0.19659306432E+02  0.44780991825E+01  0.24516788934E+02  0.00000000000E+00 0.  1.
         21    1    1    2  504  503  0.13947445571E+02 -0.19659306432E+02 -0.33001870883E+02  0.40867383684E+02  0.00000000000E+00 0.  1.
<mgrwt>
<rscale>  2 0.24104347E+02</rscale>
<asrwt>0</asrwt>
<pdfrwt beam="1">  1       21 0.28354155E-02 0.24104347E+02</pdfrwt>
<pdfrwt beam="2">  1       21 0.72236880E-02 0.24104347E+02</pdfrwt>
<totfact> 0.70176996E+07</totfact>
</mgrwt>
</event>
<event>
 4    1  0.9138221E+003  0.3392281E+02  0.7546771E-02  0.1558380E+00
         21   -1    0    0  502  501  0.00000000000E+00  0.00000000000E+00  0.32490350067E+03  0.32490350067E+03  0.00000000000E+00 0.  1.
         21   -1    0    0  504  502 -0.00000000000E+00 -0.00000000000E+00 -0.45282644866E+01  0.45282644866E+01  0.00000000000E+00 0.  1.
         21    1    1    2  503  501  0.31986187021E+02 -0.11297816162E+02  0.23706544592E+03  0.23948023396E+03  0.00000000000E+00 0.  1.
         21    1    1    2  504  503 -0.31986187021E+02  0.11297816162E+02  0.83309790268E+02  0.89951531197E+02  0.00000000000E+00 0.  1.
<mgrwt>
<rscale>  2 0.33922807E+02</rscale>
<asrwt>0</asrwt>
<pdfrwt beam="1">  1       21 0.49985136E-01 0.33922807E+02</pdfrwt>
<pdfrwt beam="2">  1       21 0.69665633E-03 0.33922807E+02</pdfrwt>
<totfact> 0.21134834E+07</totfact>
</mgrwt>
</event>
<event>
 4    1  0.9138221E+003  0.2122126E+02  0.7546771E-02  0.1722079E+00
         21   -1    0    0  503  501  0.00000000000E+00  0.00000000000E+00  0.51472968220E+02  0.51472968220E+02  0.00000000000E+00 0.  1.
         21   -1    0    0  501  502 -0.00000000000E+00 -0.00000000000E+00 -0.24763317444E+02  0.24763317444E+02  0.00000000000E+00 0.  1.
         21    1    1    2  503  504 -0.14683902897E+02  0.15320726471E+02  0.44008342259E+02  0.48857710264E+02  0.00000000000E+00 0. -1.
         21    1    1    2  504  502  0.14683902897E+02 -0.15320726471E+02 -0.17298691483E+02  0.27378575400E+02  0.00000000000E+00 0. -1.
<mgrwt>
<rscale>  2 0.21221255E+02</rscale>
<asrwt>0</asrwt>
<pdfrwt beam="1">  1       21 0.79189181E-02 0.21221255E+02</pdfrwt>
<pdfrwt beam="2">  1       21 0.38097412E-02 0.21221255E+02</pdfrwt>
<totfact> 0.36852951E+07</totfact>
</mgrwt>
</event>
<event>
 4    1  0.9138221E+003  0.2374873E+02  0.7546771E-02  0.1679653E+00
         21   -1    0    0  503  501  0.00000000000E+00  0.00000000000E+00  0.33424395593E+02  0.33424395593E+02  0.00000000000E+00 0.  1.
         21   -1    0    0  501  502 -0.00000000000E+00 -0.00000000000E+00 -0.33561963034E+02  0.33561963034E+02  0.00000000000E+00 0.  1.
         21    1    1    2  503  504  0.13688974789E+02 -0.19406548118E+02  0.23548763595E+02  0.33444676818E+02  0.00000000000E+00 0.  1.
         21    1    1    2  504  502 -0.13688974789E+02  0.19406548118E+02 -0.23686331036E+02  0.33541681809E+02  0.00000000000E+00 0.  1.
<mgrwt>
<rscale>  2 0.23748729E+02</rscale>
<asrwt>0</asrwt>
<pdfrwt beam="1">  1       21 0.51422147E-02 0.23748729E+02</pdfrwt>
<pdfrwt beam="2">  1       21 0.51633789E-02 0.23748729E+02</pdfrwt>
<totfact> 0.46990651E+07</totfact>
</mgrwt>
</event>
<event>
 4    1  0.9138221E+003  0.2230891E+02  0.7546771E-02  0.1702964E+00
         21   -1    0    0  502  501  0.00000000000E+00  0.00000000000E+00  0.26466487665E+03  0.26466487665E+03  0.00000000000E+00 0. -1.
         21   -1    0    0  504  502 -0.00000000000E+00 -0.00000000000E+00 -0.41183373488E+01  0.41183373488E+01  0.00000000000E+00 0. -1.
         21    1    1    2  503  501  0.78228570013E+01 -0.20892355344E+02  0.22934068559E+03  0.23042317087E+03  0.00000000000E+00 0.  1.
         21    1    1    2  504  503 -0.78228570013E+01  0.20892355344E+02  0.31205853706E+02  0.38360043131E+02  0.00000000000E+00 0.  1.
<mgrwt>
<rscale>  2 0.22308913E+02</rscale>
<asrwt>0</asrwt>
<pdfrwt beam="1">  1       21 0.40717660E-01 0.22308913E+02</pdfrwt>
<pdfrwt beam="2">  1       21 0.63359057E-03 0.22308913E+02</pdfrwt>
<totfact> 0.33352957E+07</totfact>
</mgrwt>
</event>
<event>
 4    1  0.9138221E+003  0.2321074E+02  0.7546771E-02  0.1688117E+00
         21   -1    0    0  502  501  0.00000000000E+00  0.00000000000E+00  0.28521471594E+02  0.28521471594E+02  0.00000000000E+00 0. -1.
         21   -1    0    0  504  502 -0.00000000000E+00 -0.00000000000E+00 -0.23257941570E+02  0.23257941570E+02  0.00000000000E+00 0. -1.
         21    1    1    2  503  501  0.22408309637E+02  0.60502946855E+01 -0.85893497784E+01  0.24749047177E+02  0.00000000000E+00 0. -1.
         21    1    1    2  504  503 -0.22408309637E+02 -0.60502946855E+01  0.13852879802E+02  0.27030365987E+02  0.00000000000E+00 0. -1.
<mgrwt>
<rscale>  2 0.23210739E+02</rscale>
<asrwt>0</asrwt>
<pdfrwt beam="1">  1       21 0.43879187E-02 0.23210739E+02</pdfrwt>
<pdfrwt beam="2">  1       21 0.35781449E-02 0.23210739E+02</pdfrwt>
<totfact> 0.10735168E+08</totfact>
</mgrwt>
</event>
<event>
 4    1  0.9138221E+003  0.2519435E+02  0.7546771E-02  0.1658226E+00
         21   -1    0    0  502  501  0.00000000000E+00  0.00000000000E+00  0.65465799123E+02  0.65465799123E+02  0.00000000000E+00 0. -1.
         21   -1    0    0  503  502 -0.00000000000E+00 -0.00000000000E+00 -0.11910583344E+02  0.11910583344E+02  0.00000000000E+00 0. -1.
         21    1    1    2  503  504  0.14995609359E+02 -0.20245664515E+02  0.10095164621E+02  0.27141620814E+02  0.00000000000E+00 0.  1.
         21    1    1    2  504  501 -0.14995609359E+02  0.20245664515E+02  0.43460051158E+02  0.50234761653E+02  0.00000000000E+00 0.  1.
<mgrwt>
<rscale>  2 0.25194349E+02</rscale>
<asrwt>0</asrwt>
<pdfrwt beam="1">  1       21 0.10071661E-01 0.25194349E+02</pdfrwt>
<pdfrwt beam="2">  1       21 0.18323975E-02 0.25194349E+02</pdfrwt>
<totfact> 0.80737910E+07</totfact>
</mgrwt>
</event>
<event>
 4    1  0.9138221E+003  0.2191057E+02  0.7546771E-02  0.1709803E+00
         21   -1    0    0  504  501  0.00000000000E+00  0.00000000000E+00  0.90168398960E+02  0.90168398960E+02  0.00000000000E+00 0.  1.
         21   -1    0    0  501  502 -0.00000000000E+00 -0.00000000000E+00 -0.66013089149E+01  0.66013089149E+01  0.00000000000E+00 0.  1.
         21    1    1    2  503  502  0.21899903024E+02  0.68376939171E+00  0.63065465671E+02  0.66763210328E+02  0.00000000000E+00 0. -1.
         21    1    1    2  504  503 -0.21899903024E+02 -0.68376939171E+00  0.20501624374E+02  0.30006497547E+02  0.00000000000E+00 0. -1.
<mgrwt>
<rscale>  2 0.21910575E+02</rscale>
<asrwt>0</asrwt>
<pdfrwt beam="1">  1       21 0.13872060E-01 0.21910575E+02</pdfrwt>
<pdfrwt beam="2">  1       21 0.10155861E-02 0.21910575E+02</pdfrwt>
<totfact> 0.11125153E+08</totfact>
</mgrwt>
</event>
<event>
 4    1  0.9138221E+003  0.2810742E+02  0.7546771E-02  0.1620003E+00
         21   -1    0    0  504  501  0.00000000000E+00  0.00000000000E+00  0.10234222176E+02  0.10234222176E+02  0.00000000000E+00 0.  1.
         21   -1    0    0  501  502 -0.00000000000E+00 -0.00000000000E+00 -0.29116786423E+03  0.29116786423E+03  0.00000000000E+00 0.  1.
         21    1    1    2  503  502  0.86142286724E+01  0.26754851217E+02 -0.11278199777E+02  0.30285719233E+02  0.00000000000E+00 0.  1.
         21    1    1    2  504  503 -0.86142286724E+01 -0.26754851217E+02 -0.26965544228E+03  0.27111636718E+03  0.00000000000E+00 0.  1.
<mgrwt>
<rscale>  2 0.28107419E+02</rscale>
<asrwt>0</asrwt>
<pdfrwt beam="1">  1       21 0.15744960E-02 0.28107419E+02</pdfrwt>
<pdfrwt beam="2">  1       21 0.44795048E-01 0.28107419E+02</pdfrwt>
<totfact> 0.73660049E+06</totfact>
</mgrwt>
</event>
<event>
 4    1  0.9138221E+003  0.2230515E+02  0.7546771E-02  0.1703027E+00
         21   -1    0    0  502  501  0.00000000000E+00  0.00000000000E+00  0.14905552847E+01  0.14905552847E+01  0.00000000000E+00 0. -1.
         21   -1    0    0  503  502 -0.00000000000E+00 -0.00000000000E+00 -0.39806249794E+03  0.39806249794E+03  0.00000000000E+00 0. -1.
         21    1    1    2  503  504  0.19777048688E+02 -0.10314453648E+02 -0.11800538857E+03  0.12009492637E+03  0.00000000000E+00 0.  1.
         21    1    1    2  504  501 -0.19777048688E+02  0.10314453648E+02 -0.27856655409E+03  0.27945812686E+03  0.00000000000E+00 0.  1.
<mgrwt>
<rscale>  2 0.22305148E+02</rscale>
<asrwt>0</asrwt>
<pdfrwt beam="1">  1       21 0.22931603E-03 0.22305148E+02</pdfrwt>
<pdfrwt beam="2">  1       21 0.61240430E-01 0.22305148E+02</pdfrwt>
<totfact> 0.66841932E+07</totfact>
</mgrwt>
</event>
<event>
 4    1  0.9138221E+003  0.2386585E+02  0.7546771E-02  0.1677848E+00
         21   -1    0    0  502  501  0.00000000000E+00  0.00000000000E+00  0.25746712027E+02  0.25746712027E+02  0.00000000000E+00 0. -1.
         21   -1    0    0  504  502 -0.00000000000E+00 -0.00000000000E+00 -0.26114241584E+02  0.26114241584E+02  0.00000000000E+00 0. -1.
         21    1    1    2  503  501 -0.21615085801E+01 -0.23767764791E+02 -0.10321923262E+02  0.26002324171E+02  0.00000000000E+00 0.  1.
         21    1    1    2  504  503  0.21615085801E+01  0.23767764791E+02  0.99543937042E+01  0.25858629440E+02  0.00000000000E+00 0.  1.
<mgrwt>
<rscale>  2 0.23865849E+02</rscale>
<asrwt>0</asrwt>
<pdfrwt beam="1">  1       21 0.39610326E-02 0.23865849E+02</pdfrwt>
<pdfrwt beam="2">  1       21 0.40175756E-02 0.23865849E+02</pdfrwt>
<totfact> 0.10602128E+08</totfact>
</mgrwt>
</event>
<event>
 4    1  0.9138221E+003  0.2055064E+02  0.7546771E-02  0.1734595E+00
         21   -1    0    0  504  501  0.00000000000E+00  0.00000000000E+00  0.11351925717E+04  0.11351925717E+04  0.00000000000E+00 0. -1.
         21   -1    0    0  501  502 -0.00000000000E+00 -0.00000000000E+00 -0.58257874435E+00  0.58257874435E+00  0.00000000000E+00 0. -1.
         21    1    1    2  503  502 -0.11579489672E+02  0.16977751524E+02  0.22590877483E+03  0.22684158166E+03  0.00000000000E+00 0.  1.
         21    1    1    2  504  503  0.11579489672E+02 -0.16977751524E+02  0.90870121817E+03  0.90893356882E+03  0.00000000000E+00 0.  1.
<mgrwt>
<rscale>  2 0.20550636E+02</rscale>
<asrwt>0</asrwt>
<pdfrwt beam="1">  1       21 0.17464324E+00 0.20550636E+02</pdfrwt>
<pdfrwt beam="2">  1       21 0.89628408E-04 0.20550636E+02</pdfrwt>
<totfact> 0.25073686E+07</totfact>
</mgrwt>
</event>
<event>
 4    1  0.9138221E+003  0.2732805E+02  0.7546771E-02  0.1629652E+00
         21   -1    0    0  504  501  0.00000000000E+00  0.00000000000E+00  0.69795864717E+01  0.69795864717E+01  0.00000000000E+00 0.  1.
         21   -1    0    0  501  502 -0.00000000000E+00 -0.00000000000E+00 -0.18577484210E+03  0.18577484210E+03  0.00000000000E+00 0.  1.
         21    1    1    2  503  502  0.55272970203E+01  0.26763248194E+02 -0.26639202536E+02  0.38163720705E+02  0.00000000000E+00 0. -1.
         21    1    1    2  504  503 -0.55272970203E+01 -0.26763248194E+02 -0.15215605310E+03  0.15459070787E+03  0.00000000000E+00 0. -1.
<mgrwt>
<rscale>  2 0.27328053E+02</rscale>
<asrwt>0</asrwt>
<pdfrwt beam="1">  1       21 0.10737825E-02 0.27328053E+02</pdfrwt>
<pdfrwt beam="2">  1       21 0.28580747E-01 0.27328053E+02</pdfrwt>
<totfact> 0.30470772E+07</totfact>
</mgrwt>
</event>
<event>
 4    1  0.9138221E+003  0.2045804E+02  0.7546771E-02  0.1736370E+00
         21   -1    0    0  502  501  0.00000000000E+00  0.00000000000E+00  0.27122002961E+02  0.27122002961E+02  0.00000000000E+00 0.  1.
         21   -1    0    0  504  502 -0.00000000000E+00 -0.00000000000E+00 -0.31839313149E+02  0.31839313149E+02  0.00000000000E+00 0.  1.
         21    1    1    2  503  501  0.17195814589E+02  0.11083120180E+02 -0.23521861032E+02  0.31173859862E+02  0.00000000000E+00 0.  1.
         21    1    1    2  504  503 -0.17195814589E+02 -0.11083120180E+02  0.18804550844E+02  0.27787456248E+02  0.00000000000E+00 0.  1.
<mgrwt>
<rscale>  2 0.20458045E+02</rscale>
<asrwt>0</asrwt>
<pdfrwt beam="1">  1       21 0.41726158E-02 0.20458045E+02</pdfrwt>
<pdfrwt beam="2">  1       21 0.48983559E-02 0.20458045E+02</pdfrwt>
<totfact> 0.68344232E+07</totfact>
</mgrwt>
</event>
<event>
 4    1  0.9138221E+003  0.2098411E+02  0.7546771E-02  0.1726437E+00
         21   -1    0    0  504  501  0.00000000000E+00  0.00000000000E+00  0.58490415124E+00  0.58490415124E+00  0.00000000000E+00 0. -1.
         21   -1    0    0  501  502 -0.00000000000E+00 -0.00000000000E+00 -0.12701164655E+04  0.12701164655E+04  0.00000000000E+00 0. -1.
         21    1    1    2  503  502 -0.19313600865E+02  0.82047449958E+01 -0.22929687495E+03  0.23025505397E+03  0.00000000000E+00 0.  1.
         21    1    1    2  504  503  0.19313600865E+02 -0.82047449958E+01 -0.10402346864E+04  0.10404463157E+04  0.00000000000E+00 0.  1.
<mgrwt>
<rscale>  2 0.20984113E+02</rscale>
<asrwt>0</asrwt>
<pdfrwt beam="1">  1       21 0.89985123E-04 0.20984113E+02</pdfrwt>
<pdfrwt beam="2">  1       21 0.19540282E+00 0.20984113E+02</pdfrwt>
<totfact> 0.18914758E+07</totfact>
</mgrwt>
</event>
<event>
 4    1  0.9138221E+003  0.2216210E+02  0.7546771E-02  0.1705463E+00
         21   -1    0    0  503  501  0.00000000000E+00  0.00000000000E+00  0.78586126659E+01  0.78586126659E+01  0.00000000000E+00 0. -1.
         21   -1    0    0  501  502 -0.00000000000E+00 -0.00000000000E+00 -0.77976767046E+02  0.77976767046E+02  0.00000000000E+00 0. -1.
         21    1    1    2  503  504 -0.22024694721E+02  0.24640812775E+01 -0.15938467599E+02  0.27298234805E+02  0.00000000000E+00 0.  1.
         21    1    1    2  504  502  0.22024694721E+02 -0.24640812775E+01 -0.54179686782E+02  0.58537144907E+02  0.00000000000E+00 0.  1.
<mgrwt>
<rscale>  2 0.22162104E+02</rscale>
<asrwt>0</asrwt>
<pdfrwt beam="1">  1       21 0.12090173E-02 0.22162104E+02</pdfrwt>
<pdfrwt beam="2">  1       21 0.11996426E-01 0.22162104E+02</pdfrwt>
<totfact> 0.10961216E+08</totfact>
</mgrwt>
</event>
<event>
 4    1  0.9138221E+003  0.2925362E+02  0.7546771E-02  0.1606489E+00
         21   -1    0    0  504  501  0.00000000000E+00  0.00000000000E+00  0.29842033464E+03  0.29842033464E+03  0.00000000000E+00 0. -1.
         21   -1    0    0  501  502 -0.00000000000E+00 -0.00000000000E+00 -0.65751625685E+01  0.65751625685E+01  0.00000000000E+00 0. -1.
         21    1    1    2  503  502 -0.17505325852E+02  0.23437953027E+02  0.31410919924E+02  0.42923419781E+02  0.00000000000E+00 0.  1.
         21    1    1    2  504  503  0.17505325852E+02 -0.23437953027E+02  0.26043425215E+03  0.26207207743E+03  0.00000000000E+00 0.  1.
<mgrwt>
<rscale>  2 0.29253616E+02</rscale>
<asrwt>0</asrwt>
<pdfrwt beam="1">  1       21 0.45910810E-01 0.29253616E+02</pdfrwt>
<pdfrwt beam="2">  1       21 0.10115637E-02 0.29253616E+02</pdfrwt>
<totfact> 0.13872040E+07</totfact>
</mgrwt>
</event>
<event>
 4    1  0.9138221E+003  0.3709174E+02  0.7546771E-02  0.1530773E+00
         21   -1    0    0  504  501  0.00000000000E+00  0.00000000000E+00  0.88957547317E+01  0.88957547317E+01  0.00000000000E+00 0. -1.
         21   -1    0    0  501  502 -0.00000000000E+00 -0.00000000000E+00 -0.16408801325E+03  0.16408801325E+03  0.00000000000E+00 0. -1.
         21    1    1    2  503  502  0.37089695299E+02  0.38973646633E+00 -0.56861375252E+02  0.67889714887E+02  0.00000000000E+00 0.  1.
         21    1    1    2  504  503 -0.37089695299E+02 -0.38973646633E+00 -0.98330883264E+02  0.10509405309E+03  0.00000000000E+00 0.  1.
<mgrwt>
<rscale>  2 0.37091743E+02</rscale>
<asrwt>0</asrwt>
<pdfrwt beam="1">  1       21 0.13685777E-02 0.37091743E+02</pdfrwt>
<pdfrwt beam="2">  1       21 0.25244308E-01 0.37091743E+02</pdfrwt>
<totfact> 0.27934417E+07</totfact>
</mgrwt>
</event>
<event>
 4    1  0.9138221E+003  0.3905943E+02  0.7546771E-02  0.1515249E+00
         21   -1    0    0  503  501  0.00000000000E+00  0.00000000000E+00  0.94986651573E+03  0.94986651573E+03  0.00000000000E+00 0.  1.
         21   -1    0    0  501  502 -0.00000000000E+00 -0.00000000000E+00 -0.16494575464E+01  0.16494575464E+01  0.00000000000E+00 0.  1.
         21    1    1    2  503  504 -0.58906798564E+01  0.38612677884E+02  0.55118818540E+03  0.55257040703E+03  0.00000000000E+00 0. -1.
         21    1    1    2  504  502  0.58906798564E+01 -0.38612677884E+02  0.39702887278E+03  0.39894556625E+03  0.00000000000E+00 0. -1.
<mgrwt>
<rscale>  2 0.39059429E+02</rscale>
<asrwt>0</asrwt>
<pdfrwt beam="1">  1       21 0.14613287E+00 0.39059429E+02</pdfrwt>
<pdfrwt beam="2">  1       21 0.25376346E-03 0.39059429E+02</pdfrwt>
<totfact> 0.93837206E+06</totfact>
</mgrwt>
</event>
<event>
 4    1  0.9138221E+003  0.4663189E+02  0.7546771E-02  0.1464404E+00
         21   -1    0    0  502  501  0.00000000000E+00  0.00000000000E+00  0.55660474703E+03  0.55660474703E+03  0.00000000000E+00 0. -1.
         21   -1    0    0  504  502 -0.00000000000E+00 -0.00000000000E+00 -0.83803952202E+01  0.83803952202E+01  0.00000000000E+00 0. -1.
         21    1    1    2  503  501 -0.29897556076E+02 -0.35786445117E+02  0.67714886981E+02  0.82218242698E+02  0.00000000000E+00 0. -1.
         21    1    1    2  504  503  0.29897556076E+02  0.35786445117E+02  0.48050946483E+03  0.48276689956E+03  0.00000000000E+00 0. -1.
<mgrwt>
<rscale>  2 0.46631894E+02</rscale>
<asrwt>0</asrwt>
<pdfrwt beam="1">  1       21 0.85631470E-01 0.46631894E+02</pdfrwt>
<pdfrwt beam="2">  1       21 0.12892920E-02 0.46631894E+02</pdfrwt>
<totfact> 0.28021689E+06</totfact>
</mgrwt>
</event>
<event>
 4    1  0.9138221E+003  0.2612267E+02  0.7546771E-02  0.1645381E+00
         21   -1    0    0  504  501  0.00000000000E+00  0.00000000000E+00  0.10094572002E+04  0.10094572002E+04  0.00000000000E+00 0. -1.
         21   -1    0    0  501  502 -0.00000000000E+00 -0.00000000000E+00 -0.11510533754E+01  0.11510533754E+01  0.00000000000E+00 0. -1.
         21    1    1    2  503  502  0.16164033009E+02  0.20521161395E+02  0.82877352886E+03  0.82918511574E+03  0.00000000000E+00 0.  1.
         21    1    1    2  504  503 -0.16164033009E+02 -0.20521161395E+02  0.17953261793E+03  0.18142313779E+03  0.00000000000E+00 0.  1.
<mgrwt>
<rscale>  2 0.26122673E+02</rscale>
<asrwt>0</asrwt>
<pdfrwt beam="1">  1       21 0.15530040E+00 0.26122673E+02</pdfrwt>
<pdfrwt beam="2">  1       21 0.17708594E-03 0.26122673E+02</pdfrwt>
<totfact> 0.13074621E+07</totfact>
</mgrwt>
</event>
<event>
 4    1  0.9138221E+003  0.2503773E+02  0.7546771E-02  0.1660461E+00
         21   -1    0    0  503  501  0.00000000000E+00  0.00000000000E+00  0.28738265577E+02  0.28738265577E+02  0.00000000000E+00 0. -1.
         21   -1    0    0  501  502 -0.00000000000E+00 -0.00000000000E+00 -0.23610507516E+02  0.23610507516E+02  0.00000000000E+00 0. -1.
         21    1    1    2  503  504 -0.18280641030E+02 -0.17108658030E+02 -0.46567354228E+01  0.25467100362E+02  0.00000000000E+00 0. -1.
         21    1    1    2  504  502  0.18280641030E+02  0.17108658030E+02  0.97844934841E+01  0.26881672731E+02  0.00000000000E+00 0. -1.
<mgrwt>
<rscale>  2 0.25037732E+02</rscale>
<asrwt>0</asrwt>
<pdfrwt beam="1">  1       21 0.44212716E-02 0.25037732E+02</pdfrwt>
<pdfrwt beam="2">  1       21 0.36323858E-02 0.25037732E+02</pdfrwt>
<totfact> 0.10583528E+08</totfact>
</mgrwt>
</event>
<event>
 4    1  0.9138221E+003  0.2234574E+02  0.7546771E-02  0.1702340E+00
         21   -1    0    0  504  501  0.00000000000E+00  0.00000000000E+00  0.13553731834E+03  0.13553731834E+03  0.00000000000E+00 0.  1.
         21   -1    0    0  501  502 -0.00000000000E+00 -0.00000000000E+00 -0.38956662826E+01  0.38956662826E+01  0.00000000000E+00 0.  1.
         21    1    1    2  503  502 -0.92967486029E+00 -0.22326395157E+02  0.49573792367E+02  0.54377321612E+02  0.00000000000E+00 0.  1.
         21    1    1    2  504  503  0.92967486029E+00  0.22326395157E+02  0.82067859693E+02  0.85055663013E+02  0.00000000000E+00 0.  1.
<mgrwt>
<rscale>  2 0.22345743E+02</rscale>
<asrwt>0</asrwt>
<pdfrwt beam="1">  1       21 0.20851891E-01 0.22345743E+02</pdfrwt>
<pdfrwt beam="2">  1       21 0.59933338E-03 0.22345743E+02</pdfrwt>
<totfact> 0.12188253E+08</totfact>
</mgrwt>
</event>
<event>
 4    1  0.9138221E+003  0.2580653E+02  0.7546771E-02  0.1649681E+00
         21   -1    0    0  504  501  0.00000000000E+00  0.00000000000E+00  0.66804507072E+00  0.66804507072E+00  0.00000000000E+00 0. -1.
         21   -1    0    0  501  502 -0.00000000000E+00 -0.00000000000E+00 -0.12693030887E+04  0.12693030887E+04  0.00000000000E+00 0. -1.
         21    1    1    2  503  502  0.13427947051E+02  0.22037860714E+02 -0.92847757542E+03  0.92883614547E+03  0.00000000000E+00 0.  1.
         21    1    1    2  504  503 -0.13427947051E+02 -0.22037860714E+02 -0.34015746818E+03  0.34113498827E+03  0.00000000000E+00 0.  1.
<mgrwt>
<rscale>  2 0.25806531E+02</rscale>
<asrwt>0</asrwt>
<pdfrwt beam="1">  1       21 0.10277552E-03 0.25806531E+02</pdfrwt>
<pdfrwt beam="2">  1       21 0.19527862E+00 0.25806531E+02</pdfrwt>
<totfact> 0.16135207E+07</totfact>
</mgrwt>
</event>
<event>
 4    1  0.9138221E+003  0.2051603E+02  0.7546771E-02  0.1735257E+00
         21   -1    0    0  502  501  0.00000000000E+00  0.00000000000E+00  0.10152775607E+01  0.10152775607E+01  0.00000000000E+00 0.  1.
         21   -1    0    0  504  502 -0.00000000000E+00 -0.00000000000E+00 -0.60155471713E+03  0.60155471713E+03  0.00000000000E+00 0.  1.
         21    1    1    2  503  501 -0.44258735144E+01 -0.20032948061E+02 -0.13229701757E+03  0.13387833366E+03  0.00000000000E+00 0.  1.
         21    1    1    2  504  503  0.44258735144E+01  0.20032948061E+02 -0.46824242200E+03  0.46869166103E+03  0.00000000000E+00 0.  1.
<mgrwt>
<rscale>  2 0.20516027E+02</rscale>
<asrwt>0</asrwt>
<pdfrwt beam="1">  1       21 0.15619696E-03 0.20516027E+02</pdfrwt>
<pdfrwt beam="2">  1       21 0.92546633E-01 0.20516027E+02</pdfrwt>
<totfact> 0.48428931E+07</totfact>
</mgrwt>
</event>
<event>
 4    1  0.9138221E+003  0.2758712E+02  0.7546771E-02  0.1626401E+00
         21   -1    0    0  502  501  0.00000000000E+00  0.00000000000E+00  0.79316198980E+00  0.79316198980E+00  0.00000000000E+00 0.  1.
         21   -1    0    0  503  502 -0.00000000000E+00 -0.00000000000E+00 -0.12196783685E+04  0.12196783685E+04  0.00000000000E+00 0.  1.
         21    1    1    2  503  504 -0.50377165114E+01 -0.27123251850E+02 -0.32760457348E+03  0.32876405817E+03  0.00000000000E+00 0.  1.
         21    1    1    2  504  501  0.50377165114E+01  0.27123251850E+02 -0.89128063305E+03  0.89170747234E+03  0.00000000000E+00 0.  1.
<mgrwt>
<rscale>  2 0.27587123E+02</rscale>
<asrwt>0</asrwt>
<pdfrwt beam="1">  1       21 0.12202417E-03 0.27587123E+02</pdfrwt>
<pdfrwt beam="2">  1       21 0.18764398E+00 0.27587123E+02</pdfrwt>
<totfact> 0.14088485E+07</totfact>
</mgrwt>
</event>
<event>
 4    1  0.9138221E+003  0.3968509E+02  0.7546771E-02  0.1510542E+00
         21   -1    0    0  503  501  0.00000000000E+00  0.00000000000E+00  0.20189212285E+03  0.20189212285E+03  0.00000000000E+00 0.  1.
         21   -1    0    0  501  502 -0.00000000000E+00 -0.00000000000E+00 -0.15850296176E+02  0.15850296176E+02  0.00000000000E+00 0.  1.
         21    1    1    2  503  504 -0.29897808020E+02 -0.26096506893E+02  0.17060640322E+03  0.17516121550E+03  0.00000000000E+00 0. -1.
         21    1    1    2  504  502  0.29897808020E+02  0.26096506893E+02  0.15435423456E+02  0.42581203525E+02  0.00000000000E+00 0. -1.
<mgrwt>
<rscale>  2 0.39685093E+02</rscale>
<asrwt>0</asrwt>
<pdfrwt beam="1">  1       21 0.31060325E-01 0.39685093E+02</pdfrwt>
<pdfrwt beam="2">  1       21 0.24385073E-02 0.39685093E+02</pdfrwt>
<totfact> 0.78340305E+06</totfact>
</mgrwt>
</event>
<event>
 4    1  0.9138221E+003  0.3522391E+02  0.7546771E-02  0.1546621E+00
         21   -1    0    0  502  501  0.00000000000E+00  0.00000000000E+00  0.11716146370E+03  0.11716146370E+03  0.00000000000E+00 0. -1.
         21   -1    0    0  503  502 -0.00000000000E+00 -0.00000000000E+00 -0.19489457503E+02  0.19489457503E+02  0.00000000000E+00 0. -1.
         21    1    1    2  503  504 -0.23776039008E+01 -0.35143573745E+02  0.26651586528E+01  0.35324592659E+02  0.00000000000E+00 0.  1.
         21    1    1    2  504  501  0.23776039008E+01  0.35143573745E+02  0.95006847547E+02  0.10132632855E+03  0.00000000000E+00 0.  1.
<mgrwt>
<rscale>  2 0.35223909E+02</rscale>
<asrwt>0</asrwt>
<pdfrwt beam="1">  1       21 0.18024840E-01 0.35223909E+02</pdfrwt>
<pdfrwt beam="2">  1       21 0.29983782E-02 0.35223909E+02</pdfrwt>
<totfact> 0.14885034E+07</totfact>
</mgrwt>
</event>
<event>
 4    1  0.9138221E+003  0.2058375E+02  0.7546771E-02  0.1733963E+00
         21   -1    0    0  503  501  0.00000000000E+00  0.00000000000E+00  0.27014038727E+01  0.27014038727E+01  0.00000000000E+00 0. -1.
         21   -1    0    0  501  502 -0.00000000000E+00 -0.00000000000E+00 -0.22079191581E+03  0.22079191581E+03  0.00000000000E+00 0. -1.
         21    1    1    2  503  504  0.60586666908E+00 -0.20574831385E+02 -0.48904829069E+02  0.53060089213E+02  0.00000000000E+00 0. -1.
         21    1    1    2  504  502 -0.60586666908E+00  0.20574831385E+02 -0.16918568286E+03  0.17043323047E+03  0.00000000000E+00 0. -1.
<mgrwt>
<rscale>  2 0.20583750E+02</rscale>
<asrwt>0</asrwt>
<pdfrwt beam="1">  1       21 0.41560061E-03 0.20583750E+02</pdfrwt>
<pdfrwt beam="2">  1       21 0.33967986E-01 0.20583750E+02</pdfrwt>
<totfact> 0.85210147E+07</totfact>
</mgrwt>
</event>
<event>
 4    1  0.9138221E+003  0.6680908E+02  0.7546771E-02  0.1371293E+00
         21   -1    0    0  504  501  0.00000000000E+00  0.00000000000E+00  0.35760537975E+03  0.35760537975E+03  0.00000000000E+00 0.  1.
         21   -1    0    0  501  502 -0.00000000000E+00 -0.00000000000E+00 -0.16728936672E+02  0.16728936672E+02  0.00000000000E+00 0.  1.
         21    1    1    2  503  502 -0.49086505324E+02  0.45320727769E+02  0.26474842319E+03  0.27304794625E+03  0.00000000000E+00 0.  1.
         21    1    1    2  504  503  0.49086505324E+02 -0.45320727769E+02  0.76128019887E+02  0.10128637017E+03  0.00000000000E+00 0.  1.
<mgrwt>
<rscale>  2 0.66809081E+02</rscale>
<asrwt>0</asrwt>
<pdfrwt beam="1">  1       21 0.55016207E-01 0.66809081E+02</pdfrwt>
<pdfrwt beam="2">  1       21 0.25736828E-02 0.66809081E+02</pdfrwt>
<totfact> 0.24607024E+06</totfact>
</mgrwt>
</event>
<event>
 4    1  0.9138221E+003  0.2163719E+02  0.7546771E-02  0.1714603E+00
         21   -1    0    0  504  501  0.00000000000E+00  0.00000000000E+00  0.82409341767E+01  0.82409341767E+01  0.00000000000E+00 0. -1.
         21   -1    0    0  501  502 -0.00000000000E+00 -0.00000000000E+00 -0.25406450829E+03  0.25406450829E+03  0.00000000000E+00 0. -1.
         21    1    1    2  503  502  0.19836111769E+02 -0.86427123620E+01 -0.73488077204E+01  0.22851100236E+02  0.00000000000E+00 0.  1.
         21    1    1    2  504  503 -0.19836111769E+02  0.86427123620E+01 -0.23847476639E+03  0.23945434223E+03  0.00000000000E+00 0.  1.
<mgrwt>
<rscale>  2 0.21637186E+02</rscale>
<asrwt>0</asrwt>
<pdfrwt beam="1">  1       21 0.12678360E-02 0.21637186E+02</pdfrwt>
<pdfrwt beam="2">  1       21 0.39086849E-01 0.21637186E+02</pdfrwt>
<totfact> 0.12684219E+07</totfact>
</mgrwt>
</event>
<event>
 4    1  0.9138221E+003  0.2484879E+02  0.7546771E-02  0.1663183E+00
         21   -1    0    0  504  501  0.00000000000E+00  0.00000000000E+00  0.24812322800E+01  0.24812322800E+01  0.00000000000E+00 0. -1.
         21   -1    0    0  501  502 -0.00000000000E+00 -0.00000000000E+00 -0.27345946177E+03  0.27345946177E+03  0.00000000000E+00 0. -1.
         21    1    1    2  503  502  0.24509051403E+02  0.40949415565E+01 -0.17687608975E+03  0.17861302660E+03  0.00000000000E+00 0.  1.
         21    1    1    2  504  503 -0.24509051403E+02 -0.40949415565E+01 -0.94102139739E+02  0.97327667446E+02  0.00000000000E+00 0.  1.
<mgrwt>
<rscale>  2 0.24848786E+02</rscale>
<asrwt>0</asrwt>
<pdfrwt beam="1">  1       21 0.38172804E-03 0.24848786E+02</pdfrwt>
<pdfrwt beam="2">  1       21 0.42070686E-01 0.24848786E+02</pdfrwt>
<totfact> 0.67905696E+07</totfact>
</mgrwt>
</event>
<event>
 4    1  0.9138221E+003  0.2284957E+02  0.7546771E-02  0.1693960E+00
         21   -1    0    0  502  501  0.00000000000E+00  0.00000000000E+00  0.87174479904E+02  0.87174479904E+02  0.00000000000E+00 0.  1.
         21   -1    0    0  503  502 -0.00000000000E+00 -0.00000000000E+00 -0.74582390405E+01  0.74582390405E+01  0.00000000000E+00 0.  1.
         21    1    1    2  503  504 -0.20090001663E+02  0.10885534644E+02  0.18858383705E+02  0.29626705306E+02  0.00000000000E+00 0. -1.
         21    1    1    2  504  501  0.20090001663E+02 -0.10885534644E+02  0.60857857159E+02  0.65006013639E+02  0.00000000000E+00 0. -1.
<mgrwt>
<rscale>  2 0.22849574E+02</rscale>
<asrwt>0</asrwt>
<pdfrwt beam="1">  1       21 0.13411458E-01 0.22849574E+02</pdfrwt>
<pdfrwt beam="2">  1       21 0.11474215E-02 0.22849574E+02</pdfrwt>
<totfact> 0.99209974E+07</totfact>
</mgrwt>
</event>
<event>
 4    1  0.9138221E+003  0.2254536E+02  0.7546771E-02  0.1698987E+00
         21   -1    0    0  504  501  0.00000000000E+00  0.00000000000E+00  0.67129514295E+02  0.67129514295E+02  0.00000000000E+00 0.  1.
         21   -1    0    0  501  502 -0.00000000000E+00 -0.00000000000E+00 -0.79846775476E+01  0.79846775476E+01  0.00000000000E+00 0.  1.
         21    1    1    2  503  502 -0.20245291716E+02 -0.99207496745E+01  0.38112448763E+02  0.44281506992E+02  0.00000000000E+00 0.  1.
         21    1    1    2  504  503  0.20245291716E+02  0.99207496745E+01  0.21032387984E+02  0.30832684850E+02  0.00000000000E+00 0.  1.
<mgrwt>
<rscale>  2 0.22545357E+02</rscale>
<asrwt>0</asrwt>
<pdfrwt beam="1">  1       21 0.10327617E-01 0.22545357E+02</pdfrwt>
<pdfrwt beam="2">  1       21 0.12284120E-02 0.22545357E+02</pdfrwt>
<totfact> 0.13799042E+08</totfact>
</mgrwt>
</event>
<event>
 4    1  0.9138221E+003  0.2988513E+02  0.7546771E-02  0.1599362E+00
         21   -1    0    0  504  501  0.00000000000E+00  0.00000000000E+00  0.62185685834E+03  0.62185685834E+03  0.00000000000E+00 0.  1.
         21   -1    0    0  501  502 -0.00000000000E+00 -0.00000000000E+00 -0.24904643265E+01  0.24904643265E+01  0.00000000000E+00 0.  1.
         21    1    1    2  503  502 -0.40207770512E+01  0.29613419046E+02  0.51279137074E+03  0.51366147524E+03  0.00000000000E+00 0.  1.
         21    1    1    2  504  503  0.40207770512E+01 -0.29613419046E+02  0.10657502327E+03  0.11068584742E+03  0.00000000000E+00 0.  1.
<mgrwt>
<rscale>  2 0.29885134E+02</rscale>
<asrwt>0</asrwt>
<pdfrwt beam="1">  1       21 0.95670162E-01 0.29885134E+02</pdfrwt>
<pdfrwt beam="2">  1       21 0.38314885E-03 0.29885134E+02</pdfrwt>
<totfact> 0.13126787E+07</totfact>
</mgrwt>
</event>
<event>
 4    1  0.9138221E+003  0.2094517E+02  0.7546771E-02  0.1727160E+00
         21   -1    0    0  502  501  0.00000000000E+00  0.00000000000E+00  0.35470040687E+03  0.35470040687E+03  0.00000000000E+00 0.  1.
         21   -1    0    0  504  502 -0.00000000000E+00 -0.00000000000E+00 -0.74175382366E+01  0.74175382366E+01  0.00000000000E+00 0.  1.
         21    1    1    2  503  501 -0.19793951737E+02  0.68483438228E+01  0.83654892464E+01  0.22553974125E+02  0.00000000000E+00 0. -1.
         21    1    1    2  504  503  0.19793951737E+02 -0.68483438228E+01  0.33891737938E+03  0.33956397098E+03  0.00000000000E+00 0. -1.
<mgrwt>
<rscale>  2 0.20945175E+02</rscale>
<asrwt>0</asrwt>
<pdfrwt beam="1">  1       21 0.54569280E-01 0.20945175E+02</pdfrwt>
<pdfrwt beam="2">  1       21 0.11411600E-02 0.20945175E+02</pdfrwt>
<totfact> 0.77951174E+06</totfact>
</mgrwt>
</event>
<event>
 4    1  0.9138221E+003  0.3106455E+02  0.7546771E-02  0.1586611E+00
         21   -1    0    0  502  501  0.00000000000E+00  0.00000000000E+00  0.66087618514E+02  0.66087618514E+02  0.00000000000E+00 0. -1.
         21   -1    0    0  504  502 -0.00000000000E+00 -0.00000000000E+00 -0.31744301245E+02  0.31744301245E+02  0.00000000000E+00 0. -1.
         21    1    1    2  503  501 -0.17418316863E+02 -0.25721749092E+02 -0.18774564440E+02  0.36297250703E+02  0.00000000000E+00 0.  1.
         21    1    1    2  504  503  0.17418316863E+02  0.25721749092E+02  0.53117881709E+02  0.61534669057E+02  0.00000000000E+00 0.  1.
<mgrwt>
<rscale>  2 0.31064548E+02</rscale>
<asrwt>0</asrwt>
<pdfrwt beam="1">  1       21 0.10167326E-01 0.31064548E+02</pdfrwt>
<pdfrwt beam="2">  1       21 0.48837387E-02 0.31064548E+02</pdfrwt>
<totfact> 0.17866336E+07</totfact>
</mgrwt>
</event>
<event>
 4    1  0.9138221E+003  0.2633307E+02  0.7546771E-02  0.1642561E+00
         21   -1    0    0  502  501  0.00000000000E+00  0.00000000000E+00  0.29165030099E+02  0.29165030099E+02  0.00000000000E+00 0. -1.
         21   -1    0    0  503  502 -0.00000000000E+00 -0.00000000000E+00 -0.38376916649E+02  0.38376916649E+02  0.00000000000E+00 0. -1.
         21    1    1    2  503  504 -0.17081343379E+02  0.20041409994E+02 -0.25436325939E+02  0.36611980054E+02  0.00000000000E+00 0. -1.
         21    1    1    2  504  501  0.17081343379E+02 -0.20041409994E+02  0.16224439390E+02  0.30929966694E+02  0.00000000000E+00 0. -1.
<mgrwt>
<rscale>  2 0.26333067E+02</rscale>
<asrwt>0</asrwt>
<pdfrwt beam="1">  1       21 0.44869277E-02 0.26333067E+02</pdfrwt>
<pdfrwt beam="2">  1       21 0.59041410E-02 0.26333067E+02</pdfrwt>
<totfact> 0.48287641E+07</totfact>
</mgrwt>
</event>
<event>
 4    1  0.9138221E+003  0.2420516E+02  0.7546771E-02  0.1672688E+00
         21   -1    0    0  504  501  0.00000000000E+00  0.00000000000E+00  0.17266341526E+02  0.17266341526E+02  0.00000000000E+00 0. -1.
         21   -1    0    0  501  502 -0.00000000000E+00 -0.00000000000E+00 -0.62892115318E+02  0.62892115318E+02  0.00000000000E+00 0. -1.
         21    1    1    2  503  502 -0.16157459216E+02  0.18022940418E+02  0.43839101391E+01  0.24598953997E+02  0.00000000000E+00 0.  1.
         21    1    1    2  504  503  0.16157459216E+02 -0.18022940418E+02 -0.50009683931E+02  0.55559502846E+02  0.00000000000E+00 0.  1.
<mgrwt>
<rscale>  2 0.24205162E+02</rscale>
<asrwt>0</asrwt>
<pdfrwt beam="1">  1       21 0.26563602E-02 0.24205162E+02</pdfrwt>
<pdfrwt beam="2">  1       21 0.96757101E-02 0.24205162E+02</pdfrwt>
<totfact> 0.48154757E+07</totfact>
</mgrwt>
</event>
<event>
 4    1  0.9138221E+003  0.2172988E+02  0.7546771E-02  0.1712966E+00
         21   -1    0    0  503  501  0.00000000000E+00  0.00000000000E+00  0.35981100082E+02  0.35981100082E+02  0.00000000000E+00 0.  1.
         21   -1    0    0  501  502 -0.00000000000E+00 -0.00000000000E+00 -0.20076088591E+02  0.20076088591E+02  0.00000000000E+00 0.  1.
         21    1    1    2  503  504 -0.35540770221E+01 -0.21437265451E+02 -0.85421723821E+01  0.23348587163E+02  0.00000000000E+00 0. -1.
         21    1    1    2  504  502  0.35540770221E+01  0.21437265451E+02  0.24447183872E+02  0.32708601511E+02  0.00000000000E+00 0. -1.
<mgrwt>
<rscale>  2 0.21729883E+02</rscale>
<asrwt>0</asrwt>
<pdfrwt beam="1">  1       21 0.55355539E-02 0.21729883E+02</pdfrwt>
<pdfrwt beam="2">  1       21 0.30886290E-02 0.21729883E+02</pdfrwt>
<totfact> 0.91612327E+07</totfact>
</mgrwt>
</event>
<event>
 4    1  0.9138221E+003  0.2078348E+02  0.7546771E-02  0.1730182E+00
         21   -1    0    0  502  501  0.00000000000E+00  0.00000000000E+00  0.13293300875E+02  0.13293300875E+02  0.00000000000E+00 0. -1.
         21   -1    0    0  503  502 -0.00000000000E+00 -0.00000000000E+00 -0.34622358417E+02  0.34622358417E+02  0.00000000000E+00 0. -1.
         21    1    1    2  503  504  0.18370657146E+02 -0.97196792733E+01 -0.47245316946E+01  0.21313714104E+02  0.00000000000E+00 0. -1.
         21    1    1    2  504  501 -0.18370657146E+02  0.97196792733E+01 -0.16604525847E+02  0.26601945188E+02  0.00000000000E+00 0. -1.
<mgrwt>
<rscale>  2 0.20783484E+02</rscale>
<asrwt>0</asrwt>
<pdfrwt beam="1">  1       21 0.20451232E-02 0.20783484E+02</pdfrwt>
<pdfrwt beam="2">  1       21 0.53265166E-02 0.20783484E+02</pdfrwt>
<totfact> 0.18149731E+08</totfact>
</mgrwt>
</event>
<event>
 4    1  0.9138221E+003  0.2180724E+02  0.7546771E-02  0.1711607E+00
         21   -1    0    0  502  501  0.00000000000E+00  0.00000000000E+00  0.33824618165E+02  0.33824618165E+02  0.00000000000E+00 0.  1.
         21   -1    0    0  503  502 -0.00000000000E+00 -0.00000000000E+00 -0.58548263671E+02  0.58548263671E+02  0.00000000000E+00 0.  1.
         21    1    1    2  503  504 -0.15774226323E+02 -0.15057534271E+02 -0.52622668705E+02  0.56962275376E+02  0.00000000000E+00 0.  1.
         21    1    1    2  504  501  0.15774226323E+02  0.15057534271E+02  0.27899023199E+02  0.35410606460E+02  0.00000000000E+00 0.  1.
<mgrwt>
<rscale>  2 0.21807236E+02</rscale>
<asrwt>0</asrwt>
<pdfrwt beam="1">  1       21 0.52037875E-02 0.21807236E+02</pdfrwt>
<pdfrwt beam="2">  1       21 0.90074250E-02 0.21807236E+02</pdfrwt>
<totfact> 0.18369857E+07</totfact>
</mgrwt>
</event>
<event>
 4    1  0.9138221E+003  0.3598747E+02  0.7546771E-02  0.1540002E+00
         21   -1    0    0  502  501  0.00000000000E+00  0.00000000000E+00  0.30885899279E+03  0.30885899279E+03  0.00000000000E+00 0. -1.
         21   -1    0    0  504  502 -0.00000000000E+00 -0.00000000000E+00 -0.21400385211E+02  0.21400385211E+02  0.00000000000E+00 0. -1.
         21    1    1    2  503  501 -0.58435891133E+01  0.35509863503E+02 -0.43415825357E+01  0.36248410705E+02  0.00000000000E+00 0.  1.
         21    1    1    2  504  503  0.58435891133E+01 -0.35509863503E+02  0.29180019011E+03  0.29401096729E+03  0.00000000000E+00 0.  1.
<mgrwt>
<rscale>  2 0.35987469E+02</rscale>
<asrwt>0</asrwt>
<pdfrwt beam="1">  1       21 0.47516765E-01 0.35987469E+02</pdfrwt>
<pdfrwt beam="2">  1       21 0.32923672E-02 0.35987469E+02</pdfrwt>
<totfact> 0.21387240E+06</totfact>
</mgrwt>
</event>
<event>
 4    1  0.9138221E+003  0.2656337E+02  0.7546771E-02  0.1639511E+00
         21   -1    0    0  502  501  0.00000000000E+00  0.00000000000E+00  0.28436857121E+02  0.28436857121E+02  0.00000000000E+00 0.  1.
         21   -1    0    0  503  502 -0.00000000000E+00 -0.00000000000E+00 -0.95272537405E+02  0.95272537405E+02  0.00000000000E+00 0.  1.
         21    1    1    2  503  504 -0.26518209170E+02 -0.15482899245E+01  0.19775559902E+02  0.33116240559E+02  0.00000000000E+00 0.  1.
         21    1    1    2  504  501  0.26518209170E+02  0.15482899245E+01 -0.86611240186E+02  0.90593153968E+02  0.00000000000E+00 0.  1.
<mgrwt>
<rscale>  2 0.26563370E+02</rscale>
<asrwt>0</asrwt>
<pdfrwt beam="1">  1       21 0.43749011E-02 0.26563370E+02</pdfrwt>
<pdfrwt beam="2">  1       21 0.14657313E-01 0.26563370E+02</pdfrwt>
<totfact> 0.11154075E+07</totfact>
</mgrwt>
</event>
<event>
 4    1  0.9138221E+003  0.2094744E+02  0.7546771E-02  0.1727118E+00
         21   -1    0    0  502  501  0.00000000000E+00  0.00000000000E+00  0.13509331820E+03  0.13509331820E+03  0.00000000000E+00 0.  1.
         21   -1    0    0  503  502 -0.00000000000E+00 -0.00000000000E+00 -0.66248161142E+01  0.66248161142E+01  0.00000000000E+00 0.  1.
         21    1    1    2  503  504  0.19181840984E+02 -0.84173803938E+01  0.13645214763E+02  0.24999744041E+02  0.00000000000E+00 0. -1.
         21    1    1    2  504  501 -0.19181840984E+02  0.84173803938E+01  0.11482328732E+03  0.11671839027E+03  0.00000000000E+00 0. -1.
<mgrwt>
<rscale>  2 0.20947442E+02</rscale>
<asrwt>0</asrwt>
<pdfrwt beam="1">  1       21 0.20783585E-01 0.20947442E+02</pdfrwt>
<pdfrwt beam="2">  1       21 0.10192026E-02 0.20947442E+02</pdfrwt>
<totfact> 0.54637373E+07</totfact>
</mgrwt>
</event>
<event>
 4    1  0.9138221E+003  0.2149230E+02  0.7546771E-02  0.1717183E+00
         21   -1    0    0  504  501  0.00000000000E+00  0.00000000000E+00  0.31486746009E+02  0.31486746009E+02  0.00000000000E+00 0. -1.
         21   -1    0    0  501  502 -0.00000000000E+00 -0.00000000000E+00 -0.27653012069E+02  0.27653012069E+02  0.00000000000E+00 0. -1.
         21    1    1    2  503  502 -0.20961460730E+02  0.47472296149E+01 -0.18344165022E+02  0.28256457940E+02  0.00000000000E+00 0.  1.
         21    1    1    2  504  503  0.20961460730E+02 -0.47472296149E+01  0.22177898963E+02  0.30883300137E+02  0.00000000000E+00 0.  1.
<mgrwt>
<rscale>  2 0.21492302E+02</rscale>
<asrwt>0</asrwt>
<pdfrwt beam="1">  1       21 0.48441148E-02 0.21492302E+02</pdfrwt>
<pdfrwt beam="2">  1       21 0.42543095E-02 0.21492302E+02</pdfrwt>
<totfact> 0.68403092E+07</totfact>
</mgrwt>
</event>
<event>
 4    1  0.9138221E+003  0.2371864E+02  0.7546771E-02  0.1680119E+00
         21   -1    0    0  502  501  0.00000000000E+00  0.00000000000E+00  0.40147406340E+02  0.40147406340E+02  0.00000000000E+00 0.  1.
         21   -1    0    0  503  502 -0.00000000000E+00 -0.00000000000E+00 -0.19174994810E+02  0.19174994810E+02  0.00000000000E+00 0.  1.
         21    1    1    2  503  504 -0.14586054180E+02 -0.18703506180E+02 -0.49039109577E+01  0.24220290309E+02  0.00000000000E+00 0. -1.
         21    1    1    2  504  501  0.14586054180E+02  0.18703506180E+02  0.25876322488E+02  0.35102110841E+02  0.00000000000E+00 0. -1.
<mgrwt>
<rscale>  2 0.23718645E+02</rscale>
<asrwt>0</asrwt>
<pdfrwt beam="1">  1       21 0.61765240E-02 0.23718645E+02</pdfrwt>
<pdfrwt beam="2">  1       21 0.29499992E-02 0.23718645E+02</pdfrwt>
<totfact> 0.84629577E+07</totfact>
</mgrwt>
</event>
<event>
 4    1  0.9138221E+003  0.2038000E+02  0.7546771E-02  0.1737875E+00
         21   -1    0    0  502  501  0.00000000000E+00  0.00000000000E+00  0.50258571158E+01  0.50258571158E+01  0.00000000000E+00 0.  1.
         21   -1    0    0  503  502 -0.00000000000E+00 -0.00000000000E+00 -0.11797321655E+03  0.11797321655E+03  0.00000000000E+00 0.  1.
         21    1    1    2  503  504 -0.31847566757E+01 -0.20129621544E+02 -0.22817676312E+02  0.30593964942E+02  0.00000000000E+00 0. -1.
         21    1    1    2  504  501  0.31847566757E+01  0.20129621544E+02 -0.90129683117E+02  0.92405108719E+02  0.00000000000E+00 0. -1.
<mgrwt>
<rscale>  2 0.20379998E+02</rscale>
<asrwt>0</asrwt>
<pdfrwt beam="1">  1       21 0.77320887E-03 0.20379998E+02</pdfrwt>
<pdfrwt beam="2">  1       21 0.18149724E-01 0.20379998E+02</pdfrwt>
<totfact> 0.10352714E+08</totfact>
</mgrwt>
</event>
<event>
 4    1  0.9138221E+003  0.9084210E+02  0.7546771E-02  0.1300825E+00
         21   -1    0    0  502  501  0.00000000000E+00  0.00000000000E+00  0.17300253837E+02  0.17300253837E+02  0.00000000000E+00 0.  1.
         21   -1    0    0  504  502 -0.00000000000E+00 -0.00000000000E+00 -0.73605068115E+03  0.73605068115E+03  0.00000000000E+00 0.  1.
         21    1    1    2  503  501  0.73340404305E+02  0.53604781073E+02 -0.13591375486E+03  0.16347732631E+03  0.00000000000E+00 0. -1.
         21    1    1    2  504  503 -0.73340404305E+02 -0.53604781073E+02 -0.58283667245E+03  0.58987360867E+03  0.00000000000E+00 0. -1.
<mgrwt>
<rscale>  2 0.90842102E+02</rscale>
<asrwt>0</asrwt>
<pdfrwt beam="1">  1       21 0.26615773E-02 0.90842102E+02</pdfrwt>
<pdfrwt beam="2">  1       21 0.11323858E+00 0.90842102E+02</pdfrwt>
<totfact> 0.47890344E+05</totfact>
</mgrwt>
</event>
<event>
 4    1  0.9138221E+003  0.2181784E+02  0.7546771E-02  0.1711422E+00
         21   -1    0    0  503  501  0.00000000000E+00  0.00000000000E+00  0.11579643593E+03  0.11579643593E+03  0.00000000000E+00 0. -1.
         21   -1    0    0  501  502 -0.00000000000E+00 -0.00000000000E+00 -0.66504424321E+01  0.66504424321E+01  0.00000000000E+00 0. -1.
         21    1    1    2  503  504  0.13656310000E+02  0.17015387085E+02  0.92406547894E+02  0.94947292190E+02  0.00000000000E+00 0. -1.
         21    1    1    2  504  502 -0.13656310000E+02 -0.17015387085E+02  0.16739445601E+02  0.27499586169E+02  0.00000000000E+00 0. -1.
<mgrwt>
<rscale>  2 0.21817841E+02</rscale>
<asrwt>0</asrwt>
<pdfrwt beam="1">  1       21 0.17814835E-01 0.21817841E+02</pdfrwt>
<pdfrwt beam="2">  1       21 0.10231451E-02 0.21817841E+02</pdfrwt>
<totfact> 0.71727417E+07</totfact>
</mgrwt>
</event>
<event>
 4    1  0.9138221E+003  0.2463237E+02  0.7546771E-02  0.1666339E+00
         21   -1    0    0  502  501  0.00000000000E+00  0.00000000000E+00  0.47417250101E+01  0.47417250101E+01  0.00000000000E+00 0.  1.
         21   -1    0    0  504  502 -0.00000000000E+00 -0.00000000000E+00 -0.18572743727E+03  0.18572743727E+03  0.00000000000E+00 0.  1.
         21    1    1    2  503  501  0.24441226696E+02  0.30627078430E+01 -0.14360528041E+03  0.14570254048E+03  0.00000000000E+00 0.  1.
         21    1    1    2  504  503 -0.24441226696E+02 -0.30627078430E+01 -0.37380431848E+02  0.44766621794E+02  0.00000000000E+00 0.  1.
<mgrwt>
<rscale>  2 0.24632372E+02</rscale>
<asrwt>0</asrwt>
<pdfrwt beam="1">  1       21 0.72949609E-03 0.24632372E+02</pdfrwt>
<pdfrwt beam="2">  1       21 0.28573454E-01 0.24632372E+02</pdfrwt>
<totfact> 0.53282776E+07</totfact>
</mgrwt>
</event>
<event>
 4    1  0.9138221E+003  0.2184559E+02  0.7546771E-02  0.1710936E+00
         21   -1    0    0  502  501  0.00000000000E+00  0.00000000000E+00  0.53182917821E+01  0.53182917821E+01  0.00000000000E+00 0.  1.
         21   -1    0    0  504  502 -0.00000000000E+00 -0.00000000000E+00 -0.11226224350E+03  0.11226224350E+03  0.00000000000E+00 0.  1.
         21    1    1    2  503  501  0.16945522388E+02 -0.13786913652E+02 -0.27135622066E+02  0.34836356037E+02  0.00000000000E+00 0. -1.
         21    1    1    2  504  503 -0.16945522388E+02  0.13786913652E+02 -0.79808329648E+02  0.82744179241E+02  0.00000000000E+00 0. -1.
<mgrwt>
<rscale>  2 0.21845588E+02</rscale>
<asrwt>0</asrwt>
<pdfrwt beam="1">  1       21 0.81819878E-03 0.21845588E+02</pdfrwt>
<pdfrwt beam="2">  1       21 0.17271113E-01 0.21845588E+02</pdfrwt>
<totfact> 0.10572421E+08</totfact>
</mgrwt>
</event>
<event>
 4    1  0.9138221E+003  0.2462704E+02  0.7546771E-02  0.1666417E+00
         21   -1    0    0  502  501  0.00000000000E+00  0.00000000000E+00  0.39192995537E+00  0.39192995537E+00  0.00000000000E+00 0.  1.
         21   -1    0    0  504  502 -0.00000000000E+00 -0.00000000000E+00 -0.18862042428E+04  0.18862042428E+04  0.00000000000E+00 0.  1.
         21    1    1    2  503  501 -0.24080498094E+02  0.51595301441E+01 -0.54314702874E+03  0.54370505421E+03  0.00000000000E+00 0. -1.
         21    1    1    2  504  503  0.24080498094E+02 -0.51595301441E+01 -0.13426652841E+04  0.13428911185E+04  0.00000000000E+00 0. -1.
<mgrwt>
<rscale>  2 0.24627041E+02</rscale>
<asrwt>0</asrwt>
<pdfrwt beam="1">  1       21 0.60296427E-04 0.24627041E+02</pdfrwt>
<pdfrwt beam="2">  1       21 0.29018762E+00 0.24627041E+02</pdfrwt>
<totfact> 0.11131565E+07</totfact>
</mgrwt>
</event>
<event>
 4    1  0.9138221E+003  0.2723883E+02  0.7546771E-02  0.1630782E+00
         21   -1    0    0  502  501  0.00000000000E+00  0.00000000000E+00  0.42626880663E+03  0.42626880663E+03  0.00000000000E+00 0. -1.
         21   -1    0    0  504  502 -0.00000000000E+00 -0.00000000000E+00 -0.29107906140E+01  0.29107906140E+01  0.00000000000E+00 0. -1.
         21    1    1    2  503  501  0.15435068798E+02 -0.22443539300E+02  0.34774077548E+03  0.34880596431E+03  0.00000000000E+00 0.  1.
         21    1    1    2  504  503 -0.15435068798E+02  0.22443539300E+02  0.75617240537E+02  0.80373632937E+02  0.00000000000E+00 0.  1.
<mgrwt>
<rscale>  2 0.27238829E+02</rscale>
<asrwt>0</asrwt>
<pdfrwt beam="1">  1       21 0.65579767E-01 0.27238829E+02</pdfrwt>
<pdfrwt beam="2">  1       21 0.44781428E-03 0.27238829E+02</pdfrwt>
<totfact> 0.22814232E+07</totfact>
</mgrwt>
</event>
<event>
 4    1  0.9138221E+003  0.2201851E+02  0.7546771E-02  0.1707932E+00
         21   -1    0    0  504  501  0.00000000000E+00  0.00000000000E+00  0.16250776649E+01  0.16250776649E+01  0.00000000000E+00 0. -1.
         21   -1    0    0  501  502 -0.00000000000E+00 -0.00000000000E+00 -0.12403633997E+04  0.12403633997E+04  0.00000000000E+00 0. -1.
         21    1    1    2  503  502  0.60160581934E+01 -0.21180691545E+02 -0.11605538587E+04  0.11607627120E+04  0.00000000000E+00 0.  1.
         21    1    1    2  504  503 -0.60160581934E+01  0.21180691545E+02 -0.78184463355E+02  0.81225765374E+02  0.00000000000E+00 0.  1.
<mgrwt>
<rscale>  2 0.22018507E+02</rscale>
<asrwt>0</asrwt>
<pdfrwt beam="1">  1       21 0.25001180E-03 0.22018507E+02</pdfrwt>
<pdfrwt beam="2">  1       21 0.19082525E+00 0.22018507E+02</pdfrwt>
<totfact> 0.46773702E+06</totfact>
</mgrwt>
</event>
<event>
 4    1  0.9138221E+003  0.2213530E+02  0.7546771E-02  0.1705923E+00
         21   -1    0    0  502  501  0.00000000000E+00  0.00000000000E+00  0.36010705455E+01  0.36010705455E+01  0.00000000000E+00 0. -1.
         21   -1    0    0  504  502 -0.00000000000E+00 -0.00000000000E+00 -0.20215702016E+03  0.20215702016E+03  0.00000000000E+00 0. -1.
         21    1    1    2  503  501  0.74081620309E+01 -0.20858826258E+02 -0.15810331885E+03  0.15964532856E+03  0.00000000000E+00 0. -1.
         21    1    1    2  504  503 -0.74081620309E+01  0.20858826258E+02 -0.40452630763E+02  0.46112762151E+02  0.00000000000E+00 0. -1.
<mgrwt>
<rscale>  2 0.22135300E+02</rscale>
<asrwt>0</asrwt>
<pdfrwt beam="1">  1       21 0.55401072E-03 0.22135300E+02</pdfrwt>
<pdfrwt beam="2">  1       21 0.31101088E-01 0.22135300E+02</pdfrwt>
<totfact> 0.66901650E+07</totfact>
</mgrwt>
</event>
<event>
 4    1  0.9138221E+003  0.2027785E+02  0.7546771E-02  0.1739859E+00
         21   -1    0    0  502  501  0.00000000000E+00  0.00000000000E+00  0.19209812725E+01  0.19209812725E+01  0.00000000000E+00 0.  1.
         21   -1    0    0  503  502 -0.00000000000E+00 -0.00000000000E+00 -0.24927612052E+03  0.24927612052E+03  0.00000000000E+00 0.  1.
         21    1    1    2  503  504  0.19816204220E+02  0.43022207582E+01 -0.76464676365E+02  0.79107760585E+02  0.00000000000E+00 0. -1.
         21    1    1    2  504  501 -0.19816204220E+02 -0.43022207582E+01 -0.17089046288E+03  0.17208934120E+03  0.00000000000E+00 0. -1.
<mgrwt>
<rscale>  2 0.20277846E+02</rscale>
<asrwt>0</asrwt>
<pdfrwt beam="1">  1       21 0.29553543E-03 0.20277846E+02</pdfrwt>
<pdfrwt beam="2">  1       21 0.38350192E-01 0.20277846E+02</pdfrwt>
<totfact> 0.11139817E+08</totfact>
</mgrwt>
</event>
<event>
 4    1  0.9138221E+003  0.2353785E+02  0.7546771E-02  0.1682937E+00
         21   -1    0    0  502  501  0.00000000000E+00  0.00000000000E+00  0.12518140734E+01  0.12518140734E+01  0.00000000000E+00 0. -1.
         21   -1    0    0  503  502 -0.00000000000E+00 -0.00000000000E+00 -0.52745791071E+03  0.52745791071E+03  0.00000000000E+00 0. -1.
         21    1    1    2  503  504  0.20633252116E+02  0.11326920186E+02 -0.15705908434E+03  0.15881305421E+03  0.00000000000E+00 0. -1.
         21    1    1    2  504  501 -0.20633252116E+02 -0.11326920186E+02 -0.36914701229E+03  0.36989667057E+03  0.00000000000E+00 0. -1.
<mgrwt>
<rscale>  2 0.23537846E+02</rscale>
<asrwt>0</asrwt>
<pdfrwt beam="1">  1       21 0.19258688E-03 0.23537846E+02</pdfrwt>
<pdfrwt beam="2">  1       21 0.81147330E-01 0.23537846E+02</pdfrwt>
<totfact> 0.48878558E+07</totfact>
</mgrwt>
</event>
<event>
 4    1  0.9138221E+003  0.2239119E+02  0.7546771E-02  0.1701573E+00
         21   -1    0    0  502  501  0.00000000000E+00  0.00000000000E+00  0.52006653092E+01  0.52006653092E+01  0.00000000000E+00 0. -1.
         21   -1    0    0  504  502 -0.00000000000E+00 -0.00000000000E+00 -0.12837958975E+03  0.12837958975E+03  0.00000000000E+00 0. -1.
         21    1    1    2  503  501  0.19159558875E+02 -0.11587791596E+02 -0.94922330428E+02  0.97527505988E+02  0.00000000000E+00 0. -1.
         21    1    1    2  504  503 -0.19159558875E+02  0.11587791596E+02 -0.28256594012E+02  0.36052749071E+02  0.00000000000E+00 0. -1.
<mgrwt>
<rscale>  2 0.22391195E+02</rscale>
<asrwt>0</asrwt>
<pdfrwt beam="1">  1       21 0.80010235E-03 0.22391195E+02</pdfrwt>
<pdfrwt beam="2">  1       21 0.19750706E-01 0.22391195E+02</pdfrwt>
<totfact> 0.87274828E+07</totfact>
</mgrwt>
</event>
<event>
 4    1  0.9138221E+003  0.2141866E+02  0.7546771E-02  0.1718504E+00
         21   -1    0    0  504  501  0.00000000000E+00  0.00000000000E+00  0.50181282211E+01  0.50181282211E+01  0.00000000000E+00 0.  1.
         21   -1    0    0  501  502 -0.00000000000E+00 -0.00000000000E+00 -0.18879121340E+03  0.18879121340E+03  0.00000000000E+00 0.  1.
         21    1    1    2  503  502  0.17188741680E+02 -0.12779127046E+02 -0.22293090290E+02  0.30915057873E+02  0.00000000000E+00 0. -1.
         21    1    1    2  504  503 -0.17188741680E+02  0.12779127046E+02 -0.16147999489E+03  0.16289428375E+03  0.00000000000E+00 0. -1.
<mgrwt>
<rscale>  2 0.21418658E+02</rscale>
<asrwt>0</asrwt>
<pdfrwt beam="1">  1       21 0.77201978E-03 0.21418658E+02</pdfrwt>
<pdfrwt beam="2">  1       21 0.29044800E-01 0.21418658E+02</pdfrwt>
<totfact> 0.45935948E+07</totfact>
</mgrwt>
</event>
<event>
 4    1  0.9138221E+003  0.2052878E+02  0.7546771E-02  0.1735013E+00
         21   -1    0    0  502  501  0.00000000000E+00  0.00000000000E+00  0.44573827658E+01  0.44573827658E+01  0.00000000000E+00 0.  1.
         21   -1    0    0  504  502 -0.00000000000E+00 -0.00000000000E+00 -0.15516501717E+03  0.15516501717E+03  0.00000000000E+00 0.  1.
         21    1    1    2  503  501 -0.38576126677E+01  0.20163072800E+02 -0.12523870419E+03  0.12691006149E+03  0.00000000000E+00 0.  1.
         21    1    1    2  504  503  0.38576126677E+01 -0.20163072800E+02 -0.25468930209E+02  0.32712338440E+02  0.00000000000E+00 0.  1.
<mgrwt>
<rscale>  2 0.20528777E+02</rscale>
<asrwt>0</asrwt>
<pdfrwt beam="1">  1       21 0.68575132E-03 0.20528777E+02</pdfrwt>
<pdfrwt beam="2">  1       21 0.23871537E-01 0.20528777E+02</pdfrwt>
<totfact> 0.76886799E+07</totfact>
</mgrwt>
</event>
<event>
 4    1  0.9138221E+003  0.2111421E+02  0.7546771E-02  0.1724037E+00
         21   -1    0    0  502  501  0.00000000000E+00  0.00000000000E+00  0.25254210325E+02  0.25254210325E+02  0.00000000000E+00 0.  1.
         21   -1    0    0  504  502 -0.00000000000E+00 -0.00000000000E+00 -0.41774919520E+02  0.41774919520E+02  0.00000000000E+00 0.  1.
         21    1    1    2  503  501 -0.98376706531E+00  0.21091284388E+02  0.17206927454E+02  0.27237628883E+02  0.00000000000E+00 0. -1.
         21    1    1    2  504  503  0.98376706531E+00 -0.21091284388E+02 -0.33727636650E+02  0.39791500962E+02  0.00000000000E+00 0. -1.
<mgrwt>
<rscale>  2 0.21114215E+02</rscale>
<asrwt>0</asrwt>
<pdfrwt beam="1">  1       21 0.38852631E-02 0.21114215E+02</pdfrwt>
<pdfrwt beam="2">  1       21 0.64269107E-02 0.21114215E+02</pdfrwt>
<totfact> 0.50006329E+07</totfact>
</mgrwt>
</event>
<event>
 4    1  0.9138221E+003  0.2370332E+02  0.7546771E-02  0.1680357E+00
         21   -1    0    0  502  501  0.00000000000E+00  0.00000000000E+00  0.70193794489E+01  0.70193794489E+01  0.00000000000E+00 0. -1.
         21   -1    0    0  503  502 -0.00000000000E+00 -0.00000000000E+00 -0.11970473708E+03  0.11970473708E+03  0.00000000000E+00 0. -1.
         21    1    1    2  503  504 -0.11565841983E+02  0.20690064046E+02 -0.92814980310E+02  0.95793883004E+02  0.00000000000E+00 0.  1.
         21    1    1    2  504  501  0.11565841983E+02 -0.20690064046E+02 -0.19870377320E+02  0.30930233524E+02  0.00000000000E+00 0.  1.
<mgrwt>
<rscale>  2 0.23703322E+02</rscale>
<asrwt>0</asrwt>
<pdfrwt beam="1">  1       21 0.10799046E-02 0.23703322E+02</pdfrwt>
<pdfrwt beam="2">  1       21 0.18416113E-01 0.23703322E+02</pdfrwt>
<totfact> 0.63834188E+07</totfact>
</mgrwt>
</event>
<event>
 4    1  0.9138221E+003  0.2130283E+02  0.7546771E-02  0.1720596E+00
         21   -1    0    0  504  501  0.00000000000E+00  0.00000000000E+00  0.40274199246E+03  0.40274199246E+03  0.00000000000E+00 0.  1.
         21   -1    0    0  501  502 -0.00000000000E+00 -0.00000000000E+00 -0.15611301286E+01  0.15611301286E+01  0.00000000000E+00 0.  1.
         21    1    1    2  503  502 -0.21265308010E+02  0.12638486034E+01  0.30721722058E+03  0.30795491758E+03  0.00000000000E+00 0. -1.
         21    1    1    2  504  503  0.21265308010E+02 -0.12638486034E+01  0.93963641752E+02  0.96348205014E+02  0.00000000000E+00 0. -1.
<mgrwt>
<rscale>  2 0.21302832E+02</rscale>
<asrwt>0</asrwt>
<pdfrwt beam="1">  1       21 0.61960223E-01 0.21302832E+02</pdfrwt>
<pdfrwt beam="2">  1       21 0.24017419E-03 0.21302832E+02</pdfrwt>
<totfact> 0.60385825E+07</totfact>
</mgrwt>
</event>
<event>
 4    1  0.9138221E+003  0.2263518E+02  0.7546771E-02  0.1697493E+00
         21   -1    0    0  502  501  0.00000000000E+00  0.00000000000E+00  0.11338719638E+03  0.11338719638E+03  0.00000000000E+00 0.  1.
         21   -1    0    0  503  502 -0.00000000000E+00 -0.00000000000E+00 -0.65270784427E+01  0.65270784427E+01  0.00000000000E+00 0.  1.
         21    1    1    2  503  504  0.14173137087E+02  0.17648618026E+02  0.20170619904E+02  0.30318401020E+02  0.00000000000E+00 0. -1.
         21    1    1    2  504  501 -0.14173137087E+02 -0.17648618026E+02  0.86689498029E+02  0.89595873798E+02  0.00000000000E+00 0. -1.
<mgrwt>
<rscale>  2 0.22635184E+02</rscale>
<asrwt>0</asrwt>
<pdfrwt beam="1">  1       21 0.17444183E-01 0.22635184E+02</pdfrwt>
<pdfrwt beam="2">  1       21 0.10041660E-02 0.22635184E+02</pdfrwt>
<totfact> 0.77255769E+07</totfact>
</mgrwt>
</event>
<event>
 4    1  0.9138221E+003  0.2039510E+02  0.7546771E-02  0.1737583E+00
         21   -1    0    0  504  501  0.00000000000E+00  0.00000000000E+00  0.14000502451E+03  0.14000502451E+03  0.00000000000E+00 0. -1.
         21   -1    0    0  501  502 -0.00000000000E+00 -0.00000000000E+00 -0.50578169936E+01  0.50578169936E+01  0.00000000000E+00 0. -1.
         21    1    1    2  503  502  0.22723198051E+01 -0.20268115562E+02  0.11406257082E+03  0.11587161002E+03  0.00000000000E+00 0. -1.
         21    1    1    2  504  503 -0.22723198051E+01  0.20268115562E+02  0.20884636691E+02  0.29191231482E+02  0.00000000000E+00 0. -1.
<mgrwt>
<rscale>  2 0.20395096E+02</rscale>
<asrwt>0</asrwt>
<pdfrwt beam="1">  1       21 0.21539232E-01 0.20395096E+02</pdfrwt>
<pdfrwt beam="2">  1       21 0.77812580E-03 0.20395096E+02</pdfrwt>
<totfact> 0.76228560E+07</totfact>
</mgrwt>
</event>
<event>
 4    1  0.9138221E+003  0.2589898E+02  0.7546771E-02  0.1648415E+00
         21   -1    0    0  503  501  0.00000000000E+00  0.00000000000E+00  0.48494739995E+01  0.48494739995E+01  0.00000000000E+00 0.  1.
         21   -1    0    0  501  502 -0.00000000000E+00 -0.00000000000E+00 -0.15743202052E+03  0.15743202052E+03  0.00000000000E+00 0.  1.
         21    1    1    2  503  504 -0.20833300912E+02 -0.15386063551E+02 -0.10456590724E+03  0.10772551385E+03  0.00000000000E+00 0.  1.
         21    1    1    2  504  502  0.20833300912E+02  0.15386063551E+02 -0.48016639284E+02  0.54555980667E+02  0.00000000000E+00 0.  1.
<mgrwt>
<rscale>  2 0.25898984E+02</rscale>
<asrwt>0</asrwt>
<pdfrwt beam="1">  1       21 0.74607295E-03 0.25898984E+02</pdfrwt>
<pdfrwt beam="2">  1       21 0.24220310E-01 0.25898984E+02</pdfrwt>
<totfact> 0.70199284E+07</totfact>
</mgrwt>
</event>
<event>
 4    1  0.9138221E+003  0.2059308E+02  0.7546771E-02  0.1733785E+00
         21   -1    0    0  504  501  0.00000000000E+00  0.00000000000E+00  0.41686788933E+02  0.41686788933E+02  0.00000000000E+00 0.  1.
         21   -1    0    0  501  502 -0.00000000000E+00 -0.00000000000E+00 -0.16331704083E+02  0.16331704083E+02  0.00000000000E+00 0.  1.
         21    1    1    2  503  502 -0.53495680176E+01  0.19886099584E+02 -0.51367872153E+01  0.21224076364E+02  0.00000000000E+00 0.  1.
         21    1    1    2  504  503  0.53495680176E+01 -0.19886099584E+02  0.30491872066E+02  0.36794416651E+02  0.00000000000E+00 0.  1.
<mgrwt>
<rscale>  2 0.20593077E+02</rscale>
<asrwt>0</asrwt>
<pdfrwt beam="1">  1       21 0.64133521E-02 0.20593077E+02</pdfrwt>
<pdfrwt beam="2">  1       21 0.25125699E-02 0.20593077E+02</pdfrwt>
<totfact> 0.98091244E+07</totfact>
</mgrwt>
</event>
<event>
 4    1  0.9138221E+003  0.2727134E+02  0.7546771E-02  0.1630370E+00
         21   -1    0    0  503  501  0.00000000000E+00  0.00000000000E+00  0.10840089224E+03  0.10840089224E+03  0.00000000000E+00 0.  1.
         21   -1    0    0  501  502 -0.00000000000E+00 -0.00000000000E+00 -0.94791473298E+01  0.94791473298E+01  0.00000000000E+00 0.  1.
         21    1    1    2  503  504 -0.16529612439E+02 -0.21690967168E+02  0.18484386302E+02  0.32945389374E+02  0.00000000000E+00 0.  1.
         21    1    1    2  504  502  0.16529612439E+02  0.21690967168E+02  0.80437358612E+02  0.84934650199E+02  0.00000000000E+00 0.  1.
<mgrwt>
<rscale>  2 0.27271343E+02</rscale>
<asrwt>0</asrwt>
<pdfrwt beam="1">  1       21 0.16677059E-01 0.27271343E+02</pdfrwt>
<pdfrwt beam="2">  1       21 0.14583304E-02 0.27271343E+02</pdfrwt>
<totfact> 0.49697528E+07</totfact>
</mgrwt>
</event>
<event>
 4    1  0.9138221E+003  0.3191240E+02  0.7546771E-02  0.1577863E+00
         21   -1    0    0  502  501  0.00000000000E+00  0.00000000000E+00  0.12482668400E+01  0.12482668400E+01  0.00000000000E+00 0.  1.
         21   -1    0    0  504  502 -0.00000000000E+00 -0.00000000000E+00 -0.19247150727E+04  0.19247150727E+04  0.00000000000E+00 0.  1.
         21    1    1    2  503  501  0.25050835882E+02 -0.19770107289E+02 -0.16926598483E+04  0.16929606504E+04  0.00000000000E+00 0. -1.
         21    1    1    2  504  503 -0.25050835882E+02  0.19770107289E+02 -0.23080695754E+03  0.23300268919E+03  0.00000000000E+00 0. -1.
<mgrwt>
<rscale>  2 0.31912404E+02</rscale>
<asrwt>0</asrwt>
<pdfrwt beam="1">  1       21 0.19204133E-03 0.31912404E+02</pdfrwt>
<pdfrwt beam="2">  1       21 0.29610958E+00 0.31912404E+02</pdfrwt>
<totfact> 0.19746729E+06</totfact>
</mgrwt>
</event>
<event>
 4    1  0.9138221E+003  0.2756389E+02  0.7546771E-02  0.1626691E+00
         21   -1    0    0  504  501  0.00000000000E+00  0.00000000000E+00  0.99727671930E+02  0.99727671930E+02  0.00000000000E+00 0. -1.
         21   -1    0    0  501  502 -0.00000000000E+00 -0.00000000000E+00 -0.99599883381E+01  0.99599883381E+01  0.00000000000E+00 0. -1.
         21    1    1    2  503  502 -0.27469083290E+02 -0.22842352373E+01  0.71475833834E+02  0.76606547303E+02  0.00000000000E+00 0.  1.
         21    1    1    2  504  503  0.27469083290E+02  0.22842352373E+01  0.18291849757E+02  0.33081112964E+02  0.00000000000E+00 0.  1.
<mgrwt>
<rscale>  2 0.27563894E+02</rscale>
<asrwt>0</asrwt>
<pdfrwt beam="1">  1       21 0.15342718E-01 0.27563894E+02</pdfrwt>
<pdfrwt beam="2">  1       21 0.15323060E-02 0.27563894E+02</pdfrwt>
<totfact> 0.53329967E+07</totfact>
</mgrwt>
</event>
<event>
 4    1  0.9138221E+003  0.2110067E+02  0.7546771E-02  0.1724286E+00
         21   -1    0    0  502  501  0.00000000000E+00  0.00000000000E+00  0.60670315593E+02  0.60670315593E+02  0.00000000000E+00 0. -1.
         21   -1    0    0  504  502 -0.00000000000E+00 -0.00000000000E+00 -0.91082538989E+01  0.91082538989E+01  0.00000000000E+00 0. -1.
         21    1    1    2  503  501 -0.16749414590E+02 -0.12833371876E+02  0.10402589869E+02  0.23525564793E+02  0.00000000000E+00 0.  1.
         21    1    1    2  504  503  0.16749414590E+02  0.12833371876E+02  0.41159471825E+02  0.46253004699E+02  0.00000000000E+00 0.  1.
<mgrwt>
<rscale>  2 0.21100671E+02</rscale>
<asrwt>0</asrwt>
<pdfrwt beam="1">  1       21 0.93338944E-02 0.21100671E+02</pdfrwt>
<pdfrwt beam="2">  1       21 0.14012699E-02 0.21100671E+02</pdfrwt>
<totfact> 0.13100643E+08</totfact>
</mgrwt>
</event>
<event>
 4    1  0.9138221E+003  0.2658534E+02  0.7546771E-02  0.1639223E+00
         21   -1    0    0  503  501  0.00000000000E+00  0.00000000000E+00  0.89931836032E+01  0.89931836032E+01  0.00000000000E+00 0.  1.
         21   -1    0    0  501  502 -0.00000000000E+00 -0.00000000000E+00 -0.10484215691E+03  0.10484215691E+03  0.00000000000E+00 0.  1.
         21    1    1    2  503  504  0.81113798733E+01 -0.25317693686E+02 -0.76405556903E+02  0.80898635481E+02  0.00000000000E+00 0.  1.
         21    1    1    2  504  502 -0.81113798733E+01  0.25317693686E+02 -0.19443416407E+02  0.32936705036E+02  0.00000000000E+00 0.  1.
<mgrwt>
<rscale>  2 0.26585336E+02</rscale>
<asrwt>0</asrwt>
<pdfrwt beam="1">  1       21 0.13835667E-02 0.26585336E+02</pdfrwt>
<pdfrwt beam="2">  1       21 0.16129562E-01 0.26585336E+02</pdfrwt>
<totfact> 0.56709955E+07</totfact>
</mgrwt>
</event>
<event>
 4    1  0.9138221E+003  0.3017399E+02  0.7546771E-02  0.1596173E+00
         21   -1    0    0  502  501  0.00000000000E+00  0.00000000000E+00  0.58963932777E+01  0.58963932777E+01  0.00000000000E+00 0.  1.
         21   -1    0    0  504  502 -0.00000000000E+00 -0.00000000000E+00 -0.24199442082E+03  0.24199442082E+03  0.00000000000E+00 0.  1.
         21    1    1    2  503  501  0.26818124727E+02 -0.13829598778E+02 -0.19261452954E+03  0.19496365458E+03  0.00000000000E+00 0. -1.
         21    1    1    2  504  503 -0.26818124727E+02  0.13829598778E+02 -0.43483497994E+02  0.52927159512E+02  0.00000000000E+00 0. -1.
<mgrwt>
<rscale>  2 0.30173989E+02</rscale>
<asrwt>0</asrwt>
<pdfrwt beam="1">  1       21 0.90713763E-03 0.30173989E+02</pdfrwt>
<pdfrwt beam="2">  1       21 0.37229903E-01 0.30173989E+02</pdfrwt>
<totfact> 0.24559170E+07</totfact>
</mgrwt>
</event>
<event>
 4    1  0.9138221E+003  0.3630457E+02  0.7546771E-02  0.1537312E+00
         21   -1    0    0  504  501  0.00000000000E+00  0.00000000000E+00  0.11171187036E+03  0.11171187036E+03  0.00000000000E+00 0. -1.
         21   -1    0    0  501  502 -0.00000000000E+00 -0.00000000000E+00 -0.18703519186E+02  0.18703519186E+02  0.00000000000E+00 0. -1.
         21    1    1    2  503  502  0.60184621122E+01 -0.35802231399E+02  0.68834267298E+01  0.36951362937E+02  0.00000000000E+00 0. -1.
         21    1    1    2  504  503 -0.60184621122E+01  0.35802231399E+02  0.86124924446E+02  0.93464026611E+02  0.00000000000E+00 0. -1.
<mgrwt>
<rscale>  2 0.36304568E+02</rscale>
<asrwt>0</asrwt>
<pdfrwt beam="1">  1       21 0.17186441E-01 0.36304568E+02</pdfrwt>
<pdfrwt beam="2">  1       21 0.28774646E-02 0.36304568E+02</pdfrwt>
<totfact> 0.17354092E+07</totfact>
</mgrwt>
</event>
<event>
 4    1  0.9138221E+003  0.3320692E+02  0.7546771E-02  0.1565125E+00
         21   -1    0    0  502  501  0.00000000000E+00  0.00000000000E+00  0.34366479109E+02  0.34366479109E+02  0.00000000000E+00 0.  1.
         21   -1    0    0  503  502 -0.00000000000E+00 -0.00000000000E+00 -0.36619090474E+02  0.36619090474E+02  0.00000000000E+00 0.  1.
         21    1    1    2  503  504 -0.32714133923E+02 -0.56995608188E+01 -0.13613365991E+02  0.35889041300E+02  0.00000000000E+00 0.  1.
         21    1    1    2  504  501  0.32714133923E+02  0.56995608188E+01  0.11360754625E+02  0.35096528283E+02  0.00000000000E+00 0.  1.
<mgrwt>
<rscale>  2 0.33206920E+02</rscale>
<asrwt>0</asrwt>
<pdfrwt beam="1">  1       21 0.52871506E-02 0.33206920E+02</pdfrwt>
<pdfrwt beam="2">  1       21 0.56337062E-02 0.33206920E+02</pdfrwt>
<totfact> 0.42136947E+07</totfact>
</mgrwt>
</event>
<event>
 4    1  0.9138221E+003  0.3736587E+02  0.7546771E-02  0.1528542E+00
         21   -1    0    0  504  501  0.00000000000E+00  0.00000000000E+00  0.54783035737E+01  0.54783035737E+01  0.00000000000E+00 0.  1.
         21   -1    0    0  501  502 -0.00000000000E+00 -0.00000000000E+00 -0.37121976159E+03  0.37121976159E+03  0.00000000000E+00 0.  1.
         21    1    1    2  503  502  0.17855156841E+02  0.32823796021E+02 -0.77420720944E+02  0.85966134277E+02  0.00000000000E+00 0.  1.
         21    1    1    2  504  503 -0.17855156841E+02 -0.32823796021E+02 -0.28832073708E+03  0.29073193089E+03  0.00000000000E+00 0.  1.
<mgrwt>
<rscale>  2 0.37365870E+02</rscale>
<asrwt>0</asrwt>
<pdfrwt beam="1">  1       21 0.84281592E-03 0.37365870E+02</pdfrwt>
<pdfrwt beam="2">  1       21 0.57110733E-01 0.37365870E+02</pdfrwt>
<totfact> 0.12316679E+07</totfact>
</mgrwt>
</event>
<event>
 4    1  0.9138221E+003  0.2803370E+02  0.7546771E-02  0.1620899E+00
         21   -1    0    0  504  501  0.00000000000E+00  0.00000000000E+00  0.30174626035E+02  0.30174626035E+02  0.00000000000E+00 0. -1.
         21   -1    0    0  501  502 -0.00000000000E+00 -0.00000000000E+00 -0.35026610143E+02  0.35026610143E+02  0.00000000000E+00 0. -1.
         21    1    1    2  503  502  0.11309761226E+02  0.25651072817E+02 -0.18934651607E+02  0.33829118628E+02  0.00000000000E+00 0.  1.
         21    1    1    2  504  503 -0.11309761226E+02 -0.25651072817E+02  0.14082667499E+02  0.31372117550E+02  0.00000000000E+00 0.  1.
<mgrwt>
<rscale>  2 0.28033698E+02</rscale>
<asrwt>0</asrwt>
<pdfrwt beam="1">  1       21 0.46422501E-02 0.28033698E+02</pdfrwt>
<pdfrwt beam="2">  1       21 0.53887093E-02 0.28033698E+02</pdfrwt>
<totfact> 0.53782028E+07</totfact>
</mgrwt>
</event>
<event>
 4    1  0.9138221E+003  0.5702938E+02  0.7546771E-02  0.1410738E+00
         21   -1    0    0  504  501  0.00000000000E+00  0.00000000000E+00  0.12856712498E+04  0.12856712498E+04  0.00000000000E+00 0.  1.
         21   -1    0    0  501  502 -0.00000000000E+00 -0.00000000000E+00 -0.45724577328E+01  0.45724577328E+01  0.00000000000E+00 0.  1.
         21    1    1    2  503  502 -0.32517747814E+02  0.46850256769E+02  0.20935179649E+03  0.21698047188E+03  0.00000000000E+00 0.  1.
         21    1    1    2  504  503  0.32517747814E+02 -0.46850256769E+02  0.10717469956E+04  0.10732632357E+04  0.00000000000E+00 0.  1.
<mgrwt>
<rscale>  2 0.57029383E+02</rscale>
<asrwt>0</asrwt>
<pdfrwt beam="1">  1       21 0.19779529E+00 0.57029383E+02</pdfrwt>
<pdfrwt beam="2">  1       21 0.70345606E-03 0.57029383E+02</pdfrwt>
<totfact> 0.94651191E+05</totfact>
</mgrwt>
</event>
<event>
 4    1  0.9138221E+003  0.2728446E+02  0.7546771E-02  0.1630203E+00
         21   -1    0    0  504  501  0.00000000000E+00  0.00000000000E+00  0.61433151612E+02  0.61433151612E+02  0.00000000000E+00 0. -1.
         21   -1    0    0  501  502 -0.00000000000E+00 -0.00000000000E+00 -0.21004951161E+02  0.21004951161E+02  0.00000000000E+00 0. -1.
         21    1    1    2  503  502 -0.19583577459E+02 -0.18998025809E+02  0.47025267074E+02  0.54367428062E+02  0.00000000000E+00 0. -1.
         21    1    1    2  504  503  0.19583577459E+02  0.18998025809E+02 -0.65970666227E+01  0.28070674712E+02  0.00000000000E+00 0. -1.
<mgrwt>
<rscale>  2 0.27284455E+02</rscale>
<asrwt>0</asrwt>
<pdfrwt beam="1">  1       21 0.94512540E-02 0.27284455E+02</pdfrwt>
<pdfrwt beam="2">  1       21 0.32315310E-02 0.27284455E+02</pdfrwt>
<totfact> 0.37899323E+07</totfact>
</mgrwt>
</event>
<event>
 4    1  0.9138221E+003  0.2238389E+02  0.7546771E-02  0.1701696E+00
         21   -1    0    0  503  501  0.00000000000E+00  0.00000000000E+00  0.46501656036E+02  0.46501656036E+02  0.00000000000E+00 0.  1.
         21   -1    0    0  501  502 -0.00000000000E+00 -0.00000000000E+00 -0.14261856548E+02  0.14261856548E+02  0.00000000000E+00 0.  1.
         21    1    1    2  503  504  0.15455634744E+02 -0.16191417639E+02  0.31143161663E+02  0.38352772636E+02  0.00000000000E+00 0.  1.
         21    1    1    2  504  502 -0.15455634744E+02  0.16191417639E+02  0.10966378239E+01  0.22410739948E+02  0.00000000000E+00 0.  1.
<mgrwt>
<rscale>  2 0.22383893E+02</rscale>
<asrwt>0</asrwt>
<pdfrwt beam="1">  1       21 0.71541009E-02 0.22383893E+02</pdfrwt>
<pdfrwt beam="2">  1       21 0.21941318E-02 0.22383893E+02</pdfrwt>
<totfact> 0.10381181E+08</totfact>
</mgrwt>
</event>
<event>
 4    1  0.9138221E+003  0.2012786E+02  0.7546771E-02  0.1742797E+00
         21   -1    0    0  502  501  0.00000000000E+00  0.00000000000E+00  0.34974147713E+00  0.34974147713E+00  0.00000000000E+00 0.  1.
         21   -1    0    0  504  502 -0.00000000000E+00 -0.00000000000E+00 -0.13804759804E+04  0.13804759804E+04  0.00000000000E+00 0.  1.
         21    1    1    2  503  501 -0.16592122630E+02 -0.11394391773E+02 -0.96699485040E+03  0.96720430695E+03  0.00000000000E+00 0. -1.
         21    1    1    2  504  503  0.16592122630E+02  0.11394391773E+02 -0.41313138857E+03  0.41362141497E+03  0.00000000000E+00 0. -1.
<mgrwt>
<rscale>  2 0.20127859E+02</rscale>
<asrwt>0</asrwt>
<pdfrwt beam="1">  1       21 0.53805239E-04 0.20127859E+02</pdfrwt>
<pdfrwt beam="2">  1       21 0.21238543E+00 0.20127859E+02</pdfrwt>
<totfact> 0.31323483E+07</totfact>
</mgrwt>
</event>
<event>
 4    1  0.9138221E+003  0.3781526E+02  0.7546771E-02  0.1524933E+00
         21   -1    0    0  504  501  0.00000000000E+00  0.00000000000E+00  0.14400311350E+03  0.14400311350E+03  0.00000000000E+00 0.  1.
         21   -1    0    0  501  502 -0.00000000000E+00 -0.00000000000E+00 -0.15394660217E+02  0.15394660217E+02  0.00000000000E+00 0.  1.
         21    1    1    2  503  502  0.17313730236E+01 -0.37775600357E+02  0.11178710041E+03  0.11800995489E+03  0.00000000000E+00 0.  1.
         21    1    1    2  504  503 -0.17313730236E+01  0.37775600357E+02  0.16821352874E+02  0.41387818829E+02  0.00000000000E+00 0.  1.
<mgrwt>
<rscale>  2 0.37815257E+02</rscale>
<asrwt>0</asrwt>
<pdfrwt beam="1">  1       21 0.22154324E-01 0.37815257E+02</pdfrwt>
<pdfrwt beam="2">  1       21 0.23684094E-02 0.37815257E+02</pdfrwt>
<totfact> 0.15122535E+07</totfact>
</mgrwt>
</event>
<event>
 4    1  0.9138221E+003  0.3828222E+02  0.7546771E-02  0.1521247E+00
         21   -1    0    0  502  501  0.00000000000E+00  0.00000000000E+00  0.12152694633E+03  0.12152694633E+03  0.00000000000E+00 0.  1.
         21   -1    0    0  503  502 -0.00000000000E+00 -0.00000000000E+00 -0.17619944646E+02  0.17619944646E+02  0.00000000000E+00 0.  1.
         21    1    1    2  503  504  0.16473774330E+02 -0.34556374466E+02  0.12869020507E+02  0.40387373593E+02  0.00000000000E+00 0.  1.
         21    1    1    2  504  501 -0.16473774330E+02  0.34556374466E+02  0.91037981178E+02  0.98759517383E+02  0.00000000000E+00 0.  1.
<mgrwt>
<rscale>  2 0.38282219E+02</rscale>
<asrwt>0</asrwt>
<pdfrwt beam="1">  1       21 0.18696453E-01 0.38282219E+02</pdfrwt>
<pdfrwt beam="2">  1       21 0.27107608E-02 0.38282219E+02</pdfrwt>
<totfact> 0.16577328E+07</totfact>
</mgrwt>
</event>
<event>
 4    1  0.9138221E+003  0.2169915E+02  0.7546771E-02  0.1713508E+00
         21   -1    0    0  502  501  0.00000000000E+00  0.00000000000E+00  0.12353288072E+03  0.12353288072E+03  0.00000000000E+00 0.  1.
         21   -1    0    0  503  502 -0.00000000000E+00 -0.00000000000E+00 -0.46216271371E+01  0.46216271371E+01  0.00000000000E+00 0.  1.
         21    1    1    2  503  504  0.34598810235E+01 -0.21421539904E+02  0.32628967396E+02  0.39185490451E+02  0.00000000000E+00 0. -1.
         21    1    1    2  504  501 -0.34598810235E+01  0.21421539904E+02  0.86282286186E+02  0.88969017405E+02  0.00000000000E+00 0. -1.
<mgrwt>
<rscale>  2 0.21699151E+02</rscale>
<asrwt>0</asrwt>
<pdfrwt beam="1">  1       21 0.19005056E-01 0.21699151E+02</pdfrwt>
<pdfrwt beam="2">  1       21 0.71101965E-03 0.21699151E+02</pdfrwt>
<totfact> 0.11025613E+08</totfact>
</mgrwt>
</event>
<event>
 4    1  0.9138221E+003  0.2474281E+02  0.7546771E-02  0.1664724E+00
         21   -1    0    0  503  501  0.00000000000E+00  0.00000000000E+00  0.83853085170E+02  0.83853085170E+02  0.00000000000E+00 0.  1.
         21   -1    0    0  501  502 -0.00000000000E+00 -0.00000000000E+00 -0.16023686485E+02  0.16023686485E+02  0.00000000000E+00 0.  1.
         21    1    1    2  503  504  0.18751436612E+01  0.24671657537E+02  0.70759800734E+02  0.74961031538E+02  0.00000000000E+00 0. -1.
         21    1    1    2  504  502 -0.18751436612E+01 -0.24671657537E+02 -0.29304020489E+01  0.24915740116E+02  0.00000000000E+00 0. -1.
<mgrwt>
<rscale>  2 0.24742814E+02</rscale>
<asrwt>0</asrwt>
<pdfrwt beam="1">  1       21 0.12900474E-01 0.24742814E+02</pdfrwt>
<pdfrwt beam="2">  1       21 0.24651826E-02 0.24742814E+02</pdfrwt>
<totfact> 0.33613155E+07</totfact>
</mgrwt>
</event>
<event>
 4    1  0.9138221E+003  0.5383098E+02  0.7546771E-02  0.1425710E+00
         21   -1    0    0  504  501  0.00000000000E+00  0.00000000000E+00  0.68863129871E+01  0.68863129871E+01  0.00000000000E+00 0.  1.
         21   -1    0    0  501  502 -0.00000000000E+00 -0.00000000000E+00 -0.53187266344E+03  0.53187266344E+03  0.00000000000E+00 0.  1.
         21    1    1    2  503  502 -0.50932848509E+02 -0.17424678022E+02 -0.38559381769E+03  0.38933323349E+03  0.00000000000E+00 0.  1.
         21    1    1    2  504  503  0.50932848509E+02  0.17424678022E+02 -0.13939253277E+03  0.14942574294E+03  0.00000000000E+00 0.  1.
<mgrwt>
<rscale>  2 0.53830980E+02</rscale>
<asrwt>0</asrwt>
<pdfrwt beam="1">  1       21 0.10594326E-02 0.53830980E+02</pdfrwt>
<pdfrwt beam="2">  1       21 0.81826574E-01 0.53830980E+02</pdfrwt>
<totfact> 0.42352853E+06</totfact>
</mgrwt>
</event>
<event>
 4    1  0.9138221E+003  0.4316004E+02  0.7546771E-02  0.1486166E+00
         21   -1    0    0  502  501  0.00000000000E+00  0.00000000000E+00  0.60295831811E+02  0.60295831811E+02  0.00000000000E+00 0.  1.
         21   -1    0    0  503  502 -0.00000000000E+00 -0.00000000000E+00 -0.41538831971E+02  0.41538831971E+02  0.00000000000E+00 0.  1.
         21    1    1    2  503  504 -0.33877440532E+02 -0.26741502639E+02  0.35153856668E+02  0.55664913357E+02  0.00000000000E+00 0.  1.
         21    1    1    2  504  501  0.33877440532E+02  0.26741502639E+02 -0.16396856828E+02  0.46169750425E+02  0.00000000000E+00 0.  1.
<mgrwt>
<rscale>  2 0.43160039E+02</rscale>
<asrwt>0</asrwt>
<pdfrwt beam="1">  1       21 0.92762818E-02 0.43160039E+02</pdfrwt>
<pdfrwt beam="2">  1       21 0.63905895E-02 0.43160039E+02</pdfrwt>
<totfact> 0.14186724E+07</totfact>
</mgrwt>
</event>
<event>
 4    1  0.9138221E+003  0.2920129E+02  0.7546771E-02  0.1607089E+00
         21   -1    0    0  502  501  0.00000000000E+00  0.00000000000E+00  0.11301422246E+03  0.11301422246E+03  0.00000000000E+00 0. -1.
         21   -1    0    0  503  502 -0.00000000000E+00 -0.00000000000E+00 -0.78362139985E+01  0.78362139985E+01  0.00000000000E+00 0. -1.
         21    1    1    2  503  504  0.34016019792E+00 -0.29199308205E+02  0.64233465492E+02  0.70559573395E+02  0.00000000000E+00 0.  1.
         21    1    1    2  504  501 -0.34016019792E+00  0.29199308205E+02  0.40944542965E+02  0.50290863059E+02  0.00000000000E+00 0.  1.
<mgrwt>
<rscale>  2 0.29201290E+02</rscale>
<asrwt>0</asrwt>
<pdfrwt beam="1">  1       21 0.17386802E-01 0.29201290E+02</pdfrwt>
<pdfrwt beam="2">  1       21 0.12055715E-02 0.29201290E+02</pdfrwt>
<totfact> 0.62791507E+07</totfact>
</mgrwt>
</event>
<event>
 4    1  0.9138221E+003  0.2005664E+02  0.7546771E-02  0.1744204E+00
         21   -1    0    0  502  501  0.00000000000E+00  0.00000000000E+00  0.19852768215E+03  0.19852768215E+03  0.00000000000E+00 0. -1.
         21   -1    0    0  504  502 -0.00000000000E+00 -0.00000000000E+00 -0.27387309875E+01  0.27387309875E+01  0.00000000000E+00 0. -1.
         21    1    1    2  503  501  0.43278935048E+01  0.19584134515E+02  0.46567015143E+02  0.50702622084E+02  0.00000000000E+00 0.  1.
         21    1    1    2  504  503 -0.43278935048E+01 -0.19584134515E+02  0.14922193602E+03  0.15056379105E+03  0.00000000000E+00 0.  1.
<mgrwt>
<rscale>  2 0.20056644E+02</rscale>
<asrwt>0</asrwt>
<pdfrwt beam="1">  1       21 0.30542709E-01 0.20056644E+02</pdfrwt>
<pdfrwt beam="2">  1       21 0.42134338E-03 0.20056644E+02</pdfrwt>
<totfact> 0.10065068E+08</totfact>
</mgrwt>
</event>
<event>
 4    1  0.9138221E+003  0.2213257E+02  0.7546771E-02  0.1705969E+00
         21   -1    0    0  502  501  0.00000000000E+00  0.00000000000E+00  0.35796575406E+01  0.35796575406E+01  0.00000000000E+00 0.  1.
         21   -1    0    0  503  502 -0.00000000000E+00 -0.00000000000E+00 -0.37199114676E+03  0.37199114676E+03  0.00000000000E+00 0.  1.
         21    1    1    2  503  504 -0.13270544034E+02  0.17712801813E+02 -0.33350801340E+03  0.33424159779E+03  0.00000000000E+00 0. -1.
         21    1    1    2  504  501  0.13270544034E+02 -0.17712801813E+02 -0.34903475818E+02  0.41329206516E+02  0.00000000000E+00 0. -1.
<mgrwt>
<rscale>  2 0.22132571E+02</rscale>
<asrwt>0</asrwt>
<pdfrwt beam="1">  1       21 0.55071661E-03 0.22132571E+02</pdfrwt>
<pdfrwt beam="2">  1       21 0.57229400E-01 0.22132571E+02</pdfrwt>
<totfact> 0.21226118E+07</totfact>
</mgrwt>
</event>
<event>
 4    1  0.9138221E+003  0.2990436E+02  0.7546771E-02  0.1599148E+00
         21   -1    0    0  502  501  0.00000000000E+00  0.00000000000E+00  0.11036159553E+03  0.11036159553E+03  0.00000000000E+00 0.  1.
         21   -1    0    0  504  502 -0.00000000000E+00 -0.00000000000E+00 -0.10131691146E+02  0.10131691146E+02  0.00000000000E+00 0.  1.
         21    1    1    2  503  501 -0.17273262122E+02  0.24411174055E+02  0.23156857952E+02  0.37822097685E+02  0.00000000000E+00 0.  1.
         21    1    1    2  504  503  0.17273262122E+02 -0.24411174055E+02  0.77073046436E+02  0.82671188996E+02  0.00000000000E+00 0.  1.
<mgrwt>
<rscale>  2 0.29904364E+02</rscale>
<asrwt>0</asrwt>
<pdfrwt beam="1">  1       21 0.16978706E-01 0.29904364E+02</pdfrwt>
<pdfrwt beam="2">  1       21 0.15587218E-02 0.29904364E+02</pdfrwt>
<totfact> 0.44411155E+07</totfact>
</mgrwt>
</event>
<event>
 4    1  0.9138221E+003  0.2304682E+02  0.7546771E-02  0.1690752E+00
         21   -1    0    0  502  501  0.00000000000E+00  0.00000000000E+00  0.15769717080E+03  0.15769717080E+03  0.00000000000E+00 0. -1.
         21   -1    0    0  504  502 -0.00000000000E+00 -0.00000000000E+00 -0.66458146163E+01  0.66458146163E+01  0.00000000000E+00 0. -1.
         21    1    1    2  503  501 -0.23044401205E+02 -0.33388139811E+00  0.17819025099E+02  0.29132002320E+02  0.00000000000E+00 0.  1.
         21    1    1    2  504  503  0.23044401205E+02  0.33388139811E+00  0.13323233108E+03  0.13521098309E+03  0.00000000000E+00 0.  1.
<mgrwt>
<rscale>  2 0.23046820E+02</rscale>
<asrwt>0</asrwt>
<pdfrwt beam="1">  1       21 0.24261100E-01 0.23046820E+02</pdfrwt>
<pdfrwt beam="2">  1       21 0.10224331E-02 0.23046820E+02</pdfrwt>
<totfact> 0.42421407E+07</totfact>
</mgrwt>
</event>
<event>
 4    1  0.9138221E+003  0.3120305E+02  0.7546771E-02  0.1585159E+00
         21   -1    0    0  502  501  0.00000000000E+00  0.00000000000E+00  0.34394145644E+03  0.34394145644E+03  0.00000000000E+00 0. -1.
         21   -1    0    0  503  502 -0.00000000000E+00 -0.00000000000E+00 -0.28875576852E+02  0.28875576852E+02  0.00000000000E+00 0. -1.
         21    1    1    2  503  504 -0.45682842571E+00 -0.31199703113E+02  0.33456858566E+03  0.33602048848E+03  0.00000000000E+00 0.  1.
         21    1    1    2  504  501  0.45682842571E+00  0.31199703113E+02 -0.19502706068E+02  0.36796544818E+02  0.00000000000E+00 0.  1.
<mgrwt>
<rscale>  2 0.31203047E+02</rscale>
<asrwt>0</asrwt>
<pdfrwt beam="1">  1       21 0.52914067E-01 0.31203047E+02</pdfrwt>
<pdfrwt beam="2">  1       21 0.44423967E-02 0.31203047E+02</pdfrwt>
<totfact> 0.10605479E+06</totfact>
</mgrwt>
</event>
<event>
 4    1  0.9138221E+003  0.3641747E+02  0.7546771E-02  0.1536362E+00
         21   -1    0    0  502  501  0.00000000000E+00  0.00000000000E+00  0.13519781754E+02  0.13519781754E+02  0.00000000000E+00 0. -1.
         21   -1    0    0  504  502 -0.00000000000E+00 -0.00000000000E+00 -0.80030246468E+03  0.80030246468E+03  0.00000000000E+00 0. -1.
         21    1    1    2  503  501  0.14508410143E+02  0.33402671713E+02 -0.12233385467E+02  0.38417289889E+02  0.00000000000E+00 0. -1.
         21    1    1    2  504  503 -0.14508410143E+02 -0.33402671713E+02 -0.77454929746E+03  0.77540495655E+03  0.00000000000E+00 0. -1.
<mgrwt>
<rscale>  2 0.36417474E+02</rscale>
<asrwt>0</asrwt>
<pdfrwt beam="1">  1       21 0.20799655E-02 0.36417474E+02</pdfrwt>
<pdfrwt beam="2">  1       21 0.12312351E+00 0.36417474E+02</pdfrwt>
<totfact> 0.58032055E+05</totfact>
</mgrwt>
</event>
<event>
 4    1  0.9138221E+003  0.2331558E+02  0.7546771E-02  0.1686445E+00
         21   -1    0    0  504  501  0.00000000000E+00  0.00000000000E+00  0.29302587912E+02  0.29302587912E+02  0.00000000000E+00 0. -1.
         21   -1    0    0  501  502 -0.00000000000E+00 -0.00000000000E+00 -0.38033334897E+02  0.38033334897E+02  0.00000000000E+00 0. -1.
         21    1    1    2  503  502  0.23313548745E+02  0.30741874304E+00 -0.28461436158E+02  0.36792246595E+02  0.00000000000E+00 0.  1.
         21    1    1    2  504  503 -0.23313548745E+02 -0.30741874304E+00  0.19730689173E+02  0.30543676213E+02  0.00000000000E+00 0.  1.
<mgrwt>
<rscale>  2 0.23315576E+02</rscale>
<asrwt>0</asrwt>
<pdfrwt beam="1">  1       21 0.45080905E-02 0.23315576E+02</pdfrwt>
<pdfrwt beam="2">  1       21 0.58512823E-02 0.23315576E+02</pdfrwt>
<totfact> 0.47197821E+07</totfact>
</mgrwt>
</event>
<event>
 4    1  0.9138221E+003  0.2246119E+02  0.7546771E-02  0.1700396E+00
         21   -1    0    0  504  501  0.00000000000E+00  0.00000000000E+00  0.36394293506E+01  0.36394293506E+01  0.00000000000E+00 0.  1.
         21   -1    0    0  501  502 -0.00000000000E+00 -0.00000000000E+00 -0.17566832376E+03  0.17566832376E+03  0.00000000000E+00 0.  1.
         21    1    1    2  503  502 -0.22420297150E+02 -0.13547499393E+01 -0.12718576312E+03  0.12915387494E+03  0.00000000000E+00 0. -1.
         21    1    1    2  504  503  0.22420297150E+02  0.13547499393E+01 -0.44843131288E+02  0.50153878169E+02  0.00000000000E+00 0. -1.
<mgrwt>
<rscale>  2 0.22461190E+02</rscale>
<asrwt>0</asrwt>
<pdfrwt beam="1">  1       21 0.55991211E-03 0.22461190E+02</pdfrwt>
<pdfrwt beam="2">  1       21 0.27025901E-01 0.22461190E+02</pdfrwt>
<totfact> 0.85248632E+07</totfact>
</mgrwt>
</event>
<event>
 4    1  0.9138221E+003  0.2255963E+02  0.7546771E-02  0.1698749E+00
         21   -1    0    0  502  501  0.00000000000E+00  0.00000000000E+00  0.94115786809E+01  0.94115786809E+01  0.00000000000E+00 0.  1.
         21   -1    0    0  503  502 -0.00000000000E+00 -0.00000000000E+00 -0.10403344120E+03  0.10403344120E+03  0.00000000000E+00 0.  1.
         21    1    1    2  503  504  0.22390983013E+02 -0.27532836223E+01 -0.86618014928E+02  0.89507637669E+02  0.00000000000E+00 0. -1.
         21    1    1    2  504  501 -0.22390983013E+02  0.27532836223E+01 -0.80038475941E+01  0.23937382215E+02  0.00000000000E+00 0. -1.
<mgrwt>
<rscale>  2 0.22559625E+02</rscale>
<asrwt>0</asrwt>
<pdfrwt beam="1">  1       21 0.14479351E-02 0.22559625E+02</pdfrwt>
<pdfrwt beam="2">  1       21 0.16005145E-01 0.22559625E+02</pdfrwt>
<totfact> 0.51504640E+07</totfact>
</mgrwt>
</event>
<event>
 4    1  0.9138221E+003  0.2670767E+02  0.7546771E-02  0.1637620E+00
         21   -1    0    0  504  501  0.00000000000E+00  0.00000000000E+00  0.38250209944E+03  0.38250209944E+03  0.00000000000E+00 0. -1.
         21   -1    0    0  501  502 -0.00000000000E+00 -0.00000000000E+00 -0.29769520053E+01  0.29769520053E+01  0.00000000000E+00 0. -1.
         21    1    1    2  503  502 -0.26538945633E+02  0.29973366276E+01  0.71958049772E+02  0.76754547677E+02  0.00000000000E+00 0. -1.
         21    1    1    2  504  503  0.26538945633E+02 -0.29973366276E+01  0.30756709766E+03  0.30872450377E+03  0.00000000000E+00 0. -1.
<mgrwt>
<rscale>  2 0.26707670E+02</rscale>
<asrwt>0</asrwt>
<pdfrwt beam="1">  1       21 0.58846438E-01 0.26707670E+02</pdfrwt>
<pdfrwt beam="2">  1       21 0.45799292E-03 0.26707670E+02</pdfrwt>
<totfact> 0.27378039E+07</totfact>
</mgrwt>
</event>
<event>
 4    1  0.9138221E+003  0.2294753E+02  0.7546771E-02  0.1692362E+00
         21   -1    0    0  502  501  0.00000000000E+00  0.00000000000E+00  0.11262179679E+04  0.11262179679E+04  0.00000000000E+00 0. -1.
         21   -1    0    0  503  502 -0.00000000000E+00 -0.00000000000E+00 -0.51542572695E+00  0.51542572695E+00  0.00000000000E+00 0. -1.
         21    1    1    2  503  504 -0.17181908345E+02  0.15210896633E+02  0.73450787485E+03  0.73486625148E+03  0.00000000000E+00 0.  1.
         21    1    1    2  504  501  0.17181908345E+02 -0.15210896633E+02  0.39119466730E+03  0.39186714212E+03  0.00000000000E+00 0.  1.
<mgrwt>
<rscale>  2 0.22947535E+02</rscale>
<asrwt>0</asrwt>
<pdfrwt beam="1">  1       21 0.17326233E+00 0.22947535E+02</pdfrwt>
<pdfrwt beam="2">  1       21 0.79297167E-04 0.22947535E+02</pdfrwt>
<totfact> 0.31005783E+07</totfact>
</mgrwt>
</event>
<event>
 4    1  0.9138221E+003  0.3766256E+02  0.7546771E-02  0.1526153E+00
         21   -1    0    0  502  501  0.00000000000E+00  0.00000000000E+00  0.98930535240E+03  0.98930535240E+03  0.00000000000E+00 0.  1.
         21   -1    0    0  504  502 -0.00000000000E+00 -0.00000000000E+00 -0.15549853454E+01  0.15549853454E+01  0.00000000000E+00 0.  1.
         21    1    1    2  503  501  0.26979593382E+02 -0.26278692127E+02  0.35556933701E+03  0.35755841696E+03  0.00000000000E+00 0.  1.
         21    1    1    2  504  503 -0.26979593382E+02  0.26278692127E+02  0.63218103005E+03  0.63330192079E+03  0.00000000000E+00 0.  1.
<mgrwt>
<rscale>  2 0.37662556E+02</rscale>
<asrwt>0</asrwt>
<pdfrwt beam="1">  1       21 0.15220032E+00 0.37662556E+02</pdfrwt>
<pdfrwt beam="2">  1       21 0.23922930E-03 0.37662556E+02</pdfrwt>
<totfact> 0.92370436E+06</totfact>
</mgrwt>
</event>
<event>
 4    1  0.9138221E+003  0.2515656E+02  0.7546771E-02  0.1658763E+00
         21   -1    0    0  504  501  0.00000000000E+00  0.00000000000E+00  0.23957477799E+02  0.23957477799E+02  0.00000000000E+00 0.  1.
         21   -1    0    0  501  502 -0.00000000000E+00 -0.00000000000E+00 -0.37198426319E+02  0.37198426319E+02  0.00000000000E+00 0.  1.
         21    1    1    2  503  502 -0.40920306655E+01 -0.24821516851E+02 -0.23083564355E+02  0.34142398232E+02  0.00000000000E+00 0.  1.
         21    1    1    2  504  503  0.40920306655E+01  0.24821516851E+02  0.98426158348E+01  0.27013505885E+02  0.00000000000E+00 0.  1.
<mgrwt>
<rscale>  2 0.25156558E+02</rscale>
<asrwt>0</asrwt>
<pdfrwt beam="1">  1       21 0.36857658E-02 0.25156558E+02</pdfrwt>
<pdfrwt beam="2">  1       21 0.57228349E-02 0.25156558E+02</pdfrwt>
<totfact> 0.68566276E+07</totfact>
</mgrwt>
</event>
<event>
 4    1  0.9138221E+003  0.3180448E+02  0.7546771E-02  0.1578958E+00
         21   -1    0    0  504  501  0.00000000000E+00  0.00000000000E+00  0.25856643212E+02  0.25856643212E+02  0.00000000000E+00 0. -1.
         21   -1    0    0  501  502 -0.00000000000E+00 -0.00000000000E+00 -0.44433454067E+02  0.44433454067E+02  0.00000000000E+00 0. -1.
         21    1    1    2  503  502 -0.27159438293E+02  0.16549620871E+02 -0.21441217457E+02  0.38356887849E+02  0.00000000000E+00 0.  1.
         21    1    1    2  504  503  0.27159438293E+02 -0.16549620871E+02  0.28644066022E+01  0.31933209431E+02  0.00000000000E+00 0.  1.
<mgrwt>
<rscale>  2 0.31804481E+02</rscale>
<asrwt>0</asrwt>
<pdfrwt beam="1">  1       21 0.39779452E-02 0.31804481E+02</pdfrwt>
<pdfrwt beam="2">  1       21 0.68359159E-02 0.31804481E+02</pdfrwt>
<totfact> 0.48109764E+07</totfact>
</mgrwt>
</event>
<event>
 4    1  0.9138221E+003  0.2861399E+02  0.7546771E-02  0.1613935E+00
         21   -1    0    0  502  501  0.00000000000E+00  0.00000000000E+00  0.99466072636E+03  0.99466072636E+03  0.00000000000E+00 0. -1.
         21   -1    0    0  504  502 -0.00000000000E+00 -0.00000000000E+00 -0.12547978425E+01  0.12547978425E+01  0.00000000000E+00 0. -1.
         21    1    1    2  503  501  0.17794931361E+02  0.22407609049E+02  0.20464597369E+03  0.20663672247E+03  0.00000000000E+00 0. -1.
         21    1    1    2  504  503 -0.17794931361E+02 -0.22407609049E+02  0.78875995482E+03  0.78927880173E+03  0.00000000000E+00 0. -1.
<mgrwt>
<rscale>  2 0.28613992E+02</rscale>
<asrwt>0</asrwt>
<pdfrwt beam="1">  1       21 0.15302410E+00 0.28613992E+02</pdfrwt>
<pdfrwt beam="2">  1       21 0.19304662E-03 0.28613992E+02</pdfrwt>
<totfact> 0.12100408E+07</totfact>
</mgrwt>
</event>
<event>
 4    1  0.9138221E+003  0.2555911E+02  0.7546771E-02  0.1653099E+00
         21   -1    0    0  503  501  0.00000000000E+00  0.00000000000E+00  0.85447645323E+02  0.85447645323E+02  0.00000000000E+00 0.  1.
         21   -1    0    0  501  502 -0.00000000000E+00 -0.00000000000E+00 -0.10839101733E+02  0.10839101733E+02  0.00000000000E+00 0.  1.
         21    1    1    2  503  504  0.12080283505E+02  0.22524091131E+02  0.11170759067E+02  0.27893615559E+02  0.00000000000E+00 0. -1.
         21    1    1    2  504  502 -0.12080283505E+02 -0.22524091131E+02  0.63437784522E+02  0.68393131497E+02  0.00000000000E+00 0. -1.
<mgrwt>
<rscale>  2 0.25559107E+02</rscale>
<asrwt>0</asrwt>
<pdfrwt beam="1">  1       21 0.13145791E-01 0.25559107E+02</pdfrwt>
<pdfrwt beam="2">  1       21 0.16675542E-02 0.25559107E+02</pdfrwt>
<totfact> 0.59900538E+07</totfact>
</mgrwt>
</event>
<event>
 4    1  0.9138221E+003  0.2085850E+02  0.7546771E-02  0.1728776E+00
         21   -1    0    0  503  501  0.00000000000E+00  0.00000000000E+00  0.98146059479E+01  0.98146059479E+01  0.00000000000E+00 0. -1.
         21   -1    0    0  501  502 -0.00000000000E+00 -0.00000000000E+00 -0.66321483716E+02  0.66321483716E+02  0.00000000000E+00 0. -1.
         21    1    1    2  503  504 -0.67477882039E+01  0.19736879366E+02 -0.50174681903E+02  0.54337609046E+02  0.00000000000E+00 0.  1.
         21    1    1    2  504  502  0.67477882039E+01 -0.19736879366E+02 -0.63321958651E+01  0.21798480618E+02  0.00000000000E+00 0.  1.
<mgrwt>
<rscale>  2 0.20858501E+02</rscale>
<asrwt>0</asrwt>
<pdfrwt beam="1">  1       21 0.15099394E-02 0.20858501E+02</pdfrwt>
<pdfrwt beam="2">  1       21 0.10203305E-01 0.20858501E+02</pdfrwt>
<totfact> 0.10071164E+08</totfact>
</mgrwt>
</event>
<event>
 4    1  0.9138221E+003  0.2074492E+02  0.7546771E-02  0.1730908E+00
         21   -1    0    0  502  501  0.00000000000E+00  0.00000000000E+00  0.64332351823E+01  0.64332351823E+01  0.00000000000E+00 0.  1.
         21   -1    0    0  503  502 -0.00000000000E+00 -0.00000000000E+00 -0.12452182538E+03  0.12452182538E+03  0.00000000000E+00 0.  1.
         21    1    1    2  503  504  0.18753286848E+02 -0.88693799613E+01 -0.14501069464E+02  0.25310722710E+02  0.00000000000E+00 0. -1.
         21    1    1    2  504  501 -0.18753286848E+02  0.88693799613E+01 -0.10358752073E+03  0.10564433785E+03  0.00000000000E+00 0. -1.
<mgrwt>
<rscale>  2 0.20744919E+02</rscale>
<asrwt>0</asrwt>
<pdfrwt beam="1">  1       21 0.98972859E-03 0.20744919E+02</pdfrwt>
<pdfrwt beam="2">  1       21 0.19157202E-01 0.20744919E+02</pdfrwt>
<totfact> 0.65603027E+07</totfact>
</mgrwt>
</event>
<event>
 4    1  0.9138221E+003  0.2153595E+02  0.7546771E-02  0.1716403E+00
         21   -1    0    0  502  501  0.00000000000E+00  0.00000000000E+00  0.87484240162E+01  0.87484240162E+01  0.00000000000E+00 0.  1.
         21   -1    0    0  504  502 -0.00000000000E+00 -0.00000000000E+00 -0.14188919664E+03  0.14188919664E+03  0.00000000000E+00 0.  1.
         21    1    1    2  503  501 -0.76850833882E+01 -0.20118066048E+02 -0.69607048022E+01  0.22632907448E+02  0.00000000000E+00 0. -1.
         21    1    1    2  504  503  0.76850833882E+01  0.20118066048E+02 -0.12618006782E+03  0.12800471321E+03  0.00000000000E+00 0. -1.
<mgrwt>
<rscale>  2 0.21535949E+02</rscale>
<asrwt>0</asrwt>
<pdfrwt beam="1">  1       21 0.13459114E-02 0.21535949E+02</pdfrwt>
<pdfrwt beam="2">  1       21 0.21829106E-01 0.21535949E+02</pdfrwt>
<totfact> 0.33231590E+07</totfact>
</mgrwt>
</event>
<event>
 4    1  0.9138221E+003  0.2411705E+02  0.7546771E-02  0.1674018E+00
         21   -1    0    0  503  501  0.00000000000E+00  0.00000000000E+00  0.60832688517E+02  0.60832688517E+02  0.00000000000E+00 0.  1.
         21   -1    0    0  501  502 -0.00000000000E+00 -0.00000000000E+00 -0.30921102831E+02  0.30921102831E+02  0.00000000000E+00 0.  1.
         21    1    1    2  503  504 -0.23389591422E+02 -0.58786983045E+01 -0.23174172395E+02  0.33446589464E+02  0.00000000000E+00 0. -1.
         21    1    1    2  504  502  0.23389591422E+02  0.58786983045E+01  0.53085758080E+02  0.58307201884E+02  0.00000000000E+00 0. -1.
<mgrwt>
<rscale>  2 0.24117050E+02</rscale>
<asrwt>0</asrwt>
<pdfrwt beam="1">  1       21 0.93588751E-02 0.24117050E+02</pdfrwt>
<pdfrwt beam="2">  1       21 0.47570928E-02 0.24117050E+02</pdfrwt>
<totfact> 0.20348137E+07</totfact>
</mgrwt>
</event>
<event>
 4    1  0.9138221E+003  0.2125959E+02  0.7546771E-02  0.1721381E+00
         21   -1    0    0  502  501  0.00000000000E+00  0.00000000000E+00  0.13515745206E+01  0.13515745206E+01  0.00000000000E+00 0.  1.
         21   -1    0    0  503  502 -0.00000000000E+00 -0.00000000000E+00 -0.65425585114E+03  0.65425585114E+03  0.00000000000E+00 0.  1.
         21    1    1    2  503  504 -0.19633037905E+02  0.81556235692E+01 -0.97251789183E+02  0.99548384580E+02  0.00000000000E+00 0. -1.
         21    1    1    2  504  501  0.19633037905E+02 -0.81556235692E+01 -0.55565248743E+03  0.55605904108E+03  0.00000000000E+00 0. -1.
<mgrwt>
<rscale>  2 0.21259595E+02</rscale>
<asrwt>0</asrwt>
<pdfrwt beam="1">  1       21 0.20793441E-03 0.21259595E+02</pdfrwt>
<pdfrwt beam="2">  1       21 0.10065481E+00 0.21259595E+02</pdfrwt>
<totfact> 0.26994187E+07</totfact>
</mgrwt>
</event>
<event>
 4    1  0.9138221E+003  0.2333339E+02  0.7546771E-02  0.1686162E+00
         21   -1    0    0  502  501  0.00000000000E+00  0.00000000000E+00  0.72351011188E+02  0.72351011188E+02  0.00000000000E+00 0.  1.
         21   -1    0    0  504  502 -0.00000000000E+00 -0.00000000000E+00 -0.88986939839E+01  0.88986939839E+01  0.00000000000E+00 0.  1.
         21    1    1    2  503  501 -0.10726535991E+02 -0.20721693367E+02  0.47687192024E+02  0.53089692347E+02  0.00000000000E+00 0. -1.
         21    1    1    2  504  503  0.10726535991E+02  0.20721693367E+02  0.15765125180E+02  0.28160012825E+02  0.00000000000E+00 0. -1.
<mgrwt>
<rscale>  2 0.23333391E+02</rscale>
<asrwt>0</asrwt>
<pdfrwt beam="1">  1       21 0.11130924E-01 0.23333391E+02</pdfrwt>
<pdfrwt beam="2">  1       21 0.13690299E-02 0.23333391E+02</pdfrwt>
<totfact> 0.10445350E+08</totfact>
</mgrwt>
</event>
<event>
 4    1  0.9138221E+003  0.2463747E+02  0.7546771E-02  0.1666264E+00
         21   -1    0    0  503  501  0.00000000000E+00  0.00000000000E+00  0.49011151903E+01  0.49011151903E+01  0.00000000000E+00 0.  1.
         21   -1    0    0  501  502 -0.00000000000E+00 -0.00000000000E+00 -0.15048096396E+03  0.15048096396E+03  0.00000000000E+00 0.  1.
         21    1    1    2  503  504  0.58037596109E+01 -0.23944130490E+02 -0.10547281365E+03  0.10831213888E+03  0.00000000000E+00 0. -1.
         21    1    1    2  504  502 -0.58037596109E+01  0.23944130490E+02 -0.40107035121E+02  0.47069940267E+02  0.00000000000E+00 0. -1.
<mgrwt>
<rscale>  2 0.24637472E+02</rscale>
<asrwt>0</asrwt>
<pdfrwt beam="1">  1       21 0.75401784E-03 0.24637472E+02</pdfrwt>
<pdfrwt beam="2">  1       21 0.23150914E-01 0.24637472E+02</pdfrwt>
<totfact> 0.73979563E+07</totfact>
</mgrwt>
</event>
<event>
 4    1  0.9138221E+003  0.2114604E+02  0.7546771E-02  0.1723453E+00
         21   -1    0    0  502  501  0.00000000000E+00  0.00000000000E+00  0.22311296999E+03  0.22311296999E+03  0.00000000000E+00 0.  1.
         21   -1    0    0  504  502 -0.00000000000E+00 -0.00000000000E+00 -0.43148365421E+01  0.43148365421E+01  0.00000000000E+00 0.  1.
         21    1    1    2  503  501 -0.18801656611E+01 -0.21062287960E+02  0.26184263858E+02  0.33656658640E+02  0.00000000000E+00 0. -1.
         21    1    1    2  504  503  0.18801656611E+01  0.21062287960E+02  0.19261386959E+03  0.19377114790E+03  0.00000000000E+00 0. -1.
<mgrwt>
<rscale>  2 0.21146040E+02</rscale>
<asrwt>0</asrwt>
<pdfrwt beam="1">  1       21 0.34325063E-01 0.21146040E+02</pdfrwt>
<pdfrwt beam="2">  1       21 0.66382118E-03 0.21146040E+02</pdfrwt>
<totfact> 0.42251124E+07</totfact>
</mgrwt>
</event>
<event>
 4    1  0.9138221E+003  0.3584254E+02  0.7546771E-02  0.1541243E+00
         21   -1    0    0  504  501  0.00000000000E+00  0.00000000000E+00  0.74835401880E+02  0.74835401880E+02  0.00000000000E+00 0.  1.
         21   -1    0    0  501  502 -0.00000000000E+00 -0.00000000000E+00 -0.61290215307E+02  0.61290215307E+02  0.00000000000E+00 0.  1.
         21    1    1    2  503  502  0.15029047667E+02 -0.32539445879E+02 -0.50976959752E+02  0.62316436334E+02  0.00000000000E+00 0. -1.
         21    1    1    2  504  503 -0.15029047667E+02  0.32539445879E+02  0.64522146325E+02  0.73809180853E+02  0.00000000000E+00 0. -1.
<mgrwt>
<rscale>  2 0.35842542E+02</rscale>
<asrwt>0</asrwt>
<pdfrwt beam="1">  1       21 0.11513139E-01 0.35842542E+02</pdfrwt>
<pdfrwt beam="2">  1       21 0.94292639E-02 0.35842542E+02</pdfrwt>
<totfact> 0.50306319E+06</totfact>
</mgrwt>
</event>
<event>
 4    1  0.9138221E+003  0.2009648E+02  0.7546771E-02  0.1743416E+00
         21   -1    0    0  502  501  0.00000000000E+00  0.00000000000E+00  0.62538963995E+02  0.62538963995E+02  0.00000000000E+00 0. -1.
         21   -1    0    0  504  502 -0.00000000000E+00 -0.00000000000E+00 -0.98641944173E+01  0.98641944173E+01  0.00000000000E+00 0. -1.
         21    1    1    2  503  501 -0.79715173109E+01 -0.18447859631E+02  0.47610916361E+02  0.51678505880E+02  0.00000000000E+00 0.  1.
         21    1    1    2  504  503  0.79715173109E+01  0.18447859631E+02  0.50638532172E+01  0.20724652533E+02  0.00000000000E+00 0.  1.
<mgrwt>
<rscale>  2 0.20096483E+02</rscale>
<asrwt>0</asrwt>
<pdfrwt beam="1">  1       21 0.96213789E-02 0.20096483E+02</pdfrwt>
<pdfrwt beam="2">  1       21 0.15175684E-02 0.20096483E+02</pdfrwt>
<totfact> 0.10887224E+08</totfact>
</mgrwt>
</event>
<event>
 4    1  0.9138221E+003  0.2659171E+02  0.7546771E-02  0.1639139E+00
         21   -1    0    0  504  501  0.00000000000E+00  0.00000000000E+00  0.36746435756E+01  0.36746435756E+01  0.00000000000E+00 0. -1.
         21   -1    0    0  501  502 -0.00000000000E+00 -0.00000000000E+00 -0.41660682076E+03  0.41660682076E+03  0.00000000000E+00 0. -1.
         21    1    1    2  503  502  0.26568887425E+02  0.11013776731E+01 -0.36061502112E+03  0.36159412643E+03  0.00000000000E+00 0. -1.
         21    1    1    2  504  503 -0.26568887425E+02 -0.11013776731E+01 -0.52317156070E+02  0.58687337911E+02  0.00000000000E+00 0. -1.
<mgrwt>
<rscale>  2 0.26591706E+02</rscale>
<asrwt>0</asrwt>
<pdfrwt beam="1">  1       21 0.56532969E-03 0.26591706E+02</pdfrwt>
<pdfrwt beam="2">  1       21 0.64093367E-01 0.26591706E+02</pdfrwt>
<totfact> 0.16848220E+07</totfact>
</mgrwt>
</event>
<event>
 4    1  0.9138221E+003  0.2227352E+02  0.7546771E-02  0.1703564E+00
         21   -1    0    0  503  501  0.00000000000E+00  0.00000000000E+00  0.21545915067E+02  0.21545915067E+02  0.00000000000E+00 0. -1.
         21   -1    0    0  501  502 -0.00000000000E+00 -0.00000000000E+00 -0.50165289092E+02  0.50165289092E+02  0.00000000000E+00 0. -1.
         21    1    1    2  503  504 -0.59819476697E+01  0.21455204680E+02  0.12063164789E+02  0.25330405652E+02  0.00000000000E+00 0. -1.
         21    1    1    2  504  502  0.59819476697E+01 -0.21455204680E+02 -0.40682538814E+02  0.46380798507E+02  0.00000000000E+00 0. -1.
<mgrwt>
<rscale>  2 0.22273516E+02</rscale>
<asrwt>0</asrwt>
<pdfrwt beam="1">  1       21 0.33147562E-02 0.22273516E+02</pdfrwt>
<pdfrwt beam="2">  1       21 0.77177368E-02 0.22273516E+02</pdfrwt>
<totfact> 0.48371727E+07</totfact>
</mgrwt>
</event>
<event>
 4    1  0.9138221E+003  0.3516196E+02  0.7546771E-02  0.1547167E+00
         21   -1    0    0  502  501  0.00000000000E+00  0.00000000000E+00  0.52954055163E+02  0.52954055163E+02  0.00000000000E+00 0.  1.
         21   -1    0    0  503  502 -0.00000000000E+00 -0.00000000000E+00 -0.37375107568E+02  0.37375107568E+02  0.00000000000E+00 0.  1.
         21    1    1    2  503  504 -0.33803092926E+02 -0.96806264993E+01 -0.19879500900E+02  0.40392551007E+02  0.00000000000E+00 0.  1.
         21    1    1    2  504  501  0.33803092926E+02  0.96806264993E+01  0.35458448495E+02  0.49936611724E+02  0.00000000000E+00 0.  1.
<mgrwt>
<rscale>  2 0.35161963E+02</rscale>
<asrwt>0</asrwt>
<pdfrwt beam="1">  1       21 0.81467777E-02 0.35161963E+02</pdfrwt>
<pdfrwt beam="2">  1       21 0.57500166E-02 0.35161963E+02</pdfrwt>
<totfact> 0.20293476E+07</totfact>
</mgrwt>
</event>
<event>
 4    1  0.9138221E+003  0.3566542E+02  0.7546771E-02  0.1542770E+00
         21   -1    0    0  502  501  0.00000000000E+00  0.00000000000E+00  0.25668878793E+01  0.25668878793E+01  0.00000000000E+00 0. -1.
         21   -1    0    0  504  502 -0.00000000000E+00 -0.00000000000E+00 -0.63300897160E+03  0.63300897160E+03  0.00000000000E+00 0. -1.
         21    1    1    2  503  501 -0.18065049840E+02 -0.30751845933E+02 -0.46330858884E+03  0.46467932012E+03  0.00000000000E+00 0. -1.
         21    1    1    2  504  503  0.18065049840E+02  0.30751845933E+02 -0.16713349488E+03  0.17089653936E+03  0.00000000000E+00 0. -1.
<mgrwt>
<rscale>  2 0.35665418E+02</rscale>
<asrwt>0</asrwt>
<pdfrwt beam="1">  1       21 0.39490577E-03 0.35665418E+02</pdfrwt>
<pdfrwt beam="2">  1       21 0.97386009E-01 0.35665418E+02</pdfrwt>
<totfact> 0.12365883E+07</totfact>
</mgrwt>
</event>
<event>
 4    1  0.9138221E+003  0.2558403E+02  0.7546771E-02  0.1652752E+00
         21   -1    0    0  503  501  0.00000000000E+00  0.00000000000E+00  0.12861611571E+03  0.12861611571E+03  0.00000000000E+00 0.  1.
         21   -1    0    0  501  502 -0.00000000000E+00 -0.00000000000E+00 -0.17070432029E+02  0.17070432029E+02  0.00000000000E+00 0.  1.
         21    1    1    2  503  504  0.25487593441E+02  0.22192916540E+01  0.11679947544E+03  0.11956864196E+03  0.00000000000E+00 0.  1.
         21    1    1    2  504  502 -0.25487593441E+02 -0.22192916540E+01 -0.52537917591E+01  0.26117905788E+02  0.00000000000E+00 0.  1.
<mgrwt>
<rscale>  2 0.25584032E+02</rscale>
<asrwt>0</asrwt>
<pdfrwt beam="1">  1       21 0.19787094E-01 0.25584032E+02</pdfrwt>
<pdfrwt beam="2">  1       21 0.26262204E-02 0.25584032E+02</pdfrwt>
<totfact> 0.14709075E+07</totfact>
</mgrwt>
</event>
<event>
 4    1  0.9138221E+003  0.2326328E+02  0.7546771E-02  0.1687278E+00
         21   -1    0    0  502  501  0.00000000000E+00  0.00000000000E+00  0.10572753394E+02  0.10572753394E+02  0.00000000000E+00 0. -1.
         21   -1    0    0  503  502 -0.00000000000E+00 -0.00000000000E+00 -0.75830730069E+02  0.75830730069E+02  0.00000000000E+00 0. -1.
         21    1    1    2  503  504 -0.18537554775E+02  0.14054862759E+02 -0.80004835549E+01  0.24600565874E+02  0.00000000000E+00 0. -1.
         21    1    1    2  504  501  0.18537554775E+02 -0.14054862759E+02 -0.57257493120E+02  0.61802917590E+02  0.00000000000E+00 0. -1.
<mgrwt>
<rscale>  2 0.23263278E+02</rscale>
<asrwt>0</asrwt>
<pdfrwt beam="1">  1       21 0.16265774E-02 0.23263278E+02</pdfrwt>
<pdfrwt beam="2">  1       21 0.11666266E-01 0.23263278E+02</pdfrwt>
<totfact> 0.74245461E+07</totfact>
</mgrwt>
</event>
<event>
 4    1  0.9138221E+003  0.2061636E+02  0.7546771E-02  0.1733342E+00
         21   -1    0    0  503  501  0.00000000000E+00  0.00000000000E+00  0.17941222196E+03  0.17941222196E+03  0.00000000000E+00 0.  1.
         21   -1    0    0  501  502 -0.00000000000E+00 -0.00000000000E+00 -0.44893610453E+01  0.44893610453E+01  0.00000000000E+00 0.  1.
         21    1    1    2  503  504 -0.13873256083E+02 -0.15250144270E+02  0.24269102161E+02  0.31843734930E+02  0.00000000000E+00 0.  1.
         21    1    1    2  504  502  0.13873256083E+02  0.15250144270E+02  0.15065375876E+03  0.15205784808E+03  0.00000000000E+00 0.  1.
<mgrwt>
<rscale>  2 0.20616356E+02</rscale>
<asrwt>0</asrwt>
<pdfrwt beam="1">  1       21 0.27601875E-01 0.20616356E+02</pdfrwt>
<pdfrwt beam="2">  1       21 0.69067107E-03 0.20616356E+02</pdfrwt>
<totfact> 0.58824288E+07</totfact>
</mgrwt>
</event>
<event>
 4    1  0.9138221E+003  0.2151574E+02  0.7546771E-02  0.1716764E+00
         21   -1    0    0  503  501  0.00000000000E+00  0.00000000000E+00  0.11865588985E+03  0.11865588985E+03  0.00000000000E+00 0.  1.
         21   -1    0    0  501  502 -0.00000000000E+00 -0.00000000000E+00 -0.64616915305E+01  0.64616915305E+01  0.00000000000E+00 0.  1.
         21    1    1    2  503  504  0.19499405648E+02  0.90939602019E+01  0.95475485075E+02  0.97869786876E+02  0.00000000000E+00 0. -1.
         21    1    1    2  504  502 -0.19499405648E+02 -0.90939602019E+01  0.16718713243E+02  0.27247794503E+02  0.00000000000E+00 0. -1.
<mgrwt>
<rscale>  2 0.21515737E+02</rscale>
<asrwt>0</asrwt>
<pdfrwt beam="1">  1       21 0.18254751E-01 0.21515737E+02</pdfrwt>
<pdfrwt beam="2">  1       21 0.99410648E-03 0.21515737E+02</pdfrwt>
<totfact> 0.71537245E+07</totfact>
</mgrwt>
</event>
<event>
 4    1  0.9138221E+003  0.2140230E+02  0.7546771E-02  0.1718799E+00
         21   -1    0    0  502  501  0.00000000000E+00  0.00000000000E+00  0.35985505099E+03  0.35985505099E+03  0.00000000000E+00 0.  1.
         21   -1    0    0  504  502 -0.00000000000E+00 -0.00000000000E+00 -0.13709103912E+01  0.13709103912E+01  0.00000000000E+00 0.  1.
         21    1    1    2  503  501 -0.16871586795E+02 -0.13168447103E+02  0.22753538091E+03  0.22853972960E+03  0.00000000000E+00 0. -1.
         21    1    1    2  504  503  0.16871586795E+02  0.13168447103E+02  0.13094875969E+03  0.13268623178E+03  0.00000000000E+00 0. -1.
<mgrwt>
<rscale>  2 0.21402300E+02</rscale>
<asrwt>0</asrwt>
<pdfrwt beam="1">  1       21 0.55362240E-01 0.21402300E+02</pdfrwt>
<pdfrwt beam="2">  1       21 0.21090958E-03 0.21402300E+02</pdfrwt>
<totfact> 0.91200341E+07</totfact>
</mgrwt>
</event>
<event>
 4    1  0.9138221E+003  0.2162457E+02  0.7546771E-02  0.1714827E+00
         21   -1    0    0  504  501  0.00000000000E+00  0.00000000000E+00  0.55399262061E+01  0.55399262061E+01  0.00000000000E+00 0.  1.
         21   -1    0    0  501  502 -0.00000000000E+00 -0.00000000000E+00 -0.12350881815E+03  0.12350881815E+03  0.00000000000E+00 0.  1.
         21    1    1    2  503  502  0.17721469548E+02 -0.12392407073E+02 -0.95288870912E+02  0.97711775932E+02  0.00000000000E+00 0. -1.
         21    1    1    2  504  503 -0.17721469548E+02  0.12392407073E+02 -0.22680021031E+02  0.31336968423E+02  0.00000000000E+00 0. -1.
<mgrwt>
<rscale>  2 0.21624575E+02</rscale>
<asrwt>0</asrwt>
<pdfrwt beam="1">  1       21 0.85229638E-03 0.21624575E+02</pdfrwt>
<pdfrwt beam="2">  1       21 0.19001356E-01 0.21624575E+02</pdfrwt>
<totfact> 0.84133288E+07</totfact>
</mgrwt>
</event>
<event>
 4    1  0.9138221E+003  0.2332424E+02  0.7546771E-02  0.1686308E+00
         21   -1    0    0  503  501  0.00000000000E+00  0.00000000000E+00  0.55368648456E+03  0.55368648456E+03  0.00000000000E+00 0. -1.
         21   -1    0    0  501  502 -0.00000000000E+00 -0.00000000000E+00 -0.20091784597E+01  0.20091784597E+01  0.00000000000E+00 0. -1.
         21    1    1    2  503  504  0.12104528534E+02  0.19937410458E+02  0.77226324412E+02  0.80671712075E+02  0.00000000000E+00 0. -1.
         21    1    1    2  504  502 -0.12104528534E+02 -0.19937410458E+02  0.47445098169E+03  0.47502395095E+03  0.00000000000E+00 0. -1.
<mgrwt>
<rscale>  2 0.23324235E+02</rscale>
<asrwt>0</asrwt>
<pdfrwt beam="1">  1       21 0.85182414E-01 0.23324235E+02</pdfrwt>
<pdfrwt beam="2">  1       21 0.30910482E-03 0.23324235E+02</pdfrwt>
<totfact> 0.22159825E+07</totfact>
</mgrwt>
</event>
<event>
 4    1  0.9138221E+003  0.2201956E+02  0.7546771E-02  0.1707914E+00
         21   -1    0    0  504  501  0.00000000000E+00  0.00000000000E+00  0.64969116646E+03  0.64969116646E+03  0.00000000000E+00 0. -1.
         21   -1    0    0  501  502 -0.00000000000E+00 -0.00000000000E+00 -0.16830043183E+01  0.16830043183E+01  0.00000000000E+00 0. -1.
         21    1    1    2  503  502 -0.17555193795E+02  0.13291956091E+02  0.56697845134E+03  0.56740587344E+03  0.00000000000E+00 0. -1.
         21    1    1    2  504  503  0.17555193795E+02 -0.13291956091E+02  0.81029710799E+02  0.83968297339E+02  0.00000000000E+00 0. -1.
<mgrwt>
<rscale>  2 0.22019558E+02</rscale>
<asrwt>0</asrwt>
<pdfrwt beam="1">  1       21 0.99952287E-01 0.22019558E+02</pdfrwt>
<pdfrwt beam="2">  1       21 0.25892426E-03 0.22019558E+02</pdfrwt>
<totfact> 0.20103542E+07</totfact>
</mgrwt>
</event>
<event>
 4    1  0.9138221E+003  0.2651980E+02  0.7546771E-02  0.1640085E+00
         21   -1    0    0  504  501  0.00000000000E+00  0.00000000000E+00  0.73192142773E+00  0.73192142773E+00  0.00000000000E+00 0. -1.
         21   -1    0    0  501  502 -0.00000000000E+00 -0.00000000000E+00 -0.13241046432E+04  0.13241046432E+04  0.00000000000E+00 0. -1.
         21    1    1    2  503  502  0.18028669745E+02 -0.19449083303E+02 -0.31475006937E+03  0.31586532881E+03  0.00000000000E+00 0.  1.
         21    1    1    2  504  503 -0.18028669745E+02  0.19449083303E+02 -0.10086226524E+04  0.10089712359E+04  0.00000000000E+00 0.  1.
<mgrwt>
<rscale>  2 0.26519800E+02</rscale>
<asrwt>0</asrwt>
<pdfrwt beam="1">  1       21 0.11260254E-03 0.26519800E+02</pdfrwt>
<pdfrwt beam="2">  1       21 0.20370977E+00 0.26519800E+02</pdfrwt>
<totfact> 0.12724043E+07</totfact>
</mgrwt>
</event>
<event>
 4    1  0.9138221E+003  0.2213242E+02  0.7546771E-02  0.1705972E+00
         21   -1    0    0  504  501  0.00000000000E+00  0.00000000000E+00  0.84254172045E+01  0.84254172045E+01  0.00000000000E+00 0.  1.
         21   -1    0    0  501  502 -0.00000000000E+00 -0.00000000000E+00 -0.69917549149E+02  0.69917549149E+02  0.00000000000E+00 0.  1.
         21    1    1    2  503  502 -0.22076133663E+02  0.15774770387E+01 -0.46823823895E+02  0.51791066754E+02  0.00000000000E+00 0.  1.
         21    1    1    2  504  503  0.22076133663E+02 -0.15774770387E+01 -0.14668308049E+02  0.26551899600E+02  0.00000000000E+00 0.  1.
<mgrwt>
<rscale>  2 0.22132422E+02</rscale>
<asrwt>0</asrwt>
<pdfrwt beam="1">  1       21 0.12962180E-02 0.22132422E+02</pdfrwt>
<pdfrwt beam="2">  1       21 0.10756546E-01 0.22132422E+02</pdfrwt>
<totfact> 0.11828730E+08</totfact>
</mgrwt>
</event>
<event>
 4    1  0.9138221E+003  0.2270639E+02  0.7546771E-02  0.1696314E+00
         21   -1    0    0  502  501  0.00000000000E+00  0.00000000000E+00  0.11869114171E+02  0.11869114171E+02  0.00000000000E+00 0. -1.
         21   -1    0    0  504  502 -0.00000000000E+00 -0.00000000000E+00 -0.48408770845E+02  0.48408770845E+02  0.00000000000E+00 0. -1.
         21    1    1    2  503  501 -0.16273460723E+02  0.15835230246E+02 -0.86128104736E+01  0.24284986001E+02  0.00000000000E+00 0. -1.
         21    1    1    2  504  503  0.16273460723E+02 -0.15835230246E+02 -0.27926846200E+02  0.35992899015E+02  0.00000000000E+00 0. -1.
<mgrwt>
<rscale>  2 0.22706388E+02</rscale>
<asrwt>0</asrwt>
<pdfrwt beam="1">  1       21 0.18260176E-02 0.22706388E+02</pdfrwt>
<pdfrwt beam="2">  1       21 0.74475031E-02 0.22706388E+02</pdfrwt>
<totfact> 0.12943519E+08</totfact>
</mgrwt>
</event>
<event>
 4    1  0.9138221E+003  0.2405694E+02  0.7546771E-02  0.1674929E+00
         21   -1    0    0  502  501  0.00000000000E+00  0.00000000000E+00  0.69745134582E+01  0.69745134582E+01  0.00000000000E+00 0.  1.
         21   -1    0    0  504  502 -0.00000000000E+00 -0.00000000000E+00 -0.12621036296E+03  0.12621036296E+03  0.00000000000E+00 0.  1.
         21    1    1    2  503  501  0.19318292850E+02  0.14336660116E+02 -0.98592216674E+02  0.10148478433E+03  0.00000000000E+00 0.  1.
         21    1    1    2  504  503 -0.19318292850E+02 -0.14336660116E+02 -0.20643632824E+02  0.31700092084E+02  0.00000000000E+00 0.  1.
<mgrwt>
<rscale>  2 0.24056938E+02</rscale>
<asrwt>0</asrwt>
<pdfrwt beam="1">  1       21 0.10730022E-02 0.24056938E+02</pdfrwt>
<pdfrwt beam="2">  1       21 0.19416977E-01 0.24056938E+02</pdfrwt>
<totfact> 0.59012589E+07</totfact>
</mgrwt>
</event>
<event>
 4    1  0.9138221E+003  0.2876726E+02  0.7546771E-02  0.1612129E+00
         21   -1    0    0  502  501  0.00000000000E+00  0.00000000000E+00  0.13438748736E+03  0.13438748736E+03  0.00000000000E+00 0.  1.
         21   -1    0    0  503  502 -0.00000000000E+00 -0.00000000000E+00 -0.71198255503E+01  0.71198255503E+01  0.00000000000E+00 0.  1.
         21    1    1    2  503  504 -0.19859661525E+02  0.20812233653E+02  0.89639454670E+02  0.94142376532E+02  0.00000000000E+00 0.  1.
         21    1    1    2  504  501  0.19859661525E+02 -0.20812233653E+02  0.37628207135E+02  0.47364936374E+02  0.00000000000E+00 0.  1.
<mgrwt>
<rscale>  2 0.28767260E+02</rscale>
<asrwt>0</asrwt>
<pdfrwt beam="1">  1       21 0.20674996E-01 0.28767260E+02</pdfrwt>
<pdfrwt beam="2">  1       21 0.10953579E-02 0.28767260E+02</pdfrwt>
<totfact> 0.53432149E+07</totfact>
</mgrwt>
</event>
<event>
 4    1  0.9138221E+003  0.2140685E+02  0.7546771E-02  0.1718717E+00
         21   -1    0    0  504  501  0.00000000000E+00  0.00000000000E+00  0.21288682450E+04  0.21288682450E+04  0.00000000000E+00 0. -1.
         21   -1    0    0  501  502 -0.00000000000E+00 -0.00000000000E+00 -0.23775578376E+00  0.23775578376E+00  0.00000000000E+00 0. -1.
         21    1    1    2  503  502 -0.56933459189E+01 -0.20635866156E+02  0.13917947527E+04  0.13919593697E+04  0.00000000000E+00 0.  1.
         21    1    1    2  504  503  0.56933459189E+01  0.20635866156E+02  0.73683573651E+03  0.73714663111E+03  0.00000000000E+00 0.  1.
<mgrwt>
<rscale>  2 0.21406848E+02</rscale>
<asrwt>0</asrwt>
<pdfrwt beam="1">  1       21 0.32750293E+00 0.21406848E+02</pdfrwt>
<pdfrwt beam="2">  1       21 0.36579518E-04 0.21406848E+02</pdfrwt>
<totfact> 0.14781393E+07</totfact>
</mgrwt>
</event>
<event>
 4    1  0.9138221E+003  0.2888448E+02  0.7546771E-02  0.1610757E+00
         21   -1    0    0  502  501  0.00000000000E+00  0.00000000000E+00  0.34378523010E+02  0.34378523010E+02  0.00000000000E+00 0. -1.
         21   -1    0    0  504  502 -0.00000000000E+00 -0.00000000000E+00 -0.29294559277E+02  0.29294559277E+02  0.00000000000E+00 0. -1.
         21    1    1    2  503  501 -0.24998622401E+02  0.14470039091E+02  0.15729065213E+02  0.32889461013E+02  0.00000000000E+00 0.  1.
         21    1    1    2  504  503  0.24998622401E+02 -0.14470039091E+02 -0.10645101481E+02  0.30783621274E+02  0.00000000000E+00 0.  1.
<mgrwt>
<rscale>  2 0.28884479E+02</rscale>
<asrwt>0</asrwt>
<pdfrwt beam="1">  1       21 0.52890035E-02 0.28884479E+02</pdfrwt>
<pdfrwt beam="2">  1       21 0.45068553E-02 0.28884479E+02</pdfrwt>
<totfact> 0.58525749E+07</totfact>
</mgrwt>
</event>
<event>
 4    1  0.9138221E+003  0.3848023E+02  0.7546771E-02  0.1519703E+00
         21   -1    0    0  502  501  0.00000000000E+00  0.00000000000E+00  0.80601040992E+03  0.80601040992E+03  0.00000000000E+00 0. -1.
         21   -1    0    0  503  502 -0.00000000000E+00 -0.00000000000E+00 -0.39349101365E+01  0.39349101365E+01  0.00000000000E+00 0. -1.
         21    1    1    2  503  504  0.92336979245E-01 -0.38480120115E+02  0.10534508091E+03  0.11215308396E+03  0.00000000000E+00 0. -1.
         21    1    1    2  504  501 -0.92336979245E-01  0.38480120115E+02  0.69673041888E+03  0.69779223610E+03  0.00000000000E+00 0. -1.
<mgrwt>
<rscale>  2 0.38480231E+02</rscale>
<asrwt>0</asrwt>
<pdfrwt beam="1">  1       21 0.12400147E+00 0.38480231E+02</pdfrwt>
<pdfrwt beam="2">  1       21 0.60537143E-03 0.38480231E+02</pdfrwt>
<totfact> 0.37929816E+06</totfact>
</mgrwt>
</event>
<event>
 4    1  0.9138221E+003  0.2142949E+02  0.7546771E-02  0.1718310E+00
         21   -1    0    0  503  501  0.00000000000E+00  0.00000000000E+00  0.12653376880E+03  0.12653376880E+03  0.00000000000E+00 0. -1.
         21   -1    0    0  501  502 -0.00000000000E+00 -0.00000000000E+00 -0.52677511706E+01  0.52677511706E+01  0.00000000000E+00 0. -1.
         21    1    1    2  503  504 -0.18690141230E+02 -0.10483397863E+02  0.97386688807E+02  0.99716549111E+02  0.00000000000E+00 0.  1.
         21    1    1    2  504  502  0.18690141230E+02  0.10483397863E+02  0.23879328818E+02  0.32084970855E+02  0.00000000000E+00 0.  1.
<mgrwt>
<rscale>  2 0.21429489E+02</rscale>
<asrwt>0</asrwt>
<pdfrwt beam="1">  1       21 0.19466731E-01 0.21429489E+02</pdfrwt>
<pdfrwt beam="2">  1       21 0.81042335E-03 0.21429489E+02</pdfrwt>
<totfact> 0.86751807E+07</totfact>
</mgrwt>
</event>
<event>
 4    1  0.9138221E+003  0.2148234E+02  0.7546771E-02  0.1717362E+00
         21   -1    0    0  504  501  0.00000000000E+00  0.00000000000E+00  0.85971635530E+02  0.85971635530E+02  0.00000000000E+00 0.  1.
         21   -1    0    0  501  502 -0.00000000000E+00 -0.00000000000E+00 -0.10410537405E+02  0.10410537405E+02  0.00000000000E+00 0.  1.
         21    1    1    2  503  502 -0.82994630435E+01 -0.19814385677E+02  0.71320088769E+02  0.74485206776E+02  0.00000000000E+00 0.  1.
         21    1    1    2  504  503  0.82994630435E+01  0.19814385677E+02  0.42410093567E+01  0.21896966158E+02  0.00000000000E+00 0.  1.
<mgrwt>
<rscale>  2 0.21482341E+02</rscale>
<asrwt>0</asrwt>
<pdfrwt beam="1">  1       21 0.13226405E-01 0.21482341E+02</pdfrwt>
<pdfrwt beam="2">  1       21 0.16016212E-02 0.21482341E+02</pdfrwt>
<totfact> 0.60279791E+07</totfact>
</mgrwt>
</event>
<event>
 4    1  0.9138221E+003  0.2251606E+02  0.7546771E-02  0.1699477E+00
         21   -1    0    0  502  501  0.00000000000E+00  0.00000000000E+00  0.73678519776E+01  0.73678519776E+01  0.00000000000E+00 0. -1.
         21   -1    0    0  503  502 -0.00000000000E+00 -0.00000000000E+00 -0.10058046325E+03  0.10058046325E+03  0.00000000000E+00 0. -1.
         21    1    1    2  503  504  0.42643913564E+01  0.22108544145E+02 -0.16270934933E+02  0.27779778283E+02  0.00000000000E+00 0.  1.
         21    1    1    2  504  501 -0.42643913564E+01 -0.22108544145E+02 -0.76941676337E+02  0.80168536942E+02  0.00000000000E+00 0.  1.
<mgrwt>
<rscale>  2 0.22516056E+02</rscale>
<asrwt>0</asrwt>
<pdfrwt beam="1">  1       21 0.11335158E-02 0.22516056E+02</pdfrwt>
<pdfrwt beam="2">  1       21 0.15473916E-01 0.22516056E+02</pdfrwt>
<totfact> 0.78954405E+07</totfact>
</mgrwt>
</event>
<event>
 4    1  0.9138221E+003  0.2885621E+02  0.7546771E-02  0.1611087E+00
         21   -1    0    0  502  501  0.00000000000E+00  0.00000000000E+00  0.29205492131E+03  0.29205492131E+03  0.00000000000E+00 0. -1.
         21   -1    0    0  504  502 -0.00000000000E+00 -0.00000000000E+00 -0.77165827102E+01  0.77165827102E+01  0.00000000000E+00 0. -1.
         21    1    1    2  503  501  0.28748473807E+02 -0.24911829003E+01  0.23151796581E+02  0.36995762236E+02  0.00000000000E+00 0. -1.
         21    1    1    2  504  503 -0.28748473807E+02  0.24911829003E+01  0.26118654202E+03  0.26277574178E+03  0.00000000000E+00 0. -1.
<mgrwt>
<rscale>  2 0.28856208E+02</rscale>
<asrwt>0</asrwt>
<pdfrwt beam="1">  1       21 0.44931518E-01 0.28856208E+02</pdfrwt>
<pdfrwt beam="2">  1       21 0.11871668E-02 0.28856208E+02</pdfrwt>
<totfact> 0.11317499E+07</totfact>
</mgrwt>
</event>
<event>
 4    1  0.9138221E+003  0.3286635E+02  0.7546771E-02  0.1568407E+00
         21   -1    0    0  502  501  0.00000000000E+00  0.00000000000E+00  0.22893399866E+01  0.22893399866E+01  0.00000000000E+00 0.  1.
         21   -1    0    0  504  502 -0.00000000000E+00 -0.00000000000E+00 -0.65002375317E+03  0.65002375317E+03  0.00000000000E+00 0.  1.
         21    1    1    2  503  501 -0.32244980281E+02  0.63607015171E+01 -0.49463192541E+03  0.49572264313E+03  0.00000000000E+00 0. -1.
         21    1    1    2  504  503  0.32244980281E+02 -0.63607015171E+01 -0.15310248778E+03  0.15659045003E+03  0.00000000000E+00 0. -1.
<mgrwt>
<rscale>  2 0.32866355E+02</rscale>
<asrwt>0</asrwt>
<pdfrwt beam="1">  1       21 0.35220624E-03 0.32866355E+02</pdfrwt>
<pdfrwt beam="2">  1       21 0.10000363E+00 0.32866355E+02</pdfrwt>
<totfact> 0.13665217E+07</totfact>
</mgrwt>
</event>
<event>
 4    1  0.9138221E+003  0.2716215E+02  0.7546771E-02  0.1631757E+00
         21   -1    0    0  502  501  0.00000000000E+00  0.00000000000E+00  0.10999511507E+03  0.10999511507E+03  0.00000000000E+00 0.  1.
         21   -1    0    0  504  502 -0.00000000000E+00 -0.00000000000E+00 -0.18966680560E+02  0.18966680560E+02  0.00000000000E+00 0.  1.
         21    1    1    2  503  501 -0.27128907158E+02  0.13433419992E+01 -0.63261121215E+01  0.27889099410E+02  0.00000000000E+00 0. -1.
         21    1    1    2  504  503  0.27128907158E+02 -0.13433419992E+01  0.97354546634E+02  0.10107269622E+03  0.00000000000E+00 0. -1.
<mgrwt>
<rscale>  2 0.27162146E+02</rscale>
<asrwt>0</asrwt>
<pdfrwt beam="1">  1       21 0.16922325E-01 0.27162146E+02</pdfrwt>
<pdfrwt beam="2">  1       21 0.29179509E-02 0.27162146E+02</pdfrwt>
<totfact> 0.16571864E+07</totfact>
</mgrwt>
</event>
<event>
 4    1  0.9138221E+003  0.2531433E+02  0.7546771E-02  0.1656528E+00
         21   -1    0    0  502  501  0.00000000000E+00  0.00000000000E+00  0.30112140151E+01  0.30112140151E+01  0.00000000000E+00 0. -1.
         21   -1    0    0  503  502 -0.00000000000E+00 -0.00000000000E+00 -0.24303794537E+03  0.24303794537E+03  0.00000000000E+00 0. -1.
         21    1    1    2  503  504 -0.25301710289E+02  0.79914809223E+00 -0.16340062319E+03  0.16534986798E+03  0.00000000000E+00 0.  1.
         21    1    1    2  504  501  0.25301710289E+02 -0.79914809223E+00 -0.76626108166E+02  0.80699291409E+02  0.00000000000E+00 0.  1.
<mgrwt>
<rscale>  2 0.25314328E+02</rscale>
<asrwt>0</asrwt>
<pdfrwt beam="1">  1       21 0.46326381E-03 0.25314328E+02</pdfrwt>
<pdfrwt beam="2">  1       21 0.37390444E-01 0.25314328E+02</pdfrwt>
<totfact> 0.64078668E+07</totfact>
</mgrwt>
</event>
<event>
 4    1  0.9138221E+003  0.2492672E+02  0.7546771E-02  0.1662057E+00
         21   -1    0    0  502  501  0.00000000000E+00  0.00000000000E+00  0.79029329634E+02  0.79029329634E+02  0.00000000000E+00 0.  1.
         21   -1    0    0  504  502 -0.00000000000E+00 -0.00000000000E+00 -0.38325591488E+02  0.38325591488E+02  0.00000000000E+00 0.  1.
         21    1    1    2  503  501  0.19580080886E+02  0.15426008830E+02  0.72665670642E+02  0.76822138774E+02  0.00000000000E+00 0. -1.
         21    1    1    2  504  503 -0.19580080886E+02 -0.15426008830E+02 -0.31961932497E+02  0.40532782348E+02  0.00000000000E+00 0. -1.
<mgrwt>
<rscale>  2 0.24926719E+02</rscale>
<asrwt>0</asrwt>
<pdfrwt beam="1">  1       21 0.12158358E-01 0.24926719E+02</pdfrwt>
<pdfrwt beam="2">  1       21 0.58962448E-02 0.24926719E+02</pdfrwt>
<totfact> 0.93931560E+06</totfact>
</mgrwt>
</event>
<event>
 4    1  0.9138221E+003  0.2157554E+02  0.7546771E-02  0.1715698E+00
         21   -1    0    0  503  501  0.00000000000E+00  0.00000000000E+00  0.46594865685E+02  0.46594865685E+02  0.00000000000E+00 0. -1.
         21   -1    0    0  501  502 -0.00000000000E+00 -0.00000000000E+00 -0.12712325927E+02  0.12712325927E+02  0.00000000000E+00 0. -1.
         21    1    1    2  503  504 -0.11228002914E+02 -0.18423783265E+02  0.32198600264E+01  0.21814475419E+02  0.00000000000E+00 0. -1.
         21    1    1    2  504  502  0.11228002914E+02  0.18423783265E+02  0.30662679732E+02  0.37492716193E+02  0.00000000000E+00 0. -1.
<mgrwt>
<rscale>  2 0.21575538E+02</rscale>
<asrwt>0</asrwt>
<pdfrwt beam="1">  1       21 0.71684408E-02 0.21575538E+02</pdfrwt>
<pdfrwt beam="2">  1       21 0.19557425E-02 0.21575538E+02</pdfrwt>
<totfact> 0.12210770E+08</totfact>
</mgrwt>
</event>
<event>
 4    1  0.9138221E+003  0.3312814E+02  0.7546771E-02  0.1565880E+00
         21   -1    0    0  503  501  0.00000000000E+00  0.00000000000E+00  0.20173080373E+02  0.20173080373E+02  0.00000000000E+00 0.  1.
         21   -1    0    0  501  502 -0.00000000000E+00 -0.00000000000E+00 -0.62291100555E+02  0.62291100555E+02  0.00000000000E+00 0.  1.
         21    1    1    2  503  504 -0.67218569906E+01 -0.32439019884E+02 -0.35731785894E+02  0.48726111025E+02  0.00000000000E+00 0. -1.
         21    1    1    2  504  502  0.67218569906E+01  0.32439019884E+02 -0.63862342891E+01  0.33738069904E+02  0.00000000000E+00 0. -1.
<mgrwt>
<rscale>  2 0.33128136E+02</rscale>
<asrwt>0</asrwt>
<pdfrwt beam="1">  1       21 0.31035509E-02 0.33128136E+02</pdfrwt>
<pdfrwt beam="2">  1       21 0.95832461E-02 0.33128136E+02</pdfrwt>
<totfact> 0.41135596E+07</totfact>
</mgrwt>
</event>
<event>
 4    1  0.9138221E+003  0.3584407E+02  0.7546771E-02  0.1541230E+00
         21   -1    0    0  504  501  0.00000000000E+00  0.00000000000E+00  0.20699208554E+02  0.20699208554E+02  0.00000000000E+00 0. -1.
         21   -1    0    0  501  502 -0.00000000000E+00 -0.00000000000E+00 -0.15731541380E+03  0.15731541380E+03  0.00000000000E+00 0. -1.
         21    1    1    2  503  502  0.28294733998E+02  0.22004669055E+02  0.94868581429E+00  0.35856623336E+02  0.00000000000E+00 0. -1.
         21    1    1    2  504  503 -0.28294733998E+02 -0.22004669055E+02 -0.13756489106E+03  0.14215799902E+03  0.00000000000E+00 0. -1.
<mgrwt>
<rscale>  2 0.35844071E+02</rscale>
<asrwt>0</asrwt>
<pdfrwt beam="1">  1       21 0.31844936E-02 0.35844071E+02</pdfrwt>
<pdfrwt beam="2">  1       21 0.24202372E-01 0.35844071E+02</pdfrwt>
<totfact> 0.80211013E+06</totfact>
</mgrwt>
</event>
<event>
 4    1  0.9138221E+003  0.3073007E+02  0.7546771E-02  0.1590156E+00
         21   -1    0    0  503  501  0.00000000000E+00  0.00000000000E+00  0.65665534829E+02  0.65665534829E+02  0.00000000000E+00 0.  1.
         21   -1    0    0  501  502 -0.00000000000E+00 -0.00000000000E+00 -0.16776218032E+02  0.16776218032E+02  0.00000000000E+00 0.  1.
         21    1    1    2  503  504  0.88955406155E+01 -0.29414392343E+02  0.40020131553E+02  0.50457388451E+02  0.00000000000E+00 0. -1.
         21    1    1    2  504  502 -0.88955406155E+01  0.29414392343E+02  0.88691852438E+01  0.31984364409E+02  0.00000000000E+00 0. -1.
<mgrwt>
<rscale>  2 0.30730069E+02</rscale>
<asrwt>0</asrwt>
<pdfrwt beam="1">  1       21 0.10102390E-01 0.30730069E+02</pdfrwt>
<pdfrwt beam="2">  1       21 0.25809567E-02 0.30730069E+02</pdfrwt>
<totfact> 0.49537744E+07</totfact>
</mgrwt>
</event>
<event>
 4    1  0.9138221E+003  0.2188263E+02  0.7546771E-02  0.1710290E+00
         21   -1    0    0  502  501  0.00000000000E+00  0.00000000000E+00  0.11780629259E+03  0.11780629259E+03  0.00000000000E+00 0. -1.
         21   -1    0    0  503  502 -0.00000000000E+00 -0.00000000000E+00 -0.94188343725E+01  0.94188343725E+01  0.00000000000E+00 0. -1.
         21    1    1    2  503  504 -0.21502495200E+02  0.40610811383E+01  0.62327423618E+01  0.22752950516E+02  0.00000000000E+00 0. -1.
         21    1    1    2  504  501  0.21502495200E+02 -0.40610811383E+01  0.10215471585E+03  0.10447217644E+03  0.00000000000E+00 0. -1.
<mgrwt>
<rscale>  2 0.21882634E+02</rscale>
<asrwt>0</asrwt>
<pdfrwt beam="1">  1       21 0.18124044E-01 0.21882634E+02</pdfrwt>
<pdfrwt beam="2">  1       21 0.14490515E-02 0.21882634E+02</pdfrwt>
<totfact> 0.41233331E+07</totfact>
</mgrwt>
</event>
<event>
 4    1  0.9138221E+003  0.2690744E+02  0.7546771E-02  0.1635025E+00
         21   -1    0    0  502  501  0.00000000000E+00  0.00000000000E+00  0.32511906294E+01  0.32511906294E+01  0.00000000000E+00 0. -1.
         21   -1    0    0  503  502 -0.00000000000E+00 -0.00000000000E+00 -0.28150826449E+03  0.28150826449E+03  0.00000000000E+00 0. -1.
         21    1    1    2  503  504 -0.22857280057E+02 -0.14197005219E+02 -0.74047304225E+02  0.78784601743E+02  0.00000000000E+00 0. -1.
         21    1    1    2  504  501  0.22857280057E+02  0.14197005219E+02 -0.20420976964E+03  0.20597485338E+03  0.00000000000E+00 0. -1.
<mgrwt>
<rscale>  2 0.26907438E+02</rscale>
<asrwt>0</asrwt>
<pdfrwt beam="1">  1       21 0.50018319E-03 0.26907438E+02</pdfrwt>
<pdfrwt beam="2">  1       21 0.43308962E-01 0.26907438E+02</pdfrwt>
<totfact> 0.43886179E+07</totfact>
</mgrwt>
</event>
<event>
 4    1  0.9138221E+003  0.2018258E+02  0.7546771E-02  0.1741721E+00
         21   -1    0    0  503  501  0.00000000000E+00  0.00000000000E+00  0.10719828633E+02  0.10719828633E+02  0.00000000000E+00 0. -1.
         21   -1    0    0  501  502 -0.00000000000E+00 -0.00000000000E+00 -0.48094444968E+02  0.48094444968E+02  0.00000000000E+00 0. -1.
         21    1    1    2  503  504  0.19608419352E+02 -0.47798014670E+01 -0.32160806385E+02  0.37969120070E+02  0.00000000000E+00 0. -1.
         21    1    1    2  504  502 -0.19608419352E+02  0.47798014670E+01 -0.52138099491E+01  0.20845153531E+02  0.00000000000E+00 0. -1.
<mgrwt>
<rscale>  2 0.20182582E+02</rscale>
<asrwt>0</asrwt>
<pdfrwt beam="1">  1       21 0.16492044E-02 0.20182582E+02</pdfrwt>
<pdfrwt beam="2">  1       21 0.73991454E-02 0.20182582E+02</pdfrwt>
<totfact> 0.14738161E+08</totfact>
</mgrwt>
</event>
<event>
 4    1  0.9138221E+003  0.2143013E+02  0.7546771E-02  0.1718298E+00
         21   -1    0    0  504  501  0.00000000000E+00  0.00000000000E+00  0.11829238050E+04  0.11829238050E+04  0.00000000000E+00 0. -1.
         21   -1    0    0  501  502 -0.00000000000E+00 -0.00000000000E+00 -0.43217446144E+00  0.43217446144E+00  0.00000000000E+00 0. -1.
         21    1    1    2  503  502  0.21309538666E+02  0.22702900178E+01  0.40258112923E+03  0.40315110848E+03  0.00000000000E+00 0.  1.
         21    1    1    2  504  503 -0.21309538666E+02 -0.22702900178E+01  0.77991050133E+03  0.78020487101E+03  0.00000000000E+00 0.  1.
<mgrwt>
<rscale>  2 0.21430134E+02</rscale>
<asrwt>0</asrwt>
<pdfrwt beam="1">  1       21 0.18198569E+00 0.21430134E+02</pdfrwt>
<pdfrwt beam="2">  1       21 0.66489325E-04 0.21430134E+02</pdfrwt>
<totfact> 0.34806565E+07</totfact>
</mgrwt>
</event>
<event>
 4    1  0.9138221E+003  0.2382409E+02  0.7546771E-02  0.1678490E+00
         21   -1    0    0  502  501  0.00000000000E+00  0.00000000000E+00  0.51558502570E+01  0.51558502570E+01  0.00000000000E+00 0.  1.
         21   -1    0    0  504  502 -0.00000000000E+00 -0.00000000000E+00 -0.14711432487E+03  0.14711432487E+03  0.00000000000E+00 0.  1.
         21    1    1    2  503  501  0.83423882355E+01 -0.22315725915E+02 -0.32782677366E+02  0.40525189695E+02  0.00000000000E+00 0.  1.
         21    1    1    2  504  503 -0.83423882355E+01  0.22315725915E+02 -0.10917579725E+03  0.11174498544E+03  0.00000000000E+00 0.  1.
<mgrwt>
<rscale>  2 0.23824086E+02</rscale>
<asrwt>0</asrwt>
<pdfrwt beam="1">  1       21 0.79320790E-03 0.23824086E+02</pdfrwt>
<pdfrwt beam="2">  1       21 0.22632968E-01 0.23824086E+02</pdfrwt>
<totfact> 0.70779467E+07</totfact>
</mgrwt>
</event>
<event>
 4    1  0.9138221E+003  0.2038588E+02  0.7546771E-02  0.1737761E+00
         21   -1    0    0  503  501  0.00000000000E+00  0.00000000000E+00  0.77401785833E+02  0.77401785833E+02  0.00000000000E+00 0.  1.
         21   -1    0    0  501  502 -0.00000000000E+00 -0.00000000000E+00 -0.10836242142E+02  0.10836242142E+02  0.00000000000E+00 0.  1.
         21    1    1    2  503  504 -0.18377909095E+02  0.88225085885E+01  0.64620204342E+02  0.67759538146E+02  0.00000000000E+00 0.  1.
         21    1    1    2  504  502  0.18377909095E+02 -0.88225085885E+01  0.19453393494E+01  0.20478489829E+02  0.00000000000E+00 0.  1.
<mgrwt>
<rscale>  2 0.20385882E+02</rscale>
<asrwt>0</asrwt>
<pdfrwt beam="1">  1       21 0.11907967E-01 0.20385882E+02</pdfrwt>
<pdfrwt beam="2">  1       21 0.16671142E-02 0.20385882E+02</pdfrwt>
<totfact> 0.66659041E+07</totfact>
</mgrwt>
</event>
<event>
 4    1  0.9138221E+003  0.2954350E+02  0.7546771E-02  0.1603190E+00
         21   -1    0    0  502  501  0.00000000000E+00  0.00000000000E+00  0.50179009937E+02  0.50179009937E+02  0.00000000000E+00 0.  1.
         21   -1    0    0  503  502 -0.00000000000E+00 -0.00000000000E+00 -0.23208820475E+02  0.23208820475E+02  0.00000000000E+00 0.  1.
         21    1    1    2  503  504  0.10038201182E+02 -0.27785835069E+02 -0.48816583955E+01  0.29944092942E+02  0.00000000000E+00 0. -1.
         21    1    1    2  504  501 -0.10038201182E+02  0.27785835069E+02  0.31851847857E+02  0.43443737470E+02  0.00000000000E+00 0. -1.
<mgrwt>
<rscale>  2 0.29543495E+02</rscale>
<asrwt>0</asrwt>
<pdfrwt beam="1">  1       21 0.77198477E-02 0.29543495E+02</pdfrwt>
<pdfrwt beam="2">  1       21 0.35705878E-02 0.29543495E+02</pdfrwt>
<totfact> 0.46054743E+07</totfact>
</mgrwt>
</event>
<event>
 4    1  0.9138221E+003  0.3782839E+02  0.7546771E-02  0.1524829E+00
         21   -1    0    0  502  501  0.00000000000E+00  0.00000000000E+00  0.29619757358E+03  0.29619757358E+03  0.00000000000E+00 0. -1.
         21   -1    0    0  504  502 -0.00000000000E+00 -0.00000000000E+00 -0.84288684362E+01  0.84288684362E+01  0.00000000000E+00 0. -1.
         21    1    1    2  503  501  0.29235416732E+02  0.24005775111E+02  0.24339375567E+03  0.24631586861E+03  0.00000000000E+00 0. -1.
         21    1    1    2  504  503 -0.29235416732E+02 -0.24005775111E+02  0.44374949476E+02  0.58310573408E+02  0.00000000000E+00 0. -1.
<mgrwt>
<rscale>  2 0.37828387E+02</rscale>
<asrwt>0</asrwt>
<pdfrwt beam="1">  1       21 0.45568850E-01 0.37828387E+02</pdfrwt>
<pdfrwt beam="2">  1       21 0.12967492E-02 0.37828387E+02</pdfrwt>
<totfact> 0.10004886E+07</totfact>
</mgrwt>
</event>
<event>
 4    1  0.9138221E+003  0.2181710E+02  0.7546771E-02  0.1711434E+00
         21   -1    0    0  503  501  0.00000000000E+00  0.00000000000E+00  0.28580217217E+01  0.28580217217E+01  0.00000000000E+00 0.  1.
         21   -1    0    0  501  502 -0.00000000000E+00 -0.00000000000E+00 -0.18756645439E+03  0.18756645439E+03  0.00000000000E+00 0.  1.
         21    1    1    2  503  504  0.16895307501E+02 -0.13803426913E+02 -0.60478628824E+02  0.64293472099E+02  0.00000000000E+00 0.  1.
         21    1    1    2  504  502 -0.16895307501E+02  0.13803426913E+02 -0.12422980384E+03  0.12613100401E+03  0.00000000000E+00 0.  1.
<mgrwt>
<rscale>  2 0.21817104E+02</rscale>
<asrwt>0</asrwt>
<pdfrwt beam="1">  1       21 0.43969562E-03 0.21817104E+02</pdfrwt>
<pdfrwt beam="2">  1       21 0.28856380E-01 0.21817104E+02</pdfrwt>
<totfact> 0.10729049E+08</totfact>
</mgrwt>
</event>
<event>
 4    1  0.9138221E+003  0.2987922E+02  0.7546771E-02  0.1599428E+00
         21   -1    0    0  503  501  0.00000000000E+00  0.00000000000E+00  0.25854258334E+03  0.25854258334E+03  0.00000000000E+00 0.  1.
         21   -1    0    0  501  502 -0.00000000000E+00 -0.00000000000E+00 -0.64921330889E+01  0.64921330889E+01  0.00000000000E+00 0.  1.
         21    1    1    2  503  504  0.21081024514E+02  0.21174470916E+02  0.21669203164E+03  0.21874232418E+03  0.00000000000E+00 0.  1.
         21    1    1    2  504  502 -0.21081024514E+02 -0.21174470916E+02  0.35358418613E+02  0.46292392247E+02  0.00000000000E+00 0.  1.
<mgrwt>
<rscale>  2 0.29879220E+02</rscale>
<asrwt>0</asrwt>
<pdfrwt beam="1">  1       21 0.39775774E-01 0.29879220E+02</pdfrwt>
<pdfrwt beam="2">  1       21 0.99878991E-03 0.29879220E+02</pdfrwt>
<totfact> 0.18696372E+07</totfact>
</mgrwt>
</event>
<event>
 4    1  0.9138221E+003  0.2966460E+02  0.7546771E-02  0.1601826E+00
         21   -1    0    0  504  501  0.00000000000E+00  0.00000000000E+00  0.16725169587E+02  0.16725169587E+02  0.00000000000E+00 0. -1.
         21   -1    0    0  501  502 -0.00000000000E+00 -0.00000000000E+00 -0.64543612473E+02  0.64543612473E+02  0.00000000000E+00 0. -1.
         21    1    1    2  503  502  0.28043938811E+02  0.96708931784E+01 -0.64401932475E+01  0.30355638158E+02  0.00000000000E+00 0. -1.
         21    1    1    2  504  503 -0.28043938811E+02 -0.96708931784E+01 -0.41378249638E+02  0.50913143903E+02  0.00000000000E+00 0. -1.
<mgrwt>
<rscale>  2 0.29664603E+02</rscale>
<asrwt>0</asrwt>
<pdfrwt beam="1">  1       21 0.25731030E-02 0.29664603E+02</pdfrwt>
<pdfrwt beam="2">  1       21 0.99297866E-02 0.29664603E+02</pdfrwt>
<totfact> 0.50842975E+07</totfact>
</mgrwt>
</event>
<event>
 4    1  0.9138221E+003  0.2325787E+02  0.7546771E-02  0.1687364E+00
         21   -1    0    0  504  501  0.00000000000E+00  0.00000000000E+00  0.11655158013E+03  0.11655158013E+03  0.00000000000E+00 0. -1.
         21   -1    0    0  501  502 -0.00000000000E+00 -0.00000000000E+00 -0.54041901703E+01  0.54041901703E+01  0.00000000000E+00 0. -1.
         21    1    1    2  503  502 -0.18594937291E+02  0.13969852234E+02  0.32660127249E+02  0.40095041791E+02  0.00000000000E+00 0.  1.
         21    1    1    2  504  503  0.18594937291E+02 -0.13969852234E+02  0.78487262711E+02  0.81860728510E+02  0.00000000000E+00 0.  1.
<mgrwt>
<rscale>  2 0.23257869E+02</rscale>
<asrwt>0</asrwt>
<pdfrwt beam="1">  1       21 0.17931010E-01 0.23257869E+02</pdfrwt>
<pdfrwt beam="2">  1       21 0.83141396E-03 0.23257869E+02</pdfrwt>
<totfact> 0.98480693E+07</totfact>
</mgrwt>
</event>
<event>
 4    1  0.9138221E+003  0.2931869E+02  0.7546771E-02  0.1605744E+00
         21   -1    0    0  503  501  0.00000000000E+00  0.00000000000E+00  0.35392689377E+03  0.35392689377E+03  0.00000000000E+00 0.  1.
         21   -1    0    0  501  502 -0.00000000000E+00 -0.00000000000E+00 -0.39369635047E+01  0.39369635047E+01  0.00000000000E+00 0.  1.
         21    1    1    2  503  504  0.28955595714E+02 -0.45999248692E+01  0.64244820634E+02  0.70618572701E+02  0.00000000000E+00 0.  1.
         21    1    1    2  504  502 -0.28955595714E+02  0.45999248692E+01  0.28574510963E+03  0.28724528458E+03  0.00000000000E+00 0.  1.
<mgrwt>
<rscale>  2 0.29318694E+02</rscale>
<asrwt>0</asrwt>
<pdfrwt beam="1">  1       21 0.54450266E-01 0.29318694E+02</pdfrwt>
<pdfrwt beam="2">  1       21 0.60568697E-03 0.29318694E+02</pdfrwt>
<totfact> 0.21471237E+07</totfact>
</mgrwt>
</event>
<event>
 4    1  0.9138221E+003  0.4056313E+02  0.7546771E-02  0.1504108E+00
         21   -1    0    0  502  501  0.00000000000E+00  0.00000000000E+00  0.17144779134E+02  0.17144779134E+02  0.00000000000E+00 0. -1.
         21   -1    0    0  504  502 -0.00000000000E+00 -0.00000000000E+00 -0.12265525156E+03  0.12265525156E+03  0.00000000000E+00 0. -1.
         21    1    1    2  503  501  0.98266516917E+01 -0.39354848766E+02 -0.20150699436E+02  0.45292580989E+02  0.00000000000E+00 0.  1.
         21    1    1    2  504  503 -0.98266516917E+01  0.39354848766E+02 -0.85359772985E+02  0.94507449701E+02  0.00000000000E+00 0.  1.
<mgrwt>
<rscale>  2 0.40563126E+02</rscale>
<asrwt>0</asrwt>
<pdfrwt beam="1">  1       21 0.26376583E-02 0.40563126E+02</pdfrwt>
<pdfrwt beam="2">  1       21 0.18870039E-01 0.40563126E+02</pdfrwt>
<totfact> 0.17179631E+07</totfact>
</mgrwt>
</event>
<event>
 4    1  0.9138221E+003  0.3662405E+02  0.7546771E-02  0.1534634E+00
         21   -1    0    0  502  501  0.00000000000E+00  0.00000000000E+00  0.32633693870E+02  0.32633693870E+02  0.00000000000E+00 0.  1.
         21   -1    0    0  504  502 -0.00000000000E+00 -0.00000000000E+00 -0.69773703838E+02  0.69773703838E+02  0.00000000000E+00 0.  1.
         21    1    1    2  503  501  0.35648235588E+02  0.83978763212E+01 -0.51393109644E+02  0.63107628272E+02  0.00000000000E+00 0.  1.
         21    1    1    2  504  503 -0.35648235588E+02 -0.83978763212E+01  0.14253099676E+02  0.39299769435E+02  0.00000000000E+00 0.  1.
<mgrwt>
<rscale>  2 0.36624050E+02</rscale>
<asrwt>0</asrwt>
<pdfrwt beam="1">  1       21 0.50205682E-02 0.36624050E+02</pdfrwt>
<pdfrwt beam="2">  1       21 0.10734416E-01 0.36624050E+02</pdfrwt>
<totfact> 0.16039939E+07</totfact>
</mgrwt>
</event>
<event>
 4    1  0.9138221E+003  0.2973467E+02  0.7546771E-02  0.1601040E+00
         21   -1    0    0  504  501  0.00000000000E+00  0.00000000000E+00  0.78211558032E+02  0.78211558032E+02  0.00000000000E+00 0.  1.
         21   -1    0    0  501  502 -0.00000000000E+00 -0.00000000000E+00 -0.26239213681E+02  0.26239213681E+02  0.00000000000E+00 0.  1.
         21    1    1    2  503  502 -0.19220702163E+02  0.22687338710E+02  0.65386803493E+02  0.71830249898E+02  0.00000000000E+00 0.  1.
         21    1    1    2  504  503  0.19220702163E+02 -0.22687338710E+02 -0.13414459142E+02  0.32620521815E+02  0.00000000000E+00 0.  1.
<mgrwt>
<rscale>  2 0.29734672E+02</rscale>
<asrwt>0</asrwt>
<pdfrwt beam="1">  1       21 0.12032547E-01 0.29734672E+02</pdfrwt>
<pdfrwt beam="2">  1       21 0.40368021E-02 0.29734672E+02</pdfrwt>
<totfact> 0.18106142E+07</totfact>
</mgrwt>
</event>
<event>
 4    1  0.9138221E+003  0.2271386E+02  0.7546771E-02  0.1696191E+00
         21   -1    0    0  502  501  0.00000000000E+00  0.00000000000E+00  0.64877740981E+01  0.64877740981E+01  0.00000000000E+00 0.  1.
         21   -1    0    0  503  502 -0.00000000000E+00 -0.00000000000E+00 -0.10627306697E+03  0.10627306697E+03  0.00000000000E+00 0.  1.
         21    1    1    2  503  504  0.22191657042E+02  0.48424950370E+01 -0.21605510734E+02  0.31348325227E+02  0.00000000000E+00 0. -1.
         21    1    1    2  504  501 -0.22191657042E+02 -0.48424950370E+01 -0.78179782139E+02  0.81412515843E+02  0.00000000000E+00 0. -1.
<mgrwt>
<rscale>  2 0.22713859E+02</rscale>
<asrwt>0</asrwt>
<pdfrwt beam="1">  1       21 0.99811920E-03 0.22713859E+02</pdfrwt>
<pdfrwt beam="2">  1       21 0.16349701E-01 0.22713859E+02</pdfrwt>
<totfact> 0.87221105E+07</totfact>
</mgrwt>
</event>
<event>
 4    1  0.9138221E+003  0.2344916E+02  0.7546771E-02  0.1684331E+00
         21   -1    0    0  502  501  0.00000000000E+00  0.00000000000E+00  0.17831865362E+02  0.17831865362E+02  0.00000000000E+00 0. -1.
         21   -1    0    0  504  502 -0.00000000000E+00 -0.00000000000E+00 -0.47912149009E+02  0.47912149009E+02  0.00000000000E+00 0. -1.
         21    1    1    2  503  501 -0.18387066203E+02 -0.14552619100E+02  0.45843628470E+01  0.23893080776E+02  0.00000000000E+00 0.  1.
         21    1    1    2  504  503  0.18387066203E+02  0.14552619100E+02 -0.34664646494E+02  0.41850933595E+02  0.00000000000E+00 0.  1.
<mgrwt>
<rscale>  2 0.23449156E+02</rscale>
<asrwt>0</asrwt>
<pdfrwt beam="1">  1       21 0.27433639E-02 0.23449156E+02</pdfrwt>
<pdfrwt beam="2">  1       21 0.73710997E-02 0.23449156E+02</pdfrwt>
<totfact> 0.70950906E+07</totfact>
</mgrwt>
</event>
<event>
 4    1  0.9138221E+003  0.2527349E+02  0.7546771E-02  0.1657104E+00
         21   -1    0    0  504  501  0.00000000000E+00  0.00000000000E+00  0.33470091790E+03  0.33470091790E+03  0.00000000000E+00 0. -1.
         21   -1    0    0  501  502 -0.00000000000E+00 -0.00000000000E+00 -0.36945974372E+01  0.36945974372E+01  0.00000000000E+00 0. -1.
         21    1    1    2  503  502  0.13099815479E+02 -0.21613520754E+02  0.47858149142E+02  0.54121639704E+02  0.00000000000E+00 0.  1.
         21    1    1    2  504  503 -0.13099815479E+02  0.21613520754E+02  0.28314817132E+03  0.28427387563E+03  0.00000000000E+00 0.  1.
<mgrwt>
<rscale>  2 0.25273493E+02</rscale>
<asrwt>0</asrwt>
<pdfrwt beam="1">  1       21 0.51492425E-01 0.25273493E+02</pdfrwt>
<pdfrwt beam="2">  1       21 0.56839987E-03 0.25273493E+02</pdfrwt>
<totfact> 0.25626769E+07</totfact>
</mgrwt>
</event>
<event>
 4    1  0.9138221E+003  0.2541482E+02  0.7546771E-02  0.1655114E+00
         21   -1    0    0  502  501  0.00000000000E+00  0.00000000000E+00  0.62089904948E+01  0.62089904948E+01  0.00000000000E+00 0. -1.
         21   -1    0    0  503  502 -0.00000000000E+00 -0.00000000000E+00 -0.25575706976E+03  0.25575706976E+03  0.00000000000E+00 0. -1.
         21    1    1    2  503  504 -0.22850858688E+02 -0.11124366188E+02 -0.22566089657E+03  0.22708754591E+03  0.00000000000E+00 0. -1.
         21    1    1    2  504  501  0.22850858688E+02  0.11124366188E+02 -0.23887182692E+02  0.34878514344E+02  0.00000000000E+00 0. -1.
<mgrwt>
<rscale>  2 0.25414824E+02</rscale>
<asrwt>0</asrwt>
<pdfrwt beam="1">  1       21 0.95522948E-03 0.25414824E+02</pdfrwt>
<pdfrwt beam="2">  1       21 0.39347235E-01 0.25414824E+02</pdfrwt>
<totfact> 0.19811442E+07</totfact>
</mgrwt>
</event>
<event>
 4    1  0.9138221E+003  0.2474339E+02  0.7546771E-02  0.1664715E+00
         21   -1    0    0  503  501  0.00000000000E+00  0.00000000000E+00  0.18894742332E+03  0.18894742332E+03  0.00000000000E+00 0. -1.
         21   -1    0    0  501  502 -0.00000000000E+00 -0.00000000000E+00 -0.40282989760E+01  0.40282989760E+01  0.00000000000E+00 0. -1.
         21    1    1    2  503  504  0.15772366978E+02 -0.19064824860E+02  0.13513628221E+03  0.13738285875E+03  0.00000000000E+00 0. -1.
         21    1    1    2  504  502 -0.15772366978E+02  0.19064824860E+02  0.49782842135E+02  0.55592863553E+02  0.00000000000E+00 0. -1.
<mgrwt>
<rscale>  2 0.24743385E+02</rscale>
<asrwt>0</asrwt>
<pdfrwt beam="1">  1       21 0.29068827E-01 0.24743385E+02</pdfrwt>
<pdfrwt beam="2">  1       21 0.61973845E-03 0.24743385E+02</pdfrwt>
<totfact> 0.65912371E+07</totfact>
</mgrwt>
</event>
<event>
 4    1  0.9138221E+003  0.3270609E+02  0.7546771E-02  0.1569969E+00
         21   -1    0    0  503  501  0.00000000000E+00  0.00000000000E+00  0.33793977256E+01  0.33793977256E+01  0.00000000000E+00 0. -1.
         21   -1    0    0  501  502 -0.00000000000E+00 -0.00000000000E+00 -0.37929082913E+03  0.37929082913E+03  0.00000000000E+00 0. -1.
         21    1    1    2  503  504  0.30204460675E+02  0.12545071137E+02 -0.26578538269E+03  0.26779013781E+03  0.00000000000E+00 0. -1.
         21    1    1    2  504  502 -0.30204460675E+02 -0.12545071137E+02 -0.11012604871E+03  0.11488008904E+03  0.00000000000E+00 0. -1.
<mgrwt>
<rscale>  2 0.32706089E+02</rscale>
<asrwt>0</asrwt>
<pdfrwt beam="1">  1       21 0.51990782E-03 0.32706089E+02</pdfrwt>
<pdfrwt beam="2">  1       21 0.58352382E-01 0.32706089E+02</pdfrwt>
<totfact> 0.23919443E+07</totfact>
</mgrwt>
</event>
<event>
 4    1  0.9138221E+003  0.2706862E+02  0.7546771E-02  0.1632952E+00
         21   -1    0    0  502  501  0.00000000000E+00  0.00000000000E+00  0.67629876155E+03  0.67629876155E+03  0.00000000000E+00 0.  1.
         21   -1    0    0  503  502 -0.00000000000E+00 -0.00000000000E+00 -0.16860861866E+01  0.16860861866E+01  0.00000000000E+00 0.  1.
         21    1    1    2  503  504  0.16354432482E+01  0.27019166671E+02  0.13463539708E+03  0.13732953138E+03  0.00000000000E+00 0. -1.
         21    1    1    2  504  501 -0.16354432482E+01 -0.27019166671E+02  0.53997727828E+03  0.54065531636E+03  0.00000000000E+00 0. -1.
<mgrwt>
<rscale>  2 0.27068617E+02</rscale>
<asrwt>0</asrwt>
<pdfrwt beam="1">  1       21 0.10404575E+00 0.27068617E+02</pdfrwt>
<pdfrwt beam="2">  1       21 0.25939841E-03 0.27068617E+02</pdfrwt>
<totfact> 0.19042266E+07</totfact>
</mgrwt>
</event>
<event>
 4    1  0.9138221E+003  0.2115312E+02  0.7546771E-02  0.1723324E+00
         21   -1    0    0  504  501  0.00000000000E+00  0.00000000000E+00  0.59007660423E+02  0.59007660423E+02  0.00000000000E+00 0. -1.
         21   -1    0    0  501  502 -0.00000000000E+00 -0.00000000000E+00 -0.20610049959E+02  0.20610049959E+02  0.00000000000E+00 0. -1.
         21    1    1    2  503  502  0.65445621938E+01  0.20115244828E+02  0.50848054219E+02  0.55072488474E+02  0.00000000000E+00 0.  1.
         21    1    1    2  504  503 -0.65445621938E+01 -0.20115244828E+02 -0.12450443756E+02  0.24545221908E+02  0.00000000000E+00 0.  1.
<mgrwt>
<rscale>  2 0.21153117E+02</rscale>
<asrwt>0</asrwt>
<pdfrwt beam="1">  1       21 0.90781015E-02 0.21153117E+02</pdfrwt>
<pdfrwt beam="2">  1       21 0.31707769E-02 0.21153117E+02</pdfrwt>
<totfact> 0.39247407E+07</totfact>
</mgrwt>
</event>
<event>
 4    1  0.9138221E+003  0.2383661E+02  0.7546771E-02  0.1678297E+00
         21   -1    0    0  502  501  0.00000000000E+00  0.00000000000E+00  0.36316725603E+01  0.36316725603E+01  0.00000000000E+00 0. -1.
         21   -1    0    0  503  502 -0.00000000000E+00 -0.00000000000E+00 -0.22341626574E+03  0.22341626574E+03  0.00000000000E+00 0. -1.
         21    1    1    2  503  504  0.19662677451E+01 -0.23755375720E+02 -0.47740991040E+02  0.53360906195E+02  0.00000000000E+00 0. -1.
         21    1    1    2  504  501 -0.19662677451E+01  0.23755375720E+02 -0.17204360214E+03  0.17368703211E+03  0.00000000000E+00 0. -1.
<mgrwt>
<rscale>  2 0.23836612E+02</rscale>
<asrwt>0</asrwt>
<pdfrwt beam="1">  1       21 0.55871893E-03 0.23836612E+02</pdfrwt>
<pdfrwt beam="2">  1       21 0.34371729E-01 0.23836612E+02</pdfrwt>
<totfact> 0.56015485E+07</totfact>
</mgrwt>
</event>
<event>
 4    1  0.9138221E+003  0.2414503E+02  0.7546771E-02  0.1673595E+00
         21   -1    0    0  502  501  0.00000000000E+00  0.00000000000E+00  0.12745701695E+03  0.12745701695E+03  0.00000000000E+00 0.  1.
         21   -1    0    0  503  502 -0.00000000000E+00 -0.00000000000E+00 -0.70496946657E+01  0.70496946657E+01  0.00000000000E+00 0.  1.
         21    1    1    2  503  504 -0.24007497884E+02  0.25734362541E+01  0.20348792354E+02  0.31576191649E+02  0.00000000000E+00 0.  1.
         21    1    1    2  504  501  0.24007497884E+02 -0.25734362541E+01  0.10005852993E+03  0.10293051997E+03  0.00000000000E+00 0.  1.
<mgrwt>
<rscale>  2 0.24145031E+02</rscale>
<asrwt>0</asrwt>
<pdfrwt beam="1">  1       21 0.19608770E-01 0.24145031E+02</pdfrwt>
<pdfrwt beam="2">  1       21 0.10845685E-02 0.24145031E+02</pdfrwt>
<totfact> 0.57132340E+07</totfact>
</mgrwt>
</event>
<event>
 4    1  0.9138221E+003  0.2220644E+02  0.7546771E-02  0.1704706E+00
         21   -1    0    0  502  501  0.00000000000E+00  0.00000000000E+00  0.24359916412E+02  0.24359916412E+02  0.00000000000E+00 0.  1.
         21   -1    0    0  503  502 -0.00000000000E+00 -0.00000000000E+00 -0.26094855777E+02  0.26094855777E+02  0.00000000000E+00 0.  1.
         21    1    1    2  503  504  0.19523792473E+02  0.10580523817E+02  0.11078713410E+02  0.24816604272E+02  0.00000000000E+00 0.  1.
         21    1    1    2  504  501 -0.19523792473E+02 -0.10580523817E+02 -0.12813652774E+02  0.25638167918E+02  0.00000000000E+00 0.  1.
<mgrwt>
<rscale>  2 0.22206440E+02</rscale>
<asrwt>0</asrwt>
<pdfrwt beam="1">  1       21 0.37476794E-02 0.22206440E+02</pdfrwt>
<pdfrwt beam="2">  1       21 0.40145932E-02 0.22206440E+02</pdfrwt>
<totfact> 0.11339065E+08</totfact>
</mgrwt>
</event>
<event>
 4    1  0.9138221E+003  0.2122102E+02  0.7546771E-02  0.1722083E+00
         21   -1    0    0  503  501  0.00000000000E+00  0.00000000000E+00  0.13492143556E+01  0.13492143556E+01  0.00000000000E+00 0.  1.
         21   -1    0    0  501  502 -0.00000000000E+00 -0.00000000000E+00 -0.69700675704E+03  0.69700675704E+03  0.00000000000E+00 0.  1.
         21    1    1    2  503  504  0.76908187316E+01  0.19778351712E+02 -0.95758742121E+02  0.98081948298E+02  0.00000000000E+00 0. -1.
         21    1    1    2  504  502 -0.76908187316E+01 -0.19778351712E+02 -0.59989880056E+03  0.60027402310E+03  0.00000000000E+00 0. -1.
<mgrwt>
<rscale>  2 0.21221025E+02</rscale>
<asrwt>0</asrwt>
<pdfrwt beam="1">  1       21 0.20757104E-03 0.21221025E+02</pdfrwt>
<pdfrwt beam="2">  1       21 0.10723202E+00 0.21221025E+02</pdfrwt>
<totfact> 0.23537634E+07</totfact>
</mgrwt>
</event>
<event>
 4    1  0.9138221E+003  0.2063692E+02  0.7546771E-02  0.1732951E+00
         21   -1    0    0  503  501  0.00000000000E+00  0.00000000000E+00  0.49129481504E+03  0.49129481504E+03  0.00000000000E+00 0. -1.
         21   -1    0    0  501  502 -0.00000000000E+00 -0.00000000000E+00 -0.90366536816E+00  0.90366536816E+00  0.00000000000E+00 0. -1.
         21    1    1    2  503  504  0.61123396057E+01  0.19710960314E+02  0.29486350974E+03  0.29558479668E+03  0.00000000000E+00 0.  1.
         21    1    1    2  504  502 -0.61123396057E+01 -0.19710960314E+02  0.19552763993E+03  0.19661368373E+03  0.00000000000E+00 0.  1.
<mgrwt>
<rscale>  2 0.20636924E+02</rscale>
<asrwt>0</asrwt>
<pdfrwt beam="1">  1       21 0.75583604E-01 0.20636924E+02</pdfrwt>
<pdfrwt beam="2">  1       21 0.13902583E-03 0.20636924E+02</pdfrwt>
<totfact> 0.87694233E+07</totfact>
</mgrwt>
</event>
<event>
 4    1  0.9138221E+003  0.3667074E+02  0.7546771E-02  0.1534245E+00
         21   -1    0    0  503  501  0.00000000000E+00  0.00000000000E+00  0.17867748921E+02  0.17867748921E+02  0.00000000000E+00 0.  1.
         21   -1    0    0  501  502 -0.00000000000E+00 -0.00000000000E+00 -0.20937998394E+03  0.20937998394E+03  0.00000000000E+00 0.  1.
         21    1    1    2  503  504 -0.25322110651E+02  0.26524211910E+02 -0.18669450516E+03  0.19026187575E+03  0.00000000000E+00 0.  1.
         21    1    1    2  504  502  0.25322110651E+02 -0.26524211910E+02 -0.48177298544E+01  0.36985857111E+02  0.00000000000E+00 0.  1.
<mgrwt>
<rscale>  2 0.36670739E+02</rscale>
<asrwt>0</asrwt>
<pdfrwt beam="1">  1       21 0.27488845E-02 0.36670739E+02</pdfrwt>
<pdfrwt beam="2">  1       21 0.32212304E-01 0.36670739E+02</pdfrwt>
<totfact> 0.60018304E+06</totfact>
</mgrwt>
</event>
<event>
 4    1  0.9138221E+003  0.5564251E+02  0.7546771E-02  0.1417085E+00
         21   -1    0    0  502  501  0.00000000000E+00  0.00000000000E+00  0.23338978050E+03  0.23338978050E+03  0.00000000000E+00 0.  1.
         21   -1    0    0  504  502 -0.00000000000E+00 -0.00000000000E+00 -0.27040150843E+02  0.27040150843E+02  0.00000000000E+00 0.  1.
         21    1    1    2  503  501  0.54235696561E+02 -0.12432962682E+02  0.10236930633E+02  0.56576356292E+02  0.00000000000E+00 0. -1.
         21    1    1    2  504  503 -0.54235696561E+02  0.12432962682E+02  0.19611269902E+03  0.20385357505E+03  0.00000000000E+00 0. -1.
<mgrwt>
<rscale>  2 0.55642514E+02</rscale>
<asrwt>0</asrwt>
<pdfrwt beam="1">  1       21 0.35906119E-01 0.55642514E+02</pdfrwt>
<pdfrwt beam="2">  1       21 0.41600233E-02 0.55642514E+02</pdfrwt>
<totfact> 0.26146850E+06</totfact>
</mgrwt>
</event>
<event>
 4    1  0.9138221E+003  0.2668394E+02  0.7546771E-02  0.1637930E+00
         21   -1    0    0  502  501  0.00000000000E+00  0.00000000000E+00  0.21086407879E+02  0.21086407879E+02  0.00000000000E+00 0.  1.
         21   -1    0    0  503  502 -0.00000000000E+00 -0.00000000000E+00 -0.52937899803E+02  0.52937899803E+02  0.00000000000E+00 0.  1.
         21    1    1    2  503  504 -0.80598773520E+00  0.26671767836E+02 -0.38198704709E+02  0.46595856652E+02  0.00000000000E+00 0. -1.
         21    1    1    2  504  501  0.80598773520E+00 -0.26671767836E+02  0.63472127848E+01  0.27428451029E+02  0.00000000000E+00 0. -1.
<mgrwt>
<rscale>  2 0.26683943E+02</rscale>
<asrwt>0</asrwt>
<pdfrwt beam="1">  1       21 0.32440628E-02 0.26683943E+02</pdfrwt>
<pdfrwt beam="2">  1       21 0.81442922E-02 0.26683943E+02</pdfrwt>
<totfact> 0.47918238E+07</totfact>
</mgrwt>
</event>
<event>
 4    1  0.9138221E+003  0.3264828E+02  0.7546771E-02  0.1570534E+00
         21   -1    0    0  503  501  0.00000000000E+00  0.00000000000E+00  0.85588108963E+01  0.85588108963E+01  0.00000000000E+00 0.  1.
         21   -1    0    0  501  502 -0.00000000000E+00 -0.00000000000E+00 -0.21187145395E+03  0.21187145395E+03  0.00000000000E+00 0.  1.
         21    1    1    2  503  504 -0.13231096861E+02 -0.29847084396E+02 -0.17241691923E+03  0.17548078074E+03  0.00000000000E+00 0.  1.
         21    1    1    2  504  502  0.13231096861E+02  0.29847084396E+02 -0.30895723821E+02  0.44949484107E+02  0.00000000000E+00 0.  1.
<mgrwt>
<rscale>  2 0.32648283E+02</rscale>
<asrwt>0</asrwt>
<pdfrwt beam="1">  1       21 0.13167403E-02 0.32648283E+02</pdfrwt>
<pdfrwt beam="2">  1       21 0.32595605E-01 0.32648283E+02</pdfrwt>
<totfact> 0.18119834E+07</totfact>
</mgrwt>
</event>
<event>
 4    1  0.9138221E+003  0.2372889E+02  0.7546771E-02  0.1679960E+00
         21   -1    0    0  502  501  0.00000000000E+00  0.00000000000E+00  0.17974354953E+03  0.17974354953E+03  0.00000000000E+00 0. -1.
         21   -1    0    0  503  502 -0.00000000000E+00 -0.00000000000E+00 -0.47360882531E+01  0.47360882531E+01  0.00000000000E+00 0. -1.
         21    1    1    2  503  504  0.17667938704E+01  0.23663018625E+02  0.33832082756E+02  0.41323961990E+02  0.00000000000E+00 0.  1.
         21    1    1    2  504  501 -0.17667938704E+01 -0.23663018625E+02  0.14117537853E+03  0.14315567580E+03  0.00000000000E+00 0.  1.
<mgrwt>
<rscale>  2 0.23728886E+02</rscale>
<asrwt>0</asrwt>
<pdfrwt beam="1">  1       21 0.27652849E-01 0.23728886E+02</pdfrwt>
<pdfrwt beam="2">  1       21 0.72862910E-03 0.23728886E+02</pdfrwt>
<totfact> 0.56123317E+07</totfact>
</mgrwt>
</event>
<event>
 4    1  0.9138221E+003  0.2532883E+02  0.7546771E-02  0.1656323E+00
         21   -1    0    0  502  501  0.00000000000E+00  0.00000000000E+00  0.25222700221E+01  0.25222700221E+01  0.00000000000E+00 0.  1.
         21   -1    0    0  503  502 -0.00000000000E+00 -0.00000000000E+00 -0.33475400050E+03  0.33475400050E+03  0.00000000000E+00 0.  1.
         21    1    1    2  503  504 -0.93246593972E+00  0.25311656132E+02 -0.24876170033E+03  0.25004786138E+03  0.00000000000E+00 0. -1.
         21    1    1    2  504  501  0.93246593972E+00 -0.25311656132E+02 -0.83470030151E+02  0.87228409147E+02  0.00000000000E+00 0. -1.
<mgrwt>
<rscale>  2 0.25328826E+02</rscale>
<asrwt>0</asrwt>
<pdfrwt beam="1">  1       21 0.38804172E-03 0.25328826E+02</pdfrwt>
<pdfrwt beam="2">  1       21 0.51500592E-01 0.25328826E+02</pdfrwt>
<totfact> 0.45046597E+07</totfact>
</mgrwt>
</event>
<event>
 4    1  0.9138221E+003  0.3172298E+02  0.7546771E-02  0.1579789E+00
         21   -1    0    0  502  501  0.00000000000E+00  0.00000000000E+00  0.29355473097E+02  0.29355473097E+02  0.00000000000E+00 0.  1.
         21   -1    0    0  504  502 -0.00000000000E+00 -0.00000000000E+00 -0.75961290274E+02  0.75961290274E+02  0.00000000000E+00 0.  1.
         21    1    1    2  503  501 -0.73352697391E+01 -0.30863270354E+02 -0.62309182050E+02  0.69919824133E+02  0.00000000000E+00 0. -1.
         21    1    1    2  504  503  0.73352697391E+01  0.30863270354E+02  0.15703364873E+02  0.35396939238E+02  0.00000000000E+00 0. -1.
<mgrwt>
<rscale>  2 0.31722983E+02</rscale>
<asrwt>0</asrwt>
<pdfrwt beam="1">  1       21 0.45162267E-02 0.31722983E+02</pdfrwt>
<pdfrwt beam="2">  1       21 0.11686352E-01 0.31722983E+02</pdfrwt>
<totfact> 0.16082376E+07</totfact>
</mgrwt>
</event>
<event>
 4    1  0.9138221E+003  0.2295997E+02  0.7546771E-02  0.1692160E+00
         21   -1    0    0  502  501  0.00000000000E+00  0.00000000000E+00  0.22444675072E+01  0.22444675072E+01  0.00000000000E+00 0. -1.
         21   -1    0    0  503  502 -0.00000000000E+00 -0.00000000000E+00 -0.38201613147E+03  0.38201613147E+03  0.00000000000E+00 0. -1.
         21    1    1    2  503  504 -0.20986887288E+02  0.93118683941E+01 -0.70644187959E+02  0.74281637188E+02  0.00000000000E+00 0. -1.
         21    1    1    2  504  501  0.20986887288E+02 -0.93118683941E+01 -0.30912747601E+03  0.30997896179E+03  0.00000000000E+00 0. -1.
<mgrwt>
<rscale>  2 0.22959972E+02</rscale>
<asrwt>0</asrwt>
<pdfrwt beam="1">  1       21 0.34530259E-03 0.22959972E+02</pdfrwt>
<pdfrwt beam="2">  1       21 0.58771729E-01 0.22959972E+02</pdfrwt>
<totfact> 0.40289381E+07</totfact>
</mgrwt>
</event>
<event>
 4    1  0.9138221E+003  0.2036005E+02  0.7546771E-02  0.1738261E+00
         21   -1    0    0  502  501  0.00000000000E+00  0.00000000000E+00  0.44188349230E+02  0.44188349230E+02  0.00000000000E+00 0.  1.
         21   -1    0    0  503  502 -0.00000000000E+00 -0.00000000000E+00 -0.28844262030E+02  0.28844262030E+02  0.00000000000E+00 0.  1.
         21    1    1    2  503  504 -0.20327194165E+02  0.11562749785E+01 -0.22324050490E+02  0.30214152722E+02  0.00000000000E+00 0.  1.
         21    1    1    2  504  501  0.20327194165E+02 -0.11562749785E+01  0.37668137691E+02  0.42818458538E+02  0.00000000000E+00 0.  1.
<mgrwt>
<rscale>  2 0.20360054E+02</rscale>
<asrwt>0</asrwt>
<pdfrwt beam="1">  1       21 0.67982076E-02 0.20360054E+02</pdfrwt>
<pdfrwt beam="2">  1       21 0.44375788E-02 0.20360054E+02</pdfrwt>
<totfact> 0.36726000E+07</totfact>
</mgrwt>
</event>
<event>
 4    1  0.9138221E+003  0.2008968E+02  0.7546771E-02  0.1743551E+00
         21   -1    0    0  502  501  0.00000000000E+00  0.00000000000E+00  0.19291049193E+01  0.19291049193E+01  0.00000000000E+00 0.  1.
         21   -1    0    0  503  502 -0.00000000000E+00 -0.00000000000E+00 -0.47805918889E+03  0.47805918889E+03  0.00000000000E+00 0.  1.
         21    1    1    2  503  504  0.49446472206E+01  0.19471665967E+02 -0.41803960828E+03  0.41852205367E+03  0.00000000000E+00 0.  1.
         21    1    1    2  504  501 -0.49446472206E+01 -0.19471665967E+02 -0.58090475687E+02  0.61466240143E+02  0.00000000000E+00 0.  1.
<mgrwt>
<rscale>  2 0.20089682E+02</rscale>
<asrwt>0</asrwt>
<pdfrwt beam="1">  1       21 0.29678579E-03 0.20089682E+02</pdfrwt>
<pdfrwt beam="2">  1       21 0.73547465E-01 0.20089682E+02</pdfrwt>
<totfact> 0.30960444E+07</totfact>
</mgrwt>
</event>
<event>
 4    1  0.9138221E+003  0.2003092E+02  0.7546771E-02  0.1744714E+00
         21   -1    0    0  504  501  0.00000000000E+00  0.00000000000E+00  0.16658696066E+02  0.16658696066E+02  0.00000000000E+00 0.  1.
         21   -1    0    0  501  502 -0.00000000000E+00 -0.00000000000E+00 -0.24375980856E+02  0.24375980856E+02  0.00000000000E+00 0.  1.
         21    1    1    2  503  502 -0.10038136453E+02  0.17334171541E+02 -0.16199758460E+01  0.20096318275E+02  0.00000000000E+00 0.  1.
         21    1    1    2  504  503  0.10038136453E+02 -0.17334171541E+02 -0.60973089438E+01  0.20938358647E+02  0.00000000000E+00 0.  1.
<mgrwt>
<rscale>  2 0.20030918E+02</rscale>
<asrwt>0</asrwt>
<pdfrwt beam="1">  1       21 0.25628763E-02 0.20030918E+02</pdfrwt>
<pdfrwt beam="2">  1       21 0.37501509E-02 0.20030918E+02</pdfrwt>
<totfact> 0.22049630E+08</totfact>
</mgrwt>
</event>
<event>
 4    1  0.9138221E+003  0.2221376E+02  0.7546771E-02  0.1704581E+00
         21   -1    0    0  502  501  0.00000000000E+00  0.00000000000E+00  0.27898020297E+02  0.27898020297E+02  0.00000000000E+00 0.  1.
         21   -1    0    0  503  502 -0.00000000000E+00 -0.00000000000E+00 -0.64001130493E+02  0.64001130493E+02  0.00000000000E+00 0.  1.
         21    1    1    2  503  504  0.16167326228E+02 -0.15233797598E+02  0.21036250317E+02  0.30593706118E+02  0.00000000000E+00 0. -1.
         21    1    1    2  504  501 -0.16167326228E+02  0.15233797598E+02 -0.57139360514E+02  0.61305444673E+02  0.00000000000E+00 0. -1.
<mgrwt>
<rscale>  2 0.22213758E+02</rscale>
<asrwt>0</asrwt>
<pdfrwt beam="1">  1       21 0.42920031E-02 0.22213758E+02</pdfrwt>
<pdfrwt beam="2">  1       21 0.98463278E-02 0.22213758E+02</pdfrwt>
<totfact> 0.21622223E+07</totfact>
</mgrwt>
</event>
<event>
 4    1  0.9138221E+003  0.2314464E+02  0.7546771E-02  0.1689176E+00
         21   -1    0    0  503  501  0.00000000000E+00  0.00000000000E+00  0.45950520938E+02  0.45950520938E+02  0.00000000000E+00 0. -1.
         21   -1    0    0  501  502 -0.00000000000E+00 -0.00000000000E+00 -0.14028508243E+02  0.14028508243E+02  0.00000000000E+00 0. -1.
         21    1    1    2  503  504 -0.23144304915E+02 -0.12408748144E+00  0.28289731309E+02  0.36551103201E+02  0.00000000000E+00 0. -1.
         21    1    1    2  504  502  0.23144304915E+02  0.12408748144E+00  0.36322813867E+01  0.23427925981E+02  0.00000000000E+00 0. -1.
<mgrwt>
<rscale>  2 0.23144638E+02</rscale>
<asrwt>0</asrwt>
<pdfrwt beam="1">  1       21 0.70693108E-02 0.23144638E+02</pdfrwt>
<pdfrwt beam="2">  1       21 0.21582321E-02 0.23144638E+02</pdfrwt>
<totfact> 0.10961574E+08</totfact>
</mgrwt>
</event>
<event>
 4    1  0.9138221E+003  0.2349753E+02  0.7546771E-02  0.1683570E+00
         21   -1    0    0  503  501  0.00000000000E+00  0.00000000000E+00  0.63516144781E+01  0.63516144781E+01  0.00000000000E+00 0. -1.
         21   -1    0    0  501  502 -0.00000000000E+00 -0.00000000000E+00 -0.16782488971E+03  0.16782488971E+03  0.00000000000E+00 0. -1.
         21    1    1    2  503  504  0.18992675092E+02  0.13835175207E+02 -0.20272615704E+02  0.31034057544E+02  0.00000000000E+00 0. -1.
         21    1    1    2  504  502 -0.18992675092E+02 -0.13835175207E+02 -0.14120065952E+03  0.14314244664E+03  0.00000000000E+00 0. -1.
<mgrwt>
<rscale>  2 0.23497527E+02</rscale>
<asrwt>0</asrwt>
<pdfrwt beam="1">  1       21 0.97717165E-03 0.23497527E+02</pdfrwt>
<pdfrwt beam="2">  1       21 0.25819209E-01 0.23497527E+02</pdfrwt>
<totfact> 0.40826275E+07</totfact>
</mgrwt>
</event>
<event>
 4    1  0.9138221E+003  0.2717306E+02  0.7546771E-02  0.1631618E+00
         21   -1    0    0  503  501  0.00000000000E+00  0.00000000000E+00  0.10855847517E+03  0.10855847517E+03  0.00000000000E+00 0. -1.
         21   -1    0    0  501  502 -0.00000000000E+00 -0.00000000000E+00 -0.85066585904E+01  0.85066585904E+01  0.00000000000E+00 0. -1.
         21    1    1    2  503  504 -0.75631319470E+01  0.26099311277E+02  0.23820954752E+02  0.36136033253E+02  0.00000000000E+00 0. -1.
         21    1    1    2  504  502  0.75631319470E+01 -0.26099311277E+02  0.76230861823E+02  0.80929100504E+02  0.00000000000E+00 0. -1.
<mgrwt>
<rscale>  2 0.27173057E+02</rscale>
<asrwt>0</asrwt>
<pdfrwt beam="1">  1       21 0.16701303E-01 0.27173057E+02</pdfrwt>
<pdfrwt beam="2">  1       21 0.13087168E-02 0.27173057E+02</pdfrwt>
<totfact> 0.58422553E+07</totfact>
</mgrwt>
</event>
<event>
 4    1  0.9138221E+003  0.2128132E+02  0.7546771E-02  0.1720986E+00
         21   -1    0    0  504  501  0.00000000000E+00  0.00000000000E+00  0.60923943439E+01  0.60923943439E+01  0.00000000000E+00 0. -1.
         21   -1    0    0  501  502 -0.00000000000E+00 -0.00000000000E+00 -0.10231970379E+03  0.10231970379E+03  0.00000000000E+00 0. -1.
         21    1    1    2  503  502  0.33359804146E+01  0.21018226983E+02 -0.76460678071E+02  0.79367058166E+02  0.00000000000E+00 0.  1.
         21    1    1    2  504  503 -0.33359804146E+01 -0.21018226983E+02 -0.19766631375E+02  0.29045039968E+02  0.00000000000E+00 0.  1.
<mgrwt>
<rscale>  2 0.21281321E+02</rscale>
<asrwt>0</asrwt>
<pdfrwt beam="1">  1       21 0.93729151E-03 0.21281321E+02</pdfrwt>
<pdfrwt beam="2">  1       21 0.15741492E-01 0.21281321E+02</pdfrwt>
<totfact> 0.10039950E+08</totfact>
</mgrwt>
</event>
<event>
 4    1  0.9138221E+003  0.2554516E+02  0.7546771E-02  0.1653293E+00
         21   -1    0    0  502  501  0.00000000000E+00  0.00000000000E+00  0.41118162276E+02  0.41118162276E+02  0.00000000000E+00 0.  1.
         21   -1    0    0  504  502 -0.00000000000E+00 -0.00000000000E+00 -0.23501472584E+02  0.23501472584E+02  0.00000000000E+00 0.  1.
         21    1    1    2  503  501 -0.73029279680E+01 -0.24479023705E+02  0.27219631293E+02  0.37329126513E+02  0.00000000000E+00 0. -1.
         21    1    1    2  504  503  0.73029279680E+01  0.24479023705E+02 -0.96029416006E+01  0.27290508347E+02  0.00000000000E+00 0. -1.
<mgrwt>
<rscale>  2 0.25545163E+02</rscale>
<asrwt>0</asrwt>
<pdfrwt beam="1">  1       21 0.63258711E-02 0.25545163E+02</pdfrwt>
<pdfrwt beam="2">  1       21 0.36156112E-02 0.25545163E+02</pdfrwt>
<totfact> 0.60359529E+07</totfact>
</mgrwt>
</event>
<event>
 4    1  0.9138221E+003  0.2776586E+02  0.7546771E-02  0.1624184E+00
         21   -1    0    0  503  501  0.00000000000E+00  0.00000000000E+00  0.41796629867E+02  0.41796629867E+02  0.00000000000E+00 0.  1.
         21   -1    0    0  501  502 -0.00000000000E+00 -0.00000000000E+00 -0.31530117541E+02  0.31530117541E+02  0.00000000000E+00 0.  1.
         21    1    1    2  503  504  0.95499451273E+01 -0.26071854433E+02  0.28751998815E+02  0.39970244950E+02  0.00000000000E+00 0. -1.
         21    1    1    2  504  502 -0.95499451273E+01  0.26071854433E+02 -0.18485486489E+02  0.33356502458E+02  0.00000000000E+00 0. -1.
<mgrwt>
<rscale>  2 0.27765861E+02</rscale>
<asrwt>0</asrwt>
<pdfrwt beam="1">  1       21 0.64302507E-02 0.27765861E+02</pdfrwt>
<pdfrwt beam="2">  1       21 0.48507873E-02 0.27765861E+02</pdfrwt>
<totfact> 0.37588494E+07</totfact>
</mgrwt>
</event>
<event>
 4    1  0.9138221E+003  0.2217491E+02  0.7546771E-02  0.1705245E+00
         21   -1    0    0  504  501  0.00000000000E+00  0.00000000000E+00  0.41635071049E+02  0.41635071049E+02  0.00000000000E+00 0.  1.
         21   -1    0    0  501  502 -0.00000000000E+00 -0.00000000000E+00 -0.20216800665E+02  0.20216800665E+02  0.00000000000E+00 0.  1.
         21    1    1    2  503  502 -0.70199358502E+01  0.21034423858E+02 -0.92330112134E+01  0.24020303547E+02  0.00000000000E+00 0. -1.
         21    1    1    2  504  503  0.70199358502E+01 -0.21034423858E+02  0.30651281597E+02  0.37831568167E+02  0.00000000000E+00 0. -1.
<mgrwt>
<rscale>  2 0.22174907E+02</rscale>
<asrwt>0</asrwt>
<pdfrwt beam="1">  1       21 0.64053955E-02 0.22174907E+02</pdfrwt>
<pdfrwt beam="2">  1       21 0.31102770E-02 0.22174907E+02</pdfrwt>
<totfact> 0.72133836E+07</totfact>
</mgrwt>
</event>
<event>
 4    1  0.9138221E+003  0.2257478E+02  0.7546771E-02  0.1698497E+00
         21   -1    0    0  504  501  0.00000000000E+00  0.00000000000E+00  0.68431236945E+01  0.68431236945E+01  0.00000000000E+00 0. -1.
         21   -1    0    0  501  502 -0.00000000000E+00 -0.00000000000E+00 -0.82533067016E+02  0.82533067016E+02  0.00000000000E+00 0. -1.
         21    1    1    2  503  502 -0.16035674015E+02  0.15889550583E+02 -0.23878847909E+02  0.32860615276E+02  0.00000000000E+00 0. -1.
         21    1    1    2  504  503  0.16035674015E+02 -0.15889550583E+02 -0.51811095413E+02  0.56515575435E+02  0.00000000000E+00 0. -1.
<mgrwt>
<rscale>  2 0.22574779E+02</rscale>
<asrwt>0</asrwt>
<pdfrwt beam="1">  1       21 0.10527882E-02 0.22574779E+02</pdfrwt>
<pdfrwt beam="2">  1       21 0.12697395E-01 0.22574779E+02</pdfrwt>
<totfact> 0.12340431E+08</totfact>
</mgrwt>
</event>
<event>
 4    1  0.9138221E+003  0.2948373E+02  0.7546771E-02  0.1603866E+00
         21   -1    0    0  503  501  0.00000000000E+00  0.00000000000E+00  0.30480144776E+02  0.30480144776E+02  0.00000000000E+00 0. -1.
         21   -1    0    0  501  502 -0.00000000000E+00 -0.00000000000E+00 -0.48769173753E+02  0.48769173753E+02  0.00000000000E+00 0. -1.
         21    1    1    2  503  504  0.10360197779E+02  0.27603556842E+02 -0.34677276088E+02  0.45517068504E+02  0.00000000000E+00 0. -1.
         21    1    1    2  504  502 -0.10360197779E+02 -0.27603556842E+02  0.16388247112E+02  0.33732250025E+02  0.00000000000E+00 0. -1.
<mgrwt>
<rscale>  2 0.29483725E+02</rscale>
<asrwt>0</asrwt>
<pdfrwt beam="1">  1       21 0.46892531E-02 0.29483725E+02</pdfrwt>
<pdfrwt beam="2">  1       21 0.75029497E-02 0.29483725E+02</pdfrwt>
<totfact> 0.31256891E+07</totfact>
</mgrwt>
</event>
<event>
 4    1  0.9138221E+003  0.2917051E+02  0.7546771E-02  0.1607443E+00
         21   -1    0    0  502  501  0.00000000000E+00  0.00000000000E+00  0.18354747204E+03  0.18354747204E+03  0.00000000000E+00 0.  1.
         21   -1    0    0  504  502 -0.00000000000E+00 -0.00000000000E+00 -0.61027772944E+01  0.61027772944E+01  0.00000000000E+00 0.  1.
         21    1    1    2  503  501 -0.53492288691E+01 -0.28675850898E+02  0.13521108189E+03  0.13832192646E+03  0.00000000000E+00 0.  1.
         21    1    1    2  504  503  0.53492288691E+01  0.28675850898E+02  0.42233612864E+02  0.51328322881E+02  0.00000000000E+00 0.  1.
<mgrwt>
<rscale>  2 0.29170510E+02</rscale>
<asrwt>0</asrwt>
<pdfrwt beam="1">  1       21 0.28238068E-01 0.29170510E+02</pdfrwt>
<pdfrwt beam="2">  1       21 0.93888895E-03 0.29170510E+02</pdfrwt>
<totfact> 0.38686029E+07</totfact>
</mgrwt>
</event>
<event>
 4    1  0.9138221E+003  0.2881101E+02  0.7546771E-02  0.1611616E+00
         21   -1    0    0  504  501  0.00000000000E+00  0.00000000000E+00  0.79912222686E+01  0.79912222686E+01  0.00000000000E+00 0. -1.
         21   -1    0    0  501  502 -0.00000000000E+00 -0.00000000000E+00 -0.29899685672E+03  0.29899685672E+03  0.00000000000E+00 0. -1.
         21    1    1    2  503  502 -0.14899786473E+02 -0.24659091158E+02 -0.21505272468E+02  0.35952067501E+02  0.00000000000E+00 0. -1.
         21    1    1    2  504  503  0.14899786473E+02  0.24659091158E+02 -0.26950036198E+03  0.27103601149E+03  0.00000000000E+00 0. -1.
<mgrwt>
<rscale>  2 0.28811012E+02</rscale>
<asrwt>0</asrwt>
<pdfrwt beam="1">  1       21 0.12294187E-02 0.28811012E+02</pdfrwt>
<pdfrwt beam="2">  1       21 0.45999519E-01 0.28811012E+02</pdfrwt>
<totfact> 0.10251198E+07</totfact>
</mgrwt>
</event>
<event>
 4    1  0.9138221E+003  0.2833479E+02  0.7546771E-02  0.1617260E+00
         21   -1    0    0  502  501  0.00000000000E+00  0.00000000000E+00  0.91280924775E+00  0.91280924775E+00  0.00000000000E+00 0.  1.
         21   -1    0    0  503  502 -0.00000000000E+00 -0.00000000000E+00 -0.11994909155E+04  0.11994909155E+04  0.00000000000E+00 0.  1.
         21    1    1    2  503  504  0.23623111153E+02  0.15646378829E+02 -0.28930856306E+03  0.29069280213E+03  0.00000000000E+00 0. -1.
         21    1    1    2  504  501 -0.23623111153E+02 -0.15646378829E+02 -0.90926954322E+03  0.90971092264E+03  0.00000000000E+00 0. -1.
<mgrwt>
<rscale>  2 0.28334794E+02</rscale>
<asrwt>0</asrwt>
<pdfrwt beam="1">  1       21 0.14043107E-03 0.28334794E+02</pdfrwt>
<pdfrwt beam="2">  1       21 0.18453853E+00 0.28334794E+02</pdfrwt>
<totfact> 0.12045205E+07</totfact>
</mgrwt>
</event>
<event>
 4    1  0.9138221E+003  0.2480024E+02  0.7546771E-02  0.1663888E+00
         21   -1    0    0  504  501  0.00000000000E+00  0.00000000000E+00  0.44314042968E+03  0.44314042968E+03  0.00000000000E+00 0.  1.
         21   -1    0    0  501  502 -0.00000000000E+00 -0.00000000000E+00 -0.20693395823E+01  0.20693395823E+01  0.00000000000E+00 0.  1.
         21    1    1    2  503  502 -0.93126387709E+01 -0.22985353923E+02  0.92797529587E+02  0.96054324386E+02  0.00000000000E+00 0.  1.
         21    1    1    2  504  503  0.93126387709E+01  0.22985353923E+02  0.34827356051E+03  0.34915544487E+03  0.00000000000E+00 0.  1.
<mgrwt>
<rscale>  2 0.24800237E+02</rscale>
<asrwt>0</asrwt>
<pdfrwt beam="1">  1       21 0.68175375E-01 0.24800237E+02</pdfrwt>
<pdfrwt beam="2">  1       21 0.31836029E-03 0.24800237E+02</pdfrwt>
<totfact> 0.34183717E+07</totfact>
</mgrwt>
</event>
<event>
 4    1  0.9138221E+003  0.3274591E+02  0.7546771E-02  0.1569580E+00
         21   -1    0    0  504  501  0.00000000000E+00  0.00000000000E+00  0.11200361333E+03  0.11200361333E+03  0.00000000000E+00 0. -1.
         21   -1    0    0  501  502 -0.00000000000E+00 -0.00000000000E+00 -0.13813558762E+02  0.13813558762E+02  0.00000000000E+00 0. -1.
         21    1    1    2  503  502  0.32710919486E+02 -0.15133109637E+01  0.83947241377E+02  0.90107900311E+02  0.00000000000E+00 0. -1.
         21    1    1    2  504  503 -0.32710919486E+02  0.15133109637E+01  0.14242813195E+02  0.35709271785E+02  0.00000000000E+00 0. -1.
<mgrwt>
<rscale>  2 0.32745906E+02</rscale>
<asrwt>0</asrwt>
<pdfrwt beam="1">  1       21 0.17231325E-01 0.32745906E+02</pdfrwt>
<pdfrwt beam="2">  1       21 0.21251630E-02 0.32745906E+02</pdfrwt>
<totfact> 0.27286343E+07</totfact>
</mgrwt>
</event>
<event>
 4    1  0.9138221E+003  0.4848573E+02  0.7546771E-02  0.1453685E+00
         21   -1    0    0  503  501  0.00000000000E+00  0.00000000000E+00  0.85976975127E+01  0.85976975127E+01  0.00000000000E+00 0.  1.
         21   -1    0    0  501  502 -0.00000000000E+00 -0.00000000000E+00 -0.73142369988E+03  0.73142369988E+03  0.00000000000E+00 0.  1.
         21    1    1    2  503  504 -0.47081490512E+02  0.11584421711E+02 -0.65420531850E+03  0.65599959171E+03  0.00000000000E+00 0.  1.
         21    1    1    2  504  502  0.47081490512E+02 -0.11584421711E+02 -0.68620683871E+02  0.84021805682E+02  0.00000000000E+00 0.  1.
<mgrwt>
<rscale>  2 0.48485725E+02</rscale>
<asrwt>0</asrwt>
<pdfrwt beam="1">  1       21 0.13227221E-02 0.48485725E+02</pdfrwt>
<pdfrwt beam="2">  1       21 0.11252677E+00 0.48485725E+02</pdfrwt>
<totfact> 0.14600432E+06</totfact>
</mgrwt>
</event>
<event>
 4    1  0.9138221E+003  0.2057467E+02  0.7546771E-02  0.1734136E+00
         21   -1    0    0  502  501  0.00000000000E+00  0.00000000000E+00  0.19579489527E+01  0.19579489527E+01  0.00000000000E+00 0. -1.
         21   -1    0    0  504  502 -0.00000000000E+00 -0.00000000000E+00 -0.55976908675E+03  0.55976908675E+03  0.00000000000E+00 0. -1.
         21    1    1    2  503  501  0.14649131446E+02 -0.14447141281E+02 -0.49894231345E+03  0.49936634757E+03  0.00000000000E+00 0.  1.
         21    1    1    2  504  503 -0.14649131446E+02  0.14447141281E+02 -0.58868824354E+02  0.62360688131E+02  0.00000000000E+00 0.  1.
<mgrwt>
<rscale>  2 0.20574668E+02</rscale>
<asrwt>0</asrwt>
<pdfrwt beam="1">  1       21 0.30122264E-03 0.20574668E+02</pdfrwt>
<pdfrwt beam="2">  1       21 0.86118400E-01 0.20574668E+02</pdfrwt>
<totfact> 0.21922827E+07</totfact>
</mgrwt>
</event>
<event>
 4    1  0.9138221E+003  0.3436268E+02  0.7546771E-02  0.1554334E+00
         21   -1    0    0  502  501  0.00000000000E+00  0.00000000000E+00  0.76117785910E+02  0.76117785910E+02  0.00000000000E+00 0. -1.
         21   -1    0    0  504  502 -0.00000000000E+00 -0.00000000000E+00 -0.17489116359E+02  0.17489116359E+02  0.00000000000E+00 0. -1.
         21    1    1    2  503  501  0.30229419322E+02  0.16339390415E+02  0.45048060847E+02  0.56657931993E+02  0.00000000000E+00 0. -1.
         21    1    1    2  504  503 -0.30229419322E+02 -0.16339390415E+02  0.13580608704E+02  0.36948970276E+02  0.00000000000E+00 0. -1.
<mgrwt>
<rscale>  2 0.34362676E+02</rscale>
<asrwt>0</asrwt>
<pdfrwt beam="1">  1       21 0.11710428E-01 0.34362676E+02</pdfrwt>
<pdfrwt beam="2">  1       21 0.26906333E-02 0.34362676E+02</pdfrwt>
<totfact> 0.37020014E+07</totfact>
</mgrwt>
</event>
<event>
 4    1  0.9138221E+003  0.2150622E+02  0.7546771E-02  0.1716934E+00
         21   -1    0    0  504  501  0.00000000000E+00  0.00000000000E+00  0.97520147815E+02  0.97520147815E+02  0.00000000000E+00 0.  1.
         21   -1    0    0  501  502 -0.00000000000E+00 -0.00000000000E+00 -0.61285364478E+01  0.61285364478E+01  0.00000000000E+00 0.  1.
         21    1    1    2  503  502  0.93296290938E+01  0.19377194397E+02  0.21052599996E+02  0.30095341971E+02  0.00000000000E+00 0.  1.
         21    1    1    2  504  503 -0.93296290938E+01 -0.19377194397E+02  0.70339011371E+02  0.73553342292E+02  0.00000000000E+00 0.  1.
<mgrwt>
<rscale>  2 0.21506223E+02</rscale>
<asrwt>0</asrwt>
<pdfrwt beam="1">  1       21 0.15003099E-01 0.21506223E+02</pdfrwt>
<pdfrwt beam="2">  1       21 0.94285183E-03 0.21506223E+02</pdfrwt>
<totfact> 0.10831272E+08</totfact>
</mgrwt>
</event>
<event>
 4    1  0.9138221E+003  0.2179460E+02  0.7546771E-02  0.1711829E+00
         21   -1    0    0  504  501  0.00000000000E+00  0.00000000000E+00  0.14834787988E+02  0.14834787988E+02  0.00000000000E+00 0.  1.
         21   -1    0    0  501  502 -0.00000000000E+00 -0.00000000000E+00 -0.42838127497E+02  0.42838127497E+02  0.00000000000E+00 0.  1.
         21    1    1    2  503  502 -0.21793440607E+02 -0.22486620004E+00 -0.28493054290E+02  0.35872813676E+02  0.00000000000E+00 0. -1.
         21    1    1    2  504  503  0.21793440607E+02  0.22486620004E+00  0.48971478076E+00  0.21800101809E+02  0.00000000000E+00 0. -1.
<mgrwt>
<rscale>  2 0.21794601E+02</rscale>
<asrwt>0</asrwt>
<pdfrwt beam="1">  1       21 0.22822751E-02 0.21794601E+02</pdfrwt>
<pdfrwt beam="2">  1       21 0.65904810E-02 0.21794601E+02</pdfrwt>
<totfact> 0.11069069E+08</totfact>
</mgrwt>
</event>
<event>
 4    1  0.9138221E+003  0.2211489E+02  0.7546771E-02  0.1706273E+00
         21   -1    0    0  502  501  0.00000000000E+00  0.00000000000E+00  0.30281642904E+02  0.30281642904E+02  0.00000000000E+00 0.  1.
         21   -1    0    0  503  502 -0.00000000000E+00 -0.00000000000E+00 -0.31194893296E+02  0.31194893296E+02  0.00000000000E+00 0.  1.
         21    1    1    2  503  504 -0.18617888547E+02 -0.11934934814E+02 -0.21802930072E+02  0.31055373169E+02  0.00000000000E+00 0.  1.
         21    1    1    2  504  501  0.18617888547E+02  0.11934934814E+02  0.20889679680E+02  0.30421163030E+02  0.00000000000E+00 0.  1.
<mgrwt>
<rscale>  2 0.22114892E+02</rscale>
<asrwt>0</asrwt>
<pdfrwt beam="1">  1       21 0.46587143E-02 0.22114892E+02</pdfrwt>
<pdfrwt beam="2">  1       21 0.47992143E-02 0.22114892E+02</pdfrwt>
<totfact> 0.60614106E+07</totfact>
</mgrwt>
</event>
<event>
 4    1  0.9138221E+003  0.2118475E+02  0.7546771E-02  0.1722745E+00
         21   -1    0    0  502  501  0.00000000000E+00  0.00000000000E+00  0.18618464418E+03  0.18618464418E+03  0.00000000000E+00 0. -1.
         21   -1    0    0  504  502 -0.00000000000E+00 -0.00000000000E+00 -0.24558201913E+01  0.24558201913E+01  0.00000000000E+00 0. -1.
         21    1    1    2  503  501  0.20409156781E+02  0.56797731766E+01  0.10468093742E+03  0.10680305316E+03  0.00000000000E+00 0. -1.
         21    1    1    2  504  503 -0.20409156781E+02 -0.56797731766E+01  0.79047886571E+02  0.81837411220E+02  0.00000000000E+00 0. -1.
<mgrwt>
<rscale>  2 0.21184747E+02</rscale>
<asrwt>0</asrwt>
<pdfrwt beam="1">  1       21 0.28643780E-01 0.21184747E+02</pdfrwt>
<pdfrwt beam="2">  1       21 0.37781864E-03 0.21184747E+02</pdfrwt>
<totfact> 0.13464797E+08</totfact>
</mgrwt>
</event>
<event>
 4    1  0.9138221E+003  0.3258411E+02  0.7546771E-02  0.1571164E+00
         21   -1    0    0  503  501  0.00000000000E+00  0.00000000000E+00  0.57029071811E+01  0.57029071811E+01  0.00000000000E+00 0. -1.
         21   -1    0    0  501  502 -0.00000000000E+00 -0.00000000000E+00 -0.21118302295E+03  0.21118302295E+03  0.00000000000E+00 0. -1.
         21    1    1    2  503  504  0.32555395229E+02  0.13677236096E+01 -0.65420768857E+02  0.73086260160E+02  0.00000000000E+00 0. -1.
         21    1    1    2  504  502 -0.32555395229E+02 -0.13677236096E+01 -0.14005934691E+03  0.14379966997E+03  0.00000000000E+00 0. -1.
<mgrwt>
<rscale>  2 0.32584113E+02</rscale>
<asrwt>0</asrwt>
<pdfrwt beam="1">  1       21 0.87737029E-03 0.32584113E+02</pdfrwt>
<pdfrwt beam="2">  1       21 0.32489698E-01 0.32584113E+02</pdfrwt>
<totfact> 0.33817808E+07</totfact>
</mgrwt>
</event>
<event>
 4    1  0.9138221E+003  0.2038004E+02  0.7546771E-02  0.1737874E+00
         21   -1    0    0  503  501  0.00000000000E+00  0.00000000000E+00  0.22671904691E+02  0.22671904691E+02  0.00000000000E+00 0. -1.
         21   -1    0    0  501  502 -0.00000000000E+00 -0.00000000000E+00 -0.21973968587E+02  0.21973968587E+02  0.00000000000E+00 0. -1.
         21    1    1    2  503  504 -0.91456734010E+01 -0.18212701939E+02 -0.87541148641E+01  0.22180630760E+02  0.00000000000E+00 0.  1.
         21    1    1    2  504  502  0.91456734010E+01  0.18212701939E+02  0.94520509673E+01  0.22465242517E+02  0.00000000000E+00 0.  1.
<mgrwt>
<rscale>  2 0.20380036E+02</rscale>
<asrwt>0</asrwt>
<pdfrwt beam="1">  1       21 0.34879853E-02 0.20380036E+02</pdfrwt>
<pdfrwt beam="2">  1       21 0.33806105E-02 0.20380036E+02</pdfrwt>
<totfact> 0.16174577E+08</totfact>
</mgrwt>
</event>
<event>
 4    1  0.9138221E+003  0.2004581E+02  0.7546771E-02  0.1744419E+00
         21   -1    0    0  502  501  0.00000000000E+00  0.00000000000E+00  0.13452066149E+03  0.13452066149E+03  0.00000000000E+00 0. -1.
         21   -1    0    0  504  502 -0.00000000000E+00 -0.00000000000E+00 -0.37374903437E+01  0.37374903437E+01  0.00000000000E+00 0. -1.
         21    1    1    2  503  501  0.17364821853E+02  0.10014867691E+02  0.34417589526E+02  0.39829700999E+02  0.00000000000E+00 0. -1.
         21    1    1    2  504  503 -0.17364821853E+02 -0.10014867691E+02  0.96365581622E+02  0.98428450837E+02  0.00000000000E+00 0. -1.
<mgrwt>
<rscale>  2 0.20045813E+02</rscale>
<asrwt>0</asrwt>
<pdfrwt beam="1">  1       21 0.20695483E-01 0.20045813E+02</pdfrwt>
<pdfrwt beam="2">  1       21 0.57499862E-03 0.20045813E+02</pdfrwt>
<totfact> 0.12720358E+08</totfact>
</mgrwt>
</event>
<event>
 4    1  0.9138221E+003  0.4432448E+02  0.7546771E-02  0.1478603E+00
         21   -1    0    0  503  501  0.00000000000E+00  0.00000000000E+00  0.30295872753E+02  0.30295872753E+02  0.00000000000E+00 0. -1.
         21   -1    0    0  501  502 -0.00000000000E+00 -0.00000000000E+00 -0.15242112836E+03  0.15242112836E+03  0.00000000000E+00 0. -1.
         21    1    1    2  503  504 -0.32752931073E+02  0.29864784018E+02 -0.13031092568E+03  0.13764300625E+03  0.00000000000E+00 0. -1.
         21    1    1    2  504  502  0.32752931073E+02 -0.29864784018E+02  0.81856700718E+01  0.45073994862E+02  0.00000000000E+00 0. -1.
<mgrwt>
<rscale>  2 0.44324483E+02</rscale>
<asrwt>0</asrwt>
<pdfrwt beam="1">  1       21 0.46609034E-02 0.44324483E+02</pdfrwt>
<pdfrwt beam="2">  1       21 0.23449405E-01 0.44324483E+02</pdfrwt>
<totfact> 0.47256699E+06</totfact>
</mgrwt>
</event>
<event>
 4    1  0.9138221E+003  0.2423471E+02  0.7546771E-02  0.1672244E+00
         21   -1    0    0  503  501  0.00000000000E+00  0.00000000000E+00  0.17633222077E+01  0.17633222077E+01  0.00000000000E+00 0.  1.
         21   -1    0    0  501  502 -0.00000000000E+00 -0.00000000000E+00 -0.63699344978E+03  0.63699344978E+03  0.00000000000E+00 0.  1.
         21    1    1    2  503  504  0.41398290178E+01 -0.23878504349E+02 -0.53822014619E+03  0.53876548416E+03  0.00000000000E+00 0. -1.
         21    1    1    2  504  502 -0.41398290178E+01  0.23878504349E+02 -0.97009981384E+02  0.99991287832E+02  0.00000000000E+00 0. -1.
<mgrwt>
<rscale>  2 0.24234710E+02</rscale>
<asrwt>0</asrwt>
<pdfrwt beam="1">  1       21 0.27128015E-03 0.24234710E+02</pdfrwt>
<pdfrwt beam="2">  1       21 0.97999060E-01 0.24234710E+02</pdfrwt>
<totfact> 0.19970209E+07</totfact>
</mgrwt>
</event>
<event>
 4    1  0.9138221E+003  0.2003272E+02  0.7546771E-02  0.1744678E+00
         21   -1    0    0  504  501  0.00000000000E+00  0.00000000000E+00  0.36164188212E+02  0.36164188212E+02  0.00000000000E+00 0. -1.
         21   -1    0    0  501  502 -0.00000000000E+00 -0.00000000000E+00 -0.12817966478E+02  0.12817966478E+02  0.00000000000E+00 0. -1.
         21    1    1    2  503  502  0.19940948409E+02 -0.19153186262E+01  0.26988450185E+01  0.20213699150E+02  0.00000000000E+00 0.  1.
         21    1    1    2  504  503 -0.19940948409E+02  0.19153186262E+01  0.20647376716E+02  0.28768455540E+02  0.00000000000E+00 0.  1.
<mgrwt>
<rscale>  2 0.20032720E+02</rscale>
<asrwt>0</asrwt>
<pdfrwt beam="1">  1       21 0.55637212E-02 0.20032720E+02</pdfrwt>
<pdfrwt beam="2">  1       21 0.19719948E-02 0.20032720E+02</pdfrwt>
<totfact> 0.17691167E+08</totfact>
</mgrwt>
</event>
<event>
 4    1  0.9138221E+003  0.3551727E+02  0.7546771E-02  0.1544054E+00
         21   -1    0    0  502  501  0.00000000000E+00  0.00000000000E+00  0.42594941522E+03  0.42594941522E+03  0.00000000000E+00 0.  1.
         21   -1    0    0  503  502 -0.00000000000E+00 -0.00000000000E+00 -0.74095588737E+01  0.74095588737E+01  0.00000000000E+00 0.  1.
         21    1    1    2  503  504 -0.27481401226E+00  0.35516203317E+02  0.37715179427E+03  0.37882047482E+03  0.00000000000E+00 0. -1.
         21    1    1    2  504  501  0.27481401226E+00 -0.35516203317E+02  0.41388062078E+02  0.54538499276E+02  0.00000000000E+00 0. -1.
<mgrwt>
<rscale>  2 0.35517267E+02</rscale>
<asrwt>0</asrwt>
<pdfrwt beam="1">  1       21 0.65530660E-01 0.35517267E+02</pdfrwt>
<pdfrwt beam="2">  1       21 0.11399325E-02 0.35517267E+02</pdfrwt>
<totfact> 0.58325329E+06</totfact>
</mgrwt>
</event>
<event>
 4    1  0.9138221E+003  0.2585463E+02  0.7546771E-02  0.1649022E+00
         21   -1    0    0  502  501  0.00000000000E+00  0.00000000000E+00  0.26919654036E+02  0.26919654036E+02  0.00000000000E+00 0. -1.
         21   -1    0    0  504  502 -0.00000000000E+00 -0.00000000000E+00 -0.88788831086E+02  0.88788831086E+02  0.00000000000E+00 0. -1.
         21    1    1    2  503  501 -0.18034458570E+02  0.18526198575E+02  0.18167550254E+02  0.31599392586E+02  0.00000000000E+00 0. -1.
         21    1    1    2  504  503  0.18034458570E+02 -0.18526198575E+02 -0.80036727304E+02  0.84109092535E+02  0.00000000000E+00 0. -1.
<mgrwt>
<rscale>  2 0.25854627E+02</rscale>
<asrwt>0</asrwt>
<pdfrwt beam="1">  1       21 0.41414852E-02 0.25854627E+02</pdfrwt>
<pdfrwt beam="2">  1       21 0.13659820E-01 0.25854627E+02</pdfrwt>
<totfact> 0.13654509E+07</totfact>
</mgrwt>
</event>
<event>
 4    1  0.9138221E+003  0.2334060E+02  0.7546771E-02  0.1686048E+00
         21   -1    0    0  502  501  0.00000000000E+00  0.00000000000E+00  0.40285411241E+01  0.40285411241E+01  0.00000000000E+00 0.  1.
         21   -1    0    0  504  502 -0.00000000000E+00 -0.00000000000E+00 -0.13729427100E+03  0.13729427100E+03  0.00000000000E+00 0.  1.
         21    1    1    2  503  501  0.22049557548E+02 -0.76550980492E+01 -0.57970477285E+02  0.62492877601E+02  0.00000000000E+00 0.  1.
         21    1    1    2  504  503 -0.22049557548E+02  0.76550980492E+01 -0.75295252588E+02  0.78829934520E+02  0.00000000000E+00 0.  1.
<mgrwt>
<rscale>  2 0.23340598E+02</rscale>
<asrwt>0</asrwt>
<pdfrwt beam="1">  1       21 0.61977544E-03 0.23340598E+02</pdfrwt>
<pdfrwt beam="2">  1       21 0.21122199E-01 0.23340598E+02</pdfrwt>
<totfact> 0.11478616E+08</totfact>
</mgrwt>
</event>
<event>
 4    1  0.9138221E+003  0.7681059E+02  0.7546771E-02  0.1338354E+00
         21   -1    0    0  503  501  0.00000000000E+00  0.00000000000E+00  0.71490249206E+02  0.71490249206E+02  0.00000000000E+00 0. -1.
         21   -1    0    0  501  502 -0.00000000000E+00 -0.00000000000E+00 -0.85852808831E+02  0.85852808831E+02  0.00000000000E+00 0. -1.
         21    1    1    2  503  504  0.19801133298E+01 -0.76785063250E+02 -0.22665780501E+02  0.80084982317E+02  0.00000000000E+00 0.  1.
         21    1    1    2  504  502 -0.19801133298E+01  0.76785063250E+02  0.83032208764E+01  0.77258075720E+02  0.00000000000E+00 0.  1.
<mgrwt>
<rscale>  2 0.76810590E+02</rscale>
<asrwt>0</asrwt>
<pdfrwt beam="1">  1       21 0.10998500E-01 0.76810590E+02</pdfrwt>
<pdfrwt beam="2">  1       21 0.13208125E-01 0.76810590E+02</pdfrwt>
<totfact> 0.32634302E+06</totfact>
</mgrwt>
</event>
<event>
 4    1  0.9138221E+003  0.2499416E+02  0.7546771E-02  0.1661086E+00
         21   -1    0    0  502  501  0.00000000000E+00  0.00000000000E+00  0.30554147103E+02  0.30554147103E+02  0.00000000000E+00 0.  1.
         21   -1    0    0  504  502 -0.00000000000E+00 -0.00000000000E+00 -0.37961538222E+02  0.37961538222E+02  0.00000000000E+00 0.  1.
         21    1    1    2  503  501  0.60064811622E+01 -0.24261698167E+02  0.19566539869E+02  0.31742043040E+02  0.00000000000E+00 0. -1.
         21    1    1    2  504  503 -0.60064811622E+01  0.24261698167E+02 -0.26973930988E+02  0.36773642284E+02  0.00000000000E+00 0. -1.
<mgrwt>
<rscale>  2 0.24994156E+02</rscale>
<asrwt>0</asrwt>
<pdfrwt beam="1">  1       21 0.47006380E-02 0.24994156E+02</pdfrwt>
<pdfrwt beam="2">  1       21 0.58402366E-02 0.24994156E+02</pdfrwt>
<totfact> 0.45074025E+07</totfact>
</mgrwt>
</event>
<event>
 4    1  0.9138221E+003  0.2781990E+02  0.7546771E-02  0.1623517E+00
         21   -1    0    0  504  501  0.00000000000E+00  0.00000000000E+00  0.24312767764E+01  0.24312767764E+01  0.00000000000E+00 0.  1.
         21   -1    0    0  501  502 -0.00000000000E+00 -0.00000000000E+00 -0.45400518525E+03  0.45400518525E+03  0.00000000000E+00 0.  1.
         21    1    1    2  503  502  0.85383524573E+01 -0.26477225767E+02 -0.35054571561E+03  0.35164790015E+03  0.00000000000E+00 0. -1.
         21    1    1    2  504  503 -0.85383524573E+01  0.26477225767E+02 -0.10102819287E+03  0.10478856189E+03  0.00000000000E+00 0. -1.
<mgrwt>
<rscale>  2 0.27819902E+02</rscale>
<asrwt>0</asrwt>
<pdfrwt beam="1">  1       21 0.37404272E-03 0.27819902E+02</pdfrwt>
<pdfrwt beam="2">  1       21 0.69846926E-01 0.27819902E+02</pdfrwt>
<totfact> 0.26245911E+07</totfact>
</mgrwt>
</event>
<event>
 4    1  0.9138221E+003  0.2641156E+02  0.7546771E-02  0.1641517E+00
         21   -1    0    0  504  501  0.00000000000E+00  0.00000000000E+00  0.14619607423E+01  0.14619607423E+01  0.00000000000E+00 0. -1.
         21   -1    0    0  501  502 -0.00000000000E+00 -0.00000000000E+00 -0.67132008220E+03  0.67132008220E+03  0.00000000000E+00 0. -1.
         21    1    1    2  503  502  0.12214159324E+02 -0.23417618044E+02 -0.51584374885E+03  0.51651945147E+03  0.00000000000E+00 0.  1.
         21    1    1    2  504  503 -0.12214159324E+02  0.23417618044E+02 -0.15401437261E+03  0.15626259147E+03  0.00000000000E+00 0.  1.
<mgrwt>
<rscale>  2 0.26411560E+02</rscale>
<asrwt>0</asrwt>
<pdfrwt beam="1">  1       21 0.22491712E-03 0.26411560E+02</pdfrwt>
<pdfrwt beam="2">  1       21 0.10327997E+00 0.26411560E+02</pdfrwt>
<totfact> 0.23729294E+07</totfact>
</mgrwt>
</event>
<event>
 4    1  0.9138221E+003  0.2152604E+02  0.7546771E-02  0.1716580E+00
         21   -1    0    0  502  501  0.00000000000E+00  0.00000000000E+00  0.13777883484E+02  0.13777883484E+02  0.00000000000E+00 0. -1.
         21   -1    0    0  503  502 -0.00000000000E+00 -0.00000000000E+00 -0.73971092364E+02  0.73971092364E+02  0.00000000000E+00 0. -1.
         21    1    1    2  503  504 -0.86340754961E+01 -0.19718593607E+02  0.23035491335E+01  0.21648938361E+02  0.00000000000E+00 0. -1.
         21    1    1    2  504  501  0.86340754961E+01  0.19718593607E+02 -0.62496758014E+02  0.66100037487E+02  0.00000000000E+00 0. -1.
<mgrwt>
<rscale>  2 0.21526035E+02</rscale>
<asrwt>0</asrwt>
<pdfrwt beam="1">  1       21 0.21196743E-02 0.21526035E+02</pdfrwt>
<pdfrwt beam="2">  1       21 0.11380168E-01 0.21526035E+02</pdfrwt>
<totfact> 0.50562232E+07</totfact>
</mgrwt>
</event>
<event>
 4    1  0.9138221E+003  0.2097790E+02  0.7546771E-02  0.1726553E+00
         21   -1    0    0  503  501  0.00000000000E+00  0.00000000000E+00  0.24081773452E+01  0.24081773452E+01  0.00000000000E+00 0.  1.
         21   -1    0    0  501  502 -0.00000000000E+00 -0.00000000000E+00 -0.33840068952E+03  0.33840068952E+03  0.00000000000E+00 0.  1.
         21    1    1    2  503  504 -0.51205438581E+01  0.20343356474E+02 -0.52423969521E+02  0.56465429267E+02  0.00000000000E+00 0. -1.
         21    1    1    2  504  502  0.51205438581E+01 -0.20343356474E+02 -0.28356854266E+03  0.28434343760E+03  0.00000000000E+00 0. -1.
<mgrwt>
<rscale>  2 0.20977896E+02</rscale>
<asrwt>0</asrwt>
<pdfrwt beam="1">  1       21 0.37048919E-03 0.20977896E+02</pdfrwt>
<pdfrwt beam="2">  1       21 0.52061593E-01 0.20977896E+02</pdfrwt>
<totfact> 0.45195050E+07</totfact>
</mgrwt>
</event>
<event>
 4    1  0.9138221E+003  0.2078596E+02  0.7546771E-02  0.1730135E+00
         21   -1    0    0  503  501  0.00000000000E+00  0.00000000000E+00  0.41934010863E+01  0.41934010863E+01  0.00000000000E+00 0. -1.
         21   -1    0    0  501  502 -0.00000000000E+00 -0.00000000000E+00 -0.16066082536E+03  0.16066082536E+03  0.00000000000E+00 0. -1.
         21    1    1    2  503  504  0.11748668990E+01 -0.20752731051E+02 -0.28867081409E+02  0.35571962940E+02  0.00000000000E+00 0. -1.
         21    1    1    2  504  502 -0.11748668990E+01  0.20752731051E+02 -0.12760034287E+03  0.12928226351E+03  0.00000000000E+00 0. -1.
<mgrwt>
<rscale>  2 0.20785961E+02</rscale>
<asrwt>0</asrwt>
<pdfrwt beam="1">  1       21 0.64513862E-03 0.20785961E+02</pdfrwt>
<pdfrwt beam="2">  1       21 0.24717050E-01 0.20785961E+02</pdfrwt>
<totfact> 0.79399569E+07</totfact>
</mgrwt>
</event>
<event>
 4    1  0.9138221E+003  0.4275731E+02  0.7546771E-02  0.1488848E+00
         21   -1    0    0  502  501  0.00000000000E+00  0.00000000000E+00  0.16597575268E+04  0.16597575268E+04  0.00000000000E+00 0. -1.
         21   -1    0    0  503  502 -0.00000000000E+00 -0.00000000000E+00 -0.16903241384E+01  0.16903241384E+01  0.00000000000E+00 0. -1.
         21    1    1    2  503  504 -0.13562012012E+02  0.40549466195E+02  0.33872171640E+03  0.34140970774E+03  0.00000000000E+00 0. -1.
         21    1    1    2  504  501  0.13562012012E+02 -0.40549466195E+02  0.13193454863E+04  0.13200381432E+04  0.00000000000E+00 0. -1.
<mgrwt>
<rscale>  2 0.42757308E+02</rscale>
<asrwt>0</asrwt>
<pdfrwt beam="1">  1       21 0.25534601E+00 0.42757308E+02</pdfrwt>
<pdfrwt beam="2">  1       21 0.26005120E-03 0.42757308E+02</pdfrwt>
<totfact> 0.20265634E+06</totfact>
</mgrwt>
</event>
<event>
 4    1  0.9138221E+003  0.2079532E+02  0.7546771E-02  0.1729960E+00
         21   -1    0    0  504  501  0.00000000000E+00  0.00000000000E+00  0.28837858337E+02  0.28837858337E+02  0.00000000000E+00 0. -1.
         21   -1    0    0  501  502 -0.00000000000E+00 -0.00000000000E+00 -0.20093164510E+02  0.20093164510E+02  0.00000000000E+00 0. -1.
         21    1    1    2  503  502  0.20087642638E+02  0.53788413949E+01 -0.79503308871E+01  0.22263267566E+02  0.00000000000E+00 0. -1.
         21    1    1    2  504  503 -0.20087642638E+02 -0.53788413949E+01  0.16695024714E+02  0.26667755281E+02  0.00000000000E+00 0. -1.
<mgrwt>
<rscale>  2 0.20795320E+02</rscale>
<asrwt>0</asrwt>
<pdfrwt beam="1">  1       21 0.44365936E-02 0.20795320E+02</pdfrwt>
<pdfrwt beam="2">  1       21 0.30912561E-02 0.20795320E+02</pdfrwt>
<totfact> 0.12828802E+08</totfact>
</mgrwt>
</event>
<event>
 4    1  0.9138221E+003  0.2061841E+02  0.7546771E-02  0.1733303E+00
         21   -1    0    0  504  501  0.00000000000E+00  0.00000000000E+00  0.11027851960E+02  0.11027851960E+02  0.00000000000E+00 0.  1.
         21   -1    0    0  501  502 -0.00000000000E+00 -0.00000000000E+00 -0.63099381154E+02  0.63099381154E+02  0.00000000000E+00 0.  1.
         21    1    1    2  503  502 -0.12586575689E+02  0.16330859078E+02 -0.29172776782E+01  0.20823768987E+02  0.00000000000E+00 0.  1.
         21    1    1    2  504  503  0.12586575689E+02 -0.16330859078E+02 -0.49154251517E+02  0.53303464127E+02  0.00000000000E+00 0.  1.
<mgrwt>
<rscale>  2 0.20618410E+02</rscale>
<asrwt>0</asrwt>
<pdfrwt beam="1">  1       21 0.16965926E-02 0.20618410E+02</pdfrwt>
<pdfrwt beam="2">  1       21 0.97075973E-02 0.20618410E+02</pdfrwt>
<totfact> 0.91291967E+07</totfact>
</mgrwt>
</event>
<event>
 4    1  0.9138221E+003  0.2029486E+02  0.7546771E-02  0.1739527E+00
         21   -1    0    0  502  501  0.00000000000E+00  0.00000000000E+00  0.21142546022E+01  0.21142546022E+01  0.00000000000E+00 0. -1.
         21   -1    0    0  503  502 -0.00000000000E+00 -0.00000000000E+00 -0.67940366543E+03  0.67940366543E+03  0.00000000000E+00 0. -1.
         21    1    1    2  503  504 -0.11287623534E+02 -0.16866266111E+02 -0.62643190884E+03  0.62676057453E+03  0.00000000000E+00 0.  1.
         21    1    1    2  504  501  0.11287623534E+02  0.16866266111E+02 -0.50857501993E+02  0.54757345504E+02  0.00000000000E+00 0.  1.
<mgrwt>
<rscale>  2 0.20294861E+02</rscale>
<asrwt>0</asrwt>
<pdfrwt beam="1">  1       21 0.32526985E-03 0.20294861E+02</pdfrwt>
<pdfrwt beam="2">  1       21 0.10452367E+00 0.20294861E+02</pdfrwt>
<totfact> 0.12887595E+07</totfact>
</mgrwt>
</event>
<event>
 4    1  0.9138221E+003  0.2669323E+02  0.7546771E-02  0.1637808E+00
         21   -1    0    0  502  501  0.00000000000E+00  0.00000000000E+00  0.58904672477E+01  0.58904672477E+01  0.00000000000E+00 0. -1.
         21   -1    0    0  503  502 -0.00000000000E+00 -0.00000000000E+00 -0.15739181851E+03  0.15739181851E+03  0.00000000000E+00 0. -1.
         21    1    1    2  503  504  0.23889277093E+02 -0.11909289607E+02 -0.36473487308E+02  0.45197831977E+02  0.00000000000E+00 0. -1.
         21    1    1    2  504  501 -0.23889277093E+02  0.11909289607E+02 -0.11502786396E+03  0.11808445378E+03  0.00000000000E+00 0. -1.
<mgrwt>
<rscale>  2 0.26693234E+02</rscale>
<asrwt>0</asrwt>
<pdfrwt beam="1">  1       21 0.90622569E-03 0.26693234E+02</pdfrwt>
<pdfrwt beam="2">  1       21 0.24214127E-01 0.26693234E+02</pdfrwt>
<totfact> 0.52827311E+07</totfact>
</mgrwt>
</event>
<event>
 4    1  0.9138221E+003  0.2462849E+02  0.7546771E-02  0.1666396E+00
         21   -1    0    0  502  501  0.00000000000E+00  0.00000000000E+00  0.12972070120E+03  0.12972070120E+03  0.00000000000E+00 0.  1.
         21   -1    0    0  504  502 -0.00000000000E+00 -0.00000000000E+00 -0.68676807885E+01  0.68676807885E+01  0.00000000000E+00 0.  1.
         21    1    1    2  503  501 -0.19993680869E+02  0.14381080389E+02  0.22845290099E+02  0.33592707952E+02  0.00000000000E+00 0.  1.
         21    1    1    2  504  503  0.19993680869E+02 -0.14381080389E+02  0.10000773031E+03  0.10299567403E+03  0.00000000000E+00 0.  1.
<mgrwt>
<rscale>  2 0.24628495E+02</rscale>
<asrwt>0</asrwt>
<pdfrwt beam="1">  1       21 0.19957029E-01 0.24628495E+02</pdfrwt>
<pdfrwt beam="2">  1       21 0.10565664E-02 0.24628495E+02</pdfrwt>
<totfact> 0.57913633E+07</totfact>
</mgrwt>
</event>
<event>
 4    1  0.9138221E+003  0.2132120E+02  0.7546771E-02  0.1720263E+00
         21   -1    0    0  502  501  0.00000000000E+00  0.00000000000E+00  0.87351811097E+00  0.87351811097E+00  0.00000000000E+00 0. -1.
         21   -1    0    0  503  502 -0.00000000000E+00 -0.00000000000E+00 -0.69630423024E+03  0.69630423024E+03  0.00000000000E+00 0. -1.
         21    1    1    2  503  504  0.20548388702E+02  0.56883609383E+01 -0.52291413867E+03  0.52334863155E+03  0.00000000000E+00 0.  1.
         21    1    1    2  504  501 -0.20548388702E+02 -0.56883609383E+01 -0.17251657346E+03  0.17382911680E+03  0.00000000000E+00 0.  1.
<mgrwt>
<rscale>  2 0.21321204E+02</rscale>
<asrwt>0</asrwt>
<pdfrwt beam="1">  1       21 0.13438736E-03 0.21321204E+02</pdfrwt>
<pdfrwt beam="2">  1       21 0.10712376E+00 0.21321204E+02</pdfrwt>
<totfact> 0.44057134E+07</totfact>
</mgrwt>
</event>
<event>
 4    1  0.9138221E+003  0.2943451E+02  0.7546771E-02  0.1604425E+00
         21   -1    0    0  504  501  0.00000000000E+00  0.00000000000E+00  0.29126457841E+02  0.29126457841E+02  0.00000000000E+00 0. -1.
         21   -1    0    0  501  502 -0.00000000000E+00 -0.00000000000E+00 -0.91366967006E+02  0.91366967006E+02  0.00000000000E+00 0. -1.
         21    1    1    2  503  502  0.18044081584E+02 -0.23255139280E+02  0.18356777073E+02  0.34689503422E+02  0.00000000000E+00 0. -1.
         21    1    1    2  504  503 -0.18044081584E+02  0.23255139280E+02 -0.80597286238E+02  0.85803921426E+02  0.00000000000E+00 0. -1.
<mgrwt>
<rscale>  2 0.29434510E+02</rscale>
<asrwt>0</asrwt>
<pdfrwt beam="1">  1       21 0.44809935E-02 0.29434510E+02</pdfrwt>
<pdfrwt beam="2">  1       21 0.14056456E-01 0.29434510E+02</pdfrwt>
<totfact> 0.11745027E+07</totfact>
</mgrwt>
</event>
<event>
 4    1  0.9138221E+003  0.3437008E+02  0.7546771E-02  0.1554267E+00
         21   -1    0    0  503  501  0.00000000000E+00  0.00000000000E+00  0.29141705314E+03  0.29141705314E+03  0.00000000000E+00 0. -1.
         21   -1    0    0  501  502 -0.00000000000E+00 -0.00000000000E+00 -0.53357873653E+01  0.53357873653E+01  0.00000000000E+00 0. -1.
         21    1    1    2  503  504 -0.12233190466E+02  0.32119336570E+02  0.70307396225E+02  0.78258754747E+02  0.00000000000E+00 0. -1.
         21    1    1    2  504  502  0.12233190466E+02 -0.32119336570E+02  0.21577386955E+03  0.21849408576E+03  0.00000000000E+00 0. -1.
<mgrwt>
<rscale>  2 0.34370085E+02</rscale>
<asrwt>0</asrwt>
<pdfrwt beam="1">  1       21 0.44833380E-01 0.34370085E+02</pdfrwt>
<pdfrwt beam="2">  1       21 0.82089059E-03 0.34370085E+02</pdfrwt>
<totfact> 0.20460639E+07</totfact>
</mgrwt>
</event>
<event>
 4    1  0.9138221E+003  0.3135166E+02  0.7546771E-02  0.1583611E+00
         21   -1    0    0  504  501  0.00000000000E+00  0.00000000000E+00  0.78154252666E+02  0.78154252666E+02  0.00000000000E+00 0.  1.
         21   -1    0    0  501  502 -0.00000000000E+00 -0.00000000000E+00 -0.13702392758E+02  0.13702392758E+02  0.00000000000E+00 0.  1.
         21    1    1    2  503  502  0.43244061008E+01 -0.31051992600E+02  0.45389754629E+02  0.55164812678E+02  0.00000000000E+00 0. -1.
         21    1    1    2  504  503 -0.43244061008E+01  0.31051992600E+02  0.19062105279E+02  0.36691832746E+02  0.00000000000E+00 0. -1.
<mgrwt>
<rscale>  2 0.31351662E+02</rscale>
<asrwt>0</asrwt>
<pdfrwt beam="1">  1       21 0.12023731E-01 0.31351662E+02</pdfrwt>
<pdfrwt beam="2">  1       21 0.21080605E-02 0.31351662E+02</pdfrwt>
<totfact> 0.50870177E+07</totfact>
</mgrwt>
</event>
<event>
 4    1  0.9138221E+003  0.2190081E+02  0.7546771E-02  0.1709973E+00
         21   -1    0    0  503  501  0.00000000000E+00  0.00000000000E+00  0.14493916074E+02  0.14493916074E+02  0.00000000000E+00 0. -1.
         21   -1    0    0  501  502 -0.00000000000E+00 -0.00000000000E+00 -0.41866222767E+02  0.41866222767E+02  0.00000000000E+00 0. -1.
         21    1    1    2  503  504  0.21645341116E+02 -0.33353758073E+01 -0.78606902306E+00  0.21914913377E+02  0.00000000000E+00 0. -1.
         21    1    1    2  504  502 -0.21645341116E+02  0.33353758073E+01 -0.26586237669E+02  0.34445225463E+02  0.00000000000E+00 0. -1.
<mgrwt>
<rscale>  2 0.21900811E+02</rscale>
<asrwt>0</asrwt>
<pdfrwt beam="1">  1       21 0.22298333E-02 0.21900811E+02</pdfrwt>
<pdfrwt beam="2">  1       21 0.64409572E-02 0.21900811E+02</pdfrwt>
<totfact> 0.11920858E+08</totfact>
</mgrwt>
</event>
<event>
 4    1  0.9138221E+003  0.2805171E+02  0.7546771E-02  0.1620680E+00
         21   -1    0    0  502  501  0.00000000000E+00  0.00000000000E+00  0.28288085205E+01  0.28288085205E+01  0.00000000000E+00 0.  1.
         21   -1    0    0  504  502 -0.00000000000E+00 -0.00000000000E+00 -0.33647913524E+03  0.33647913524E+03  0.00000000000E+00 0.  1.
         21    1    1    2  503  501  0.19296181634E+02 -0.20360647456E+02 -0.96202919303E+02  0.10020928237E+03  0.00000000000E+00 0. -1.
         21    1    1    2  504  503 -0.19296181634E+02  0.20360647456E+02 -0.23744740742E+03  0.23909866139E+03  0.00000000000E+00 0. -1.
<mgrwt>
<rscale>  2 0.28051713E+02</rscale>
<asrwt>0</asrwt>
<pdfrwt beam="1">  1       21 0.43520160E-03 0.28051713E+02</pdfrwt>
<pdfrwt beam="2">  1       21 0.51765986E-01 0.28051713E+02</pdfrwt>
<totfact> 0.38464329E+07</totfact>
</mgrwt>
</event>
<event>
 4    1  0.9138221E+003  0.2880465E+02  0.7546771E-02  0.1611690E+00
         21   -1    0    0  503  501  0.00000000000E+00  0.00000000000E+00  0.19112677556E+02  0.19112677556E+02  0.00000000000E+00 0.  1.
         21   -1    0    0  501  502 -0.00000000000E+00 -0.00000000000E+00 -0.57784853893E+02  0.57784853893E+02  0.00000000000E+00 0.  1.
         21    1    1    2  503  504 -0.16214317818E+02  0.23807642689E+02 -0.16017422946E+00  0.28805096919E+02  0.00000000000E+00 0.  1.
         21    1    1    2  504  502  0.16214317818E+02 -0.23807642689E+02 -0.38512002108E+02  0.48092434531E+02  0.00000000000E+00 0.  1.
<mgrwt>
<rscale>  2 0.28804652E+02</rscale>
<asrwt>0</asrwt>
<pdfrwt beam="1">  1       21 0.29404120E-02 0.28804652E+02</pdfrwt>
<pdfrwt beam="2">  1       21 0.88899774E-02 0.28804652E+02</pdfrwt>
<totfact> 0.49260489E+07</totfact>
</mgrwt>
</event>
<event>
 4    1  0.9138221E+003  0.2761744E+02  0.7546771E-02  0.1626024E+00
         21   -1    0    0  503  501  0.00000000000E+00  0.00000000000E+00  0.33505744685E+01  0.33505744685E+01  0.00000000000E+00 0. -1.
         21   -1    0    0  501  502 -0.00000000000E+00 -0.00000000000E+00 -0.28632027656E+03  0.28632027656E+03  0.00000000000E+00 0. -1.
         21    1    1    2  503  504 -0.20741899022E+02 -0.18234487798E+02 -0.75916106498E+02  0.80783526453E+02  0.00000000000E+00 0.  1.
         21    1    1    2  504  502  0.20741899022E+02  0.18234487798E+02 -0.20705359560E+03  0.20888732458E+03  0.00000000000E+00 0.  1.
<mgrwt>
<rscale>  2 0.27617439E+02</rscale>
<asrwt>0</asrwt>
<pdfrwt beam="1">  1       21 0.51547292E-03 0.27617439E+02</pdfrwt>
<pdfrwt beam="2">  1       21 0.44049280E-01 0.27617439E+02</pdfrwt>
<totfact> 0.40847858E+07</totfact>
</mgrwt>
</event>
<event>
 4    1  0.9138221E+003  0.2342596E+02  0.7546771E-02  0.1684697E+00
         21   -1    0    0  502  501  0.00000000000E+00  0.00000000000E+00  0.53408301259E+02  0.53408301259E+02  0.00000000000E+00 0.  1.
         21   -1    0    0  503  502 -0.00000000000E+00 -0.00000000000E+00 -0.15379740859E+02  0.15379740859E+02  0.00000000000E+00 0.  1.
         21    1    1    2  503  504 -0.23414324195E+02  0.73820203305E+00  0.38829145888E+02  0.45348407802E+02  0.00000000000E+00 0.  1.
         21    1    1    2  504  501  0.23414324195E+02 -0.73820203305E+00 -0.80058548815E+00  0.23439634316E+02  0.00000000000E+00 0.  1.
<mgrwt>
<rscale>  2 0.23425958E+02</rscale>
<asrwt>0</asrwt>
<pdfrwt beam="1">  1       21 0.82166617E-02 0.23425958E+02</pdfrwt>
<pdfrwt beam="2">  1       21 0.23661140E-02 0.23425958E+02</pdfrwt>
<totfact> 0.74721723E+07</totfact>
</mgrwt>
</event>
<event>
 4    1  0.9138221E+003  0.2708082E+02  0.7546771E-02  0.1632796E+00
         21   -1    0    0  503  501  0.00000000000E+00  0.00000000000E+00  0.12937150776E+01  0.12937150776E+01  0.00000000000E+00 0. -1.
         21   -1    0    0  501  502 -0.00000000000E+00 -0.00000000000E+00 -0.63962543401E+03  0.63962543401E+03  0.00000000000E+00 0. -1.
         21    1    1    2  503  504  0.11288434930E+02  0.24615891252E+02 -0.21108790643E+03  0.21281793887E+03  0.00000000000E+00 0.  1.
         21    1    1    2  504  502 -0.11288434930E+02 -0.24615891252E+02 -0.42724381251E+03  0.42810121022E+03  0.00000000000E+00 0.  1.
<mgrwt>
<rscale>  2 0.27080821E+02</rscale>
<asrwt>0</asrwt>
<pdfrwt beam="1">  1       21 0.19903323E-03 0.27080821E+02</pdfrwt>
<pdfrwt beam="2">  1       21 0.98403845E-01 0.27080821E+02</pdfrwt>
<totfact> 0.31678714E+07</totfact>
</mgrwt>
</event>
<event>
 4    1  0.9138221E+003  0.2137407E+02  0.7546771E-02  0.1719307E+00
         21   -1    0    0  504  501  0.00000000000E+00  0.00000000000E+00  0.31335348640E+03  0.31335348640E+03  0.00000000000E+00 0. -1.
         21   -1    0    0  501  502 -0.00000000000E+00 -0.00000000000E+00 -0.22975555902E+01  0.22975555902E+01  0.00000000000E+00 0. -1.
         21    1    1    2  503  502 -0.20325626698E+02 -0.66120922952E+01  0.60120088678E+02  0.63806550822E+02  0.00000000000E+00 0.  1.
         21    1    1    2  504  503  0.20325626698E+02  0.66120922952E+01  0.25093584213E+03  0.25184449117E+03  0.00000000000E+00 0.  1.
<mgrwt>
<rscale>  2 0.21374070E+02</rscale>
<asrwt>0</asrwt>
<pdfrwt beam="1">  1       21 0.48208195E-01 0.21374070E+02</pdfrwt>
<pdfrwt beam="2">  1       21 0.35347034E-03 0.21374070E+02</pdfrwt>
<totfact> 0.56437541E+07</totfact>
</mgrwt>
</event>
<event>
 4    1  0.9138221E+003  0.2644601E+02  0.7546771E-02  0.1641061E+00
         21   -1    0    0  504  501  0.00000000000E+00  0.00000000000E+00  0.30152240128E+02  0.30152240128E+02  0.00000000000E+00 0.  1.
         21   -1    0    0  501  502 -0.00000000000E+00 -0.00000000000E+00 -0.85655889563E+02  0.85655889563E+02  0.00000000000E+00 0.  1.
         21    1    1    2  503  502  0.18812462771E+02  0.18587160059E+02 -0.77198074607E+02  0.81602291620E+02  0.00000000000E+00 0. -1.
         21    1    1    2  504  503 -0.18812462771E+02 -0.18587160059E+02  0.21694425172E+02  0.34205838071E+02  0.00000000000E+00 0. -1.
<mgrwt>
<rscale>  2 0.26446007E+02</rscale>
<asrwt>0</asrwt>
<pdfrwt beam="1">  1       21 0.46388062E-02 0.26446007E+02</pdfrwt>
<pdfrwt beam="2">  1       21 0.13177829E-01 0.26446007E+02</pdfrwt>
<totfact> 0.12168794E+07</totfact>
</mgrwt>
</event>
<event>
 4    1  0.9138221E+003  0.2525441E+02  0.7546771E-02  0.1657374E+00
         21   -1    0    0  502  501  0.00000000000E+00  0.00000000000E+00  0.17780361418E+02  0.17780361418E+02  0.00000000000E+00 0. -1.
         21   -1    0    0  503  502 -0.00000000000E+00 -0.00000000000E+00 -0.80662808564E+02  0.80662808564E+02  0.00000000000E+00 0. -1.
         21    1    1    2  503  504  0.18299298843E+02  0.17404622210E+02 -0.68120611249E+02  0.72651241485E+02  0.00000000000E+00 0.  1.
         21    1    1    2  504  501 -0.18299298843E+02 -0.17404622210E+02  0.52381641026E+01  0.25791928497E+02  0.00000000000E+00 0.  1.
<mgrwt>
<rscale>  2 0.25254410E+02</rscale>
<asrwt>0</asrwt>
<pdfrwt beam="1">  1       21 0.27354401E-02 0.25254410E+02</pdfrwt>
<pdfrwt beam="2">  1       21 0.12409663E-01 0.25254410E+02</pdfrwt>
<totfact> 0.30668504E+07</totfact>
</mgrwt>
</event>
<event>
 4    1  0.9138221E+003  0.3696364E+02  0.7546771E-02  0.1531824E+00
         21   -1    0    0  502  501  0.00000000000E+00  0.00000000000E+00  0.15970990874E+02  0.15970990874E+02  0.00000000000E+00 0.  1.
         21   -1    0    0  503  502 -0.00000000000E+00 -0.00000000000E+00 -0.12483981139E+03  0.12483981139E+03  0.00000000000E+00 0.  1.
         21    1    1    2  503  504  0.20196322183E+02  0.30958345733E+02 -0.93932132481E+02  0.10094333119E+03  0.00000000000E+00 0. -1.
         21    1    1    2  504  501 -0.20196322183E+02 -0.30958345733E+02 -0.14936688039E+02  0.39867471074E+02  0.00000000000E+00 0. -1.
<mgrwt>
<rscale>  2 0.36963639E+02</rscale>
<asrwt>0</asrwt>
<pdfrwt beam="1">  1       21 0.24570755E-02 0.36963639E+02</pdfrwt>
<pdfrwt beam="2">  1       21 0.19206125E-01 0.36963639E+02</pdfrwt>
<totfact> 0.18352038E+07</totfact>
</mgrwt>
</event>
<event>
 4    1  0.9138221E+003  0.3653563E+02  0.7546771E-02  0.1535372E+00
         21   -1    0    0  503  501  0.00000000000E+00  0.00000000000E+00  0.16831428886E+02  0.16831428886E+02  0.00000000000E+00 0.  1.
         21   -1    0    0  501  502 -0.00000000000E+00 -0.00000000000E+00 -0.21578099691E+03  0.21578099691E+03  0.00000000000E+00 0.  1.
         21    1    1    2  503  504  0.12083932527E+02 -0.34479422324E+02 -0.19197038890E+03  0.19541617692E+03  0.00000000000E+00 0. -1.
         21    1    1    2  504  502 -0.12083932527E+02  0.34479422324E+02 -0.69791791278E+01  0.37196248876E+02  0.00000000000E+00 0. -1.
<mgrwt>
<rscale>  2 0.36535626E+02</rscale>
<asrwt>0</asrwt>
<pdfrwt beam="1">  1       21 0.25894506E-02 0.36535626E+02</pdfrwt>
<pdfrwt beam="2">  1       21 0.33197076E-01 0.36535626E+02</pdfrwt>
<totfact> 0.62302182E+06</totfact>
</mgrwt>
</event>
<event>
 4    1  0.9138221E+003  0.2178886E+02  0.7546771E-02  0.1711929E+00
         21   -1    0    0  503  501  0.00000000000E+00  0.00000000000E+00  0.41407375486E+01  0.41407375486E+01  0.00000000000E+00 0. -1.
         21   -1    0    0  501  502 -0.00000000000E+00 -0.00000000000E+00 -0.38315947797E+03  0.38315947797E+03  0.00000000000E+00 0. -1.
         21    1    1    2  503  504  0.20462149292E+02 -0.74869871940E+01 -0.35161722603E+03  0.35229168053E+03  0.00000000000E+00 0.  1.
         21    1    1    2  504  502 -0.20462149292E+02  0.74869871940E+01 -0.27401514385E+02  0.35008534981E+02  0.00000000000E+00 0.  1.
<mgrwt>
<rscale>  2 0.21788863E+02</rscale>
<asrwt>0</asrwt>
<pdfrwt beam="1">  1       21 0.63703629E-03 0.21788863E+02</pdfrwt>
<pdfrwt beam="2">  1       21 0.58947636E-01 0.21788863E+02</pdfrwt>
<totfact> 0.16087214E+07</totfact>
</mgrwt>
</event>
<event>
 4    1  0.9138221E+003  0.2753885E+02  0.7546771E-02  0.1627004E+00
         21   -1    0    0  502  501  0.00000000000E+00  0.00000000000E+00  0.59426845020E+02  0.59426845020E+02  0.00000000000E+00 0. -1.
         21   -1    0    0  504  502 -0.00000000000E+00 -0.00000000000E+00 -0.12974479081E+02  0.12974479081E+02  0.00000000000E+00 0. -1.
         21    1    1    2  503  501 -0.21423521140E+02 -0.17303782579E+02  0.27861997223E+02  0.39174979756E+02  0.00000000000E+00 0.  1.
         21    1    1    2  504  503  0.21423521140E+02  0.17303782579E+02  0.18590368715E+02  0.33226344345E+02  0.00000000000E+00 0.  1.
<mgrwt>
<rscale>  2 0.27538848E+02</rscale>
<asrwt>0</asrwt>
<pdfrwt beam="1">  1       21 0.91425914E-02 0.27538848E+02</pdfrwt>
<pdfrwt beam="2">  1       21 0.19960737E-02 0.27538848E+02</pdfrwt>
<totfact> 0.85001397E+07</totfact>
</mgrwt>
</event>
<event>
 4    1  0.9138221E+003  0.2614556E+02  0.7546771E-02  0.1645073E+00
         21   -1    0    0  504  501  0.00000000000E+00  0.00000000000E+00  0.18420637724E+04  0.18420637724E+04  0.00000000000E+00 0.  1.
         21   -1    0    0  501  502 -0.00000000000E+00 -0.00000000000E+00 -0.48459628147E+00  0.48459628147E+00  0.00000000000E+00 0.  1.
         21    1    1    2  503  502 -0.21801148617E+02 -0.14432605543E+02  0.47493899437E+03  0.47565811100E+03  0.00000000000E+00 0. -1.
         21    1    1    2  504  503  0.21801148617E+02  0.14432605543E+02  0.13666401817E+04  0.13668902577E+04  0.00000000000E+00 0. -1.
<mgrwt>
<rscale>  2 0.26145558E+02</rscale>
<asrwt>0</asrwt>
<pdfrwt beam="1">  1       21 0.28338882E+00 0.26145558E+02</pdfrwt>
<pdfrwt beam="2">  1       21 0.74554749E-04 0.26145558E+02</pdfrwt>
<totfact> 0.89147953E+06</totfact>
</mgrwt>
</event>
<event>
 4    1  0.9138221E+003  0.3124829E+02  0.7546771E-02  0.1584687E+00
         21   -1    0    0  503  501  0.00000000000E+00  0.00000000000E+00  0.17324473303E+02  0.17324473303E+02  0.00000000000E+00 0.  1.
         21   -1    0    0  501  502 -0.00000000000E+00 -0.00000000000E+00 -0.12370704845E+03  0.12370704845E+03  0.00000000000E+00 0.  1.
         21    1    1    2  503  504 -0.67116054321E+01 -0.30519005653E+02 -0.11630258000E+01  0.31269921371E+02  0.00000000000E+00 0. -1.
         21    1    1    2  504  502  0.67116054321E+01  0.30519005653E+02 -0.10521954934E+03  0.10976160038E+03  0.00000000000E+00 0. -1.
<mgrwt>
<rscale>  2 0.31248286E+02</rscale>
<asrwt>0</asrwt>
<pdfrwt beam="1">  1       21 0.26653036E-02 0.31248286E+02</pdfrwt>
<pdfrwt beam="2">  1       21 0.19031853E-01 0.31248286E+02</pdfrwt>
<totfact> 0.15959526E+07</totfact>
</mgrwt>
</event>
<event>
 4    1  0.9138221E+003  0.2382325E+02  0.7546771E-02  0.1678503E+00
         21   -1    0    0  503  501  0.00000000000E+00  0.00000000000E+00  0.43091593077E+01  0.43091593077E+01  0.00000000000E+00 0.  1.
         21   -1    0    0  501  502 -0.00000000000E+00 -0.00000000000E+00 -0.20991468782E+03  0.20991468782E+03  0.00000000000E+00 0.  1.
         21    1    1    2  503  504 -0.15049498654E+02 -0.18467807765E+02 -0.16818210780E+03  0.16986102766E+03  0.00000000000E+00 0. -1.
         21    1    1    2  504  502  0.15049498654E+02  0.18467807765E+02 -0.37423420711E+02  0.44362819467E+02  0.00000000000E+00 0. -1.
<mgrwt>
<rscale>  2 0.23823252E+02</rscale>
<asrwt>0</asrwt>
<pdfrwt beam="1">  1       21 0.66294747E-03 0.23823252E+02</pdfrwt>
<pdfrwt beam="2">  1       21 0.32294573E-01 0.23823252E+02</pdfrwt>
<totfact> 0.48746067E+07</totfact>
</mgrwt>
</event>
<event>
 4    1  0.9138221E+003  0.2264497E+02  0.7546771E-02  0.1697330E+00
         21   -1    0    0  504  501  0.00000000000E+00  0.00000000000E+00  0.63308410058E+01  0.63308410058E+01  0.00000000000E+00 0.  1.
         21   -1    0    0  501  502 -0.00000000000E+00 -0.00000000000E+00 -0.31012182985E+03  0.31012182985E+03  0.00000000000E+00 0.  1.
         21    1    1    2  503  502  0.18665118130E+02  0.12822170408E+02 -0.28789782459E+03  0.28878703588E+03  0.00000000000E+00 0. -1.
         21    1    1    2  504  503 -0.18665118130E+02 -0.12822170408E+02 -0.15893164262E+02  0.27665634984E+02  0.00000000000E+00 0. -1.
<mgrwt>
<rscale>  2 0.22644970E+02</rscale>
<asrwt>0</asrwt>
<pdfrwt beam="1">  1       21 0.97397540E-03 0.22644970E+02</pdfrwt>
<pdfrwt beam="2">  1       21 0.47711058E-01 0.22644970E+02</pdfrwt>
<totfact> 0.13025149E+07</totfact>
</mgrwt>
</event>
<event>
 4    1  0.9138221E+003  0.4202308E+02  0.7546771E-02  0.1493830E+00
         21   -1    0    0  503  501  0.00000000000E+00  0.00000000000E+00  0.31056909613E+03  0.31056909613E+03  0.00000000000E+00 0.  1.
         21   -1    0    0  501  502 -0.00000000000E+00 -0.00000000000E+00 -0.13849393155E+02  0.13849393155E+02  0.00000000000E+00 0.  1.
         21    1    1    2  503  504  0.32840871214E+02 -0.26218621133E+02  0.23824715216E+02  0.48306893622E+02  0.00000000000E+00 0.  1.
         21    1    1    2  504  502 -0.32840871214E+02  0.26218621133E+02  0.27289498776E+03  0.27611159566E+03  0.00000000000E+00 0.  1.
<mgrwt>
<rscale>  2 0.42023076E+02</rscale>
<asrwt>0</asrwt>
<pdfrwt beam="1">  1       21 0.47779855E-01 0.42023076E+02</pdfrwt>
<pdfrwt beam="2">  1       21 0.21306761E-02 0.42023076E+02</pdfrwt>
<totfact> 0.42646358E+06</totfact>
</mgrwt>
</event>
<event>
 4    1  0.9138221E+003  0.2318960E+02  0.7546771E-02  0.1688455E+00
         21   -1    0    0  503  501  0.00000000000E+00  0.00000000000E+00  0.70331811597E+01  0.70331811597E+01  0.00000000000E+00 0. -1.
         21   -1    0    0  501  502 -0.00000000000E+00 -0.00000000000E+00 -0.21619485309E+03  0.21619485309E+03  0.00000000000E+00 0. -1.
         21    1    1    2  503  504 -0.10505068552E+02  0.20673681459E+02 -0.19431303607E+03  0.19569188424E+03  0.00000000000E+00 0.  1.
         21    1    1    2  504  502  0.10505068552E+02 -0.20673681459E+02 -0.14848635856E+02  0.27536150006E+02  0.00000000000E+00 0.  1.
<mgrwt>
<rscale>  2 0.23189600E+02</rscale>
<asrwt>0</asrwt>
<pdfrwt beam="1">  1       21 0.10820278E-02 0.23189600E+02</pdfrwt>
<pdfrwt beam="2">  1       21 0.33260750E-01 0.23189600E+02</pdfrwt>
<totfact> 0.22047955E+07</totfact>
</mgrwt>
</event>
<event>
 4    1  0.9138221E+003  0.2050214E+02  0.7546771E-02  0.1735523E+00
         21   -1    0    0  502  501  0.00000000000E+00  0.00000000000E+00  0.51654139288E+01  0.51654139288E+01  0.00000000000E+00 0. -1.
         21   -1    0    0  503  502 -0.00000000000E+00 -0.00000000000E+00 -0.12461438235E+03  0.12461438235E+03  0.00000000000E+00 0. -1.
         21    1    1    2  503  504 -0.18594103968E+02 -0.86369555011E+01 -0.97948002905E+02  0.10007071987E+03  0.00000000000E+00 0.  1.
         21    1    1    2  504  501  0.18594103968E+02  0.86369555011E+01 -0.21500965512E+02  0.29709076402E+02  0.00000000000E+00 0.  1.
<mgrwt>
<rscale>  2 0.20502139E+02</rscale>
<asrwt>0</asrwt>
<pdfrwt beam="1">  1       21 0.79467909E-03 0.20502139E+02</pdfrwt>
<pdfrwt beam="2">  1       21 0.19171443E-01 0.20502139E+02</pdfrwt>
<totfact> 0.90593053E+07</totfact>
</mgrwt>
</event>
<event>
 4    1  0.9138221E+003  0.2683989E+02  0.7546771E-02  0.1635900E+00
         21   -1    0    0  502  501  0.00000000000E+00  0.00000000000E+00  0.52915398247E+03  0.52915398247E+03  0.00000000000E+00 0. -1.
         21   -1    0    0  503  502 -0.00000000000E+00 -0.00000000000E+00 -0.14901229819E+01  0.14901229819E+01  0.00000000000E+00 0. -1.
         21    1    1    2  503  504 -0.24652798091E+02  0.10612219532E+02  0.34181925890E+03  0.34287138319E+03  0.00000000000E+00 0.  1.
         21    1    1    2  504  501  0.24652798091E+02 -0.10612219532E+02  0.18584460059E+03  0.18777272226E+03  0.00000000000E+00 0.  1.
<mgrwt>
<rscale>  2 0.26839889E+02</rscale>
<asrwt>0</asrwt>
<pdfrwt beam="1">  1       21 0.81408155E-01 0.26839889E+02</pdfrwt>
<pdfrwt beam="2">  1       21 0.22925011E-03 0.26839889E+02</pdfrwt>
<totfact> 0.38752779E+07</totfact>
</mgrwt>
</event>
<event>
 4    1  0.9138221E+003  0.4437664E+02  0.7546771E-02  0.1478271E+00
         21   -1    0    0  503  501  0.00000000000E+00  0.00000000000E+00  0.39741173490E+02  0.39741173490E+02  0.00000000000E+00 0. -1.
         21   -1    0    0  501  502 -0.00000000000E+00 -0.00000000000E+00 -0.66355465598E+02  0.66355465598E+02  0.00000000000E+00 0. -1.
         21    1    1    2  503  504  0.44132910763E+02  0.46446371043E+01  0.13387388824E+02  0.46352008002E+02  0.00000000000E+00 0. -1.
         21    1    1    2  504  502 -0.44132910763E+02 -0.46446371043E+01 -0.40001680932E+02  0.59744631087E+02  0.00000000000E+00 0. -1.
<mgrwt>
<rscale>  2 0.44376643E+02</rscale>
<asrwt>0</asrwt>
<pdfrwt beam="1">  1       21 0.61140267E-02 0.44376643E+02</pdfrwt>
<pdfrwt beam="2">  1       21 0.10208533E-01 0.44376643E+02</pdfrwt>
<totfact> 0.13026218E+07</totfact>
</mgrwt>
</event>
<event>
 4    1  0.9138221E+003  0.2081959E+02  0.7546771E-02  0.1729504E+00
         21   -1    0    0  503  501  0.00000000000E+00  0.00000000000E+00  0.48126800590E+02  0.48126800590E+02  0.00000000000E+00 0. -1.
         21   -1    0    0  501  502 -0.00000000000E+00 -0.00000000000E+00 -0.22629377568E+02  0.22629377568E+02  0.00000000000E+00 0. -1.
         21    1    1    2  503  504 -0.12070536891E+02 -0.16963414406E+02  0.40198062241E+02  0.45269631068E+02  0.00000000000E+00 0.  1.
         21    1    1    2  504  502  0.12070536891E+02  0.16963414406E+02 -0.14700639219E+02  0.25486547090E+02  0.00000000000E+00 0.  1.
<mgrwt>
<rscale>  2 0.20819589E+02</rscale>
<asrwt>0</asrwt>
<pdfrwt beam="1">  1       21 0.74041232E-02 0.20819589E+02</pdfrwt>
<pdfrwt beam="2">  1       21 0.34814427E-02 0.20819589E+02</pdfrwt>
<totfact> 0.47084310E+07</totfact>
</mgrwt>
</event>
<event>
 4    1  0.9138221E+003  0.2513496E+02  0.7546771E-02  0.1659071E+00
         21   -1    0    0  503  501  0.00000000000E+00  0.00000000000E+00  0.49898711043E+02  0.49898711043E+02  0.00000000000E+00 0. -1.
         21   -1    0    0  501  502 -0.00000000000E+00 -0.00000000000E+00 -0.31938736022E+02  0.31938736022E+02  0.00000000000E+00 0. -1.
         21    1    1    2  503  504 -0.18671395656E+02  0.16826917948E+02 -0.22810086924E+02  0.33942101421E+02  0.00000000000E+00 0.  1.
         21    1    1    2  504  502  0.18671395656E+02 -0.16826917948E+02  0.40770061945E+02  0.47895345645E+02  0.00000000000E+00 0.  1.
<mgrwt>
<rscale>  2 0.25134959E+02</rscale>
<asrwt>0</asrwt>
<pdfrwt beam="1">  1       21 0.76767247E-02 0.25134959E+02</pdfrwt>
<pdfrwt beam="2">  1       21 0.49136517E-02 0.25134959E+02</pdfrwt>
<totfact> 0.26993670E+07</totfact>
</mgrwt>
</event>
<event>
 4    1  0.9138221E+003  0.2105975E+02  0.7546771E-02  0.1725039E+00
         21   -1    0    0  504  501  0.00000000000E+00  0.00000000000E+00  0.53368403719E+01  0.53368403719E+01  0.00000000000E+00 0.  1.
         21   -1    0    0  501  502 -0.00000000000E+00 -0.00000000000E+00 -0.10811669087E+03  0.10811669087E+03  0.00000000000E+00 0.  1.
         21    1    1    2  503  502 -0.28405304754E+01  0.20867304687E+02 -0.24105081331E+02  0.32008873211E+02  0.00000000000E+00 0. -1.
         21    1    1    2  504  503  0.28405304754E+01 -0.20867304687E+02 -0.78674769171E+02  0.81444658035E+02  0.00000000000E+00 0. -1.
<mgrwt>
<rscale>  2 0.21059749E+02</rscale>
<asrwt>0</asrwt>
<pdfrwt beam="1">  1       21 0.82105243E-03 0.21059749E+02</pdfrwt>
<pdfrwt beam="2">  1       21 0.16633336E-01 0.21059749E+02</pdfrwt>
<totfact> 0.11101362E+08</totfact>
</mgrwt>
</event>
<event>
 4    1  0.9138221E+003  0.2078010E+02  0.7546771E-02  0.1730245E+00
         21   -1    0    0  502  501  0.00000000000E+00  0.00000000000E+00  0.22216079886E+02  0.22216079886E+02  0.00000000000E+00 0. -1.
         21   -1    0    0  504  502 -0.00000000000E+00 -0.00000000000E+00 -0.44497549992E+02  0.44497549992E+02  0.00000000000E+00 0. -1.
         21    1    1    2  503  501  0.20779308764E+02  0.18153801989E+00  0.13892232588E+02  0.24996134803E+02  0.00000000000E+00 0. -1.
         21    1    1    2  504  503 -0.20779308764E+02 -0.18153801989E+00 -0.36173702694E+02  0.41717495076E+02  0.00000000000E+00 0. -1.
<mgrwt>
<rscale>  2 0.20780102E+02</rscale>
<asrwt>0</asrwt>
<pdfrwt beam="1">  1       21 0.34178585E-02 0.20780102E+02</pdfrwt>
<pdfrwt beam="2">  1       21 0.68457769E-02 0.20780102E+02</pdfrwt>
<totfact> 0.54968155E+07</totfact>
</mgrwt>
</event>
<event>
 4    1  0.9138221E+003  0.2166546E+02  0.7546771E-02  0.1714103E+00
         21   -1    0    0  502  501  0.00000000000E+00  0.00000000000E+00  0.54536606037E+01  0.54536606037E+01  0.00000000000E+00 0. -1.
         21   -1    0    0  504  502 -0.00000000000E+00 -0.00000000000E+00 -0.14866461465E+03  0.14866461465E+03  0.00000000000E+00 0. -1.
         21    1    1    2  503  501 -0.77334177162E+01  0.20238242359E+02 -0.21602990520E+02  0.30595447419E+02  0.00000000000E+00 0.  1.
         21    1    1    2  504  503  0.77334177162E+01 -0.20238242359E+02 -0.12160796352E+03  0.12352282783E+03  0.00000000000E+00 0.  1.
<mgrwt>
<rscale>  2 0.21665461E+02</rscale>
<asrwt>0</asrwt>
<pdfrwt beam="1">  1       21 0.83902471E-03 0.21665461E+02</pdfrwt>
<pdfrwt beam="2">  1       21 0.22871479E-01 0.21665461E+02</pdfrwt>
<totfact> 0.62329877E+07</totfact>
</mgrwt>
</event>
<event>
 4    1  0.9138221E+003  0.3249174E+02  0.7546771E-02  0.1572074E+00
         21   -1    0    0  502  501  0.00000000000E+00  0.00000000000E+00  0.16583392041E+02  0.16583392041E+02  0.00000000000E+00 0. -1.
         21   -1    0    0  503  502 -0.00000000000E+00 -0.00000000000E+00 -0.79943376382E+02  0.79943376382E+02  0.00000000000E+00 0. -1.
         21    1    1    2  503  504  0.31658555750E+02  0.73108740412E+01 -0.98985182838E+01  0.33966066826E+02  0.00000000000E+00 0. -1.
         21    1    1    2  504  501 -0.31658555750E+02 -0.73108740412E+01 -0.53461466057E+02  0.62560701597E+02  0.00000000000E+00 0. -1.
<mgrwt>
<rscale>  2 0.32491738E+02</rscale>
<asrwt>0</asrwt>
<pdfrwt beam="1">  1       21 0.25512910E-02 0.32491738E+02</pdfrwt>
<pdfrwt beam="2">  1       21 0.12298981E-01 0.32491738E+02</pdfrwt>
<totfact> 0.36613841E+07</totfact>
</mgrwt>
</event>
<event>
 4    1  0.9138221E+003  0.2094016E+02  0.7546771E-02  0.1727253E+00
         21   -1    0    0  504  501  0.00000000000E+00  0.00000000000E+00  0.98384876218E+01  0.98384876218E+01  0.00000000000E+00 0.  1.
         21   -1    0    0  501  502 -0.00000000000E+00 -0.00000000000E+00 -0.69153214844E+02  0.69153214844E+02  0.00000000000E+00 0.  1.
         21    1    1    2  503  502  0.88056885424E+01 -0.18998683940E+02 -0.53206486204E+02  0.57178845007E+02  0.00000000000E+00 0. -1.
         21    1    1    2  504  503 -0.88056885424E+01  0.18998683940E+02 -0.61082410179E+01  0.21812857458E+02  0.00000000000E+00 0. -1.
<mgrwt>
<rscale>  2 0.20940156E+02</rscale>
<asrwt>0</asrwt>
<pdfrwt beam="1">  1       21 0.15136135E-02 0.20940156E+02</pdfrwt>
<pdfrwt beam="2">  1       21 0.10638956E-01 0.20940156E+02</pdfrwt>
<totfact> 0.93751196E+07</totfact>
</mgrwt>
</event>
<event>
 4    1  0.9138221E+003  0.2166979E+02  0.7546771E-02  0.1714026E+00
         21   -1    0    0  504  501  0.00000000000E+00  0.00000000000E+00  0.20574704927E+02  0.20574704927E+02  0.00000000000E+00 0.  1.
         21   -1    0    0  501  502 -0.00000000000E+00 -0.00000000000E+00 -0.37225887959E+02  0.37225887959E+02  0.00000000000E+00 0.  1.
         21    1    1    2  503  502  0.21614051754E+02 -0.15532390758E+01  0.96507844157E+01  0.23721665724E+02  0.00000000000E+00 0.  1.
         21    1    1    2  504  503 -0.21614051754E+02  0.15532390758E+01 -0.26301967448E+02  0.34078927162E+02  0.00000000000E+00 0.  1.
<mgrwt>
<rscale>  2 0.21669790E+02</rscale>
<asrwt>0</asrwt>
<pdfrwt beam="1">  1       21 0.31653392E-02 0.21669790E+02</pdfrwt>
<pdfrwt beam="2">  1       21 0.57270597E-02 0.21669790E+02</pdfrwt>
<totfact> 0.83451609E+07</totfact>
</mgrwt>
</event>
<event>
 4    1  0.9138221E+003  0.2683154E+02  0.7546771E-02  0.1636008E+00
         21   -1    0    0  504  501  0.00000000000E+00  0.00000000000E+00  0.45416754280E+02  0.45416754280E+02  0.00000000000E+00 0. -1.
         21   -1    0    0  501  502 -0.00000000000E+00 -0.00000000000E+00 -0.24122116361E+02  0.24122116361E+02  0.00000000000E+00 0. -1.
         21    1    1    2  503  502 -0.16092486523E+01 -0.26783236245E+02 -0.97115850367E+01  0.28535001471E+02  0.00000000000E+00 0.  1.
         21    1    1    2  504  503  0.16092486523E+01  0.26783236245E+02  0.31006222955E+02  0.41003869170E+02  0.00000000000E+00 0.  1.
<mgrwt>
<rscale>  2 0.26831538E+02</rscale>
<asrwt>0</asrwt>
<pdfrwt beam="1">  1       21 0.69871930E-02 0.26831538E+02</pdfrwt>
<pdfrwt beam="2">  1       21 0.37110948E-02 0.26831538E+02</pdfrwt>
<totfact> 0.49879793E+07</totfact>
</mgrwt>
</event>
<event>
 4    1  0.9138221E+003  0.2027363E+02  0.7546771E-02  0.1739941E+00
         21   -1    0    0  502  501  0.00000000000E+00  0.00000000000E+00  0.87082939379E+00  0.87082939379E+00  0.00000000000E+00 0.  1.
         21   -1    0    0  504  502 -0.00000000000E+00 -0.00000000000E+00 -0.52145961942E+03  0.52145961942E+03  0.00000000000E+00 0.  1.
         21    1    1    2  503  501  0.13109508996E+02  0.15464828355E+02 -0.34073725707E+03  0.34133985777E+03  0.00000000000E+00 0. -1.
         21    1    1    2  504  503 -0.13109508996E+02 -0.15464828355E+02 -0.17985153295E+03  0.18099059105E+03  0.00000000000E+00 0. -1.
<mgrwt>
<rscale>  2 0.20273632E+02</rscale>
<asrwt>0</asrwt>
<pdfrwt beam="1">  1       21 0.13397340E-03 0.20273632E+02</pdfrwt>
<pdfrwt beam="2">  1       21 0.80224770E-01 0.20273632E+02</pdfrwt>
<totfact> 0.81315158E+07</totfact>
</mgrwt>
</event>
<event>
 4    1  0.9138221E+003  0.2001994E+02  0.7546771E-02  0.1744932E+00
         21   -1    0    0  502  501  0.00000000000E+00  0.00000000000E+00  0.17607608891E+01  0.17607608891E+01  0.00000000000E+00 0. -1.
         21   -1    0    0  503  502 -0.00000000000E+00 -0.00000000000E+00 -0.30753412316E+03  0.30753412316E+03  0.00000000000E+00 0. -1.
         21    1    1    2  503  504 -0.18903926357E+01  0.19930490529E+02 -0.23171582297E+03  0.23257906323E+03  0.00000000000E+00 0. -1.
         21    1    1    2  504  501  0.18903926357E+01 -0.19930490529E+02 -0.74057539297E+02  0.76715820818E+02  0.00000000000E+00 0. -1.
<mgrwt>
<rscale>  2 0.20019941E+02</rscale>
<asrwt>0</asrwt>
<pdfrwt beam="1">  1       21 0.27088632E-03 0.20019941E+02</pdfrwt>
<pdfrwt beam="2">  1       21 0.47312937E-01 0.20019941E+02</pdfrwt>
<totfact> 0.84673146E+07</totfact>
</mgrwt>
</event>
<event>
 4    1  0.9138221E+003  0.2026787E+02  0.7546771E-02  0.1740053E+00
         21   -1    0    0  502  501  0.00000000000E+00  0.00000000000E+00  0.39000062237E+03  0.39000062237E+03  0.00000000000E+00 0.  1.
         21   -1    0    0  504  502 -0.00000000000E+00 -0.00000000000E+00 -0.14398070254E+01  0.14398070254E+01  0.00000000000E+00 0.  1.
         21    1    1    2  503  501  0.23520741087E+01  0.20130933083E+02  0.29568639177E+03  0.29638021020E+03  0.00000000000E+00 0. -1.
         21    1    1    2  504  503 -0.23520741087E+01 -0.20130933083E+02  0.92874423577E+02  0.95060219199E+02  0.00000000000E+00 0. -1.
<mgrwt>
<rscale>  2 0.20267874E+02</rscale>
<asrwt>0</asrwt>
<pdfrwt beam="1">  1       21 0.60000012E-01 0.20267874E+02</pdfrwt>
<pdfrwt beam="2">  1       21 0.22150908E-03 0.20267874E+02</pdfrwt>
<totfact> 0.71462558E+07</totfact>
</mgrwt>
</event>
<event>
 4    1  0.9138221E+003  0.2048999E+02  0.7546771E-02  0.1735756E+00
         21   -1    0    0  504  501  0.00000000000E+00  0.00000000000E+00  0.16879436640E+03  0.16879436640E+03  0.00000000000E+00 0. -1.
         21   -1    0    0  501  502 -0.00000000000E+00 -0.00000000000E+00 -0.27544049630E+01  0.27544049630E+01  0.00000000000E+00 0. -1.
         21    1    1    2  503  502  0.51193823676E+01 -0.19840150175E+02  0.10973141365E+03  0.11162805551E+03  0.00000000000E+00 0.  1.
         21    1    1    2  504  503 -0.51193823676E+01  0.19840150175E+02  0.56308547794E+02  0.59920715863E+02  0.00000000000E+00 0.  1.
<mgrwt>
<rscale>  2 0.20489989E+02</rscale>
<asrwt>0</asrwt>
<pdfrwt beam="1">  1       21 0.25968356E-01 0.20489989E+02</pdfrwt>
<pdfrwt beam="2">  1       21 0.42375474E-03 0.20489989E+02</pdfrwt>
<totfact> 0.13441991E+08</totfact>
</mgrwt>
</event>
<event>
 4    1  0.9138221E+003  0.3172659E+02  0.7546771E-02  0.1579752E+00
         21   -1    0    0  504  501  0.00000000000E+00  0.00000000000E+00  0.18050484408E+03  0.18050484408E+03  0.00000000000E+00 0. -1.
         21   -1    0    0  501  502 -0.00000000000E+00 -0.00000000000E+00 -0.10093601180E+02  0.10093601180E+02  0.00000000000E+00 0. -1.
         21    1    1    2  503  502 -0.44760045358E+00  0.31723432005E+02  0.21452928423E+02  0.38298885392E+02  0.00000000000E+00 0. -1.
         21    1    1    2  504  503  0.44760045358E+00 -0.31723432005E+02  0.14895831448E+03  0.15229955987E+03  0.00000000000E+00 0. -1.
<mgrwt>
<rscale>  2 0.31726590E+02</rscale>
<asrwt>0</asrwt>
<pdfrwt beam="1">  1       21 0.27769974E-01 0.31726590E+02</pdfrwt>
<pdfrwt beam="2">  1       21 0.15528619E-02 0.31726590E+02</pdfrwt>
<totfact> 0.18811983E+07</totfact>
</mgrwt>
</event>
<event>
 4    1  0.9138221E+003  0.3228903E+02  0.7546771E-02  0.1574083E+00
         21   -1    0    0  502  501  0.00000000000E+00  0.00000000000E+00  0.33136744863E+02  0.33136744863E+02  0.00000000000E+00 0.  1.
         21   -1    0    0  503  502 -0.00000000000E+00 -0.00000000000E+00 -0.37684752757E+02  0.37684752757E+02  0.00000000000E+00 0.  1.
         21    1    1    2  503  504 -0.69682925093E+01 -0.31528151990E+02 -0.16662274041E+02  0.36334733309E+02  0.00000000000E+00 0.  1.
         21    1    1    2  504  501  0.69682925093E+01  0.31528151990E+02  0.12114266147E+02  0.34486764312E+02  0.00000000000E+00 0.  1.
<mgrwt>
<rscale>  2 0.32289030E+02</rscale>
<asrwt>0</asrwt>
<pdfrwt beam="1">  1       21 0.50979608E-02 0.32289030E+02</pdfrwt>
<pdfrwt beam="2">  1       21 0.57976542E-02 0.32289030E+02</pdfrwt>
<totfact> 0.42411205E+07</totfact>
</mgrwt>
</event>
<event>
 4    1  0.9138221E+003  0.2719461E+02  0.7546771E-02  0.1631344E+00
         21   -1    0    0  504  501  0.00000000000E+00  0.00000000000E+00  0.16410920594E+01  0.16410920594E+01  0.00000000000E+00 0. -1.
         21   -1    0    0  501  502 -0.00000000000E+00 -0.00000000000E+00 -0.57873898603E+03  0.57873898603E+03  0.00000000000E+00 0. -1.
         21    1    1    2  503  502  0.40179533352E+00  0.27191643346E+02 -0.42507282780E+03  0.42594184561E+03  0.00000000000E+00 0.  1.
         21    1    1    2  504  503 -0.40179533352E+00 -0.27191643346E+02 -0.15202506618E+03  0.15443823249E+03  0.00000000000E+00 0.  1.
<mgrwt>
<rscale>  2 0.27194612E+02</rscale>
<asrwt>0</asrwt>
<pdfrwt beam="1">  1       21 0.25247536E-03 0.27194612E+02</pdfrwt>
<pdfrwt beam="2">  1       21 0.89036889E-01 0.27194612E+02</pdfrwt>
<totfact> 0.27875312E+07</totfact>
</mgrwt>
</event>
<event>
 4    1  0.9138221E+003  0.2798837E+02  0.7546771E-02  0.1621452E+00
         21   -1    0    0  502  501  0.00000000000E+00  0.00000000000E+00  0.34108795933E+02  0.34108795933E+02  0.00000000000E+00 0. -1.
         21   -1    0    0  503  502 -0.00000000000E+00 -0.00000000000E+00 -0.36578237824E+02  0.36578237824E+02  0.00000000000E+00 0. -1.
         21    1    1    2  503  504  0.36026967555E+01  0.27755529933E+02 -0.22795289523E+02  0.36096732404E+02  0.00000000000E+00 0.  1.
         21    1    1    2  504  501 -0.36026967555E+01 -0.27755529933E+02  0.20325847632E+02  0.34590301354E+02  0.00000000000E+00 0.  1.
<mgrwt>
<rscale>  2 0.27988370E+02</rscale>
<asrwt>0</asrwt>
<pdfrwt beam="1">  1       21 0.52475071E-02 0.27988370E+02</pdfrwt>
<pdfrwt beam="2">  1       21 0.56274212E-02 0.27988370E+02</pdfrwt>
<totfact> 0.41191643E+07</totfact>
</mgrwt>
</event>
<event>
 4    1  0.9138221E+003  0.2753497E+02  0.7546771E-02  0.1627052E+00
         21   -1    0    0  504  501  0.00000000000E+00  0.00000000000E+00  0.68178617325E+03  0.68178617325E+03  0.00000000000E+00 0. -1.
         21   -1    0    0  501  502 -0.00000000000E+00 -0.00000000000E+00 -0.15086771718E+01  0.15086771718E+01  0.00000000000E+00 0. -1.
         21    1    1    2  503  502 -0.25890617441E+02 -0.93728593353E+01  0.16496224934E+03  0.16724448652E+03  0.00000000000E+00 0. -1.
         21    1    1    2  504  503  0.25890617441E+02  0.93728593353E+01  0.51531524674E+03  0.51605036391E+03  0.00000000000E+00 0. -1.
<mgrwt>
<rscale>  2 0.27534970E+02</rscale>
<asrwt>0</asrwt>
<pdfrwt beam="1">  1       21 0.10488993E+00 0.27534970E+02</pdfrwt>
<pdfrwt beam="2">  1       21 0.23210472E-03 0.27534970E+02</pdfrwt>
<totfact> 0.22058031E+07</totfact>
</mgrwt>
</event>
<event>
 4    1  0.9138221E+003  0.2119653E+02  0.7546771E-02  0.1722530E+00
         21   -1    0    0  502  501  0.00000000000E+00  0.00000000000E+00  0.40065886447E+01  0.40065886447E+01  0.00000000000E+00 0.  1.
         21   -1    0    0  504  502 -0.00000000000E+00 -0.00000000000E+00 -0.13270787306E+03  0.13270787306E+03  0.00000000000E+00 0.  1.
         21    1    1    2  503  501  0.33123120927E+01  0.20936127327E+02 -0.91262684051E+02  0.93691890465E+02  0.00000000000E+00 0. -1.
         21    1    1    2  504  503 -0.33123120927E+01 -0.20936127327E+02 -0.37438600369E+02  0.43022571244E+02  0.00000000000E+00 0. -1.
<mgrwt>
<rscale>  2 0.21196529E+02</rscale>
<asrwt>0</asrwt>
<pdfrwt beam="1">  1       21 0.61639827E-03 0.21196529E+02</pdfrwt>
<pdfrwt beam="2">  1       21 0.20416595E-01 0.21196529E+02</pdfrwt>
<totfact> 0.11948997E+08</totfact>
</mgrwt>
</event>
<event>
 4    1  0.9138221E+003  0.2040815E+02  0.7546771E-02  0.1737331E+00
         21   -1    0    0  502  501  0.00000000000E+00  0.00000000000E+00  0.11336393848E+02  0.11336393848E+02  0.00000000000E+00 0. -1.
         21   -1    0    0  504  502 -0.00000000000E+00 -0.00000000000E+00 -0.55977924013E+02  0.55977924013E+02  0.00000000000E+00 0. -1.
         21    1    1    2  503  501  0.60449008356E+00  0.20399192785E+02 -0.25895073884E+01  0.20571777343E+02  0.00000000000E+00 0. -1.
         21    1    1    2  504  503 -0.60449008356E+00 -0.20399192785E+02 -0.42052022776E+02  0.46742540518E+02  0.00000000000E+00 0. -1.
<mgrwt>
<rscale>  2 0.20408147E+02</rscale>
<asrwt>0</asrwt>
<pdfrwt beam="1">  1       21 0.17440606E-02 0.20408147E+02</pdfrwt>
<pdfrwt beam="2">  1       21 0.86119882E-02 0.20408147E+02</pdfrwt>
<totfact> 0.10618245E+08</totfact>
</mgrwt>
</event>
<event>
 4    1  0.9138221E+003  0.2306521E+02  0.7546771E-02  0.1690455E+00
         21   -1    0    0  504  501  0.00000000000E+00  0.00000000000E+00  0.31307106891E+02  0.31307106891E+02  0.00000000000E+00 0. -1.
         21   -1    0    0  501  502 -0.00000000000E+00 -0.00000000000E+00 -0.33826895306E+02  0.33826895306E+02  0.00000000000E+00 0. -1.
         21    1    1    2  503  502  0.12613252430E+02  0.19310866932E+02  0.21714187694E+02  0.31678220684E+02  0.00000000000E+00 0. -1.
         21    1    1    2  504  503 -0.12613252430E+02 -0.19310866932E+02 -0.24233976108E+02  0.33455781512E+02  0.00000000000E+00 0. -1.
<mgrwt>
<rscale>  2 0.23065206E+02</rscale>
<asrwt>0</asrwt>
<pdfrwt beam="1">  1       21 0.48164780E-02 0.23065206E+02</pdfrwt>
<pdfrwt beam="2">  1       21 0.52041378E-02 0.23065206E+02</pdfrwt>
<totfact> 0.51113133E+07</totfact>
</mgrwt>
</event>
<event>
 4    1  0.9138221E+003  0.2441877E+02  0.7546771E-02  0.1669493E+00
         21   -1    0    0  502  501  0.00000000000E+00  0.00000000000E+00  0.40822326325E+02  0.40822326325E+02  0.00000000000E+00 0.  1.
         21   -1    0    0  504  502 -0.00000000000E+00 -0.00000000000E+00 -0.19208462373E+02  0.19208462373E+02  0.00000000000E+00 0.  1.
         21    1    1    2  503  501 -0.24369174614E+02  0.15555660002E+01 -0.38844731443E+01  0.24725808148E+02  0.00000000000E+00 0. -1.
         21    1    1    2  504  503  0.24369174614E+02 -0.15555660002E+01  0.25498337096E+02  0.35304980550E+02  0.00000000000E+00 0. -1.
<mgrwt>
<rscale>  2 0.24418773E+02</rscale>
<asrwt>0</asrwt>
<pdfrwt beam="1">  1       21 0.62803579E-02 0.24418773E+02</pdfrwt>
<pdfrwt beam="2">  1       21 0.29551481E-02 0.24418773E+02</pdfrwt>
<totfact> 0.82830573E+07</totfact>
</mgrwt>
</event>
<event>
 4    1  0.9138221E+003  0.3527337E+02  0.7546771E-02  0.1546186E+00
         21   -1    0    0  502  501  0.00000000000E+00  0.00000000000E+00  0.12247389845E+02  0.12247389845E+02  0.00000000000E+00 0.  1.
         21   -1    0    0  504  502 -0.00000000000E+00 -0.00000000000E+00 -0.11667439869E+03  0.11667439869E+03  0.00000000000E+00 0.  1.
         21    1    1    2  503  501 -0.27495707061E+02 -0.22095167684E+02 -0.75391447067E+02  0.83235092555E+02  0.00000000000E+00 0.  1.
         21    1    1    2  504  503  0.27495707061E+02  0.22095167684E+02 -0.29035561778E+02  0.45686695980E+02  0.00000000000E+00 0.  1.
<mgrwt>
<rscale>  2 0.35273366E+02</rscale>
<asrwt>0</asrwt>
<pdfrwt beam="1">  1       21 0.18842138E-02 0.35273366E+02</pdfrwt>
<pdfrwt beam="2">  1       21 0.17949908E-01 0.35273366E+02</pdfrwt>
<totfact> 0.31062964E+07</totfact>
</mgrwt>
</event>
<event>
 4    1  0.9138221E+003  0.3410681E+02  0.7546771E-02  0.1556678E+00
         21   -1    0    0  504  501  0.00000000000E+00  0.00000000000E+00  0.77781620124E+02  0.77781620124E+02  0.00000000000E+00 0. -1.
         21   -1    0    0  501  502 -0.00000000000E+00 -0.00000000000E+00 -0.82069543228E+02  0.82069543228E+02  0.00000000000E+00 0. -1.
         21    1    1    2  503  502 -0.33777980970E+02 -0.47246780669E+01  0.70133188263E+02  0.77986785273E+02  0.00000000000E+00 0.  1.
         21    1    1    2  504  503  0.33777980970E+02  0.47246780669E+01 -0.74421111367E+02  0.81864378079E+02  0.00000000000E+00 0.  1.
<mgrwt>
<rscale>  2 0.34106811E+02</rscale>
<asrwt>0</asrwt>
<pdfrwt beam="1">  1       21 0.11966403E-01 0.34106811E+02</pdfrwt>
<pdfrwt beam="2">  1       21 0.12626083E-01 0.34106811E+02</pdfrwt>
<totfact> 0.28586993E+06</totfact>
</mgrwt>
</event>
<event>
 4    1  0.9138221E+003  0.5008566E+02  0.7546771E-02  0.1444880E+00
         21   -1    0    0  502  501  0.00000000000E+00  0.00000000000E+00  0.26899338375E+03  0.26899338375E+03  0.00000000000E+00 0.  1.
         21   -1    0    0  504  502 -0.00000000000E+00 -0.00000000000E+00 -0.17168270822E+02  0.17168270822E+02  0.00000000000E+00 0.  1.
         21    1    1    2  503  501  0.48052641042E+01 -0.49854617079E+02  0.22261671374E+03  0.22818145113E+03  0.00000000000E+00 0. -1.
         21    1    1    2  504  503 -0.48052641042E+01  0.49854617079E+02  0.29208399191E+02  0.57980203436E+02  0.00000000000E+00 0. -1.
<mgrwt>
<rscale>  2 0.50085661E+02</rscale>
<asrwt>0</asrwt>
<pdfrwt beam="1">  1       21 0.41383594E-01 0.50085661E+02</pdfrwt>
<pdfrwt beam="2">  1       21 0.26412726E-02 0.50085661E+02</pdfrwt>
<totfact> 0.40920920E+06</totfact>
</mgrwt>
</event>
<event>
 4    1  0.9138221E+003  0.2783393E+02  0.7546771E-02  0.1623345E+00
         21   -1    0    0  502  501  0.00000000000E+00  0.00000000000E+00  0.23484990826E+02  0.23484990826E+02  0.00000000000E+00 0.  1.
         21   -1    0    0  504  502 -0.00000000000E+00 -0.00000000000E+00 -0.63245033562E+02  0.63245033562E+02  0.00000000000E+00 0.  1.
         21    1    1    2  503  501  0.20991571683E+02  0.18277893185E+02  0.10114230357E+02  0.29614609852E+02  0.00000000000E+00 0. -1.
         21    1    1    2  504  503 -0.20991571683E+02 -0.18277893185E+02 -0.49874273094E+02  0.57115414536E+02  0.00000000000E+00 0. -1.
<mgrwt>
<rscale>  2 0.27833926E+02</rscale>
<asrwt>0</asrwt>
<pdfrwt beam="1">  1       21 0.36130756E-02 0.27833926E+02</pdfrwt>
<pdfrwt beam="2">  1       21 0.97300050E-02 0.27833926E+02</pdfrwt>
<totfact> 0.30420475E+07</totfact>
</mgrwt>
</event>
<event>
 4    1  0.9138221E+003  0.2900424E+02  0.7546771E-02  0.1609364E+00
         21   -1    0    0  504  501  0.00000000000E+00  0.00000000000E+00  0.16373783824E+03  0.16373783824E+03  0.00000000000E+00 0. -1.
         21   -1    0    0  501  502 -0.00000000000E+00 -0.00000000000E+00 -0.10807636218E+02  0.10807636218E+02  0.00000000000E+00 0. -1.
         21    1    1    2  503  502  0.26967126793E+02 -0.10678006814E+02  0.13967717178E+03  0.14265678418E+03  0.00000000000E+00 0.  1.
         21    1    1    2  504  503 -0.26967126793E+02  0.10678006814E+02  0.13253030246E+02  0.31888690278E+02  0.00000000000E+00 0.  1.
<mgrwt>
<rscale>  2 0.29004237E+02</rscale>
<asrwt>0</asrwt>
<pdfrwt beam="1">  1       21 0.25190435E-01 0.29004237E+02</pdfrwt>
<pdfrwt beam="2">  1       21 0.16627134E-02 0.29004237E+02</pdfrwt>
<totfact> 0.19891960E+07</totfact>
</mgrwt>
</event>
<event>
 4    1  0.9138221E+003  0.2609523E+02  0.7546771E-02  0.1645751E+00
         21   -1    0    0  502  501  0.00000000000E+00  0.00000000000E+00  0.34703691210E+02  0.34703691210E+02  0.00000000000E+00 0. -1.
         21   -1    0    0  503  502 -0.00000000000E+00 -0.00000000000E+00 -0.25234493186E+02  0.25234493186E+02  0.00000000000E+00 0. -1.
         21    1    1    2  503  504  0.18022426081E+02  0.18872028038E+02 -0.93988490051E+01  0.27736251491E+02  0.00000000000E+00 0.  1.
         21    1    1    2  504  501 -0.18022426081E+02 -0.18872028038E+02  0.18868047030E+02  0.32201932905E+02  0.00000000000E+00 0.  1.
<mgrwt>
<rscale>  2 0.26095235E+02</rscale>
<asrwt>0</asrwt>
<pdfrwt beam="1">  1       21 0.53390294E-02 0.26095235E+02</pdfrwt>
<pdfrwt beam="2">  1       21 0.38822297E-02 0.26095235E+02</pdfrwt>
<totfact> 0.71275448E+07</totfact>
</mgrwt>
</event>
<event>
 4    1  0.9138221E+003  0.2154562E+02  0.7546771E-02  0.1716231E+00
         21   -1    0    0  504  501  0.00000000000E+00  0.00000000000E+00  0.30390008744E+02  0.30390008744E+02  0.00000000000E+00 0.  1.
         21   -1    0    0  501  502 -0.00000000000E+00 -0.00000000000E+00 -0.33337488880E+02  0.33337488880E+02  0.00000000000E+00 0.  1.
         21    1    1    2  503  502 -0.25132221504E+01 -0.21398536705E+02  0.21980250267E+02  0.30778971076E+02  0.00000000000E+00 0.  1.
         21    1    1    2  504  503  0.25132221504E+01  0.21398536705E+02 -0.24927730403E+02  0.32948526549E+02  0.00000000000E+00 0.  1.
<mgrwt>
<rscale>  2 0.21545618E+02</rscale>
<asrwt>0</asrwt>
<pdfrwt beam="1">  1       21 0.46753860E-02 0.21545618E+02</pdfrwt>
<pdfrwt beam="2">  1       21 0.51288444E-02 0.21545618E+02</pdfrwt>
<totfact> 0.53858526E+07</totfact>
</mgrwt>
</event>
<event>
 4    1  0.9138221E+003  0.5981986E+02  0.7546771E-02  0.1398589E+00
         21   -1    0    0  502  501  0.00000000000E+00  0.00000000000E+00  0.28484270333E+02  0.28484270333E+02  0.00000000000E+00 0.  1.
         21   -1    0    0  504  502 -0.00000000000E+00 -0.00000000000E+00 -0.14691446190E+03  0.14691446190E+03  0.00000000000E+00 0.  1.
         21    1    1    2  503  501  0.59588196346E+02  0.52595213471E+01 -0.25832650717E+02  0.65159355058E+02  0.00000000000E+00 0. -1.
         21    1    1    2  504  503 -0.59588196346E+02 -0.52595213471E+01 -0.92597540853E+02  0.11023937718E+03  0.00000000000E+00 0. -1.
<mgrwt>
<rscale>  2 0.59819860E+02</rscale>
<asrwt>0</asrwt>
<pdfrwt beam="1">  1       21 0.43821954E-02 0.59819860E+02</pdfrwt>
<pdfrwt beam="2">  1       21 0.22602225E-01 0.59819860E+02</pdfrwt>
<totfact> 0.57485211E+06</totfact>
</mgrwt>
</event>
<event>
 4    1  0.9138221E+003  0.2210443E+02  0.7546771E-02  0.1706452E+00
         21   -1    0    0  502  501  0.00000000000E+00  0.00000000000E+00  0.98092495841E+03  0.98092495841E+03  0.00000000000E+00 0.  1.
         21   -1    0    0  503  502 -0.00000000000E+00 -0.00000000000E+00 -0.26810556111E+01  0.26810556111E+01  0.00000000000E+00 0.  1.
         21    1    1    2  503  504  0.83516681234E+01 -0.20465957739E+02  0.45349841230E+02  0.50450112846E+02  0.00000000000E+00 0.  1.
         21    1    1    2  504  501 -0.83516681234E+01  0.20465957739E+02  0.93289406157E+03  0.93315590118E+03  0.00000000000E+00 0.  1.
<mgrwt>
<rscale>  2 0.22104429E+02</rscale>
<asrwt>0</asrwt>
<pdfrwt beam="1">  1       21 0.15091125E+00 0.22104429E+02</pdfrwt>
<pdfrwt beam="2">  1       21 0.41247088E-03 0.22104429E+02</pdfrwt>
<totfact> 0.40010331E+06</totfact>
</mgrwt>
</event>
<event>
 4    1  0.9138221E+003  0.2374334E+02  0.7546771E-02  0.1679737E+00
         21   -1    0    0  504  501  0.00000000000E+00  0.00000000000E+00  0.38448073861E+01  0.38448073861E+01  0.00000000000E+00 0. -1.
         21   -1    0    0  501  502 -0.00000000000E+00 -0.00000000000E+00 -0.28990948978E+03  0.28990948978E+03  0.00000000000E+00 0. -1.
         21    1    1    2  503  502  0.16418505626E+02  0.17151646587E+02 -0.39774736553E+02  0.46322521256E+02  0.00000000000E+00 0. -1.
         21    1    1    2  504  503 -0.16418505626E+02 -0.17151646587E+02 -0.24628994584E+03  0.24743177591E+03  0.00000000000E+00 0. -1.
<mgrwt>
<rscale>  2 0.23743342E+02</rscale>
<asrwt>0</asrwt>
<pdfrwt beam="1">  1       21 0.59150897E-03 0.23743342E+02</pdfrwt>
<pdfrwt beam="2">  1       21 0.44601449E-01 0.23743342E+02</pdfrwt>
<totfact> 0.31496036E+07</totfact>
</mgrwt>
</event>
<event>
 4    1  0.9138221E+003  0.2426599E+02  0.7546771E-02  0.1671774E+00
         21   -1    0    0  502  501  0.00000000000E+00  0.00000000000E+00  0.50359583121E+02  0.50359583121E+02  0.00000000000E+00 0.  1.
         21   -1    0    0  504  502 -0.00000000000E+00 -0.00000000000E+00 -0.23664364600E+02  0.23664364600E+02  0.00000000000E+00 0.  1.
         21    1    1    2  503  501 -0.18287686005E+01 -0.24196976445E+02  0.39672865662E+02  0.46505637653E+02  0.00000000000E+00 0. -1.
         21    1    1    2  504  503  0.18287686005E+01  0.24196976445E+02 -0.12977647141E+02  0.27518310068E+02  0.00000000000E+00 0. -1.
<mgrwt>
<rscale>  2 0.24265986E+02</rscale>
<asrwt>0</asrwt>
<pdfrwt beam="1">  1       21 0.77476281E-02 0.24265986E+02</pdfrwt>
<pdfrwt beam="2">  1       21 0.36406715E-02 0.24265986E+02</pdfrwt>
<totfact> 0.42419331E+07</totfact>
</mgrwt>
</event>
<event>
 4    1  0.9138221E+003  0.2061975E+02  0.7546771E-02  0.1733277E+00
         21   -1    0    0  502  501  0.00000000000E+00  0.00000000000E+00  0.50249684382E+02  0.50249684382E+02  0.00000000000E+00 0.  1.
         21   -1    0    0  503  502 -0.00000000000E+00 -0.00000000000E+00 -0.97218864503E+01  0.97218864503E+01  0.00000000000E+00 0.  1.
         21    1    1    2  503  504  0.19823446435E+02 -0.56749503762E+01  0.31061783813E+02  0.37282817812E+02  0.00000000000E+00 0. -1.
         21    1    1    2  504  501 -0.19823446435E+02  0.56749503762E+01  0.94660141186E+01  0.22688753021E+02  0.00000000000E+00 0. -1.
<mgrwt>
<rscale>  2 0.20619750E+02</rscale>
<asrwt>0</asrwt>
<pdfrwt beam="1">  1       21 0.77307205E-02 0.20619750E+02</pdfrwt>
<pdfrwt beam="2">  1       21 0.14956749E-02 0.20619750E+02</pdfrwt>
<totfact> 0.16027198E+08</totfact>
</mgrwt>
</event>
<event>
 4    1  0.9138221E+003  0.2786152E+02  0.7546771E-02  0.1623005E+00
         21   -1    0    0  504  501  0.00000000000E+00  0.00000000000E+00  0.21167412015E+02  0.21167412015E+02  0.00000000000E+00 0. -1.
         21   -1    0    0  501  502 -0.00000000000E+00 -0.00000000000E+00 -0.47967129402E+02  0.47967129402E+02  0.00000000000E+00 0. -1.
         21    1    1    2  503  502 -0.25783194127E+01 -0.27741961631E+02  0.33737758417E+01  0.28065041057E+02  0.00000000000E+00 0. -1.
         21    1    1    2  504  503  0.25783194127E+01  0.27741961631E+02 -0.30173493229E+02  0.41069500359E+02  0.00000000000E+00 0. -1.
<mgrwt>
<rscale>  2 0.27861518E+02</rscale>
<asrwt>0</asrwt>
<pdfrwt beam="1">  1       21 0.32565250E-02 0.27861518E+02</pdfrwt>
<pdfrwt beam="2">  1       21 0.73795582E-02 0.27861518E+02</pdfrwt>
<totfact> 0.56565155E+07</totfact>
</mgrwt>
</event>
<event>
 4    1  0.9138221E+003  0.2174006E+02  0.7546771E-02  0.1712787E+00
         21   -1    0    0  502  501  0.00000000000E+00  0.00000000000E+00  0.48175255801E+03  0.48175255801E+03  0.00000000000E+00 0.  1.
         21   -1    0    0  504  502 -0.00000000000E+00 -0.00000000000E+00 -0.17665888377E+01  0.17665888377E+01  0.00000000000E+00 0.  1.
         21    1    1    2  503  501  0.13532214286E+02  0.17014974477E+02  0.78781547349E+02  0.81726142590E+02  0.00000000000E+00 0.  1.
         21    1    1    2  504  503 -0.13532214286E+02 -0.17014974477E+02  0.40120442183E+03  0.40179300426E+03  0.00000000000E+00 0.  1.
<mgrwt>
<rscale>  2 0.21740059E+02</rscale>
<asrwt>0</asrwt>
<pdfrwt beam="1">  1       21 0.74115674E-01 0.21740059E+02</pdfrwt>
<pdfrwt beam="2">  1       21 0.27178328E-03 0.21740059E+02</pdfrwt>
<totfact> 0.35238999E+07</totfact>
</mgrwt>
</event>
<event>
 4    1  0.9138221E+003  0.3832072E+02  0.7546771E-02  0.1520946E+00
         21   -1    0    0  504  501  0.00000000000E+00  0.00000000000E+00  0.34676520948E+02  0.34676520948E+02  0.00000000000E+00 0.  1.
         21   -1    0    0  501  502 -0.00000000000E+00 -0.00000000000E+00 -0.61068613626E+02  0.61068613626E+02  0.00000000000E+00 0.  1.
         21    1    1    2  503  502  0.38807844326E+01 -0.38123705366E+02 -0.39701731551E+02  0.55178844559E+02  0.00000000000E+00 0.  1.
         21    1    1    2  504  503 -0.38807844326E+01  0.38123705366E+02  0.13309638873E+02  0.40566290015E+02  0.00000000000E+00 0.  1.
<mgrwt>
<rscale>  2 0.38320718E+02</rscale>
<asrwt>0</asrwt>
<pdfrwt beam="1">  1       21 0.53348494E-02 0.38320718E+02</pdfrwt>
<pdfrwt beam="2">  1       21 0.93951712E-02 0.38320718E+02</pdfrwt>
<totfact> 0.18326316E+07</totfact>
</mgrwt>
</event>
<event>
 4    1  0.9138221E+003  0.3056390E+02  0.7546771E-02  0.1591938E+00
         21   -1    0    0  504  501  0.00000000000E+00  0.00000000000E+00  0.14350195970E+04  0.14350195970E+04  0.00000000000E+00 0.  1.
         21   -1    0    0  501  502 -0.00000000000E+00 -0.00000000000E+00 -0.11518663186E+01  0.11518663186E+01  0.00000000000E+00 0.  1.
         21    1    1    2  503  502  0.14737238435E+01 -0.30528352231E+02  0.11904665378E+04  0.11908588202E+04  0.00000000000E+00 0.  1.
         21    1    1    2  504  503 -0.14737238435E+01  0.30528352231E+02  0.24340119287E+03  0.24531264305E+03  0.00000000000E+00 0.  1.
<mgrwt>
<rscale>  2 0.30563903E+02</rscale>
<asrwt>0</asrwt>
<pdfrwt beam="1">  1       21 0.22077082E+00 0.30563903E+02</pdfrwt>
<pdfrwt beam="2">  1       21 0.17721135E-03 0.30563903E+02</pdfrwt>
<totfact> 0.53923900E+06</totfact>
</mgrwt>
</event>
<event>
 4    1  0.9138221E+003  0.3742216E+02  0.7546771E-02  0.1528086E+00
         21   -1    0    0  502  501  0.00000000000E+00  0.00000000000E+00  0.11594376886E+02  0.11594376886E+02  0.00000000000E+00 0. -1.
         21   -1    0    0  503  502 -0.00000000000E+00 -0.00000000000E+00 -0.13461020719E+03  0.13461020719E+03  0.00000000000E+00 0. -1.
         21    1    1    2  503  504 -0.19097289179E+02  0.32182473661E+02 -0.38079674779E+02  0.53389883838E+02  0.00000000000E+00 0. -1.
         21    1    1    2  504  501  0.19097289179E+02 -0.32182473661E+02 -0.84936155530E+02  0.92814700242E+02  0.00000000000E+00 0. -1.
<mgrwt>
<rscale>  2 0.37422160E+02</rscale>
<asrwt>0</asrwt>
<pdfrwt beam="1">  1       21 0.17837502E-02 0.37422160E+02</pdfrwt>
<pdfrwt beam="2">  1       21 0.20709263E-01 0.37422160E+02</pdfrwt>
<totfact> 0.26528005E+07</totfact>
</mgrwt>
</event>
<event>
 4    1  0.9138221E+003  0.2580781E+02  0.7546771E-02  0.1649663E+00
         21   -1    0    0  503  501  0.00000000000E+00  0.00000000000E+00  0.13373970042E+03  0.13373970042E+03  0.00000000000E+00 0. -1.
         21   -1    0    0  501  502 -0.00000000000E+00 -0.00000000000E+00 -0.13931281564E+02  0.13931281564E+02  0.00000000000E+00 0. -1.
         21    1    1    2  503  504 -0.25577043804E+02 -0.34435418620E+01  0.11908880915E+03  0.12185313954E+03  0.00000000000E+00 0. -1.
         21    1    1    2  504  502  0.25577043804E+02  0.34435418620E+01  0.71960970313E+00  0.25817842443E+02  0.00000000000E+00 0. -1.
<mgrwt>
<rscale>  2 0.25807812E+02</rscale>
<asrwt>0</asrwt>
<pdfrwt beam="1">  1       21 0.20575338E-01 0.25807812E+02</pdfrwt>
<pdfrwt beam="2">  1       21 0.21432742E-02 0.25807812E+02</pdfrwt>
<totfact> 0.18851024E+07</totfact>
</mgrwt>
</event>
<event>
 4    1  0.9138221E+003  0.3523560E+02  0.7546771E-02  0.1546518E+00
         21   -1    0    0  503  501  0.00000000000E+00  0.00000000000E+00  0.94474513124E+02  0.94474513124E+02  0.00000000000E+00 0. -1.
         21   -1    0    0  501  502 -0.00000000000E+00 -0.00000000000E+00 -0.14128191957E+02  0.14128191957E+02  0.00000000000E+00 0. -1.
         21    1    1    2  503  504 -0.33319623070E+02  0.11460823885E+02  0.54522524010E+02  0.64917281136E+02  0.00000000000E+00 0. -1.
         21    1    1    2  504  502  0.33319623070E+02 -0.11460823885E+02  0.25823797157E+02  0.43685423945E+02  0.00000000000E+00 0. -1.
<mgrwt>
<rscale>  2 0.35235604E+02</rscale>
<asrwt>0</asrwt>
<pdfrwt beam="1">  1       21 0.14534540E-01 0.35235604E+02</pdfrwt>
<pdfrwt beam="2">  1       21 0.21735681E-02 0.35235604E+02</pdfrwt>
<totfact> 0.35907120E+07</totfact>
</mgrwt>
</event>
<event>
 4    1  0.9138221E+003  0.5031587E+02  0.7546771E-02  0.1443645E+00
         21   -1    0    0  503  501  0.00000000000E+00  0.00000000000E+00  0.11387783037E+02  0.11387783037E+02  0.00000000000E+00 0.  1.
         21   -1    0    0  501  502 -0.00000000000E+00 -0.00000000000E+00 -0.32518613758E+03  0.32518613758E+03  0.00000000000E+00 0.  1.
         21    1    1    2  503  504  0.39870090017E+02  0.30693043652E+02 -0.62247351157E+02  0.80040113272E+02  0.00000000000E+00 0.  1.
         21    1    1    2  504  502 -0.39870090017E+02 -0.30693043652E+02 -0.25155100339E+03  0.25653380735E+03  0.00000000000E+00 0.  1.
<mgrwt>
<rscale>  2 0.50315872E+02</rscale>
<asrwt>0</asrwt>
<pdfrwt beam="1">  1       21 0.17519669E-02 0.50315872E+02</pdfrwt>
<pdfrwt beam="2">  1       21 0.50028630E-01 0.50315872E+02</pdfrwt>
<totfact> 0.53791209E+06</totfact>
</mgrwt>
</event>
<event>
 4    1  0.9138221E+003  0.3184715E+02  0.7546771E-02  0.1578525E+00
         21   -1    0    0  502  501  0.00000000000E+00  0.00000000000E+00  0.16153397331E+03  0.16153397331E+03  0.00000000000E+00 0.  1.
         21   -1    0    0  504  502 -0.00000000000E+00 -0.00000000000E+00 -0.10783507856E+02  0.10783507856E+02  0.00000000000E+00 0.  1.
         21    1    1    2  503  501  0.21268949959E+02 -0.23703857920E+02  0.19688447086E+02  0.37441635398E+02  0.00000000000E+00 0.  1.
         21    1    1    2  504  503 -0.21268949959E+02  0.23703857920E+02  0.13106201837E+03  0.13487584576E+03  0.00000000000E+00 0.  1.
<mgrwt>
<rscale>  2 0.31847152E+02</rscale>
<asrwt>0</asrwt>
<pdfrwt beam="1">  1       21 0.24851379E-01 0.31847152E+02</pdfrwt>
<pdfrwt beam="2">  1       21 0.16590013E-02 0.31847152E+02</pdfrwt>
<totfact> 0.20800437E+07</totfact>
</mgrwt>
</event>
<event>
 4    1  0.9138221E+003  0.3619881E+02  0.7546771E-02  0.1538205E+00
         21   -1    0    0  502  501  0.00000000000E+00  0.00000000000E+00  0.11879271026E+03  0.11879271026E+03  0.00000000000E+00 0. -1.
         21   -1    0    0  503  502 -0.00000000000E+00 -0.00000000000E+00 -0.12393472586E+02  0.12393472586E+02  0.00000000000E+00 0. -1.
         21    1    1    2  503  504 -0.35794451630E+02 -0.53954696357E+01  0.74951187214E+02  0.83234814380E+02  0.00000000000E+00 0.  1.
         21    1    1    2  504  501  0.35794451630E+02  0.53954696357E+01  0.31448050461E+02  0.47951368467E+02  0.00000000000E+00 0.  1.
<mgrwt>
<rscale>  2 0.36198810E+02</rscale>
<asrwt>0</asrwt>
<pdfrwt beam="1">  1       21 0.18275801E-01 0.36198810E+02</pdfrwt>
<pdfrwt beam="2">  1       21 0.19066882E-02 0.36198810E+02</pdfrwt>
<totfact> 0.29682544E+07</totfact>
</mgrwt>
</event>
<event>
 4    1  0.9138221E+003  0.2715961E+02  0.7546771E-02  0.1631789E+00
         21   -1    0    0  504  501  0.00000000000E+00  0.00000000000E+00  0.31230549330E+03  0.31230549330E+03  0.00000000000E+00 0. -1.
         21   -1    0    0  501  502 -0.00000000000E+00 -0.00000000000E+00 -0.27697331094E+01  0.27697331094E+01  0.00000000000E+00 0. -1.
         21    1    1    2  503  502 -0.23328347136E+02  0.13908013649E+02  0.21521686537E+03  0.21692382019E+03  0.00000000000E+00 0.  1.
         21    1    1    2  504  503  0.23328347136E+02 -0.13908013649E+02  0.94318894818E+02  0.98151406222E+02  0.00000000000E+00 0.  1.
<mgrwt>
<rscale>  2 0.27159614E+02</rscale>
<asrwt>0</asrwt>
<pdfrwt beam="1">  1       21 0.48046971E-01 0.27159614E+02</pdfrwt>
<pdfrwt beam="2">  1       21 0.42611303E-03 0.27159614E+02</pdfrwt>
<totfact> 0.45614152E+07</totfact>
</mgrwt>
</event>
<event>
 4    1  0.9138221E+003  0.2342732E+02  0.7546771E-02  0.1684676E+00
         21   -1    0    0  502  501  0.00000000000E+00  0.00000000000E+00  0.10884918072E+04  0.10884918072E+04  0.00000000000E+00 0.  1.
         21   -1    0    0  504  502 -0.00000000000E+00 -0.00000000000E+00 -0.14186785993E+01  0.14186785993E+01  0.00000000000E+00 0.  1.
         21    1    1    2  503  501  0.16999963974E+02 -0.16119572026E+02  0.98105951788E+03  0.98133919569E+03  0.00000000000E+00 0. -1.
         21    1    1    2  504  503 -0.16999963974E+02  0.16119572026E+02  0.10601361068E+03  0.10857129007E+03  0.00000000000E+00 0. -1.
<mgrwt>
<rscale>  2 0.23427321E+02</rscale>
<asrwt>0</asrwt>
<pdfrwt beam="1">  1       21 0.16745961E+00 0.23427321E+02</pdfrwt>
<pdfrwt beam="2">  1       21 0.21825912E-03 0.23427321E+02</pdfrwt>
<totfact> 0.79312331E+06</totfact>
</mgrwt>
</event>
<event>
 4    1  0.9138221E+003  0.6245525E+02  0.7546771E-02  0.1387808E+00
         21   -1    0    0  502  501  0.00000000000E+00  0.00000000000E+00  0.63002209567E+03  0.63002209567E+03  0.00000000000E+00 0.  1.
         21   -1    0    0  504  502 -0.00000000000E+00 -0.00000000000E+00 -0.19736435978E+02  0.19736435978E+02  0.00000000000E+00 0.  1.
         21    1    1    2  503  501 -0.45386532190E+02 -0.42903619230E+02  0.57428345851E+03  0.57766958424E+03  0.00000000000E+00 0. -1.
         21    1    1    2  504  503  0.45386532190E+02  0.42903619230E+02  0.36002201184E+02  0.72088947401E+02  0.00000000000E+00 0. -1.
<mgrwt>
<rscale>  2 0.62455247E+02</rscale>
<asrwt>0</asrwt>
<pdfrwt beam="1">  1       21 0.96926461E-01 0.62455247E+02</pdfrwt>
<pdfrwt beam="2">  1       21 0.30363752E-02 0.62455247E+02</pdfrwt>
<totfact> 0.55657306E+05</totfact>
</mgrwt>
</event>
<event>
 4    1  0.9138221E+003  0.2541766E+02  0.7546771E-02  0.1655074E+00
         21   -1    0    0  502  501  0.00000000000E+00  0.00000000000E+00  0.19745182620E+02  0.19745182620E+02  0.00000000000E+00 0.  1.
         21   -1    0    0  504  502 -0.00000000000E+00 -0.00000000000E+00 -0.37733823959E+02  0.37733823959E+02  0.00000000000E+00 0.  1.
         21    1    1    2  503  501  0.25417416496E+02  0.11093823544E+00 -0.19470655507E+02  0.32018179125E+02  0.00000000000E+00 0. -1.
         21    1    1    2  504  503 -0.25417416496E+02 -0.11093823544E+00  0.14820141682E+01  0.25460827453E+02  0.00000000000E+00 0. -1.
<mgrwt>
<rscale>  2 0.25417659E+02</rscale>
<asrwt>0</asrwt>
<pdfrwt beam="1">  1       21 0.30377204E-02 0.25417659E+02</pdfrwt>
<pdfrwt beam="2">  1       21 0.58052036E-02 0.25417659E+02</pdfrwt>
<totfact> 0.91013396E+07</totfact>
</mgrwt>
</event>
<event>
 4    1  0.9138221E+003  0.3359085E+02  0.7546771E-02  0.1561482E+00
         21   -1    0    0  504  501  0.00000000000E+00  0.00000000000E+00  0.34250931096E+02  0.34250931096E+02  0.00000000000E+00 0.  1.
         21   -1    0    0  501  502 -0.00000000000E+00 -0.00000000000E+00 -0.38530020027E+02  0.38530020027E+02  0.00000000000E+00 0.  1.
         21    1    1    2  503  502  0.32968817116E+02  0.64344840407E+01 -0.15996214129E+02  0.37205165681E+02  0.00000000000E+00 0. -1.
         21    1    1    2  504  503 -0.32968817116E+02 -0.64344840407E+01  0.11717125198E+02  0.35575785442E+02  0.00000000000E+00 0. -1.
<mgrwt>
<rscale>  2 0.33590854E+02</rscale>
<asrwt>0</asrwt>
<pdfrwt beam="1">  1       21 0.52693740E-02 0.33590854E+02</pdfrwt>
<pdfrwt beam="2">  1       21 0.59276954E-02 0.33590854E+02</pdfrwt>
<totfact> 0.39096574E+07</totfact>
</mgrwt>
</event>
<event>
 4    1  0.9138221E+003  0.3224471E+02  0.7546771E-02  0.1574524E+00
         21   -1    0    0  502  501  0.00000000000E+00  0.00000000000E+00  0.73496281826E+00  0.73496281826E+00  0.00000000000E+00 0.  1.
         21   -1    0    0  503  502 -0.00000000000E+00 -0.00000000000E+00 -0.16277607177E+04  0.16277607177E+04  0.00000000000E+00 0.  1.
         21    1    1    2  503  504  0.42761381910E+01  0.31959907082E+02 -0.51889720605E+03  0.51989809719E+03  0.00000000000E+00 0. -1.
         21    1    1    2  504  501 -0.42761381910E+01 -0.31959907082E+02 -0.11081285488E+04  0.11085975833E+04  0.00000000000E+00 0. -1.
<mgrwt>
<rscale>  2 0.32244705E+02</rscale>
<asrwt>0</asrwt>
<pdfrwt beam="1">  1       21 0.11307220E-03 0.32244705E+02</pdfrwt>
<pdfrwt beam="2">  1       21 0.25042251E+00 0.32244705E+02</pdfrwt>
<totfact> 0.72370843E+06</totfact>
</mgrwt>
</event>
<event>
 4    1  0.9138221E+003  0.6191600E+02  0.7546771E-02  0.1389963E+00
         21   -1    0    0  504  501  0.00000000000E+00  0.00000000000E+00  0.57053143526E+03  0.57053143526E+03  0.00000000000E+00 0.  1.
         21   -1    0    0  501  502 -0.00000000000E+00 -0.00000000000E+00 -0.76969746151E+01  0.76969746151E+01  0.00000000000E+00 0.  1.
         21    1    1    2  503  502 -0.40805902704E+02 -0.46566821888E+02  0.17837878825E+03  0.18881891508E+03  0.00000000000E+00 0. -1.
         21    1    1    2  504  503  0.40805902704E+02  0.46566821888E+02  0.38445567240E+03  0.38940949479E+03  0.00000000000E+00 0. -1.
<mgrwt>
<rscale>  2 0.61915996E+02</rscale>
<asrwt>0</asrwt>
<pdfrwt beam="1">  1       21 0.87774034E-01 0.61915996E+02</pdfrwt>
<pdfrwt beam="2">  1       21 0.11841504E-02 0.61915996E+02</pdfrwt>
<totfact> 0.30818646E+06</totfact>
</mgrwt>
</event>
<event>
 4    1  0.9138221E+003  0.3161603E+02  0.7546771E-02  0.1580883E+00
         21   -1    0    0  502  501  0.00000000000E+00  0.00000000000E+00  0.14279301073E+02  0.14279301073E+02  0.00000000000E+00 0. -1.
         21   -1    0    0  503  502 -0.00000000000E+00 -0.00000000000E+00 -0.12013092921E+03  0.12013092921E+03  0.00000000000E+00 0. -1.
         21    1    1    2  503  504 -0.31549385498E+02  0.20517259145E+01 -0.96338938729E+02  0.10139410446E+03  0.00000000000E+00 0. -1.
         21    1    1    2  504  501  0.31549385498E+02 -0.20517259145E+01 -0.95126894118E+01  0.33016125824E+02  0.00000000000E+00 0. -1.
<mgrwt>
<rscale>  2 0.31616029E+02</rscale>
<asrwt>0</asrwt>
<pdfrwt beam="1">  1       21 0.21968156E-02 0.31616029E+02</pdfrwt>
<pdfrwt beam="2">  1       21 0.18481681E-01 0.31616029E+02</pdfrwt>
<totfact> 0.22774265E+07</totfact>
</mgrwt>
</event>
<event>
 4    1  0.9138221E+003  0.2301868E+02  0.7546771E-02  0.1691208E+00
         21   -1    0    0  504  501  0.00000000000E+00  0.00000000000E+00  0.28689705564E+03  0.28689705564E+03  0.00000000000E+00 0. -1.
         21   -1    0    0  501  502 -0.00000000000E+00 -0.00000000000E+00 -0.26083568782E+01  0.26083568782E+01  0.00000000000E+00 0. -1.
         21    1    1    2  503  502  0.21423692191E+02  0.84193160481E+01  0.22035690571E+03  0.22155591927E+03  0.00000000000E+00 0. -1.
         21    1    1    2  504  503 -0.21423692191E+02 -0.84193160481E+01  0.63931793057E+02  0.67949493252E+02  0.00000000000E+00 0. -1.
<mgrwt>
<rscale>  2 0.23018677E+02</rscale>
<asrwt>0</asrwt>
<pdfrwt beam="1">  1       21 0.44137984E-01 0.23018677E+02</pdfrwt>
<pdfrwt beam="2">  1       21 0.40128590E-03 0.23018677E+02</pdfrwt>
<totfact> 0.56536318E+07</totfact>
</mgrwt>
</event>
<event>
 4    1  0.9138221E+003  0.2451443E+02  0.7546771E-02  0.1668076E+00
         21   -1    0    0  503  501  0.00000000000E+00  0.00000000000E+00  0.33012421326E+01  0.33012421326E+01  0.00000000000E+00 0. -1.
         21   -1    0    0  501  502 -0.00000000000E+00 -0.00000000000E+00 -0.30329595671E+03  0.30329595671E+03  0.00000000000E+00 0. -1.
         21    1    1    2  503  504  0.24511039456E+02 -0.40794372651E+00 -0.24692703475E+03  0.24814092360E+03  0.00000000000E+00 0.  1.
         21    1    1    2  504  502 -0.24511039456E+02  0.40794372651E+00 -0.53067679825E+02  0.58456275243E+02  0.00000000000E+00 0.  1.
<mgrwt>
<rscale>  2 0.24514434E+02</rscale>
<asrwt>0</asrwt>
<pdfrwt beam="1">  1       21 0.50788317E-03 0.24514434E+02</pdfrwt>
<pdfrwt beam="2">  1       21 0.46660938E-01 0.24514434E+02</pdfrwt>
<totfact> 0.36444787E+07</totfact>
</mgrwt>
</event>
<event>
 4    1  0.9138221E+003  0.2477913E+02  0.7546771E-02  0.1664195E+00
         21   -1    0    0  502  501  0.00000000000E+00  0.00000000000E+00  0.20911965503E+02  0.20911965503E+02  0.00000000000E+00 0. -1.
         21   -1    0    0  503  502 -0.00000000000E+00 -0.00000000000E+00 -0.52560718308E+02  0.52560718308E+02  0.00000000000E+00 0. -1.
         21    1    1    2  503  504 -0.24710619558E+02  0.18413046001E+01 -0.40230715091E+02  0.47249503260E+02  0.00000000000E+00 0.  1.
         21    1    1    2  504  501  0.24710619558E+02 -0.18413046001E+01  0.85819622851E+01  0.26223180551E+02  0.00000000000E+00 0.  1.
<mgrwt>
<rscale>  2 0.24779127E+02</rscale>
<asrwt>0</asrwt>
<pdfrwt beam="1">  1       21 0.32172255E-02 0.24779127E+02</pdfrwt>
<pdfrwt beam="2">  1       21 0.80862642E-02 0.24779127E+02</pdfrwt>
<totfact> 0.48267746E+07</totfact>
</mgrwt>
</event>
<event>
 4    1  0.9138221E+003  0.2434049E+02  0.7546771E-02  0.1670659E+00
         21   -1    0    0  504  501  0.00000000000E+00  0.00000000000E+00  0.59553869948E+01  0.59553869948E+01  0.00000000000E+00 0.  1.
         21   -1    0    0  501  502 -0.00000000000E+00 -0.00000000000E+00 -0.43581116891E+03  0.43581116891E+03  0.00000000000E+00 0.  1.
         21    1    1    2  503  502  0.21591524523E+02  0.11236790173E+02 -0.20886078179E+02  0.32073160841E+02  0.00000000000E+00 0.  1.
         21    1    1    2  504  503 -0.21591524523E+02 -0.11236790173E+02 -0.40896970373E+03  0.40969339506E+03  0.00000000000E+00 0.  1.
<mgrwt>
<rscale>  2 0.24340489E+02</rscale>
<asrwt>0</asrwt>
<pdfrwt beam="1">  1       21 0.91621300E-03 0.24340489E+02</pdfrwt>
<pdfrwt beam="2">  1       21 0.67047900E-01 0.24340489E+02</pdfrwt>
<totfact> 0.73644050E+06</totfact>
</mgrwt>
</event>
<event>
 4    1  0.9138221E+003  0.2638989E+02  0.7546771E-02  0.1641805E+00
         21   -1    0    0  502  501  0.00000000000E+00  0.00000000000E+00  0.55239997366E+03  0.55239997366E+03  0.00000000000E+00 0. -1.
         21   -1    0    0  504  502 -0.00000000000E+00 -0.00000000000E+00 -0.44900636992E+01  0.44900636992E+01  0.00000000000E+00 0. -1.
         21    1    1    2  503  501  0.21256803703E+02 -0.15638883584E+02  0.51009506744E+03  0.51077725499E+03  0.00000000000E+00 0.  1.
         21    1    1    2  504  503 -0.21256803703E+02  0.15638883584E+02  0.37814842520E+02  0.46112782373E+02  0.00000000000E+00 0.  1.
<mgrwt>
<rscale>  2 0.26389892E+02</rscale>
<asrwt>0</asrwt>
<pdfrwt beam="1">  1       21 0.84984557E-01 0.26389892E+02</pdfrwt>
<pdfrwt beam="2">  1       21 0.69077947E-03 0.26389892E+02</pdfrwt>
<totfact> 0.69379142E+06</totfact>
</mgrwt>
</event>
<event>
 4    1  0.9138221E+003  0.2949626E+02  0.7546771E-02  0.1603725E+00
         21   -1    0    0  503  501  0.00000000000E+00  0.00000000000E+00  0.11807641488E+01  0.11807641488E+01  0.00000000000E+00 0. -1.
         21   -1    0    0  501  502 -0.00000000000E+00 -0.00000000000E+00 -0.81769172718E+03  0.81769172718E+03  0.00000000000E+00 0. -1.
         21    1    1    2  503  504 -0.72637254748E+01 -0.28587889806E+02 -0.53700563178E+03  0.53781509621E+03  0.00000000000E+00 0.  1.
         21    1    1    2  504  502  0.72637254748E+01  0.28587889806E+02 -0.27950533125E+03  0.28105739512E+03  0.00000000000E+00 0.  1.
<mgrwt>
<rscale>  2 0.29496257E+02</rscale>
<asrwt>0</asrwt>
<pdfrwt beam="1">  1       21 0.18165562E-03 0.29496257E+02</pdfrwt>
<pdfrwt beam="2">  1       21 0.12579900E+00 0.29496257E+02</pdfrwt>
<totfact> 0.21087775E+07</totfact>
</mgrwt>
</event>
<event>
 4    1  0.9138221E+003  0.2378764E+02  0.7546771E-02  0.1679052E+00
         21   -1    0    0  502  501  0.00000000000E+00  0.00000000000E+00  0.85882708205E+01  0.85882708205E+01  0.00000000000E+00 0. -1.
         21   -1    0    0  503  502 -0.00000000000E+00 -0.00000000000E+00 -0.83103658537E+02  0.83103658537E+02  0.00000000000E+00 0. -1.
         21    1    1    2  503  504 -0.11213714640E+02 -0.20978662653E+02 -0.16390169212E+02  0.28887528962E+02  0.00000000000E+00 0.  1.
         21    1    1    2  504  501  0.11213714640E+02  0.20978662653E+02 -0.58125218505E+02  0.62804400395E+02  0.00000000000E+00 0.  1.
<mgrwt>
<rscale>  2 0.23787637E+02</rscale>
<asrwt>0</asrwt>
<pdfrwt beam="1">  1       21 0.13212724E-02 0.23787637E+02</pdfrwt>
<pdfrwt beam="2">  1       21 0.12785178E-01 0.23787637E+02</pdfrwt>
<totfact> 0.87867946E+07</totfact>
</mgrwt>
</event>
<event>
 4    1  0.9138221E+003  0.2159763E+02  0.7546771E-02  0.1715305E+00
         21   -1    0    0  504  501  0.00000000000E+00  0.00000000000E+00  0.78299840189E+01  0.78299840189E+01  0.00000000000E+00 0.  1.
         21   -1    0    0  501  502 -0.00000000000E+00 -0.00000000000E+00 -0.10909587075E+03  0.10909587075E+03  0.00000000000E+00 0.  1.
         21    1    1    2  503  502 -0.19181577450E+02 -0.99259662441E+01 -0.11243654357E+02  0.24349075602E+02  0.00000000000E+00 0. -1.
         21    1    1    2  504  503  0.19181577450E+02  0.99259662441E+01 -0.90022232372E+02  0.92576779165E+02  0.00000000000E+00 0. -1.
<mgrwt>
<rscale>  2 0.21597632E+02</rscale>
<asrwt>0</asrwt>
<pdfrwt beam="1">  1       21 0.12046130E-02 0.21597632E+02</pdfrwt>
<pdfrwt beam="2">  1       21 0.16783980E-01 0.21597632E+02</pdfrwt>
<totfact> 0.61998211E+07</totfact>
</mgrwt>
</event>
<event>
 4    1  0.9138221E+003  0.2371226E+02  0.7546771E-02  0.1680218E+00
         21   -1    0    0  503  501  0.00000000000E+00  0.00000000000E+00  0.34765010090E+01  0.34765010090E+01  0.00000000000E+00 0.  1.
         21   -1    0    0  501  502 -0.00000000000E+00 -0.00000000000E+00 -0.23687696439E+03  0.23687696439E+03  0.00000000000E+00 0.  1.
         21    1    1    2  503  504  0.24642198102E+01 -0.23583867394E+02 -0.49013921401E+02  0.54448468038E+02  0.00000000000E+00 0. -1.
         21    1    1    2  504  502 -0.24642198102E+01  0.23583867394E+02 -0.18438654198E+03  0.18590499736E+03  0.00000000000E+00 0. -1.
<mgrwt>
<rscale>  2 0.23712258E+02</rscale>
<asrwt>0</asrwt>
<pdfrwt beam="1">  1       21 0.53484609E-03 0.23712258E+02</pdfrwt>
<pdfrwt beam="2">  1       21 0.36442625E-01 0.23712258E+02</pdfrwt>
<totfact> 0.53533377E+07</totfact>
</mgrwt>
</event>
<event>
 4    1  0.9138221E+003  0.2936042E+02  0.7546771E-02  0.1605268E+00
         21   -1    0    0  502  501  0.00000000000E+00  0.00000000000E+00  0.19493593603E+02  0.19493593603E+02  0.00000000000E+00 0. -1.
         21   -1    0    0  504  502 -0.00000000000E+00 -0.00000000000E+00 -0.60991634175E+02  0.60991634175E+02  0.00000000000E+00 0. -1.
         21    1    1    2  503  501 -0.20468218545E+02 -0.21049616416E+02 -0.41850863742E+02  0.51122686917E+02  0.00000000000E+00 0. -1.
         21    1    1    2  504  503  0.20468218545E+02  0.21049616416E+02  0.35282317020E+00  0.29362540862E+02  0.00000000000E+00 0. -1.
<mgrwt>
<rscale>  2 0.29360421E+02</rscale>
<asrwt>0</asrwt>
<pdfrwt beam="1">  1       21 0.29990144E-02 0.29360421E+02</pdfrwt>
<pdfrwt beam="2">  1       21 0.93833283E-02 0.29360421E+02</pdfrwt>
<totfact> 0.43853316E+07</totfact>
</mgrwt>
</event>
<event>
 4    1  0.9138221E+003  0.2260062E+02  0.7546771E-02  0.1698067E+00
         21   -1    0    0  503  501  0.00000000000E+00  0.00000000000E+00  0.31930347552E+01  0.31930347552E+01  0.00000000000E+00 0. -1.
         21   -1    0    0  501  502 -0.00000000000E+00 -0.00000000000E+00 -0.17956272749E+03  0.17956272749E+03  0.00000000000E+00 0. -1.
         21    1    1    2  503  504 -0.22417345918E+02 -0.28723904773E+01 -0.58000172242E+02  0.62247955831E+02  0.00000000000E+00 0. -1.
         21    1    1    2  504  502  0.22417345918E+02  0.28723904773E+01 -0.11836952049E+03  0.12050780641E+03  0.00000000000E+00 0. -1.
<mgrwt>
<rscale>  2 0.22600620E+02</rscale>
<asrwt>0</asrwt>
<pdfrwt beam="1">  1       21 0.49123610E-03 0.22600620E+02</pdfrwt>
<pdfrwt beam="2">  1       21 0.27625036E-01 0.22600620E+02</pdfrwt>
<totfact> 0.99573735E+07</totfact>
</mgrwt>
</event>
<event>
 4    1  0.9138221E+003  0.2108869E+02  0.7546771E-02  0.1724506E+00
         21   -1    0    0  502  501  0.00000000000E+00  0.00000000000E+00  0.16575219253E+02  0.16575219253E+02  0.00000000000E+00 0. -1.
         21   -1    0    0  504  502 -0.00000000000E+00 -0.00000000000E+00 -0.85282800440E+02  0.85282800440E+02  0.00000000000E+00 0. -1.
         21    1    1    2  503  501 -0.28781934219E+01  0.20891360904E+02 -0.76516909030E+02  0.79369832590E+02  0.00000000000E+00 0.  1.
         21    1    1    2  504  503  0.28781934219E+01 -0.20891360904E+02  0.78093278434E+01  0.22488187102E+02  0.00000000000E+00 0.  1.
<mgrwt>
<rscale>  2 0.21088693E+02</rscale>
<asrwt>0</asrwt>
<pdfrwt beam="1">  1       21 0.25500337E-02 0.21088693E+02</pdfrwt>
<pdfrwt beam="2">  1       21 0.13120431E-01 0.21088693E+02</pdfrwt>
<totfact> 0.29842970E+07</totfact>
</mgrwt>
</event>
<event>
 4    1  0.9138221E+003  0.2214706E+02  0.7546771E-02  0.1705721E+00
         21   -1    0    0  504  501  0.00000000000E+00  0.00000000000E+00  0.62270348048E+03  0.62270348048E+03  0.00000000000E+00 0. -1.
         21   -1    0    0  501  502 -0.00000000000E+00 -0.00000000000E+00 -0.21397985584E+01  0.21397985584E+01  0.00000000000E+00 0. -1.
         21    1    1    2  503  502  0.22061357186E+02  0.19464798159E+01  0.55863045608E+03  0.55906929689E+03  0.00000000000E+00 0. -1.
         21    1    1    2  504  503 -0.22061357186E+02 -0.19464798159E+01  0.61933225844E+02  0.65773982151E+02  0.00000000000E+00 0. -1.
<mgrwt>
<rscale>  2 0.22147060E+02</rscale>
<asrwt>0</asrwt>
<pdfrwt beam="1">  1       21 0.95800391E-01 0.22147060E+02</pdfrwt>
<pdfrwt beam="2">  1       21 0.32920027E-03 0.22147060E+02</pdfrwt>
<totfact> 0.15563381E+07</totfact>
</mgrwt>
</event>
<event>
 4    1  0.9138221E+003  0.2298420E+02  0.7546771E-02  0.1691766E+00
         21   -1    0    0  504  501  0.00000000000E+00  0.00000000000E+00  0.37640563684E+02  0.37640563684E+02  0.00000000000E+00 0.  1.
         21   -1    0    0  501  502 -0.00000000000E+00 -0.00000000000E+00 -0.29522796266E+02  0.29522796266E+02  0.00000000000E+00 0.  1.
         21    1    1    2  503  502  0.21201607426E+02 -0.88749868896E+01  0.28382204542E+02  0.36521542744E+02  0.00000000000E+00 0. -1.
         21    1    1    2  504  503 -0.21201607426E+02  0.88749868896E+01 -0.20264437124E+02  0.30641817206E+02  0.00000000000E+00 0. -1.
<mgrwt>
<rscale>  2 0.22984202E+02</rscale>
<asrwt>0</asrwt>
<pdfrwt beam="1">  1       21 0.57908559E-02 0.22984202E+02</pdfrwt>
<pdfrwt beam="2">  1       21 0.45419687E-02 0.22984202E+02</pdfrwt>
<totfact> 0.47248839E+07</totfact>
</mgrwt>
</event>
<event>
 4    1  0.9138221E+003  0.3069550E+02  0.7546771E-02  0.1590526E+00
         21   -1    0    0  504  501  0.00000000000E+00  0.00000000000E+00  0.76981151593E+02  0.76981151593E+02  0.00000000000E+00 0. -1.
         21   -1    0    0  501  502 -0.00000000000E+00 -0.00000000000E+00 -0.16649685063E+02  0.16649685063E+02  0.00000000000E+00 0. -1.
         21    1    1    2  503  502  0.21146251637E+01  0.30622571451E+02  0.54259936328E+02  0.62340630508E+02  0.00000000000E+00 0. -1.
         21    1    1    2  504  503 -0.21146251637E+01 -0.30622571451E+02  0.60715302023E+01  0.31290206149E+02  0.00000000000E+00 0. -1.
<mgrwt>
<rscale>  2 0.30695497E+02</rscale>
<asrwt>0</asrwt>
<pdfrwt beam="1">  1       21 0.11843254E-01 0.30695497E+02</pdfrwt>
<pdfrwt beam="2">  1       21 0.25614901E-02 0.30695497E+02</pdfrwt>
<totfact> 0.38349058E+07</totfact>
</mgrwt>
</event>
<event>
 4    1  0.9138221E+003  0.2172806E+02  0.7546771E-02  0.1712998E+00
         21   -1    0    0  503  501  0.00000000000E+00  0.00000000000E+00  0.11786402470E+03  0.11786402470E+03  0.00000000000E+00 0.  1.
         21   -1    0    0  501  502 -0.00000000000E+00 -0.00000000000E+00 -0.43896394899E+01  0.43896394899E+01  0.00000000000E+00 0.  1.
         21    1    1    2  503  504  0.15822016042E+02 -0.14892017608E+02  0.74819032310E+02  0.77910178897E+02  0.00000000000E+00 0.  1.
         21    1    1    2  504  502 -0.15822016042E+02  0.14892017608E+02  0.38655352906E+02  0.44343485297E+02  0.00000000000E+00 0.  1.
<mgrwt>
<rscale>  2 0.21728055E+02</rscale>
<asrwt>0</asrwt>
<pdfrwt beam="1">  1       21 0.18132924E-01 0.21728055E+02</pdfrwt>
<pdfrwt beam="2">  1       21 0.67532924E-03 0.21728055E+02</pdfrwt>
<totfact> 0.12913103E+08</totfact>
</mgrwt>
</event>
<event>
 4    1  0.9138221E+003  0.3033998E+02  0.7546771E-02  0.1594361E+00
         21   -1    0    0  503  501  0.00000000000E+00  0.00000000000E+00  0.29072475794E+02  0.29072475794E+02  0.00000000000E+00 0.  1.
         21   -1    0    0  501  502 -0.00000000000E+00 -0.00000000000E+00 -0.41519262860E+02  0.41519262860E+02  0.00000000000E+00 0.  1.
         21    1    1    2  503  504  0.85401534850E+01  0.29113228620E+02  0.10973931001E+02  0.32263624468E+02  0.00000000000E+00 0.  1.
         21    1    1    2  504  502 -0.85401534850E+01 -0.29113228620E+02 -0.23420718068E+02  0.38328114186E+02  0.00000000000E+00 0.  1.
<mgrwt>
<rscale>  2 0.30339979E+02</rscale>
<asrwt>0</asrwt>
<pdfrwt beam="1">  1       21 0.44726886E-02 0.30339979E+02</pdfrwt>
<pdfrwt beam="2">  1       21 0.63875789E-02 0.30339979E+02</pdfrwt>
<totfact> 0.44125148E+07</totfact>
</mgrwt>
</event>
<event>
 4    1  0.9138221E+003  0.2089122E+02  0.7546771E-02  0.1728165E+00
         21   -1    0    0  503  501  0.00000000000E+00  0.00000000000E+00  0.10892867464E+02  0.10892867464E+02  0.00000000000E+00 0. -1.
         21   -1    0    0  501  502 -0.00000000000E+00 -0.00000000000E+00 -0.48858746680E+02  0.48858746680E+02  0.00000000000E+00 0. -1.
         21    1    1    2  503  504 -0.20473118974E+02  0.41586744890E+01 -0.63096569394E+01  0.21823266133E+02  0.00000000000E+00 0.  1.
         21    1    1    2  504  502  0.20473118974E+02 -0.41586744890E+01 -0.31656222277E+02  0.37928348011E+02  0.00000000000E+00 0.  1.
<mgrwt>
<rscale>  2 0.20891222E+02</rscale>
<asrwt>0</asrwt>
<pdfrwt beam="1">  1       21 0.16758258E-02 0.20891222E+02</pdfrwt>
<pdfrwt beam="2">  1       21 0.75167301E-02 0.20891222E+02</pdfrwt>
<totfact> 0.14172395E+08</totfact>
</mgrwt>
</event>
<event>
 4    1  0.9138221E+003  0.2125788E+02  0.7546771E-02  0.1721412E+00
         21   -1    0    0  504  501  0.00000000000E+00  0.00000000000E+00  0.29907319904E+01  0.29907319904E+01  0.00000000000E+00 0. -1.
         21   -1    0    0  501  502 -0.00000000000E+00 -0.00000000000E+00 -0.19777504834E+03  0.19777504834E+03  0.00000000000E+00 0. -1.
         21    1    1    2  503  502 -0.20972694876E+02 -0.34703897481E+01 -0.14615842959E+03  0.14769625614E+03  0.00000000000E+00 0.  1.
         21    1    1    2  504  503  0.20972694876E+02  0.34703897481E+01 -0.48625886754E+02  0.53069524193E+02  0.00000000000E+00 0.  1.
<mgrwt>
<rscale>  2 0.21257882E+02</rscale>
<asrwt>0</asrwt>
<pdfrwt beam="1">  1       21 0.46011264E-03 0.21257882E+02</pdfrwt>
<pdfrwt beam="2">  1       21 0.30426929E-01 0.21257882E+02</pdfrwt>
<totfact> 0.90541140E+07</totfact>
</mgrwt>
</event>
<event>
 4    1  0.9138221E+003  0.2077700E+02  0.7546771E-02  0.1730304E+00
         21   -1    0    0  503  501  0.00000000000E+00  0.00000000000E+00  0.14278753959E+03  0.14278753959E+03  0.00000000000E+00 0.  1.
         21   -1    0    0  501  502 -0.00000000000E+00 -0.00000000000E+00 -0.81623578272E+01  0.81623578272E+01  0.00000000000E+00 0.  1.
         21    1    1    2  503  504  0.42487002350E+01  0.20337955437E+02  0.12720040280E+03  0.12888609839E+03  0.00000000000E+00 0. -1.
         21    1    1    2  504  502 -0.42487002350E+01 -0.20337955437E+02  0.74247789651E+01  0.22063799032E+02  0.00000000000E+00 0. -1.
<mgrwt>
<rscale>  2 0.20777004E+02</rscale>
<asrwt>0</asrwt>
<pdfrwt beam="1">  1       21 0.21967312E-01 0.20777004E+02</pdfrwt>
<pdfrwt beam="2">  1       21 0.12557475E-02 0.20777004E+02</pdfrwt>
<totfact> 0.36174519E+07</totfact>
</mgrwt>
</event>
<event>
 4    1  0.9138221E+003  0.2276555E+02  0.7546771E-02  0.1695339E+00
         21   -1    0    0  504  501  0.00000000000E+00  0.00000000000E+00  0.53863519091E+01  0.53863519091E+01  0.00000000000E+00 0.  1.
         21   -1    0    0  501  502 -0.00000000000E+00 -0.00000000000E+00 -0.16510772004E+03  0.16510772004E+03  0.00000000000E+00 0.  1.
         21    1    1    2  503  502 -0.37055039397E+01 -0.22461960673E+02 -0.13492484746E+03  0.13683195861E+03  0.00000000000E+00 0. -1.
         21    1    1    2  504  503  0.37055039397E+01  0.22461960673E+02 -0.24796520677E+02  0.33662113339E+02  0.00000000000E+00 0. -1.
<mgrwt>
<rscale>  2 0.22765554E+02</rscale>
<asrwt>0</asrwt>
<pdfrwt beam="1">  1       21 0.82866942E-03 0.22765554E+02</pdfrwt>
<pdfrwt beam="2">  1       21 0.25401191E-01 0.22765554E+02</pdfrwt>
<totfact> 0.53390267E+07</totfact>
</mgrwt>
</event>
<event>
 4    1  0.9138221E+003  0.2026373E+02  0.7546771E-02  0.1740134E+00
         21   -1    0    0  502  501  0.00000000000E+00  0.00000000000E+00  0.41117777699E+03  0.41117777699E+03  0.00000000000E+00 0.  1.
         21   -1    0    0  504  502 -0.00000000000E+00 -0.00000000000E+00 -0.12332699742E+01  0.12332699742E+01  0.00000000000E+00 0.  1.
         21    1    1    2  503  501 -0.13850307567E+02  0.14791473959E+02  0.11503023454E+03  0.11680142799E+03  0.00000000000E+00 0. -1.
         21    1    1    2  504  503  0.13850307567E+02 -0.14791473959E+02  0.29491427247E+03  0.29560961897E+03  0.00000000000E+00 0. -1.
<mgrwt>
<rscale>  2 0.20263729E+02</rscale>
<asrwt>0</asrwt>
<pdfrwt beam="1">  1       21 0.63258010E-01 0.20263729E+02</pdfrwt>
<pdfrwt beam="2">  1       21 0.18973417E-03 0.20263729E+02</pdfrwt>
<totfact> 0.80340146E+07</totfact>
</mgrwt>
</event>
<event>
 4    1  0.9138221E+003  0.4522109E+02  0.7546771E-02  0.1472966E+00
         21   -1    0    0  502  501  0.00000000000E+00  0.00000000000E+00  0.92333817381E+01  0.92333817381E+01  0.00000000000E+00 0.  1.
         21   -1    0    0  504  502 -0.00000000000E+00 -0.00000000000E+00 -0.24955791306E+03  0.24955791306E+03  0.00000000000E+00 0.  1.
         21    1    1    2  503  501  0.44518681864E+02 -0.79394042478E+01 -0.16357013906E+03  0.16970603280E+03  0.00000000000E+00 0.  1.
         21    1    1    2  504  503 -0.44518681864E+02  0.79394042478E+01 -0.76754392259E+02  0.89085262001E+02  0.00000000000E+00 0.  1.
<mgrwt>
<rscale>  2 0.45221092E+02</rscale>
<asrwt>0</asrwt>
<pdfrwt beam="1">  1       21 0.14205202E-02 0.45221092E+02</pdfrwt>
<pdfrwt beam="2">  1       21 0.38393526E-01 0.45221092E+02</pdfrwt>
<totfact> 0.12399497E+07</totfact>
</mgrwt>
</event>
<event>
 4    1  0.9138221E+003  0.2527414E+02  0.7546771E-02  0.1657095E+00
         21   -1    0    0  503  501  0.00000000000E+00  0.00000000000E+00  0.10986966973E+03  0.10986966973E+03  0.00000000000E+00 0.  1.
         21   -1    0    0  501  502 -0.00000000000E+00 -0.00000000000E+00 -0.97246547270E+01  0.97246547270E+01  0.00000000000E+00 0.  1.
         21    1    1    2  503  504 -0.24945023847E+02  0.40654390362E+01  0.87992508706E+02  0.91550333685E+02  0.00000000000E+00 0.  1.
         21    1    1    2  504  502  0.24945023847E+02 -0.40654390362E+01  0.12152506301E+02  0.28043990777E+02  0.00000000000E+00 0.  1.
<mgrwt>
<rscale>  2 0.25274137E+02</rscale>
<asrwt>0</asrwt>
<pdfrwt beam="1">  1       21 0.16903025E-01 0.25274137E+02</pdfrwt>
<pdfrwt beam="2">  1       21 0.14961008E-02 0.25274137E+02</pdfrwt>
<totfact> 0.45886216E+07</totfact>
</mgrwt>
</event>
<event>
 4    1  0.9138221E+003  0.2234456E+02  0.7546771E-02  0.1702360E+00
         21   -1    0    0  503  501  0.00000000000E+00  0.00000000000E+00  0.47868106276E+00  0.47868106276E+00  0.00000000000E+00 0. -1.
         21   -1    0    0  501  502 -0.00000000000E+00 -0.00000000000E+00 -0.12545565532E+04  0.12545565532E+04  0.00000000000E+00 0. -1.
         21    1    1    2  503  504  0.21801162094E+02  0.48978241396E+01 -0.88470775855E+03  0.88498988547E+03  0.00000000000E+00 0. -1.
         21    1    1    2  504  502 -0.21801162094E+02 -0.48978241396E+01 -0.36937011364E+03  0.37004534884E+03  0.00000000000E+00 0. -1.
<mgrwt>
<rscale>  2 0.22344560E+02</rscale>
<asrwt>0</asrwt>
<pdfrwt beam="1">  1       21 0.73644040E-04 0.22344560E+02</pdfrwt>
<pdfrwt beam="2">  1       21 0.19300661E+00 0.22344560E+02</pdfrwt>
<totfact> 0.26176101E+07</totfact>
</mgrwt>
</event>
<event>
 4    1  0.9138221E+003  0.2173323E+02  0.7546771E-02  0.1712907E+00
         21   -1    0    0  504  501  0.00000000000E+00  0.00000000000E+00  0.22861238828E+02  0.22861238828E+02  0.00000000000E+00 0.  1.
         21   -1    0    0  501  502 -0.00000000000E+00 -0.00000000000E+00 -0.34556562186E+02  0.34556562186E+02  0.00000000000E+00 0.  1.
         21    1    1    2  503  502 -0.16615768906E+02 -0.14008902049E+02  0.12357366994E+02  0.25000752628E+02  0.00000000000E+00 0. -1.
         21    1    1    2  504  503  0.16615768906E+02  0.14008902049E+02 -0.24052690351E+02  0.32417048386E+02  0.00000000000E+00 0. -1.
<mgrwt>
<rscale>  2 0.21733226E+02</rscale>
<asrwt>0</asrwt>
<pdfrwt beam="1">  1       21 0.35171137E-02 0.21733226E+02</pdfrwt>
<pdfrwt beam="2">  1       21 0.53163942E-02 0.21733226E+02</pdfrwt>
<totfact> 0.79789882E+07</totfact>
</mgrwt>
</event>
<event>
 4    1  0.9138221E+003  0.3099968E+02  0.7546771E-02  0.1587294E+00
         21   -1    0    0  502  501  0.00000000000E+00  0.00000000000E+00  0.25780971942E+03  0.25780971942E+03  0.00000000000E+00 0. -1.
         21   -1    0    0  504  502 -0.00000000000E+00 -0.00000000000E+00 -0.73122652135E+01  0.73122652135E+01  0.00000000000E+00 0. -1.
         21    1    1    2  503  501 -0.26306232856E+02  0.16400076881E+02  0.32433039282E+02  0.44865158484E+02  0.00000000000E+00 0. -1.
         21    1    1    2  504  503  0.26306232856E+02 -0.16400076881E+02  0.21806441492E+03  0.22025682615E+03  0.00000000000E+00 0. -1.
<mgrwt>
<rscale>  2 0.30999684E+02</rscale>
<asrwt>0</asrwt>
<pdfrwt beam="1">  1       21 0.39663027E-01 0.30999684E+02</pdfrwt>
<pdfrwt beam="2">  1       21 0.11249641E-02 0.30999684E+02</pdfrwt>
<totfact> 0.15786961E+07</totfact>
</mgrwt>
</event>
<event>
 4    1  0.9138221E+003  0.3835489E+02  0.7546771E-02  0.1520679E+00
         21   -1    0    0  502  501  0.00000000000E+00  0.00000000000E+00  0.78043910102E+02  0.78043910102E+02  0.00000000000E+00 0. -1.
         21   -1    0    0  504  502 -0.00000000000E+00 -0.00000000000E+00 -0.22423613937E+02  0.22423613937E+02  0.00000000000E+00 0. -1.
         21    1    1    2  503  501  0.91819022520E+01 -0.37239632696E+02  0.77552630525E+01  0.39131083263E+02  0.00000000000E+00 0.  1.
         21    1    1    2  504  503 -0.91819022520E+01  0.37239632696E+02  0.47865033112E+02  0.61336440777E+02  0.00000000000E+00 0.  1.
<mgrwt>
<rscale>  2 0.38354890E+02</rscale>
<asrwt>0</asrwt>
<pdfrwt beam="1">  1       21 0.12006755E-01 0.38354890E+02</pdfrwt>
<pdfrwt beam="2">  1       21 0.34497868E-02 0.38354890E+02</pdfrwt>
<totfact> 0.24414431E+07</totfact>
</mgrwt>
</event>
<event>
 4    1  0.9138221E+003  0.2624211E+02  0.7546771E-02  0.1643776E+00
         21   -1    0    0  502  501  0.00000000000E+00  0.00000000000E+00  0.30853473655E+03  0.30853473655E+03  0.00000000000E+00 0.  1.
         21   -1    0    0  504  502 -0.00000000000E+00 -0.00000000000E+00 -0.28639366273E+01  0.28639366273E+01  0.00000000000E+00 0.  1.
         21    1    1    2  503  501  0.10883222689E+02 -0.23878937674E+02  0.22597343818E+03  0.22749207231E+03  0.00000000000E+00 0. -1.
         21    1    1    2  504  503 -0.10883222689E+02  0.23878937674E+02  0.79697361742E+02  0.83906600867E+02  0.00000000000E+00 0. -1.
<mgrwt>
<rscale>  2 0.26242107E+02</rscale>
<asrwt>0</asrwt>
<pdfrwt beam="1">  1       21 0.47466856E-01 0.26242107E+02</pdfrwt>
<pdfrwt beam="2">  1       21 0.44060588E-03 0.26242107E+02</pdfrwt>
<totfact> 0.44129325E+07</totfact>
</mgrwt>
</event>
<event>
 4    1  0.9138221E+003  0.2188989E+02  0.7546771E-02  0.1710163E+00
         21   -1    0    0  504  501  0.00000000000E+00  0.00000000000E+00  0.12930177200E+01  0.12930177200E+01  0.00000000000E+00 0. -1.
         21   -1    0    0  501  502 -0.00000000000E+00 -0.00000000000E+00 -0.38755650466E+03  0.38755650466E+03  0.00000000000E+00 0. -1.
         21    1    1    2  503  502 -0.12029664001E+02  0.18288095800E+02 -0.15244052396E+03  0.15400415777E+03  0.00000000000E+00 0. -1.
         21    1    1    2  504  503  0.12029664001E+02 -0.18288095800E+02 -0.23382296297E+03  0.23484536461E+03  0.00000000000E+00 0. -1.
<mgrwt>
<rscale>  2 0.21889890E+02</rscale>
<asrwt>0</asrwt>
<pdfrwt beam="1">  1       21 0.19892566E-03 0.21889890E+02</pdfrwt>
<pdfrwt beam="2">  1       21 0.59624120E-01 0.21889890E+02</pdfrwt>
<totfact> 0.86174301E+07</totfact>
</mgrwt>
</event>
<event>
 4    1  0.9138221E+003  0.2121490E+02  0.7546771E-02  0.1722195E+00
         21   -1    0    0  503  501  0.00000000000E+00  0.00000000000E+00  0.34686364683E+02  0.34686364683E+02  0.00000000000E+00 0.  1.
         21   -1    0    0  501  502 -0.00000000000E+00 -0.00000000000E+00 -0.25388246646E+02  0.25388246646E+02  0.00000000000E+00 0.  1.
         21    1    1    2  503  504  0.20472667088E+02  0.55625457623E+01 -0.16353829401E+02  0.26786559113E+02  0.00000000000E+00 0.  1.
         21    1    1    2  504  502 -0.20472667088E+02 -0.55625457623E+01  0.25651947437E+02  0.33288052216E+02  0.00000000000E+00 0.  1.
<mgrwt>
<rscale>  2 0.21214901E+02</rscale>
<asrwt>0</asrwt>
<pdfrwt beam="1">  1       21 0.53363638E-02 0.21214901E+02</pdfrwt>
<pdfrwt beam="2">  1       21 0.39058841E-02 0.21214901E+02</pdfrwt>
<totfact> 0.66849729E+07</totfact>
</mgrwt>
</event>
<event>
 4    1  0.9138221E+003  0.2353805E+02  0.7546771E-02  0.1682934E+00
         21   -1    0    0  502  501  0.00000000000E+00  0.00000000000E+00  0.63692554506E+03  0.63692554506E+03  0.00000000000E+00 0.  1.
         21   -1    0    0  503  502 -0.00000000000E+00 -0.00000000000E+00 -0.10406238275E+01  0.10406238275E+01  0.00000000000E+00 0.  1.
         21    1    1    2  503  504 -0.13366274452E+02 -0.19374791280E+02  0.44715693732E+03  0.44777602261E+03  0.00000000000E+00 0.  1.
         21    1    1    2  504  501  0.13366274452E+02  0.19374791280E+02  0.18872798392E+03  0.19019014629E+03  0.00000000000E+00 0.  1.
<mgrwt>
<rscale>  2 0.23538051E+02</rscale>
<asrwt>0</asrwt>
<pdfrwt beam="1">  1       21 0.97988234E-01 0.23538051E+02</pdfrwt>
<pdfrwt beam="2">  1       21 0.16009648E-03 0.23538051E+02</pdfrwt>
<totfact> 0.42599651E+07</totfact>
</mgrwt>
</event>
<event>
 4    1  0.9138221E+003  0.2910616E+02  0.7546771E-02  0.1608184E+00
         21   -1    0    0  502  501  0.00000000000E+00  0.00000000000E+00  0.11011443923E+03  0.11011443923E+03  0.00000000000E+00 0. -1.
         21   -1    0    0  503  502 -0.00000000000E+00 -0.00000000000E+00 -0.98573230002E+01  0.98573230002E+01  0.00000000000E+00 0. -1.
         21    1    1    2  503  504 -0.11719236645E+02  0.26642602828E+02  0.78233154817E+02  0.83472122926E+02  0.00000000000E+00 0. -1.
         21    1    1    2  504  501  0.11719236645E+02 -0.26642602828E+02  0.22023961410E+02  0.36499639302E+02  0.00000000000E+00 0. -1.
<mgrwt>
<rscale>  2 0.29106164E+02</rscale>
<asrwt>0</asrwt>
<pdfrwt beam="1">  1       21 0.16940682E-01 0.29106164E+02</pdfrwt>
<pdfrwt beam="2">  1       21 0.15165113E-02 0.29106164E+02</pdfrwt>
<totfact> 0.46232843E+07</totfact>
</mgrwt>
</event>
<event>
 4    1  0.9138221E+003  0.3862507E+02  0.7546771E-02  0.1518580E+00
         21   -1    0    0  502  501  0.00000000000E+00  0.00000000000E+00  0.69249358987E+01  0.69249358987E+01  0.00000000000E+00 0. -1.
         21   -1    0    0  504  502 -0.00000000000E+00 -0.00000000000E+00 -0.29644664349E+03  0.29644664349E+03  0.00000000000E+00 0. -1.
         21    1    1    2  503  501  0.87905253580E+01 -0.37611466031E+02 -0.22405420567E+03  0.22735914935E+03  0.00000000000E+00 0. -1.
         21    1    1    2  504  503 -0.87905253580E+01  0.37611466031E+02 -0.65467501916E+02  0.76012430038E+02  0.00000000000E+00 0. -1.
<mgrwt>
<rscale>  2 0.38625066E+02</rscale>
<asrwt>0</asrwt>
<pdfrwt beam="1">  1       21 0.10653745E-02 0.38625066E+02</pdfrwt>
<pdfrwt beam="2">  1       21 0.45607185E-01 0.38625066E+02</pdfrwt>
<totfact> 0.13541942E+07</totfact>
</mgrwt>
</event>
<event>
 4    1  0.9138221E+003  0.2538779E+02  0.7546771E-02  0.1655494E+00
         21   -1    0    0  503  501  0.00000000000E+00  0.00000000000E+00  0.43402335393E+01  0.43402335393E+01  0.00000000000E+00 0.  1.
         21   -1    0    0  501  502 -0.00000000000E+00 -0.00000000000E+00 -0.43305822646E+03  0.43305822646E+03  0.00000000000E+00 0.  1.
         21    1    1    2  503  504 -0.25309457767E+02  0.19927570551E+01 -0.39163789047E+03  0.39245990494E+03  0.00000000000E+00 0. -1.
         21    1    1    2  504  502  0.25309457767E+02 -0.19927570551E+01 -0.37080102450E+02  0.44938555059E+02  0.00000000000E+00 0. -1.
<mgrwt>
<rscale>  2 0.25387787E+02</rscale>
<asrwt>0</asrwt>
<pdfrwt beam="1">  1       21 0.66772790E-03 0.25387787E+02</pdfrwt>
<pdfrwt beam="2">  1       21 0.66624376E-01 0.25387787E+02</pdfrwt>
<totfact> 0.12056347E+07</totfact>
</mgrwt>
</event>
<event>
 4    1  0.9138221E+003  0.2743522E+02  0.7546771E-02  0.1628302E+00
         21   -1    0    0  502  501  0.00000000000E+00  0.00000000000E+00  0.55904527925E+01  0.55904527925E+01  0.00000000000E+00 0.  1.
         21   -1    0    0  503  502 -0.00000000000E+00 -0.00000000000E+00 -0.20532847831E+03  0.20532847831E+03  0.00000000000E+00 0.  1.
         21    1    1    2  503  504 -0.27226452417E+02  0.33781055480E+01 -0.37990584331E+02  0.46861239912E+02  0.00000000000E+00 0. -1.
         21    1    1    2  504  501  0.27226452417E+02 -0.33781055480E+01 -0.16174744119E+03  0.16405769120E+03  0.00000000000E+00 0. -1.
<mgrwt>
<rscale>  2 0.27435220E+02</rscale>
<asrwt>0</asrwt>
<pdfrwt beam="1">  1       21 0.86006977E-03 0.27435220E+02</pdfrwt>
<pdfrwt beam="2">  1       21 0.31588993E-01 0.27435220E+02</pdfrwt>
<totfact> 0.35485306E+07</totfact>
</mgrwt>
</event>
<event>
 4    1  0.9138221E+003  0.3119092E+02  0.7546771E-02  0.1585286E+00
         21   -1    0    0  504  501  0.00000000000E+00  0.00000000000E+00  0.17213879426E+03  0.17213879426E+03  0.00000000000E+00 0.  1.
         21   -1    0    0  501  502 -0.00000000000E+00 -0.00000000000E+00 -0.76332586187E+01  0.76332586187E+01  0.00000000000E+00 0.  1.
         21    1    1    2  503  502 -0.24765513359E+02  0.18961609909E+02  0.36455149062E+02  0.47977611398E+02  0.00000000000E+00 0.  1.
         21    1    1    2  504  503  0.24765513359E+02 -0.18961609909E+02  0.12805038658E+03  0.13179444149E+03  0.00000000000E+00 0.  1.
<mgrwt>
<rscale>  2 0.31190917E+02</rscale>
<asrwt>0</asrwt>
<pdfrwt beam="1">  1       21 0.26482888E-01 0.31190917E+02</pdfrwt>
<pdfrwt beam="2">  1       21 0.11743476E-02 0.31190917E+02</pdfrwt>
<totfact> 0.31367645E+07</totfact>
</mgrwt>
</event>
<event>
 4    1  0.9138221E+003  0.6035714E+02  0.7546771E-02  0.1396339E+00
         21   -1    0    0  503  501  0.00000000000E+00  0.00000000000E+00  0.98175321361E+01  0.98175321361E+01  0.00000000000E+00 0.  1.
         21   -1    0    0  501  502 -0.00000000000E+00 -0.00000000000E+00 -0.46236581374E+03  0.46236581374E+03  0.00000000000E+00 0.  1.
         21    1    1    2  503  504 -0.11524670963E+02 -0.59246653640E+02 -0.12136457372E+03  0.13554461908E+03  0.00000000000E+00 0. -1.
         21    1    1    2  504  502  0.11524670963E+02  0.59246653640E+02 -0.33118370789E+03  0.33663872680E+03  0.00000000000E+00 0. -1.
<mgrwt>
<rscale>  2 0.60357137E+02</rscale>
<asrwt>0</asrwt>
<pdfrwt beam="1">  1       21 0.15103893E-02 0.60357137E+02</pdfrwt>
<pdfrwt beam="2">  1       21 0.71133213E-01 0.60357137E+02</pdfrwt>
<totfact> 0.33249281E+06</totfact>
</mgrwt>
</event>
<event>
 4    1  0.9138221E+003  0.2054215E+02  0.7546771E-02  0.1734757E+00
         21   -1    0    0  502  501  0.00000000000E+00  0.00000000000E+00  0.19169574905E+02  0.19169574905E+02  0.00000000000E+00 0.  1.
         21   -1    0    0  503  502 -0.00000000000E+00 -0.00000000000E+00 -0.43273397612E+02  0.43273397612E+02  0.00000000000E+00 0.  1.
         21    1    1    2  503  504 -0.20160838326E+02  0.39395990953E+01  0.98321927390E+01  0.22773929330E+02  0.00000000000E+00 0. -1.
         21    1    1    2  504  501  0.20160838326E+02 -0.39395990953E+01 -0.33936015446E+02  0.39669043188E+02  0.00000000000E+00 0. -1.
<mgrwt>
<rscale>  2 0.20542148E+02</rscale>
<asrwt>0</asrwt>
<pdfrwt beam="1">  1       21 0.29491654E-02 0.20542148E+02</pdfrwt>
<pdfrwt beam="2">  1       21 0.66574457E-02 0.20542148E+02</pdfrwt>
<totfact> 0.72075597E+07</totfact>
</mgrwt>
</event>
<event>
 4    1  0.9138221E+003  0.4050875E+02  0.7546771E-02  0.1504501E+00
         21   -1    0    0  502  501  0.00000000000E+00  0.00000000000E+00  0.50592416365E+02  0.50592416365E+02  0.00000000000E+00 0. -1.
         21   -1    0    0  504  502 -0.00000000000E+00 -0.00000000000E+00 -0.57744273228E+02  0.57744273228E+02  0.00000000000E+00 0. -1.
         21    1    1    2  503  501 -0.38670087807E+02  0.12065782429E+02  0.32285864512E+02  0.51800925126E+02  0.00000000000E+00 0.  1.
         21    1    1    2  504  503  0.38670087807E+02 -0.12065782429E+02 -0.39437721375E+02  0.56535764467E+02  0.00000000000E+00 0.  1.
<mgrwt>
<rscale>  2 0.40508750E+02</rscale>
<asrwt>0</asrwt>
<pdfrwt beam="1">  1       21 0.77834487E-02 0.40508750E+02</pdfrwt>
<pdfrwt beam="2">  1       21 0.88837343E-02 0.40508750E+02</pdfrwt>
<totfact> 0.10905379E+07</totfact>
</mgrwt>
</event>
<event>
 4    1  0.9138221E+003  0.2348483E+02  0.7546771E-02  0.1683770E+00
         21   -1    0    0  504  501  0.00000000000E+00  0.00000000000E+00  0.31183795814E+02  0.31183795814E+02  0.00000000000E+00 0. -1.
         21   -1    0    0  501  502 -0.00000000000E+00 -0.00000000000E+00 -0.36067829453E+02  0.36067829453E+02  0.00000000000E+00 0. -1.
         21    1    1    2  503  502  0.12207264689E+02 -0.20062896796E+02 -0.26446887752E+02  0.35369125107E+02  0.00000000000E+00 0.  1.
         21    1    1    2  504  503 -0.12207264689E+02  0.20062896796E+02  0.21562854113E+02  0.31882500161E+02  0.00000000000E+00 0.  1.
<mgrwt>
<rscale>  2 0.23484828E+02</rscale>
<asrwt>0</asrwt>
<pdfrwt beam="1">  1       21 0.47975071E-02 0.23484828E+02</pdfrwt>
<pdfrwt beam="2">  1       21 0.55488968E-02 0.23484828E+02</pdfrwt>
<totfact> 0.46641299E+07</totfact>
</mgrwt>
</event>
<event>
 4    1  0.9138221E+003  0.2793399E+02  0.7546771E-02  0.1622117E+00
         21   -1    0    0  503  501  0.00000000000E+00  0.00000000000E+00  0.15305140898E+02  0.15305140898E+02  0.00000000000E+00 0. -1.
         21   -1    0    0  501  502 -0.00000000000E+00 -0.00000000000E+00 -0.26194311958E+03  0.26194311958E+03  0.00000000000E+00 0. -1.
         21    1    1    2  503  504  0.12904494406E+02  0.24774620372E+02  0.10852352260E+01  0.27955062618E+02  0.00000000000E+00 0. -1.
         21    1    1    2  504  502 -0.12904494406E+02 -0.24774620372E+02 -0.24772321391E+03  0.24929319786E+03  0.00000000000E+00 0. -1.
<mgrwt>
<rscale>  2 0.27933990E+02</rscale>
<asrwt>0</asrwt>
<pdfrwt beam="1">  1       21 0.23546368E-02 0.27933990E+02</pdfrwt>
<pdfrwt beam="2">  1       21 0.40298946E-01 0.27933990E+02</pdfrwt>
<totfact> 0.48426135E+06</totfact>
</mgrwt>
</event>
<event>
 4    1  0.9138221E+003  0.2601380E+02  0.7546771E-02  0.1646853E+00
         21   -1    0    0  502  501  0.00000000000E+00  0.00000000000E+00  0.29563968757E+01  0.29563968757E+01  0.00000000000E+00 0. -1.
         21   -1    0    0  504  502 -0.00000000000E+00 -0.00000000000E+00 -0.24373403982E+03  0.24373403982E+03  0.00000000000E+00 0. -1.
         21    1    1    2  503  501  0.21017916526E+02  0.15328563271E+02 -0.89958835152E+02  0.93644592417E+02  0.00000000000E+00 0.  1.
         21    1    1    2  504  503 -0.21017916526E+02 -0.15328563271E+02 -0.15081880779E+03  0.15304584428E+03  0.00000000000E+00 0.  1.
<mgrwt>
<rscale>  2 0.26013798E+02</rscale>
<asrwt>0</asrwt>
<pdfrwt beam="1">  1       21 0.45483018E-03 0.26013798E+02</pdfrwt>
<pdfrwt beam="2">  1       21 0.37497554E-01 0.26013798E+02</pdfrwt>
<totfact> 0.65903445E+07</totfact>
</mgrwt>
</event>
<event>
 4    1  0.9138221E+003  0.2114799E+02  0.7546771E-02  0.1723418E+00
         21   -1    0    0  504  501  0.00000000000E+00  0.00000000000E+00  0.46541334585E+00  0.46541334585E+00  0.00000000000E+00 0. -1.
         21   -1    0    0  501  502 -0.00000000000E+00 -0.00000000000E+00 -0.13986737713E+04  0.13986737713E+04  0.00000000000E+00 0. -1.
         21    1    1    2  503  502 -0.11651211640E+02  0.17648988193E+02 -0.30774609663E+03  0.30847187475E+03  0.00000000000E+00 0.  1.
         21    1    1    2  504  503  0.11651211640E+02 -0.17648988193E+02 -0.10904622613E+04  0.10906673099E+04  0.00000000000E+00 0.  1.
<mgrwt>
<rscale>  2 0.21147991E+02</rscale>
<asrwt>0</asrwt>
<pdfrwt beam="1">  1       21 0.71603452E-04 0.21147991E+02</pdfrwt>
<pdfrwt beam="2">  1       21 0.21517638E+00 0.21147991E+02</pdfrwt>
<totfact> 0.20401645E+07</totfact>
</mgrwt>
</event>
<event>
 4    1  0.9138221E+003  0.2027156E+02  0.7546771E-02  0.1739981E+00
         21   -1    0    0  502  501  0.00000000000E+00  0.00000000000E+00  0.21649661414E+01  0.21649661414E+01  0.00000000000E+00 0.  1.
         21   -1    0    0  504  502 -0.00000000000E+00 -0.00000000000E+00 -0.58854293384E+03  0.58854293384E+03  0.00000000000E+00 0.  1.
         21    1    1    2  503  501 -0.18782814693E+01  0.20184354751E+02 -0.50084044475E+02  0.54030987674E+02  0.00000000000E+00 0. -1.
         21    1    1    2  504  503  0.18782814693E+01 -0.20184354751E+02 -0.53629392322E+03  0.53667691230E+03  0.00000000000E+00 0. -1.
<mgrwt>
<rscale>  2 0.20271559E+02</rscale>
<asrwt>0</asrwt>
<pdfrwt beam="1">  1       21 0.33307117E-03 0.20271559E+02</pdfrwt>
<pdfrwt beam="2">  1       21 0.90545214E-01 0.20271559E+02</pdfrwt>
<totfact> 0.16980942E+07</totfact>
</mgrwt>
</event>
<event>
 4    1  0.9138221E+003  0.3311164E+02  0.7546771E-02  0.1566039E+00
         21   -1    0    0  502  501  0.00000000000E+00  0.00000000000E+00  0.21888163864E+03  0.21888163864E+03  0.00000000000E+00 0.  1.
         21   -1    0    0  503  502 -0.00000000000E+00 -0.00000000000E+00 -0.60769310704E+01  0.60769310704E+01  0.00000000000E+00 0.  1.
         21    1    1    2  503  504  0.33069011096E+02 -0.16796881486E+01  0.59250423511E+02  0.67874837262E+02  0.00000000000E+00 0.  1.
         21    1    1    2  504  501 -0.33069011096E+02  0.16796881486E+01  0.15355428406E+03  0.15708373245E+03  0.00000000000E+00 0.  1.
<mgrwt>
<rscale>  2 0.33111642E+02</rscale>
<asrwt>0</asrwt>
<pdfrwt beam="1">  1       21 0.33674092E-01 0.33111642E+02</pdfrwt>
<pdfrwt beam="2">  1       21 0.93491264E-03 0.33111642E+02</pdfrwt>
<totfact> 0.28813328E+07</totfact>
</mgrwt>
</event>
<event>
 4    1  0.9138221E+003  0.3124658E+02  0.7546771E-02  0.1584704E+00
         21   -1    0    0  504  501  0.00000000000E+00  0.00000000000E+00  0.27409994278E+03  0.27409994278E+03  0.00000000000E+00 0.  1.
         21   -1    0    0  501  502 -0.00000000000E+00 -0.00000000000E+00 -0.44565267483E+01  0.44565267483E+01  0.00000000000E+00 0.  1.
         21    1    1    2  503  502  0.30493986646E+02 -0.68165726054E+01  0.19722066527E+03  0.19968059418E+03  0.00000000000E+00 0.  1.
         21    1    1    2  504  503 -0.30493986646E+02  0.68165726054E+01  0.72422750763E+02  0.78875875347E+02  0.00000000000E+00 0.  1.
<mgrwt>
<rscale>  2 0.31246582E+02</rscale>
<asrwt>0</asrwt>
<pdfrwt beam="1">  1       21 0.42169209E-01 0.31246582E+02</pdfrwt>
<pdfrwt beam="2">  1       21 0.68561971E-03 0.31246582E+02</pdfrwt>
<totfact> 0.29723383E+07</totfact>
</mgrwt>
</event>
<event>
 4    1  0.9138221E+003  0.2406736E+02  0.7546771E-02  0.1674771E+00
         21   -1    0    0  502  501  0.00000000000E+00  0.00000000000E+00  0.17363679481E+01  0.17363679481E+01  0.00000000000E+00 0. -1.
         21   -1    0    0  503  502 -0.00000000000E+00 -0.00000000000E+00 -0.43518375105E+03  0.43518375105E+03  0.00000000000E+00 0. -1.
         21    1    1    2  503  504 -0.14910216553E+02 -0.18892418187E+02 -0.32227544909E+03  0.32317286877E+03  0.00000000000E+00 0.  1.
         21    1    1    2  504  501  0.14910216553E+02  0.18892418187E+02 -0.11117193402E+03  0.11374725023E+03  0.00000000000E+00 0.  1.
<mgrwt>
<rscale>  2 0.24067364E+02</rscale>
<asrwt>0</asrwt>
<pdfrwt beam="1">  1       21 0.26713320E-03 0.24067364E+02</pdfrwt>
<pdfrwt beam="2">  1       21 0.66951428E-01 0.24067364E+02</pdfrwt>
<totfact> 0.45529576E+07</totfact>
</mgrwt>
</event>
<event>
 4    1  0.9138221E+003  0.2077884E+02  0.7546771E-02  0.1730269E+00
         21   -1    0    0  503  501  0.00000000000E+00  0.00000000000E+00  0.11161615916E+01  0.11161615916E+01  0.00000000000E+00 0. -1.
         21   -1    0    0  501  502 -0.00000000000E+00 -0.00000000000E+00 -0.13996082862E+04  0.13996082862E+04  0.00000000000E+00 0. -1.
         21    1    1    2  503  504  0.19655332239E+02  0.67400356961E+01 -0.12950145652E+04  0.12951812554E+04  0.00000000000E+00 0.  1.
         21    1    1    2  504  502 -0.19655332239E+02 -0.67400356961E+01 -0.10347755940E+03  0.10554319242E+03  0.00000000000E+00 0.  1.
<mgrwt>
<rscale>  2 0.20778839E+02</rscale>
<asrwt>0</asrwt>
<pdfrwt beam="1">  1       21 0.17171709E-03 0.20778839E+02</pdfrwt>
<pdfrwt beam="2">  1       21 0.21532445E+00 0.20778839E+02</pdfrwt>
<totfact> 0.58558969E+06</totfact>
</mgrwt>
</event>
<event>
 4    1  0.9138221E+003  0.3859838E+02  0.7546771E-02  0.1518787E+00
         21   -1    0    0  502  501  0.00000000000E+00  0.00000000000E+00  0.12894124632E+02  0.12894124632E+02  0.00000000000E+00 0.  1.
         21   -1    0    0  504  502 -0.00000000000E+00 -0.00000000000E+00 -0.60721864198E+03  0.60721864198E+03  0.00000000000E+00 0.  1.
         21    1    1    2  503  501  0.28459523509E+02 -0.26074710910E+02 -0.57616415872E+03  0.57745560247E+03  0.00000000000E+00 0. -1.
         21    1    1    2  504  503 -0.28459523509E+02  0.26074710910E+02 -0.18160358628E+02  0.42657164145E+02  0.00000000000E+00 0. -1.
<mgrwt>
<rscale>  2 0.38598381E+02</rscale>
<asrwt>0</asrwt>
<pdfrwt beam="1">  1       21 0.19837118E-02 0.38598381E+02</pdfrwt>
<pdfrwt beam="2">  1       21 0.93418238E-01 0.38598381E+02</pdfrwt>
<totfact> 0.11711954E+06</totfact>
</mgrwt>
</event>
<event>
 4    1  0.9138221E+003  0.2358948E+02  0.7546771E-02  0.1682129E+00
         21   -1    0    0  504  501  0.00000000000E+00  0.00000000000E+00  0.59153513512E+00  0.59153513512E+00  0.00000000000E+00 0. -1.
         21   -1    0    0  501  502 -0.00000000000E+00 -0.00000000000E+00 -0.16295931456E+04  0.16295931456E+04  0.00000000000E+00 0. -1.
         21    1    1    2  503  502  0.19580062405E+02 -0.13156171265E+02 -0.13444565941E+04  0.13446635256E+04  0.00000000000E+00 0. -1.
         21    1    1    2  504  503 -0.19580062405E+02  0.13156171265E+02 -0.28454501640E+03  0.28552115516E+03  0.00000000000E+00 0. -1.
<mgrwt>
<rscale>  2 0.23589483E+02</rscale>
<asrwt>0</asrwt>
<pdfrwt beam="1">  1       21 0.91005231E-04 0.23589483E+02</pdfrwt>
<pdfrwt beam="2">  1       21 0.25070712E+00 0.23589483E+02</pdfrwt>
<totfact> 0.96721573E+06</totfact>
</mgrwt>
</event>
<event>
 4    1  0.9138221E+003  0.2485011E+02  0.7546771E-02  0.1663164E+00
         21   -1    0    0  502  501  0.00000000000E+00  0.00000000000E+00  0.10568595542E+01  0.10568595542E+01  0.00000000000E+00 0. -1.
         21   -1    0    0  503  502 -0.00000000000E+00 -0.00000000000E+00 -0.12415986376E+04  0.12415986376E+04  0.00000000000E+00 0. -1.
         21    1    1    2  503  504  0.24794554751E+02 -0.16607877902E+01 -0.10723452743E+04  0.10726331691E+04  0.00000000000E+00 0. -1.
         21    1    1    2  504  501 -0.24794554751E+02  0.16607877902E+01 -0.16819650379E+03  0.17002232808E+03  0.00000000000E+00 0. -1.
<mgrwt>
<rscale>  2 0.24850114E+02</rscale>
<asrwt>0</asrwt>
<pdfrwt beam="1">  1       21 0.16259415E-03 0.24850114E+02</pdfrwt>
<pdfrwt beam="2">  1       21 0.19101474E+00 0.24850114E+02</pdfrwt>
<totfact> 0.88004811E+06</totfact>
</mgrwt>
</event>
<event>
 4    1  0.9138221E+003  0.2803536E+02  0.7546771E-02  0.1620879E+00
         21   -1    0    0  504  501  0.00000000000E+00  0.00000000000E+00  0.27358020739E+02  0.27358020739E+02  0.00000000000E+00 0.  1.
         21   -1    0    0  501  502 -0.00000000000E+00 -0.00000000000E+00 -0.61065863415E+02  0.61065863415E+02  0.00000000000E+00 0.  1.
         21    1    1    2  503  502 -0.13863271196E+02 -0.24367825145E+02  0.15318681046E+02  0.31947506625E+02  0.00000000000E+00 0.  1.
         21    1    1    2  504  503  0.13863271196E+02  0.24367825145E+02 -0.49026523722E+02  0.56476377529E+02  0.00000000000E+00 0.  1.
<mgrwt>
<rscale>  2 0.28035356E+02</rscale>
<asrwt>0</asrwt>
<pdfrwt beam="1">  1       21 0.42089263E-02 0.28035356E+02</pdfrwt>
<pdfrwt beam="2">  1       21 0.93947482E-02 0.28035356E+02</pdfrwt>
<totfact> 0.25352810E+07</totfact>
</mgrwt>
</event>
<event>
 4    1  0.9138221E+003  0.2711425E+02  0.7546771E-02  0.1632368E+00
         21   -1    0    0  502  501  0.00000000000E+00  0.00000000000E+00  0.15539293105E+02  0.15539293105E+02  0.00000000000E+00 0.  1.
         21   -1    0    0  504  502 -0.00000000000E+00 -0.00000000000E+00 -0.57322406717E+02  0.57322406717E+02  0.00000000000E+00 0.  1.
         21    1    1    2  503  501 -0.19909026018E+02 -0.18406881423E+02 -0.56668017526E+01  0.27700094636E+02  0.00000000000E+00 0. -1.
         21    1    1    2  504  503  0.19909026018E+02  0.18406881423E+02 -0.36116311859E+02  0.45161605186E+02  0.00000000000E+00 0. -1.
<mgrwt>
<rscale>  2 0.27114251E+02</rscale>
<asrwt>0</asrwt>
<pdfrwt beam="1">  1       21 0.23906605E-02 0.27114251E+02</pdfrwt>
<pdfrwt beam="2">  1       21 0.88188317E-02 0.27114251E+02</pdfrwt>
<totfact> 0.67968470E+07</totfact>
</mgrwt>
</event>
<event>
 4    1  0.9138221E+003  0.3502122E+02  0.7546771E-02  0.1548412E+00
         21   -1    0    0  502  501  0.00000000000E+00  0.00000000000E+00  0.12657788233E+01  0.12657788233E+01  0.00000000000E+00 0.  1.
         21   -1    0    0  503  502 -0.00000000000E+00 -0.00000000000E+00 -0.11778107420E+04  0.11778107420E+04  0.00000000000E+00 0.  1.
         21    1    1    2  503  504  0.12383326641E+02  0.32758797485E+02 -0.34001914671E+03  0.34181794236E+03  0.00000000000E+00 0.  1.
         21    1    1    2  504  501 -0.12383326641E+02 -0.32758797485E+02 -0.83652581648E+03  0.83725857847E+03  0.00000000000E+00 0.  1.
<mgrwt>
<rscale>  2 0.35021216E+02</rscale>
<asrwt>0</asrwt>
<pdfrwt beam="1">  1       21 0.19473536E-03 0.35021216E+02</pdfrwt>
<pdfrwt beam="2">  1       21 0.18120151E+00 0.35021216E+02</pdfrwt>
<totfact> 0.80132743E+06</totfact>
</mgrwt>
</event>
<event>
 4    1  0.9138221E+003  0.2355962E+02  0.7546771E-02  0.1682596E+00
         21   -1    0    0  502  501  0.00000000000E+00  0.00000000000E+00  0.60129354252E+02  0.60129354252E+02  0.00000000000E+00 0. -1.
         21   -1    0    0  503  502 -0.00000000000E+00 -0.00000000000E+00 -0.21088056641E+02  0.21088056641E+02  0.00000000000E+00 0. -1.
         21    1    1    2  503  504 -0.21317405588E+02  0.10031140805E+02  0.49970758138E+02  0.55246106069E+02  0.00000000000E+00 0. -1.
         21    1    1    2  504  501  0.21317405588E+02 -0.10031140805E+02 -0.10929460527E+02  0.25971304824E+02  0.00000000000E+00 0. -1.
<mgrwt>
<rscale>  2 0.23559617E+02</rscale>
<asrwt>0</asrwt>
<pdfrwt beam="1">  1       21 0.92506698E-02 0.23559617E+02</pdfrwt>
<pdfrwt beam="2">  1       21 0.32443164E-02 0.23559617E+02</pdfrwt>
<totfact> 0.37721366E+07</totfact>
</mgrwt>
</event>
<event>
 4    1  0.9138221E+003  0.2206736E+02  0.7546771E-02  0.1707090E+00
         21   -1    0    0  502  501  0.00000000000E+00  0.00000000000E+00  0.99973567422E+02  0.99973567422E+02  0.00000000000E+00 0. -1.
         21   -1    0    0  504  502 -0.00000000000E+00 -0.00000000000E+00 -0.81303838038E+01  0.81303838038E+01  0.00000000000E+00 0. -1.
         21    1    1    2  503  501  0.45973772198E+01  0.21583157657E+02  0.11698000363E+02  0.24976224379E+02  0.00000000000E+00 0.  1.
         21    1    1    2  504  503 -0.45973772198E+01 -0.21583157657E+02  0.80145183256E+02  0.83127726847E+02  0.00000000000E+00 0.  1.
<mgrwt>
<rscale>  2 0.22067364E+02</rscale>
<asrwt>0</asrwt>
<pdfrwt beam="1">  1       21 0.15380548E-01 0.22067364E+02</pdfrwt>
<pdfrwt beam="2">  1       21 0.12508283E-02 0.22067364E+02</pdfrwt>
<totfact> 0.68390985E+07</totfact>
</mgrwt>
</event>
<event>
 4    1  0.9138221E+003  0.2785659E+02  0.7546771E-02  0.1623066E+00
         21   -1    0    0  504  501  0.00000000000E+00  0.00000000000E+00  0.11570550948E+03  0.11570550948E+03  0.00000000000E+00 0.  1.
         21   -1    0    0  501  502 -0.00000000000E+00 -0.00000000000E+00 -0.96390102304E+01  0.96390102304E+01  0.00000000000E+00 0.  1.
         21    1    1    2  503  502 -0.24506832706E+02 -0.13244047925E+02  0.87601076880E+02  0.91923546087E+02  0.00000000000E+00 0.  1.
         21    1    1    2  504  503  0.24506832706E+02  0.13244047925E+02  0.18465422373E+02  0.33420973627E+02  0.00000000000E+00 0.  1.
<mgrwt>
<rscale>  2 0.27856591E+02</rscale>
<asrwt>0</asrwt>
<pdfrwt beam="1">  1       21 0.17800847E-01 0.27856591E+02</pdfrwt>
<pdfrwt beam="2">  1       21 0.14829247E-02 0.27856591E+02</pdfrwt>
<totfact> 0.43470133E+07</totfact>
</mgrwt>
</event>
<event>
 4    1  0.9138221E+003  0.2168330E+02  0.7546771E-02  0.1713787E+00
         21   -1    0    0  502  501  0.00000000000E+00  0.00000000000E+00  0.68978031165E+02  0.68978031165E+02  0.00000000000E+00 0.  1.
         21   -1    0    0  504  502 -0.00000000000E+00 -0.00000000000E+00 -0.29675683513E+02  0.29675683513E+02  0.00000000000E+00 0.  1.
         21    1    1    2  503  501  0.21683268049E+02  0.36606985744E-01  0.62944070705E+02  0.66574180357E+02  0.00000000000E+00 0. -1.
         21    1    1    2  504  503 -0.21683268049E+02 -0.36606985744E-01 -0.23641723052E+02  0.32079534321E+02  0.00000000000E+00 0. -1.
<mgrwt>
<rscale>  2 0.21683299E+02</rscale>
<asrwt>0</asrwt>
<pdfrwt beam="1">  1       21 0.10612005E-01 0.21683299E+02</pdfrwt>
<pdfrwt beam="2">  1       21 0.45654898E-02 0.21683299E+02</pdfrwt>
<totfact> 0.17234186E+07</totfact>
</mgrwt>
</event>
<event>
 4    1  0.9138221E+003  0.2342939E+02  0.7546771E-02  0.1684643E+00
         21   -1    0    0  502  501  0.00000000000E+00  0.00000000000E+00  0.11051654810E+02  0.11051654810E+02  0.00000000000E+00 0. -1.
         21   -1    0    0  503  502 -0.00000000000E+00 -0.00000000000E+00 -0.99649733171E+02  0.99649733171E+02  0.00000000000E+00 0. -1.
         21    1    1    2  503  504 -0.75777181479E+01 -0.22170124370E+02 -0.50994281474E+01  0.23977914721E+02  0.00000000000E+00 0. -1.
         21    1    1    2  504  501  0.75777181479E+01  0.22170124370E+02 -0.83498650213E+02  0.86723473260E+02  0.00000000000E+00 0. -1.
<mgrwt>
<rscale>  2 0.23429388E+02</rscale>
<asrwt>0</asrwt>
<pdfrwt beam="1">  1       21 0.17002545E-02 0.23429388E+02</pdfrwt>
<pdfrwt beam="2">  1       21 0.15330729E-01 0.23429388E+02</pdfrwt>
<totfact> 0.43828021E+07</totfact>
</mgrwt>
</event>
<event>
 4    1  0.9138221E+003  0.2116991E+02  0.7546771E-02  0.1723016E+00
         21   -1    0    0  504  501  0.00000000000E+00  0.00000000000E+00  0.83790187143E+02  0.83790187143E+02  0.00000000000E+00 0. -1.
         21   -1    0    0  501  502 -0.00000000000E+00 -0.00000000000E+00 -0.85016951079E+01  0.85016951079E+01  0.00000000000E+00 0. -1.
         21    1    1    2  503  502  0.21517835928E+01 -0.21060265176E+02  0.65746773319E+02  0.69071000744E+02  0.00000000000E+00 0. -1.
         21    1    1    2  504  503 -0.21517835928E+01  0.21060265176E+02  0.95417187166E+01  0.23220881507E+02  0.00000000000E+00 0. -1.
<mgrwt>
<rscale>  2 0.21169907E+02</rscale>
<asrwt>0</asrwt>
<pdfrwt beam="1">  1       21 0.12890797E-01 0.21169907E+02</pdfrwt>
<pdfrwt beam="2">  1       21 0.13079532E-02 0.21169907E+02</pdfrwt>
<totfact> 0.85186341E+07</totfact>
</mgrwt>
</event>
<event>
 4    1  0.9138221E+003  0.2546805E+02  0.7546771E-02  0.1654369E+00
         21   -1    0    0  504  501  0.00000000000E+00  0.00000000000E+00  0.53359494265E+01  0.53359494265E+01  0.00000000000E+00 0. -1.
         21   -1    0    0  501  502 -0.00000000000E+00 -0.00000000000E+00 -0.12831072306E+03  0.12831072306E+03  0.00000000000E+00 0. -1.
         21    1    1    2  503  502  0.16262236660E+02  0.19600025441E+02 -0.76818451483E+02  0.80930191071E+02  0.00000000000E+00 0. -1.
         21    1    1    2  504  503 -0.16262236660E+02 -0.19600025441E+02 -0.46156322154E+02  0.52716481419E+02  0.00000000000E+00 0. -1.
<mgrwt>
<rscale>  2 0.25468045E+02</rscale>
<asrwt>0</asrwt>
<pdfrwt beam="1">  1       21 0.82091540E-03 0.25468045E+02</pdfrwt>
<pdfrwt beam="2">  1       21 0.19740109E-01 0.25468045E+02</pdfrwt>
<totfact> 0.86979519E+07</totfact>
</mgrwt>
</event>
<event>
 4    1  0.9138221E+003  0.2795330E+02  0.7546771E-02  0.1621880E+00
         21   -1    0    0  504  501  0.00000000000E+00  0.00000000000E+00  0.41918447601E+03  0.41918447601E+03  0.00000000000E+00 0.  1.
         21   -1    0    0  501  502 -0.00000000000E+00 -0.00000000000E+00 -0.32953814750E+01  0.32953814750E+01  0.00000000000E+00 0.  1.
         21    1    1    2  503  502  0.13355968643E+01 -0.27921371263E+02  0.68727917937E+02  0.74195104260E+02  0.00000000000E+00 0.  1.
         21    1    1    2  504  503 -0.13355968643E+01  0.27921371263E+02  0.34716117660E+03  0.34828475323E+03  0.00000000000E+00 0.  1.
<mgrwt>
<rscale>  2 0.27953297E+02</rscale>
<asrwt>0</asrwt>
<pdfrwt beam="1">  1       21 0.64489877E-01 0.27953297E+02</pdfrwt>
<pdfrwt beam="2">  1       21 0.50698210E-03 0.27953297E+02</pdfrwt>
<totfact> 0.19733913E+07</totfact>
</mgrwt>
</event>
<event>
 4    1  0.9138221E+003  0.3033707E+02  0.7546771E-02  0.1594392E+00
         21   -1    0    0  502  501  0.00000000000E+00  0.00000000000E+00  0.93127460637E+01  0.93127460637E+01  0.00000000000E+00 0.  1.
         21   -1    0    0  504  502 -0.00000000000E+00 -0.00000000000E+00 -0.42327933766E+03  0.42327933766E+03  0.00000000000E+00 0.  1.
         21    1    1    2  503  501  0.21766918250E+02 -0.21131469223E+02 -0.17613187270E+02  0.35079368401E+02  0.00000000000E+00 0.  1.
         21    1    1    2  504  503 -0.21766918250E+02  0.21131469223E+02 -0.39635340432E+03  0.39751271532E+03  0.00000000000E+00 0.  1.
<mgrwt>
<rscale>  2 0.30337068E+02</rscale>
<asrwt>0</asrwt>
<pdfrwt beam="1">  1       21 0.14327303E-02 0.30337068E+02</pdfrwt>
<pdfrwt beam="2">  1       21 0.65119894E-01 0.30337068E+02</pdfrwt>
<totfact> 0.40882970E+06</totfact>
</mgrwt>
</event>
<event>
 4    1  0.9138221E+003  0.2515319E+02  0.7546771E-02  0.1658811E+00
         21   -1    0    0  502  501  0.00000000000E+00  0.00000000000E+00  0.14693241824E+03  0.14693241824E+03  0.00000000000E+00 0. -1.
         21   -1    0    0  503  502 -0.00000000000E+00 -0.00000000000E+00 -0.45291967420E+01  0.45291967420E+01  0.00000000000E+00 0. -1.
         21    1    1    2  503  504 -0.20571913167E+02 -0.14473399434E+02  0.88015163201E+02  0.91538799729E+02  0.00000000000E+00 0.  1.
         21    1    1    2  504  501  0.20571913167E+02  0.14473399434E+02  0.54388058298E+02  0.59922815254E+02  0.00000000000E+00 0.  1.
<mgrwt>
<rscale>  2 0.25153189E+02</rscale>
<asrwt>0</asrwt>
<pdfrwt beam="1">  1       21 0.22604984E-01 0.25153189E+02</pdfrwt>
<pdfrwt beam="2">  1       21 0.69679961E-03 0.25153189E+02</pdfrwt>
<totfact> 0.87273676E+07</totfact>
</mgrwt>
</event>
<event>
 4    1  0.9138221E+003  0.2017115E+02  0.7546771E-02  0.1741946E+00
         21   -1    0    0  502  501  0.00000000000E+00  0.00000000000E+00  0.11083566600E+02  0.11083566600E+02  0.00000000000E+00 0.  1.
         21   -1    0    0  503  502 -0.00000000000E+00 -0.00000000000E+00 -0.91587168536E+02  0.91587168536E+02  0.00000000000E+00 0.  1.
         21    1    1    2  503  504  0.20089800073E+02 -0.18097795061E+01 -0.51471186930E+00  0.20177717838E+02  0.00000000000E+00 0.  1.
         21    1    1    2  504  501 -0.20089800073E+02  0.18097795061E+01 -0.79988890067E+02  0.82493017298E+02  0.00000000000E+00 0.  1.
<mgrwt>
<rscale>  2 0.20171152E+02</rscale>
<asrwt>0</asrwt>
<pdfrwt beam="1">  1       21 0.17051641E-02 0.20171152E+02</pdfrwt>
<pdfrwt beam="2">  1       21 0.14090334E-01 0.20171152E+02</pdfrwt>
<totfact> 0.48453208E+07</totfact>
</mgrwt>
</event>
<event>
 4    1  0.9138221E+003  0.2100811E+02  0.7546771E-02  0.1725993E+00
         21   -1    0    0  503  501  0.00000000000E+00  0.00000000000E+00  0.75946411633E+00  0.75946411633E+00  0.00000000000E+00 0. -1.
         21   -1    0    0  501  502 -0.00000000000E+00 -0.00000000000E+00 -0.65469652185E+03  0.65469652185E+03  0.00000000000E+00 0. -1.
         21    1    1    2  503  504 -0.19157915962E+02  0.86206092001E+01 -0.21710341567E+03  0.21811747693E+03  0.00000000000E+00 0. -1.
         21    1    1    2  504  502  0.19157915962E+02 -0.86206092001E+01 -0.43683364206E+03  0.43733850903E+03  0.00000000000E+00 0. -1.
<mgrwt>
<rscale>  2 0.21008109E+02</rscale>
<asrwt>0</asrwt>
<pdfrwt beam="1">  1       21 0.11684022E-03 0.21008109E+02</pdfrwt>
<pdfrwt beam="2">  1       21 0.10072290E+00 0.21008109E+02</pdfrwt>
<totfact> 0.61377594E+07</totfact>
</mgrwt>
</event>
<event>
 4    1  0.9138221E+003  0.2159376E+02  0.7546771E-02  0.1715374E+00
         21   -1    0    0  502  501  0.00000000000E+00  0.00000000000E+00  0.50424194101E+00  0.50424194101E+00  0.00000000000E+00 0.  1.
         21   -1    0    0  503  502 -0.00000000000E+00 -0.00000000000E+00 -0.17996473892E+04  0.17996473892E+04  0.00000000000E+00 0.  1.
         21    1    1    2  503  504  0.10308344015E+02  0.18974418882E+02 -0.15271492543E+04  0.15273019137E+04  0.00000000000E+00 0. -1.
         21    1    1    2  504  501 -0.10308344015E+02 -0.18974418882E+02 -0.27199389296E+03  0.27284971749E+03  0.00000000000E+00 0. -1.
<mgrwt>
<rscale>  2 0.21593761E+02</rscale>
<asrwt>0</asrwt>
<pdfrwt beam="1">  1       21 0.77575629E-04 0.21593761E+02</pdfrwt>
<pdfrwt beam="2">  1       21 0.27686902E+00 0.21593761E+02</pdfrwt>
<totfact> 0.89867146E+06</totfact>
</mgrwt>
</event>
<event>
 4    1  0.9138221E+003  0.3084117E+02  0.7546771E-02  0.1588973E+00
         21   -1    0    0  504  501  0.00000000000E+00  0.00000000000E+00  0.35163913669E+03  0.35163913669E+03  0.00000000000E+00 0.  1.
         21   -1    0    0  501  502 -0.00000000000E+00 -0.00000000000E+00 -0.27815837571E+01  0.27815837571E+01  0.00000000000E+00 0.  1.
         21    1    1    2  503  502 -0.22740413306E+02  0.20833896456E+02  0.20383651091E+03  0.20615649594E+03  0.00000000000E+00 0. -1.
         21    1    1    2  504  503  0.22740413306E+02 -0.20833896456E+02  0.14502104202E+03  0.14826422451E+03  0.00000000000E+00 0. -1.
<mgrwt>
<rscale>  2 0.30841168E+02</rscale>
<asrwt>0</asrwt>
<pdfrwt beam="1">  1       21 0.54098294E-01 0.30841168E+02</pdfrwt>
<pdfrwt beam="2">  1       21 0.42793624E-03 0.30841168E+02</pdfrwt>
<totfact> 0.36811340E+07</totfact>
</mgrwt>
</event>
<event>
 4    1  0.9138221E+003  0.2998295E+02  0.7546771E-02  0.1598277E+00
         21   -1    0    0  502  501  0.00000000000E+00  0.00000000000E+00  0.77132113855E+02  0.77132113855E+02  0.00000000000E+00 0.  1.
         21   -1    0    0  504  502 -0.00000000000E+00 -0.00000000000E+00 -0.20360072114E+02  0.20360072114E+02  0.00000000000E+00 0.  1.
         21    1    1    2  503  501 -0.74495896040E+01 -0.29042737981E+02 -0.34879097345E+01  0.30185137552E+02  0.00000000000E+00 0.  1.
         21    1    1    2  504  503  0.74495896040E+01  0.29042737981E+02  0.60259951476E+02  0.67307048417E+02  0.00000000000E+00 0.  1.
<mgrwt>
<rscale>  2 0.29982945E+02</rscale>
<asrwt>0</asrwt>
<pdfrwt beam="1">  1       21 0.11866479E-01 0.29982945E+02</pdfrwt>
<pdfrwt beam="2">  1       21 0.31323188E-02 0.29982945E+02</pdfrwt>
<totfact> 0.27742600E+07</totfact>
</mgrwt>
</event>
<event>
 4    1  0.9138221E+003  0.2457005E+02  0.7546771E-02  0.1667255E+00
         21   -1    0    0  502  501  0.00000000000E+00  0.00000000000E+00  0.82672866898E+02  0.82672866898E+02  0.00000000000E+00 0.  1.
         21   -1    0    0  503  502 -0.00000000000E+00 -0.00000000000E+00 -0.12612516235E+02  0.12612516235E+02  0.00000000000E+00 0.  1.
         21    1    1    2  503  504 -0.21552799021E+02  0.11796779195E+02  0.65944439090E+02  0.70372979132E+02  0.00000000000E+00 0. -1.
         21    1    1    2  504  501  0.21552799021E+02 -0.11796779195E+02  0.41159115722E+01  0.24912404001E+02  0.00000000000E+00 0. -1.
<mgrwt>
<rscale>  2 0.24570046E+02</rscale>
<asrwt>0</asrwt>
<pdfrwt beam="1">  1       21 0.12718902E-01 0.24570046E+02</pdfrwt>
<pdfrwt beam="2">  1       21 0.19403872E-02 0.24570046E+02</pdfrwt>
<totfact> 0.49730718E+07</totfact>
</mgrwt>
</event>
<event>
 4    1  0.9138221E+003  0.2038250E+02  0.7546771E-02  0.1737827E+00
         21   -1    0    0  502  501  0.00000000000E+00  0.00000000000E+00  0.21605804911E+02  0.21605804911E+02  0.00000000000E+00 0.  1.
         21   -1    0    0  503  502 -0.00000000000E+00 -0.00000000000E+00 -0.30302753222E+02  0.30302753222E+02  0.00000000000E+00 0.  1.
         21    1    1    2  503  504 -0.18900676670E+02 -0.76295824833E+01 -0.20038590349E+02  0.28583058105E+02  0.00000000000E+00 0.  1.
         21    1    1    2  504  501  0.18900676670E+02  0.76295824833E+01  0.11341642038E+02  0.23325500028E+02  0.00000000000E+00 0.  1.
<mgrwt>
<rscale>  2 0.20382495E+02</rscale>
<asrwt>0</asrwt>
<pdfrwt beam="1">  1       21 0.33239700E-02 0.20382495E+02</pdfrwt>
<pdfrwt beam="2">  1       21 0.46619620E-02 0.20382495E+02</pdfrwt>
<totfact> 0.10534290E+08</totfact>
</mgrwt>
</event>
<event>
 4    1  0.9138221E+003  0.2188440E+02  0.7546771E-02  0.1710259E+00
         21   -1    0    0  502  501  0.00000000000E+00  0.00000000000E+00  0.73139140841E+02  0.73139140841E+02  0.00000000000E+00 0. -1.
         21   -1    0    0  503  502 -0.00000000000E+00 -0.00000000000E+00 -0.13128316466E+02  0.13128316466E+02  0.00000000000E+00 0. -1.
         21    1    1    2  503  504 -0.18448902601E+02  0.11771356939E+02 -0.53188312081E+00  0.21890859988E+02  0.00000000000E+00 0. -1.
         21    1    1    2  504  501  0.18448902601E+02 -0.11771356939E+02  0.60542707496E+02  0.64376597319E+02  0.00000000000E+00 0. -1.
<mgrwt>
<rscale>  2 0.21884397E+02</rscale>
<asrwt>0</asrwt>
<pdfrwt beam="1">  1       21 0.11252175E-01 0.21884397E+02</pdfrwt>
<pdfrwt beam="2">  1       21 0.20197410E-02 0.21884397E+02</pdfrwt>
<totfact> 0.55723295E+07</totfact>
</mgrwt>
</event>
<event>
 4    1  0.9138221E+003  0.2588120E+02  0.7546771E-02  0.1648658E+00
         21   -1    0    0  502  501  0.00000000000E+00  0.00000000000E+00  0.99458481762E+02  0.99458481762E+02  0.00000000000E+00 0.  1.
         21   -1    0    0  503  502 -0.00000000000E+00 -0.00000000000E+00 -0.88170235218E+01  0.88170235218E+01  0.00000000000E+00 0.  1.
         21    1    1    2  503  504 -0.50333407912E+01 -0.25387040772E+02  0.71629427277E+02  0.76161743747E+02  0.00000000000E+00 0. -1.
         21    1    1    2  504  501  0.50333407912E+01  0.25387040772E+02  0.19012030963E+02  0.32113761536E+02  0.00000000000E+00 0. -1.
<mgrwt>
<rscale>  2 0.25881197E+02</rscale>
<asrwt>0</asrwt>
<pdfrwt beam="1">  1       21 0.15301304E-01 0.25881197E+02</pdfrwt>
<pdfrwt beam="2">  1       21 0.13564652E-02 0.25881197E+02</pdfrwt>
<totfact> 0.63576271E+07</totfact>
</mgrwt>
</event>
<event>
 4    1  0.9138221E+003  0.2078285E+02  0.7546771E-02  0.1730194E+00
         21   -1    0    0  503  501  0.00000000000E+00  0.00000000000E+00  0.40385128411E+02  0.40385128411E+02  0.00000000000E+00 0.  1.
         21   -1    0    0  501  502 -0.00000000000E+00 -0.00000000000E+00 -0.17838435221E+02  0.17838435221E+02  0.00000000000E+00 0.  1.
         21    1    1    2  503  504 -0.20512557624E+02  0.33409396943E+01 -0.71487044430E+01  0.21977963362E+02  0.00000000000E+00 0.  1.
         21    1    1    2  504  502  0.20512557624E+02 -0.33409396943E+01  0.29695397633E+02  0.36245600270E+02  0.00000000000E+00 0.  1.
<mgrwt>
<rscale>  2 0.20782851E+02</rscale>
<asrwt>0</asrwt>
<pdfrwt beam="1">  1       21 0.62130967E-02 0.20782851E+02</pdfrwt>
<pdfrwt beam="2">  1       21 0.27443746E-02 0.20782851E+02</pdfrwt>
<totfact> 0.90313465E+07</totfact>
</mgrwt>
</event>
<event>
 4    1  0.9138221E+003  0.2827860E+02  0.7546771E-02  0.1617935E+00
         21   -1    0    0  503  501  0.00000000000E+00  0.00000000000E+00  0.68548669434E+01  0.68548669434E+01  0.00000000000E+00 0. -1.
         21   -1    0    0  501  502 -0.00000000000E+00 -0.00000000000E+00 -0.16152624756E+03  0.16152624756E+03  0.00000000000E+00 0. -1.
         21    1    1    2  503  504 -0.30208873174E+01 -0.28116780377E+02 -0.12170764285E+03  0.12494970759E+03  0.00000000000E+00 0. -1.
         21    1    1    2  504  502  0.30208873174E+01  0.28116780377E+02 -0.32963737770E+02  0.43431406916E+02  0.00000000000E+00 0. -1.
<mgrwt>
<rscale>  2 0.28278598E+02</rscale>
<asrwt>0</asrwt>
<pdfrwt beam="1">  1       21 0.10545950E-02 0.28278598E+02</pdfrwt>
<pdfrwt beam="2">  1       21 0.24850189E-01 0.28278598E+02</pdfrwt>
<totfact> 0.40625470E+07</totfact>
</mgrwt>
</event>
<event>
 4    1  0.9138221E+003  0.2139369E+02  0.7546771E-02  0.1718954E+00
         21   -1    0    0  503  501  0.00000000000E+00  0.00000000000E+00  0.77702833007E+01  0.77702833007E+01  0.00000000000E+00 0. -1.
         21   -1    0    0  501  502 -0.00000000000E+00 -0.00000000000E+00 -0.11190583414E+03  0.11190583414E+03  0.00000000000E+00 0. -1.
         21    1    1    2  503  504 -0.11176772844E+02 -0.18241979095E+02 -0.93249281942E+02  0.95671932328E+02  0.00000000000E+00 0. -1.
         21    1    1    2  504  502  0.11176772844E+02  0.18241979095E+02 -0.10886268899E+02  0.24004185115E+02  0.00000000000E+00 0. -1.
<mgrwt>
<rscale>  2 0.21393692E+02</rscale>
<asrwt>0</asrwt>
<pdfrwt beam="1">  1       21 0.11954281E-02 0.21393692E+02</pdfrwt>
<pdfrwt beam="2">  1       21 0.17216283E-01 0.21393692E+02</pdfrwt>
<totfact> 0.59889904E+07</totfact>
</mgrwt>
</event>
<event>
 4    1  0.9138221E+003  0.2012474E+02  0.7546771E-02  0.1742859E+00
         21   -1    0    0  502  501  0.00000000000E+00  0.00000000000E+00  0.40256019544E+01  0.40256019544E+01  0.00000000000E+00 0. -1.
         21   -1    0    0  503  502 -0.00000000000E+00 -0.00000000000E+00 -0.19493573996E+03  0.19493573996E+03  0.00000000000E+00 0. -1.
         21    1    1    2  503  504  0.76211634179E+01 -0.18625874783E+02 -0.26253798551E+02  0.33079711027E+02  0.00000000000E+00 0. -1.
         21    1    1    2  504  501 -0.76211634179E+01  0.18625874783E+02 -0.16465633945E+03  0.16588163089E+03  0.00000000000E+00 0. -1.
<mgrwt>
<rscale>  2 0.20124745E+02</rscale>
<asrwt>0</asrwt>
<pdfrwt beam="1">  1       21 0.61932355E-03 0.20124745E+02</pdfrwt>
<pdfrwt beam="2">  1       21 0.29990105E-01 0.20124745E+02</pdfrwt>
<totfact> 0.59142265E+07</totfact>
</mgrwt>
</event>
<event>
 4    1  0.9138221E+003  0.2276487E+02  0.7546771E-02  0.1695350E+00
         21   -1    0    0  502  501  0.00000000000E+00  0.00000000000E+00  0.84278137854E+02  0.84278137854E+02  0.00000000000E+00 0.  1.
         21   -1    0    0  504  502 -0.00000000000E+00 -0.00000000000E+00 -0.16177867477E+02  0.16177867477E+02  0.00000000000E+00 0.  1.
         21    1    1    2  503  501  0.39225477646E+01 -0.22424384462E+02 -0.54963458598E+01  0.23418992662E+02  0.00000000000E+00 0. -1.
         21    1    1    2  504  503 -0.39225477646E+01  0.22424384462E+02  0.73596616237E+02  0.77037012669E+02  0.00000000000E+00 0. -1.
<mgrwt>
<rscale>  2 0.22764872E+02</rscale>
<asrwt>0</asrwt>
<pdfrwt beam="1">  1       21 0.12965867E-01 0.22764872E+02</pdfrwt>
<pdfrwt beam="2">  1       21 0.24889027E-02 0.22764872E+02</pdfrwt>
<totfact> 0.32194354E+07</totfact>
</mgrwt>
</event>
<event>
 4    1  0.9138221E+003  0.2241287E+02  0.7546771E-02  0.1701208E+00
         21   -1    0    0  503  501  0.00000000000E+00  0.00000000000E+00  0.14958110098E+01  0.14958110098E+01  0.00000000000E+00 0. -1.
         21   -1    0    0  501  502 -0.00000000000E+00 -0.00000000000E+00 -0.57340501475E+03  0.57340501475E+03  0.00000000000E+00 0. -1.
         21    1    1    2  503  504  0.16819006829E+02  0.14814113864E+02 -0.47098084908E+03  0.47151383560E+03  0.00000000000E+00 0. -1.
         21    1    1    2  504  502 -0.16819006829E+02 -0.14814113864E+02 -0.10092835466E+03  0.10338699016E+03  0.00000000000E+00 0. -1.
<mgrwt>
<rscale>  2 0.22412875E+02</rscale>
<asrwt>0</asrwt>
<pdfrwt beam="1">  1       21 0.23012470E-03 0.22412875E+02</pdfrwt>
<pdfrwt beam="2">  1       21 0.88216182E-01 0.22412875E+02</pdfrwt>
<totfact> 0.31327457E+07</totfact>
</mgrwt>
</event>
<event>
 4    1  0.9138221E+003  0.2050561E+02  0.7546771E-02  0.1735456E+00
         21   -1    0    0  503  501  0.00000000000E+00  0.00000000000E+00  0.50557989052E+02  0.50557989052E+02  0.00000000000E+00 0.  1.
         21   -1    0    0  501  502 -0.00000000000E+00 -0.00000000000E+00 -0.19763553856E+02  0.19763553856E+02  0.00000000000E+00 0.  1.
         21    1    1    2  503  504 -0.12607348878E+02  0.16172035412E+02 -0.11361624222E+02  0.23442834301E+02  0.00000000000E+00 0.  1.
         21    1    1    2  504  502  0.12607348878E+02 -0.16172035412E+02  0.42156059417E+02  0.46878708607E+02  0.00000000000E+00 0.  1.
<mgrwt>
<rscale>  2 0.20505608E+02</rscale>
<asrwt>0</asrwt>
<pdfrwt beam="1">  1       21 0.77781521E-02 0.20505608E+02</pdfrwt>
<pdfrwt beam="2">  1       21 0.30405468E-02 0.20505608E+02</pdfrwt>
<totfact> 0.53450377E+07</totfact>
</mgrwt>
</event>
<event>
 4    1  0.9138221E+003  0.2384908E+02  0.7546771E-02  0.1678105E+00
         21   -1    0    0  502  501  0.00000000000E+00  0.00000000000E+00  0.17745511363E+02  0.17745511363E+02  0.00000000000E+00 0. -1.
         21   -1    0    0  504  502 -0.00000000000E+00 -0.00000000000E+00 -0.77487281469E+02  0.77487281469E+02  0.00000000000E+00 0. -1.
         21    1    1    2  503  501  0.23758408337E+02 -0.20775984391E+01  0.65909167290E+01  0.24743050849E+02  0.00000000000E+00 0. -1.
         21    1    1    2  504  503 -0.23758408337E+02  0.20775984391E+01 -0.66332686835E+02  0.70489741983E+02  0.00000000000E+00 0. -1.
<mgrwt>
<rscale>  2 0.23849075E+02</rscale>
<asrwt>0</asrwt>
<pdfrwt beam="1">  1       21 0.27300787E-02 0.23849075E+02</pdfrwt>
<pdfrwt beam="2">  1       21 0.11921120E-01 0.23849075E+02</pdfrwt>
<totfact> 0.32484188E+07</totfact>
</mgrwt>
</event>
<event>
 4    1  0.9138221E+003  0.2520524E+02  0.7546771E-02  0.1658071E+00
         21   -1    0    0  502  501  0.00000000000E+00  0.00000000000E+00  0.85262343107E+01  0.85262343107E+01  0.00000000000E+00 0.  1.
         21   -1    0    0  503  502 -0.00000000000E+00 -0.00000000000E+00 -0.15155831344E+03  0.15155831344E+03  0.00000000000E+00 0.  1.
         21    1    1    2  503  504  0.17714576330E+02  0.17930368820E+02 -0.14446250041E+02  0.29051651947E+02  0.00000000000E+00 0.  1.
         21    1    1    2  504  501 -0.17714576330E+02 -0.17930368820E+02 -0.12858582909E+03  0.13103289581E+03  0.00000000000E+00 0.  1.
<mgrwt>
<rscale>  2 0.25205244E+02</rscale>
<asrwt>0</asrwt>
<pdfrwt beam="1">  1       21 0.13117284E-02 0.25205244E+02</pdfrwt>
<pdfrwt beam="2">  1       21 0.23316663E-01 0.25205244E+02</pdfrwt>
<totfact> 0.31896315E+07</totfact>
</mgrwt>
</event>
<event>
 4    1  0.9138221E+003  0.2079903E+02  0.7546771E-02  0.1729890E+00
         21   -1    0    0  502  501  0.00000000000E+00  0.00000000000E+00  0.34463186313E+02  0.34463186313E+02  0.00000000000E+00 0.  1.
         21   -1    0    0  504  502 -0.00000000000E+00 -0.00000000000E+00 -0.13959408616E+02  0.13959408616E+02  0.00000000000E+00 0.  1.
         21    1    1    2  503  501 -0.45852643988E+01 -0.20287309040E+02  0.17938159188E+02  0.27465926395E+02  0.00000000000E+00 0.  1.
         21    1    1    2  504  503  0.45852643988E+01  0.20287309040E+02  0.25656185087E+01  0.20956668534E+02  0.00000000000E+00 0.  1.
<mgrwt>
<rscale>  2 0.20799028E+02</rscale>
<asrwt>0</asrwt>
<pdfrwt beam="1">  1       21 0.53020286E-02 0.20799028E+02</pdfrwt>
<pdfrwt beam="2">  1       21 0.21476013E-02 0.20799028E+02</pdfrwt>
<totfact> 0.16968558E+08</totfact>
</mgrwt>
</event>
<event>
 4    1  0.9138221E+003  0.3008869E+02  0.7546771E-02  0.1597110E+00
         21   -1    0    0  502  501  0.00000000000E+00  0.00000000000E+00  0.30505321091E+01  0.30505321091E+01  0.00000000000E+00 0. -1.
         21   -1    0    0  504  502 -0.00000000000E+00 -0.00000000000E+00 -0.61884502006E+03  0.61884502006E+03  0.00000000000E+00 0. -1.
         21    1    1    2  503  501  0.18044957313E+02 -0.24077145116E+02 -0.83576237181E+02  0.88827455343E+02  0.00000000000E+00 0. -1.
         21    1    1    2  504  503 -0.18044957313E+02  0.24077145116E+02 -0.53221825077E+03  0.53306809683E+03  0.00000000000E+00 0. -1.
<mgrwt>
<rscale>  2 0.30088692E+02</rscale>
<asrwt>0</asrwt>
<pdfrwt beam="1">  1       21 0.46931268E-03 0.30088692E+02</pdfrwt>
<pdfrwt beam="2">  1       21 0.95206916E-01 0.30088692E+02</pdfrwt>
<totfact> 0.98326127E+06</totfact>
</mgrwt>
</event>
<event>
 4    1  0.9138221E+003  0.2258403E+02  0.7546771E-02  0.1698343E+00
         21   -1    0    0  504  501  0.00000000000E+00  0.00000000000E+00  0.48712889330E+03  0.48712889330E+03  0.00000000000E+00 0. -1.
         21   -1    0    0  501  502 -0.00000000000E+00 -0.00000000000E+00 -0.30280675742E+01  0.30280675742E+01  0.00000000000E+00 0. -1.
         21    1    1    2  503  502  0.97233984263E+01  0.20383668900E+02  0.43820685640E+02  0.49297980940E+02  0.00000000000E+00 0. -1.
         21    1    1    2  504  503 -0.97233984263E+01 -0.20383668900E+02  0.44028014008E+03  0.44085897993E+03  0.00000000000E+00 0. -1.
<mgrwt>
<rscale>  2 0.22584031E+02</rscale>
<asrwt>0</asrwt>
<pdfrwt beam="1">  1       21 0.74942845E-01 0.22584031E+02</pdfrwt>
<pdfrwt beam="2">  1       21 0.46585694E-03 0.22584031E+02</pdfrwt>
<totfact> 0.15794627E+07</totfact>
</mgrwt>
</event>
<event>
 4    1  0.9138221E+003  0.2035894E+02  0.7546771E-02  0.1738283E+00
         21   -1    0    0  502  501  0.00000000000E+00  0.00000000000E+00  0.11444586485E+01  0.11444586485E+01  0.00000000000E+00 0.  1.
         21   -1    0    0  503  502 -0.00000000000E+00 -0.00000000000E+00 -0.44334502497E+03  0.44334502497E+03  0.00000000000E+00 0.  1.
         21    1    1    2  503  504  0.83479785546E+00  0.20341821789E+02 -0.12600117677E+03  0.12763535227E+03  0.00000000000E+00 0. -1.
         21    1    1    2  504  501 -0.83479785546E+00 -0.20341821789E+02 -0.31619938955E+03  0.31685413135E+03  0.00000000000E+00 0. -1.
<mgrwt>
<rscale>  2 0.20358944E+02</rscale>
<asrwt>0</asrwt>
<pdfrwt beam="1">  1       21 0.17607072E-03 0.20358944E+02</pdfrwt>
<pdfrwt beam="2">  1       21 0.68206865E-01 0.20358944E+02</pdfrwt>
<totfact> 0.76919397E+07</totfact>
</mgrwt>
</event>
<event>
 4    1  0.9138221E+003  0.2024713E+02  0.7546771E-02  0.1740458E+00
         21   -1    0    0  502  501  0.00000000000E+00  0.00000000000E+00  0.28061623782E+03  0.28061623782E+03  0.00000000000E+00 0. -1.
         21   -1    0    0  503  502 -0.00000000000E+00 -0.00000000000E+00 -0.16058576537E+01  0.16058576537E+01  0.00000000000E+00 0. -1.
         21    1    1    2  503  504  0.11573957945E+02  0.16612941765E+02  0.97105791433E+02  0.99194158429E+02  0.00000000000E+00 0. -1.
         21    1    1    2  504  501 -0.11573957945E+02 -0.16612941765E+02  0.18190458873E+03  0.18302793704E+03  0.00000000000E+00 0. -1.
<mgrwt>
<rscale>  2 0.20247132E+02</rscale>
<asrwt>0</asrwt>
<pdfrwt beam="1">  1       21 0.43171690E-01 0.20247132E+02</pdfrwt>
<pdfrwt beam="2">  1       21 0.24705525E-03 0.20247132E+02</pdfrwt>
<totfact> 0.11553654E+08</totfact>
</mgrwt>
</event>
<event>
 4    1  0.9138221E+003  0.2049133E+02  0.7546771E-02  0.1735730E+00
         21   -1    0    0  503  501  0.00000000000E+00  0.00000000000E+00  0.19325935530E+01  0.19325935530E+01  0.00000000000E+00 0. -1.
         21   -1    0    0  501  502 -0.00000000000E+00 -0.00000000000E+00 -0.31724139252E+03  0.31724139252E+03  0.00000000000E+00 0. -1.
         21    1    1    2  503  504 -0.12952542368E+02 -0.15878482899E+02 -0.24724046647E+03  0.24808817552E+03  0.00000000000E+00 0. -1.
         21    1    1    2  504  502  0.12952542368E+02  0.15878482899E+02 -0.68068332501E+02  0.71085810556E+02  0.00000000000E+00 0. -1.
<mgrwt>
<rscale>  2 0.20491329E+02</rscale>
<asrwt>0</asrwt>
<pdfrwt beam="1">  1       21 0.29732221E-03 0.20491329E+02</pdfrwt>
<pdfrwt beam="2">  1       21 0.48806347E-01 0.20491329E+02</pdfrwt>
<totfact> 0.70133248E+07</totfact>
</mgrwt>
</event>
<event>
 4    1  0.9138221E+003  0.2211821E+02  0.7546771E-02  0.1706216E+00
         21   -1    0    0  504  501  0.00000000000E+00  0.00000000000E+00  0.21015893398E+03  0.21015893398E+03  0.00000000000E+00 0.  1.
         21   -1    0    0  501  502 -0.00000000000E+00 -0.00000000000E+00 -0.28795976616E+01  0.28795976616E+01  0.00000000000E+00 0.  1.
         21    1    1    2  503  502 -0.12666032795E+01 -0.22081909680E+02  0.57012506446E+02  0.61152603463E+02  0.00000000000E+00 0. -1.
         21    1    1    2  504  503  0.12666032795E+01  0.22081909680E+02  0.15026682987E+03  0.15188592817E+03  0.00000000000E+00 0. -1.
<mgrwt>
<rscale>  2 0.22118206E+02</rscale>
<asrwt>0</asrwt>
<pdfrwt beam="1">  1       21 0.32332132E-01 0.22118206E+02</pdfrwt>
<pdfrwt beam="2">  1       21 0.44301519E-03 0.22118206E+02</pdfrwt>
<totfact> 0.86602857E+07</totfact>
</mgrwt>
</event>
<event>
 4    1  0.9138221E+003  0.2386445E+02  0.7546771E-02  0.1677869E+00
         21   -1    0    0  502  501  0.00000000000E+00  0.00000000000E+00  0.22478823778E+01  0.22478823778E+01  0.00000000000E+00 0. -1.
         21   -1    0    0  504  502 -0.00000000000E+00 -0.00000000000E+00 -0.28552156894E+03  0.28552156894E+03  0.00000000000E+00 0. -1.
         21    1    1    2  503  501 -0.21327168102E+02  0.10708131717E+02 -0.93342332706E+02  0.96344710592E+02  0.00000000000E+00 0.  1.
         21    1    1    2  504  503  0.21327168102E+02 -0.10708131717E+02 -0.18993135386E+03  0.19142474073E+03  0.00000000000E+00 0.  1.
<mgrwt>
<rscale>  2 0.23864454E+02</rscale>
<asrwt>0</asrwt>
<pdfrwt beam="1">  1       21 0.34582821E-03 0.23864454E+02</pdfrwt>
<pdfrwt beam="2">  1       21 0.43926376E-01 0.23864454E+02</pdfrwt>
<totfact> 0.71583180E+07</totfact>
</mgrwt>
</event>
<event>
 4    1  0.9138221E+003  0.3299043E+02  0.7546771E-02  0.1567206E+00
         21   -1    0    0  502  501  0.00000000000E+00  0.00000000000E+00  0.25567054236E+01  0.25567054236E+01  0.00000000000E+00 0. -1.
         21   -1    0    0  504  502 -0.00000000000E+00 -0.00000000000E+00 -0.89990172111E+03  0.89990172111E+03  0.00000000000E+00 0. -1.
         21    1    1    2  503  501 -0.27807256802E+02  0.17751756803E+02 -0.77622809325E+03  0.77692883918E+03  0.00000000000E+00 0. -1.
         21    1    1    2  504  503  0.27807256802E+02 -0.17751756803E+02 -0.12111692244E+03  0.12552958735E+03  0.00000000000E+00 0. -1.
<mgrwt>
<rscale>  2 0.32990429E+02</rscale>
<asrwt>0</asrwt>
<pdfrwt beam="1">  1       21 0.39333995E-03 0.32990429E+02</pdfrwt>
<pdfrwt beam="2">  1       21 0.13844619E+00 0.32990429E+02</pdfrwt>
<totfact> 0.54978691E+06</totfact>
</mgrwt>
</event>
<event>
 4    1  0.9138221E+003  0.2208245E+02  0.7546771E-02  0.1706830E+00
         21   -1    0    0  502  501  0.00000000000E+00  0.00000000000E+00  0.20891724085E+01  0.20891724085E+01  0.00000000000E+00 0. -1.
         21   -1    0    0  503  502 -0.00000000000E+00 -0.00000000000E+00 -0.27942492896E+03  0.27942492896E+03  0.00000000000E+00 0. -1.
         21    1    1    2  503  504  0.22080803813E+02 -0.26930025983E+00 -0.19578751123E+03  0.19702889122E+03  0.00000000000E+00 0.  1.
         21    1    1    2  504  501 -0.22080803813E+02  0.26930025983E+00 -0.81548245315E+02  0.84485210147E+02  0.00000000000E+00 0.  1.
<mgrwt>
<rscale>  2 0.22082446E+02</rscale>
<asrwt>0</asrwt>
<pdfrwt beam="1">  1       21 0.32141125E-03 0.22082446E+02</pdfrwt>
<pdfrwt beam="2">  1       21 0.42988435E-01 0.22082446E+02</pdfrwt>
<totfact> 0.81391993E+07</totfact>
</mgrwt>
</event>
<event>
 4    1  0.9138221E+003  0.2401246E+02  0.7546771E-02  0.1675605E+00
         21   -1    0    0  504  501  0.00000000000E+00  0.00000000000E+00  0.59559891357E+03  0.59559891357E+03  0.00000000000E+00 0.  1.
         21   -1    0    0  501  502 -0.00000000000E+00 -0.00000000000E+00 -0.13474601237E+01  0.13474601237E+01  0.00000000000E+00 0.  1.
         21    1    1    2  503  502 -0.21576944177E+02 -0.10537249999E+02  0.45549623362E+03  0.45612872854E+03  0.00000000000E+00 0. -1.
         21    1    1    2  504  503  0.21576944177E+02  0.10537249999E+02  0.13875521983E+03  0.14081764515E+03  0.00000000000E+00 0. -1.
<mgrwt>
<rscale>  2 0.24012458E+02</rscale>
<asrwt>0</asrwt>
<pdfrwt beam="1">  1       21 0.91630392E-01 0.24012458E+02</pdfrwt>
<pdfrwt beam="2">  1       21 0.20730203E-03 0.24012458E+02</pdfrwt>
<totfact> 0.34074427E+07</totfact>
</mgrwt>
</event>
<event>
 4    1  0.9138221E+003  0.2894861E+02  0.7546771E-02  0.1610010E+00
         21   -1    0    0  504  501  0.00000000000E+00  0.00000000000E+00  0.74247585779E+01  0.74247585779E+01  0.00000000000E+00 0.  1.
         21   -1    0    0  501  502 -0.00000000000E+00 -0.00000000000E+00 -0.13019710156E+03  0.13019710156E+03  0.00000000000E+00 0.  1.
         21    1    1    2  503  502 -0.28276954894E+02 -0.61996518824E+01 -0.36282474319E+02  0.46415943427E+02  0.00000000000E+00 0. -1.
         21    1    1    2  504  503  0.28276954894E+02  0.61996518824E+01 -0.86489868659E+02  0.91205916706E+02  0.00000000000E+00 0. -1.
<mgrwt>
<rscale>  2 0.28948607E+02</rscale>
<asrwt>0</asrwt>
<pdfrwt beam="1">  1       21 0.11422707E-02 0.28948607E+02</pdfrwt>
<pdfrwt beam="2">  1       21 0.20030320E-01 0.28948607E+02</pdfrwt>
<totfact> 0.53093084E+07</totfact>
</mgrwt>
</event>
<event>
 4    1  0.9138221E+003  0.2807486E+02  0.7546771E-02  0.1620398E+00
         21   -1    0    0  502  501  0.00000000000E+00  0.00000000000E+00  0.22523363378E+03  0.22523363378E+03  0.00000000000E+00 0.  1.
         21   -1    0    0  504  502 -0.00000000000E+00 -0.00000000000E+00 -0.66156071629E+01  0.66156071629E+01  0.00000000000E+00 0.  1.
         21    1    1    2  503  501 -0.13093470325E+01 -0.28044311211E+02  0.29748186901E+02  0.40904185665E+02  0.00000000000E+00 0.  1.
         21    1    1    2  504  503  0.13093470325E+01  0.28044311211E+02  0.18886983971E+03  0.19094505528E+03  0.00000000000E+00 0.  1.
<mgrwt>
<rscale>  2 0.28074860E+02</rscale>
<asrwt>0</asrwt>
<pdfrwt beam="1">  1       21 0.34651322E-01 0.28074860E+02</pdfrwt>
<pdfrwt beam="2">  1       21 0.10177859E-02 0.28074860E+02</pdfrwt>
<totfact> 0.23292858E+07</totfact>
</mgrwt>
</event>
<event>
 4    1  0.9138221E+003  0.2150078E+02  0.7546771E-02  0.1717032E+00
         21   -1    0    0  504  501  0.00000000000E+00  0.00000000000E+00  0.90731724840E+02  0.90731724840E+02  0.00000000000E+00 0.  1.
         21   -1    0    0  501  502 -0.00000000000E+00 -0.00000000000E+00 -0.10198033102E+02  0.10198033102E+02  0.00000000000E+00 0.  1.
         21    1    1    2  503  502 -0.20858158802E+02 -0.52173423165E+01  0.45689408988E+01  0.21980870556E+02  0.00000000000E+00 0. -1.
         21    1    1    2  504  503  0.20858158802E+02  0.52173423165E+01  0.75964750839E+02  0.78948887386E+02  0.00000000000E+00 0. -1.
<mgrwt>
<rscale>  2 0.21500778E+02</rscale>
<asrwt>0</asrwt>
<pdfrwt beam="1">  1       21 0.13958726E-01 0.21500778E+02</pdfrwt>
<pdfrwt beam="2">  1       21 0.15689282E-02 0.21500778E+02</pdfrwt>
<totfact> 0.56812057E+07</totfact>
</mgrwt>
</event>
<event>
 4    1  0.9138221E+003  0.2863573E+02  0.7546771E-02  0.1613678E+00
         21   -1    0    0  502  501  0.00000000000E+00  0.00000000000E+00  0.95562597099E+00  0.95562597099E+00  0.00000000000E+00 0.  1.
         21   -1    0    0  504  502 -0.00000000000E+00 -0.00000000000E+00 -0.98204885725E+03  0.98204885725E+03  0.00000000000E+00 0.  1.
         21    1    1    2  503  501 -0.25608694238E+02 -0.12814055047E+02 -0.66517391966E+03  0.66579001841E+03  0.00000000000E+00 0. -1.
         21    1    1    2  504  503  0.25608694238E+02  0.12814055047E+02 -0.31591931162E+03  0.31721446481E+03  0.00000000000E+00 0. -1.
<mgrwt>
<rscale>  2 0.28635733E+02</rscale>
<asrwt>0</asrwt>
<pdfrwt beam="1">  1       21 0.14701930E-03 0.28635733E+02</pdfrwt>
<pdfrwt beam="2">  1       21 0.15108452E+00 0.28635733E+02</pdfrwt>
<totfact> 0.18515313E+07</totfact>
</mgrwt>
</event>
<event>
 4    1  0.9138221E+003  0.2537957E+02  0.7546771E-02  0.1655609E+00
         21   -1    0    0  502  501  0.00000000000E+00  0.00000000000E+00  0.16934670195E+01  0.16934670195E+01  0.00000000000E+00 0.  1.
         21   -1    0    0  504  502 -0.00000000000E+00 -0.00000000000E+00 -0.48593727246E+03  0.48593727246E+03  0.00000000000E+00 0.  1.
         21    1    1    2  503  501  0.23009869964E+02  0.10708328534E+02 -0.35576992971E+03  0.35667403228E+03  0.00000000000E+00 0.  1.
         21    1    1    2  504  503 -0.23009869964E+02 -0.10708328534E+02 -0.12847387573E+03  0.13095670720E+03  0.00000000000E+00 0.  1.
<mgrwt>
<rscale>  2 0.25379567E+02</rscale>
<asrwt>0</asrwt>
<pdfrwt beam="1">  1       21 0.26053357E-03 0.25379567E+02</pdfrwt>
<pdfrwt beam="2">  1       21 0.74759528E-01 0.25379567E+02</pdfrwt>
<totfact> 0.38041849E+07</totfact>
</mgrwt>
</event>
<event>
 4    1  0.9138221E+003  0.2017606E+02  0.7546771E-02  0.1741849E+00
         21   -1    0    0  502  501  0.00000000000E+00  0.00000000000E+00  0.38686828826E+03  0.38686828826E+03  0.00000000000E+00 0. -1.
         21   -1    0    0  504  502 -0.00000000000E+00 -0.00000000000E+00 -0.23500686350E+01  0.23500686350E+01  0.00000000000E+00 0. -1.
         21    1    1    2  503  501 -0.15733867656E+02 -0.12630074202E+02  0.47637280424E+02  0.51733778636E+02  0.00000000000E+00 0. -1.
         21    1    1    2  504  503  0.15733867656E+02  0.12630074202E+02  0.33688093920E+03  0.33748457826E+03  0.00000000000E+00 0. -1.
<mgrwt>
<rscale>  2 0.20176059E+02</rscale>
<asrwt>0</asrwt>
<pdfrwt beam="1">  1       21 0.59518148E-01 0.20176059E+02</pdfrwt>
<pdfrwt beam="2">  1       21 0.36154933E-03 0.20176059E+02</pdfrwt>
<totfact> 0.35667739E+07</totfact>
</mgrwt>
</event>
<event>
 4    1  0.9138221E+003  0.6258735E+02  0.7546771E-02  0.1387284E+00
         21   -1    0    0  502  501  0.00000000000E+00  0.00000000000E+00  0.89460256091E+03  0.89460256091E+03  0.00000000000E+00 0. -1.
         21   -1    0    0  504  502 -0.00000000000E+00 -0.00000000000E+00 -0.72675027522E+01  0.72675027522E+01  0.00000000000E+00 0. -1.
         21    1    1    2  503  501  0.59119834818E+02  0.20543150287E+02  0.72797091172E+03  0.73065643377E+03  0.00000000000E+00 0.  1.
         21    1    1    2  504  503 -0.59119834818E+02 -0.20543150287E+02  0.15936414644E+03  0.17121362990E+03  0.00000000000E+00 0.  1.
<mgrwt>
<rscale>  2 0.62587346E+02</rscale>
<asrwt>0</asrwt>
<pdfrwt beam="1">  1       21 0.13763108E+00 0.62587346E+02</pdfrwt>
<pdfrwt beam="2">  1       21 0.11180781E-02 0.62587346E+02</pdfrwt>
<totfact> 0.11824919E+06</totfact>
</mgrwt>
</event>
<event>
 4    1  0.9138221E+003  0.2344725E+02  0.7546771E-02  0.1684361E+00
         21   -1    0    0  503  501  0.00000000000E+00  0.00000000000E+00  0.79656826334E+01  0.79656826334E+01  0.00000000000E+00 0.  1.
         21   -1    0    0  501  502 -0.00000000000E+00 -0.00000000000E+00 -0.14270894714E+03  0.14270894714E+03  0.00000000000E+00 0.  1.
         21    1    1    2  503  504  0.22332586167E+02 -0.71434706276E+01 -0.12150839854E+03  0.12375000806E+03  0.00000000000E+00 0. -1.
         21    1    1    2  504  502 -0.22332586167E+02  0.71434706276E+01 -0.13234865964E+02  0.26924621717E+02  0.00000000000E+00 0. -1.
<mgrwt>
<rscale>  2 0.23447251E+02</rscale>
<asrwt>0</asrwt>
<pdfrwt beam="1">  1       21 0.12254896E-02 0.23447251E+02</pdfrwt>
<pdfrwt beam="2">  1       21 0.21955223E-01 0.23447251E+02</pdfrwt>
<totfact> 0.38686003E+07</totfact>
</mgrwt>
</event>
<event>
 4    1  0.9138221E+003  0.2683637E+02  0.7546771E-02  0.1635945E+00
         21   -1    0    0  502  501  0.00000000000E+00  0.00000000000E+00  0.92511082498E+03  0.92511082498E+03  0.00000000000E+00 0.  1.
         21   -1    0    0  503  502 -0.00000000000E+00 -0.00000000000E+00 -0.95157840865E+00  0.95157840865E+00  0.00000000000E+00 0.  1.
         21    1    1    2  503  504  0.81280440613E+01 -0.25575875419E+02  0.65955849375E+03  0.66010423206E+03  0.00000000000E+00 0.  1.
         21    1    1    2  504  501 -0.81280440613E+01  0.25575875419E+02  0.26460075282E+03  0.26595817133E+03  0.00000000000E+00 0.  1.
<mgrwt>
<rscale>  2 0.26836365E+02</rscale>
<asrwt>0</asrwt>
<pdfrwt beam="1">  1       21 0.14232402E+00 0.26836365E+02</pdfrwt>
<pdfrwt beam="2">  1       21 0.14639742E-03 0.26836365E+02</pdfrwt>
<totfact> 0.21275144E+07</totfact>
</mgrwt>
</event>
<event>
 4    1  0.9138221E+003  0.2938945E+02  0.7546771E-02  0.1604937E+00
         21   -1    0    0  504  501  0.00000000000E+00  0.00000000000E+00  0.45543614071E+03  0.45543614071E+03  0.00000000000E+00 0.  1.
         21   -1    0    0  501  502 -0.00000000000E+00 -0.00000000000E+00 -0.22884215727E+01  0.22884215727E+01  0.00000000000E+00 0.  1.
         21    1    1    2  503  502  0.69647080560E+01 -0.28552283700E+02  0.13186312732E+03  0.13509857294E+03  0.00000000000E+00 0.  1.
         21    1    1    2  504  503 -0.69647080560E+01  0.28552283700E+02  0.32128459182E+03  0.32262598935E+03  0.00000000000E+00 0.  1.
<mgrwt>
<rscale>  2 0.29389455E+02</rscale>
<asrwt>0</asrwt>
<pdfrwt beam="1">  1       21 0.70067027E-01 0.29389455E+02</pdfrwt>
<pdfrwt beam="2">  1       21 0.35206522E-03 0.29389455E+02</pdfrwt>
<totfact> 0.28799251E+07</totfact>
</mgrwt>
</event>
<event>
 4    1  0.9138221E+003  0.2068929E+02  0.7546771E-02  0.1731958E+00
         21   -1    0    0  504  501  0.00000000000E+00  0.00000000000E+00  0.68652936922E+01  0.68652936922E+01  0.00000000000E+00 0.  1.
         21   -1    0    0  501  502 -0.00000000000E+00 -0.00000000000E+00 -0.93914873531E+02  0.93914873531E+02  0.00000000000E+00 0.  1.
         21    1    1    2  503  502  0.25870101142E+01 -0.20526908800E+02 -0.72738343025E+02  0.75623496033E+02  0.00000000000E+00 0. -1.
         21    1    1    2  504  503 -0.25870101142E+01  0.20526908800E+02 -0.14311236814E+02  0.25156671190E+02  0.00000000000E+00 0. -1.
<mgrwt>
<rscale>  2 0.20689287E+02</rscale>
<asrwt>0</asrwt>
<pdfrwt beam="1">  1       21 0.10561991E-02 0.20689287E+02</pdfrwt>
<pdfrwt beam="2">  1       21 0.14448441E-01 0.20689287E+02</pdfrwt>
<totfact> 0.96326453E+07</totfact>
</mgrwt>
</event>
<event>
 4    1  0.9138221E+003  0.2344583E+02  0.7546771E-02  0.1684384E+00
         21   -1    0    0  502  501  0.00000000000E+00  0.00000000000E+00  0.46148389796E+02  0.46148389796E+02  0.00000000000E+00 0.  1.
         21   -1    0    0  504  502 -0.00000000000E+00 -0.00000000000E+00 -0.17377478869E+02  0.17377478869E+02  0.00000000000E+00 0.  1.
         21    1    1    2  503  501 -0.41173962118E+01  0.23081466902E+02  0.32199074051E+02  0.39830734812E+02  0.00000000000E+00 0.  1.
         21    1    1    2  504  503  0.41173962118E+01 -0.23081466902E+02 -0.34281631239E+01  0.23695133853E+02  0.00000000000E+00 0.  1.
<mgrwt>
<rscale>  2 0.23445833E+02</rscale>
<asrwt>0</asrwt>
<pdfrwt beam="1">  1       21 0.70997522E-02 0.23445833E+02</pdfrwt>
<pdfrwt beam="2">  1       21 0.26734583E-02 0.23445833E+02</pdfrwt>
<totfact> 0.78485575E+07</totfact>
</mgrwt>
</event>
<event>
 4    1  0.9138221E+003  0.4849168E+02  0.7546771E-02  0.1453651E+00
         21   -1    0    0  504  501  0.00000000000E+00  0.00000000000E+00  0.82708261669E+01  0.82708261669E+01  0.00000000000E+00 0. -1.
         21   -1    0    0  501  502 -0.00000000000E+00 -0.00000000000E+00 -0.37516757490E+03  0.37516757490E+03  0.00000000000E+00 0. -1.
         21    1    1    2  503  502  0.46831127489E+02  0.12581281661E+02 -0.27779878000E+03  0.28199930021E+03  0.00000000000E+00 0.  1.
         21    1    1    2  504  503 -0.46831127489E+02 -0.12581281661E+02 -0.89097968739E+02  0.10143910086E+03  0.00000000000E+00 0.  1.
<mgrwt>
<rscale>  2 0.48491681E+02</rscale>
<asrwt>0</asrwt>
<pdfrwt beam="1">  1       21 0.12724346E-02 0.48491681E+02</pdfrwt>
<pdfrwt beam="2">  1       21 0.57718098E-01 0.48491681E+02</pdfrwt>
<totfact> 0.66050824E+06</totfact>
</mgrwt>
</event>
<event>
 4    1  0.9138221E+003  0.3107924E+02  0.7546771E-02  0.1586457E+00
         21   -1    0    0  504  501  0.00000000000E+00  0.00000000000E+00  0.69691631685E+01  0.69691631685E+01  0.00000000000E+00 0.  1.
         21   -1    0    0  501  502 -0.00000000000E+00 -0.00000000000E+00 -0.21812454310E+03  0.21812454310E+03  0.00000000000E+00 0.  1.
         21    1    1    2  503  502  0.30245500884E+02  0.71504481783E+01 -0.37620668167E+02  0.48797888338E+02  0.00000000000E+00 0.  1.
         21    1    1    2  504  503 -0.30245500884E+02 -0.71504481783E+01 -0.17353471177E+03  0.17629581793E+03  0.00000000000E+00 0.  1.
<mgrwt>
<rscale>  2 0.31079241E+02</rscale>
<asrwt>0</asrwt>
<pdfrwt beam="1">  1       21 0.10721788E-02 0.31079241E+02</pdfrwt>
<pdfrwt beam="2">  1       21 0.33557627E-01 0.31079241E+02</pdfrwt>
<totfact> 0.23285959E+07</totfact>
</mgrwt>
</event>
<event>
 4    1  0.9138221E+003  0.2503808E+02  0.7546771E-02  0.1660456E+00
         21   -1    0    0  502  501  0.00000000000E+00  0.00000000000E+00  0.27126036338E+02  0.27126036338E+02  0.00000000000E+00 0.  1.
         21   -1    0    0  503  502 -0.00000000000E+00 -0.00000000000E+00 -0.37704678539E+02  0.37704678539E+02  0.00000000000E+00 0.  1.
         21    1    1    2  503  504 -0.20615105282E+02 -0.14209952106E+02  0.14877528593E+02  0.29124665864E+02  0.00000000000E+00 0.  1.
         21    1    1    2  504  501  0.20615105282E+02  0.14209952106E+02 -0.25456170794E+02  0.35706049013E+02  0.00000000000E+00 0.  1.
<mgrwt>
<rscale>  2 0.25038077E+02</rscale>
<asrwt>0</asrwt>
<pdfrwt beam="1">  1       21 0.41732363E-02 0.25038077E+02</pdfrwt>
<pdfrwt beam="2">  1       21 0.58007198E-02 0.25038077E+02</pdfrwt>
<totfact> 0.55073504E+07</totfact>
</mgrwt>
</event>
<event>
 4    1  0.9138221E+003  0.2705236E+02  0.7546771E-02  0.1633160E+00
         21   -1    0    0  504  501  0.00000000000E+00  0.00000000000E+00  0.10097889784E+03  0.10097889784E+03  0.00000000000E+00 0. -1.
         21   -1    0    0  501  502 -0.00000000000E+00 -0.00000000000E+00 -0.80292516357E+01  0.80292516357E+01  0.00000000000E+00 0. -1.
         21    1    1    2  503  502 -0.24359645319E+02  0.11765956281E+02  0.29466333076E+02  0.40001185386E+02  0.00000000000E+00 0. -1.
         21    1    1    2  504  503  0.24359645319E+02 -0.11765956281E+02  0.63483313132E+02  0.69006964095E+02  0.00000000000E+00 0. -1.
<mgrwt>
<rscale>  2 0.27052358E+02</rscale>
<asrwt>0</asrwt>
<pdfrwt beam="1">  1       21 0.15535214E-01 0.27052358E+02</pdfrwt>
<pdfrwt beam="2">  1       21 0.12352696E-02 0.27052358E+02</pdfrwt>
<totfact> 0.72187651E+07</totfact>
</mgrwt>
</event>
<event>
 4    1  0.9138221E+003  0.4478380E+02  0.7546771E-02  0.1475696E+00
         21   -1    0    0  504  501  0.00000000000E+00  0.00000000000E+00  0.41180867363E+02  0.41180867363E+02  0.00000000000E+00 0. -1.
         21   -1    0    0  501  502 -0.00000000000E+00 -0.00000000000E+00 -0.54553294316E+02  0.54553294316E+02  0.00000000000E+00 0. -1.
         21    1    1    2  503  502 -0.15629601700E+02  0.41967897722E+02 -0.22362888962E+02  0.50056844599E+02  0.00000000000E+00 0. -1.
         21    1    1    2  504  503  0.15629601700E+02 -0.41967897722E+02  0.89904620087E+01  0.45677317080E+02  0.00000000000E+00 0. -1.
<mgrwt>
<rscale>  2 0.44783802E+02</rscale>
<asrwt>0</asrwt>
<pdfrwt beam="1">  1       21 0.63355181E-02 0.44783802E+02</pdfrwt>
<pdfrwt beam="2">  1       21 0.83928145E-02 0.44783802E+02</pdfrwt>
<totfact> 0.17115914E+07</totfact>
</mgrwt>
</event>
<event>
 4    1  0.9138221E+003  0.2445677E+02  0.7546771E-02  0.1668929E+00
         21   -1    0    0  504  501  0.00000000000E+00  0.00000000000E+00  0.80781271873E+02  0.80781271873E+02  0.00000000000E+00 0.  1.
         21   -1    0    0  501  502 -0.00000000000E+00 -0.00000000000E+00 -0.12842218061E+02  0.12842218061E+02  0.00000000000E+00 0.  1.
         21    1    1    2  503  502  0.17652840012E+02  0.16926635253E+02  0.35082094219E+01  0.24707109803E+02  0.00000000000E+00 0. -1.
         21    1    1    2  504  503 -0.17652840012E+02 -0.16926635253E+02  0.64430844391E+02  0.68916380131E+02  0.00000000000E+00 0. -1.
<mgrwt>
<rscale>  2 0.24456773E+02</rscale>
<asrwt>0</asrwt>
<pdfrwt beam="1">  1       21 0.12427888E-01 0.24456773E+02</pdfrwt>
<pdfrwt beam="2">  1       21 0.19757259E-02 0.24456773E+02</pdfrwt>
<totfact> 0.50238304E+07</totfact>
</mgrwt>
</event>
<event>
 4    1  0.9138221E+003  0.2308733E+02  0.7546771E-02  0.1690098E+00
         21   -1    0    0  503  501  0.00000000000E+00  0.00000000000E+00  0.30273821143E+03  0.30273821143E+03  0.00000000000E+00 0.  1.
         21   -1    0    0  501  502 -0.00000000000E+00 -0.00000000000E+00 -0.34758574462E+01  0.34758574462E+01  0.00000000000E+00 0.  1.
         21    1    1    2  503  504  0.60374045699E+00  0.23079438938E+02  0.25718323893E+03  0.25821743433E+03  0.00000000000E+00 0. -1.
         21    1    1    2  504  502 -0.60374045699E+00 -0.23079438938E+02  0.42079115052E+02  0.47996634547E+02  0.00000000000E+00 0. -1.
<mgrwt>
<rscale>  2 0.23087334E+02</rscale>
<asrwt>0</asrwt>
<pdfrwt beam="1">  1       21 0.46575089E-01 0.23087334E+02</pdfrwt>
<pdfrwt beam="2">  1       21 0.53474754E-03 0.23087334E+02</pdfrwt>
<totfact> 0.33442629E+07</totfact>
</mgrwt>
</event>
<event>
 4    1  0.9138221E+003  0.2485251E+02  0.7546771E-02  0.1663129E+00
         21   -1    0    0  504  501  0.00000000000E+00  0.00000000000E+00  0.57272346694E+02  0.57272346694E+02  0.00000000000E+00 0.  1.
         21   -1    0    0  501  502 -0.00000000000E+00 -0.00000000000E+00 -0.25077464146E+02  0.25077464146E+02  0.00000000000E+00 0.  1.
         21    1    1    2  503  502  0.89644420328E+01 -0.23179426925E+02  0.47182643425E+02  0.53327749756E+02  0.00000000000E+00 0.  1.
         21    1    1    2  504  503 -0.89644420328E+01  0.23179426925E+02 -0.14987760877E+02  0.29022061085E+02  0.00000000000E+00 0.  1.
<mgrwt>
<rscale>  2 0.24852506E+02</rscale>
<asrwt>0</asrwt>
<pdfrwt beam="1">  1       21 0.88111302E-02 0.24852506E+02</pdfrwt>
<pdfrwt beam="2">  1       21 0.38580714E-02 0.24852506E+02</pdfrwt>
<totfact> 0.31530311E+07</totfact>
</mgrwt>
</event>
<event>
 4    1  0.9138221E+003  0.2275975E+02  0.7546771E-02  0.1695434E+00
         21   -1    0    0  504  501  0.00000000000E+00  0.00000000000E+00  0.56028181580E+01  0.56028181580E+01  0.00000000000E+00 0. -1.
         21   -1    0    0  501  502 -0.00000000000E+00 -0.00000000000E+00 -0.12749036733E+03  0.12749036733E+03  0.00000000000E+00 0. -1.
         21    1    1    2  503  502  0.16093537755E+02 -0.16093612306E+02 -0.95829113889E+02  0.98494798763E+02  0.00000000000E+00 0. -1.
         21    1    1    2  504  503 -0.16093537755E+02  0.16093612306E+02 -0.26058435279E+02  0.34598386721E+02  0.00000000000E+00 0. -1.
<mgrwt>
<rscale>  2 0.22759752E+02</rscale>
<asrwt>0</asrwt>
<pdfrwt beam="1">  1       21 0.86197193E-03 0.22759752E+02</pdfrwt>
<pdfrwt beam="2">  1       21 0.19613905E-01 0.22759752E+02</pdfrwt>
<totfact> 0.79389992E+07</totfact>
</mgrwt>
</event>
<event>
 4    1  0.9138221E+003  0.2650920E+02  0.7546771E-02  0.1640225E+00
         21   -1    0    0  502  501  0.00000000000E+00  0.00000000000E+00  0.13453802471E+02  0.13453802471E+02  0.00000000000E+00 0.  1.
         21   -1    0    0  503  502 -0.00000000000E+00 -0.00000000000E+00 -0.64359697086E+02  0.64359697086E+02  0.00000000000E+00 0.  1.
         21    1    1    2  503  504 -0.17604457707E+02  0.19819712073E+02 -0.85648017862E+01  0.27858459172E+02  0.00000000000E+00 0.  1.
         21    1    1    2  504  501  0.17604457707E+02 -0.19819712073E+02 -0.42341092829E+02  0.49955040384E+02  0.00000000000E+00 0.  1.
<mgrwt>
<rscale>  2 0.26509204E+02</rscale>
<asrwt>0</asrwt>
<pdfrwt beam="1">  1       21 0.20698158E-02 0.26509204E+02</pdfrwt>
<pdfrwt beam="2">  1       21 0.99014918E-02 0.26509204E+02</pdfrwt>
<totfact> 0.69738036E+07</totfact>
</mgrwt>
</event>
<event>
 4    1  0.9138221E+003  0.2064272E+02  0.7546771E-02  0.1732841E+00
         21   -1    0    0  502  501  0.00000000000E+00  0.00000000000E+00  0.18143120439E+03  0.18143120439E+03  0.00000000000E+00 0. -1.
         21   -1    0    0  504  502 -0.00000000000E+00 -0.00000000000E+00 -0.34228730166E+01  0.34228730166E+01  0.00000000000E+00 0. -1.
         21    1    1    2  503  501 -0.13678049609E+01 -0.20597356067E+02  0.37225972094E+02  0.42566359554E+02  0.00000000000E+00 0. -1.
         21    1    1    2  504  503  0.13678049609E+01  0.20597356067E+02  0.14078235928E+03  0.14228771785E+03  0.00000000000E+00 0. -1.
<mgrwt>
<rscale>  2 0.20642722E+02</rscale>
<asrwt>0</asrwt>
<pdfrwt beam="1">  1       21 0.27912486E-01 0.20642722E+02</pdfrwt>
<pdfrwt beam="2">  1       21 0.52659599E-03 0.20642722E+02</pdfrwt>
<totfact> 0.86072821E+07</totfact>
</mgrwt>
</event>
<event>
 4    1  0.9138221E+003  0.7219229E+02  0.7546771E-02  0.1352793E+00
         21   -1    0    0  502  501  0.00000000000E+00  0.00000000000E+00  0.77630942211E+02  0.77630942211E+02  0.00000000000E+00 0. -1.
         21   -1    0    0  504  502 -0.00000000000E+00 -0.00000000000E+00 -0.19496986663E+03  0.19496986663E+03  0.00000000000E+00 0. -1.
         21    1    1    2  503  501  0.38694431429E+02 -0.60946434866E+02 -0.16903630911E+03  0.18380696598E+03  0.00000000000E+00 0. -1.
         21    1    1    2  504  503 -0.38694431429E+02  0.60946434866E+02  0.51697384687E+02  0.88793842861E+02  0.00000000000E+00 0. -1.
<mgrwt>
<rscale>  2 0.72192291E+02</rscale>
<asrwt>0</asrwt>
<pdfrwt beam="1">  1       21 0.11943222E-01 0.72192291E+02</pdfrwt>
<pdfrwt beam="2">  1       21 0.29995364E-01 0.72192291E+02</pdfrwt>
<totfact> 0.63287432E+05</totfact>
</mgrwt>
</event>
<event>
 4    1  0.9138221E+003  0.4726865E+02  0.7546771E-02  0.1460656E+00
         21   -1    0    0  504  501  0.00000000000E+00  0.00000000000E+00  0.23816644735E+02  0.23816644735E+02  0.00000000000E+00 0. -1.
         21   -1    0    0  501  502 -0.00000000000E+00 -0.00000000000E+00 -0.14107733310E+03  0.14107733310E+03  0.00000000000E+00 0. -1.
         21    1    1    2  503  502 -0.28500140342E+02 -0.37710307116E+02 -0.10909274079E+02  0.48511210284E+02  0.00000000000E+00 0. -1.
         21    1    1    2  504  503  0.28500140342E+02  0.37710307116E+02 -0.10635141428E+03  0.11638276755E+03  0.00000000000E+00 0. -1.
<mgrwt>
<rscale>  2 0.47268650E+02</rscale>
<asrwt>0</asrwt>
<pdfrwt beam="1">  1       21 0.36640992E-02 0.47268650E+02</pdfrwt>
<pdfrwt beam="2">  1       21 0.21704205E-01 0.47268650E+02</pdfrwt>
<totfact> 0.80774843E+06</totfact>
</mgrwt>
</event>
<event>
 4    1  0.9138221E+003  0.2396394E+02  0.7546771E-02  0.1676345E+00
         21   -1    0    0  504  501  0.00000000000E+00  0.00000000000E+00  0.19350866996E+02  0.19350866996E+02  0.00000000000E+00 0.  1.
         21   -1    0    0  501  502 -0.00000000000E+00 -0.00000000000E+00 -0.61292440923E+02  0.61292440923E+02  0.00000000000E+00 0.  1.
         21    1    1    2  503  502  0.24165917666E+00  0.23962719955E+02 -0.49929975880E+02  0.55382965234E+02  0.00000000000E+00 0.  1.
         21    1    1    2  504  503 -0.24165917666E+00 -0.23962719955E+02  0.79884019527E+01  0.25260342685E+02  0.00000000000E+00 0.  1.
<mgrwt>
<rscale>  2 0.23963938E+02</rscale>
<asrwt>0</asrwt>
<pdfrwt beam="1">  1       21 0.29770565E-02 0.23963938E+02</pdfrwt>
<pdfrwt beam="2">  1       21 0.94296062E-02 0.23963938E+02</pdfrwt>
<totfact> 0.41976515E+07</totfact>
</mgrwt>
</event>
<event>
 4    1  0.9138221E+003  0.2601456E+02  0.7546771E-02  0.1646843E+00
         21   -1    0    0  502  501  0.00000000000E+00  0.00000000000E+00  0.26085395593E+01  0.26085395593E+01  0.00000000000E+00 0. -1.
         21   -1    0    0  503  502 -0.00000000000E+00 -0.00000000000E+00 -0.35149607732E+03  0.35149607732E+03  0.00000000000E+00 0. -1.
         21    1    1    2  503  504  0.25653754649E+02 -0.43176712763E+01 -0.83835157445E+02  0.87778647954E+02  0.00000000000E+00 0. -1.
         21    1    1    2  504  501 -0.25653754649E+02  0.43176712763E+01 -0.26505238031E+03  0.26632596892E+03  0.00000000000E+00 0. -1.
<mgrwt>
<rscale>  2 0.26014562E+02</rscale>
<asrwt>0</asrwt>
<pdfrwt beam="1">  1       21 0.40131397E-03 0.26014562E+02</pdfrwt>
<pdfrwt beam="2">  1       21 0.54076293E-01 0.26014562E+02</pdfrwt>
<totfact> 0.39164921E+07</totfact>
</mgrwt>
</event>
<event>
 4    1  0.9138221E+003  0.2001306E+02  0.7546771E-02  0.1745069E+00
         21   -1    0    0  503  501  0.00000000000E+00  0.00000000000E+00  0.31366726128E+02  0.31366726128E+02  0.00000000000E+00 0.  1.
         21   -1    0    0  501  502 -0.00000000000E+00 -0.00000000000E+00 -0.27178448674E+02  0.27178448674E+02  0.00000000000E+00 0.  1.
         21    1    1    2  503  504 -0.15774560126E+02  0.12316078511E+02  0.23408487694E+02  0.30797399779E+02  0.00000000000E+00 0.  1.
         21    1    1    2  504  502  0.15774560126E+02 -0.12316078511E+02 -0.19220210240E+02  0.27747775023E+02  0.00000000000E+00 0.  1.
<mgrwt>
<rscale>  2 0.20013059E+02</rscale>
<asrwt>0</asrwt>
<pdfrwt beam="1">  1       21 0.48256502E-02 0.20013059E+02</pdfrwt>
<pdfrwt beam="2">  1       21 0.41812998E-02 0.20013059E+02</pdfrwt>
<totfact> 0.69307066E+07</totfact>
</mgrwt>
</event>
<event>
 4    1  0.9138221E+003  0.2790840E+02  0.7546771E-02  0.1622430E+00
         21   -1    0    0  502  501  0.00000000000E+00  0.00000000000E+00  0.81234948987E+00  0.81234948987E+00  0.00000000000E+00 0. -1.
         21   -1    0    0  503  502 -0.00000000000E+00 -0.00000000000E+00 -0.10743503244E+04  0.10743503244E+04  0.00000000000E+00 0. -1.
         21    1    1    2  503  504  0.14269837659E+02  0.23984385422E+02 -0.71307239017E+03  0.71361832420E+03  0.00000000000E+00 0.  1.
         21    1    1    2  504  501 -0.14269837659E+02 -0.23984385422E+02 -0.36046558478E+03  0.36154434973E+03  0.00000000000E+00 0.  1.
<mgrwt>
<rscale>  2 0.27908404E+02</rscale>
<asrwt>0</asrwt>
<pdfrwt beam="1">  1       21 0.12497706E-03 0.27908404E+02</pdfrwt>
<pdfrwt beam="2">  1       21 0.16528438E+00 0.27908404E+02</pdfrwt>
<totfact> 0.18737898E+07</totfact>
</mgrwt>
</event>
<event>
 4    1  0.9138221E+003  0.2787514E+02  0.7546771E-02  0.1622838E+00
         21   -1    0    0  502  501  0.00000000000E+00  0.00000000000E+00  0.64682781851E+03  0.64682781851E+03  0.00000000000E+00 0.  1.
         21   -1    0    0  503  502 -0.00000000000E+00 -0.00000000000E+00 -0.20008340842E+01  0.20008340842E+01  0.00000000000E+00 0.  1.
         21    1    1    2  503  504 -0.21327575907E+02  0.17948756611E+02  0.11733620957E+03  0.12060186331E+03  0.00000000000E+00 0. -1.
         21    1    1    2  504  501  0.21327575907E+02 -0.17948756611E+02  0.52749077485E+03  0.52822678928E+03  0.00000000000E+00 0. -1.
<mgrwt>
<rscale>  2 0.27875139E+02</rscale>
<asrwt>0</asrwt>
<pdfrwt beam="1">  1       21 0.99511805E-01 0.27875139E+02</pdfrwt>
<pdfrwt beam="2">  1       21 0.30782114E-03 0.27875139E+02</pdfrwt>
<totfact> 0.16440675E+07</totfact>
</mgrwt>
</event>
<event>
 4    1  0.9138221E+003  0.2121081E+02  0.7546771E-02  0.1722269E+00
         21   -1    0    0  502  501  0.00000000000E+00  0.00000000000E+00  0.49114774590E+01  0.49114774590E+01  0.00000000000E+00 0.  1.
         21   -1    0    0  504  502 -0.00000000000E+00 -0.00000000000E+00 -0.18880024037E+03  0.18880024037E+03  0.00000000000E+00 0.  1.
         21    1    1    2  503  501  0.21208623291E+02 -0.30459721669E+00 -0.16143961909E+03  0.16282705271E+03  0.00000000000E+00 0.  1.
         21    1    1    2  504  503 -0.21208623291E+02  0.30459721669E+00 -0.22449143820E+02  0.30884665121E+02  0.00000000000E+00 0.  1.
<mgrwt>
<rscale>  2 0.21210810E+02</rscale>
<asrwt>0</asrwt>
<pdfrwt beam="1">  1       21 0.75561190E-03 0.21210810E+02</pdfrwt>
<pdfrwt beam="2">  1       21 0.29046191E-01 0.21210810E+02</pdfrwt>
<totfact> 0.47307833E+07</totfact>
</mgrwt>
</event>
<event>
 4    1  0.9138221E+003  0.2078674E+02  0.7546771E-02  0.1730121E+00
         21   -1    0    0  504  501  0.00000000000E+00  0.00000000000E+00  0.72556833171E+00  0.72556833171E+00  0.00000000000E+00 0. -1.
         21   -1    0    0  501  502 -0.00000000000E+00 -0.00000000000E+00 -0.74971018267E+03  0.74971018267E+03  0.00000000000E+00 0. -1.
         21    1    1    2  503  502  0.11054890069E+02 -0.17603345488E+02 -0.54465691056E+03  0.54505342728E+03  0.00000000000E+00 0. -1.
         21    1    1    2  504  503 -0.11054890069E+02  0.17603345488E+02 -0.20432770377E+03  0.20538232372E+03  0.00000000000E+00 0. -1.
<mgrwt>
<rscale>  2 0.20786735E+02</rscale>
<asrwt>0</asrwt>
<pdfrwt beam="1">  1       21 0.11162616E-03 0.20786735E+02</pdfrwt>
<pdfrwt beam="2">  1       21 0.11533976E+00 0.20786735E+02</pdfrwt>
<totfact> 0.48434771E+07</totfact>
</mgrwt>
</event>
<event>
 4    1  0.9138221E+003  0.2111443E+02  0.7546771E-02  0.1724033E+00
         21   -1    0    0  502  501  0.00000000000E+00  0.00000000000E+00  0.19753827645E+02  0.19753827645E+02  0.00000000000E+00 0. -1.
         21   -1    0    0  504  502 -0.00000000000E+00 -0.00000000000E+00 -0.30252963793E+02  0.30252963793E+02  0.00000000000E+00 0. -1.
         21    1    1    2  503  501  0.21097209751E+02  0.85253631657E+00  0.73517194866E+01  0.22357702405E+02  0.00000000000E+00 0.  1.
         21    1    1    2  504  503 -0.21097209751E+02 -0.85253631657E+00 -0.17850855634E+02  0.27649089032E+02  0.00000000000E+00 0.  1.
<mgrwt>
<rscale>  2 0.21114428E+02</rscale>
<asrwt>0</asrwt>
<pdfrwt beam="1">  1       21 0.30390504E-02 0.21114428E+02</pdfrwt>
<pdfrwt beam="2">  1       21 0.46543021E-02 0.21114428E+02</pdfrwt>
<totfact> 0.12269477E+08</totfact>
</mgrwt>
</event>
<event>
 4    1  0.9138221E+003  0.2491190E+02  0.7546771E-02  0.1662271E+00
         21   -1    0    0  502  501  0.00000000000E+00  0.00000000000E+00  0.29595567566E+03  0.29595567566E+03  0.00000000000E+00 0. -1.
         21   -1    0    0  503  502 -0.00000000000E+00 -0.00000000000E+00 -0.26594143648E+01  0.26594143648E+01  0.00000000000E+00 0. -1.
         21    1    1    2  503  504  0.11029653518E+01 -0.24887467564E+02  0.77982652749E+02  0.81865112863E+02  0.00000000000E+00 0.  1.
         21    1    1    2  504  501 -0.11029653518E+01  0.24887467564E+02  0.21531360855E+03  0.21674997716E+03  0.00000000000E+00 0.  1.
<mgrwt>
<rscale>  2 0.24911896E+02</rscale>
<asrwt>0</asrwt>
<pdfrwt beam="1">  1       21 0.45531616E-01 0.24911896E+02</pdfrwt>
<pdfrwt beam="2">  1       21 0.40914091E-03 0.24911896E+02</pdfrwt>
<totfact> 0.52742301E+07</totfact>
</mgrwt>
</event>
<event>
 4    1  0.9138221E+003  0.2527762E+02  0.7546771E-02  0.1657046E+00
         21   -1    0    0  502  501  0.00000000000E+00  0.00000000000E+00  0.51695015217E+01  0.51695015217E+01  0.00000000000E+00 0.  1.
         21   -1    0    0  504  502 -0.00000000000E+00 -0.00000000000E+00 -0.29656551449E+03  0.29656551449E+03  0.00000000000E+00 0.  1.
         21    1    1    2  503  501 -0.13250984800E+02  0.21526018671E+02 -0.30481875713E+02  0.39599278087E+02  0.00000000000E+00 0.  1.
         21    1    1    2  504  503  0.13250984800E+02 -0.21526018671E+02 -0.26091413725E+03  0.26213573792E+03  0.00000000000E+00 0.  1.
<mgrwt>
<rscale>  2 0.25277620E+02</rscale>
<asrwt>0</asrwt>
<pdfrwt beam="1">  1       21 0.79530798E-03 0.25277620E+02</pdfrwt>
<pdfrwt beam="2">  1       21 0.45625460E-01 0.25277620E+02</pdfrwt>
<totfact> 0.19647524E+07</totfact>
</mgrwt>
</event>
<event>
 4    1  0.9138221E+003  0.2292164E+02  0.7546771E-02  0.1692783E+00
         21   -1    0    0  502  501  0.00000000000E+00  0.00000000000E+00  0.12989141193E+01  0.12989141193E+01  0.00000000000E+00 0.  1.
         21   -1    0    0  504  502 -0.00000000000E+00 -0.00000000000E+00 -0.13337610288E+04  0.13337610288E+04  0.00000000000E+00 0.  1.
         21    1    1    2  503  501 -0.12508153326E+02 -0.19208012973E+02 -0.12234197021E+04  0.12236344099E+04  0.00000000000E+00 0.  1.
         21    1    1    2  504  503  0.12508153326E+02  0.19208012973E+02 -0.10904241257E+03  0.11142553299E+03  0.00000000000E+00 0.  1.
<mgrwt>
<rscale>  2 0.22921642E+02</rscale>
<asrwt>0</asrwt>
<pdfrwt beam="1">  1       21 0.19983297E-03 0.22921642E+02</pdfrwt>
<pdfrwt beam="2">  1       21 0.20519398E+00 0.22921642E+02</pdfrwt>
<totfact> 0.53907818E+06</totfact>
</mgrwt>
</event>
<event>
 4    1  0.9138221E+003  0.3122842E+02  0.7546771E-02  0.1584894E+00
         21   -1    0    0  502  501  0.00000000000E+00  0.00000000000E+00  0.22148254260E+02  0.22148254260E+02  0.00000000000E+00 0. -1.
         21   -1    0    0  504  502 -0.00000000000E+00 -0.00000000000E+00 -0.51356289011E+02  0.51356289011E+02  0.00000000000E+00 0. -1.
         21    1    1    2  503  501 -0.28997565571E+02  0.11591187760E+02 -0.72388793218E+00  0.31236812521E+02  0.00000000000E+00 0.  1.
         21    1    1    2  504  503  0.28997565571E+02 -0.11591187760E+02 -0.28484146819E+02  0.42267730750E+02  0.00000000000E+00 0.  1.
<mgrwt>
<rscale>  2 0.31228424E+02</rscale>
<asrwt>0</asrwt>
<pdfrwt beam="1">  1       21 0.34074238E-02 0.31228424E+02</pdfrwt>
<pdfrwt beam="2">  1       21 0.79009675E-02 0.31228424E+02</pdfrwt>
<totfact> 0.48303555E+07</totfact>
</mgrwt>
</event>
<event>
 4    1  0.9138221E+003  0.2656364E+02  0.7546771E-02  0.1639508E+00
         21   -1    0    0  502  501  0.00000000000E+00  0.00000000000E+00  0.40695771566E+03  0.40695771566E+03  0.00000000000E+00 0. -1.
         21   -1    0    0  504  502 -0.00000000000E+00 -0.00000000000E+00 -0.35060368828E+01  0.35060368828E+01  0.00000000000E+00 0. -1.
         21    1    1    2  503  501  0.12344941874E+02 -0.23520830042E+02  0.34763558103E+03  0.34864899861E+03  0.00000000000E+00 0.  1.
         21    1    1    2  504  503 -0.12344941874E+02  0.23520830042E+02  0.55816097755E+02  0.61814753937E+02  0.00000000000E+00 0.  1.
<mgrwt>
<rscale>  2 0.26563641E+02</rscale>
<asrwt>0</asrwt>
<pdfrwt beam="1">  1       21 0.62608842E-01 0.26563641E+02</pdfrwt>
<pdfrwt beam="2">  1       21 0.53939061E-03 0.26563641E+02</pdfrwt>
<totfact> 0.18942238E+07</totfact>
</mgrwt>
</event>
<event>
 4    1  0.9138221E+003  0.2024405E+02  0.7546771E-02  0.1740518E+00
         21   -1    0    0  502  501  0.00000000000E+00  0.00000000000E+00  0.30149202215E+01  0.30149202215E+01  0.00000000000E+00 0. -1.
         21   -1    0    0  503  502 -0.00000000000E+00 -0.00000000000E+00 -0.26312083738E+03  0.26312083738E+03  0.00000000000E+00 0. -1.
         21    1    1    2  503  504  0.14805283300E+02  0.13806701064E+02 -0.37535934221E+02  0.42647013561E+02  0.00000000000E+00 0.  1.
         21    1    1    2  504  501 -0.14805283300E+02 -0.13806701064E+02 -0.22256998294E+03  0.22348874404E+03  0.00000000000E+00 0.  1.
<mgrwt>
<rscale>  2 0.20244046E+02</rscale>
<asrwt>0</asrwt>
<pdfrwt beam="1">  1       21 0.46383379E-03 0.20244046E+02</pdfrwt>
<pdfrwt beam="2">  1       21 0.40480136E-01 0.20244046E+02</pdfrwt>
<totfact> 0.52168276E+07</totfact>
</mgrwt>
</event>
<event>
 4    1  0.9138221E+003  0.2339271E+02  0.7546771E-02  0.1685222E+00
         21   -1    0    0  503  501  0.00000000000E+00  0.00000000000E+00  0.12839513260E+03  0.12839513260E+03  0.00000000000E+00 0.  1.
         21   -1    0    0  501  502 -0.00000000000E+00 -0.00000000000E+00 -0.46949736870E+01  0.46949736870E+01  0.00000000000E+00 0.  1.
         21    1    1    2  503  504 -0.23234557063E+02  0.27155843358E+01  0.41641587248E+02  0.47762336927E+02  0.00000000000E+00 0.  1.
         21    1    1    2  504  502  0.23234557063E+02 -0.27155843358E+01  0.82058571660E+02  0.85327769355E+02  0.00000000000E+00 0.  1.
<mgrwt>
<rscale>  2 0.23392713E+02</rscale>
<asrwt>0</asrwt>
<pdfrwt beam="1">  1       21 0.19753095E-01 0.23392713E+02</pdfrwt>
<pdfrwt beam="2">  1       21 0.72230374E-03 0.23392713E+02</pdfrwt>
<totfact> 0.10285872E+08</totfact>
</mgrwt>
</event>
<event>
 4    1  0.9138221E+003  0.2254325E+02  0.7546771E-02  0.1699023E+00
         21   -1    0    0  502  501  0.00000000000E+00  0.00000000000E+00  0.74217058442E+03  0.74217058442E+03  0.00000000000E+00 0. -1.
         21   -1    0    0  504  502 -0.00000000000E+00 -0.00000000000E+00 -0.87023378193E+00  0.87023378193E+00  0.00000000000E+00 0. -1.
         21    1    1    2  503  501 -0.20406846791E+02 -0.95790714796E+01  0.54217338138E+03  0.54264184642E+03  0.00000000000E+00 0. -1.
         21    1    1    2  504  503  0.20406846791E+02  0.95790714796E+01  0.19912696926E+03  0.20039897178E+03  0.00000000000E+00 0. -1.
<mgrwt>
<rscale>  2 0.22543247E+02</rscale>
<asrwt>0</asrwt>
<pdfrwt beam="1">  1       21 0.11417958E+00 0.22543247E+02</pdfrwt>
<pdfrwt beam="2">  1       21 0.13388271E-03 0.22543247E+02</pdfrwt>
<totfact> 0.38901723E+07</totfact>
</mgrwt>
</event>
<event>
 4    1  0.9138221E+003  0.2632511E+02  0.7546771E-02  0.1642667E+00
         21   -1    0    0  502  501  0.00000000000E+00  0.00000000000E+00  0.25263744597E+02  0.25263744597E+02  0.00000000000E+00 0.  1.
         21   -1    0    0  504  502 -0.00000000000E+00 -0.00000000000E+00 -0.31567452298E+02  0.31567452298E+02  0.00000000000E+00 0.  1.
         21    1    1    2  503  501 -0.11308194321E+01 -0.26300809179E+02  0.71341777625E+01  0.27274673388E+02  0.00000000000E+00 0. -1.
         21    1    1    2  504  503  0.11308194321E+01  0.26300809179E+02 -0.13437885464E+02  0.29556523507E+02  0.00000000000E+00 0. -1.
<mgrwt>
<rscale>  2 0.26325108E+02</rscale>
<asrwt>0</asrwt>
<pdfrwt beam="1">  1       21 0.38867299E-02 0.26325108E+02</pdfrwt>
<pdfrwt beam="2">  1       21 0.48565311E-02 0.26325108E+02</pdfrwt>
<totfact> 0.82983265E+07</totfact>
</mgrwt>
</event>
<event>
 4    1  0.9138221E+003  0.2553209E+02  0.7546771E-02  0.1653475E+00
         21   -1    0    0  502  501  0.00000000000E+00  0.00000000000E+00  0.95867374199E+01  0.95867374199E+01  0.00000000000E+00 0. -1.
         21   -1    0    0  503  502 -0.00000000000E+00 -0.00000000000E+00 -0.12292432295E+03  0.12292432295E+03  0.00000000000E+00 0. -1.
         21    1    1    2  503  504  0.25527120794E+02  0.50389781183E+00 -0.12380408202E+02  0.28375382223E+02  0.00000000000E+00 0.  1.
         21    1    1    2  504  501 -0.25527120794E+02 -0.50389781183E+00 -0.10095717733E+03  0.10413567815E+03  0.00000000000E+00 0.  1.
<mgrwt>
<rscale>  2 0.25532094E+02</rscale>
<asrwt>0</asrwt>
<pdfrwt beam="1">  1       21 0.14748827E-02 0.25532094E+02</pdfrwt>
<pdfrwt beam="2">  1       21 0.18911434E-01 0.25532094E+02</pdfrwt>
<totfact> 0.38687252E+07</totfact>
</mgrwt>
</event>
<event>
 4    1  0.9138221E+003  0.3870943E+02  0.7546771E-02  0.1517929E+00
         21   -1    0    0  503  501  0.00000000000E+00  0.00000000000E+00  0.13108950123E+02  0.13108950123E+02  0.00000000000E+00 0. -1.
         21   -1    0    0  501  502 -0.00000000000E+00 -0.00000000000E+00 -0.14539526634E+03  0.14539526634E+03  0.00000000000E+00 0. -1.
         21    1    1    2  503  504 -0.38458421490E+02  0.44011127165E+01 -0.29495422287E+02  0.48666209145E+02  0.00000000000E+00 0.  1.
         21    1    1    2  504  502  0.38458421490E+02 -0.44011127165E+01 -0.10279089393E+03  0.10983800732E+03  0.00000000000E+00 0.  1.
<mgrwt>
<rscale>  2 0.38709430E+02</rscale>
<asrwt>0</asrwt>
<pdfrwt beam="1">  1       21 0.20167616E-02 0.38709430E+02</pdfrwt>
<pdfrwt beam="2">  1       21 0.22368502E-01 0.38709430E+02</pdfrwt>
<totfact> 0.19187166E+07</totfact>
</mgrwt>
</event>
<event>
 4    1  0.9138221E+003  0.2001800E+02  0.7546771E-02  0.1744970E+00
         21   -1    0    0  504  501  0.00000000000E+00  0.00000000000E+00  0.18850547045E+03  0.18850547045E+03  0.00000000000E+00 0. -1.
         21   -1    0    0  501  502 -0.00000000000E+00 -0.00000000000E+00 -0.23227322784E+01  0.23227322784E+01  0.00000000000E+00 0. -1.
         21    1    1    2  503  502 -0.57866557121E+01  0.19163374231E+02  0.12087561008E+03  0.12252197112E+03  0.00000000000E+00 0. -1.
         21    1    1    2  504  503  0.57866557121E+01 -0.19163374231E+02  0.65307128098E+02  0.68306231609E+02  0.00000000000E+00 0. -1.
<mgrwt>
<rscale>  2 0.20017999E+02</rscale>
<asrwt>0</asrwt>
<pdfrwt beam="1">  1       21 0.29000830E-01 0.20017999E+02</pdfrwt>
<pdfrwt beam="2">  1       21 0.35734358E-03 0.20017999E+02</pdfrwt>
<totfact> 0.14047056E+08</totfact>
</mgrwt>
</event>
<event>
 4    1  0.9138221E+003  0.2563141E+02  0.7546771E-02  0.1652095E+00
         21   -1    0    0  503  501  0.00000000000E+00  0.00000000000E+00  0.25457283710E+02  0.25457283710E+02  0.00000000000E+00 0.  1.
         21   -1    0    0  501  502 -0.00000000000E+00 -0.00000000000E+00 -0.40578917581E+02  0.40578917581E+02  0.00000000000E+00 0.  1.
         21    1    1    2  503  504 -0.22942962218E+01  0.25528520284E+02  0.12360788071E+02  0.28456251067E+02  0.00000000000E+00 0.  1.
         21    1    1    2  504  502  0.22942962218E+01 -0.25528520284E+02 -0.27482421941E+02  0.37579950224E+02  0.00000000000E+00 0.  1.
<mgrwt>
<rscale>  2 0.25631409E+02</rscale>
<asrwt>0</asrwt>
<pdfrwt beam="1">  1       21 0.39165052E-02 0.25631409E+02</pdfrwt>
<pdfrwt beam="2">  1       21 0.62429103E-02 0.25631409E+02</pdfrwt>
<totfact> 0.54398588E+07</totfact>
</mgrwt>
</event>
<event>
 4    1  0.9138221E+003  0.2149185E+02  0.7546771E-02  0.1717191E+00
         21   -1    0    0  502  501  0.00000000000E+00  0.00000000000E+00  0.68500670601E+02  0.68500670601E+02  0.00000000000E+00 0. -1.
         21   -1    0    0  504  502 -0.00000000000E+00 -0.00000000000E+00 -0.70159041171E+01  0.70159041171E+01  0.00000000000E+00 0. -1.
         21    1    1    2  503  501  0.10989774824E+02  0.18469549484E+02  0.23295361374E+02  0.31695003871E+02  0.00000000000E+00 0.  1.
         21    1    1    2  504  503 -0.10989774824E+02 -0.18469549484E+02  0.38189405110E+02  0.43821570847E+02  0.00000000000E+00 0.  1.
<mgrwt>
<rscale>  2 0.21491845E+02</rscale>
<asrwt>0</asrwt>
<pdfrwt beam="1">  1       21 0.10538564E-01 0.21491845E+02</pdfrwt>
<pdfrwt beam="2">  1       21 0.10793699E-02 0.21491845E+02</pdfrwt>
<totfact> 0.15981473E+08</totfact>
</mgrwt>
</event>
<event>
 4    1  0.9138221E+003  0.2321358E+02  0.7546771E-02  0.1688071E+00
         21   -1    0    0  502  501  0.00000000000E+00  0.00000000000E+00  0.26212366721E+03  0.26212366721E+03  0.00000000000E+00 0. -1.
         21   -1    0    0  503  502 -0.00000000000E+00 -0.00000000000E+00 -0.21492980013E+01  0.21492980013E+01  0.00000000000E+00 0. -1.
         21    1    1    2  503  504  0.22939160777E+02  0.35587927076E+01  0.10242531618E+03  0.10502292843E+03  0.00000000000E+00 0. -1.
         21    1    1    2  504  501 -0.22939160777E+02 -0.35587927076E+01  0.15754905303E+03  0.15925003678E+03  0.00000000000E+00 0. -1.
<mgrwt>
<rscale>  2 0.23213576E+02</rscale>
<asrwt>0</asrwt>
<pdfrwt beam="1">  1       21 0.40326693E-01 0.23213576E+02</pdfrwt>
<pdfrwt beam="2">  1       21 0.33066144E-03 0.23213576E+02</pdfrwt>
<totfact> 0.89284750E+07</totfact>
</mgrwt>
</event>
<event>
 4    1  0.9138221E+003  0.2902746E+02  0.7546771E-02  0.1609094E+00
         21   -1    0    0  502  501  0.00000000000E+00  0.00000000000E+00  0.26680862018E+01  0.26680862018E+01  0.00000000000E+00 0.  1.
         21   -1    0    0  504  502 -0.00000000000E+00 -0.00000000000E+00 -0.43601506131E+03  0.43601506131E+03  0.00000000000E+00 0.  1.
         21    1    1    2  503  501 -0.27528960205E+02 -0.92059792608E+01 -0.10150292954E+03  0.10557195844E+03  0.00000000000E+00 0. -1.
         21    1    1    2  504  503  0.27528960205E+02  0.92059792608E+01 -0.33184404557E+03  0.33311118908E+03  0.00000000000E+00 0. -1.
<mgrwt>
<rscale>  2 0.29027465E+02</rscale>
<asrwt>0</asrwt>
<pdfrwt beam="1">  1       21 0.41047511E-03 0.29027465E+02</pdfrwt>
<pdfrwt beam="2">  1       21 0.67079190E-01 0.29027465E+02</pdfrwt>
<totfact> 0.25063235E+07</totfact>
</mgrwt>
</event>
<event>
 4    1  0.9138221E+003  0.2373536E+02  0.7546771E-02  0.1679860E+00
         21   -1    0    0  502  501  0.00000000000E+00  0.00000000000E+00  0.70016375990E+01  0.70016375990E+01  0.00000000000E+00 0.  1.
         21   -1    0    0  503  502 -0.00000000000E+00 -0.00000000000E+00 -0.92813566817E+02  0.92813566817E+02  0.00000000000E+00 0.  1.
         21    1    1    2  503  504 -0.17254750643E+02  0.16298499691E+02 -0.24699835771E+02  0.34255647695E+02  0.00000000000E+00 0. -1.
         21    1    1    2  504  501  0.17254750643E+02 -0.16298499691E+02 -0.61112093447E+02  0.65559556721E+02  0.00000000000E+00 0. -1.
<mgrwt>
<rscale>  2 0.23735364E+02</rscale>
<asrwt>0</asrwt>
<pdfrwt beam="1">  1       21 0.10771751E-02 0.23735364E+02</pdfrwt>
<pdfrwt beam="2">  1       21 0.14279009E-01 0.23735364E+02</pdfrwt>
<totfact> 0.99185860E+07</totfact>
</mgrwt>
</event>
<event>
 4    1  0.9138221E+003  0.3266268E+02  0.7546771E-02  0.1570393E+00
         21   -1    0    0  503  501  0.00000000000E+00  0.00000000000E+00  0.17747488216E+03  0.17747488216E+03  0.00000000000E+00 0. -1.
         21   -1    0    0  501  502 -0.00000000000E+00 -0.00000000000E+00 -0.10498820207E+02  0.10498820207E+02  0.00000000000E+00 0. -1.
         21    1    1    2  503  504  0.20115480825E+01  0.32600680648E+02  0.14493509894E+03  0.14856996200E+03  0.00000000000E+00 0.  1.
         21    1    1    2  504  502 -0.20115480825E+01 -0.32600680648E+02  0.22040963015E+02  0.39403740368E+02  0.00000000000E+00 0.  1.
<mgrwt>
<rscale>  2 0.32662681E+02</rscale>
<asrwt>0</asrwt>
<pdfrwt beam="1">  1       21 0.27303826E-01 0.32662681E+02</pdfrwt>
<pdfrwt beam="2">  1       21 0.16152032E-02 0.32662681E+02</pdfrwt>
<totfact> 0.18352387E+07</totfact>
</mgrwt>
</event>
<event>
 4    1  0.9138221E+003  0.2028276E+02  0.7546771E-02  0.1739763E+00
         21   -1    0    0  503  501  0.00000000000E+00  0.00000000000E+00  0.37711373470E+01  0.37711373470E+01  0.00000000000E+00 0.  1.
         21   -1    0    0  501  502 -0.00000000000E+00 -0.00000000000E+00 -0.15721471631E+03  0.15721471631E+03  0.00000000000E+00 0.  1.
         21    1    1    2  503  504  0.63559164069E+01  0.19261168549E+02 -0.32187051192E+02  0.38044665220E+02  0.00000000000E+00 0.  1.
         21    1    1    2  504  502 -0.63559164069E+01 -0.19261168549E+02 -0.12125652777E+03  0.12294118843E+03  0.00000000000E+00 0.  1.
<mgrwt>
<rscale>  2 0.20282758E+02</rscale>
<asrwt>0</asrwt>
<pdfrwt beam="1">  1       21 0.58017521E-03 0.20282758E+02</pdfrwt>
<pdfrwt beam="2">  1       21 0.24186870E-01 0.20282758E+02</pdfrwt>
<totfact> 0.95850166E+07</totfact>
</mgrwt>
</event>
<event>
 4    1  0.9138221E+003  0.2178708E+02  0.7546771E-02  0.1711960E+00
         21   -1    0    0  503  501  0.00000000000E+00  0.00000000000E+00  0.42603651252E+02  0.42603651252E+02  0.00000000000E+00 0.  1.
         21   -1    0    0  501  502 -0.00000000000E+00 -0.00000000000E+00 -0.14624006119E+02  0.14624006119E+02  0.00000000000E+00 0.  1.
         21    1    1    2  503  504  0.21530289378E+02 -0.33352217214E+01  0.27952744795E+02  0.35440555952E+02  0.00000000000E+00 0.  1.
         21    1    1    2  504  502 -0.21530289378E+02  0.33352217214E+01  0.26900337999E-01  0.21787101419E+02  0.00000000000E+00 0.  1.
<mgrwt>
<rscale>  2 0.21787085E+02</rscale>
<asrwt>0</asrwt>
<pdfrwt beam="1">  1       21 0.65544079E-02 0.21787085E+02</pdfrwt>
<pdfrwt beam="2">  1       21 0.22498471E-02 0.21787085E+02</pdfrwt>
<totfact> 0.11414688E+08</totfact>
</mgrwt>
</event>
<event>
 4    1  0.9138221E+003  0.5246637E+02  0.7546771E-02  0.1432475E+00
         21   -1    0    0  502  501  0.00000000000E+00  0.00000000000E+00  0.11033131148E+04  0.11033131148E+04  0.00000000000E+00 0. -1.
         21   -1    0    0  503  502 -0.00000000000E+00 -0.00000000000E+00 -0.26986229034E+01  0.26986229034E+01  0.00000000000E+00 0. -1.
         21    1    1    2  503  504  0.45447096672E+02  0.26216054474E+02  0.39838669771E+03  0.40182668032E+03  0.00000000000E+00 0. -1.
         21    1    1    2  504  501 -0.45447096672E+02 -0.26216054474E+02  0.70222779423E+03  0.70418505743E+03  0.00000000000E+00 0. -1.
<mgrwt>
<rscale>  2 0.52466371E+02</rscale>
<asrwt>0</asrwt>
<pdfrwt beam="1">  1       21 0.16974012E+00 0.52466371E+02</pdfrwt>
<pdfrwt beam="2">  1       21 0.41517364E-03 0.52466371E+02</pdfrwt>
<totfact> 0.31593419E+06</totfact>
</mgrwt>
</event>
<event>
 4    1  0.9138221E+003  0.2276779E+02  0.7546771E-02  0.1695302E+00
         21   -1    0    0  504  501  0.00000000000E+00  0.00000000000E+00  0.11287188259E+03  0.11287188259E+03  0.00000000000E+00 0. -1.
         21   -1    0    0  501  502 -0.00000000000E+00 -0.00000000000E+00 -0.61114768215E+01  0.61114768215E+01  0.00000000000E+00 0. -1.
         21    1    1    2  503  502 -0.19060789778E+02  0.12452246163E+02  0.23721745303E+02  0.32879983906E+02  0.00000000000E+00 0.  1.
         21    1    1    2  504  503  0.19060789778E+02 -0.12452246163E+02  0.83038660470E+02  0.86103375509E+02  0.00000000000E+00 0.  1.
<mgrwt>
<rscale>  2 0.22767787E+02</rscale>
<asrwt>0</asrwt>
<pdfrwt beam="1">  1       21 0.17364903E-01 0.22767787E+02</pdfrwt>
<pdfrwt beam="2">  1       21 0.94022729E-03 0.22767787E+02</pdfrwt>
<totfact> 0.86077404E+07</totfact>
</mgrwt>
</event>
<event>
 4    1  0.9138221E+003  0.3066924E+02  0.7546771E-02  0.1590807E+00
         21   -1    0    0  502  501  0.00000000000E+00  0.00000000000E+00  0.10063364560E+02  0.10063364560E+02  0.00000000000E+00 0.  1.
         21   -1    0    0  504  502 -0.00000000000E+00 -0.00000000000E+00 -0.11159149326E+03  0.11159149326E+03  0.00000000000E+00 0.  1.
         21    1    1    2  503  501  0.96746967406E+01 -0.29103308241E+02 -0.75277555660E+02  0.81285378106E+02  0.00000000000E+00 0.  1.
         21    1    1    2  504  503 -0.96746967406E+01  0.29103308241E+02 -0.26250573044E+02  0.40369479719E+02  0.00000000000E+00 0.  1.
<mgrwt>
<rscale>  2 0.30669240E+02</rscale>
<asrwt>0</asrwt>
<pdfrwt beam="1">  1       21 0.15482100E-02 0.30669240E+02</pdfrwt>
<pdfrwt beam="2">  1       21 0.17167921E-01 0.30669240E+02</pdfrwt>
<totfact> 0.44248874E+07</totfact>
</mgrwt>
</event>
<event>
 4    1  0.9138221E+003  0.2151142E+02  0.7546771E-02  0.1716841E+00
         21   -1    0    0  504  501  0.00000000000E+00  0.00000000000E+00  0.40091495797E+03  0.40091495797E+03  0.00000000000E+00 0.  1.
         21   -1    0    0  501  502 -0.00000000000E+00 -0.00000000000E+00 -0.14558716922E+01  0.14558716922E+01  0.00000000000E+00 0.  1.
         21    1    1    2  503  502  0.19423303082E+02 -0.92453455297E+01  0.29130795651E+03  0.29210112400E+03  0.00000000000E+00 0.  1.
         21    1    1    2  504  503 -0.19423303082E+02  0.92453455297E+01  0.10815112977E+03  0.11026970567E+03  0.00000000000E+00 0.  1.
<mgrwt>
<rscale>  2 0.21511418E+02</rscale>
<asrwt>0</asrwt>
<pdfrwt beam="1">  1       21 0.61679137E-01 0.21511418E+02</pdfrwt>
<pdfrwt beam="2">  1       21 0.22398058E-03 0.21511418E+02</pdfrwt>
<totfact> 0.67568680E+07</totfact>
</mgrwt>
</event>
<event>
 4    1  0.9138221E+003  0.3231202E+02  0.7546771E-02  0.1573854E+00
         21   -1    0    0  503  501  0.00000000000E+00  0.00000000000E+00  0.15224954154E+02  0.15224954154E+02  0.00000000000E+00 0. -1.
         21   -1    0    0  501  502 -0.00000000000E+00 -0.00000000000E+00 -0.12048374268E+03  0.12048374268E+03  0.00000000000E+00 0. -1.
         21    1    1    2  503  504 -0.32208553003E+02  0.25837359836E+01 -0.97167269820E+02  0.10239894971E+03  0.00000000000E+00 0.  1.
         21    1    1    2  504  502  0.32208553003E+02 -0.25837359836E+01 -0.80915187038E+01  0.33309747119E+02  0.00000000000E+00 0.  1.
<mgrwt>
<rscale>  2 0.32312019E+02</rscale>
<asrwt>0</asrwt>
<pdfrwt beam="1">  1       21 0.23423005E-02 0.32312019E+02</pdfrwt>
<pdfrwt beam="2">  1       21 0.18535961E-01 0.32312019E+02</pdfrwt>
<totfact> 0.20581931E+07</totfact>
</mgrwt>
</event>
<event>
 4    1  0.9138221E+003  0.4857557E+02  0.7546771E-02  0.1453179E+00
         21   -1    0    0  502  501  0.00000000000E+00  0.00000000000E+00  0.28437053199E+02  0.28437053199E+02  0.00000000000E+00 0. -1.
         21   -1    0    0  504  502 -0.00000000000E+00 -0.00000000000E+00 -0.13707885347E+03  0.13707885347E+03  0.00000000000E+00 0. -1.
         21    1    1    2  503  501  0.41650424692E+01 -0.48396680394E+02 -0.10631278205E+03  0.11688453225E+03  0.00000000000E+00 0. -1.
         21    1    1    2  504  503 -0.41650424692E+01  0.48396680394E+02 -0.23290182200E+01  0.48631374419E+02  0.00000000000E+00 0. -1.
<mgrwt>
<rscale>  2 0.48575573E+02</rscale>
<asrwt>0</asrwt>
<pdfrwt beam="1">  1       21 0.43749313E-02 0.48575573E+02</pdfrwt>
<pdfrwt beam="2">  1       21 0.21089054E-01 0.48575573E+02</pdfrwt>
<totfact> 0.64067631E+06</totfact>
</mgrwt>
</event>
<event>
 4    1  0.9138221E+003  0.3375171E+02  0.7546771E-02  0.1559974E+00
         21   -1    0    0  502  501  0.00000000000E+00  0.00000000000E+00  0.15615424486E+01  0.15615424486E+01  0.00000000000E+00 0. -1.
         21   -1    0    0  503  502 -0.00000000000E+00 -0.00000000000E+00 -0.78086451355E+03  0.78086451355E+03  0.00000000000E+00 0. -1.
         21    1    1    2  503  504 -0.33090549070E+02  0.66478085151E+01 -0.48996716862E+03  0.49112829701E+03  0.00000000000E+00 0.  1.
         21    1    1    2  504  501  0.33090549070E+02 -0.66478085151E+01 -0.28933580248E+03  0.29129775899E+03  0.00000000000E+00 0.  1.
<mgrwt>
<rscale>  2 0.33751708E+02</rscale>
<asrwt>0</asrwt>
<pdfrwt beam="1">  1       21 0.24023710E-03 0.33751708E+02</pdfrwt>
<pdfrwt beam="2">  1       21 0.12013310E+00 0.33751708E+02</pdfrwt>
<totfact> 0.15905542E+07</totfact>
</mgrwt>
</event>
<event>
 4    1  0.9138221E+003  0.2100198E+02  0.7546771E-02  0.1726107E+00
         21   -1    0    0  502  501  0.00000000000E+00  0.00000000000E+00  0.13348362265E+03  0.13348362265E+03  0.00000000000E+00 0. -1.
         21   -1    0    0  503  502 -0.00000000000E+00 -0.00000000000E+00 -0.15767832166E+02  0.15767832166E+02  0.00000000000E+00 0. -1.
         21    1    1    2  503  504  0.20992402762E+02 -0.63404496564E+00  0.12520491948E+03  0.12695414467E+03  0.00000000000E+00 0. -1.
         21    1    1    2  504  501 -0.20992402762E+02  0.63404496564E+00 -0.74891289935E+01  0.22297310148E+02  0.00000000000E+00 0. -1.
<mgrwt>
<rscale>  2 0.21001976E+02</rscale>
<asrwt>0</asrwt>
<pdfrwt beam="1">  1       21 0.20535941E-01 0.21001976E+02</pdfrwt>
<pdfrwt beam="2">  1       21 0.24258204E-02 0.21001976E+02</pdfrwt>
<totfact> 0.14973217E+07</totfact>
</mgrwt>
</event>
<event>
 4    1  0.9138221E+003  0.4374061E+02  0.7546771E-02  0.1482360E+00
         21   -1    0    0  504  501  0.00000000000E+00  0.00000000000E+00  0.92955650496E+01  0.92955650496E+01  0.00000000000E+00 0. -1.
         21   -1    0    0  501  502 -0.00000000000E+00 -0.00000000000E+00 -0.31039368966E+03  0.31039368966E+03  0.00000000000E+00 0. -1.
         21    1    1    2  503  502 -0.31905864157E+02 -0.29920842795E+02 -0.24332740421E+03  0.24722756043E+03  0.00000000000E+00 0.  1.
         21    1    1    2  504  503  0.31905864157E+02  0.29920842795E+02 -0.57770720406E+02  0.72461694276E+02  0.00000000000E+00 0.  1.
<mgrwt>
<rscale>  2 0.43740610E+02</rscale>
<asrwt>0</asrwt>
<pdfrwt beam="1">  1       21 0.14300873E-02 0.43740610E+02</pdfrwt>
<pdfrwt beam="2">  1       21 0.47752864E-01 0.43740610E+02</pdfrwt>
<totfact> 0.79846609E+06</totfact>
</mgrwt>
</event>
<event>
 4    1  0.9138221E+003  0.2221853E+02  0.7546771E-02  0.1704500E+00
         21   -1    0    0  503  501  0.00000000000E+00  0.00000000000E+00  0.12246712280E+02  0.12246712280E+02  0.00000000000E+00 0.  1.
         21   -1    0    0  501  502 -0.00000000000E+00 -0.00000000000E+00 -0.52159166571E+02  0.52159166571E+02  0.00000000000E+00 0.  1.
         21    1    1    2  503  504  0.18677954984E+02  0.12033157527E+02 -0.35305125940E+02  0.41714683268E+02  0.00000000000E+00 0.  1.
         21    1    1    2  504  502 -0.18677954984E+02 -0.12033157527E+02 -0.46073283509E+01  0.22691195583E+02  0.00000000000E+00 0.  1.
<mgrwt>
<rscale>  2 0.22218526E+02</rscale>
<asrwt>0</asrwt>
<pdfrwt beam="1">  1       21 0.18841096E-02 0.22218526E+02</pdfrwt>
<pdfrwt beam="2">  1       21 0.80244871E-02 0.22218526E+02</pdfrwt>
<totfact> 0.10858140E+08</totfact>
</mgrwt>
</event>
<event>
 4    1  0.9138221E+003  0.2073208E+02  0.7546771E-02  0.1731150E+00
         21   -1    0    0  502  501  0.00000000000E+00  0.00000000000E+00  0.11339732093E+02  0.11339732093E+02  0.00000000000E+00 0. -1.
         21   -1    0    0  504  502 -0.00000000000E+00 -0.00000000000E+00 -0.81977824980E+02  0.81977824980E+02  0.00000000000E+00 0. -1.
         21    1    1    2  503  501 -0.20722544386E+02 -0.62875286389E+00 -0.11072072037E+01  0.20761625269E+02  0.00000000000E+00 0.  1.
         21    1    1    2  504  503  0.20722544386E+02  0.62875286389E+00 -0.69530885683E+02  0.72555931804E+02  0.00000000000E+00 0.  1.
<mgrwt>
<rscale>  2 0.20732081E+02</rscale>
<asrwt>0</asrwt>
<pdfrwt beam="1">  1       21 0.17445741E-02 0.20732081E+02</pdfrwt>
<pdfrwt beam="2">  1       21 0.12611973E-01 0.20732081E+02</pdfrwt>
<totfact> 0.56785556E+07</totfact>
</mgrwt>
</event>
<event>
 4    1  0.9138221E+003  0.7109464E+02  0.7546771E-02  0.1356410E+00
         21   -1    0    0  504  501  0.00000000000E+00  0.00000000000E+00  0.89118225387E+02  0.89118225387E+02  0.00000000000E+00 0. -1.
         21   -1    0    0  501  502 -0.00000000000E+00 -0.00000000000E+00 -0.64953170642E+02  0.64953170642E+02  0.00000000000E+00 0. -1.
         21    1    1    2  503  502  0.44651204262E+02  0.55323760712E+02  0.39515645609E+02  0.81338396770E+02  0.00000000000E+00 0.  1.
         21    1    1    2  504  503 -0.44651204262E+02 -0.55323760712E+02 -0.15350590863E+02  0.72732999259E+02  0.00000000000E+00 0.  1.
<mgrwt>
<rscale>  2 0.71094645E+02</rscale>
<asrwt>0</asrwt>
<pdfrwt beam="1">  1       21 0.13710496E-01 0.71094645E+02</pdfrwt>
<pdfrwt beam="2">  1       21 0.99927954E-02 0.71094645E+02</pdfrwt>
<totfact> 0.35887637E+06</totfact>
</mgrwt>
</event>
<event>
 4    1  0.9138221E+003  0.2016198E+02  0.7546771E-02  0.1742126E+00
         21   -1    0    0  503  501  0.00000000000E+00  0.00000000000E+00  0.43571434739E+03  0.43571434739E+03  0.00000000000E+00 0. -1.
         21   -1    0    0  501  502 -0.00000000000E+00 -0.00000000000E+00 -0.95337317794E+00  0.95337317794E+00  0.00000000000E+00 0. -1.
         21    1    1    2  503  504 -0.33022361865E+01  0.19889711430E+02  0.18543477762E+03  0.18652764443E+03  0.00000000000E+00 0. -1.
         21    1    1    2  504  502  0.33022361865E+01 -0.19889711430E+02  0.24932619659E+03  0.25014007614E+03  0.00000000000E+00 0. -1.
<mgrwt>
<rscale>  2 0.20161979E+02</rscale>
<asrwt>0</asrwt>
<pdfrwt beam="1">  1       21 0.67032818E-01 0.20161979E+02</pdfrwt>
<pdfrwt beam="2">  1       21 0.14667314E-03 0.20161979E+02</pdfrwt>
<totfact> 0.10321149E+08</totfact>
</mgrwt>
</event>
<event>
 4    1  0.9138221E+003  0.6441463E+02  0.7546771E-02  0.1380187E+00
         21   -1    0    0  502  501  0.00000000000E+00  0.00000000000E+00  0.47357385999E+03  0.47357385999E+03  0.00000000000E+00 0. -1.
         21   -1    0    0  504  502 -0.00000000000E+00 -0.00000000000E+00 -0.11282127140E+02  0.11282127140E+02  0.00000000000E+00 0. -1.
         21    1    1    2  503  501  0.21098445523E+02 -0.60861315673E+02  0.34573322431E+03  0.35168267876E+03  0.00000000000E+00 0. -1.
         21    1    1    2  504  503 -0.21098445523E+02  0.60861315673E+02  0.11655850854E+03  0.13317330837E+03  0.00000000000E+00 0. -1.
<mgrwt>
<rscale>  2 0.64414627E+02</rscale>
<asrwt>0</asrwt>
<pdfrwt beam="1">  1       21 0.72857502E-01 0.64414627E+02</pdfrwt>
<pdfrwt beam="2">  1       21 0.17357122E-02 0.64414627E+02</pdfrwt>
<totfact> 0.25477215E+06</totfact>
</mgrwt>
</event>
<event>
 4    1  0.9138221E+003  0.2542628E+02  0.7546771E-02  0.1654954E+00
         21   -1    0    0  502  501  0.00000000000E+00  0.00000000000E+00  0.78900468970E+03  0.78900468970E+03  0.00000000000E+00 0. -1.
         21   -1    0    0  504  502 -0.00000000000E+00 -0.00000000000E+00 -0.16100866469E+01  0.16100866469E+01  0.00000000000E+00 0. -1.
         21    1    1    2  503  501 -0.10517416242E+02  0.23149075029E+02  0.11667314947E+03  0.11941155525E+03  0.00000000000E+00 0.  1.
         21    1    1    2  504  503  0.10517416242E+02 -0.23149075029E+02  0.67072145359E+03  0.67120322110E+03  0.00000000000E+00 0.  1.
<mgrwt>
<rscale>  2 0.25426280E+02</rscale>
<asrwt>0</asrwt>
<pdfrwt beam="1">  1       21 0.12138503E+00 0.25426280E+02</pdfrwt>
<pdfrwt beam="2">  1       21 0.24770627E-03 0.25426280E+02</pdfrwt>
<totfact> 0.14252979E+07</totfact>
</mgrwt>
</event>
<event>
 4    1  0.9138221E+003  0.2207088E+02  0.7546771E-02  0.1707029E+00
         21   -1    0    0  502  501  0.00000000000E+00  0.00000000000E+00  0.18273476696E+01  0.18273476696E+01  0.00000000000E+00 0. -1.
         21   -1    0    0  503  502 -0.00000000000E+00 -0.00000000000E+00 -0.42617563922E+03  0.42617563922E+03  0.00000000000E+00 0. -1.
         21    1    1    2  503  504 -0.16901131262E+02 -0.14194200116E+02 -0.34313486014E+03  0.34384394106E+03  0.00000000000E+00 0. -1.
         21    1    1    2  504  501  0.16901131262E+02  0.14194200116E+02 -0.81213431410E+02  0.84159045837E+02  0.00000000000E+00 0. -1.
<mgrwt>
<rscale>  2 0.22070876E+02</rscale>
<asrwt>0</asrwt>
<pdfrwt beam="1">  1       21 0.28113071E-03 0.22070876E+02</pdfrwt>
<pdfrwt beam="2">  1       21 0.65565414E-01 0.22070876E+02</pdfrwt>
<totfact> 0.43252532E+07</totfact>
</mgrwt>
</event>
<event>
 4    1  0.9138221E+003  0.2299097E+02  0.7546771E-02  0.1691657E+00
         21   -1    0    0  504  501  0.00000000000E+00  0.00000000000E+00  0.10462256095E+02  0.10462256095E+02  0.00000000000E+00 0.  1.
         21   -1    0    0  501  502 -0.00000000000E+00 -0.00000000000E+00 -0.99092697565E+02  0.99092697565E+02  0.00000000000E+00 0.  1.
         21    1    1    2  503  502  0.17786296512E+02  0.14568189143E+02 -0.59653473303E+01  0.23752259835E+02  0.00000000000E+00 0.  1.
         21    1    1    2  504  503 -0.17786296512E+02 -0.14568189143E+02 -0.82665094139E+02  0.85802693825E+02  0.00000000000E+00 0.  1.
<mgrwt>
<rscale>  2 0.22990965E+02</rscale>
<asrwt>0</asrwt>
<pdfrwt beam="1">  1       21 0.16095778E-02 0.22990965E+02</pdfrwt>
<pdfrwt beam="2">  1       21 0.15245031E-01 0.22990965E+02</pdfrwt>
<totfact> 0.47878873E+07</totfact>
</mgrwt>
</event>
<event>
 4    1  0.9138221E+003  0.2800050E+02  0.7546771E-02  0.1621304E+00
         21   -1    0    0  503  501  0.00000000000E+00  0.00000000000E+00  0.62152945495E+03  0.62152945495E+03  0.00000000000E+00 0.  1.
         21   -1    0    0  501  502 -0.00000000000E+00 -0.00000000000E+00 -0.20699595596E+01  0.20699595596E+01  0.00000000000E+00 0.  1.
         21    1    1    2  503  504 -0.19391559479E+02 -0.20198893629E+02  0.11486308568E+03  0.11822671583E+03  0.00000000000E+00 0.  1.
         21    1    1    2  504  502  0.19391559479E+02  0.20198893629E+02  0.50459640971E+03  0.50537269868E+03  0.00000000000E+00 0.  1.
<mgrwt>
<rscale>  2 0.28000498E+02</rscale>
<asrwt>0</asrwt>
<pdfrwt beam="1">  1       21 0.95619767E-01 0.28000498E+02</pdfrwt>
<pdfrwt beam="2">  1       21 0.31845581E-03 0.28000498E+02</pdfrwt>
<totfact> 0.17084417E+07</totfact>
</mgrwt>
</event>
<event>
 4    1  0.9138221E+003  0.2142712E+02  0.7546771E-02  0.1718352E+00
         21   -1    0    0  504  501  0.00000000000E+00  0.00000000000E+00  0.36406044580E+01  0.36406044580E+01  0.00000000000E+00 0. -1.
         21   -1    0    0  501  502 -0.00000000000E+00 -0.00000000000E+00 -0.17435974947E+03  0.17435974947E+03  0.00000000000E+00 0. -1.
         21    1    1    2  503  502 -0.21427039248E+02 -0.57037732131E-01 -0.38541928800E+02  0.44097636443E+02  0.00000000000E+00 0. -1.
         21    1    1    2  504  503  0.21427039248E+02  0.57037732131E-01 -0.13217721621E+03  0.13390271748E+03  0.00000000000E+00 0. -1.
<mgrwt>
<rscale>  2 0.21427115E+02</rscale>
<asrwt>0</asrwt>
<pdfrwt beam="1">  1       21 0.56009296E-03 0.21427115E+02</pdfrwt>
<pdfrwt beam="2">  1       21 0.26824578E-01 0.21427115E+02</pdfrwt>
<totfact> 0.85267905E+07</totfact>
</mgrwt>
</event>
<event>
 4    1  0.9138221E+003  0.2002958E+02  0.7546771E-02  0.1744740E+00
         21   -1    0    0  503  501  0.00000000000E+00  0.00000000000E+00  0.13316728852E+03  0.13316728852E+03  0.00000000000E+00 0. -1.
         21   -1    0    0  501  502 -0.00000000000E+00 -0.00000000000E+00 -0.45742309270E+01  0.45742309270E+01  0.00000000000E+00 0. -1.
         21    1    1    2  503  504  0.10606532414E+02  0.16990753236E+02  0.24056305432E+02  0.31303195627E+02  0.00000000000E+00 0. -1.
         21    1    1    2  504  502 -0.10606532414E+02 -0.16990753236E+02  0.10453675216E+03  0.10643832382E+03  0.00000000000E+00 0. -1.
<mgrwt>
<rscale>  2 0.20029584E+02</rscale>
<asrwt>0</asrwt>
<pdfrwt beam="1">  1       21 0.20487272E-01 0.20029584E+02</pdfrwt>
<pdfrwt beam="2">  1       21 0.70372794E-03 0.20029584E+02</pdfrwt>
<totfact> 0.96044932E+07</totfact>
</mgrwt>
</event>
<event>
 4    1  0.9138221E+003  0.2327825E+02  0.7546771E-02  0.1687039E+00
         21   -1    0    0  502  501  0.00000000000E+00  0.00000000000E+00  0.22984821536E+01  0.22984821536E+01  0.00000000000E+00 0. -1.
         21   -1    0    0  504  502 -0.00000000000E+00 -0.00000000000E+00 -0.50629738058E+03  0.50629738058E+03  0.00000000000E+00 0. -1.
         21    1    1    2  503  501  0.23046014538E+02  0.32799623609E+01 -0.66108501457E+02  0.70087166471E+02  0.00000000000E+00 0. -1.
         21    1    1    2  504  503 -0.23046014538E+02 -0.32799623609E+01 -0.43789039697E+03  0.43850869626E+03  0.00000000000E+00 0. -1.
<mgrwt>
<rscale>  2 0.23278250E+02</rscale>
<asrwt>0</asrwt>
<pdfrwt beam="1">  1       21 0.35361271E-03 0.23278250E+02</pdfrwt>
<pdfrwt beam="2">  1       21 0.77891889E-01 0.23278250E+02</pdfrwt>
<totfact> 0.21971136E+07</totfact>
</mgrwt>
</event>
<event>
 4    1  0.9138221E+003  0.2688409E+02  0.7546771E-02  0.1635327E+00
         21   -1    0    0  504  501  0.00000000000E+00  0.00000000000E+00  0.73460648012E+01  0.73460648012E+01  0.00000000000E+00 0.  1.
         21   -1    0    0  501  502 -0.00000000000E+00 -0.00000000000E+00 -0.13070329173E+03  0.13070329173E+03  0.00000000000E+00 0.  1.
         21    1    1    2  503  502 -0.41549116243E+01  0.26561081805E+02 -0.96000769360E+02  0.99694042324E+02  0.00000000000E+00 0. -1.
         21    1    1    2  504  503  0.41549116243E+01 -0.26561081805E+02 -0.27356457573E+02  0.38355314211E+02  0.00000000000E+00 0. -1.
<mgrwt>
<rscale>  2 0.26884091E+02</rscale>
<asrwt>0</asrwt>
<pdfrwt beam="1">  1       21 0.11301639E-02 0.26884091E+02</pdfrwt>
<pdfrwt beam="2">  1       21 0.20108197E-01 0.26884091E+02</pdfrwt>
<totfact> 0.52691928E+07</totfact>
</mgrwt>
</event>
<event>
 4    1  0.9138221E+003  0.2611036E+02  0.7546771E-02  0.1645547E+00
         21   -1    0    0  502  501  0.00000000000E+00  0.00000000000E+00  0.29839981474E+03  0.29839981474E+03  0.00000000000E+00 0.  1.
         21   -1    0    0  504  502 -0.00000000000E+00 -0.00000000000E+00 -0.55544690800E+01  0.55544690800E+01  0.00000000000E+00 0.  1.
         21    1    1    2  503  501 -0.26024058920E+02  0.21211878252E+01  0.26302741147E+03  0.26432020404E+03  0.00000000000E+00 0. -1.
         21    1    1    2  504  503  0.26024058920E+02 -0.21211878252E+01  0.29817934191E+02  0.39634079779E+02  0.00000000000E+00 0. -1.
<mgrwt>
<rscale>  2 0.26110363E+02</rscale>
<asrwt>0</asrwt>
<pdfrwt beam="1">  1       21 0.45907651E-01 0.26110363E+02</pdfrwt>
<pdfrwt beam="2">  1       21 0.85453394E-03 0.26110363E+02</pdfrwt>
<totfact> 0.17538293E+07</totfact>
</mgrwt>
</event>
<event>
 4    1  0.9138221E+003  0.2450780E+02  0.7546771E-02  0.1668174E+00
         21   -1    0    0  502  501  0.00000000000E+00  0.00000000000E+00  0.40586717013E+02  0.40586717013E+02  0.00000000000E+00 0.  1.
         21   -1    0    0  504  502 -0.00000000000E+00 -0.00000000000E+00 -0.53842642076E+02  0.53842642076E+02  0.00000000000E+00 0.  1.
         21    1    1    2  503  501 -0.95756134058E+01  0.22559701409E+02  0.33577997939E+02  0.41570595922E+02  0.00000000000E+00 0. -1.
         21    1    1    2  504  503  0.95756134058E+01 -0.22559701409E+02 -0.46833923002E+02  0.52858763167E+02  0.00000000000E+00 0. -1.
<mgrwt>
<rscale>  2 0.24507805E+02</rscale>
<asrwt>0</asrwt>
<pdfrwt beam="1">  1       21 0.62441103E-02 0.24507805E+02</pdfrwt>
<pdfrwt beam="2">  1       21 0.82834834E-02 0.24507805E+02</pdfrwt>
<totfact> 0.16141593E+07</totfact>
</mgrwt>
</event>
<event>
 4    1  0.9138221E+003  0.2084799E+02  0.7546771E-02  0.1728972E+00
         21   -1    0    0  502  501  0.00000000000E+00  0.00000000000E+00  0.55458832672E+01  0.55458832672E+01  0.00000000000E+00 0.  1.
         21   -1    0    0  504  502 -0.00000000000E+00 -0.00000000000E+00 -0.85879028255E+02  0.85879028255E+02  0.00000000000E+00 0.  1.
         21    1    1    2  503  501 -0.10426830806E+02 -0.18053252807E+02 -0.53682375149E+02  0.57588507006E+02  0.00000000000E+00 0. -1.
         21    1    1    2  504  503  0.10426830806E+02  0.18053252807E+02 -0.26650769839E+02  0.33836404516E+02  0.00000000000E+00 0. -1.
<mgrwt>
<rscale>  2 0.20847991E+02</rscale>
<asrwt>0</asrwt>
<pdfrwt beam="1">  1       21 0.85321280E-03 0.20847991E+02</pdfrwt>
<pdfrwt beam="2">  1       21 0.13212158E-01 0.20847991E+02</pdfrwt>
<totfact> 0.15440714E+08</totfact>
</mgrwt>
</event>
<event>
 4    1  0.9138221E+003  0.2822532E+02  0.7546771E-02  0.1618577E+00
         21   -1    0    0  504  501  0.00000000000E+00  0.00000000000E+00  0.79768714519E+01  0.79768714519E+01  0.00000000000E+00 0.  1.
         21   -1    0    0  501  502 -0.00000000000E+00 -0.00000000000E+00 -0.16844024524E+03  0.16844024524E+03  0.00000000000E+00 0.  1.
         21    1    1    2  503  502 -0.26662519051E+02  0.92616938826E+01 -0.23952449799E+02  0.37018762096E+02  0.00000000000E+00 0.  1.
         21    1    1    2  504  503  0.26662519051E+02 -0.92616938826E+01 -0.13651092399E+03  0.13939835460E+03  0.00000000000E+00 0.  1.
<mgrwt>
<rscale>  2 0.28225324E+02</rscale>
<asrwt>0</asrwt>
<pdfrwt beam="1">  1       21 0.12272110E-02 0.28225324E+02</pdfrwt>
<pdfrwt beam="2">  1       21 0.25913884E-01 0.28225324E+02</pdfrwt>
<totfact> 0.29915142E+07</totfact>
</mgrwt>
</event>
<event>
 4    1  0.9138221E+003  0.3429177E+02  0.7546771E-02  0.1554981E+00
         21   -1    0    0  502  501  0.00000000000E+00  0.00000000000E+00  0.40282222691E+01  0.40282222691E+01  0.00000000000E+00 0. -1.
         21   -1    0    0  503  502 -0.00000000000E+00 -0.00000000000E+00 -0.31594783462E+03  0.31594783462E+03  0.00000000000E+00 0. -1.
         21    1    1    2  503  504 -0.12558848579E+02 -0.31909255120E+02 -0.11184114598E+03  0.11698019992E+03  0.00000000000E+00 0. -1.
         21    1    1    2  504  501  0.12558848579E+02  0.31909255120E+02 -0.20007846638E+03  0.20299585697E+03  0.00000000000E+00 0. -1.
<mgrwt>
<rscale>  2 0.34291766E+02</rscale>
<asrwt>0</asrwt>
<pdfrwt beam="1">  1       21 0.61972645E-03 0.34291766E+02</pdfrwt>
<pdfrwt beam="2">  1       21 0.48607363E-01 0.34291766E+02</pdfrwt>
<totfact> 0.26678201E+07</totfact>
</mgrwt>
</event>
<event>
 4    1  0.9138221E+003  0.2505364E+02  0.7546771E-02  0.1660233E+00
         21   -1    0    0  502  501  0.00000000000E+00  0.00000000000E+00  0.37862317194E+03  0.37862317194E+03  0.00000000000E+00 0.  1.
         21   -1    0    0  503  502 -0.00000000000E+00 -0.00000000000E+00 -0.19240564192E+01  0.19240564192E+01  0.00000000000E+00 0.  1.
         21    1    1    2  503  504  0.11654428122E+02 -0.22177895578E+02  0.25912990736E+03  0.26033822930E+03  0.00000000000E+00 0. -1.
         21    1    1    2  504  501 -0.11654428122E+02  0.22177895578E+02  0.11756920816E+03  0.12020899906E+03  0.00000000000E+00 0. -1.
<mgrwt>
<rscale>  2 0.25053637E+02</rscale>
<asrwt>0</asrwt>
<pdfrwt beam="1">  1       21 0.58249660E-01 0.25053637E+02</pdfrwt>
<pdfrwt beam="2">  1       21 0.29600898E-03 0.25053637E+02</pdfrwt>
<totfact> 0.52378702E+07</totfact>
</mgrwt>
</event>
<event>
 4    1  0.9138221E+003  0.2388464E+02  0.7546771E-02  0.1677559E+00
         21   -1    0    0  503  501  0.00000000000E+00  0.00000000000E+00  0.79321156694E+01  0.79321156694E+01  0.00000000000E+00 0.  1.
         21   -1    0    0  501  502 -0.00000000000E+00 -0.00000000000E+00 -0.10985299519E+03  0.10985299519E+03  0.00000000000E+00 0.  1.
         21    1    1    2  503  504 -0.10030907560E+02  0.21676183968E+02 -0.85567462919E+02  0.88838430695E+02  0.00000000000E+00 0. -1.
         21    1    1    2  504  502  0.10030907560E+02 -0.21676183968E+02 -0.16353416597E+02  0.28946680160E+02  0.00000000000E+00 0. -1.
<mgrwt>
<rscale>  2 0.23884641E+02</rscale>
<asrwt>0</asrwt>
<pdfrwt beam="1">  1       21 0.12203255E-02 0.23884641E+02</pdfrwt>
<pdfrwt beam="2">  1       21 0.16900461E-01 0.23884641E+02</pdfrwt>
<totfact> 0.61688992E+07</totfact>
</mgrwt>
</event>
<event>
 4    1  0.9138221E+003  0.2027926E+02  0.7546771E-02  0.1739831E+00
         21   -1    0    0  503  501  0.00000000000E+00  0.00000000000E+00  0.28489342614E+02  0.28489342614E+02  0.00000000000E+00 0.  1.
         21   -1    0    0  501  502 -0.00000000000E+00 -0.00000000000E+00 -0.69966101342E+02  0.69966101342E+02  0.00000000000E+00 0.  1.
         21    1    1    2  503  504 -0.19332226552E+02  0.61248276409E+01 -0.64594819970E+02  0.67703317970E+02  0.00000000000E+00 0. -1.
         21    1    1    2  504  502  0.19332226552E+02 -0.61248276409E+01  0.23118061242E+02  0.30752125986E+02  0.00000000000E+00 0. -1.
<mgrwt>
<rscale>  2 0.20279263E+02</rscale>
<asrwt>0</asrwt>
<pdfrwt beam="1">  1       21 0.43829758E-02 0.20279263E+02</pdfrwt>
<pdfrwt beam="2">  1       21 0.10764016E-01 0.20279263E+02</pdfrwt>
<totfact> 0.17688688E+07</totfact>
</mgrwt>
</event>
<event>
 4    1  0.9138221E+003  0.2281244E+02  0.7546771E-02  0.1694569E+00
         21   -1    0    0  504  501  0.00000000000E+00  0.00000000000E+00  0.54714801507E+03  0.54714801507E+03  0.00000000000E+00 0.  1.
         21   -1    0    0  501  502 -0.00000000000E+00 -0.00000000000E+00 -0.12679839076E+01  0.12679839076E+01  0.00000000000E+00 0.  1.
         21    1    1    2  503  502 -0.89724829107E+00  0.22794789642E+02  0.41001384302E+03  0.41064797450E+03  0.00000000000E+00 0. -1.
         21    1    1    2  504  503  0.89724829107E+00 -0.22794789642E+02  0.13586618814E+03  0.13776802448E+03  0.00000000000E+00 0. -1.
<mgrwt>
<rscale>  2 0.22812442E+02</rscale>
<asrwt>0</asrwt>
<pdfrwt beam="1">  1       21 0.84176429E-01 0.22812442E+02</pdfrwt>
<pdfrwt beam="2">  1       21 0.19507488E-03 0.22812442E+02</pdfrwt>
<totfact> 0.44104663E+07</totfact>
</mgrwt>
</event>
<event>
 4    1  0.9138221E+003  0.3993859E+02  0.7546771E-02  0.1508664E+00
         21   -1    0    0  503  501  0.00000000000E+00  0.00000000000E+00  0.12050079293E+03  0.12050079293E+03  0.00000000000E+00 0. -1.
         21   -1    0    0  501  502 -0.00000000000E+00 -0.00000000000E+00 -0.19634458532E+02  0.19634458532E+02  0.00000000000E+00 0. -1.
         21    1    1    2  503  504  0.39878749036E+02 -0.21854264202E+01  0.90428154143E+02  0.98855155531E+02  0.00000000000E+00 0. -1.
         21    1    1    2  504  502 -0.39878749036E+02  0.21854264202E+01  0.10438180259E+02  0.41280095936E+02  0.00000000000E+00 0. -1.
<mgrwt>
<rscale>  2 0.39938587E+02</rscale>
<asrwt>0</asrwt>
<pdfrwt beam="1">  1       21 0.18538583E-01 0.39938587E+02</pdfrwt>
<pdfrwt beam="2">  1       21 0.30206860E-02 0.39938587E+02</pdfrwt>
<totfact> 0.14267591E+07</totfact>
</mgrwt>
</event>
<event>
 4    1  0.9138221E+003  0.2190058E+02  0.7546771E-02  0.1709977E+00
         21   -1    0    0  502  501  0.00000000000E+00  0.00000000000E+00  0.45827200534E+01  0.45827200534E+01  0.00000000000E+00 0.  1.
         21   -1    0    0  503  502 -0.00000000000E+00 -0.00000000000E+00 -0.12872836212E+03  0.12872836212E+03  0.00000000000E+00 0.  1.
         21    1    1    2  503  504  0.10018992601E+02 -0.19474478626E+02 -0.90893655881E+02  0.93494877988E+02  0.00000000000E+00 0.  1.
         21    1    1    2  504  501 -0.10018992601E+02  0.19474478626E+02 -0.33251986186E+02  0.39816204187E+02  0.00000000000E+00 0.  1.
<mgrwt>
<rscale>  2 0.21900583E+02</rscale>
<asrwt>0</asrwt>
<pdfrwt beam="1">  1       21 0.70503381E-03 0.21900583E+02</pdfrwt>
<pdfrwt beam="2">  1       21 0.19804365E-01 0.21900583E+02</pdfrwt>
<totfact> 0.10421488E+08</totfact>
</mgrwt>
</event>
<event>
 4    1  0.9138221E+003  0.2418807E+02  0.7546771E-02  0.1672945E+00
         21   -1    0    0  504  501  0.00000000000E+00  0.00000000000E+00  0.92768409174E+02  0.92768409174E+02  0.00000000000E+00 0.  1.
         21   -1    0    0  501  502 -0.00000000000E+00 -0.00000000000E+00 -0.95142479675E+01  0.95142479675E+01  0.00000000000E+00 0.  1.
         21    1    1    2  503  502  0.81667007863E+01 -0.22767685649E+02  0.71321262435E+02  0.75311254052E+02  0.00000000000E+00 0. -1.
         21    1    1    2  504  503 -0.81667007863E+01  0.22767685649E+02  0.11932898771E+02  0.26971403089E+02  0.00000000000E+00 0. -1.
<mgrwt>
<rscale>  2 0.24188065E+02</rscale>
<asrwt>0</asrwt>
<pdfrwt beam="1">  1       21 0.14272062E-01 0.24188065E+02</pdfrwt>
<pdfrwt beam="2">  1       21 0.14637305E-02 0.24188065E+02</pdfrwt>
<totfact> 0.62717636E+07</totfact>
</mgrwt>
</event>
<event>
 4    1  0.9138221E+003  0.2218300E+02  0.7546771E-02  0.1705106E+00
         21   -1    0    0  502  501  0.00000000000E+00  0.00000000000E+00  0.55317856654E+03  0.55317856654E+03  0.00000000000E+00 0. -1.
         21   -1    0    0  503  502 -0.00000000000E+00 -0.00000000000E+00 -0.11748719952E+01  0.11748719952E+01  0.00000000000E+00 0. -1.
         21    1    1    2  503  504 -0.17644139333E+02 -0.13445059468E+02  0.13941092679E+03  0.14116476821E+03  0.00000000000E+00 0.  1.
         21    1    1    2  504  501  0.17644139333E+02  0.13445059468E+02  0.41259276776E+03  0.41318867032E+03  0.00000000000E+00 0.  1.
<mgrwt>
<rscale>  2 0.22182995E+02</rscale>
<asrwt>0</asrwt>
<pdfrwt beam="1">  1       21 0.85104187E-01 0.22182995E+02</pdfrwt>
<pdfrwt beam="2">  1       21 0.18074998E-03 0.22182995E+02</pdfrwt>
<totfact> 0.47799712E+07</totfact>
</mgrwt>
</event>
<event>
 4    1  0.9138221E+003  0.4920345E+02  0.7546771E-02  0.1449686E+00
         21   -1    0    0  503  501  0.00000000000E+00  0.00000000000E+00  0.68855938688E+03  0.68855938688E+03  0.00000000000E+00 0. -1.
         21   -1    0    0  501  502 -0.00000000000E+00 -0.00000000000E+00 -0.92404624771E+01  0.92404624771E+01  0.00000000000E+00 0. -1.
         21    1    1    2  503  504 -0.39845301138E+02  0.28867475172E+02  0.65046432797E+02  0.81559901699E+02  0.00000000000E+00 0.  1.
         21    1    1    2  504  502  0.39845301138E+02 -0.28867475172E+02  0.61427249161E+03  0.61623994766E+03  0.00000000000E+00 0.  1.
<mgrwt>
<rscale>  2 0.49203446E+02</rscale>
<asrwt>0</asrwt>
<pdfrwt beam="1">  1       21 0.10593217E+00 0.49203446E+02</pdfrwt>
<pdfrwt beam="2">  1       21 0.14216102E-02 0.49203446E+02</pdfrwt>
<totfact> 0.15008550E+06</totfact>
</mgrwt>
</event>
<event>
 4    1  0.9138221E+003  0.5332599E+02  0.7546771E-02  0.1428185E+00
         21   -1    0    0  502  501  0.00000000000E+00  0.00000000000E+00  0.77855562844E+02  0.77855562844E+02  0.00000000000E+00 0. -1.
         21   -1    0    0  504  502 -0.00000000000E+00 -0.00000000000E+00 -0.57315352161E+02  0.57315352161E+02  0.00000000000E+00 0. -1.
         21    1    1    2  503  501  0.47731016330E+02  0.23778367563E+02 -0.30435155564E+02  0.61399994936E+02  0.00000000000E+00 0. -1.
         21    1    1    2  504  503 -0.47731016330E+02 -0.23778367563E+02  0.50975366247E+02  0.73770920069E+02  0.00000000000E+00 0. -1.
<mgrwt>
<rscale>  2 0.53325985E+02</rscale>
<asrwt>0</asrwt>
<pdfrwt beam="1">  1       21 0.11977779E-01 0.53325985E+02</pdfrwt>
<pdfrwt beam="2">  1       21 0.88177465E-02 0.53325985E+02</pdfrwt>
<totfact> 0.54938506E+06</totfact>
</mgrwt>
</event>
<event>
 4    1  0.9138221E+003  0.2382633E+02  0.7546771E-02  0.1678455E+00
         21   -1    0    0  502  501  0.00000000000E+00  0.00000000000E+00  0.75774403705E+03  0.75774403705E+03  0.00000000000E+00 0. -1.
         21   -1    0    0  503  502 -0.00000000000E+00 -0.00000000000E+00 -0.12700233298E+01  0.12700233298E+01  0.00000000000E+00 0. -1.
         21    1    1    2  503  504 -0.18769614720E+02 -0.14676361830E+02  0.13520499493E+03  0.13728832685E+03  0.00000000000E+00 0.  1.
         21    1    1    2  504  501  0.18769614720E+02  0.14676361830E+02  0.62126901879E+03  0.62172573353E+03  0.00000000000E+00 0.  1.
<mgrwt>
<rscale>  2 0.23826331E+02</rscale>
<asrwt>0</asrwt>
<pdfrwt beam="1">  1       21 0.11657564E+00 0.23826331E+02</pdfrwt>
<pdfrwt beam="2">  1       21 0.19538881E-03 0.23826331E+02</pdfrwt>
<totfact> 0.21796648E+07</totfact>
</mgrwt>
</event>
<event>
 4    1  0.9138221E+003  0.2144718E+02  0.7546771E-02  0.1717992E+00
         21   -1    0    0  502  501  0.00000000000E+00  0.00000000000E+00  0.15332532597E+01  0.15332532597E+01  0.00000000000E+00 0.  1.
         21   -1    0    0  503  502 -0.00000000000E+00 -0.00000000000E+00 -0.33016794299E+03  0.33016794299E+03  0.00000000000E+00 0.  1.
         21    1    1    2  503  504  0.18243088465E+02  0.11277024644E+02 -0.21444717408E+03  0.21551698781E+03  0.00000000000E+00 0.  1.
         21    1    1    2  504  501 -0.18243088465E+02 -0.11277024644E+02 -0.11418751564E+03  0.11618420844E+03  0.00000000000E+00 0.  1.
<mgrwt>
<rscale>  2 0.21447181E+02</rscale>
<asrwt>0</asrwt>
<pdfrwt beam="1">  1       21 0.23588506E-03 0.21447181E+02</pdfrwt>
<pdfrwt beam="2">  1       21 0.50795080E-01 0.21447181E+02</pdfrwt>
<totfact> 0.91862037E+07</totfact>
</mgrwt>
</event>
<event>
 4    1  0.9138221E+003  0.2057040E+02  0.7546771E-02  0.1734217E+00
         21   -1    0    0  504  501  0.00000000000E+00  0.00000000000E+00  0.96940699641E+02  0.96940699641E+02  0.00000000000E+00 0. -1.
         21   -1    0    0  501  502 -0.00000000000E+00 -0.00000000000E+00 -0.48981931146E+01  0.48981931146E+01  0.00000000000E+00 0. -1.
         21    1    1    2  503  502 -0.19975514744E+02 -0.49112080495E+01  0.62822015772E+02  0.66104060537E+02  0.00000000000E+00 0. -1.
         21    1    1    2  504  503  0.19975514744E+02  0.49112080495E+01  0.29220490754E+02  0.35734832218E+02  0.00000000000E+00 0. -1.
<mgrwt>
<rscale>  2 0.20570395E+02</rscale>
<asrwt>0</asrwt>
<pdfrwt beam="1">  1       21 0.14913952E-01 0.20570395E+02</pdfrwt>
<pdfrwt beam="2">  1       21 0.75356824E-03 0.20570395E+02</pdfrwt>
<totfact> 0.15079264E+08</totfact>
</mgrwt>
</event>
<event>
 4    1  0.9138221E+003  0.2118819E+02  0.7546771E-02  0.1722682E+00
         21   -1    0    0  503  501  0.00000000000E+00  0.00000000000E+00  0.22780063227E+03  0.22780063227E+03  0.00000000000E+00 0.  1.
         21   -1    0    0  501  502 -0.00000000000E+00 -0.00000000000E+00 -0.30767643153E+01  0.30767643153E+01  0.00000000000E+00 0.  1.
         21    1    1    2  503  504 -0.12325764189E+02 -0.17234116847E+02  0.43149569102E+02  0.48071036602E+02  0.00000000000E+00 0.  1.
         21    1    1    2  504  502  0.12325764189E+02  0.17234116847E+02  0.18157429885E+03  0.18280635998E+03  0.00000000000E+00 0.  1.
<mgrwt>
<rscale>  2 0.21188186E+02</rscale>
<asrwt>0</asrwt>
<pdfrwt beam="1">  1       21 0.35046238E-01 0.21188186E+02</pdfrwt>
<pdfrwt beam="2">  1       21 0.47334854E-03 0.21188186E+02</pdfrwt>
<totfact> 0.66991559E+07</totfact>
</mgrwt>
</event>
<event>
 4    1  0.9138221E+003  0.2072971E+02  0.7546771E-02  0.1731195E+00
         21   -1    0    0  503  501  0.00000000000E+00  0.00000000000E+00  0.72073803175E+00  0.72073803175E+00  0.00000000000E+00 0.  1.
         21   -1    0    0  501  502 -0.00000000000E+00 -0.00000000000E+00 -0.84529214215E+03  0.84529214215E+03  0.00000000000E+00 0.  1.
         21    1    1    2  503  504  0.16333651054E+01  0.20665259302E+02 -0.19266912147E+03  0.19378109090E+03  0.00000000000E+00 0.  1.
         21    1    1    2  504  502 -0.16333651054E+01 -0.20665259302E+02 -0.65190228265E+03  0.65223178928E+03  0.00000000000E+00 0.  1.
<mgrwt>
<rscale>  2 0.20729709E+02</rscale>
<asrwt>0</asrwt>
<pdfrwt beam="1">  1       21 0.11088312E-03 0.20729709E+02</pdfrwt>
<pdfrwt beam="2">  1       21 0.13004454E+00 0.20729709E+02</pdfrwt>
<totfact> 0.37249160E+07</totfact>
</mgrwt>
</event>
<event>
 4    1  0.9138221E+003  0.2099372E+02  0.7546771E-02  0.1726260E+00
         21   -1    0    0  502  501  0.00000000000E+00  0.00000000000E+00  0.49671435666E+01  0.49671435666E+01  0.00000000000E+00 0. -1.
         21   -1    0    0  503  502 -0.00000000000E+00 -0.00000000000E+00 -0.11358691968E+03  0.11358691968E+03  0.00000000000E+00 0. -1.
         21    1    1    2  503  504  0.81682140459E+01 -0.19339503906E+02 -0.82039470643E+02  0.84683002281E+02  0.00000000000E+00 0.  1.
         21    1    1    2  504  501 -0.81682140459E+01  0.19339503906E+02 -0.26580305472E+02  0.33871060967E+02  0.00000000000E+00 0.  1.
<mgrwt>
<rscale>  2 0.20993716E+02</rscale>
<asrwt>0</asrwt>
<pdfrwt beam="1">  1       21 0.76417596E-03 0.20993716E+02</pdfrwt>
<pdfrwt beam="2">  1       21 0.17474910E-01 0.20993716E+02</pdfrwt>
<totfact> 0.11340480E+08</totfact>
</mgrwt>
</event>
<event>
 4    1  0.9138221E+003  0.2318689E+02  0.7546771E-02  0.1688498E+00
         21   -1    0    0  502  501  0.00000000000E+00  0.00000000000E+00  0.55527767811E+03  0.55527767811E+03  0.00000000000E+00 0. -1.
         21   -1    0    0  503  502 -0.00000000000E+00 -0.00000000000E+00 -0.29373897256E+01  0.29373897256E+01  0.00000000000E+00 0. -1.
         21    1    1    2  503  504  0.16445225832E+02 -0.16345840819E+02  0.47645970087E+02  0.52988399016E+02  0.00000000000E+00 0.  1.
         21    1    1    2  504  501 -0.16445225832E+02  0.16345840819E+02  0.50469431830E+03  0.50522666882E+03  0.00000000000E+00 0.  1.
<mgrwt>
<rscale>  2 0.23186892E+02</rscale>
<asrwt>0</asrwt>
<pdfrwt beam="1">  1       21 0.85427251E-01 0.23186892E+02</pdfrwt>
<pdfrwt beam="2">  1       21 0.45190655E-03 0.23186892E+02</pdfrwt>
<totfact> 0.12611871E+07</totfact>
</mgrwt>
</event>
<event>
 4    1  0.9138221E+003  0.2675112E+02  0.7546771E-02  0.1637053E+00
         21   -1    0    0  503  501  0.00000000000E+00  0.00000000000E+00  0.18316243542E+01  0.18316243542E+01  0.00000000000E+00 0.  1.
         21   -1    0    0  501  502 -0.00000000000E+00 -0.00000000000E+00 -0.73192887399E+03  0.73192887399E+03  0.00000000000E+00 0.  1.
         21    1    1    2  503  504 -0.89876648943E+01 -0.25196111595E+02 -0.61555022934E+03  0.61613124170E+03  0.00000000000E+00 0.  1.
         21    1    1    2  504  502  0.89876648943E+01  0.25196111595E+02 -0.11454702030E+03  0.11762925665E+03  0.00000000000E+00 0.  1.
<mgrwt>
<rscale>  2 0.26751115E+02</rscale>
<asrwt>0</asrwt>
<pdfrwt beam="1">  1       21 0.28178837E-03 0.26751115E+02</pdfrwt>
<pdfrwt beam="2">  1       21 0.11260444E+00 0.26751115E+02</pdfrwt>
<totfact> 0.14110317E+07</totfact>
</mgrwt>
</event>
<event>
 4    1  0.9138221E+003  0.3414447E+02  0.7546771E-02  0.1556332E+00
         21   -1    0    0  504  501  0.00000000000E+00  0.00000000000E+00  0.25495239678E+02  0.25495239678E+02  0.00000000000E+00 0. -1.
         21   -1    0    0  501  502 -0.00000000000E+00 -0.00000000000E+00 -0.46749068989E+02  0.46749068989E+02  0.00000000000E+00 0. -1.
         21    1    1    2  503  502  0.22458367741E+02 -0.25718988786E+02 -0.52883008842E+01  0.34551567142E+02  0.00000000000E+00 0.  1.
         21    1    1    2  504  503 -0.22458367741E+02  0.25718988786E+02 -0.15965528426E+02  0.37692741525E+02  0.00000000000E+00 0.  1.
<mgrwt>
<rscale>  2 0.34144468E+02</rscale>
<asrwt>0</asrwt>
<pdfrwt beam="1">  1       21 0.39223446E-02 0.34144468E+02</pdfrwt>
<pdfrwt beam="2">  1       21 0.71921644E-02 0.34144468E+02</pdfrwt>
<totfact> 0.45947582E+07</totfact>
</mgrwt>
</event>
<event>
 4    1  0.9138221E+003  0.2188814E+02  0.7546771E-02  0.1710194E+00
         21   -1    0    0  502  501  0.00000000000E+00  0.00000000000E+00  0.23183130624E+02  0.23183130624E+02  0.00000000000E+00 0. -1.
         21   -1    0    0  503  502 -0.00000000000E+00 -0.00000000000E+00 -0.33238977773E+02  0.33238977773E+02  0.00000000000E+00 0. -1.
         21    1    1    2  503  504  0.21206836667E+02  0.54185403027E+01 -0.22378885493E+02  0.31303434577E+02  0.00000000000E+00 0. -1.
         21    1    1    2  504  501 -0.21206836667E+02 -0.54185403027E+01  0.12323038345E+02  0.25118673820E+02  0.00000000000E+00 0. -1.
<mgrwt>
<rscale>  2 0.21888136E+02</rscale>
<asrwt>0</asrwt>
<pdfrwt beam="1">  1       21 0.35666355E-02 0.21888136E+02</pdfrwt>
<pdfrwt beam="2">  1       21 0.51136889E-02 0.21888136E+02</pdfrwt>
<totfact> 0.83213665E+07</totfact>
</mgrwt>
</event>
<event>
 4    1  0.9138221E+003  0.2461915E+02  0.7546771E-02  0.1666533E+00
         21   -1    0    0  502  501  0.00000000000E+00  0.00000000000E+00  0.20241896628E+03  0.20241896628E+03  0.00000000000E+00 0. -1.
         21   -1    0    0  503  502 -0.00000000000E+00 -0.00000000000E+00 -0.66131907870E+01  0.66131907870E+01  0.00000000000E+00 0. -1.
         21    1    1    2  503  504 -0.23951166966E+02 -0.56959672983E+01  0.20587574985E+02  0.32092844783E+02  0.00000000000E+00 0. -1.
         21    1    1    2  504  501  0.23951166966E+02  0.56959672983E+01  0.17521820051E+03  0.17693931229E+03  0.00000000000E+00 0. -1.
<mgrwt>
<rscale>  2 0.24619148E+02</rscale>
<asrwt>0</asrwt>
<pdfrwt beam="1">  1       21 0.31141375E-01 0.24619148E+02</pdfrwt>
<pdfrwt beam="2">  1       21 0.10174141E-02 0.24619148E+02</pdfrwt>
<totfact> 0.27655228E+07</totfact>
</mgrwt>
</event>
<event>
 4    1  0.9138221E+003  0.2965217E+02  0.7546771E-02  0.1601966E+00
         21   -1    0    0  502  501  0.00000000000E+00  0.00000000000E+00  0.90208214018E+02  0.90208214018E+02  0.00000000000E+00 0.  1.
         21   -1    0    0  504  502 -0.00000000000E+00 -0.00000000000E+00 -0.30748415992E+02  0.30748415992E+02  0.00000000000E+00 0.  1.
         21    1    1    2  503  501 -0.69273785022E+01 -0.28831629826E+02 -0.20252087805E+02  0.35908195608E+02  0.00000000000E+00 0.  1.
         21    1    1    2  504  503  0.69273785022E+01  0.28831629826E+02  0.79711885831E+02  0.85048434401E+02  0.00000000000E+00 0.  1.
<mgrwt>
<rscale>  2 0.29652174E+02</rscale>
<asrwt>0</asrwt>
<pdfrwt beam="1">  1       21 0.13878187E-01 0.29652174E+02</pdfrwt>
<pdfrwt beam="2">  1       21 0.47305256E-02 0.29652174E+02</pdfrwt>
<totfact> 0.11019935E+07</totfact>
</mgrwt>
</event>
<event>
 4    1  0.9138221E+003  0.2573728E+02  0.7546771E-02  0.1650632E+00
         21   -1    0    0  503  501  0.00000000000E+00  0.00000000000E+00  0.43340125427E+02  0.43340125427E+02  0.00000000000E+00 0. -1.
         21   -1    0    0  501  502 -0.00000000000E+00 -0.00000000000E+00 -0.65818141674E+02  0.65818141674E+02  0.00000000000E+00 0. -1.
         21    1    1    2  503  504 -0.25456278884E+02  0.37928254844E+01 -0.59063080501E+02  0.64427130450E+02  0.00000000000E+00 0. -1.
         21    1    1    2  504  502  0.25456278884E+02 -0.37928254844E+01  0.36585064254E+02  0.44731136652E+02  0.00000000000E+00 0. -1.
<mgrwt>
<rscale>  2 0.25737282E+02</rscale>
<asrwt>0</asrwt>
<pdfrwt beam="1">  1       21 0.66677116E-02 0.25737282E+02</pdfrwt>
<pdfrwt beam="2">  1       21 0.10125868E-01 0.25737282E+02</pdfrwt>
<totfact> 0.10514416E+07</totfact>
</mgrwt>
</event>
<event>
 4    1  0.9138221E+003  0.2754252E+02  0.7546771E-02  0.1626958E+00
         21   -1    0    0  504  501  0.00000000000E+00  0.00000000000E+00  0.30299640720E+02  0.30299640720E+02  0.00000000000E+00 0. -1.
         21   -1    0    0  501  502 -0.00000000000E+00 -0.00000000000E+00 -0.45295115895E+02  0.45295115895E+02  0.00000000000E+00 0. -1.
         21    1    1    2  503  502 -0.24899790078E+02  0.11772470579E+02  0.17780286288E+02  0.32783062547E+02  0.00000000000E+00 0. -1.
         21    1    1    2  504  503  0.24899790078E+02 -0.11772470579E+02 -0.32775761464E+02  0.42811694068E+02  0.00000000000E+00 0. -1.
<mgrwt>
<rscale>  2 0.27542524E+02</rscale>
<asrwt>0</asrwt>
<pdfrwt beam="1">  1       21 0.46614832E-02 0.27542524E+02</pdfrwt>
<pdfrwt beam="2">  1       21 0.69684794E-02 0.27542524E+02</pdfrwt>
<totfact> 0.35084020E+07</totfact>
</mgrwt>
</event>
<event>
 4    1  0.9138221E+003  0.2433464E+02  0.7546771E-02  0.1670747E+00
         21   -1    0    0  503  501  0.00000000000E+00  0.00000000000E+00  0.50880136804E+02  0.50880136804E+02  0.00000000000E+00 0. -1.
         21   -1    0    0  501  502 -0.00000000000E+00 -0.00000000000E+00 -0.25763687232E+02  0.25763687232E+02  0.00000000000E+00 0. -1.
         21    1    1    2  503  504 -0.11254228582E+02 -0.21575840058E+02  0.40933392363E+02  0.47620553814E+02  0.00000000000E+00 0. -1.
         21    1    1    2  504  502  0.11254228582E+02  0.21575840058E+02 -0.15816942790E+02  0.29023270223E+02  0.00000000000E+00 0. -1.
<mgrwt>
<rscale>  2 0.24334637E+02</rscale>
<asrwt>0</asrwt>
<pdfrwt beam="1">  1       21 0.78277133E-02 0.24334637E+02</pdfrwt>
<pdfrwt beam="2">  1       21 0.39636442E-02 0.24334637E+02</pdfrwt>
<totfact> 0.36510322E+07</totfact>
</mgrwt>
</event>
<event>
 4    1  0.9138221E+003  0.2080745E+02  0.7546771E-02  0.1729732E+00
         21   -1    0    0  504  501  0.00000000000E+00  0.00000000000E+00  0.52081483949E+01  0.52081483949E+01  0.00000000000E+00 0. -1.
         21   -1    0    0  501  502 -0.00000000000E+00 -0.00000000000E+00 -0.10152733219E+03  0.10152733219E+03  0.00000000000E+00 0. -1.
         21    1    1    2  503  502 -0.20561158882E+02 -0.31919899016E+01 -0.70877706210E+02  0.73868797822E+02  0.00000000000E+00 0.  1.
         21    1    1    2  504  503  0.20561158882E+02  0.31919899016E+01 -0.25441477586E+02  0.32866682763E+02  0.00000000000E+00 0.  1.
<mgrwt>
<rscale>  2 0.20807452E+02</rscale>
<asrwt>0</asrwt>
<pdfrwt beam="1">  1       21 0.80125365E-03 0.20807452E+02</pdfrwt>
<pdfrwt beam="2">  1       21 0.15619589E-01 0.20807452E+02</pdfrwt>
<totfact> 0.12770212E+08</totfact>
</mgrwt>
</event>
<event>
 4    1  0.9138221E+003  0.2445129E+02  0.7546771E-02  0.1669011E+00
         21   -1    0    0  502  501  0.00000000000E+00  0.00000000000E+00  0.17749379080E+03  0.17749379080E+03  0.00000000000E+00 0. -1.
         21   -1    0    0  504  502 -0.00000000000E+00 -0.00000000000E+00 -0.43497131202E+01  0.43497131202E+01  0.00000000000E+00 0. -1.
         21    1    1    2  503  501 -0.58729118519E+01 -0.23735514378E+02  0.12975840993E+03  0.13204207921E+03  0.00000000000E+00 0.  1.
         21    1    1    2  504  503  0.58729118519E+01  0.23735514378E+02  0.43385667752E+02  0.49801424705E+02  0.00000000000E+00 0.  1.
<mgrwt>
<rscale>  2 0.24451293E+02</rscale>
<asrwt>0</asrwt>
<pdfrwt beam="1">  1       21 0.27306732E-01 0.24451293E+02</pdfrwt>
<pdfrwt beam="2">  1       21 0.66918677E-03 0.24451293E+02</pdfrwt>
<totfact> 0.65665923E+07</totfact>
</mgrwt>
</event>
<event>
 4    1  0.9138221E+003  0.2162566E+02  0.7546771E-02  0.1714808E+00
         21   -1    0    0  502  501  0.00000000000E+00  0.00000000000E+00  0.82534043917E+01  0.82534043917E+01  0.00000000000E+00 0.  1.
         21   -1    0    0  503  502 -0.00000000000E+00 -0.00000000000E+00 -0.12729206477E+03  0.12729206477E+03  0.00000000000E+00 0.  1.
         21    1    1    2  503  504  0.11977508106E+02 -0.18005788688E+02 -0.90365039904E+01  0.23437737329E+02  0.00000000000E+00 0. -1.
         21    1    1    2  504  501 -0.11977508106E+02  0.18005788688E+02 -0.11000215639E+03  0.11210773183E+03  0.00000000000E+00 0. -1.
<mgrwt>
<rscale>  2 0.21625659E+02</rscale>
<asrwt>0</asrwt>
<pdfrwt beam="1">  1       21 0.12697545E-02 0.21625659E+02</pdfrwt>
<pdfrwt beam="2">  1       21 0.19583395E-01 0.21625659E+02</pdfrwt>
<totfact> 0.43902534E+07</totfact>
</mgrwt>
</event>
<event>
 4    1  0.9138221E+003  0.2614818E+02  0.7546771E-02  0.1645037E+00
         21   -1    0    0  502  501  0.00000000000E+00  0.00000000000E+00  0.25228499696E+01  0.25228499696E+01  0.00000000000E+00 0. -1.
         21   -1    0    0  504  502 -0.00000000000E+00 -0.00000000000E+00 -0.39300355260E+03  0.39300355260E+03  0.00000000000E+00 0. -1.
         21    1    1    2  503  501  0.25052723633E+02  0.74892233960E+01 -0.30542186367E+03  0.30653913655E+03  0.00000000000E+00 0.  1.
         21    1    1    2  504  503 -0.25052723633E+02 -0.74892233960E+01 -0.85058838960E+02  0.88987266020E+02  0.00000000000E+00 0.  1.
<mgrwt>
<rscale>  2 0.26148182E+02</rscale>
<asrwt>0</asrwt>
<pdfrwt beam="1">  1       21 0.38813102E-03 0.26148182E+02</pdfrwt>
<pdfrwt beam="2">  1       21 0.60462045E-01 0.26148182E+02</pdfrwt>
<totfact> 0.32962819E+07</totfact>
</mgrwt>
</event>
<event>
 4    1  0.9138221E+003  0.2549260E+02  0.7546771E-02  0.1654026E+00
         21   -1    0    0  504  501  0.00000000000E+00  0.00000000000E+00  0.42520354811E+02  0.42520354811E+02  0.00000000000E+00 0.  1.
         21   -1    0    0  501  502 -0.00000000000E+00 -0.00000000000E+00 -0.39200002062E+02  0.39200002062E+02  0.00000000000E+00 0.  1.
         21    1    1    2  503  502  0.24988655635E+02 -0.50437827268E+01 -0.30255445351E+02  0.39563425383E+02  0.00000000000E+00 0.  1.
         21    1    1    2  504  503 -0.24988655635E+02  0.50437827268E+01  0.33575798100E+02  0.42156931490E+02  0.00000000000E+00 0.  1.
<mgrwt>
<rscale>  2 0.25492600E+02</rscale>
<asrwt>0</asrwt>
<pdfrwt beam="1">  1       21 0.65415930E-02 0.25492600E+02</pdfrwt>
<pdfrwt beam="2">  1       21 0.60307696E-02 0.25492600E+02</pdfrwt>
<totfact> 0.25285957E+07</totfact>
</mgrwt>
</event>
<event>
 4    1  0.9138221E+003  0.3254941E+02  0.7546771E-02  0.1571505E+00
         21   -1    0    0  504  501  0.00000000000E+00  0.00000000000E+00  0.21365186668E+02  0.21365186668E+02  0.00000000000E+00 0. -1.
         21   -1    0    0  501  502 -0.00000000000E+00 -0.00000000000E+00 -0.10950427507E+03  0.10950427507E+03  0.00000000000E+00 0. -1.
         21    1    1    2  503  502  0.15564946885E+02 -0.28586648380E+02  0.43325298302E+01  0.32836486595E+02  0.00000000000E+00 0. -1.
         21    1    1    2  504  503 -0.15564946885E+02  0.28586648380E+02 -0.92471618236E+02  0.98032975148E+02  0.00000000000E+00 0. -1.
<mgrwt>
<rscale>  2 0.32549409E+02</rscale>
<asrwt>0</asrwt>
<pdfrwt beam="1">  1       21 0.32869518E-02 0.32549409E+02</pdfrwt>
<pdfrwt beam="2">  1       21 0.16846811E-01 0.32549409E+02</pdfrwt>
<totfact> 0.14299107E+07</totfact>
</mgrwt>
</event>
<event>
 4    1  0.9138221E+003  0.2380268E+02  0.7546771E-02  0.1678820E+00
         21   -1    0    0  504  501  0.00000000000E+00  0.00000000000E+00  0.10965552036E+03  0.10965552036E+03  0.00000000000E+00 0.  1.
         21   -1    0    0  501  502 -0.00000000000E+00 -0.00000000000E+00 -0.56475410800E+01  0.56475410800E+01  0.00000000000E+00 0.  1.
         21    1    1    2  503  502  0.21844714337E+02 -0.94538818081E+01  0.35183458168E+02  0.42478737674E+02  0.00000000000E+00 0.  1.
         21    1    1    2  504  503 -0.21844714337E+02  0.94538818081E+01  0.68824521111E+02  0.72824323765E+02  0.00000000000E+00 0.  1.
<mgrwt>
<rscale>  2 0.23802677E+02</rscale>
<asrwt>0</asrwt>
<pdfrwt beam="1">  1       21 0.16870078E-01 0.23802677E+02</pdfrwt>
<pdfrwt beam="2">  1       21 0.86885256E-03 0.23802677E+02</pdfrwt>
<totfact> 0.10308655E+08</totfact>
</mgrwt>
</event>
<event>
 4    1  0.9138221E+003  0.2032019E+02  0.7546771E-02  0.1739035E+00
         21   -1    0    0  502  501  0.00000000000E+00  0.00000000000E+00  0.69265555025E+03  0.69265555025E+03  0.00000000000E+00 0.  1.
         21   -1    0    0  503  502 -0.00000000000E+00 -0.00000000000E+00 -0.69861926889E+00  0.69861926889E+00  0.00000000000E+00 0.  1.
         21    1    1    2  503  504 -0.20266975613E+02  0.14695683602E+01  0.47876458635E+03  0.47919561671E+03  0.00000000000E+00 0. -1.
         21    1    1    2  504  501  0.20266975613E+02 -0.14695683602E+01  0.21319234463E+03  0.21415855281E+03  0.00000000000E+00 0. -1.
<mgrwt>
<rscale>  2 0.20320185E+02</rscale>
<asrwt>0</asrwt>
<pdfrwt beam="1">  1       21 0.10656184E+00 0.20320185E+02</pdfrwt>
<pdfrwt beam="2">  1       21 0.10748044E-03 0.20320185E+02</pdfrwt>
<totfact> 0.60591873E+07</totfact>
</mgrwt>
</event>
<event>
 4    1  0.9138221E+003  0.2550598E+02  0.7546771E-02  0.1653839E+00
         21   -1    0    0  503  501  0.00000000000E+00  0.00000000000E+00  0.91023313037E+01  0.91023313037E+01  0.00000000000E+00 0.  1.
         21   -1    0    0  501  502 -0.00000000000E+00 -0.00000000000E+00 -0.10671708224E+03  0.10671708224E+03  0.00000000000E+00 0.  1.
         21    1    1    2  503  504  0.58376031260E+01  0.24828961827E+02 -0.15526993139E+02  0.29860382978E+02  0.00000000000E+00 0. -1.
         21    1    1    2  504  502 -0.58376031260E+01 -0.24828961827E+02 -0.82087757796E+02  0.85959030564E+02  0.00000000000E+00 0. -1.
<mgrwt>
<rscale>  2 0.25505979E+02</rscale>
<asrwt>0</asrwt>
<pdfrwt beam="1">  1       21 0.14003587E-02 0.25505979E+02</pdfrwt>
<pdfrwt beam="2">  1       21 0.16418013E-01 0.25505979E+02</pdfrwt>
<totfact> 0.53477695E+07</totfact>
</mgrwt>
</event>
<event>
 4    1  0.9138221E+003  0.2096124E+02  0.7546771E-02  0.1726862E+00
         21   -1    0    0  504  501  0.00000000000E+00  0.00000000000E+00  0.47084075175E+02  0.47084075175E+02  0.00000000000E+00 0. -1.
         21   -1    0    0  501  502 -0.00000000000E+00 -0.00000000000E+00 -0.12960599121E+02  0.12960599121E+02  0.00000000000E+00 0. -1.
         21    1    1    2  503  502  0.20423441498E+02 -0.47177097198E+01  0.32947948692E+02  0.39050493859E+02  0.00000000000E+00 0. -1.
         21    1    1    2  504  503 -0.20423441498E+02  0.47177097198E+01  0.11755273625E+01  0.20994180437E+02  0.00000000000E+00 0. -1.
<mgrwt>
<rscale>  2 0.20961244E+02</rscale>
<asrwt>0</asrwt>
<pdfrwt beam="1">  1       21 0.72437038E-02 0.20961244E+02</pdfrwt>
<pdfrwt beam="2">  1       21 0.19939383E-02 0.20961244E+02</pdfrwt>
<totfact> 0.11556397E+08</totfact>
</mgrwt>
</event>
<event>
 4    1  0.9138221E+003  0.2100478E+02  0.7546771E-02  0.1726055E+00
         21   -1    0    0  503  501  0.00000000000E+00  0.00000000000E+00  0.23433175643E+03  0.23433175643E+03  0.00000000000E+00 0.  1.
         21   -1    0    0  501  502 -0.00000000000E+00 -0.00000000000E+00 -0.42756026357E+01  0.42756026357E+01  0.00000000000E+00 0.  1.
         21    1    1    2  503  504  0.16924905833E+02  0.12439781408E+02  0.20427809482E+03  0.20535515728E+03  0.00000000000E+00 0.  1.
         21    1    1    2  504  502 -0.16924905833E+02 -0.12439781408E+02  0.25778058971E+02  0.33252201780E+02  0.00000000000E+00 0.  1.
<mgrwt>
<rscale>  2 0.21004776E+02</rscale>
<asrwt>0</asrwt>
<pdfrwt beam="1">  1       21 0.36051030E-01 0.21004776E+02</pdfrwt>
<pdfrwt beam="2">  1       21 0.65778520E-03 0.21004776E+02</pdfrwt>
<totfact> 0.39054570E+07</totfact>
</mgrwt>
</event>
<event>
 4    1  0.9138221E+003  0.2604424E+02  0.7546771E-02  0.1646441E+00
         21   -1    0    0  503  501  0.00000000000E+00  0.00000000000E+00  0.72683804806E+03  0.72683804806E+03  0.00000000000E+00 0.  1.
         21   -1    0    0  501  502 -0.00000000000E+00 -0.00000000000E+00 -0.94263116828E+00  0.94263116828E+00  0.00000000000E+00 0.  1.
         21    1    1    2  503  504 -0.26013299217E+02 -0.12691208238E+01  0.32659482822E+03  0.32763162885E+03  0.00000000000E+00 0.  1.
         21    1    1    2  504  502  0.26013299217E+02  0.12691208238E+01  0.39930058867E+03  0.40014905037E+03  0.00000000000E+00 0.  1.
<mgrwt>
<rscale>  2 0.26044239E+02</rscale>
<asrwt>0</asrwt>
<pdfrwt beam="1">  1       21 0.11182079E+00 0.26044239E+02</pdfrwt>
<pdfrwt beam="2">  1       21 0.14502076E-03 0.26044239E+02</pdfrwt>
<totfact> 0.37401846E+07</totfact>
</mgrwt>
</event>
<event>
 4    1  0.9138221E+003  0.2943645E+02  0.7546771E-02  0.1604403E+00
         21   -1    0    0  503  501  0.00000000000E+00  0.00000000000E+00  0.28246125628E+03  0.28246125628E+03  0.00000000000E+00 0.  1.
         21   -1    0    0  501  502 -0.00000000000E+00 -0.00000000000E+00 -0.70346868759E+01  0.70346868759E+01  0.00000000000E+00 0.  1.
         21    1    1    2  503  504 -0.10798373329E+02  0.27384301243E+02  0.24641109314E+03  0.24816311499E+03  0.00000000000E+00 0.  1.
         21    1    1    2  504  502  0.10798373329E+02 -0.27384301243E+02  0.29015476269E+02  0.41332828166E+02  0.00000000000E+00 0.  1.
<mgrwt>
<rscale>  2 0.29436454E+02</rscale>
<asrwt>0</asrwt>
<pdfrwt beam="1">  1       21 0.43455569E-01 0.29436454E+02</pdfrwt>
<pdfrwt beam="2">  1       21 0.10822597E-02 0.29436454E+02</pdfrwt>
<totfact> 0.13939270E+07</totfact>
</mgrwt>
</event>
<event>
 4    1  0.9138221E+003  0.4977093E+02  0.7546771E-02  0.1446581E+00
         21   -1    0    0  503  501  0.00000000000E+00  0.00000000000E+00  0.74012072944E+01  0.74012072944E+01  0.00000000000E+00 0.  1.
         21   -1    0    0  501  502 -0.00000000000E+00 -0.00000000000E+00 -0.37325179141E+03  0.37325179141E+03  0.00000000000E+00 0.  1.
         21    1    1    2  503  504 -0.27053207375E+02  0.41776425286E+02 -0.12175370202E+03  0.13153368274E+03  0.00000000000E+00 0. -1.
         21    1    1    2  504  502  0.27053207375E+02 -0.41776425286E+02 -0.24409688210E+03  0.24911931597E+03  0.00000000000E+00 0. -1.
<mgrwt>
<rscale>  2 0.49770933E+02</rscale>
<asrwt>0</asrwt>
<pdfrwt beam="1">  1       21 0.11386472E-02 0.49770933E+02</pdfrwt>
<pdfrwt beam="2">  1       21 0.57423356E-01 0.49770933E+02</pdfrwt>
<totfact> 0.79469559E+06</totfact>
</mgrwt>
</event>
<event>
 4    1  0.9138221E+003  0.2121235E+02  0.7546771E-02  0.1722241E+00
         21   -1    0    0  502  501  0.00000000000E+00  0.00000000000E+00  0.69402334160E+03  0.69402334160E+03  0.00000000000E+00 0. -1.
         21   -1    0    0  503  502 -0.00000000000E+00 -0.00000000000E+00 -0.79809918036E+00  0.79809918036E+00  0.00000000000E+00 0. -1.
         21    1    1    2  503  504  0.83229779927E+00 -0.21196019489E+02  0.19612190951E+03  0.19726572777E+03  0.00000000000E+00 0. -1.
         21    1    1    2  504  501 -0.83229779927E+00  0.21196019489E+02  0.49710333291E+03  0.49755571301E+03  0.00000000000E+00 0. -1.
<mgrwt>
<rscale>  2 0.21212354E+02</rscale>
<asrwt>0</asrwt>
<pdfrwt beam="1">  1       21 0.10677234E+00 0.21212354E+02</pdfrwt>
<pdfrwt beam="2">  1       21 0.12278504E-03 0.21212354E+02</pdfrwt>
<totfact> 0.50421789E+07</totfact>
</mgrwt>
</event>
<event>
 4    1  0.9138221E+003  0.3391325E+02  0.7546771E-02  0.1558468E+00
         21   -1    0    0  502  501  0.00000000000E+00  0.00000000000E+00  0.37379336753E+02  0.37379336753E+02  0.00000000000E+00 0.  1.
         21   -1    0    0  504  502 -0.00000000000E+00 -0.00000000000E+00 -0.51566498346E+02  0.51566498346E+02  0.00000000000E+00 0.  1.
         21    1    1    2  503  501  0.30137589791E+02 -0.15551011004E+02  0.21150144115E+02  0.39967947880E+02  0.00000000000E+00 0. -1.
         21    1    1    2  504  503 -0.30137589791E+02  0.15551011004E+02 -0.35337305708E+02  0.48977887219E+02  0.00000000000E+00 0. -1.
<mgrwt>
<rscale>  2 0.33913246E+02</rscale>
<asrwt>0</asrwt>
<pdfrwt beam="1">  1       21 0.57506672E-02 0.33913246E+02</pdfrwt>
<pdfrwt beam="2">  1       21 0.79333075E-02 0.33913246E+02</pdfrwt>
<totfact> 0.21064745E+07</totfact>
</mgrwt>
</event>
<event>
 4    1  0.9138221E+003  0.2502716E+02  0.7546771E-02  0.1660612E+00
         21   -1    0    0  504  501  0.00000000000E+00  0.00000000000E+00  0.52034960999E+02  0.52034960999E+02  0.00000000000E+00 0.  1.
         21   -1    0    0  501  502 -0.00000000000E+00 -0.00000000000E+00 -0.30723214089E+02  0.30723214089E+02  0.00000000000E+00 0.  1.
         21    1    1    2  503  502 -0.20797794119E+02  0.13921584586E+02  0.42926331879E+02  0.49689322054E+02  0.00000000000E+00 0. -1.
         21    1    1    2  504  503  0.20797794119E+02 -0.13921584586E+02 -0.21614584968E+02  0.33068853034E+02  0.00000000000E+00 0. -1.
<mgrwt>
<rscale>  2 0.25027160E+02</rscale>
<asrwt>0</asrwt>
<pdfrwt beam="1">  1       21 0.80053786E-02 0.25027160E+02</pdfrwt>
<pdfrwt beam="2">  1       21 0.47266483E-02 0.25027160E+02</pdfrwt>
<totfact> 0.26789012E+07</totfact>
</mgrwt>
</event>
<event>
 4    1  0.9138221E+003  0.2634114E+02  0.7546771E-02  0.1642454E+00
         21   -1    0    0  504  501  0.00000000000E+00  0.00000000000E+00  0.10550661640E+03  0.10550661640E+03  0.00000000000E+00 0.  1.
         21   -1    0    0  501  502 -0.00000000000E+00 -0.00000000000E+00 -0.10553833075E+02  0.10553833075E+02  0.00000000000E+00 0.  1.
         21    1    1    2  503  502 -0.85365257184E+01 -0.24919534860E+02  0.83100964297E+02  0.87175832408E+02  0.00000000000E+00 0. -1.
         21    1    1    2  504  503  0.85365257184E+01  0.24919534860E+02  0.11851819032E+02  0.28884617071E+02  0.00000000000E+00 0. -1.
<mgrwt>
<rscale>  2 0.26341137E+02</rscale>
<asrwt>0</asrwt>
<pdfrwt beam="1">  1       21 0.16231786E-01 0.26341137E+02</pdfrwt>
<pdfrwt beam="2">  1       21 0.16236667E-02 0.26341137E+02</pdfrwt>
<totfact> 0.43836175E+07</totfact>
</mgrwt>
</event>
<event>
 4    1  0.9138221E+003  0.2299882E+02  0.7546771E-02  0.1691529E+00
         21   -1    0    0  503  501  0.00000000000E+00  0.00000000000E+00  0.63949877062E+02  0.63949877062E+02  0.00000000000E+00 0. -1.
         21   -1    0    0  501  502 -0.00000000000E+00 -0.00000000000E+00 -0.11424996327E+02  0.11424996327E+02  0.00000000000E+00 0. -1.
         21    1    1    2  503  504  0.22981410396E+02 -0.89458337642E+00  0.64616805702E+01  0.23889303443E+02  0.00000000000E+00 0. -1.
         21    1    1    2  504  502 -0.22981410396E+02  0.89458337642E+00  0.46063200165E+02  0.51485569946E+02  0.00000000000E+00 0. -1.
<mgrwt>
<rscale>  2 0.22998815E+02</rscale>
<asrwt>0</asrwt>
<pdfrwt beam="1">  1       21 0.98384424E-02 0.22998815E+02</pdfrwt>
<pdfrwt beam="2">  1       21 0.17576918E-02 0.22998815E+02</pdfrwt>
<totfact> 0.87280605E+07</totfact>
</mgrwt>
</event>
<event>
 4    1  0.9138221E+003  0.4217498E+02  0.7546771E-02  0.1492790E+00
         21   -1    0    0  502  501  0.00000000000E+00  0.00000000000E+00  0.10498753234E+03  0.10498753234E+03  0.00000000000E+00 0. -1.
         21   -1    0    0  504  502 -0.00000000000E+00 -0.00000000000E+00 -0.29144711786E+02  0.29144711786E+02  0.00000000000E+00 0. -1.
         21    1    1    2  503  501  0.11831219533E+01 -0.42158382890E+02  0.81317076663E+02  0.91603471454E+02  0.00000000000E+00 0. -1.
         21    1    1    2  504  503 -0.11831219533E+01  0.42158382890E+02 -0.54742561053E+01  0.42528772676E+02  0.00000000000E+00 0. -1.
<mgrwt>
<rscale>  2 0.42174981E+02</rscale>
<asrwt>0</asrwt>
<pdfrwt beam="1">  1       21 0.16151928E-01 0.42174981E+02</pdfrwt>
<pdfrwt beam="2">  1       21 0.44838019E-02 0.42174981E+02</pdfrwt>
<totfact> 0.97308366E+06</totfact>
</mgrwt>
</event>
<event>
 4    1  0.9138221E+003  0.2458957E+02  0.7546771E-02  0.1666968E+00
         21   -1    0    0  502  501  0.00000000000E+00  0.00000000000E+00  0.22339226635E+01  0.22339226635E+01  0.00000000000E+00 0. -1.
         21   -1    0    0  504  502 -0.00000000000E+00 -0.00000000000E+00 -0.29579143980E+03  0.29579143980E+03  0.00000000000E+00 0. -1.
         21    1    1    2  503  501  0.21533823653E+02 -0.11871877672E+02 -0.10334906493E+03  0.10623406357E+03  0.00000000000E+00 0.  1.
         21    1    1    2  504  503 -0.21533823653E+02  0.11871877672E+02 -0.19020845220E+03  0.19179129889E+03  0.00000000000E+00 0.  1.
<mgrwt>
<rscale>  2 0.24589572E+02</rscale>
<asrwt>0</asrwt>
<pdfrwt beam="1">  1       21 0.34368023E-03 0.24589572E+02</pdfrwt>
<pdfrwt beam="2">  1       21 0.45506400E-01 0.24589572E+02</pdfrwt>
<totfact> 0.67999112E+07</totfact>
</mgrwt>
</event>
<event>
 4    1  0.9138221E+003  0.2095818E+02  0.7546771E-02  0.1726918E+00
         21   -1    0    0  504  501  0.00000000000E+00  0.00000000000E+00  0.41245576376E+01  0.41245576376E+01  0.00000000000E+00 0. -1.
         21   -1    0    0  501  502 -0.00000000000E+00 -0.00000000000E+00 -0.15368157873E+03  0.15368157873E+03  0.00000000000E+00 0. -1.
         21    1    1    2  503  502  0.12049219679E+02 -0.17148230188E+02 -0.31057376571E+02  0.37467400937E+02  0.00000000000E+00 0. -1.
         21    1    1    2  504  503 -0.12049219679E+02  0.17148230188E+02 -0.11849964452E+03  0.12033873543E+03  0.00000000000E+00 0. -1.
<mgrwt>
<rscale>  2 0.20958184E+02</rscale>
<asrwt>0</asrwt>
<pdfrwt beam="1">  1       21 0.63454747E-03 0.20958184E+02</pdfrwt>
<pdfrwt beam="2">  1       21 0.23643315E-01 0.20958184E+02</pdfrwt>
<totfact> 0.88218323E+07</totfact>
</mgrwt>
</event>
<event>
 4    1  0.9138221E+003  0.3220424E+02  0.7546771E-02  0.1574928E+00
         21   -1    0    0  502  501  0.00000000000E+00  0.00000000000E+00  0.42903233054E+02  0.42903233054E+02  0.00000000000E+00 0. -1.
         21   -1    0    0  503  502 -0.00000000000E+00 -0.00000000000E+00 -0.49091576653E+02  0.49091576653E+02  0.00000000000E+00 0. -1.
         21    1    1    2  503  504 -0.32162621149E+02 -0.16367254005E+01 -0.35865102150E+02  0.48201852884E+02  0.00000000000E+00 0. -1.
         21    1    1    2  504  501  0.32162621149E+02  0.16367254005E+01  0.29676758551E+02  0.43792956823E+02  0.00000000000E+00 0. -1.
<mgrwt>
<rscale>  2 0.32204240E+02</rscale>
<asrwt>0</asrwt>
<pdfrwt beam="1">  1       21 0.66004974E-02 0.32204240E+02</pdfrwt>
<pdfrwt beam="2">  1       21 0.75525502E-02 0.32204240E+02</pdfrwt>
<totfact> 0.18079137E+07</totfact>
</mgrwt>
</event>
<event>
 4    1  0.9138221E+003  0.4274435E+02  0.7546771E-02  0.1488935E+00
         21   -1    0    0  502  501  0.00000000000E+00  0.00000000000E+00  0.74097868760E+01  0.74097868760E+01  0.00000000000E+00 0.  1.
         21   -1    0    0  503  502 -0.00000000000E+00 -0.00000000000E+00 -0.34667721824E+03  0.34667721824E+03  0.00000000000E+00 0.  1.
         21    1    1    2  503  504  0.32986209241E+02  0.27184352927E+02 -0.74499658813E+02  0.85891083399E+02  0.00000000000E+00 0. -1.
         21    1    1    2  504  501 -0.32986209241E+02 -0.27184352927E+02 -0.26476777255E+03  0.26819592172E+03  0.00000000000E+00 0. -1.
<mgrwt>
<rscale>  2 0.42744345E+02</rscale>
<asrwt>0</asrwt>
<pdfrwt beam="1">  1       21 0.11399674E-02 0.42744345E+02</pdfrwt>
<pdfrwt beam="2">  1       21 0.53334950E-01 0.42744345E+02</pdfrwt>
<totfact> 0.90647292E+06</totfact>
</mgrwt>
</event>
<event>
 4    1  0.9138221E+003  0.2295800E+02  0.7546771E-02  0.1692192E+00
         21   -1    0    0  503  501  0.00000000000E+00  0.00000000000E+00  0.60479741415E+01  0.60479741415E+01  0.00000000000E+00 0.  1.
         21   -1    0    0  501  502 -0.00000000000E+00 -0.00000000000E+00 -0.16638284247E+03  0.16638284247E+03  0.00000000000E+00 0.  1.
         21    1    1    2  503  504  0.32624378275E+01 -0.22725018030E+02 -0.20671371897E+02  0.30892969445E+02  0.00000000000E+00 0. -1.
         21    1    1    2  504  502 -0.32624378275E+01  0.22725018030E+02 -0.13966349643E+03  0.14153784716E+03  0.00000000000E+00 0. -1.
<mgrwt>
<rscale>  2 0.22958004E+02</rscale>
<asrwt>0</asrwt>
<pdfrwt beam="1">  1       21 0.93045743E-03 0.22958004E+02</pdfrwt>
<pdfrwt beam="2">  1       21 0.25597364E-01 0.22958004E+02</pdfrwt>
<totfact> 0.44373241E+07</totfact>
</mgrwt>
</event>
<event>
 4    1  0.9138221E+003  0.2027325E+02  0.7546771E-02  0.1739948E+00
         21   -1    0    0  502  501  0.00000000000E+00  0.00000000000E+00  0.13364953919E+01  0.13364953919E+01  0.00000000000E+00 0.  1.
         21   -1    0    0  504  502 -0.00000000000E+00 -0.00000000000E+00 -0.35466693442E+03  0.35466693442E+03  0.00000000000E+00 0.  1.
         21    1    1    2  503  501  0.43664960831E+01 -0.19797434025E+02 -0.24156170837E+03  0.24241093959E+03  0.00000000000E+00 0. -1.
         21    1    1    2  504  503 -0.43664960831E+01  0.19797434025E+02 -0.11176873065E+03  0.11359249022E+03  0.00000000000E+00 0. -1.
<mgrwt>
<rscale>  2 0.20273250E+02</rscale>
<asrwt>0</asrwt>
<pdfrwt beam="1">  1       21 0.20561459E-03 0.20273250E+02</pdfrwt>
<pdfrwt beam="2">  1       21 0.54564166E-01 0.20273250E+02</pdfrwt>
<totfact> 0.95947951E+07</totfact>
</mgrwt>
</event>
<event>
 4    1  0.9138221E+003  0.2354400E+02  0.7546771E-02  0.1682841E+00
         21   -1    0    0  504  501  0.00000000000E+00  0.00000000000E+00  0.10318583825E+02  0.10318583825E+02  0.00000000000E+00 0.  1.
         21   -1    0    0  501  502 -0.00000000000E+00 -0.00000000000E+00 -0.68476869322E+02  0.68476869322E+02  0.00000000000E+00 0.  1.
         21    1    1    2  503  502 -0.16841248881E+02 -0.16452721606E+02 -0.10790198170E+02  0.25898804773E+02  0.00000000000E+00 0. -1.
         21    1    1    2  504  503  0.16841248881E+02  0.16452721606E+02 -0.47368087328E+02  0.52896648374E+02  0.00000000000E+00 0. -1.
<mgrwt>
<rscale>  2 0.23543995E+02</rscale>
<asrwt>0</asrwt>
<pdfrwt beam="1">  1       21 0.15874744E-02 0.23543995E+02</pdfrwt>
<pdfrwt beam="2">  1       21 0.10534903E-01 0.23543995E+02</pdfrwt>
<totfact> 0.91632481E+07</totfact>
</mgrwt>
</event>
<event>
 4    1  0.9138221E+003  0.3887063E+02  0.7546771E-02  0.1516691E+00
         21   -1    0    0  504  501  0.00000000000E+00  0.00000000000E+00  0.34057119081E+01  0.34057119081E+01  0.00000000000E+00 0.  1.
         21   -1    0    0  501  502 -0.00000000000E+00 -0.00000000000E+00 -0.11701927308E+04  0.11701927308E+04  0.00000000000E+00 0.  1.
         21    1    1    2  503  502 -0.35680145293E+02  0.15422493294E+02 -0.12101994781E+03  0.12710922010E+03  0.00000000000E+00 0. -1.
         21    1    1    2  504  503  0.35680145293E+02 -0.15422493294E+02 -0.10457670711E+04  0.10464892226E+04  0.00000000000E+00 0. -1.
<mgrwt>
<rscale>  2 0.38870632E+02</rscale>
<asrwt>0</asrwt>
<pdfrwt beam="1">  1       21 0.52395582E-03 0.38870632E+02</pdfrwt>
<pdfrwt beam="2">  1       21 0.18002960E+00 0.38870632E+02</pdfrwt>
<totfact> 0.18929242E+06</totfact>
</mgrwt>
</event>
