<event>
 4    1  0.7841599E+004  0.2366613E+02  0.7546771E-02  0.1680934E+00
         21   -1    0    0  501  502  0.00000000000E+00  0.00000000000E+00  0.85975476482E+02  0.85975476482E+02  0.00000000000E+00 0.  1.
         21   -1    0    0  502  503 -0.00000000000E+00 -0.00000000000E+00 -0.65252350774E+01  0.65252350774E+01  0.00000000000E+00 0.  1.
          5    1    1    2  501    0  0.21705783310E+02 -0.94310596495E+01  0.41602410910E+02  0.47862788351E+02  0.00000000000E+00 0. -1.
         -5    1    1    2    0  503 -0.21705783310E+02  0.94310596495E+01  0.37847830494E+02  0.44637923208E+02  0.00000000000E+00 0.  1.
<mgrwt>
<rscale>  2 0.23666134E+02</rscale>
<asrwt>0</asrwt>
<pdfrwt beam="1">  1       21 0.13226996E-01 0.23666134E+02</pdfrwt>
<pdfrwt beam="2">  1       21 0.10038824E-02 0.23666134E+02</pdfrwt>
<totfact> 0.12544146E+08</totfact>
</mgrwt>
</event>
<event>
 4    1  0.7841599E+004  0.2424212E+02  0.7546771E-02  0.1672132E+00
         21   -1    0    0  503  502  0.00000000000E+00  0.00000000000E+00  0.55746463493E+02  0.55746463493E+02  0.00000000000E+00 0.  1.
         21   -1    0    0  501  503 -0.00000000000E+00 -0.00000000000E+00 -0.10543172034E+02  0.10543172034E+02  0.00000000000E+00 0.  1.
          4    1    1    2  501    0 -0.21787382919E+02  0.10629688555E+02  0.22255178527E+02  0.32908559745E+02  0.00000000000E+00 0.  1.
         -4    1    1    2    0  502  0.21787382919E+02 -0.10629688555E+02  0.22948112932E+02  0.33381075782E+02  0.00000000000E+00 0. -1.
<mgrwt>
<rscale>  2 0.24242119E+02</rscale>
<asrwt>0</asrwt>
<pdfrwt beam="1">  1       21 0.85763788E-02 0.24242119E+02</pdfrwt>
<pdfrwt beam="2">  1       21 0.16220265E-02 0.24242119E+02</pdfrwt>
<totfact> 0.12558524E+08</totfact>
</mgrwt>
</event>
<event>
 4    1  0.7841599E+004  0.2022997E+02  0.7546771E-02  0.1740793E+00
         21   -1    0    0  501  502  0.00000000000E+00  0.00000000000E+00  0.30896340837E+02  0.30896340837E+02  0.00000000000E+00 0. -1.
         21   -1    0    0  502  503 -0.00000000000E+00 -0.00000000000E+00 -0.13791890507E+02  0.13791890507E+02  0.00000000000E+00 0. -1.
          5    1    1    2  501    0 -0.85070935767E+01 -0.18354315459E+02  0.41067111490E+01  0.20642592220E+02  0.00000000000E+00 0.  1.
         -5    1    1    2    0  503  0.85070935767E+01  0.18354315459E+02  0.12997739180E+02  0.24045639124E+02  0.00000000000E+00 0. -1.
<mgrwt>
<rscale>  2 0.20229966E+02</rscale>
<asrwt>0</asrwt>
<pdfrwt beam="1">  1       21 0.47532832E-02 0.20229966E+02</pdfrwt>
<pdfrwt beam="2">  1       21 0.21218293E-02 0.20229966E+02</pdfrwt>
<totfact> 0.20371363E+08</totfact>
</mgrwt>
</event>
<event>
 4    1  0.7841599E+004  0.2393689E+02  0.7546771E-02  0.1676759E+00
         21   -1    0    0  501  502  0.00000000000E+00  0.00000000000E+00  0.32596411852E+02  0.32596411852E+02  0.00000000000E+00 0. -1.
         21   -1    0    0  502  503 -0.00000000000E+00 -0.00000000000E+00 -0.17645578474E+02  0.17645578474E+02  0.00000000000E+00 0. -1.
          3    1    1    2  501    0 -0.21690851424E+02 -0.10123315993E+02  0.90318541258E+01  0.25584154298E+02  0.00000000000E+00 0. -1.
         -3    1    1    2    0  503  0.21690851424E+02  0.10123315993E+02  0.59189792519E+01  0.24657836028E+02  0.00000000000E+00 0.  1.
<mgrwt>
<rscale>  2 0.23936887E+02</rscale>
<asrwt>0</asrwt>
<pdfrwt beam="1">  1       21 0.50148326E-02 0.23936887E+02</pdfrwt>
<pdfrwt beam="2">  1       21 0.27147044E-02 0.23936887E+02</pdfrwt>
<totfact> 0.13484606E+08</totfact>
</mgrwt>
</event>
<event>
 4    1  0.7841599E+004  0.2343907E+02  0.7546771E-02  0.1684490E+00
         21   -1    0    0  503  502  0.00000000000E+00  0.00000000000E+00  0.18578832766E+03  0.18578832766E+03  0.00000000000E+00 0. -1.
         21   -1    0    0  501  503 -0.00000000000E+00 -0.00000000000E+00 -0.42330545140E+01  0.42330545140E+01  0.00000000000E+00 0. -1.
          1    1    1    2  501    0 -0.16435424357E+02  0.16711272693E+02  0.14294124063E+03  0.14485022637E+03  0.00000000000E+00 0. -1.
         -1    1    1    2    0  502  0.16435424357E+02 -0.16711272693E+02  0.38614032516E+02  0.45171155796E+02  0.00000000000E+00 0.  1.
<mgrwt>
<rscale>  2 0.23439066E+02</rscale>
<asrwt>0</asrwt>
<pdfrwt beam="1">  1       21 0.28582813E-01 0.23439066E+02</pdfrwt>
<pdfrwt beam="2">  1       21 0.65123930E-03 0.23439066E+02</pdfrwt>
<totfact> 0.62288307E+07</totfact>
</mgrwt>
</event>
<event>
 4    1  0.7841599E+004  0.2505966E+02  0.7546771E-02  0.1660146E+00
         21   -1    0    0  501  502  0.00000000000E+00  0.00000000000E+00  0.20406416788E+03  0.20406416788E+03  0.00000000000E+00 0.  1.
         21   -1    0    0  502  503 -0.00000000000E+00 -0.00000000000E+00 -0.38943113620E+01  0.38943113620E+01  0.00000000000E+00 0.  1.
          1    1    1    2  501    0  0.23280032580E+02 -0.92750547160E+01  0.52461633500E+02  0.58139569540E+02  0.00000000000E+00 0.  1.
         -1    1    1    2    0  503 -0.23280032580E+02  0.92750547160E+01  0.14770822301E+03  0.14981890970E+03  0.00000000000E+00 0. -1.
<mgrwt>
<rscale>  2 0.25059660E+02</rscale>
<asrwt>0</asrwt>
<pdfrwt beam="1">  1       21 0.31394479E-01 0.25059660E+02</pdfrwt>
<pdfrwt beam="2">  1       21 0.59912498E-03 0.25059660E+02</pdfrwt>
<totfact> 0.60400313E+07</totfact>
</mgrwt>
</event>
<event>
 4    1  0.7841599E+004  0.2368009E+02  0.7546771E-02  0.1680717E+00
         21   -1    0    0  503  502  0.00000000000E+00  0.00000000000E+00  0.97942698216E+02  0.97942698216E+02  0.00000000000E+00 0. -1.
         21   -1    0    0  501  503 -0.00000000000E+00 -0.00000000000E+00 -0.60125283579E+01  0.60125283579E+01  0.00000000000E+00 0. -1.
          4    1    1    2  501    0 -0.22747679651E+02 -0.65794827406E+01  0.34603510251E+02  0.41930292681E+02  0.00000000000E+00 0.  1.
         -4    1    1    2    0  502  0.22747679651E+02  0.65794827406E+01  0.57326659608E+02  0.62024933893E+02  0.00000000000E+00 0. -1.
<mgrwt>
<rscale>  2 0.23680087E+02</rscale>
<asrwt>0</asrwt>
<pdfrwt beam="1">  1       21 0.15068106E-01 0.23680087E+02</pdfrwt>
<pdfrwt beam="2">  1       21 0.92500443E-03 0.23680087E+02</pdfrwt>
<totfact> 0.11372407E+08</totfact>
</mgrwt>
</event>
<event>
 4    1  0.7841599E+004  0.2497521E+02  0.7546771E-02  0.1661358E+00
         21   -1    0    0  503  502  0.00000000000E+00  0.00000000000E+00  0.88255803105E+03  0.88255803105E+03  0.00000000000E+00 0.  1.
         21   -1    0    0  501  503 -0.00000000000E+00 -0.00000000000E+00 -0.90644125183E+00  0.90644125183E+00  0.00000000000E+00 0.  1.
          2    1    1    2  501    0  0.57647418843E-01  0.24975138843E+02  0.64815131839E+03  0.64863232452E+03  0.00000000000E+00 0. -1.
         -2    1    1    2    0  502 -0.57647418843E-01 -0.24975138843E+02  0.23350027141E+03  0.23483214778E+03  0.00000000000E+00 0.  1.
<mgrwt>
<rscale>  2 0.24975205E+02</rscale>
<asrwt>0</asrwt>
<pdfrwt beam="1">  1       21 0.13577747E+00 0.24975205E+02</pdfrwt>
<pdfrwt beam="2">  1       21 0.13945321E-03 0.24975205E+02</pdfrwt>
<totfact> 0.25186146E+07</totfact>
</mgrwt>
</event>
<event>
 4    1  0.7841599E+004  0.2086620E+02  0.7546771E-02  0.1728632E+00
         21   -1    0    0  501  502  0.00000000000E+00  0.00000000000E+00  0.33351462316E+01  0.33351462316E+01  0.00000000000E+00 0.  1.
         21   -1    0    0  502  503 -0.00000000000E+00 -0.00000000000E+00 -0.13067339886E+03  0.13067339886E+03  0.00000000000E+00 0.  1.
          4    1    1    2  501    0  0.50045787583E+01 -0.20257155895E+02 -0.61597202556E+02  0.65035479058E+02  0.00000000000E+00 0. -1.
         -4    1    1    2    0  503 -0.50045787583E+01  0.20257155895E+02 -0.65741050069E+02  0.68973066031E+02  0.00000000000E+00 0.  1.
<mgrwt>
<rscale>  2 0.20866197E+02</rscale>
<asrwt>0</asrwt>
<pdfrwt beam="1">  1       21 0.51309947E-03 0.20866197E+02</pdfrwt>
<pdfrwt beam="2">  1       21 0.20103598E-01 0.20866197E+02</pdfrwt>
<totfact> 0.16012766E+08</totfact>
</mgrwt>
</event>
<event>
 4    1  0.7841599E+004  0.5581289E+02  0.7546771E-02  0.1416293E+00
         21   -1    0    0  501  502  0.00000000000E+00  0.00000000000E+00  0.19078326840E+02  0.19078326840E+02  0.00000000000E+00 0.  1.
         21   -1    0    0  502  503 -0.00000000000E+00 -0.00000000000E+00 -0.18509931097E+03  0.18509931097E+03  0.00000000000E+00 0.  1.
          1    1    1    2  501    0 -0.54887626377E+02  0.10120607850E+02 -0.47958520481E+02  0.73587348908E+02  0.00000000000E+00 0.  1.
         -1    1    1    2    0  503  0.54887626377E+02 -0.10120607850E+02 -0.11806246365E+03  0.13059028891E+03  0.00000000000E+00 0. -1.
<mgrwt>
<rscale>  2 0.55812886E+02</rscale>
<asrwt>0</asrwt>
<pdfrwt beam="1">  1       21 0.29351271E-02 0.55812886E+02</pdfrwt>
<pdfrwt beam="2">  1       21 0.28476818E-01 0.55812886E+02</pdfrwt>
<totfact> 0.71269598E+06</totfact>
</mgrwt>
</event>
<event>
 4    1  0.7841599E+004  0.2214392E+02  0.7546771E-02  0.1705775E+00
         21   -1    0    0  503  502  0.00000000000E+00  0.00000000000E+00  0.46769402672E+03  0.46769402672E+03  0.00000000000E+00 0. -1.
         21   -1    0    0  501  503 -0.00000000000E+00 -0.00000000000E+00 -0.10527695800E+01  0.10527695800E+01  0.00000000000E+00 0. -1.
          4    1    1    2  501    0  0.15300877187E+01  0.22090992161E+02  0.24833605119E+03  0.24932137378E+03  0.00000000000E+00 0.  1.
         -4    1    1    2    0  502 -0.15300877187E+01 -0.22090992161E+02  0.21830520595E+03  0.21942542252E+03  0.00000000000E+00 0. -1.
<mgrwt>
<rscale>  2 0.22143918E+02</rscale>
<asrwt>0</asrwt>
<pdfrwt beam="1">  1       21 0.71952761E-01 0.22143918E+02</pdfrwt>
<pdfrwt beam="2">  1       21 0.16196492E-03 0.22143918E+02</pdfrwt>
<totfact> 0.79401712E+07</totfact>
</mgrwt>
</event>
<event>
 4    1  0.7841599E+004  0.2913586E+02  0.7546771E-02  0.1607842E+00
         21   -1    0    0  503  502  0.00000000000E+00  0.00000000000E+00  0.63423467731E+01  0.63423467731E+01  0.00000000000E+00 0.  1.
         21   -1    0    0  501  503 -0.00000000000E+00 -0.00000000000E+00 -0.14861228400E+03  0.14861228400E+03  0.00000000000E+00 0.  1.
          2    1    1    2  501    0 -0.28412217018E+02  0.64532394336E+01 -0.95556976078E+02  0.99900120382E+02  0.00000000000E+00 0.  1.
         -2    1    1    2    0  502  0.28412217018E+02 -0.64532394336E+01 -0.46712961144E+02  0.55054510387E+02  0.00000000000E+00 0. -1.
<mgrwt>
<rscale>  2 0.29135861E+02</rscale>
<asrwt>0</asrwt>
<pdfrwt beam="1">  1       21 0.97574579E-03 0.29135861E+02</pdfrwt>
<pdfrwt beam="2">  1       21 0.22863425E-01 0.29135861E+02</pdfrwt>
<totfact> 0.53403046E+07</totfact>
</mgrwt>
</event>
<event>
 4    1  0.7841599E+004  0.2588212E+02  0.7546771E-02  0.1648646E+00
         21   -1    0    0  503  502  0.00000000000E+00  0.00000000000E+00  0.44949731780E+03  0.44949731780E+03  0.00000000000E+00 0. -1.
         21   -1    0    0  501  503 -0.00000000000E+00 -0.00000000000E+00 -0.22989484149E+01  0.22989484149E+01  0.00000000000E+00 0. -1.
          5    1    1    2  501    0  0.16205928357E+01 -0.25831334545E+02  0.35757577052E+03  0.35851124923E+03  0.00000000000E+00 0. -1.
         -5    1    1    2    0  502 -0.16205928357E+01  0.25831334545E+02  0.89622598867E+02  0.93285016981E+02  0.00000000000E+00 0.  1.
<mgrwt>
<rscale>  2 0.25882121E+02</rscale>
<asrwt>0</asrwt>
<pdfrwt beam="1">  1       21 0.69153364E-01 0.25882121E+02</pdfrwt>
<pdfrwt beam="2">  1       21 0.35368473E-03 0.25882121E+02</pdfrwt>
<totfact> 0.28696221E+07</totfact>
</mgrwt>
</event>
<event>
 4    1  0.7841599E+004  0.7128889E+02  0.7546771E-02  0.1355764E+00
         21   -1    0    0  503  502  0.00000000000E+00  0.00000000000E+00  0.38229422649E+02  0.38229422649E+02  0.00000000000E+00 0. -1.
         21   -1    0    0  501  503 -0.00000000000E+00 -0.00000000000E+00 -0.17691663491E+03  0.17691663491E+03  0.00000000000E+00 0. -1.
          3    1    1    2  501    0 -0.19265827118E+02 -0.68636245902E+02 -0.15709053017E+02  0.72999182822E+02  0.00000000000E+00 0. -1.
         -3    1    1    2    0  502  0.19265827118E+02  0.68636245902E+02 -0.12297815924E+03  0.14214687473E+03  0.00000000000E+00 0.  1.
<mgrwt>
<rscale>  2 0.71288894E+02</rscale>
<asrwt>0</asrwt>
<pdfrwt beam="1">  1       21 0.58814496E-02 0.71288894E+02</pdfrwt>
<pdfrwt beam="2">  1       21 0.27217944E-01 0.71288894E+02</pdfrwt>
<totfact> 0.25387176E+06</totfact>
</mgrwt>
</event>
<event>
 4    1  0.7841599E+004  0.2235451E+02  0.7546771E-02  0.1702192E+00
         21   -1    0    0  501  502  0.00000000000E+00  0.00000000000E+00  0.11882826556E+02  0.11882826556E+02  0.00000000000E+00 0. -1.
         21   -1    0    0  502  503 -0.00000000000E+00 -0.00000000000E+00 -0.42169343395E+02  0.42169343395E+02  0.00000000000E+00 0. -1.
          3    1    1    2  501    0 -0.70767764673E+01 -0.21204793360E+02 -0.13731683772E+02  0.26235151339E+02  0.00000000000E+00 0.  1.
         -3    1    1    2    0  503  0.70767764673E+01  0.21204793360E+02 -0.16554833067E+02  0.27817018612E+02  0.00000000000E+00 0. -1.
<mgrwt>
<rscale>  2 0.22354508E+02</rscale>
<asrwt>0</asrwt>
<pdfrwt beam="1">  1       21 0.18281272E-02 0.22354508E+02</pdfrwt>
<pdfrwt beam="2">  1       21 0.64875912E-02 0.22354508E+02</pdfrwt>
<totfact> 0.16075786E+08</totfact>
</mgrwt>
</event>
<event>
 4    1  0.7841599E+004  0.2398483E+02  0.7546771E-02  0.1676026E+00
         21   -1    0    0  501  502  0.00000000000E+00  0.00000000000E+00  0.15100919855E+02  0.15100919855E+02  0.00000000000E+00 0.  1.
         21   -1    0    0  502  503 -0.00000000000E+00 -0.00000000000E+00 -0.41114440775E+02  0.41114440775E+02  0.00000000000E+00 0.  1.
          5    1    1    2  501    0 -0.11188706436E+02  0.21215199549E+02 -0.53898279506E+01  0.24582963388E+02  0.00000000000E+00 0.  1.
         -5    1    1    2    0  503  0.11188706436E+02 -0.21215199549E+02 -0.20623692969E+02  0.31632397242E+02  0.00000000000E+00 0. -1.
<mgrwt>
<rscale>  2 0.23984825E+02</rscale>
<asrwt>0</asrwt>
<pdfrwt beam="1">  1       21 0.23232185E-02 0.23984825E+02</pdfrwt>
<pdfrwt beam="2">  1       21 0.63252985E-02 0.23984825E+02</pdfrwt>
<totfact> 0.11834789E+08</totfact>
</mgrwt>
</event>
<event>
 4    1  0.7841599E+004  0.2078957E+02  0.7546771E-02  0.1730068E+00
         21   -1    0    0  503  502  0.00000000000E+00  0.00000000000E+00  0.52739267146E+01  0.52739267146E+01  0.00000000000E+00 0. -1.
         21   -1    0    0  501  503 -0.00000000000E+00 -0.00000000000E+00 -0.95027265834E+02  0.95027265834E+02  0.00000000000E+00 0. -1.
          3    1    1    2  501    0 -0.56860490111E+01 -0.19996873971E+02 -0.26273548456E+02  0.33503812775E+02  0.00000000000E+00 0. -1.
         -3    1    1    2    0  502  0.56860490111E+01  0.19996873971E+02 -0.63479790663E+02  0.66797379774E+02  0.00000000000E+00 0.  1.
<mgrwt>
<rscale>  2 0.20789568E+02</rscale>
<asrwt>0</asrwt>
<pdfrwt beam="1">  1       21 0.81137332E-03 0.20789568E+02</pdfrwt>
<pdfrwt beam="2">  1       21 0.14619580E-01 0.20789568E+02</pdfrwt>
<totfact> 0.14019034E+08</totfact>
</mgrwt>
</event>
<event>
 4    1  0.7841599E+004  0.4113063E+02  0.7546771E-02  0.1500052E+00
         21   -1    0    0  503  502  0.00000000000E+00  0.00000000000E+00  0.14479589606E+03  0.14479589606E+03  0.00000000000E+00 0. -1.
         21   -1    0    0  501  503 -0.00000000000E+00 -0.00000000000E+00 -0.30539989792E+02  0.30539989792E+02  0.00000000000E+00 0. -1.
          5    1    1    2  501    0 -0.40767965566E+02 -0.54499144756E+01 -0.11758899331E+02  0.42778502752E+02  0.00000000000E+00 0.  1.
         -5    1    1    2    0  502  0.40767965566E+02  0.54499144756E+01  0.12601480560E+03  0.13255738310E+03  0.00000000000E+00 0. -1.
<mgrwt>
<rscale>  2 0.41130628E+02</rscale>
<asrwt>0</asrwt>
<pdfrwt beam="1">  1       21 0.22276291E-01 0.41130628E+02</pdfrwt>
<pdfrwt beam="2">  1       21 0.46984600E-02 0.41130628E+02</pdfrwt>
<totfact> 0.50783169E+06</totfact>
</mgrwt>
</event>
<event>
 4    1  0.7841599E+004  0.2081021E+02  0.7546771E-02  0.1729680E+00
         21   -1    0    0  503  502  0.00000000000E+00  0.00000000000E+00  0.13899361948E+02  0.13899361948E+02  0.00000000000E+00 0. -1.
         21   -1    0    0  501  503 -0.00000000000E+00 -0.00000000000E+00 -0.39323938615E+02  0.39323938615E+02  0.00000000000E+00 0. -1.
          1    1    1    2  501    0 -0.30152125707E+01 -0.20590609222E+02 -0.24839713316E+02  0.32404876988E+02  0.00000000000E+00 0.  1.
         -1    1    1    2    0  502  0.30152125707E+01  0.20590609222E+02 -0.58486335001E+00  0.20818423575E+02  0.00000000000E+00 0. -1.
<mgrwt>
<rscale>  2 0.20810207E+02</rscale>
<asrwt>0</asrwt>
<pdfrwt beam="1">  1       21 0.21383634E-02 0.20810207E+02</pdfrwt>
<pdfrwt beam="2">  1       21 0.60498366E-02 0.20810207E+02</pdfrwt>
<totfact> 0.13841726E+08</totfact>
</mgrwt>
</event>
<event>
 4    1  0.7841599E+004  0.2170907E+02  0.7546771E-02  0.1713333E+00
         21   -1    0    0  503  502  0.00000000000E+00  0.00000000000E+00  0.11260704846E+02  0.11260704846E+02  0.00000000000E+00 0. -1.
         21   -1    0    0  501  503 -0.00000000000E+00 -0.00000000000E+00 -0.51205514653E+02  0.51205514653E+02  0.00000000000E+00 0. -1.
          5    1    1    2  501    0  0.19924195567E+02 -0.86203394859E+01 -0.66235927914E+01  0.22697043933E+02  0.00000000000E+00 0.  1.
         -5    1    1    2    0  502 -0.19924195567E+02  0.86203394859E+01 -0.33321217016E+02  0.39769175566E+02  0.00000000000E+00 0. -1.
<mgrwt>
<rscale>  2 0.21709072E+02</rscale>
<asrwt>0</asrwt>
<pdfrwt beam="1">  1       21 0.17324161E-02 0.21709072E+02</pdfrwt>
<pdfrwt beam="2">  1       21 0.78777715E-02 0.21709072E+02</pdfrwt>
<totfact> 0.12632012E+08</totfact>
</mgrwt>
</event>
<event>
 4    1  0.7841599E+004  0.2313421E+02  0.7546771E-02  0.1689344E+00
         21   -1    0    0  503  502  0.00000000000E+00  0.00000000000E+00  0.49500159183E+01  0.49500159183E+01  0.00000000000E+00 0.  1.
         21   -1    0    0  501  503 -0.00000000000E+00 -0.00000000000E+00 -0.12601660546E+03  0.12601660546E+03  0.00000000000E+00 0.  1.
          3    1    1    2  501    0 -0.18529862313E+02  0.13850476114E+02 -0.35855153112E+02  0.42670639679E+02  0.00000000000E+00 0.  1.
         -3    1    1    2    0  502  0.18529862313E+02 -0.13850476114E+02 -0.85211436431E+02  0.88295981701E+02  0.00000000000E+00 0. -1.
<mgrwt>
<rscale>  2 0.23134206E+02</rscale>
<asrwt>0</asrwt>
<pdfrwt beam="1">  1       21 0.76154098E-03 0.23134206E+02</pdfrwt>
<pdfrwt beam="2">  1       21 0.19387168E-01 0.23134206E+02</pdfrwt>
<totfact> 0.97908202E+07</totfact>
</mgrwt>
</event>
<event>
 4    1  0.7841599E+004  0.2115349E+02  0.7546771E-02  0.1723317E+00
         21   -1    0    0  503  502  0.00000000000E+00  0.00000000000E+00  0.65529390137E+02  0.65529390137E+02  0.00000000000E+00 0.  1.
         21   -1    0    0  501  503 -0.00000000000E+00 -0.00000000000E+00 -0.93164119508E+01  0.93164119508E+01  0.00000000000E+00 0.  1.
          3    1    1    2  501    0 -0.86604889732E+01 -0.19299378100E+02  0.47445182034E+02  0.51947236332E+02  0.00000000000E+00 0.  1.
         -3    1    1    2    0  502  0.86604889732E+01  0.19299378100E+02  0.87677961524E+01  0.22898565756E+02  0.00000000000E+00 0. -1.
<mgrwt>
<rscale>  2 0.21153488E+02</rscale>
<asrwt>0</asrwt>
<pdfrwt beam="1">  1       21 0.10081444E-01 0.21153488E+02</pdfrwt>
<pdfrwt beam="2">  1       21 0.14332942E-02 0.21153488E+02</pdfrwt>
<totfact> 0.11161556E+08</totfact>
</mgrwt>
</event>
<event>
 4    1  0.7841599E+004  0.2263124E+02  0.7546771E-02  0.1697558E+00
         21   -1    0    0  503  502  0.00000000000E+00  0.00000000000E+00  0.69057943662E+01  0.69057943662E+01  0.00000000000E+00 0.  1.
         21   -1    0    0  501  503 -0.00000000000E+00 -0.00000000000E+00 -0.82985816546E+02  0.82985816546E+02  0.00000000000E+00 0.  1.
          1    1    1    2  501    0 -0.56521217024E+01  0.21914069967E+02 -0.52692954105E+02  0.57347365716E+02  0.00000000000E+00 0.  1.
         -1    1    1    2    0  502  0.56521217024E+01 -0.21914069967E+02 -0.23387068075E+02  0.32544245196E+02  0.00000000000E+00 0. -1.
<mgrwt>
<rscale>  2 0.22631238E+02</rscale>
<asrwt>0</asrwt>
<pdfrwt beam="1">  1       21 0.10624300E-02 0.22631238E+02</pdfrwt>
<pdfrwt beam="2">  1       21 0.12767048E-01 0.22631238E+02</pdfrwt>
<totfact> 0.12069840E+08</totfact>
</mgrwt>
</event>
<event>
 4    1  0.7841599E+004  0.3169227E+02  0.7546771E-02  0.1580102E+00
         21   -1    0    0  503  502  0.00000000000E+00  0.00000000000E+00  0.56585204434E+01  0.56585204434E+01  0.00000000000E+00 0.  1.
         21   -1    0    0  501  503 -0.00000000000E+00 -0.00000000000E+00 -0.18097863229E+03  0.18097863229E+03  0.00000000000E+00 0.  1.
          5    1    1    2  501    0 -0.31680471428E+02 -0.86471321702E+00 -0.10059365666E+03  0.10546792763E+03  0.00000000000E+00 0. -1.
         -5    1    1    2    0  502  0.31680471428E+02  0.86471321702E+00 -0.74726455192E+02  0.81169225106E+02  0.00000000000E+00 0.  1.
<mgrwt>
<rscale>  2 0.31692270E+02</rscale>
<asrwt>0</asrwt>
<pdfrwt beam="1">  1       21 0.87054174E-03 0.31692270E+02</pdfrwt>
<pdfrwt beam="2">  1       21 0.27842862E-01 0.31692270E+02</pdfrwt>
<totfact> 0.45248582E+07</totfact>
</mgrwt>
</event>
<event>
 4    1  0.7841599E+004  0.3477066E+02  0.7546771E-02  0.1550647E+00
         21   -1    0    0  501  502  0.00000000000E+00  0.00000000000E+00  0.33823367029E+01  0.33823367029E+01  0.00000000000E+00 0. -1.
         21   -1    0    0  502  503 -0.00000000000E+00 -0.00000000000E+00 -0.39274304526E+03  0.39274304526E+03  0.00000000000E+00 0. -1.
          3    1    1    2  501    0 -0.25325458896E+02  0.23824774500E+02 -0.13530245444E+03  0.13969879357E+03  0.00000000000E+00 0.  1.
         -3    1    1    2    0  503  0.25325458896E+02 -0.23824774500E+02 -0.25405825412E+03  0.25642658840E+03  0.00000000000E+00 0. -1.
<mgrwt>
<rscale>  2 0.34770659E+02</rscale>
<asrwt>0</asrwt>
<pdfrwt beam="1">  1       21 0.52035920E-03 0.34770659E+02</pdfrwt>
<pdfrwt beam="2">  1       21 0.60422041E-01 0.34770659E+02</pdfrwt>
<totfact> 0.22483631E+07</totfact>
</mgrwt>
</event>
<event>
 4    1  0.7841599E+004  0.2314965E+02  0.7546771E-02  0.1689096E+00
         21   -1    0    0  503  502  0.00000000000E+00  0.00000000000E+00  0.21131043657E+02  0.21131043657E+02  0.00000000000E+00 0.  1.
         21   -1    0    0  501  503 -0.00000000000E+00 -0.00000000000E+00 -0.40783124318E+02  0.40783124318E+02  0.00000000000E+00 0.  1.
          2    1    1    2  501    0  0.20540860797E+02  0.10676111100E+02 -0.28862694679E+02  0.36999479113E+02  0.00000000000E+00 0. -1.
         -2    1    1    2    0  502 -0.20540860797E+02 -0.10676111100E+02  0.92106140185E+01  0.24914688862E+02  0.00000000000E+00 0.  1.
<mgrwt>
<rscale>  2 0.23149650E+02</rscale>
<asrwt>0</asrwt>
<pdfrwt beam="1">  1       21 0.32509298E-02 0.23149650E+02</pdfrwt>
<pdfrwt beam="2">  1       21 0.62743268E-02 0.23149650E+02</pdfrwt>
<totfact> 0.70433914E+07</totfact>
</mgrwt>
</event>
<event>
 4    1  0.7841599E+004  0.2059023E+02  0.7546771E-02  0.1733839E+00
         21   -1    0    0  501  502  0.00000000000E+00  0.00000000000E+00  0.28052958867E+03  0.28052958867E+03  0.00000000000E+00 0.  1.
         21   -1    0    0  502  503 -0.00000000000E+00 -0.00000000000E+00 -0.16510169199E+01  0.16510169199E+01  0.00000000000E+00 0.  1.
          1    1    1    2  501    0  0.17817744450E+02 -0.10319180467E+02  0.98392048511E+02  0.10052339386E+03  0.00000000000E+00 0. -1.
         -1    1    1    2    0  503 -0.17817744450E+02  0.10319180467E+02  0.18048652324E+03  0.18165721173E+03  0.00000000000E+00 0.  1.
<mgrwt>
<rscale>  2 0.20590228E+02</rscale>
<asrwt>0</asrwt>
<pdfrwt beam="1">  1       21 0.43158360E-01 0.20590228E+02</pdfrwt>
<pdfrwt beam="2">  1       21 0.25400283E-03 0.20590228E+02</pdfrwt>
<totfact> 0.11158244E+08</totfact>
</mgrwt>
</event>
<event>
 4    1  0.7841599E+004  0.2354438E+02  0.7546771E-02  0.1682835E+00
         21   -1    0    0  503  502  0.00000000000E+00  0.00000000000E+00  0.11421463086E+02  0.11421463086E+02  0.00000000000E+00 0.  1.
         21   -1    0    0  501  503 -0.00000000000E+00 -0.00000000000E+00 -0.49698990445E+02  0.49698990445E+02  0.00000000000E+00 0.  1.
          1    1    1    2  501    0 -0.17844232234E+02  0.15359730725E+02 -0.14461384747E+02  0.27630953671E+02  0.00000000000E+00 0.  1.
         -1    1    1    2    0  502  0.17844232234E+02 -0.15359730725E+02 -0.23816142612E+02  0.33489499860E+02  0.00000000000E+00 0. -1.
<mgrwt>
<rscale>  2 0.23544383E+02</rscale>
<asrwt>0</asrwt>
<pdfrwt beam="1">  1       21 0.17571482E-02 0.23544383E+02</pdfrwt>
<pdfrwt beam="2">  1       21 0.76459983E-02 0.23544383E+02</pdfrwt>
<totfact> 0.13294477E+08</totfact>
</mgrwt>
</event>
<event>
 4    1  0.7841599E+004  0.3145597E+02  0.7546771E-02  0.1582531E+00
         21   -1    0    0  501  502  0.00000000000E+00  0.00000000000E+00  0.48699805657E+02  0.48699805657E+02  0.00000000000E+00 0. -1.
         21   -1    0    0  502  503 -0.00000000000E+00 -0.00000000000E+00 -0.20676519844E+02  0.20676519844E+02  0.00000000000E+00 0. -1.
          4    1    1    2  501    0 -0.31398138083E+02  0.19065889883E+01  0.94433381413E+01  0.32842880383E+02  0.00000000000E+00 0.  1.
         -4    1    1    2    0  503  0.31398138083E+02 -0.19065889883E+01  0.18579947672E+02  0.36533445117E+02  0.00000000000E+00 0. -1.
<mgrwt>
<rscale>  2 0.31455972E+02</rscale>
<asrwt>0</asrwt>
<pdfrwt beam="1">  1       21 0.74922778E-02 0.31455972E+02</pdfrwt>
<pdfrwt beam="2">  1       21 0.31810031E-02 0.31455972E+02</pdfrwt>
<totfact> 0.58868240E+07</totfact>
</mgrwt>
</event>
<event>
 4    1  0.7841599E+004  0.4460084E+02  0.7546771E-02  0.1476849E+00
         21   -1    0    0  503  502  0.00000000000E+00  0.00000000000E+00  0.21855767090E+03  0.21855767090E+03  0.00000000000E+00 0.  1.
         21   -1    0    0  501  503 -0.00000000000E+00 -0.00000000000E+00 -0.91498070699E+01  0.91498070699E+01  0.00000000000E+00 0.  1.
          4    1    1    2  501    0  0.20383987355E+02  0.39670244287E+02  0.96444017517E+02  0.10625762908E+03  0.00000000000E+00 0.  1.
         -4    1    1    2    0  502 -0.20383987355E+02 -0.39670244287E+02  0.11296384632E+03  0.12144984890E+03  0.00000000000E+00 0. -1.
<mgrwt>
<rscale>  2 0.44600843E+02</rscale>
<asrwt>0</asrwt>
<pdfrwt beam="1">  1       21 0.33624253E-01 0.44600843E+02</pdfrwt>
<pdfrwt beam="2">  1       21 0.14076628E-02 0.44600843E+02</pdfrwt>
<totfact> 0.16167727E+07</totfact>
</mgrwt>
</event>
<event>
 4    1  0.7841599E+004  0.2123419E+02  0.7546771E-02  0.1721843E+00
         21   -1    0    0  501  502  0.00000000000E+00  0.00000000000E+00  0.86379852585E+01  0.86379852585E+01  0.00000000000E+00 0. -1.
         21   -1    0    0  502  503 -0.00000000000E+00 -0.00000000000E+00 -0.58401904701E+02  0.58401904701E+02  0.00000000000E+00 0. -1.
          4    1    1    2  501    0  0.81663116820E+01 -0.19601078508E+02 -0.13957484419E+02  0.25410672885E+02  0.00000000000E+00 0. -1.
         -4    1    1    2    0  503 -0.81663116820E+01  0.19601078508E+02 -0.35806435024E+02  0.41629217075E+02  0.00000000000E+00 0.  1.
<mgrwt>
<rscale>  2 0.21234192E+02</rscale>
<asrwt>0</asrwt>
<pdfrwt beam="1">  1       21 0.13289208E-02 0.21234192E+02</pdfrwt>
<pdfrwt beam="2">  1       21 0.89849084E-02 0.21234192E+02</pdfrwt>
<totfact> 0.15137038E+08</totfact>
</mgrwt>
</event>
<event>
 4    1  0.7841599E+004  0.2124262E+02  0.7546771E-02  0.1721689E+00
         21   -1    0    0  501  502  0.00000000000E+00  0.00000000000E+00  0.28914229546E+02  0.28914229546E+02  0.00000000000E+00 0.  1.
         21   -1    0    0  502  503 -0.00000000000E+00 -0.00000000000E+00 -0.15740227433E+02  0.15740227433E+02  0.00000000000E+00 0.  1.
          1    1    1    2  501    0  0.13051560380E+01  0.21202491187E+02  0.45288000747E+01  0.21720015998E+02  0.00000000000E+00 0.  1.
         -1    1    1    2    0  503 -0.13051560380E+01 -0.21202491187E+02  0.86452020380E+01  0.22934440981E+02  0.00000000000E+00 0. -1.
<mgrwt>
<rscale>  2 0.21242624E+02</rscale>
<asrwt>0</asrwt>
<pdfrwt beam="1">  1       21 0.44483430E-02 0.21242624E+02</pdfrwt>
<pdfrwt beam="2">  1       21 0.24215735E-02 0.21242624E+02</pdfrwt>
<totfact> 0.18759415E+08</totfact>
</mgrwt>
</event>
<event>
 4    1  0.7841599E+004  0.2305799E+02  0.7546771E-02  0.1690572E+00
         21   -1    0    0  501  502  0.00000000000E+00  0.00000000000E+00  0.13339292542E+03  0.13339292542E+03  0.00000000000E+00 0.  1.
         21   -1    0    0  502  503 -0.00000000000E+00 -0.00000000000E+00 -0.43994438832E+01  0.43994438832E+01  0.00000000000E+00 0.  1.
          1    1    1    2  501    0  0.23052994605E+02 -0.48004946416E+00  0.43369867856E+02  0.49118392131E+02  0.00000000000E+00 0.  1.
         -1    1    1    2    0  503 -0.23052994605E+02  0.48004946416E+00  0.85623613685E+02  0.88673977176E+02  0.00000000000E+00 0. -1.
<mgrwt>
<rscale>  2 0.23057992E+02</rscale>
<asrwt>0</asrwt>
<pdfrwt beam="1">  1       21 0.20521985E-01 0.23057992E+02</pdfrwt>
<pdfrwt beam="2">  1       21 0.67683762E-03 0.23057992E+02</pdfrwt>
<totfact> 0.10557303E+08</totfact>
</mgrwt>
</event>
<event>
 4    1  0.7841599E+004  0.5087267E+02  0.7546771E-02  0.1440691E+00
         21   -1    0    0  503  502  0.00000000000E+00  0.00000000000E+00  0.17910122099E+03  0.17910122099E+03  0.00000000000E+00 0.  1.
         21   -1    0    0  501  503 -0.00000000000E+00 -0.00000000000E+00 -0.29134112419E+02  0.29134112419E+02  0.00000000000E+00 0.  1.
          3    1    1    2  501    0 -0.20356841963E+02 -0.46622183666E+02  0.14890084305E+03  0.15735148581E+03  0.00000000000E+00 0. -1.
         -3    1    1    2    0  502  0.20356841963E+02  0.46622183666E+02  0.10662655199E+01  0.50883847601E+02  0.00000000000E+00 0.  1.
<mgrwt>
<rscale>  2 0.50872675E+02</rscale>
<asrwt>0</asrwt>
<pdfrwt beam="1">  1       21 0.27554033E-01 0.50872675E+02</pdfrwt>
<pdfrwt beam="2">  1       21 0.44821713E-02 0.50872675E+02</pdfrwt>
<totfact> 0.37930264E+06</totfact>
</mgrwt>
</event>
<event>
 4    1  0.7841599E+004  0.2006533E+02  0.7546771E-02  0.1744032E+00
         21   -1    0    0  501  502  0.00000000000E+00  0.00000000000E+00  0.11845565909E+03  0.11845565909E+03  0.00000000000E+00 0. -1.
         21   -1    0    0  502  503 -0.00000000000E+00 -0.00000000000E+00 -0.39579792517E+01  0.39579792517E+01  0.00000000000E+00 0. -1.
          2    1    1    2  501    0 -0.82528094412E+01  0.18289573077E+02  0.80252924918E+02  0.82723329871E+02  0.00000000000E+00 0.  1.
         -2    1    1    2    0  503  0.82528094412E+01 -0.18289573077E+02  0.34244754923E+02  0.39690308474E+02  0.00000000000E+00 0. -1.
<mgrwt>
<rscale>  2 0.20065327E+02</rscale>
<asrwt>0</asrwt>
<pdfrwt beam="1">  1       21 0.18223945E-01 0.20065327E+02</pdfrwt>
<pdfrwt beam="2">  1       21 0.60891997E-03 0.20065327E+02</pdfrwt>
<totfact> 0.14570829E+08</totfact>
</mgrwt>
</event>
<event>
 4    1  0.7841599E+004  0.3172035E+02  0.7546771E-02  0.1579815E+00
         21   -1    0    0  501  502  0.00000000000E+00  0.00000000000E+00  0.98080118742E+03  0.98080118742E+03  0.00000000000E+00 0. -1.
         21   -1    0    0  502  503 -0.00000000000E+00 -0.00000000000E+00 -0.19127792195E+01  0.19127792195E+01  0.00000000000E+00 0. -1.
          3    1    1    2  501    0  0.25183207922E+02 -0.19286962114E+02  0.82402630875E+03  0.82463660989E+03  0.00000000000E+00 0. -1.
         -3    1    1    2    0  503 -0.25183207922E+02  0.19286962114E+02  0.15486209946E+03  0.15807735675E+03  0.00000000000E+00 0.  1.
<mgrwt>
<rscale>  2 0.31720354E+02</rscale>
<asrwt>0</asrwt>
<pdfrwt beam="1">  1       21 0.15089209E+00 0.31720354E+02</pdfrwt>
<pdfrwt beam="2">  1       21 0.29427451E-03 0.31720354E+02</pdfrwt>
<totfact> 0.68383888E+06</totfact>
</mgrwt>
</event>
<event>
 4    1  0.7841599E+004  0.4034074E+02  0.7546771E-02  0.1505719E+00
         21   -1    0    0  501  502  0.00000000000E+00  0.00000000000E+00  0.21967482870E+02  0.21967482870E+02  0.00000000000E+00 0. -1.
         21   -1    0    0  502  503 -0.00000000000E+00 -0.00000000000E+00 -0.74694582939E+02  0.74694582939E+02  0.00000000000E+00 0. -1.
          5    1    1    2  501    0 -0.38806107120E+02  0.11020956000E+02 -0.21983483152E+02  0.45941799622E+02  0.00000000000E+00 0. -1.
         -5    1    1    2    0  503  0.38806107120E+02 -0.11020956000E+02 -0.30743616916E+02  0.50720266187E+02  0.00000000000E+00 0.  1.
<mgrwt>
<rscale>  2 0.40340741E+02</rscale>
<asrwt>0</asrwt>
<pdfrwt beam="1">  1       21 0.33796128E-02 0.40340741E+02</pdfrwt>
<pdfrwt beam="2">  1       21 0.11491474E-01 0.40340741E+02</pdfrwt>
<totfact> 0.27423942E+07</totfact>
</mgrwt>
</event>
<event>
 4    1  0.7841599E+004  0.2836909E+02  0.7546771E-02  0.1616849E+00
         21   -1    0    0  503  502  0.00000000000E+00  0.00000000000E+00  0.15945425535E+03  0.15945425535E+03  0.00000000000E+00 0.  1.
         21   -1    0    0  501  503 -0.00000000000E+00 -0.00000000000E+00 -0.60358216660E+01  0.60358216660E+01  0.00000000000E+00 0.  1.
          1    1    1    2  501    0  0.25008025366E+02  0.13394166099E+02  0.43222043339E+02  0.51700580737E+02  0.00000000000E+00 0. -1.
         -1    1    1    2    0  502 -0.25008025366E+02 -0.13394166099E+02  0.11019639034E+03  0.11378949628E+03  0.00000000000E+00 0.  1.
<mgrwt>
<rscale>  2 0.28369086E+02</rscale>
<asrwt>0</asrwt>
<pdfrwt beam="1">  1       21 0.24531421E-01 0.28369086E+02</pdfrwt>
<pdfrwt beam="2">  1       21 0.92858807E-03 0.28369086E+02</pdfrwt>
<totfact> 0.50436652E+07</totfact>
</mgrwt>
</event>
<event>
 4    1  0.7841599E+004  0.3628687E+02  0.7546771E-02  0.1537461E+00
         21   -1    0    0  501  502  0.00000000000E+00  0.00000000000E+00  0.55330855245E+02  0.55330855245E+02  0.00000000000E+00 0.  1.
         21   -1    0    0  502  503 -0.00000000000E+00 -0.00000000000E+00 -0.28262060163E+02  0.28262060163E+02  0.00000000000E+00 0.  1.
          3    1    1    2  501    0 -0.15587778359E+02 -0.32768252325E+02  0.30146549005E+02  0.47175752368E+02  0.00000000000E+00 0. -1.
         -3    1    1    2    0  503  0.15587778359E+02  0.32768252325E+02 -0.30777539229E+01  0.36417163039E+02  0.00000000000E+00 0.  1.
<mgrwt>
<rscale>  2 0.36286874E+02</rscale>
<asrwt>0</asrwt>
<pdfrwt beam="1">  1       21 0.85124392E-02 0.36286874E+02</pdfrwt>
<pdfrwt beam="2">  1       21 0.43480093E-02 0.36286874E+02</pdfrwt>
<totfact> 0.29818260E+07</totfact>
</mgrwt>
</event>
<event>
 4    1  0.7841599E+004  0.2905201E+02  0.7546771E-02  0.1608810E+00
         21   -1    0    0  503  502  0.00000000000E+00  0.00000000000E+00  0.24552884050E+02  0.24552884050E+02  0.00000000000E+00 0.  1.
         21   -1    0    0  501  503 -0.00000000000E+00 -0.00000000000E+00 -0.34451122605E+02  0.34451122605E+02  0.00000000000E+00 0.  1.
          3    1    1    2  501    0  0.22759165180E+02  0.18056575912E+02 -0.35675995288E+01  0.29270245980E+02  0.00000000000E+00 0.  1.
         -3    1    1    2    0  502 -0.22759165180E+02 -0.18056575912E+02 -0.63306390258E+01  0.29733760674E+02  0.00000000000E+00 0. -1.
<mgrwt>
<rscale>  2 0.29052014E+02</rscale>
<asrwt>0</asrwt>
<pdfrwt beam="1">  1       21 0.37773668E-02 0.29052014E+02</pdfrwt>
<pdfrwt beam="2">  1       21 0.53001727E-02 0.29052014E+02</pdfrwt>
<totfact> 0.77367028E+07</totfact>
</mgrwt>
</event>
<event>
 4    1  0.7841599E+004  0.3068707E+02  0.7546771E-02  0.1590616E+00
         21   -1    0    0  503  502  0.00000000000E+00  0.00000000000E+00  0.80093478603E+02  0.80093478603E+02  0.00000000000E+00 0.  1.
         21   -1    0    0  501  503 -0.00000000000E+00 -0.00000000000E+00 -0.15190883374E+02  0.15190883374E+02  0.00000000000E+00 0.  1.
          3    1    1    2  501    0 -0.18290660858E+02 -0.24640369593E+02  0.55101058835E+02  0.63069983138E+02  0.00000000000E+00 0. -1.
         -3    1    1    2    0  502  0.18290660858E+02  0.24640369593E+02  0.98015363936E+01  0.32214378839E+02  0.00000000000E+00 0.  1.
<mgrwt>
<rscale>  2 0.30687067E+02</rscale>
<asrwt>0</asrwt>
<pdfrwt beam="1">  1       21 0.12322073E-01 0.30687067E+02</pdfrwt>
<pdfrwt beam="2">  1       21 0.23370590E-02 0.30687067E+02</pdfrwt>
<totfact> 0.41375521E+07</totfact>
</mgrwt>
</event>
<event>
 4    1  0.7841599E+004  0.2306254E+02  0.7546771E-02  0.1690498E+00
         21   -1    0    0  501  502  0.00000000000E+00  0.00000000000E+00  0.26306018035E+01  0.26306018035E+01  0.00000000000E+00 0. -1.
         21   -1    0    0  502  503 -0.00000000000E+00 -0.00000000000E+00 -0.21630329960E+03  0.21630329960E+03  0.00000000000E+00 0. -1.
          4    1    1    2  501    0 -0.13019236226E+02 -0.19036281905E+02 -0.13479850333E+03  0.13675714622E+03  0.00000000000E+00 0.  1.
         -4    1    1    2    0  503  0.13019236226E+02  0.19036281905E+02 -0.78874194463E+02  0.82176755185E+02  0.00000000000E+00 0. -1.
<mgrwt>
<rscale>  2 0.23062535E+02</rscale>
<asrwt>0</asrwt>
<pdfrwt beam="1">  1       21 0.40470795E-03 0.23062535E+02</pdfrwt>
<pdfrwt beam="2">  1       21 0.33277433E-01 0.23062535E+02</pdfrwt>
<totfact> 0.94849486E+07</totfact>
</mgrwt>
</event>
<event>
 4    1  0.7841599E+004  0.3621936E+02  0.7546771E-02  0.1538031E+00
         21   -1    0    0  503  502  0.00000000000E+00  0.00000000000E+00  0.43890261511E+03  0.43890261511E+03  0.00000000000E+00 0.  1.
         21   -1    0    0  501  503 -0.00000000000E+00 -0.00000000000E+00 -0.32969322790E+01  0.32969322790E+01  0.00000000000E+00 0.  1.
          3    1    1    2  501    0  0.20992542926E+02  0.29515341284E+02  0.15022233597E+03  0.15452699588E+03  0.00000000000E+00 0.  1.
         -3    1    1    2    0  502 -0.20992542926E+02 -0.29515341284E+02  0.28538334686E+03  0.28767255151E+03  0.00000000000E+00 0. -1.
<mgrwt>
<rscale>  2 0.36219363E+02</rscale>
<asrwt>0</asrwt>
<pdfrwt beam="1">  1       21 0.67523433E-01 0.36219363E+02</pdfrwt>
<pdfrwt beam="2">  1       21 0.50722070E-03 0.36219363E+02</pdfrwt>
<totfact> 0.18705905E+07</totfact>
</mgrwt>
</event>
<event>
 4    1  0.7841599E+004  0.2170914E+02  0.7546771E-02  0.1713331E+00
         21   -1    0    0  501  502  0.00000000000E+00  0.00000000000E+00  0.10070322264E+01  0.10070322264E+01  0.00000000000E+00 0. -1.
         21   -1    0    0  502  503 -0.00000000000E+00 -0.00000000000E+00 -0.53868734392E+03  0.53868734392E+03  0.00000000000E+00 0. -1.
          3    1    1    2  501    0 -0.19338677869E+02  0.98641906383E+01 -0.36659395663E+03  0.36723618525E+03  0.00000000000E+00 0.  1.
         -3    1    1    2    0  503  0.19338677869E+02 -0.98641906383E+01 -0.17108635506E+03  0.17245819089E+03  0.00000000000E+00 0. -1.
<mgrwt>
<rscale>  2 0.21709139E+02</rscale>
<asrwt>0</asrwt>
<pdfrwt beam="1">  1       21 0.15492814E-03 0.21709139E+02</pdfrwt>
<pdfrwt beam="2">  1       21 0.82874918E-01 0.21709139E+02</pdfrwt>
<totfact> 0.62766018E+07</totfact>
</mgrwt>
</event>
<event>
 4    1  0.7841599E+004  0.2284683E+02  0.7546771E-02  0.1694005E+00
         21   -1    0    0  503  502  0.00000000000E+00  0.00000000000E+00  0.60548631459E+01  0.60548631459E+01  0.00000000000E+00 0. -1.
         21   -1    0    0  501  503 -0.00000000000E+00 -0.00000000000E+00 -0.94535719050E+02  0.94535719050E+02  0.00000000000E+00 0. -1.
          2    1    1    2  501    0  0.22825449787E+02 -0.98815783311E+00 -0.59168114739E+02  0.63425889160E+02  0.00000000000E+00 0. -1.
         -2    1    1    2    0  502 -0.22825449787E+02  0.98815783311E+00 -0.29312741165E+02  0.37164693037E+02  0.00000000000E+00 0.  1.
<mgrwt>
<rscale>  2 0.22846829E+02</rscale>
<asrwt>0</asrwt>
<pdfrwt beam="1">  1       21 0.93151739E-03 0.22846829E+02</pdfrwt>
<pdfrwt beam="2">  1       21 0.14543957E-01 0.22846829E+02</pdfrwt>
<totfact> 0.11830762E+08</totfact>
</mgrwt>
</event>
<event>
 4    1  0.7841599E+004  0.2994759E+02  0.7546771E-02  0.1598669E+00
         21   -1    0    0  503  502  0.00000000000E+00  0.00000000000E+00  0.16442584863E+02  0.16442584863E+02  0.00000000000E+00 0.  1.
         21   -1    0    0  501  503 -0.00000000000E+00 -0.00000000000E+00 -0.54820352175E+02  0.54820352175E+02  0.00000000000E+00 0.  1.
          2    1    1    2  501    0 -0.12621264315E+02 -0.27158088144E+02 -0.21714909618E+02  0.36991828345E+02  0.00000000000E+00 0.  1.
         -2    1    1    2    0  502  0.12621264315E+02  0.27158088144E+02 -0.16662857694E+02  0.34271108694E+02  0.00000000000E+00 0. -1.
<mgrwt>
<rscale>  2 0.29947589E+02</rscale>
<asrwt>0</asrwt>
<pdfrwt beam="1">  1       21 0.25296285E-02 0.29947589E+02</pdfrwt>
<pdfrwt beam="2">  1       21 0.84339002E-02 0.29947589E+02</pdfrwt>
<totfact> 0.68637560E+07</totfact>
</mgrwt>
</event>
<event>
 4    1  0.7841599E+004  0.2178750E+02  0.7546771E-02  0.1711953E+00
         21   -1    0    0  503  502  0.00000000000E+00  0.00000000000E+00  0.11113421045E+01  0.11113421045E+01  0.00000000000E+00 0. -1.
         21   -1    0    0  501  503 -0.00000000000E+00 -0.00000000000E+00 -0.46137884306E+03  0.46137884306E+03  0.00000000000E+00 0. -1.
          4    1    1    2  501    0  0.21658186491E+02  0.23702370686E+01 -0.29313131717E+03  0.29393989891E+03  0.00000000000E+00 0.  1.
         -4    1    1    2    0  502 -0.21658186491E+02 -0.23702370686E+01 -0.16713618378E+03  0.16855028625E+03  0.00000000000E+00 0. -1.
<mgrwt>
<rscale>  2 0.21787498E+02</rscale>
<asrwt>0</asrwt>
<pdfrwt beam="1">  1       21 0.17097532E-03 0.21787498E+02</pdfrwt>
<pdfrwt beam="2">  1       21 0.70981521E-01 0.21787498E+02</pdfrwt>
<totfact> 0.75238531E+07</totfact>
</mgrwt>
</event>
<event>
 4    1  0.7841599E+004  0.2431612E+02  0.7546771E-02  0.1671024E+00
         21   -1    0    0  503  502  0.00000000000E+00  0.00000000000E+00  0.10572993533E+03  0.10572993533E+03  0.00000000000E+00 0.  1.
         21   -1    0    0  501  503 -0.00000000000E+00 -0.00000000000E+00 -0.57389860882E+01  0.57389860882E+01  0.00000000000E+00 0.  1.
          1    1    1    2  501    0  0.20802489601E+02 -0.12590868899E+02  0.58905935733E+02  0.63727410254E+02  0.00000000000E+00 0. -1.
         -1    1    1    2    0  502 -0.20802489601E+02  0.12590868899E+02  0.41085013513E+02  0.47741511168E+02  0.00000000000E+00 0.  1.
<mgrwt>
<rscale>  2 0.24316117E+02</rscale>
<asrwt>0</asrwt>
<pdfrwt beam="1">  1       21 0.16266142E-01 0.24316117E+02</pdfrwt>
<pdfrwt beam="2">  1       21 0.88292101E-03 0.24316117E+02</pdfrwt>
<totfact> 0.10778256E+08</totfact>
</mgrwt>
</event>
<event>
 4    1  0.7841599E+004  0.3960761E+02  0.7546771E-02  0.1511119E+00
         21   -1    0    0  501  502  0.00000000000E+00  0.00000000000E+00  0.68834589552E+01  0.68834589552E+01  0.00000000000E+00 0. -1.
         21   -1    0    0  502  503 -0.00000000000E+00 -0.00000000000E+00 -0.23072748491E+03  0.23072748491E+03  0.00000000000E+00 0. -1.
          5    1    1    2  501    0 -0.31245535116E+02  0.24340893061E+02 -0.12506634771E+03  0.13118823830E+03  0.00000000000E+00 0.  1.
         -5    1    1    2    0  503  0.31245535116E+02 -0.24340893061E+02 -0.98777678249E+02  0.10642270557E+03  0.00000000000E+00 0. -1.
<mgrwt>
<rscale>  2 0.39607607E+02</rscale>
<asrwt>0</asrwt>
<pdfrwt beam="1">  1       21 0.10589934E-02 0.39607607E+02</pdfrwt>
<pdfrwt beam="2">  1       21 0.35496544E-01 0.39607607E+02</pdfrwt>
<totfact> 0.22232471E+07</totfact>
</mgrwt>
</event>
<event>
 4    1  0.7841599E+004  0.3001979E+02  0.7546771E-02  0.1597870E+00
         21   -1    0    0  503  502  0.00000000000E+00  0.00000000000E+00  0.15578160619E+01  0.15578160619E+01  0.00000000000E+00 0. -1.
         21   -1    0    0  501  503 -0.00000000000E+00 -0.00000000000E+00 -0.65289693170E+03  0.65289693170E+03  0.00000000000E+00 0. -1.
          3    1    1    2  501    0 -0.29981095551E+02  0.15236351293E+01 -0.43613381016E+03  0.43716574422E+03  0.00000000000E+00 0. -1.
         -3    1    1    2    0  502  0.29981095551E+02 -0.15236351293E+01 -0.21520530547E+03  0.21728900354E+03  0.00000000000E+00 0.  1.
<mgrwt>
<rscale>  2 0.30019786E+02</rscale>
<asrwt>0</asrwt>
<pdfrwt beam="1">  1       21 0.23966378E-03 0.30019786E+02</pdfrwt>
<pdfrwt beam="2">  1       21 0.10044578E+00 0.30019786E+02</pdfrwt>
<totfact> 0.23514395E+07</totfact>
</mgrwt>
</event>
<event>
 4    1  0.7841599E+004  0.2291851E+02  0.7546771E-02  0.1692834E+00
         21   -1    0    0  503  502  0.00000000000E+00  0.00000000000E+00  0.24832363709E+01  0.24832363709E+01  0.00000000000E+00 0. -1.
         21   -1    0    0  501  503 -0.00000000000E+00 -0.00000000000E+00 -0.25650470361E+03  0.25650470361E+03  0.00000000000E+00 0. -1.
          5    1    1    2  501    0 -0.19985647816E+02  0.11217482432E+02 -0.18123913235E+03  0.18268245982E+03  0.00000000000E+00 0. -1.
         -5    1    1    2    0  502  0.19985647816E+02 -0.11217482432E+02 -0.72782334885E+02  0.76305480157E+02  0.00000000000E+00 0.  1.
<mgrwt>
<rscale>  2 0.22918508E+02</rscale>
<asrwt>0</asrwt>
<pdfrwt beam="1">  1       21 0.38203672E-03 0.22918508E+02</pdfrwt>
<pdfrwt beam="2">  1       21 0.39462226E-01 0.22918508E+02</pdfrwt>
<totfact> 0.75044641E+07</totfact>
</mgrwt>
</event>
<event>
 4    1  0.7841599E+004  0.2137909E+02  0.7546771E-02  0.1719217E+00
         21   -1    0    0  501  502  0.00000000000E+00  0.00000000000E+00  0.77699080072E+01  0.77699080072E+01  0.00000000000E+00 0.  1.
         21   -1    0    0  502  503 -0.00000000000E+00 -0.00000000000E+00 -0.58960931051E+02  0.58960931051E+02  0.00000000000E+00 0.  1.
          2    1    1    2  501    0 -0.21157524775E+02  0.30699816143E+01 -0.27196943725E+02  0.34593921283E+02  0.00000000000E+00 0.  1.
         -2    1    1    2    0  503  0.21157524775E+02 -0.30699816143E+01 -0.23994079318E+02  0.32136917775E+02  0.00000000000E+00 0. -1.
<mgrwt>
<rscale>  2 0.21379094E+02</rscale>
<asrwt>0</asrwt>
<pdfrwt beam="1">  1       21 0.11953705E-02 0.21379094E+02</pdfrwt>
<pdfrwt beam="2">  1       21 0.90709123E-02 0.21379094E+02</pdfrwt>
<totfact> 0.17519625E+08</totfact>
</mgrwt>
</event>
<event>
 4    1  0.7841599E+004  0.3235703E+02  0.7546771E-02  0.1573407E+00
         21   -1    0    0  503  502  0.00000000000E+00  0.00000000000E+00  0.49746538019E+01  0.49746538019E+01  0.00000000000E+00 0.  1.
         21   -1    0    0  501  503 -0.00000000000E+00 -0.00000000000E+00 -0.23915317861E+03  0.23915317861E+03  0.00000000000E+00 0.  1.
          5    1    1    2  501    0  0.29911051714E+02  0.12341244413E+02 -0.15936787900E+03  0.16261948894E+03  0.00000000000E+00 0. -1.
         -5    1    1    2    0  502 -0.29911051714E+02 -0.12341244413E+02 -0.74810645813E+02  0.81508343470E+02  0.00000000000E+00 0.  1.
<mgrwt>
<rscale>  2 0.32357029E+02</rscale>
<asrwt>0</asrwt>
<pdfrwt beam="1">  1       21 0.76533136E-03 0.32357029E+02</pdfrwt>
<pdfrwt beam="2">  1       21 0.36792797E-01 0.32357029E+02</pdfrwt>
<totfact> 0.32876868E+07</totfact>
</mgrwt>
</event>
<event>
 4    1  0.7841599E+004  0.5091166E+02  0.7546771E-02  0.1440485E+00
         21   -1    0    0  501  502  0.00000000000E+00  0.00000000000E+00  0.29885985730E+03  0.29885985730E+03  0.00000000000E+00 0. -1.
         21   -1    0    0  502  503 -0.00000000000E+00 -0.00000000000E+00 -0.99695276115E+01  0.99695276115E+01  0.00000000000E+00 0. -1.
          2    1    1    2  501    0  0.50139870031E+02 -0.88312112488E+01  0.88758597952E+02  0.10232343607E+03  0.00000000000E+00 0.  1.
         -2    1    1    2    0  503 -0.50139870031E+02  0.88312112488E+01  0.20013173174E+03  0.20650594884E+03  0.00000000000E+00 0. -1.
<mgrwt>
<rscale>  2 0.50911657E+02</rscale>
<asrwt>0</asrwt>
<pdfrwt beam="1">  1       21 0.45978433E-01 0.50911657E+02</pdfrwt>
<pdfrwt beam="2">  1       21 0.15337737E-02 0.50911657E+02</pdfrwt>
<totfact> 0.78451253E+06</totfact>
</mgrwt>
</event>
<event>
 4    1  0.7841599E+004  0.3867220E+02  0.7546771E-02  0.1518216E+00
         21   -1    0    0  501  502  0.00000000000E+00  0.00000000000E+00  0.41890761627E+02  0.41890761627E+02  0.00000000000E+00 0. -1.
         21   -1    0    0  502  503 -0.00000000000E+00 -0.00000000000E+00 -0.36178464925E+02  0.36178464925E+02  0.00000000000E+00 0. -1.
          5    1    1    2  501    0  0.13434481345E+02 -0.36263675204E+02  0.73407548903E+01  0.39362750293E+02  0.00000000000E+00 0.  1.
         -5    1    1    2    0  503 -0.13434481345E+02  0.36263675204E+02 -0.16284581878E+01  0.38706476259E+02  0.00000000000E+00 0. -1.
<mgrwt>
<rscale>  2 0.38672205E+02</rscale>
<asrwt>0</asrwt>
<pdfrwt beam="1">  1       21 0.64447326E-02 0.38672205E+02</pdfrwt>
<pdfrwt beam="2">  1       21 0.55659177E-02 0.38672205E+02</pdfrwt>
<totfact> 0.32041226E+07</totfact>
</mgrwt>
</event>
<event>
 4    1  0.7841599E+004  0.2330686E+02  0.7546771E-02  0.1686584E+00
         21   -1    0    0  501  502  0.00000000000E+00  0.00000000000E+00  0.42286665192E+02  0.42286665192E+02  0.00000000000E+00 0.  1.
         21   -1    0    0  502  503 -0.00000000000E+00 -0.00000000000E+00 -0.18544440861E+02  0.18544440861E+02  0.00000000000E+00 0.  1.
          2    1    1    2  501    0 -0.15197924959E+02 -0.17670108712E+02 -0.49894179953E+01  0.23834931443E+02  0.00000000000E+00 0.  1.
         -2    1    1    2    0  503  0.15197924959E+02  0.17670108712E+02  0.28731642326E+02  0.36996174609E+02  0.00000000000E+00 0. -1.
<mgrwt>
<rscale>  2 0.23306859E+02</rscale>
<asrwt>0</asrwt>
<pdfrwt beam="1">  1       21 0.65056408E-02 0.23306859E+02</pdfrwt>
<pdfrwt beam="2">  1       21 0.28529909E-02 0.23306859E+02</pdfrwt>
<totfact> 0.81590842E+07</totfact>
</mgrwt>
</event>
<event>
 4    1  0.7841599E+004  0.2357429E+02  0.7546771E-02  0.1682367E+00
         21   -1    0    0  501  502  0.00000000000E+00  0.00000000000E+00  0.44539313658E+03  0.44539313658E+03  0.00000000000E+00 0. -1.
         21   -1    0    0  502  503 -0.00000000000E+00 -0.00000000000E+00 -0.19637569252E+01  0.19637569252E+01  0.00000000000E+00 0. -1.
          5    1    1    2  501    0 -0.22776681516E+02 -0.60802752499E+01  0.35677683838E+03  0.35755483407E+03  0.00000000000E+00 0. -1.
         -5    1    1    2    0  503  0.22776681516E+02  0.60802752499E+01  0.86652541276E+02  0.89802059429E+02  0.00000000000E+00 0.  1.
<mgrwt>
<rscale>  2 0.23574286E+02</rscale>
<asrwt>0</asrwt>
<pdfrwt beam="1">  1       21 0.68521941E-01 0.23574286E+02</pdfrwt>
<pdfrwt beam="2">  1       21 0.30211680E-03 0.23574286E+02</pdfrwt>
<totfact> 0.36131966E+07</totfact>
</mgrwt>
</event>
<event>
 4    1  0.7841599E+004  0.2864054E+02  0.7546771E-02  0.1613621E+00
         21   -1    0    0  501  502  0.00000000000E+00  0.00000000000E+00  0.89514192525E+00  0.89514192525E+00  0.00000000000E+00 0.  1.
         21   -1    0    0  502  503 -0.00000000000E+00 -0.00000000000E+00 -0.92313022990E+03  0.92313022990E+03  0.00000000000E+00 0.  1.
          5    1    1    2  501    0 -0.27727610818E+02  0.71735534007E+01 -0.42157753796E+03  0.42254928799E+03  0.00000000000E+00 0.  1.
         -5    1    1    2    0  503  0.27727610818E+02 -0.71735534007E+01 -0.50065755001E+03  0.50147608383E+03  0.00000000000E+00 0. -1.
<mgrwt>
<rscale>  2 0.28640535E+02</rscale>
<asrwt>0</asrwt>
<pdfrwt beam="1">  1       21 0.13771400E-03 0.28640535E+02</pdfrwt>
<pdfrwt beam="2">  1       21 0.14202018E+00 0.28640535E+02</pdfrwt>
<totfact> 0.23589965E+07</totfact>
</mgrwt>
</event>
<event>
 4    1  0.7841599E+004  0.3317500E+02  0.7546771E-02  0.1565431E+00
         21   -1    0    0  503  502  0.00000000000E+00  0.00000000000E+00  0.12309436202E+02  0.12309436202E+02  0.00000000000E+00 0. -1.
         21   -1    0    0  501  503 -0.00000000000E+00 -0.00000000000E+00 -0.10927773640E+03  0.10927773640E+03  0.00000000000E+00 0. -1.
          5    1    1    2  501    0  0.32791792651E+02  0.50277964335E+01 -0.74406340529E+02  0.81467072570E+02  0.00000000000E+00 0. -1.
         -5    1    1    2    0  502 -0.32791792651E+02 -0.50277964335E+01 -0.22561959665E+02  0.40120100027E+02  0.00000000000E+00 0.  1.
<mgrwt>
<rscale>  2 0.33174997E+02</rscale>
<asrwt>0</asrwt>
<pdfrwt beam="1">  1       21 0.18937594E-02 0.33174997E+02</pdfrwt>
<pdfrwt beam="2">  1       21 0.16811960E-01 0.33174997E+02</pdfrwt>
<totfact> 0.34159351E+07</totfact>
</mgrwt>
</event>
<event>
 4    1  0.7841599E+004  0.2100152E+02  0.7546771E-02  0.1726115E+00
         21   -1    0    0  501  502  0.00000000000E+00  0.00000000000E+00  0.34750418269E+02  0.34750418269E+02  0.00000000000E+00 0.  1.
         21   -1    0    0  502  503 -0.00000000000E+00 -0.00000000000E+00 -0.12741531554E+02  0.12741531554E+02  0.00000000000E+00 0.  1.
          2    1    1    2  501    0  0.19801309917E+02 -0.69979996519E+01  0.12480001228E+02  0.24429783138E+02  0.00000000000E+00 0. -1.
         -2    1    1    2    0  503 -0.19801309917E+02  0.69979996519E+01  0.95288854874E+01  0.23062166684E+02  0.00000000000E+00 0.  1.
<mgrwt>
<rscale>  2 0.21001521E+02</rscale>
<asrwt>0</asrwt>
<pdfrwt beam="1">  1       21 0.53462182E-02 0.21001521E+02</pdfrwt>
<pdfrwt beam="2">  1       21 0.19602356E-02 0.21001521E+02</pdfrwt>
<totfact> 0.19315695E+08</totfact>
</mgrwt>
</event>
<event>
 4    1  0.7841599E+004  0.2064866E+02  0.7546771E-02  0.1732728E+00
         21   -1    0    0  503  502  0.00000000000E+00  0.00000000000E+00  0.18818937876E+03  0.18818937876E+03  0.00000000000E+00 0. -1.
         21   -1    0    0  501  503 -0.00000000000E+00 -0.00000000000E+00 -0.23486340986E+01  0.23486340986E+01  0.00000000000E+00 0. -1.
          4    1    1    2  501    0 -0.20584746742E+02  0.16233576686E+01  0.75010211989E+02  0.77800379120E+02  0.00000000000E+00 0.  1.
         -4    1    1    2    0  502  0.20584746742E+02 -0.16233576686E+01  0.11083053267E+03  0.11273763374E+03  0.00000000000E+00 0. -1.
<mgrwt>
<rscale>  2 0.20648658E+02</rscale>
<asrwt>0</asrwt>
<pdfrwt beam="1">  1       21 0.28952200E-01 0.20648658E+02</pdfrwt>
<pdfrwt beam="2">  1       21 0.36132847E-03 0.20648658E+02</pdfrwt>
<totfact> 0.13992022E+08</totfact>
</mgrwt>
</event>
<event>
 4    1  0.7841599E+004  0.3344509E+02  0.7546771E-02  0.1562859E+00
         21   -1    0    0  501  502  0.00000000000E+00  0.00000000000E+00  0.97749719845E+01  0.97749719845E+01  0.00000000000E+00 0. -1.
         21   -1    0    0  502  503 -0.00000000000E+00 -0.00000000000E+00 -0.15631607311E+03  0.15631607311E+03  0.00000000000E+00 0. -1.
          5    1    1    2  501    0  0.19931388866E+02  0.26857282902E+02 -0.30283606627E+02  0.45118407965E+02  0.00000000000E+00 0.  1.
         -5    1    1    2    0  503 -0.19931388866E+02 -0.26857282902E+02 -0.11625749450E+03  0.12097263713E+03  0.00000000000E+00 0. -1.
<mgrwt>
<rscale>  2 0.33445088E+02</rscale>
<asrwt>0</asrwt>
<pdfrwt beam="1">  1       21 0.15038420E-02 0.33445088E+02</pdfrwt>
<pdfrwt beam="2">  1       21 0.24048623E-01 0.33445088E+02</pdfrwt>
<totfact> 0.25902098E+07</totfact>
</mgrwt>
</event>
<event>
 4    1  0.7841599E+004  0.2289326E+02  0.7546771E-02  0.1693246E+00
         21   -1    0    0  503  502  0.00000000000E+00  0.00000000000E+00  0.55544109488E+01  0.55544109488E+01  0.00000000000E+00 0. -1.
         21   -1    0    0  501  503 -0.00000000000E+00 -0.00000000000E+00 -0.11645845597E+03  0.11645845597E+03  0.00000000000E+00 0. -1.
          3    1    1    2  501    0 -0.17775478110E+02  0.14426837731E+02 -0.82028290409E+02  0.85163030103E+02  0.00000000000E+00 0.  1.
         -3    1    1    2    0  502  0.17775478110E+02 -0.14426837731E+02 -0.28875754615E+02  0.36849836818E+02  0.00000000000E+00 0. -1.
<mgrwt>
<rscale>  2 0.22893258E+02</rscale>
<asrwt>0</asrwt>
<pdfrwt beam="1">  1       21 0.85452477E-03 0.22893258E+02</pdfrwt>
<pdfrwt beam="2">  1       21 0.17916685E-01 0.22893258E+02</pdfrwt>
<totfact> 0.94243520E+07</totfact>
</mgrwt>
</event>
<event>
 4    1  0.7841599E+004  0.2224831E+02  0.7546771E-02  0.1703993E+00
         21   -1    0    0  501  502  0.00000000000E+00  0.00000000000E+00  0.68851464427E+03  0.68851464427E+03  0.00000000000E+00 0.  1.
         21   -1    0    0  502  503 -0.00000000000E+00 -0.00000000000E+00 -0.73071685299E+00  0.73071685299E+00  0.00000000000E+00 0.  1.
          5    1    1    2  501    0 -0.21026046026E+02 -0.72727223353E+01  0.38767927431E+03  0.38831714723E+03  0.00000000000E+00 0. -1.
         -5    1    1    2    0  503  0.21026046026E+02  0.72727223353E+01  0.30010465311E+03  0.30092821390E+03  0.00000000000E+00 0.  1.
<mgrwt>
<rscale>  2 0.22248306E+02</rscale>
<asrwt>0</asrwt>
<pdfrwt beam="1">  1       21 0.10592481E+00 0.22248306E+02</pdfrwt>
<pdfrwt beam="2">  1       21 0.11241853E-03 0.22248306E+02</pdfrwt>
<totfact> 0.58823574E+07</totfact>
</mgrwt>
</event>
<event>
 4    1  0.7841599E+004  0.3132307E+02  0.7546771E-02  0.1583908E+00
         21   -1    0    0  501  502  0.00000000000E+00  0.00000000000E+00  0.30738101602E+03  0.30738101602E+03  0.00000000000E+00 0. -1.
         21   -1    0    0  502  503 -0.00000000000E+00 -0.00000000000E+00 -0.32438043315E+01  0.32438043315E+01  0.00000000000E+00 0. -1.
          3    1    1    2  501    0  0.25011537604E+02  0.18856235642E+02  0.17171171572E+03  0.17454526047E+03  0.00000000000E+00 0. -1.
         -3    1    1    2    0  503 -0.25011537604E+02 -0.18856235642E+02  0.13242549596E+03  0.13607955988E+03  0.00000000000E+00 0.  1.
<mgrwt>
<rscale>  2 0.31323069E+02</rscale>
<asrwt>0</asrwt>
<pdfrwt beam="1">  1       21 0.47289364E-01 0.31323069E+02</pdfrwt>
<pdfrwt beam="2">  1       21 0.49904707E-03 0.31323069E+02</pdfrwt>
<totfact> 0.38298637E+07</totfact>
</mgrwt>
</event>
<event>
 4    1  0.7841599E+004  0.2098014E+02  0.7546771E-02  0.1726511E+00
         21   -1    0    0  501  502  0.00000000000E+00  0.00000000000E+00  0.19683475004E+03  0.19683475004E+03  0.00000000000E+00 0.  1.
         21   -1    0    0  502  503 -0.00000000000E+00 -0.00000000000E+00 -0.22689793955E+01  0.22689793955E+01  0.00000000000E+00 0.  1.
          3    1    1    2  501    0 -0.13973261975E+02  0.15649741061E+02  0.10924424320E+03  0.11124060013E+03  0.00000000000E+00 0.  1.
         -3    1    1    2    0  503  0.13973261975E+02 -0.15649741061E+02  0.85321527453E+02  0.87863129312E+02  0.00000000000E+00 0. -1.
<mgrwt>
<rscale>  2 0.20980144E+02</rscale>
<asrwt>0</asrwt>
<pdfrwt beam="1">  1       21 0.30282256E-01 0.20980144E+02</pdfrwt>
<pdfrwt beam="2">  1       21 0.34907391E-03 0.20980144E+02</pdfrwt>
<totfact> 0.13628609E+08</totfact>
</mgrwt>
</event>
<event>
 4    1  0.7841599E+004  0.2290912E+02  0.7546771E-02  0.1692988E+00
         21   -1    0    0  503  502  0.00000000000E+00  0.00000000000E+00  0.82800917853E+01  0.82800917853E+01  0.00000000000E+00 0. -1.
         21   -1    0    0  501  503 -0.00000000000E+00 -0.00000000000E+00 -0.76403620892E+02  0.76403620892E+02  0.00000000000E+00 0. -1.
          2    1    1    2  501    0 -0.67646498775E+00  0.22899125588E+02 -0.16583125191E+02  0.28281223430E+02  0.00000000000E+00 0.  1.
         -2    1    1    2    0  502  0.67646498775E+00 -0.22899125588E+02 -0.51540403916E+02  0.56402489248E+02  0.00000000000E+00 0. -1.
<mgrwt>
<rscale>  2 0.22909115E+02</rscale>
<asrwt>0</asrwt>
<pdfrwt beam="1">  1       21 0.12738603E-02 0.22909115E+02</pdfrwt>
<pdfrwt beam="2">  1       21 0.11754403E-01 0.22909115E+02</pdfrwt>
<totfact> 0.10580980E+08</totfact>
</mgrwt>
</event>
<event>
 4    1  0.7841599E+004  0.2064349E+02  0.7546771E-02  0.1732826E+00
         21   -1    0    0  503  502  0.00000000000E+00  0.00000000000E+00  0.12718731827E+02  0.12718731827E+02  0.00000000000E+00 0. -1.
         21   -1    0    0  501  503 -0.00000000000E+00 -0.00000000000E+00 -0.83107458051E+02  0.83107458051E+02  0.00000000000E+00 0. -1.
          5    1    1    2  501    0  0.47047819077E+01 -0.20100217751E+02  0.18209546548E+01  0.20723648383E+02  0.00000000000E+00 0.  1.
         -5    1    1    2    0  502 -0.47047819077E+01  0.20100217751E+02 -0.72209680879E+02  0.75102541495E+02  0.00000000000E+00 0. -1.
<mgrwt>
<rscale>  2 0.20643491E+02</rscale>
<asrwt>0</asrwt>
<pdfrwt beam="1">  1       21 0.19567280E-02 0.20643491E+02</pdfrwt>
<pdfrwt beam="2">  1       21 0.12785763E-01 0.20643491E+02</pdfrwt>
<totfact> 0.46541247E+07</totfact>
</mgrwt>
</event>
<event>
 4    1  0.7841599E+004  0.2618561E+02  0.7546771E-02  0.1644534E+00
         21   -1    0    0  503  502  0.00000000000E+00  0.00000000000E+00  0.61093607391E+01  0.61093607391E+01  0.00000000000E+00 0.  1.
         21   -1    0    0  501  503 -0.00000000000E+00 -0.00000000000E+00 -0.13200928510E+03  0.13200928510E+03  0.00000000000E+00 0.  1.
          5    1    1    2  501    0 -0.18681117604E+02  0.18349443936E+02 -0.89677971649E+02  0.93422828296E+02  0.00000000000E+00 0. -1.
         -5    1    1    2    0  502  0.18681117604E+02 -0.18349443936E+02 -0.36221952716E+02  0.44695817547E+02  0.00000000000E+00 0.  1.
<mgrwt>
<rscale>  2 0.26185611E+02</rscale>
<asrwt>0</asrwt>
<pdfrwt beam="1">  1       21 0.93990182E-03 0.26185611E+02</pdfrwt>
<pdfrwt beam="2">  1       21 0.20309117E-01 0.26185611E+02</pdfrwt>
<totfact> 0.67985088E+07</totfact>
</mgrwt>
</event>
<event>
 4    1  0.7841599E+004  0.3181859E+02  0.7546771E-02  0.1578815E+00
         21   -1    0    0  501  502  0.00000000000E+00  0.00000000000E+00  0.82147794277E+02  0.82147794277E+02  0.00000000000E+00 0. -1.
         21   -1    0    0  502  503 -0.00000000000E+00 -0.00000000000E+00 -0.12773074848E+02  0.12773074848E+02  0.00000000000E+00 0. -1.
          2    1    1    2  501    0  0.30624655888E+02  0.86344007172E+01  0.25792297888E+02  0.40959309740E+02  0.00000000000E+00 0.  1.
         -2    1    1    2    0  503 -0.30624655888E+02 -0.86344007172E+01  0.43582421541E+02  0.53961559386E+02  0.00000000000E+00 0. -1.
<mgrwt>
<rscale>  2 0.31818586E+02</rscale>
<asrwt>0</asrwt>
<pdfrwt beam="1">  1       21 0.12638122E-01 0.31818586E+02</pdfrwt>
<pdfrwt beam="2">  1       21 0.19650885E-02 0.31818586E+02</pdfrwt>
<totfact> 0.52290062E+07</totfact>
</mgrwt>
</event>
<event>
 4    1  0.7841599E+004  0.2467790E+02  0.7546771E-02  0.1665672E+00
         21   -1    0    0  501  502  0.00000000000E+00  0.00000000000E+00  0.40602423798E+03  0.40602423798E+03  0.00000000000E+00 0. -1.
         21   -1    0    0  502  503 -0.00000000000E+00 -0.00000000000E+00 -0.15423969350E+01  0.15423969350E+01  0.00000000000E+00 0. -1.
          2    1    1    2  501    0 -0.24609573459E+02  0.18350600826E+01  0.23606407866E+03  0.23735047458E+03  0.00000000000E+00 0. -1.
         -2    1    1    2    0  503  0.24609573459E+02 -0.18350600826E+01  0.16841776239E+03  0.17021616033E+03  0.00000000000E+00 0.  1.
<mgrwt>
<rscale>  2 0.24677896E+02</rscale>
<asrwt>0</asrwt>
<pdfrwt beam="1">  1       21 0.62465182E-01 0.24677896E+02</pdfrwt>
<pdfrwt beam="2">  1       21 0.23729216E-03 0.24677896E+02</pdfrwt>
<totfact> 0.62610172E+07</totfact>
</mgrwt>
</event>
<event>
 4    1  0.7841599E+004  0.2889011E+02  0.7546771E-02  0.1610691E+00
         21   -1    0    0  503  502  0.00000000000E+00  0.00000000000E+00  0.23355627487E+02  0.23355627487E+02  0.00000000000E+00 0. -1.
         21   -1    0    0  501  503 -0.00000000000E+00 -0.00000000000E+00 -0.47064147632E+02  0.47064147632E+02  0.00000000000E+00 0. -1.
          1    1    1    2  501    0  0.16257279061E+02  0.23881773035E+02 -0.29128452645E+02  0.41025662204E+02  0.00000000000E+00 0.  1.
         -1    1    1    2    0  502 -0.16257279061E+02 -0.23881773035E+02  0.54199324999E+01  0.29394112915E+02  0.00000000000E+00 0. -1.
<mgrwt>
<rscale>  2 0.28890106E+02</rscale>
<asrwt>0</asrwt>
<pdfrwt beam="1">  1       21 0.35931735E-02 0.28890106E+02</pdfrwt>
<pdfrwt beam="2">  1       21 0.72406380E-02 0.28890106E+02</pdfrwt>
<totfact> 0.50393333E+07</totfact>
</mgrwt>
</event>
<event>
 4    1  0.7841599E+004  0.3200865E+02  0.7546771E-02  0.1576891E+00
         21   -1    0    0  503  502  0.00000000000E+00  0.00000000000E+00  0.26293917967E+02  0.26293917967E+02  0.00000000000E+00 0.  1.
         21   -1    0    0  501  503 -0.00000000000E+00 -0.00000000000E+00 -0.39191042980E+02  0.39191042980E+02  0.00000000000E+00 0.  1.
          4    1    1    2  501    0 -0.63591273843E+01  0.31370609625E+02 -0.39642486935E+01  0.32253200105E+02  0.00000000000E+00 0. -1.
         -4    1    1    2    0  502  0.63591273843E+01 -0.31370609625E+02 -0.89328763200E+01  0.33231760842E+02  0.00000000000E+00 0.  1.
<mgrwt>
<rscale>  2 0.32008650E+02</rscale>
<asrwt>0</asrwt>
<pdfrwt beam="1">  1       21 0.40452181E-02 0.32008650E+02</pdfrwt>
<pdfrwt beam="2">  1       21 0.60293912E-02 0.32008650E+02</pdfrwt>
<totfact> 0.57573681E+07</totfact>
</mgrwt>
</event>
<event>
 4    1  0.7841599E+004  0.2379691E+02  0.7546771E-02  0.1678909E+00
         21   -1    0    0  501  502  0.00000000000E+00  0.00000000000E+00  0.39134377001E+03  0.39134377001E+03  0.00000000000E+00 0.  1.
         21   -1    0    0  502  503 -0.00000000000E+00 -0.00000000000E+00 -0.14916510055E+01  0.14916510055E+01  0.00000000000E+00 0.  1.
          5    1    1    2  501    0  0.12660861414E+02 -0.20149328561E+02  0.16096090039E+03  0.16271049231E+03  0.00000000000E+00 0. -1.
         -5    1    1    2    0  503 -0.12660861414E+02  0.20149328561E+02  0.22889121862E+03  0.23012492871E+03  0.00000000000E+00 0.  1.
<mgrwt>
<rscale>  2 0.23796908E+02</rscale>
<asrwt>0</asrwt>
<pdfrwt beam="1">  1       21 0.60206652E-01 0.23796908E+02</pdfrwt>
<pdfrwt beam="2">  1       21 0.22948508E-03 0.23796908E+02</pdfrwt>
<totfact> 0.70178080E+07</totfact>
</mgrwt>
</event>
<event>
 4    1  0.7841599E+004  0.2053593E+02  0.7546771E-02  0.1734876E+00
         21   -1    0    0  501  502  0.00000000000E+00  0.00000000000E+00  0.15065947075E+04  0.15065947075E+04  0.00000000000E+00 0. -1.
         21   -1    0    0  502  503 -0.00000000000E+00 -0.00000000000E+00 -0.28073111049E+00  0.28073111049E+00  0.00000000000E+00 0. -1.
          4    1    1    2  501    0  0.14723201753E+02  0.14316134340E+02  0.71263138777E+03  0.71292721873E+03  0.00000000000E+00 0. -1.
         -4    1    1    2    0  503 -0.14723201753E+02 -0.14316134340E+02  0.79368258859E+03  0.79394821985E+03  0.00000000000E+00 0.  1.
<mgrwt>
<rscale>  2 0.20535929E+02</rscale>
<asrwt>0</asrwt>
<pdfrwt beam="1">  1       21 0.23177733E+00 0.20535929E+02</pdfrwt>
<pdfrwt beam="2">  1       21 0.43190608E-04 0.20535929E+02</pdfrwt>
<totfact> 0.33924750E+07</totfact>
</mgrwt>
</event>
<event>
 4    1  0.7841599E+004  0.2426724E+02  0.7546771E-02  0.1671755E+00
         21   -1    0    0  501  502  0.00000000000E+00  0.00000000000E+00  0.54321564595E+01  0.54321564595E+01  0.00000000000E+00 0. -1.
         21   -1    0    0  502  503 -0.00000000000E+00 -0.00000000000E+00 -0.11001108651E+03  0.11001108651E+03  0.00000000000E+00 0. -1.
          1    1    1    2  501    0  0.12621340638E+02  0.20726809190E+02 -0.59253456481E+02  0.64030234761E+02  0.00000000000E+00 0. -1.
         -1    1    1    2    0  503 -0.12621340638E+02 -0.20726809190E+02 -0.45325473571E+02  0.51413008209E+02  0.00000000000E+00 0.  1.
<mgrwt>
<rscale>  2 0.24267238E+02</rscale>
<asrwt>0</asrwt>
<pdfrwt beam="1">  1       21 0.83571646E-03 0.24267238E+02</pdfrwt>
<pdfrwt beam="2">  1       21 0.16924781E-01 0.24267238E+02</pdfrwt>
<totfact> 0.10924566E+08</totfact>
</mgrwt>
</event>
<event>
 4    1  0.7841599E+004  0.6211666E+02  0.7546771E-02  0.1389158E+00
         21   -1    0    0  501  502  0.00000000000E+00  0.00000000000E+00  0.50613572402E+03  0.50613572402E+03  0.00000000000E+00 0. -1.
         21   -1    0    0  502  503 -0.00000000000E+00 -0.00000000000E+00 -0.78116663432E+01  0.78116663432E+01  0.00000000000E+00 0. -1.
          4    1    1    2  501    0 -0.47168973478E+02 -0.40417412736E+02  0.28905473743E+03  0.29565371728E+03  0.00000000000E+00 0.  1.
         -4    1    1    2    0  503  0.47168973478E+02  0.40417412736E+02  0.20926932024E+03  0.21829367308E+03  0.00000000000E+00 0. -1.
<mgrwt>
<rscale>  2 0.62116659E+02</rscale>
<asrwt>0</asrwt>
<pdfrwt beam="1">  1       21 0.77867009E-01 0.62116659E+02</pdfrwt>
<pdfrwt beam="2">  1       21 0.12017952E-02 0.62116659E+02</pdfrwt>
<totfact> 0.39181108E+06</totfact>
</mgrwt>
</event>
<event>
 4    1  0.7841599E+004  0.2533971E+02  0.7546771E-02  0.1656170E+00
         21   -1    0    0  503  502  0.00000000000E+00  0.00000000000E+00  0.27997226990E+03  0.27997226990E+03  0.00000000000E+00 0. -1.
         21   -1    0    0  501  503 -0.00000000000E+00 -0.00000000000E+00 -0.33528279898E+01  0.33528279898E+01  0.00000000000E+00 0. -1.
          1    1    1    2  501    0  0.13957271756E+02 -0.21149355552E+02  0.58679824224E+02  0.63917309440E+02  0.00000000000E+00 0.  1.
         -1    1    1    2    0  502 -0.13957271756E+02  0.21149355552E+02  0.21793961768E+03  0.21940778845E+03  0.00000000000E+00 0. -1.
<mgrwt>
<rscale>  2 0.25339706E+02</rscale>
<asrwt>0</asrwt>
<pdfrwt beam="1">  1       21 0.43072639E-01 0.25339706E+02</pdfrwt>
<pdfrwt beam="2">  1       21 0.51581991E-03 0.25339706E+02</pdfrwt>
<totfact> 0.41829635E+07</totfact>
</mgrwt>
</event>
<event>
 4    1  0.7841599E+004  0.2459107E+02  0.7546771E-02  0.1666946E+00
         21   -1    0    0  503  502  0.00000000000E+00  0.00000000000E+00  0.67601568104E+00  0.67601568104E+00  0.00000000000E+00 0. -1.
         21   -1    0    0  501  503 -0.00000000000E+00 -0.00000000000E+00 -0.10083950100E+04  0.10083950100E+04  0.00000000000E+00 0. -1.
          3    1    1    2  501    0 -0.15177390986E+02 -0.19348583416E+02 -0.67339421506E+03  0.67384307502E+03  0.00000000000E+00 0. -1.
         -3    1    1    2    0  502  0.15177390986E+02  0.19348583416E+02 -0.33432477930E+03  0.33522795070E+03  0.00000000000E+00 0.  1.
<mgrwt>
<rscale>  2 0.24591073E+02</rscale>
<asrwt>0</asrwt>
<pdfrwt beam="1">  1       21 0.10400192E-03 0.24591073E+02</pdfrwt>
<pdfrwt beam="2">  1       21 0.15513843E+00 0.24591073E+02</pdfrwt>
<totfact> 0.27896502E+07</totfact>
</mgrwt>
</event>
<event>
 4    1  0.7841599E+004  0.3579596E+02  0.7546771E-02  0.1541644E+00
         21   -1    0    0  501  502  0.00000000000E+00  0.00000000000E+00  0.44671126576E+03  0.44671126576E+03  0.00000000000E+00 0.  1.
         21   -1    0    0  502  503 -0.00000000000E+00 -0.00000000000E+00 -0.28903461609E+01  0.28903461609E+01  0.00000000000E+00 0.  1.
          1    1    1    2  501    0 -0.35666055777E+02 -0.30467844781E+01  0.24149517404E+03  0.24413371237E+03  0.00000000000E+00 0.  1.
         -1    1    1    2    0  503  0.35666055777E+02  0.30467844781E+01  0.20232574556E+03  0.20546789955E+03  0.00000000000E+00 0. -1.
<mgrwt>
<rscale>  2 0.35795956E+02</rscale>
<asrwt>0</asrwt>
<pdfrwt beam="1">  1       21 0.68724755E-01 0.35795956E+02</pdfrwt>
<pdfrwt beam="2">  1       21 0.44466900E-03 0.35795956E+02</pdfrwt>
<totfact> 0.21913020E+07</totfact>
</mgrwt>
</event>
<event>
 4    1  0.7841599E+004  0.2856986E+02  0.7546771E-02  0.1614457E+00
         21   -1    0    0  503  502  0.00000000000E+00  0.00000000000E+00  0.12581015320E+04  0.12581015320E+04  0.00000000000E+00 0.  1.
         21   -1    0    0  501  503 -0.00000000000E+00 -0.00000000000E+00 -0.80304118736E+00  0.80304118736E+00  0.00000000000E+00 0.  1.
          1    1    1    2  501    0  0.28549395801E+02  0.10812490284E+01  0.35277221651E+03  0.35392721546E+03  0.00000000000E+00 0. -1.
         -1    1    1    2    0  502 -0.28549395801E+02 -0.10812490284E+01  0.90452627426E+03  0.90497735769E+03  0.00000000000E+00 0.  1.
<mgrwt>
<rscale>  2 0.28569863E+02</rscale>
<asrwt>0</asrwt>
<pdfrwt beam="1">  1       21 0.19355250E+00 0.28569863E+02</pdfrwt>
<pdfrwt beam="2">  1       21 0.12354581E-03 0.28569863E+02</pdfrwt>
<totfact> 0.12828151E+07</totfact>
</mgrwt>
</event>
<event>
 4    1  0.7841599E+004  0.2009099E+02  0.7546771E-02  0.1743525E+00
         21   -1    0    0  501  502  0.00000000000E+00  0.00000000000E+00  0.28313504132E+02  0.28313504132E+02  0.00000000000E+00 0. -1.
         21   -1    0    0  502  503 -0.00000000000E+00 -0.00000000000E+00 -0.15733093150E+02  0.15733093150E+02  0.00000000000E+00 0. -1.
          5    1    1    2  501    0  0.15749953912E+02 -0.12473449775E+02 -0.45699755094E+00  0.20096189795E+02  0.00000000000E+00 0. -1.
         -5    1    1    2    0  503 -0.15749953912E+02  0.12473449775E+02  0.13037408533E+02  0.23950407487E+02  0.00000000000E+00 0.  1.
<mgrwt>
<rscale>  2 0.20090993E+02</rscale>
<asrwt>0</asrwt>
<pdfrwt beam="1">  1       21 0.43559237E-02 0.20090993E+02</pdfrwt>
<pdfrwt beam="2">  1       21 0.24204759E-02 0.20090993E+02</pdfrwt>
<totfact> 0.19057958E+08</totfact>
</mgrwt>
</event>
<event>
 4    1  0.7841599E+004  0.2289099E+02  0.7546771E-02  0.1693283E+00
         21   -1    0    0  503  502  0.00000000000E+00  0.00000000000E+00  0.42771771627E+01  0.42771771627E+01  0.00000000000E+00 0.  1.
         21   -1    0    0  501  503 -0.00000000000E+00 -0.00000000000E+00 -0.12381144387E+03  0.12381144387E+03  0.00000000000E+00 0.  1.
          3    1    1    2  501    0  0.71415263832E+01 -0.21748473554E+02 -0.66333004094E+02  0.70171681846E+02  0.00000000000E+00 0. -1.
         -3    1    1    2    0  502 -0.71415263832E+01  0.21748473554E+02 -0.53201262611E+02  0.57916939184E+02  0.00000000000E+00 0.  1.
<mgrwt>
<rscale>  2 0.22890992E+02</rscale>
<asrwt>0</asrwt>
<pdfrwt beam="1">  1       21 0.65802738E-03 0.22890992E+02</pdfrwt>
<pdfrwt beam="2">  1       21 0.19047911E-01 0.22890992E+02</pdfrwt>
<totfact> 0.12510555E+08</totfact>
</mgrwt>
</event>
<event>
 4    1  0.7841599E+004  0.3127993E+02  0.7546771E-02  0.1584357E+00
         21   -1    0    0  503  502  0.00000000000E+00  0.00000000000E+00  0.22021468501E+02  0.22021468501E+02  0.00000000000E+00 0. -1.
         21   -1    0    0  501  503 -0.00000000000E+00 -0.00000000000E+00 -0.71509005931E+02  0.71509005931E+02  0.00000000000E+00 0. -1.
          2    1    1    2  501    0  0.22674947724E+02  0.21547175517E+02 -0.53521183777E+02  0.61991540875E+02  0.00000000000E+00 0. -1.
         -2    1    1    2    0  502 -0.22674947724E+02 -0.21547175517E+02  0.40336463479E+01  0.31538933557E+02  0.00000000000E+00 0.  1.
<mgrwt>
<rscale>  2 0.31279930E+02</rscale>
<asrwt>0</asrwt>
<pdfrwt beam="1">  1       21 0.33879183E-02 0.31279930E+02</pdfrwt>
<pdfrwt beam="2">  1       21 0.11001385E-01 0.31279930E+02</pdfrwt>
<totfact> 0.28080172E+07</totfact>
</mgrwt>
</event>
<event>
 4    1  0.7841599E+004  0.2253152E+02  0.7546771E-02  0.1699219E+00
         21   -1    0    0  501  502  0.00000000000E+00  0.00000000000E+00  0.12614019337E+02  0.12614019337E+02  0.00000000000E+00 0. -1.
         21   -1    0    0  502  503 -0.00000000000E+00 -0.00000000000E+00 -0.57718825351E+02  0.57718825351E+02  0.00000000000E+00 0. -1.
          5    1    1    2  501    0  0.20331720273E+02  0.97103302183E+01 -0.41900825199E+02  0.47574662527E+02  0.00000000000E+00 0.  1.
         -5    1    1    2    0  503 -0.20331720273E+02 -0.97103302183E+01 -0.32039808151E+01  0.22758182161E+02  0.00000000000E+00 0. -1.
<mgrwt>
<rscale>  2 0.22531519E+02</rscale>
<asrwt>0</asrwt>
<pdfrwt beam="1">  1       21 0.19406184E-02 0.22531519E+02</pdfrwt>
<pdfrwt beam="2">  1       21 0.88798191E-02 0.22531519E+02</pdfrwt>
<totfact> 0.88297153E+07</totfact>
</mgrwt>
</event>
<event>
 4    1  0.7841599E+004  0.2289233E+02  0.7546771E-02  0.1693261E+00
         21   -1    0    0  503  502  0.00000000000E+00  0.00000000000E+00  0.55377094238E+02  0.55377094238E+02  0.00000000000E+00 0. -1.
         21   -1    0    0  501  503 -0.00000000000E+00 -0.00000000000E+00 -0.18795280275E+02  0.18795280275E+02  0.00000000000E+00 0. -1.
          3    1    1    2  501    0  0.22733493781E+02 -0.26920304113E+01  0.44422809490E+02  0.49974441169E+02  0.00000000000E+00 0.  1.
         -3    1    1    2    0  502 -0.22733493781E+02  0.26920304113E+01 -0.78409955269E+01  0.24197933343E+02  0.00000000000E+00 0. -1.
<mgrwt>
<rscale>  2 0.22892330E+02</rscale>
<asrwt>0</asrwt>
<pdfrwt beam="1">  1       21 0.85195529E-02 0.22892330E+02</pdfrwt>
<pdfrwt beam="2">  1       21 0.28915816E-02 0.22892330E+02</pdfrwt>
<totfact> 0.51295639E+07</totfact>
</mgrwt>
</event>
<event>
 4    1  0.7841599E+004  0.2058428E+02  0.7546771E-02  0.1733952E+00
         21   -1    0    0  503  502  0.00000000000E+00  0.00000000000E+00  0.64535517398E+02  0.64535517398E+02  0.00000000000E+00 0.  1.
         21   -1    0    0  501  503 -0.00000000000E+00 -0.00000000000E+00 -0.79811992123E+01  0.79811992123E+01  0.00000000000E+00 0.  1.
          4    1    1    2  501    0 -0.29952669788E+01  0.20365189309E+02  0.43547494428E+02  0.48167383475E+02  0.00000000000E+00 0.  1.
         -4    1    1    2    0  502  0.29952669788E+01 -0.20365189309E+02  0.13006823758E+02  0.24349333135E+02  0.00000000000E+00 0. -1.
<mgrwt>
<rscale>  2 0.20584279E+02</rscale>
<asrwt>0</asrwt>
<pdfrwt beam="1">  1       21 0.99285408E-02 0.20584279E+02</pdfrwt>
<pdfrwt beam="2">  1       21 0.12278768E-02 0.20584279E+02</pdfrwt>
<totfact> 0.14337668E+08</totfact>
</mgrwt>
</event>
<event>
 4    1  0.7841599E+004  0.2097899E+02  0.7546771E-02  0.1726532E+00
         21   -1    0    0  503  502  0.00000000000E+00  0.00000000000E+00  0.37635266351E+02  0.37635266351E+02  0.00000000000E+00 0. -1.
         21   -1    0    0  501  503 -0.00000000000E+00 -0.00000000000E+00 -0.12396704473E+02  0.12396704473E+02  0.00000000000E+00 0. -1.
          4    1    1    2  501    0  0.88872177011E+01  0.19003561595E+02  0.66645934290E+01  0.22012151129E+02  0.00000000000E+00 0.  1.
         -4    1    1    2    0  502 -0.88872177011E+01 -0.19003561595E+02  0.18573968449E+02  0.28019819695E+02  0.00000000000E+00 0. -1.
<mgrwt>
<rscale>  2 0.20978989E+02</rscale>
<asrwt>0</asrwt>
<pdfrwt beam="1">  1       21 0.57900409E-02 0.20978989E+02</pdfrwt>
<pdfrwt beam="2">  1       21 0.19071853E-02 0.20978989E+02</pdfrwt>
<totfact> 0.17731507E+08</totfact>
</mgrwt>
</event>
<event>
 4    1  0.7841599E+004  0.2963408E+02  0.7546771E-02  0.1602169E+00
         21   -1    0    0  503  502  0.00000000000E+00  0.00000000000E+00  0.44947771928E+02  0.44947771928E+02  0.00000000000E+00 0.  1.
         21   -1    0    0  501  503 -0.00000000000E+00 -0.00000000000E+00 -0.34537844705E+02  0.34537844705E+02  0.00000000000E+00 0.  1.
          5    1    1    2  501    0  0.58285411159E+01 -0.29055235265E+02  0.31396311772E+02  0.43172989018E+02  0.00000000000E+00 0. -1.
         -5    1    1    2    0  502 -0.58285411159E+01  0.29055235265E+02 -0.20986384550E+02  0.36312627615E+02  0.00000000000E+00 0.  1.
<mgrwt>
<rscale>  2 0.29634078E+02</rscale>
<asrwt>0</asrwt>
<pdfrwt beam="1">  1       21 0.69150418E-02 0.29634078E+02</pdfrwt>
<pdfrwt beam="2">  1       21 0.53135146E-02 0.29634078E+02</pdfrwt>
<totfact> 0.29254857E+07</totfact>
</mgrwt>
</event>
<event>
 4    1  0.7841599E+004  0.2302401E+02  0.7546771E-02  0.1691121E+00
         21   -1    0    0  501  502  0.00000000000E+00  0.00000000000E+00  0.17824951094E+03  0.17824951094E+03  0.00000000000E+00 0. -1.
         21   -1    0    0  502  503 -0.00000000000E+00 -0.00000000000E+00 -0.30519319690E+01  0.30519319690E+01  0.00000000000E+00 0. -1.
          2    1    1    2  501    0  0.22727386563E+02  0.36838821558E+01  0.10208923197E+03  0.10465331515E+03  0.00000000000E+00 0.  1.
         -2    1    1    2    0  503 -0.22727386563E+02 -0.36838821558E+01  0.73108347003E+02  0.76648127760E+02  0.00000000000E+00 0. -1.
<mgrwt>
<rscale>  2 0.23024011E+02</rscale>
<asrwt>0</asrwt>
<pdfrwt beam="1">  1       21 0.27422993E-01 0.23024011E+02</pdfrwt>
<pdfrwt beam="2">  1       21 0.46952814E-03 0.23024011E+02</pdfrwt>
<totfact> 0.10839290E+08</totfact>
</mgrwt>
</event>
<event>
 4    1  0.7841599E+004  0.2747504E+02  0.7546771E-02  0.1627802E+00
         21   -1    0    0  503  502  0.00000000000E+00  0.00000000000E+00  0.76119781673E+00  0.76119781673E+00  0.00000000000E+00 0. -1.
         21   -1    0    0  501  503 -0.00000000000E+00 -0.00000000000E+00 -0.10597611132E+04  0.10597611132E+04  0.00000000000E+00 0. -1.
          2    1    1    2  501    0 -0.23331414993E+01 -0.27375796106E+02 -0.39511699705E+03  0.39607110361E+03  0.00000000000E+00 0.  1.
         -2    1    1    2    0  502  0.23331414993E+01  0.27375796106E+02 -0.66388291836E+03  0.66445120743E+03  0.00000000000E+00 0. -1.
<mgrwt>
<rscale>  2 0.27475039E+02</rscale>
<asrwt>0</asrwt>
<pdfrwt beam="1">  1       21 0.11710641E-03 0.27475039E+02</pdfrwt>
<pdfrwt beam="2">  1       21 0.16304148E+00 0.27475039E+02</pdfrwt>
<totfact> 0.21229502E+07</totfact>
</mgrwt>
</event>
<event>
 4    1  0.7841599E+004  0.2867256E+02  0.7546771E-02  0.1613243E+00
         21   -1    0    0  501  502  0.00000000000E+00  0.00000000000E+00  0.19064885682E+02  0.19064885682E+02  0.00000000000E+00 0.  1.
         21   -1    0    0  502  503 -0.00000000000E+00 -0.00000000000E+00 -0.46470757623E+02  0.46470757623E+02  0.00000000000E+00 0.  1.
          4    1    1    2  501    0  0.26992775995E+02 -0.96698468699E+01 -0.49066383994E+01  0.29089362227E+02  0.00000000000E+00 0.  1.
         -4    1    1    2    0  503 -0.26992775995E+02  0.96698468699E+01 -0.22499233542E+02  0.36446281077E+02  0.00000000000E+00 0. -1.
<mgrwt>
<rscale>  2 0.28672563E+02</rscale>
<asrwt>0</asrwt>
<pdfrwt beam="1">  1       21 0.29330594E-02 0.28672563E+02</pdfrwt>
<pdfrwt beam="2">  1       21 0.71493472E-02 0.28672563E+02</pdfrwt>
<totfact> 0.70709840E+07</totfact>
</mgrwt>
</event>
<event>
 4    1  0.7841599E+004  0.2372091E+02  0.7546771E-02  0.1680084E+00
         21   -1    0    0  501  502  0.00000000000E+00  0.00000000000E+00  0.10261626630E+02  0.10261626630E+02  0.00000000000E+00 0. -1.
         21   -1    0    0  502  503 -0.00000000000E+00 -0.00000000000E+00 -0.55510061931E+02  0.55510061931E+02  0.00000000000E+00 0. -1.
          5    1    1    2  501    0  0.17776851953E+02  0.15705574502E+02 -0.26254639998E+02  0.35383437612E+02  0.00000000000E+00 0.  1.
         -5    1    1    2    0  503 -0.17776851953E+02 -0.15705574502E+02 -0.18993795302E+02  0.30388250949E+02  0.00000000000E+00 0. -1.
<mgrwt>
<rscale>  2 0.23720909E+02</rscale>
<asrwt>0</asrwt>
<pdfrwt beam="1">  1       21 0.15787118E-02 0.23720909E+02</pdfrwt>
<pdfrwt beam="2">  1       21 0.85400094E-02 0.23720909E+02</pdfrwt>
<totfact> 0.13095871E+08</totfact>
</mgrwt>
</event>
<event>
 4    1  0.7841599E+004  0.3370631E+02  0.7546771E-02  0.1560398E+00
         21   -1    0    0  501  502  0.00000000000E+00  0.00000000000E+00  0.43333317483E+00  0.43333317483E+00  0.00000000000E+00 0. -1.
         21   -1    0    0  502  503 -0.00000000000E+00 -0.00000000000E+00 -0.26739982939E+04  0.26739982939E+04  0.00000000000E+00 0. -1.
          4    1    1    2  501    0 -0.10789953322E+01 -0.33689030875E+02 -0.15236048152E+04  0.15239776074E+04  0.00000000000E+00 0.  1.
         -4    1    1    2    0  503  0.10789953322E+01  0.33689030875E+02 -0.11499601456E+04  0.11504540197E+04  0.00000000000E+00 0. -1.
<mgrwt>
<rscale>  2 0.33706306E+02</rscale>
<asrwt>0</asrwt>
<pdfrwt beam="1">  1       21 0.66666868E-04 0.33706306E+02</pdfrwt>
<pdfrwt beam="2">  1       21 0.41138296E+00 0.33706306E+02</pdfrwt>
<totfact> 0.22349642E+06</totfact>
</mgrwt>
</event>
<event>
 4    1  0.7841599E+004  0.2380507E+02  0.7546771E-02  0.1678783E+00
         21   -1    0    0  501  502  0.00000000000E+00  0.00000000000E+00  0.64958530219E+01  0.64958530219E+01  0.00000000000E+00 0.  1.
         21   -1    0    0  502  503 -0.00000000000E+00 -0.00000000000E+00 -0.88525460767E+02  0.88525460767E+02  0.00000000000E+00 0.  1.
          2    1    1    2  501    0  0.13083804894E+02 -0.19887066980E+02 -0.35283892631E+02  0.42563299482E+02  0.00000000000E+00 0. -1.
         -2    1    1    2    0  503 -0.13083804894E+02  0.19887066980E+02 -0.46745715114E+02  0.52458014307E+02  0.00000000000E+00 0.  1.
<mgrwt>
<rscale>  2 0.23805071E+02</rscale>
<asrwt>0</asrwt>
<pdfrwt beam="1">  1       21 0.99936209E-03 0.23805071E+02</pdfrwt>
<pdfrwt beam="2">  1       21 0.13619300E-01 0.23805071E+02</pdfrwt>
<totfact> 0.12040892E+08</totfact>
</mgrwt>
</event>
<event>
 4    1  0.7841599E+004  0.2398638E+02  0.7546771E-02  0.1676003E+00
         21   -1    0    0  503  502  0.00000000000E+00  0.00000000000E+00  0.97412726651E+00  0.97412726651E+00  0.00000000000E+00 0.  1.
         21   -1    0    0  501  503 -0.00000000000E+00 -0.00000000000E+00 -0.63621054407E+03  0.63621054407E+03  0.00000000000E+00 0.  1.
          1    1    1    2  501    0  0.15320293628E+02  0.18456306685E+02 -0.40289583047E+03  0.40360921305E+03  0.00000000000E+00 0.  1.
         -1    1    1    2    0  502 -0.15320293628E+02 -0.18456306685E+02 -0.23234058634E+03  0.23357545829E+03  0.00000000000E+00 0. -1.
<mgrwt>
<rscale>  2 0.23986385E+02</rscale>
<asrwt>0</asrwt>
<pdfrwt beam="1">  1       21 0.14986566E-03 0.23986385E+02</pdfrwt>
<pdfrwt beam="2">  1       21 0.97878592E-01 0.23986385E+02</pdfrwt>
<totfact> 0.47144276E+07</totfact>
</mgrwt>
</event>
<event>
 4    1  0.7841599E+004  0.2062854E+02  0.7546771E-02  0.1733110E+00
         21   -1    0    0  501  502  0.00000000000E+00  0.00000000000E+00  0.22121728241E+03  0.22121728241E+03  0.00000000000E+00 0.  1.
         21   -1    0    0  502  503 -0.00000000000E+00 -0.00000000000E+00 -0.19301201478E+01  0.19301201478E+01  0.00000000000E+00 0.  1.
          1    1    1    2  501    0 -0.86096574511E+01  0.18745950158E+02  0.11612102078E+03  0.11793908731E+03  0.00000000000E+00 0.  1.
         -1    1    1    2    0  503  0.86096574511E+01 -0.18745950158E+02  0.10316614148E+03  0.10520831525E+03  0.00000000000E+00 0. -1.
<mgrwt>
<rscale>  2 0.20628545E+02</rscale>
<asrwt>0</asrwt>
<pdfrwt beam="1">  1       21 0.34033408E-01 0.20628545E+02</pdfrwt>
<pdfrwt beam="2">  1       21 0.29694174E-03 0.20628545E+02</pdfrwt>
<totfact> 0.13865720E+08</totfact>
</mgrwt>
</event>
<event>
 4    1  0.7841599E+004  0.2202171E+02  0.7546771E-02  0.1707877E+00
         21   -1    0    0  501  502  0.00000000000E+00  0.00000000000E+00  0.17249851103E+02  0.17249851103E+02  0.00000000000E+00 0.  1.
         21   -1    0    0  502  503 -0.00000000000E+00 -0.00000000000E+00 -0.28448325147E+02  0.28448325147E+02  0.00000000000E+00 0.  1.
          5    1    1    2  501    0 -0.19399241772E+02 -0.10422335284E+02 -0.80776613279E+01  0.23456433375E+02  0.00000000000E+00 0. -1.
         -5    1    1    2    0  503  0.19399241772E+02  0.10422335284E+02 -0.31208127164E+01  0.22241742875E+02  0.00000000000E+00 0.  1.
<mgrwt>
<rscale>  2 0.22021709E+02</rscale>
<asrwt>0</asrwt>
<pdfrwt beam="1">  1       21 0.26538233E-02 0.22021709E+02</pdfrwt>
<pdfrwt beam="2">  1       21 0.43766654E-02 0.22021709E+02</pdfrwt>
<totfact> 0.16900048E+08</totfact>
</mgrwt>
</event>
<event>
 4    1  0.7841599E+004  0.2018209E+02  0.7546771E-02  0.1741731E+00
         21   -1    0    0  501  502  0.00000000000E+00  0.00000000000E+00  0.54066721118E+02  0.54066721118E+02  0.00000000000E+00 0.  1.
         21   -1    0    0  502  503 -0.00000000000E+00 -0.00000000000E+00 -0.10223650610E+02  0.10223650610E+02  0.00000000000E+00 0.  1.
          4    1    1    2  501    0 -0.16899328210E+02 -0.11033111158E+02  0.38410503708E+02  0.43389902407E+02  0.00000000000E+00 0. -1.
         -4    1    1    2    0  503  0.16899328210E+02  0.11033111158E+02  0.54325667995E+01  0.20900469320E+02  0.00000000000E+00 0.  1.
<mgrwt>
<rscale>  2 0.20182092E+02</rscale>
<asrwt>0</asrwt>
<pdfrwt beam="1">  1       21 0.83179569E-02 0.20182092E+02</pdfrwt>
<pdfrwt beam="2">  1       21 0.15728694E-02 0.20182092E+02</pdfrwt>
<totfact> 0.13099130E+08</totfact>
</mgrwt>
</event>
<event>
 4    1  0.7841599E+004  0.3127314E+02  0.7546771E-02  0.1584428E+00
         21   -1    0    0  501  502  0.00000000000E+00  0.00000000000E+00  0.62720401786E+01  0.62720401786E+01  0.00000000000E+00 0. -1.
         21   -1    0    0  502  503 -0.00000000000E+00 -0.00000000000E+00 -0.16594184268E+03  0.16594184268E+03  0.00000000000E+00 0. -1.
          1    1    1    2  501    0 -0.31110345662E+02 -0.31867997878E+01 -0.10098353785E+03  0.10571510874E+03  0.00000000000E+00 0.  1.
         -1    1    1    2    0  503  0.31110345662E+02  0.31867997878E+01 -0.58686264658E+02  0.66498774121E+02  0.00000000000E+00 0. -1.
<mgrwt>
<rscale>  2 0.31273140E+02</rscale>
<asrwt>0</asrwt>
<pdfrwt beam="1">  1       21 0.96492932E-03 0.31273140E+02</pdfrwt>
<pdfrwt beam="2">  1       21 0.25529513E-01 0.31273140E+02</pdfrwt>
<totfact> 0.45212243E+07</totfact>
</mgrwt>
</event>
<event>
 4    1  0.7841599E+004  0.2791941E+02  0.7546771E-02  0.1622295E+00
         21   -1    0    0  503  502  0.00000000000E+00  0.00000000000E+00  0.50306818950E+02  0.50306818950E+02  0.00000000000E+00 0. -1.
         21   -1    0    0  501  503 -0.00000000000E+00 -0.00000000000E+00 -0.19971853775E+02  0.19971853775E+02  0.00000000000E+00 0. -1.
          4    1    1    2  501    0 -0.99879060610E+01 -0.26071728423E+02  0.31804723317E+02  0.42320606278E+02  0.00000000000E+00 0.  1.
         -4    1    1    2    0  502  0.99879060610E+01  0.26071728423E+02 -0.14697581418E+01  0.27958066447E+02  0.00000000000E+00 0. -1.
<mgrwt>
<rscale>  2 0.27919407E+02</rscale>
<asrwt>0</asrwt>
<pdfrwt beam="1">  1       21 0.77395105E-02 0.27919407E+02</pdfrwt>
<pdfrwt beam="2">  1       21 0.30725929E-02 0.27919407E+02</pdfrwt>
<totfact> 0.57353157E+07</totfact>
</mgrwt>
</event>
<event>
 4    1  0.7841599E+004  0.3900965E+02  0.7546771E-02  0.1515628E+00
         21   -1    0    0  501  502  0.00000000000E+00  0.00000000000E+00  0.38622750836E+02  0.38622750836E+02  0.00000000000E+00 0. -1.
         21   -1    0    0  502  503 -0.00000000000E+00 -0.00000000000E+00 -0.39717524887E+02  0.39717524887E+02  0.00000000000E+00 0. -1.
          2    1    1    2  501    0  0.16310974796E+02 -0.35435926569E+02  0.29525657113E+01  0.39121227421E+02  0.00000000000E+00 0. -1.
         -2    1    1    2    0  503 -0.16310974796E+02  0.35435926569E+02 -0.40473397628E+01  0.39219048303E+02  0.00000000000E+00 0.  1.
<mgrwt>
<rscale>  2 0.39009650E+02</rscale>
<asrwt>0</asrwt>
<pdfrwt beam="1">  1       21 0.59419617E-02 0.39009650E+02</pdfrwt>
<pdfrwt beam="2">  1       21 0.61103884E-02 0.39009650E+02</pdfrwt>
<totfact> 0.31475611E+07</totfact>
</mgrwt>
</event>
<event>
 4    1  0.7841599E+004  0.2529181E+02  0.7546771E-02  0.1656846E+00
         21   -1    0    0  503  502  0.00000000000E+00  0.00000000000E+00  0.32881674637E+02  0.32881674637E+02  0.00000000000E+00 0.  1.
         21   -1    0    0  501  503 -0.00000000000E+00 -0.00000000000E+00 -0.20386916111E+02  0.20386916111E+02  0.00000000000E+00 0.  1.
          2    1    1    2  501    0 -0.22441348147E+02  0.11664545971E+02  0.11945315630E+02  0.27970811659E+02  0.00000000000E+00 0. -1.
         -2    1    1    2    0  502  0.22441348147E+02 -0.11664545971E+02  0.54944289547E+00  0.25297779089E+02  0.00000000000E+00 0.  1.
<mgrwt>
<rscale>  2 0.25291812E+02</rscale>
<asrwt>0</asrwt>
<pdfrwt beam="1">  1       21 0.50587192E-02 0.25291812E+02</pdfrwt>
<pdfrwt beam="2">  1       21 0.31364486E-02 0.25291812E+02</pdfrwt>
<totfact> 0.10781896E+08</totfact>
</mgrwt>
</event>
<event>
 4    1  0.7841599E+004  0.2233013E+02  0.7546771E-02  0.1702604E+00
         21   -1    0    0  503  502  0.00000000000E+00  0.00000000000E+00  0.16120177748E+03  0.16120177748E+03  0.00000000000E+00 0. -1.
         21   -1    0    0  501  503 -0.00000000000E+00 -0.00000000000E+00 -0.36254290423E+01  0.36254290423E+01  0.00000000000E+00 0. -1.
          5    1    1    2  501    0 -0.14933913363E+02  0.16601599505E+02  0.11036398201E+03  0.11260037034E+03  0.00000000000E+00 0. -1.
         -5    1    1    2    0  502  0.14933913363E+02 -0.16601599505E+02  0.47212366429E+02  0.52226836189E+02  0.00000000000E+00 0.  1.
<mgrwt>
<rscale>  2 0.22330134E+02</rscale>
<asrwt>0</asrwt>
<pdfrwt beam="1">  1       21 0.24800268E-01 0.22330134E+02</pdfrwt>
<pdfrwt beam="2">  1       21 0.55775844E-03 0.22330134E+02</pdfrwt>
<totfact> 0.99810722E+07</totfact>
</mgrwt>
</event>
<event>
 4    1  0.7841599E+004  0.2014982E+02  0.7546771E-02  0.1742365E+00
         21   -1    0    0  503  502  0.00000000000E+00  0.00000000000E+00  0.19539644319E+02  0.19539644319E+02  0.00000000000E+00 0. -1.
         21   -1    0    0  501  503 -0.00000000000E+00 -0.00000000000E+00 -0.21854552194E+02  0.21854552194E+02  0.00000000000E+00 0. -1.
          3    1    1    2  501    0  0.28528058174E+01 -0.19946847990E+02 -0.57488436976E+01  0.20953864789E+02  0.00000000000E+00 0.  1.
         -3    1    1    2    0  502 -0.28528058174E+01  0.19946847990E+02  0.34339358222E+01  0.20440331724E+02  0.00000000000E+00 0. -1.
<mgrwt>
<rscale>  2 0.20149820E+02</rscale>
<asrwt>0</asrwt>
<pdfrwt beam="1">  1       21 0.30060991E-02 0.20149820E+02</pdfrwt>
<pdfrwt beam="2">  1       21 0.33622388E-02 0.20149820E+02</pdfrwt>
<totfact> 0.20476649E+08</totfact>
</mgrwt>
</event>
<event>
 4    1  0.7841599E+004  0.2540519E+02  0.7546771E-02  0.1655249E+00
         21   -1    0    0  503  502  0.00000000000E+00  0.00000000000E+00  0.85503571298E+02  0.85503571298E+02  0.00000000000E+00 0. -1.
         21   -1    0    0  501  503 -0.00000000000E+00 -0.00000000000E+00 -0.11514373514E+02  0.11514373514E+02  0.00000000000E+00 0. -1.
          2    1    1    2  501    0  0.24933914545E+02 -0.48706807460E+01  0.65463545660E+02  0.70220363399E+02  0.00000000000E+00 0. -1.
         -2    1    1    2    0  502 -0.24933914545E+02  0.48706807460E+01  0.85256521238E+01  0.26797581413E+02  0.00000000000E+00 0.  1.
<mgrwt>
<rscale>  2 0.25405189E+02</rscale>
<asrwt>0</asrwt>
<pdfrwt beam="1">  1       21 0.13154395E-01 0.25405189E+02</pdfrwt>
<pdfrwt beam="2">  1       21 0.17714421E-02 0.25405189E+02</pdfrwt>
<totfact> 0.54462991E+07</totfact>
</mgrwt>
</event>
<event>
 4    1  0.7841599E+004  0.2681823E+02  0.7546771E-02  0.1636180E+00
         21   -1    0    0  501  502  0.00000000000E+00  0.00000000000E+00  0.77395386915E+00  0.77395386915E+00  0.00000000000E+00 0. -1.
         21   -1    0    0  502  503 -0.00000000000E+00 -0.00000000000E+00 -0.11175443282E+04  0.11175443282E+04  0.00000000000E+00 0. -1.
          4    1    1    2  501    0 -0.24322988133E+02 -0.11296448511E+02 -0.78788935278E+03  0.78834564102E+03  0.00000000000E+00 0. -1.
         -4    1    1    2    0  503  0.24322988133E+02  0.11296448511E+02 -0.32888102157E+03  0.32997264106E+03  0.00000000000E+00 0.  1.
<mgrwt>
<rscale>  2 0.26818231E+02</rscale>
<asrwt>0</asrwt>
<pdfrwt beam="1">  1       21 0.11906981E-03 0.26818231E+02</pdfrwt>
<pdfrwt beam="2">  1       21 0.17192991E+00 0.26818231E+02</pdfrwt>
<totfact> 0.18125690E+07</totfact>
</mgrwt>
</event>
<event>
 4    1  0.7841599E+004  0.2013451E+02  0.7546771E-02  0.1742666E+00
         21   -1    0    0  501  502  0.00000000000E+00  0.00000000000E+00  0.69386116122E+00  0.69386116122E+00  0.00000000000E+00 0.  1.
         21   -1    0    0  502  503 -0.00000000000E+00 -0.00000000000E+00 -0.73266502560E+03  0.73266502560E+03  0.00000000000E+00 0.  1.
          4    1    1    2  501    0  0.19214548759E+02 -0.60165947775E+01 -0.53101138882E+03  0.53139297450E+03  0.00000000000E+00 0. -1.
         -4    1    1    2    0  503 -0.19214548759E+02  0.60165947775E+01 -0.20095977562E+03  0.20196591225E+03  0.00000000000E+00 0.  1.
<mgrwt>
<rscale>  2 0.20134505E+02</rscale>
<asrwt>0</asrwt>
<pdfrwt beam="1">  1       21 0.10674807E-03 0.20134505E+02</pdfrwt>
<pdfrwt beam="2">  1       21 0.11271749E+00 0.20134505E+02</pdfrwt>
<totfact> 0.53920876E+07</totfact>
</mgrwt>
</event>
<event>
 4    1  0.7841599E+004  0.2312780E+02  0.7546771E-02  0.1689447E+00
         21   -1    0    0  501  502  0.00000000000E+00  0.00000000000E+00  0.17701426186E+02  0.17701426186E+02  0.00000000000E+00 0. -1.
         21   -1    0    0  502  503 -0.00000000000E+00 -0.00000000000E+00 -0.31107661222E+02  0.31107661222E+02  0.00000000000E+00 0. -1.
          3    1    1    2  501    0 -0.21956134699E+02 -0.72679561305E+01 -0.25751036709E+01  0.23270715419E+02  0.00000000000E+00 0.  1.
         -3    1    1    2    0  503  0.21956134699E+02  0.72679561305E+01 -0.10831131365E+02  0.25538371989E+02  0.00000000000E+00 0. -1.
<mgrwt>
<rscale>  2 0.23127798E+02</rscale>
<asrwt>0</asrwt>
<pdfrwt beam="1">  1       21 0.27232964E-02 0.23127798E+02</pdfrwt>
<pdfrwt beam="2">  1       21 0.47857940E-02 0.23127798E+02</pdfrwt>
<totfact> 0.14306892E+08</totfact>
</mgrwt>
</event>
<event>
 4    1  0.7841599E+004  0.2420161E+02  0.7546771E-02  0.1672741E+00
         21   -1    0    0  503  502  0.00000000000E+00  0.00000000000E+00  0.18460973111E+01  0.18460973111E+01  0.00000000000E+00 0. -1.
         21   -1    0    0  501  503 -0.00000000000E+00 -0.00000000000E+00 -0.31801656276E+03  0.31801656276E+03  0.00000000000E+00 0. -1.
          4    1    1    2  501    0 -0.18653185726E+02  0.15420006990E+02 -0.15035504445E+03  0.15229037181E+03  0.00000000000E+00 0. -1.
         -4    1    1    2    0  502  0.18653185726E+02 -0.15420006990E+02 -0.16581542099E+03  0.16757228826E+03  0.00000000000E+00 0.  1.
<mgrwt>
<rscale>  2 0.24201611E+02</rscale>
<asrwt>0</asrwt>
<pdfrwt beam="1">  1       21 0.28401535E-03 0.24201611E+02</pdfrwt>
<pdfrwt beam="2">  1       21 0.48925561E-01 0.24201611E+02</pdfrwt>
<totfact> 0.77812363E+07</totfact>
</mgrwt>
</event>
<event>
 4    1  0.7841599E+004  0.2788812E+02  0.7546771E-02  0.1622679E+00
         21   -1    0    0  503  502  0.00000000000E+00  0.00000000000E+00  0.15830282861E+02  0.15830282861E+02  0.00000000000E+00 0.  1.
         21   -1    0    0  501  503 -0.00000000000E+00 -0.00000000000E+00 -0.49139302436E+02  0.49139302436E+02  0.00000000000E+00 0.  1.
          2    1    1    2  501    0  0.22073819120E+02 -0.17043882139E+02 -0.17092865672E+02  0.32709531727E+02  0.00000000000E+00 0. -1.
         -2    1    1    2    0  502 -0.22073819120E+02  0.17043882139E+02 -0.16216153903E+02  0.32260053569E+02  0.00000000000E+00 0.  1.
<mgrwt>
<rscale>  2 0.27888123E+02</rscale>
<asrwt>0</asrwt>
<pdfrwt beam="1">  1       21 0.24354282E-02 0.27888123E+02</pdfrwt>
<pdfrwt beam="2">  1       21 0.75598926E-02 0.27888123E+02</pdfrwt>
<totfact> 0.85684060E+07</totfact>
</mgrwt>
</event>
<event>
 4    1  0.7841599E+004  0.2555208E+02  0.7546771E-02  0.1653197E+00
         21   -1    0    0  503  502  0.00000000000E+00  0.00000000000E+00  0.15581818501E+01  0.15581818501E+01  0.00000000000E+00 0.  1.
         21   -1    0    0  501  503 -0.00000000000E+00 -0.00000000000E+00 -0.42153164218E+03  0.42153164218E+03  0.00000000000E+00 0.  1.
          2    1    1    2  501    0  0.19555405248E+02  0.16446724499E+02 -0.19365593603E+03  0.19533440604E+03  0.00000000000E+00 0.  1.
         -2    1    1    2    0  502 -0.19555405248E+02 -0.16446724499E+02 -0.22631752430E+03  0.22775541799E+03  0.00000000000E+00 0. -1.
<mgrwt>
<rscale>  2 0.25552077E+02</rscale>
<asrwt>0</asrwt>
<pdfrwt beam="1">  1       21 0.23972007E-03 0.25552077E+02</pdfrwt>
<pdfrwt beam="2">  1       21 0.64851079E-01 0.25552077E+02</pdfrwt>
<totfact> 0.57621674E+07</totfact>
</mgrwt>
</event>
<event>
 4    1  0.7841599E+004  0.2489192E+02  0.7546771E-02  0.1662559E+00
         21   -1    0    0  503  502  0.00000000000E+00  0.00000000000E+00  0.27459549881E+02  0.27459549881E+02  0.00000000000E+00 0.  1.
         21   -1    0    0  501  503 -0.00000000000E+00 -0.00000000000E+00 -0.22833109552E+02  0.22833109552E+02  0.00000000000E+00 0.  1.
          4    1    1    2  501    0 -0.51893349185E+01  0.24344992343E+02  0.50412300259E+01  0.25397280352E+02  0.00000000000E+00 0.  1.
         -4    1    1    2    0  502  0.51893349185E+01 -0.24344992343E+02 -0.41478969704E+00  0.24895379081E+02  0.00000000000E+00 0. -1.
<mgrwt>
<rscale>  2 0.24891923E+02</rscale>
<asrwt>0</asrwt>
<pdfrwt beam="1">  1       21 0.42245461E-02 0.24891923E+02</pdfrwt>
<pdfrwt beam="2">  1       21 0.35127861E-02 0.24891923E+02</pdfrwt>
<totfact> 0.11972305E+08</totfact>
</mgrwt>
</event>
<event>
 4    1  0.7841599E+004  0.2727345E+02  0.7546771E-02  0.1630343E+00
         21   -1    0    0  503  502  0.00000000000E+00  0.00000000000E+00  0.50703330337E+01  0.50703330337E+01  0.00000000000E+00 0.  1.
         21   -1    0    0  501  503 -0.00000000000E+00 -0.00000000000E+00 -0.18174154638E+03  0.18174154638E+03  0.00000000000E+00 0.  1.
          2    1    1    2  501    0 -0.33586076990E+01 -0.27065860556E+02 -0.47323633647E+02  0.54620210132E+02  0.00000000000E+00 0. -1.
         -2    1    1    2    0  502  0.33586076990E+01  0.27065860556E+02 -0.12934757970E+03  0.13219166928E+03  0.00000000000E+00 0.  1.
<mgrwt>
<rscale>  2 0.27273450E+02</rscale>
<asrwt>0</asrwt>
<pdfrwt beam="1">  1       21 0.78005137E-03 0.27273450E+02</pdfrwt>
<pdfrwt beam="2">  1       21 0.27960233E-01 0.27273450E+02</pdfrwt>
<totfact> 0.51312303E+07</totfact>
</mgrwt>
</event>
<event>
 4    1  0.7841599E+004  0.2162994E+02  0.7546771E-02  0.1714732E+00
         21   -1    0    0  501  502  0.00000000000E+00  0.00000000000E+00  0.75683024427E+02  0.75683024427E+02  0.00000000000E+00 0.  1.
         21   -1    0    0  502  503 -0.00000000000E+00 -0.00000000000E+00 -0.62614185646E+01  0.62614185646E+01  0.00000000000E+00 0.  1.
          1    1    1    2  501    0  0.12219723889E+02 -0.17847483061E+02  0.30089451400E+02  0.37057109832E+02  0.00000000000E+00 0.  1.
         -1    1    1    2    0  503 -0.12219723889E+02  0.17847483061E+02  0.39332154462E+02  0.44887333159E+02  0.00000000000E+00 0. -1.
<mgrwt>
<rscale>  2 0.21629940E+02</rscale>
<asrwt>0</asrwt>
<pdfrwt beam="1">  1       21 0.11643542E-01 0.21629940E+02</pdfrwt>
<pdfrwt beam="2">  1       21 0.96329522E-03 0.21629940E+02</pdfrwt>
<totfact> 0.16092873E+08</totfact>
</mgrwt>
</event>
<event>
 4    1  0.7841599E+004  0.2161879E+02  0.7546771E-02  0.1714929E+00
         21   -1    0    0  503  502  0.00000000000E+00  0.00000000000E+00  0.15480716338E+03  0.15480716338E+03  0.00000000000E+00 0. -1.
         21   -1    0    0  501  503 -0.00000000000E+00 -0.00000000000E+00 -0.42506277687E+01  0.42506277687E+01  0.00000000000E+00 0. -1.
          1    1    1    2  501    0  0.74087629134E+01 -0.20309659676E+02  0.11808653528E+03  0.12004916434E+03  0.00000000000E+00 0. -1.
         -1    1    1    2    0  502 -0.74087629134E+01  0.20309659676E+02  0.32470000331E+02  0.39008626810E+02  0.00000000000E+00 0.  1.
<mgrwt>
<rscale>  2 0.21618789E+02</rscale>
<asrwt>0</asrwt>
<pdfrwt beam="1">  1       21 0.23816482E-01 0.21618789E+02</pdfrwt>
<pdfrwt beam="2">  1       21 0.65394285E-03 0.21618789E+02</pdfrwt>
<totfact> 0.84003222E+07</totfact>
</mgrwt>
</event>
<event>
 4    1  0.7841599E+004  0.5700044E+02  0.7546771E-02  0.1410869E+00
         21   -1    0    0  503  502  0.00000000000E+00  0.00000000000E+00  0.15980563251E+03  0.15980563251E+03  0.00000000000E+00 0. -1.
         21   -1    0    0  501  503 -0.00000000000E+00 -0.00000000000E+00 -0.20920255503E+02  0.20920255503E+02  0.00000000000E+00 0. -1.
          5    1    1    2  501    0  0.55219308278E+02  0.14137834409E+02  0.54280506509E+02  0.78711014193E+02  0.00000000000E+00 0.  1.
         -5    1    1    2    0  502 -0.55219308278E+02 -0.14137834409E+02  0.84604870502E+02  0.10201487382E+03  0.00000000000E+00 0. -1.
<mgrwt>
<rscale>  2 0.57000442E+02</rscale>
<asrwt>0</asrwt>
<pdfrwt beam="1">  1       21 0.24585481E-01 0.57000442E+02</pdfrwt>
<pdfrwt beam="2">  1       21 0.32185009E-02 0.57000442E+02</pdfrwt>
<totfact> 0.80892773E+06</totfact>
</mgrwt>
</event>
<event>
 4    1  0.7841599E+004  0.2482628E+02  0.7546771E-02  0.1663510E+00
         21   -1    0    0  501  502  0.00000000000E+00  0.00000000000E+00  0.21193801546E+03  0.21193801546E+03  0.00000000000E+00 0. -1.
         21   -1    0    0  502  503 -0.00000000000E+00 -0.00000000000E+00 -0.29106324824E+01  0.29106324824E+01  0.00000000000E+00 0. -1.
          5    1    1    2  501    0  0.93488660663E+01  0.22998762869E+02  0.10136704466E+03  0.10436293467E+03  0.00000000000E+00 0. -1.
         -5    1    1    2    0  503 -0.93488660663E+01 -0.22998762869E+02  0.10766033831E+03  0.11048571326E+03  0.00000000000E+00 0.  1.
<mgrwt>
<rscale>  2 0.24826284E+02</rscale>
<asrwt>0</asrwt>
<pdfrwt beam="1">  1       21 0.32605836E-01 0.24826284E+02</pdfrwt>
<pdfrwt beam="2">  1       21 0.44778978E-03 0.24826284E+02</pdfrwt>
<totfact> 0.86495741E+07</totfact>
</mgrwt>
</event>
<event>
 4    1  0.7841599E+004  0.2231345E+02  0.7546771E-02  0.1702887E+00
         21   -1    0    0  501  502  0.00000000000E+00  0.00000000000E+00  0.68094504027E+01  0.68094504027E+01  0.00000000000E+00 0.  1.
         21   -1    0    0  502  503 -0.00000000000E+00 -0.00000000000E+00 -0.85933575894E+02  0.85933575894E+02  0.00000000000E+00 0.  1.
          4    1    1    2  501    0  0.47697977983E+01  0.21797683113E+02 -0.21654048356E+02  0.31093211000E+02  0.00000000000E+00 0. -1.
         -4    1    1    2    0  503 -0.47697977983E+01 -0.21797683113E+02 -0.57470077135E+02  0.61649815296E+02  0.00000000000E+00 0.  1.
<mgrwt>
<rscale>  2 0.22313448E+02</rscale>
<asrwt>0</asrwt>
<pdfrwt beam="1">  1       21 0.10476078E-02 0.22313448E+02</pdfrwt>
<pdfrwt beam="2">  1       21 0.13220549E-01 0.22313448E+02</pdfrwt>
<totfact> 0.11576789E+08</totfact>
</mgrwt>
</event>
<event>
 4    1  0.7841599E+004  0.2925999E+02  0.7546771E-02  0.1606416E+00
         21   -1    0    0  503  502  0.00000000000E+00  0.00000000000E+00  0.13437809819E+02  0.13437809819E+02  0.00000000000E+00 0.  1.
         21   -1    0    0  501  503 -0.00000000000E+00 -0.00000000000E+00 -0.64444941701E+02  0.64444941701E+02  0.00000000000E+00 0.  1.
          1    1    1    2  501    0  0.58110863338E+01 -0.28677137989E+02 -0.29657051314E+02  0.41661584947E+02  0.00000000000E+00 0.  1.
         -1    1    1    2    0  502 -0.58110863338E+01  0.28677137989E+02 -0.21350080568E+02  0.36221166573E+02  0.00000000000E+00 0. -1.
<mgrwt>
<rscale>  2 0.29259989E+02</rscale>
<asrwt>0</asrwt>
<pdfrwt beam="1">  1       21 0.20673554E-02 0.29259989E+02</pdfrwt>
<pdfrwt beam="2">  1       21 0.99146062E-02 0.29259989E+02</pdfrwt>
<totfact> 0.71424719E+07</totfact>
</mgrwt>
</event>
<event>
 4    1  0.7841599E+004  0.2467893E+02  0.7546771E-02  0.1665657E+00
         21   -1    0    0  503  502  0.00000000000E+00  0.00000000000E+00  0.77186566868E+01  0.77186566868E+01  0.00000000000E+00 0.  1.
         21   -1    0    0  501  503 -0.00000000000E+00 -0.00000000000E+00 -0.80829893493E+02  0.80829893493E+02  0.00000000000E+00 0.  1.
          3    1    1    2  501    0  0.25210220470E+01 -0.24549826001E+02 -0.43385900645E+02  0.49913784505E+02  0.00000000000E+00 0.  1.
         -3    1    1    2    0  502 -0.25210220470E+01  0.24549826001E+02 -0.29725336161E+02  0.38634765675E+02  0.00000000000E+00 0. -1.
<mgrwt>
<rscale>  2 0.24678928E+02</rscale>
<asrwt>0</asrwt>
<pdfrwt beam="1">  1       21 0.11874856E-02 0.24678928E+02</pdfrwt>
<pdfrwt beam="2">  1       21 0.12435368E-01 0.24678928E+02</pdfrwt>
<totfact> 0.10932354E+08</totfact>
</mgrwt>
</event>
<event>
 4    1  0.7841599E+004  0.2555361E+02  0.7546771E-02  0.1653175E+00
         21   -1    0    0  501  502  0.00000000000E+00  0.00000000000E+00  0.48337331841E+01  0.48337331841E+01  0.00000000000E+00 0.  1.
         21   -1    0    0  502  503 -0.00000000000E+00 -0.00000000000E+00 -0.13544447819E+03  0.13544447819E+03  0.00000000000E+00 0.  1.
          4    1    1    2  501    0 -0.28934192778E+01  0.25389271275E+02 -0.68895693886E+02  0.73481995122E+02  0.00000000000E+00 0.  1.
         -4    1    1    2    0  503  0.28934192778E+01 -0.25389271275E+02 -0.61715051123E+02  0.66796216256E+02  0.00000000000E+00 0. -1.
<mgrwt>
<rscale>  2 0.25553610E+02</rscale>
<asrwt>0</asrwt>
<pdfrwt beam="1">  1       21 0.74365133E-03 0.25553610E+02</pdfrwt>
<pdfrwt beam="2">  1       21 0.20837610E-01 0.25553610E+02</pdfrwt>
<totfact> 0.91794393E+07</totfact>
</mgrwt>
</event>
<event>
 4    1  0.7841599E+004  0.2645664E+02  0.7546771E-02  0.1640920E+00
         21   -1    0    0  503  502  0.00000000000E+00  0.00000000000E+00  0.40400904009E+02  0.40400904009E+02  0.00000000000E+00 0.  1.
         21   -1    0    0  501  503 -0.00000000000E+00 -0.00000000000E+00 -0.17629280140E+02  0.17629280140E+02  0.00000000000E+00 0.  1.
          1    1    1    2  501    0 -0.39301558250E+01  0.26163093070E+02  0.15196503898E+02  0.30510445662E+02  0.00000000000E+00 0.  1.
         -1    1    1    2    0  502  0.39301558250E+01 -0.26163093070E+02  0.75751199709E+01  0.27519738486E+02  0.00000000000E+00 0. -1.
<mgrwt>
<rscale>  2 0.26456636E+02</rscale>
<asrwt>0</asrwt>
<pdfrwt beam="1">  1       21 0.62155237E-02 0.26456636E+02</pdfrwt>
<pdfrwt beam="2">  1       21 0.27121970E-02 0.26456636E+02</pdfrwt>
<totfact> 0.98324444E+07</totfact>
</mgrwt>
</event>
<event>
 4    1  0.7841599E+004  0.5546952E+02  0.7546771E-02  0.1417891E+00
         21   -1    0    0  503  502  0.00000000000E+00  0.00000000000E+00  0.34992003085E+03  0.34992003085E+03  0.00000000000E+00 0. -1.
         21   -1    0    0  501  503 -0.00000000000E+00 -0.00000000000E+00 -0.89232771314E+01  0.89232771314E+01  0.00000000000E+00 0. -1.
          4    1    1    2  501    0 -0.28652755441E+02 -0.47496176943E+02  0.14882385009E+03  0.15882507854E+03  0.00000000000E+00 0. -1.
         -4    1    1    2    0  502  0.28652755441E+02  0.47496176943E+02  0.19217290364E+03  0.20001822944E+03  0.00000000000E+00 0.  1.
<mgrwt>
<rscale>  2 0.55469516E+02</rscale>
<asrwt>0</asrwt>
<pdfrwt beam="1">  1       21 0.53833840E-01 0.55469516E+02</pdfrwt>
<pdfrwt beam="2">  1       21 0.13728121E-02 0.55469516E+02</pdfrwt>
<totfact> 0.68520294E+06</totfact>
</mgrwt>
</event>
<event>
 4    1  0.7841599E+004  0.2015234E+02  0.7546771E-02  0.1742316E+00
         21   -1    0    0  503  502  0.00000000000E+00  0.00000000000E+00  0.33708523347E+02  0.33708523347E+02  0.00000000000E+00 0. -1.
         21   -1    0    0  501  503 -0.00000000000E+00 -0.00000000000E+00 -0.12861513127E+02  0.12861513127E+02  0.00000000000E+00 0. -1.
          1    1    1    2  501    0  0.37089106811E+01 -0.19808095333E+02  0.45669588766E+01  0.20663343692E+02  0.00000000000E+00 0. -1.
         -1    1    1    2    0  502 -0.37089106811E+01  0.19808095333E+02  0.16280051343E+02  0.25906692782E+02  0.00000000000E+00 0.  1.
<mgrwt>
<rscale>  2 0.20152336E+02</rscale>
<asrwt>0</asrwt>
<pdfrwt beam="1">  1       21 0.51859266E-02 0.20152336E+02</pdfrwt>
<pdfrwt beam="2">  1       21 0.19786943E-02 0.20152336E+02</pdfrwt>
<totfact> 0.19719895E+08</totfact>
</mgrwt>
</event>
<event>
 4    1  0.7841599E+004  0.2237407E+02  0.7546771E-02  0.1701862E+00
         21   -1    0    0  503  502  0.00000000000E+00  0.00000000000E+00  0.11017509234E+03  0.11017509234E+03  0.00000000000E+00 0.  1.
         21   -1    0    0  501  503 -0.00000000000E+00 -0.00000000000E+00 -0.47477020103E+01  0.47477020103E+01  0.00000000000E+00 0.  1.
          3    1    1    2  501    0 -0.22371106383E+02  0.36405541417E+00  0.40801638633E+02  0.46533564792E+02  0.00000000000E+00 0. -1.
         -3    1    1    2    0  502  0.22371106383E+02 -0.36405541417E+00  0.64625751693E+02  0.68389229555E+02  0.00000000000E+00 0.  1.
<mgrwt>
<rscale>  2 0.22374068E+02</rscale>
<asrwt>0</asrwt>
<pdfrwt beam="1">  1       21 0.16950012E-01 0.22374068E+02</pdfrwt>
<pdfrwt beam="2">  1       21 0.73041577E-03 0.22374068E+02</pdfrwt>
<totfact> 0.13018562E+08</totfact>
</mgrwt>
</event>
<event>
 4    1  0.7841599E+004  0.2430729E+02  0.7546771E-02  0.1671156E+00
         21   -1    0    0  503  502  0.00000000000E+00  0.00000000000E+00  0.52640678173E+01  0.52640678173E+01  0.00000000000E+00 0.  1.
         21   -1    0    0  501  503 -0.00000000000E+00 -0.00000000000E+00 -0.11512818718E+03  0.11512818718E+03  0.00000000000E+00 0.  1.
          4    1    1    2  501    0  0.21571342717E+02 -0.11203642814E+02 -0.64464679868E+02  0.68895133278E+02  0.00000000000E+00 0.  1.
         -4    1    1    2    0  502 -0.21571342717E+02  0.11203642814E+02 -0.45399439492E+02  0.51497121717E+02  0.00000000000E+00 0. -1.
<mgrwt>
<rscale>  2 0.24307292E+02</rscale>
<asrwt>0</asrwt>
<pdfrwt beam="1">  1       21 0.80985660E-03 0.24307292E+02</pdfrwt>
<pdfrwt beam="2">  1       21 0.17712029E-01 0.24307292E+02</pdfrwt>
<totfact> 0.10591161E+08</totfact>
</mgrwt>
</event>
<event>
 4    1  0.7841599E+004  0.2120001E+02  0.7546771E-02  0.1722466E+00
         21   -1    0    0  501  502  0.00000000000E+00  0.00000000000E+00  0.91406707802E+03  0.91406707802E+03  0.00000000000E+00 0.  1.
         21   -1    0    0  502  503 -0.00000000000E+00 -0.00000000000E+00 -0.59772067963E+00  0.59772067963E+00  0.00000000000E+00 0.  1.
          3    1    1    2  501    0  0.47402477234E+01 -0.20663264993E+02  0.64935063771E+03  0.64969661471E+03  0.00000000000E+00 0.  1.
         -3    1    1    2    0  503 -0.47402477234E+01  0.20663264993E+02  0.26411871963E+03  0.26496818399E+03  0.00000000000E+00 0. -1.
<mgrwt>
<rscale>  2 0.21200011E+02</rscale>
<asrwt>0</asrwt>
<pdfrwt beam="1">  1       21 0.14062459E+00 0.21200011E+02</pdfrwt>
<pdfrwt beam="2">  1       21 0.91957759E-04 0.21200011E+02</pdfrwt>
<totfact> 0.40758258E+07</totfact>
</mgrwt>
</event>
<event>
 4    1  0.7841599E+004  0.2733909E+02  0.7546771E-02  0.1629513E+00
         21   -1    0    0  501  502  0.00000000000E+00  0.00000000000E+00  0.22935107084E+03  0.22935107084E+03  0.00000000000E+00 0. -1.
         21   -1    0    0  502  503 -0.00000000000E+00 -0.00000000000E+00 -0.49647567919E+01  0.49647567919E+01  0.00000000000E+00 0. -1.
          5    1    1    2  501    0 -0.14681312721E+02  0.23062627703E+02  0.43518339655E+02  0.51393303319E+02  0.00000000000E+00 0. -1.
         -5    1    1    2    0  503  0.14681312721E+02 -0.23062627703E+02  0.18086797440E+03  0.18292252432E+03  0.00000000000E+00 0.  1.
<mgrwt>
<rscale>  2 0.27339088E+02</rscale>
<asrwt>0</asrwt>
<pdfrwt beam="1">  1       21 0.35284772E-01 0.27339088E+02</pdfrwt>
<pdfrwt beam="2">  1       21 0.76380892E-03 0.27339088E+02</pdfrwt>
<totfact> 0.34515279E+07</totfact>
</mgrwt>
</event>
<event>
 4    1  0.7841599E+004  0.2147858E+02  0.7546771E-02  0.1717429E+00
         21   -1    0    0  501  502  0.00000000000E+00  0.00000000000E+00  0.75273259157E+00  0.75273259157E+00  0.00000000000E+00 0. -1.
         21   -1    0    0  502  503 -0.00000000000E+00 -0.00000000000E+00 -0.67446351971E+03  0.67446351971E+03  0.00000000000E+00 0. -1.
          1    1    1    2  501    0 -0.15021429095E+02  0.15352065981E+02 -0.23483391289E+03  0.23581411303E+03  0.00000000000E+00 0. -1.
         -1    1    1    2    0  503  0.15021429095E+02 -0.15352065981E+02 -0.43887687422E+03  0.43940213926E+03  0.00000000000E+00 0.  1.
<mgrwt>
<rscale>  2 0.21478577E+02</rscale>
<asrwt>0</asrwt>
<pdfrwt beam="1">  1       21 0.11580501E-03 0.21478577E+02</pdfrwt>
<pdfrwt beam="2">  1       21 0.10376362E+00 0.21478577E+02</pdfrwt>
<totfact> 0.58537579E+07</totfact>
</mgrwt>
</event>
<event>
 4    1  0.7841599E+004  0.2074287E+02  0.7546771E-02  0.1730946E+00
         21   -1    0    0  501  502  0.00000000000E+00  0.00000000000E+00  0.42984340507E+01  0.42984340507E+01  0.00000000000E+00 0.  1.
         21   -1    0    0  502  503 -0.00000000000E+00 -0.00000000000E+00 -0.36935613367E+03  0.36935613367E+03  0.00000000000E+00 0.  1.
          3    1    1    2  501    0 -0.17885895935E+02 -0.10505311348E+02 -0.23013806083E+02  0.30982287042E+02  0.00000000000E+00 0. -1.
         -3    1    1    2    0  503  0.17885895935E+02  0.10505311348E+02 -0.34204389354E+03  0.34267228068E+03  0.00000000000E+00 0.  1.
<mgrwt>
<rscale>  2 0.20742874E+02</rscale>
<asrwt>0</asrwt>
<pdfrwt beam="1">  1       21 0.66129737E-03 0.20742874E+02</pdfrwt>
<pdfrwt beam="2">  1       21 0.56824036E-01 0.20742874E+02</pdfrwt>
<totfact> 0.16207933E+07</totfact>
</mgrwt>
</event>
<event>
 4    1  0.7841599E+004  0.2193598E+02  0.7546771E-02  0.1709361E+00
         21   -1    0    0  501  502  0.00000000000E+00  0.00000000000E+00  0.40962773873E+01  0.40962773873E+01  0.00000000000E+00 0. -1.
         21   -1    0    0  502  503 -0.00000000000E+00 -0.00000000000E+00 -0.13585043625E+03  0.13585043625E+03  0.00000000000E+00 0. -1.
          3    1    1    2  501    0  0.12855193691E+02 -0.17774459906E+02 -0.40138376442E+02  0.45741411141E+02  0.00000000000E+00 0.  1.
         -3    1    1    2    0  503 -0.12855193691E+02  0.17774459906E+02 -0.91615782421E+02  0.94205302496E+02  0.00000000000E+00 0. -1.
<mgrwt>
<rscale>  2 0.21935985E+02</rscale>
<asrwt>0</asrwt>
<pdfrwt beam="1">  1       21 0.63019658E-03 0.21935985E+02</pdfrwt>
<pdfrwt beam="2">  1       21 0.20900065E-01 0.21935985E+02</pdfrwt>
<totfact> 0.11210377E+08</totfact>
</mgrwt>
</event>
<event>
 4    1  0.7841599E+004  0.2890879E+02  0.7546771E-02  0.1610474E+00
         21   -1    0    0  503  502  0.00000000000E+00  0.00000000000E+00  0.20749879005E+03  0.20749879005E+03  0.00000000000E+00 0.  1.
         21   -1    0    0  501  503 -0.00000000000E+00 -0.00000000000E+00 -0.40885393137E+01  0.40885393137E+01  0.00000000000E+00 0.  1.
          3    1    1    2  501    0 -0.28375938498E+02  0.55248513590E+01  0.11462319055E+03  0.11821249375E+03  0.00000000000E+00 0. -1.
         -3    1    1    2    0  502  0.28375938498E+02 -0.55248513590E+01  0.88787060188E+02  0.93374835609E+02  0.00000000000E+00 0.  1.
<mgrwt>
<rscale>  2 0.28908785E+02</rscale>
<asrwt>0</asrwt>
<pdfrwt beam="1">  1       21 0.31922883E-01 0.28908785E+02</pdfrwt>
<pdfrwt beam="2">  1       21 0.62900621E-03 0.28908785E+02</pdfrwt>
<totfact> 0.56272042E+07</totfact>
</mgrwt>
</event>
<event>
 4    1  0.7841599E+004  0.2055025E+02  0.7546771E-02  0.1734602E+00
         21   -1    0    0  503  502  0.00000000000E+00  0.00000000000E+00  0.12142497843E+03  0.12142497843E+03  0.00000000000E+00 0.  1.
         21   -1    0    0  501  503 -0.00000000000E+00 -0.00000000000E+00 -0.37422802964E+01  0.37422802964E+01  0.00000000000E+00 0.  1.
          4    1    1    2  501    0 -0.20216577726E+02  0.36882065788E+01  0.75473429698E+02  0.78221170236E+02  0.00000000000E+00 0. -1.
         -4    1    1    2    0  502  0.20216577726E+02 -0.36882065788E+01  0.42209268438E+02  0.46946088493E+02  0.00000000000E+00 0.  1.
<mgrwt>
<rscale>  2 0.20550253E+02</rscale>
<asrwt>0</asrwt>
<pdfrwt beam="1">  1       21 0.18680763E-01 0.20550253E+02</pdfrwt>
<pdfrwt beam="2">  1       21 0.57573552E-03 0.20550253E+02</pdfrwt>
<totfact> 0.15276804E+08</totfact>
</mgrwt>
</event>
<event>
 4    1  0.7841599E+004  0.2485797E+02  0.7546771E-02  0.1663050E+00
         21   -1    0    0  503  502  0.00000000000E+00  0.00000000000E+00  0.75591822005E+02  0.75591822005E+02  0.00000000000E+00 0.  1.
         21   -1    0    0  501  503 -0.00000000000E+00 -0.00000000000E+00 -0.94090313234E+01  0.94090313234E+01  0.00000000000E+00 0.  1.
          5    1    1    2  501    0  0.21463950005E+02 -0.12538631906E+02  0.17696102092E+02  0.30513447350E+02  0.00000000000E+00 0. -1.
         -5    1    1    2    0  502 -0.21463950005E+02  0.12538631906E+02  0.48486688590E+02  0.54487405979E+02  0.00000000000E+00 0.  1.
<mgrwt>
<rscale>  2 0.24857965E+02</rscale>
<asrwt>0</asrwt>
<pdfrwt beam="1">  1       21 0.11629511E-01 0.24857965E+02</pdfrwt>
<pdfrwt beam="2">  1       21 0.14475433E-02 0.24857965E+02</pdfrwt>
<totfact> 0.90757069E+07</totfact>
</mgrwt>
</event>
<event>
 4    1  0.7841599E+004  0.2223609E+02  0.7546771E-02  0.1704201E+00
         21   -1    0    0  503  502  0.00000000000E+00  0.00000000000E+00  0.52261322700E+00  0.52261322700E+00  0.00000000000E+00 0.  1.
         21   -1    0    0  501  503 -0.00000000000E+00 -0.00000000000E+00 -0.96942110168E+03  0.96942110168E+03  0.00000000000E+00 0.  1.
          2    1    1    2  501    0  0.21388907261E+02  0.60793281585E+01 -0.40922654766E+03  0.40983022204E+03  0.00000000000E+00 0. -1.
         -2    1    1    2    0  502 -0.21388907261E+02 -0.60793281585E+01 -0.55967194080E+03  0.56011349287E+03  0.00000000000E+00 0.  1.
<mgrwt>
<rscale>  2 0.22236087E+02</rscale>
<asrwt>0</asrwt>
<pdfrwt beam="1">  1       21 0.80402002E-04 0.22236087E+02</pdfrwt>
<pdfrwt beam="2">  1       21 0.14914177E+00 0.22236087E+02</pdfrwt>
<totfact> 0.43371575E+07</totfact>
</mgrwt>
</event>
<event>
 4    1  0.7841599E+004  0.2116444E+02  0.7546771E-02  0.1723116E+00
         21   -1    0    0  503  502  0.00000000000E+00  0.00000000000E+00  0.78981106201E+02  0.78981106201E+02  0.00000000000E+00 0. -1.
         21   -1    0    0  501  503 -0.00000000000E+00 -0.00000000000E+00 -0.62737412103E+01  0.62737412103E+01  0.00000000000E+00 0. -1.
          2    1    1    2  501    0  0.23529571588E+01 -0.21033235187E+02  0.23145370183E+02  0.31363060290E+02  0.00000000000E+00 0. -1.
         -2    1    1    2    0  502 -0.23529571588E+01  0.21033235187E+02  0.49561994807E+02  0.53891787121E+02  0.00000000000E+00 0.  1.
<mgrwt>
<rscale>  2 0.21164437E+02</rscale>
<asrwt>0</asrwt>
<pdfrwt beam="1">  1       21 0.12150939E-01 0.21164437E+02</pdfrwt>
<pdfrwt beam="2">  1       21 0.96519101E-03 0.21164437E+02</pdfrwt>
<totfact> 0.14845116E+08</totfact>
</mgrwt>
</event>
<event>
 4    1  0.7841599E+004  0.2031794E+02  0.7546771E-02  0.1739078E+00
         21   -1    0    0  503  502  0.00000000000E+00  0.00000000000E+00  0.25834325338E+01  0.25834325338E+01  0.00000000000E+00 0.  1.
         21   -1    0    0  501  503 -0.00000000000E+00 -0.00000000000E+00 -0.45325956885E+03  0.45325956885E+03  0.00000000000E+00 0.  1.
          4    1    1    2  501    0  0.16401379373E+02  0.11992219164E+02 -0.40873410192E+03  0.40923878682E+03  0.00000000000E+00 0.  1.
         -4    1    1    2    0  502 -0.16401379373E+02 -0.11992219164E+02 -0.41942034399E+02  0.46604214566E+02  0.00000000000E+00 0. -1.
<mgrwt>
<rscale>  2 0.20317937E+02</rscale>
<asrwt>0</asrwt>
<pdfrwt beam="1">  1       21 0.39745133E-03 0.20317937E+02</pdfrwt>
<pdfrwt beam="2">  1       21 0.69732211E-01 0.20317937E+02</pdfrwt>
<totfact> 0.22629118E+07</totfact>
</mgrwt>
</event>
<event>
 4    1  0.7841599E+004  0.2226004E+02  0.7546771E-02  0.1703793E+00
         21   -1    0    0  501  502  0.00000000000E+00  0.00000000000E+00  0.30476911626E+01  0.30476911626E+01  0.00000000000E+00 0.  1.
         21   -1    0    0  502  503 -0.00000000000E+00 -0.00000000000E+00 -0.18270004861E+03  0.18270004861E+03  0.00000000000E+00 0.  1.
          2    1    1    2  501    0  0.22251272375E+02  0.62463042829E+00 -0.12064267604E+03  0.12267911219E+03  0.00000000000E+00 0.  1.
         -2    1    1    2    0  503 -0.22251272375E+02 -0.62463042829E+00 -0.59009681411E+02  0.63068627587E+02  0.00000000000E+00 0. -1.
<mgrwt>
<rscale>  2 0.22260038E+02</rscale>
<asrwt>0</asrwt>
<pdfrwt beam="1">  1       21 0.46887570E-03 0.22260038E+02</pdfrwt>
<pdfrwt beam="2">  1       21 0.28107692E-01 0.22260038E+02</pdfrwt>
<totfact> 0.10293736E+08</totfact>
</mgrwt>
</event>
<event>
 4    1  0.7841599E+004  0.2243039E+02  0.7546771E-02  0.1700913E+00
         21   -1    0    0  503  502  0.00000000000E+00  0.00000000000E+00  0.25049434734E+01  0.25049434734E+01  0.00000000000E+00 0.  1.
         21   -1    0    0  501  503 -0.00000000000E+00 -0.00000000000E+00 -0.22983717307E+03  0.22983717307E+03  0.00000000000E+00 0.  1.
          1    1    1    2  501    0  0.68187771970E+01  0.21368819842E+02 -0.15492124100E+03  0.15653661903E+03  0.00000000000E+00 0. -1.
         -1    1    1    2    0  502 -0.68187771970E+01 -0.21368819842E+02 -0.72410988596E+02  0.75805497514E+02  0.00000000000E+00 0.  1.
<mgrwt>
<rscale>  2 0.22430385E+02</rscale>
<asrwt>0</asrwt>
<pdfrwt beam="1">  1       21 0.38537586E-03 0.22430385E+02</pdfrwt>
<pdfrwt beam="2">  1       21 0.35359571E-01 0.22430385E+02</pdfrwt>
<totfact> 0.90431461E+07</totfact>
</mgrwt>
</event>
<event>
 4    1  0.7841599E+004  0.2027784E+02  0.7546771E-02  0.1739859E+00
         21   -1    0    0  501  502  0.00000000000E+00  0.00000000000E+00  0.29816117117E+02  0.29816117117E+02  0.00000000000E+00 0.  1.
         21   -1    0    0  502  503 -0.00000000000E+00 -0.00000000000E+00 -0.14203412752E+02  0.14203412752E+02  0.00000000000E+00 0.  1.
          5    1    1    2  501    0 -0.16617044749E+02 -0.11621725751E+02  0.40553711235E+01  0.20679379114E+02  0.00000000000E+00 0. -1.
         -5    1    1    2    0  503  0.16617044749E+02  0.11621725751E+02  0.11557333241E+02  0.23340150755E+02  0.00000000000E+00 0.  1.
<mgrwt>
<rscale>  2 0.20277837E+02</rscale>
<asrwt>0</asrwt>
<pdfrwt beam="1">  1       21 0.45870949E-02 0.20277837E+02</pdfrwt>
<pdfrwt beam="2">  1       21 0.21851404E-02 0.20277837E+02</pdfrwt>
<totfact> 0.20616242E+08</totfact>
</mgrwt>
</event>
<event>
 4    1  0.7841599E+004  0.3102137E+02  0.7546771E-02  0.1587066E+00
         21   -1    0    0  501  502  0.00000000000E+00  0.00000000000E+00  0.50343778794E+02  0.50343778794E+02  0.00000000000E+00 0. -1.
         21   -1    0    0  502  503 -0.00000000000E+00 -0.00000000000E+00 -0.19197381863E+02  0.19197381863E+02  0.00000000000E+00 0. -1.
          3    1    1    2  501    0  0.26221573378E+02 -0.16575720037E+02  0.17849833202E+02  0.35790249378E+02  0.00000000000E+00 0.  1.
         -3    1    1    2    0  503 -0.26221573378E+02  0.16575720037E+02  0.13296563729E+02  0.33750911279E+02  0.00000000000E+00 0. -1.
<mgrwt>
<rscale>  2 0.31021370E+02</rscale>
<asrwt>0</asrwt>
<pdfrwt beam="1">  1       21 0.77451967E-02 0.31021370E+02</pdfrwt>
<pdfrwt beam="2">  1       21 0.29534434E-02 0.31021370E+02</pdfrwt>
<totfact> 0.62461572E+07</totfact>
</mgrwt>
</event>
<event>
 4    1  0.7841599E+004  0.2261347E+02  0.7546771E-02  0.1697853E+00
         21   -1    0    0  503  502  0.00000000000E+00  0.00000000000E+00  0.23180429000E+03  0.23180429000E+03  0.00000000000E+00 0. -1.
         21   -1    0    0  501  503 -0.00000000000E+00 -0.00000000000E+00 -0.22601382536E+01  0.22601382536E+01  0.00000000000E+00 0. -1.
          5    1    1    2  501    0 -0.20121299820E+02  0.10320000452E+02  0.96665479673E+02  0.99275294390E+02  0.00000000000E+00 0.  1.
         -5    1    1    2    0  502  0.20121299820E+02 -0.10320000452E+02  0.13287867207E+03  0.13478913386E+03  0.00000000000E+00 0. -1.
<mgrwt>
<rscale>  2 0.22613472E+02</rscale>
<asrwt>0</asrwt>
<pdfrwt beam="1">  1       21 0.35662180E-01 0.22613472E+02</pdfrwt>
<pdfrwt beam="2">  1       21 0.34771376E-03 0.22613472E+02</pdfrwt>
<totfact> 0.10368962E+08</totfact>
</mgrwt>
</event>
<event>
 4    1  0.7841599E+004  0.2431432E+02  0.7546771E-02  0.1671050E+00
         21   -1    0    0  503  502  0.00000000000E+00  0.00000000000E+00  0.68559435992E+01  0.68559435992E+01  0.00000000000E+00 0.  1.
         21   -1    0    0  501  503 -0.00000000000E+00 -0.00000000000E+00 -0.86953086163E+02  0.86953086163E+02  0.00000000000E+00 0.  1.
          2    1    1    2  501    0  0.23692172735E+02  0.54650821387E+01 -0.44326642086E+02  0.50557268224E+02  0.00000000000E+00 0.  1.
         -2    1    1    2    0  502 -0.23692172735E+02 -0.54650821387E+01 -0.35770500478E+02  0.43251761538E+02  0.00000000000E+00 0. -1.
<mgrwt>
<rscale>  2 0.24314320E+02</rscale>
<asrwt>0</asrwt>
<pdfrwt beam="1">  1       21 0.10547606E-02 0.24314320E+02</pdfrwt>
<pdfrwt beam="2">  1       21 0.13377397E-01 0.24314320E+02</pdfrwt>
<totfact> 0.11512591E+08</totfact>
</mgrwt>
</event>
<event>
 4    1  0.7841599E+004  0.2307803E+02  0.7546771E-02  0.1690248E+00
         21   -1    0    0  503  502  0.00000000000E+00  0.00000000000E+00  0.25616577978E+01  0.25616577978E+01  0.00000000000E+00 0. -1.
         21   -1    0    0  501  503 -0.00000000000E+00 -0.00000000000E+00 -0.22866866730E+03  0.22866866730E+03  0.00000000000E+00 0. -1.
          2    1    1    2  501    0  0.79014139941E+01  0.21683248025E+02 -0.14788770363E+03  0.14967754833E+03  0.00000000000E+00 0. -1.
         -2    1    1    2    0  502 -0.79014139941E+01 -0.21683248025E+02 -0.78219305876E+02  0.81552776775E+02  0.00000000000E+00 0.  1.
<mgrwt>
<rscale>  2 0.23078033E+02</rscale>
<asrwt>0</asrwt>
<pdfrwt beam="1">  1       21 0.39410122E-03 0.23078033E+02</pdfrwt>
<pdfrwt beam="2">  1       21 0.35179793E-01 0.23078033E+02</pdfrwt>
<totfact> 0.89008313E+07</totfact>
</mgrwt>
</event>
<event>
 4    1  0.7841599E+004  0.3902239E+02  0.7546771E-02  0.1515531E+00
         21   -1    0    0  501  502  0.00000000000E+00  0.00000000000E+00  0.24828666988E+01  0.24828666988E+01  0.00000000000E+00 0.  1.
         21   -1    0    0  502  503 -0.00000000000E+00 -0.00000000000E+00 -0.63164979910E+03  0.63164979910E+03  0.00000000000E+00 0.  1.
          2    1    1    2  501    0 -0.30361567127E+02  0.24513716095E+02 -0.36862209284E+03  0.37068179664E+03  0.00000000000E+00 0.  1.
         -2    1    1    2    0  503  0.30361567127E+02 -0.24513716095E+02 -0.26054483956E+03  0.26345086915E+03  0.00000000000E+00 0. -1.
<mgrwt>
<rscale>  2 0.39022391E+02</rscale>
<asrwt>0</asrwt>
<pdfrwt beam="1">  1       21 0.38197938E-03 0.39022391E+02</pdfrwt>
<pdfrwt beam="2">  1       21 0.97176920E-01 0.39022391E+02</pdfrwt>
<totfact> 0.13202914E+07</totfact>
</mgrwt>
</event>
<event>
 4    1  0.7841599E+004  0.2151936E+02  0.7546771E-02  0.1716699E+00
         21   -1    0    0  501  502  0.00000000000E+00  0.00000000000E+00  0.20364374933E+03  0.20364374933E+03  0.00000000000E+00 0.  1.
         21   -1    0    0  502  503 -0.00000000000E+00 -0.00000000000E+00 -0.23131237039E+01  0.23131237039E+01  0.00000000000E+00 0.  1.
          5    1    1    2  501    0  0.21143821771E+02 -0.40027198803E+01  0.11406042722E+03  0.11607266700E+03  0.00000000000E+00 0. -1.
         -5    1    1    2    0  503 -0.21143821771E+02  0.40027198803E+01  0.87270198403E+02  0.89884206037E+02  0.00000000000E+00 0.  1.
<mgrwt>
<rscale>  2 0.21519363E+02</rscale>
<asrwt>0</asrwt>
<pdfrwt beam="1">  1       21 0.31329793E-01 0.21519363E+02</pdfrwt>
<pdfrwt beam="2">  1       21 0.35586535E-03 0.21519363E+02</pdfrwt>
<totfact> 0.12546778E+08</totfact>
</mgrwt>
</event>
<event>
 4    1  0.7841599E+004  0.4256890E+02  0.7546771E-02  0.1490115E+00
         21   -1    0    0  503  502  0.00000000000E+00  0.00000000000E+00  0.32294150208E+02  0.32294150208E+02  0.00000000000E+00 0. -1.
         21   -1    0    0  501  503 -0.00000000000E+00 -0.00000000000E+00 -0.57521646335E+02  0.57521646335E+02  0.00000000000E+00 0. -1.
          1    1    1    2  501    0 -0.56518335668E+01 -0.42192035636E+02 -0.55853160627E+01  0.42933749537E+02  0.00000000000E+00 0.  1.
         -1    1    1    2    0  502  0.56518335668E+01  0.42192035636E+02 -0.19642180064E+02  0.46882047006E+02  0.00000000000E+00 0. -1.
<mgrwt>
<rscale>  2 0.42568898E+02</rscale>
<asrwt>0</asrwt>
<pdfrwt beam="1">  1       21 0.49683308E-02 0.42568898E+02</pdfrwt>
<pdfrwt beam="2">  1       21 0.88494840E-02 0.42568898E+02</pdfrwt>
<totfact> 0.23145661E+07</totfact>
</mgrwt>
</event>
<event>
 4    1  0.7841599E+004  0.2171620E+02  0.7546771E-02  0.1713207E+00
         21   -1    0    0  501  502  0.00000000000E+00  0.00000000000E+00  0.20561391890E+02  0.20561391890E+02  0.00000000000E+00 0.  1.
         21   -1    0    0  502  503 -0.00000000000E+00 -0.00000000000E+00 -0.23903168101E+02  0.23903168101E+02  0.00000000000E+00 0.  1.
          3    1    1    2  501    0 -0.14094540404E+01 -0.21670415567E+02 -0.61432380855E+01  0.22568403704E+02  0.00000000000E+00 0. -1.
         -3    1    1    2    0  503  0.14094540404E+01  0.21670415567E+02  0.28014618743E+01  0.21896156288E+02  0.00000000000E+00 0.  1.
<mgrwt>
<rscale>  2 0.21716203E+02</rscale>
<asrwt>0</asrwt>
<pdfrwt beam="1">  1       21 0.31632911E-02 0.21716203E+02</pdfrwt>
<pdfrwt beam="2">  1       21 0.36774105E-02 0.21716203E+02</pdfrwt>
<totfact> 0.16847244E+08</totfact>
</mgrwt>
</event>
<event>
 4    1  0.7841599E+004  0.2542169E+02  0.7546771E-02  0.1655018E+00
         21   -1    0    0  503  502  0.00000000000E+00  0.00000000000E+00  0.16911356482E+02  0.16911356482E+02  0.00000000000E+00 0.  1.
         21   -1    0    0  501  503 -0.00000000000E+00 -0.00000000000E+00 -0.43664783969E+02  0.43664783969E+02  0.00000000000E+00 0.  1.
          4    1    1    2  501    0  0.21948270928E+02  0.12827148786E+02 -0.26761240496E+01  0.25562159193E+02  0.00000000000E+00 0. -1.
         -4    1    1    2    0  502 -0.21948270928E+02 -0.12827148786E+02 -0.24077303438E+02  0.35013981258E+02  0.00000000000E+00 0.  1.
<mgrwt>
<rscale>  2 0.25421690E+02</rscale>
<asrwt>0</asrwt>
<pdfrwt beam="1">  1       21 0.26017472E-02 0.25421690E+02</pdfrwt>
<pdfrwt beam="2">  1       21 0.67176590E-02 0.25421690E+02</pdfrwt>
<totfact> 0.91530261E+07</totfact>
</mgrwt>
</event>
<event>
 4    1  0.7841599E+004  0.2466960E+02  0.7546771E-02  0.1665793E+00
         21   -1    0    0  503  502  0.00000000000E+00  0.00000000000E+00  0.77665690749E+01  0.77665690749E+01  0.00000000000E+00 0. -1.
         21   -1    0    0  501  503 -0.00000000000E+00 -0.00000000000E+00 -0.10712386719E+03  0.10712386719E+03  0.00000000000E+00 0. -1.
          2    1    1    2  501    0 -0.51419837492E+01 -0.24127763324E+02 -0.19911735317E+02  0.31702778478E+02  0.00000000000E+00 0. -1.
         -2    1    1    2    0  502  0.51419837492E+01  0.24127763324E+02 -0.79445562801E+02  0.83187657791E+02  0.00000000000E+00 0.  1.
<mgrwt>
<rscale>  2 0.24669596E+02</rscale>
<asrwt>0</asrwt>
<pdfrwt beam="1">  1       21 0.11948569E-02 0.24669596E+02</pdfrwt>
<pdfrwt beam="2">  1       21 0.16480594E-01 0.24669596E+02</pdfrwt>
<totfact> 0.67059164E+07</totfact>
</mgrwt>
</event>
<event>
 4    1  0.7841599E+004  0.2174012E+02  0.7546771E-02  0.1712786E+00
         21   -1    0    0  503  502  0.00000000000E+00  0.00000000000E+00  0.31330368882E+01  0.31330368882E+01  0.00000000000E+00 0.  1.
         21   -1    0    0  501  503 -0.00000000000E+00 -0.00000000000E+00 -0.17327748458E+03  0.17327748458E+03  0.00000000000E+00 0.  1.
          1    1    1    2  501    0  0.43626752846E+01 -0.21297887867E+02 -0.11680217162E+03  0.11880816579E+03  0.00000000000E+00 0. -1.
         -1    1    1    2    0  502 -0.43626752846E+01  0.21297887867E+02 -0.53342276077E+02  0.57602355683E+02  0.00000000000E+00 0.  1.
<mgrwt>
<rscale>  2 0.21740123E+02</rscale>
<asrwt>0</asrwt>
<pdfrwt beam="1">  1       21 0.48200562E-03 0.21740123E+02</pdfrwt>
<pdfrwt beam="2">  1       21 0.26658078E-01 0.21740123E+02</pdfrwt>
<totfact> 0.10799796E+08</totfact>
</mgrwt>
</event>
<event>
 4    1  0.7841599E+004  0.4929411E+02  0.7546771E-02  0.1449187E+00
         21   -1    0    0  501  502  0.00000000000E+00  0.00000000000E+00  0.82432336534E+02  0.82432336534E+02  0.00000000000E+00 0.  1.
         21   -1    0    0  502  503 -0.00000000000E+00 -0.00000000000E+00 -0.32289745896E+02  0.32289745896E+02  0.00000000000E+00 0.  1.
          2    1    1    2  501    0  0.49269037993E+02 -0.15718633613E+01  0.41999165134E+02  0.64759854317E+02  0.00000000000E+00 0.  1.
         -2    1    1    2    0  503 -0.49269037993E+02  0.15718633613E+01  0.81434255044E+01  0.49962228114E+02  0.00000000000E+00 0. -1.
<mgrwt>
<rscale>  2 0.49294106E+02</rscale>
<asrwt>0</asrwt>
<pdfrwt beam="1">  1       21 0.12681898E-01 0.49294106E+02</pdfrwt>
<pdfrwt beam="2">  1       21 0.49676533E-02 0.49294106E+02</pdfrwt>
<totfact> 0.12804344E+07</totfact>
</mgrwt>
</event>
<event>
 4    1  0.7841599E+004  0.2072819E+02  0.7546771E-02  0.1731223E+00
         21   -1    0    0  503  502  0.00000000000E+00  0.00000000000E+00  0.42775077400E+03  0.42775077400E+03  0.00000000000E+00 0.  1.
         21   -1    0    0  501  503 -0.00000000000E+00 -0.00000000000E+00 -0.10283996702E+01  0.10283996702E+01  0.00000000000E+00 0.  1.
          3    1    1    2  501    0  0.13842842020E+02  0.15428334556E+02  0.18064987828E+03  0.18183518995E+03  0.00000000000E+00 0. -1.
         -3    1    1    2    0  502 -0.13842842020E+02 -0.15428334556E+02  0.24607249606E+03  0.24694398373E+03  0.00000000000E+00 0.  1.
<mgrwt>
<rscale>  2 0.20728188E+02</rscale>
<asrwt>0</asrwt>
<pdfrwt beam="1">  1       21 0.65807669E-01 0.20728188E+02</pdfrwt>
<pdfrwt beam="2">  1       21 0.15821568E-03 0.20728188E+02</pdfrwt>
<totfact> 0.96849298E+07</totfact>
</mgrwt>
</event>
<event>
 4    1  0.7841599E+004  0.2315957E+02  0.7546771E-02  0.1688936E+00
         21   -1    0    0  501  502  0.00000000000E+00  0.00000000000E+00  0.28419260078E+01  0.28419260078E+01  0.00000000000E+00 0. -1.
         21   -1    0    0  502  503 -0.00000000000E+00 -0.00000000000E+00 -0.29355870324E+03  0.29355870324E+03  0.00000000000E+00 0. -1.
          3    1    1    2  501    0 -0.87495334480E+01 -0.21443214177E+02 -0.56798892306E+02  0.61339057190E+02  0.00000000000E+00 0. -1.
         -3    1    1    2    0  503  0.87495334480E+01  0.21443214177E+02 -0.23391788493E+03  0.23506157206E+03  0.00000000000E+00 0.  1.
<mgrwt>
<rscale>  2 0.23159572E+02</rscale>
<asrwt>0</asrwt>
<pdfrwt beam="1">  1       21 0.43721942E-03 0.23159572E+02</pdfrwt>
<pdfrwt beam="2">  1       21 0.45162874E-01 0.23159572E+02</pdfrwt>
<totfact> 0.47773629E+07</totfact>
</mgrwt>
</event>
<event>
 4    1  0.7841599E+004  0.2063451E+02  0.7546771E-02  0.1732997E+00
         21   -1    0    0  501  502  0.00000000000E+00  0.00000000000E+00  0.59659895903E+02  0.59659895903E+02  0.00000000000E+00 0.  1.
         21   -1    0    0  502  503 -0.00000000000E+00 -0.00000000000E+00 -0.74093518413E+01  0.74093518413E+01  0.00000000000E+00 0.  1.
          4    1    1    2  501    0 -0.16382710286E+02 -0.12545504880E+02  0.19693964782E+02  0.28524290313E+02  0.00000000000E+00 0. -1.
         -4    1    1    2    0  503  0.16382710286E+02  0.12545504880E+02  0.32556579280E+02  0.38544957432E+02  0.00000000000E+00 0.  1.
<mgrwt>
<rscale>  2 0.20634507E+02</rscale>
<asrwt>0</asrwt>
<pdfrwt beam="1">  1       21 0.91784452E-02 0.20634507E+02</pdfrwt>
<pdfrwt beam="2">  1       21 0.11399003E-02 0.20634507E+02</pdfrwt>
<totfact> 0.18253632E+08</totfact>
</mgrwt>
</event>
<event>
 4    1  0.7841599E+004  0.2266444E+02  0.7546771E-02  0.1697008E+00
         21   -1    0    0  501  502  0.00000000000E+00  0.00000000000E+00  0.50833820360E+01  0.50833820360E+01  0.00000000000E+00 0. -1.
         21   -1    0    0  502  503 -0.00000000000E+00 -0.00000000000E+00 -0.20260392430E+03  0.20260392430E+03  0.00000000000E+00 0. -1.
          4    1    1    2  501    0 -0.22587521651E+02 -0.18656846553E+01 -0.25240541858E+02  0.33922881170E+02  0.00000000000E+00 0.  1.
         -4    1    1    2    0  503  0.22587521651E+02  0.18656846553E+01 -0.17228000041E+03  0.17376442517E+03  0.00000000000E+00 0. -1.
<mgrwt>
<rscale>  2 0.22664442E+02</rscale>
<asrwt>0</asrwt>
<pdfrwt beam="1">  1       21 0.78205893E-03 0.22664442E+02</pdfrwt>
<pdfrwt beam="2">  1       21 0.31169828E-01 0.22664442E+02</pdfrwt>
<totfact> 0.40186074E+07</totfact>
</mgrwt>
</event>
<event>
 4    1  0.7841599E+004  0.2409095E+02  0.7546771E-02  0.1674413E+00
         21   -1    0    0  503  502  0.00000000000E+00  0.00000000000E+00  0.87564117564E+01  0.87564117564E+01  0.00000000000E+00 0.  1.
         21   -1    0    0  501  503 -0.00000000000E+00 -0.00000000000E+00 -0.66771948095E+02  0.66771948095E+02  0.00000000000E+00 0.  1.
          4    1    1    2  501    0 -0.23063103300E+02  0.69618306727E+01 -0.32249676220E+02  0.40254384065E+02  0.00000000000E+00 0.  1.
         -4    1    1    2    0  502  0.23063103300E+02 -0.69618306727E+01 -0.25765860118E+02  0.35273975786E+02  0.00000000000E+00 0. -1.
<mgrwt>
<rscale>  2 0.24090949E+02</rscale>
<asrwt>0</asrwt>
<pdfrwt beam="1">  1       21 0.13471403E-02 0.24090949E+02</pdfrwt>
<pdfrwt beam="2">  1       21 0.10272607E-01 0.24090949E+02</pdfrwt>
<totfact> 0.12345259E+08</totfact>
</mgrwt>
</event>
<event>
 4    1  0.7841599E+004  0.2925197E+02  0.7546771E-02  0.1606507E+00
         21   -1    0    0  501  502  0.00000000000E+00  0.00000000000E+00  0.17870614683E+02  0.17870614683E+02  0.00000000000E+00 0.  1.
         21   -1    0    0  502  503 -0.00000000000E+00 -0.00000000000E+00 -0.48041706681E+02  0.48041706681E+02  0.00000000000E+00 0.  1.
          1    1    1    2  501    0 -0.78509300017E+01  0.28178730093E+02 -0.16986646010E+02  0.33826381335E+02  0.00000000000E+00 0. -1.
         -1    1    1    2    0  503  0.78509300017E+01 -0.28178730093E+02 -0.13184445988E+02  0.32085940029E+02  0.00000000000E+00 0.  1.
<mgrwt>
<rscale>  2 0.29251973E+02</rscale>
<asrwt>0</asrwt>
<pdfrwt beam="1">  1       21 0.27493254E-02 0.29251973E+02</pdfrwt>
<pdfrwt beam="2">  1       21 0.73910315E-02 0.29251973E+02</pdfrwt>
<totfact> 0.74474099E+07</totfact>
</mgrwt>
</event>
<event>
 4    1  0.7841599E+004  0.2092573E+02  0.7546771E-02  0.1727522E+00
         21   -1    0    0  501  502  0.00000000000E+00  0.00000000000E+00  0.10434894073E+02  0.10434894073E+02  0.00000000000E+00 0.  1.
         21   -1    0    0  502  503 -0.00000000000E+00 -0.00000000000E+00 -0.58249805525E+02  0.58249805525E+02  0.00000000000E+00 0.  1.
          5    1    1    2  501    0  0.11533769152E+02 -0.17460188134E+02 -0.57484374421E+01  0.21700933933E+02  0.00000000000E+00 0. -1.
         -5    1    1    2    0  503 -0.11533769152E+02  0.17460188134E+02 -0.42066474010E+02  0.46983765666E+02  0.00000000000E+00 0.  1.
<mgrwt>
<rscale>  2 0.20925726E+02</rscale>
<asrwt>0</asrwt>
<pdfrwt beam="1">  1       21 0.16053683E-02 0.20925726E+02</pdfrwt>
<pdfrwt beam="2">  1       21 0.89615086E-02 0.20925726E+02</pdfrwt>
<totfact> 0.11369008E+08</totfact>
</mgrwt>
</event>
<event>
 4    1  0.7841599E+004  0.2353549E+02  0.7546771E-02  0.1682974E+00
         21   -1    0    0  501  502  0.00000000000E+00  0.00000000000E+00  0.31804760521E+03  0.31804760521E+03  0.00000000000E+00 0.  1.
         21   -1    0    0  502  503 -0.00000000000E+00 -0.00000000000E+00 -0.17915648857E+01  0.17915648857E+01  0.00000000000E+00 0.  1.
          1    1    1    2  501    0  0.13800794715E+02  0.19064551937E+02  0.13142765784E+03  0.13351834451E+03  0.00000000000E+00 0.  1.
         -1    1    1    2    0  503 -0.13800794715E+02 -0.19064551937E+02  0.18482838248E+03  0.18632082558E+03  0.00000000000E+00 0. -1.
<mgrwt>
<rscale>  2 0.23535485E+02</rscale>
<asrwt>0</asrwt>
<pdfrwt beam="1">  1       21 0.48930356E-01 0.23535485E+02</pdfrwt>
<pdfrwt beam="2">  1       21 0.27562562E-03 0.23535485E+02</pdfrwt>
<totfact> 0.80709003E+07</totfact>
</mgrwt>
</event>
<event>
 4    1  0.7841599E+004  0.2518142E+02  0.7546771E-02  0.1658410E+00
         21   -1    0    0  501  502  0.00000000000E+00  0.00000000000E+00  0.63926372031E+02  0.63926372031E+02  0.00000000000E+00 0. -1.
         21   -1    0    0  502  503 -0.00000000000E+00 -0.00000000000E+00 -0.99479879098E+01  0.99479879098E+01  0.00000000000E+00 0. -1.
          5    1    1    2  501    0  0.64748610269E+01  0.24334745479E+02  0.28973401532E+02  0.38386998569E+02  0.00000000000E+00 0. -1.
         -5    1    1    2    0  503 -0.64748610269E+01 -0.24334745479E+02  0.25004982589E+02  0.35487361371E+02  0.00000000000E+00 0.  1.
<mgrwt>
<rscale>  2 0.25181415E+02</rscale>
<asrwt>0</asrwt>
<pdfrwt beam="1">  1       21 0.98348262E-02 0.25181415E+02</pdfrwt>
<pdfrwt beam="2">  1       21 0.15304597E-02 0.25181415E+02</pdfrwt>
<totfact> 0.11062367E+08</totfact>
</mgrwt>
</event>
<event>
 4    1  0.7841599E+004  0.2081399E+02  0.7546771E-02  0.1729609E+00
         21   -1    0    0  501  502  0.00000000000E+00  0.00000000000E+00  0.33158205481E+03  0.33158205481E+03  0.00000000000E+00 0. -1.
         21   -1    0    0  502  503 -0.00000000000E+00 -0.00000000000E+00 -0.13946091853E+01  0.13946091853E+01  0.00000000000E+00 0. -1.
          5    1    1    2  501    0 -0.20373958777E+02  0.42572252152E+01  0.12325366773E+03  0.12499875508E+03  0.00000000000E+00 0. -1.
         -5    1    1    2    0  503  0.20373958777E+02 -0.42572252152E+01  0.20693377789E+03  0.20797790891E+03  0.00000000000E+00 0.  1.
<mgrwt>
<rscale>  2 0.20813990E+02</rscale>
<asrwt>0</asrwt>
<pdfrwt beam="1">  1       21 0.51012561E-01 0.20813990E+02</pdfrwt>
<pdfrwt beam="2">  1       21 0.21455552E-03 0.20813990E+02</pdfrwt>
<totfact> 0.10362945E+08</totfact>
</mgrwt>
</event>
<event>
 4    1  0.7841599E+004  0.2331116E+02  0.7546771E-02  0.1686515E+00
         21   -1    0    0  501  502  0.00000000000E+00  0.00000000000E+00  0.33205261835E+01  0.33205261835E+01  0.00000000000E+00 0.  1.
         21   -1    0    0  502  503 -0.00000000000E+00 -0.00000000000E+00 -0.22609647371E+03  0.22609647371E+03  0.00000000000E+00 0.  1.
          1    1    1    2  501    0 -0.15220344724E+02  0.17656483804E+02 -0.17167115584E+03  0.17324663362E+03  0.00000000000E+00 0. -1.
         -1    1    1    2    0  503  0.15220344724E+02 -0.17656483804E+02 -0.51104791693E+02  0.56170366279E+02  0.00000000000E+00 0.  1.
<mgrwt>
<rscale>  2 0.23311163E+02</rscale>
<asrwt>0</asrwt>
<pdfrwt beam="1">  1       21 0.51085013E-03 0.23311163E+02</pdfrwt>
<pdfrwt beam="2">  1       21 0.34784076E-01 0.23311163E+02</pdfrwt>
<totfact> 0.62207365E+07</totfact>
</mgrwt>
</event>
<event>
 4    1  0.7841599E+004  0.4184495E+02  0.7546771E-02  0.1495057E+00
         21   -1    0    0  503  502  0.00000000000E+00  0.00000000000E+00  0.15955914749E+03  0.15955914749E+03  0.00000000000E+00 0. -1.
         21   -1    0    0  501  503 -0.00000000000E+00 -0.00000000000E+00 -0.11480169898E+02  0.11480169898E+02  0.00000000000E+00 0. -1.
          3    1    1    2  501    0  0.41254635014E+02 -0.70039040403E+01  0.91997022374E+02  0.10106657067E+03  0.00000000000E+00 0.  1.
         -3    1    1    2    0  502 -0.41254635014E+02  0.70039040403E+01  0.56081955220E+02  0.69972746718E+02  0.00000000000E+00 0. -1.
<mgrwt>
<rscale>  2 0.41844947E+02</rscale>
<asrwt>0</asrwt>
<pdfrwt beam="1">  1       21 0.24547560E-01 0.41844947E+02</pdfrwt>
<pdfrwt beam="2">  1       21 0.17661801E-02 0.41844947E+02</pdfrwt>
<totfact> 0.20188206E+07</totfact>
</mgrwt>
</event>
<event>
 4    1  0.7841599E+004  0.2271490E+02  0.7546771E-02  0.1696174E+00
         21   -1    0    0  501  502  0.00000000000E+00  0.00000000000E+00  0.34663996174E+01  0.34663996174E+01  0.00000000000E+00 0.  1.
         21   -1    0    0  502  503 -0.00000000000E+00 -0.00000000000E+00 -0.15208547853E+03  0.15208547853E+03  0.00000000000E+00 0.  1.
          5    1    1    2  501    0 -0.11903630745E+02 -0.19346071338E+02 -0.62962044877E+02  0.66934191533E+02  0.00000000000E+00 0.  1.
         -5    1    1    2    0  503  0.11903630745E+02  0.19346071338E+02 -0.85657034039E+02  0.88617686617E+02  0.00000000000E+00 0. -1.
<mgrwt>
<rscale>  2 0.22714905E+02</rscale>
<asrwt>0</asrwt>
<pdfrwt beam="1">  1       21 0.53329225E-03 0.22714905E+02</pdfrwt>
<pdfrwt beam="2">  1       21 0.23397766E-01 0.22714905E+02</pdfrwt>
<totfact> 0.11881632E+08</totfact>
</mgrwt>
</event>
<event>
 4    1  0.7841599E+004  0.2113761E+02  0.7546771E-02  0.1723608E+00
         21   -1    0    0  501  502  0.00000000000E+00  0.00000000000E+00  0.19177985118E+01  0.19177985118E+01  0.00000000000E+00 0. -1.
         21   -1    0    0  502  503 -0.00000000000E+00 -0.00000000000E+00 -0.43250760783E+03  0.43250760783E+03  0.00000000000E+00 0. -1.
          1    1    1    2  501    0 -0.15708904577E+02 -0.14143154833E+02 -0.67759713848E+02  0.70980119276E+02  0.00000000000E+00 0. -1.
         -1    1    1    2    0  503  0.15708904577E+02  0.14143154833E+02 -0.36283009547E+03  0.36344528707E+03  0.00000000000E+00 0.  1.
<mgrwt>
<rscale>  2 0.21137609E+02</rscale>
<asrwt>0</asrwt>
<pdfrwt beam="1">  1       21 0.29504568E-03 0.21137609E+02</pdfrwt>
<pdfrwt beam="2">  1       21 0.66539686E-01 0.21137609E+02</pdfrwt>
<totfact> 0.38749070E+07</totfact>
</mgrwt>
</event>
<event>
 4    1  0.7841599E+004  0.2860040E+02  0.7546771E-02  0.1614095E+00
         21   -1    0    0  503  502  0.00000000000E+00  0.00000000000E+00  0.91704174129E+03  0.91704174129E+03  0.00000000000E+00 0.  1.
         21   -1    0    0  501  503 -0.00000000000E+00 -0.00000000000E+00 -0.11256337936E+01  0.11256337936E+01  0.00000000000E+00 0.  1.
          2    1    1    2  501    0  0.12944535422E+02  0.25503375286E+02  0.66711845146E+03  0.66773124191E+03  0.00000000000E+00 0. -1.
         -2    1    1    2    0  502 -0.12944535422E+02 -0.25503375286E+02  0.24879765603E+03  0.25043613317E+03  0.00000000000E+00 0.  1.
<mgrwt>
<rscale>  2 0.28600405E+02</rscale>
<asrwt>0</asrwt>
<pdfrwt beam="1">  1       21 0.14108275E+00 0.28600405E+02</pdfrwt>
<pdfrwt beam="2">  1       21 0.17317516E-03 0.28600405E+02</pdfrwt>
<totfact> 0.17202273E+07</totfact>
</mgrwt>
</event>
<event>
 4    1  0.7841599E+004  0.2049903E+02  0.7546771E-02  0.1735583E+00
         21   -1    0    0  503  502  0.00000000000E+00  0.00000000000E+00  0.35864802587E+01  0.35864802587E+01  0.00000000000E+00 0. -1.
         21   -1    0    0  501  503 -0.00000000000E+00 -0.00000000000E+00 -0.12280567839E+03  0.12280567839E+03  0.00000000000E+00 0. -1.
          3    1    1    2  501    0  0.19868299061E+02  0.50458726025E+01 -0.46065670151E+02  0.50420790398E+02  0.00000000000E+00 0. -1.
         -3    1    1    2    0  502 -0.19868299061E+02 -0.50458726025E+01 -0.73153527977E+02  0.75971368248E+02  0.00000000000E+00 0.  1.
<mgrwt>
<rscale>  2 0.20499028E+02</rscale>
<asrwt>0</asrwt>
<pdfrwt beam="1">  1       21 0.55176623E-03 0.20499028E+02</pdfrwt>
<pdfrwt beam="2">  1       21 0.18893180E-01 0.20499028E+02</pdfrwt>
<totfact> 0.15938166E+08</totfact>
</mgrwt>
</event>
<event>
 4    1  0.7841599E+004  0.2272896E+02  0.7546771E-02  0.1695942E+00
         21   -1    0    0  501  502  0.00000000000E+00  0.00000000000E+00  0.10649627213E+04  0.10649627213E+04  0.00000000000E+00 0.  1.
         21   -1    0    0  502  503 -0.00000000000E+00 -0.00000000000E+00 -0.64682488682E+00  0.64682488682E+00  0.00000000000E+00 0.  1.
          5    1    1    2  501    0  0.15130181508E+02  0.16961225841E+02  0.79858177405E+03  0.79890516046E+03  0.00000000000E+00 0. -1.
         -5    1    1    2    0  503 -0.15130181508E+02 -0.16961225841E+02  0.26573412235E+03  0.26670438570E+03  0.00000000000E+00 0.  1.
<mgrwt>
<rscale>  2 0.22728959E+02</rscale>
<asrwt>0</asrwt>
<pdfrwt beam="1">  1       21 0.16383902E+00 0.22728959E+02</pdfrwt>
<pdfrwt beam="2">  1       21 0.99512373E-04 0.22728959E+02</pdfrwt>
<totfact> 0.25696704E+07</totfact>
</mgrwt>
</event>
<event>
 4    1  0.7841599E+004  0.2220738E+02  0.7546771E-02  0.1704690E+00
         21   -1    0    0  503  502  0.00000000000E+00  0.00000000000E+00  0.19510850541E+02  0.19510850541E+02  0.00000000000E+00 0. -1.
         21   -1    0    0  501  503 -0.00000000000E+00 -0.00000000000E+00 -0.29434280789E+02  0.29434280789E+02  0.00000000000E+00 0. -1.
          2    1    1    2  501    0  0.20416791623E+02 -0.87362738603E+01 -0.14159402351E+02  0.26337360082E+02  0.00000000000E+00 0. -1.
         -2    1    1    2    0  502 -0.20416791623E+02  0.87362738603E+01  0.42359721028E+01  0.22607771248E+02  0.00000000000E+00 0.  1.
<mgrwt>
<rscale>  2 0.22207383E+02</rscale>
<asrwt>0</asrwt>
<pdfrwt beam="1">  1       21 0.30016693E-02 0.22207383E+02</pdfrwt>
<pdfrwt beam="2">  1       21 0.45283509E-02 0.22207383E+02</pdfrwt>
<totfact> 0.13262930E+08</totfact>
</mgrwt>
</event>
<event>
 4    1  0.7841599E+004  0.6881870E+02  0.7546771E-02  0.1364157E+00
         21   -1    0    0  501  502  0.00000000000E+00  0.00000000000E+00  0.14982149096E+03  0.14982149096E+03  0.00000000000E+00 0.  1.
         21   -1    0    0  502  503 -0.00000000000E+00 -0.00000000000E+00 -0.32605228186E+02  0.32605228186E+02  0.00000000000E+00 0.  1.
          4    1    1    2  501    0  0.62713935953E+02  0.28336831180E+02  0.74535653779E+02  0.10144741223E+03  0.00000000000E+00 0. -1.
         -4    1    1    2    0  503 -0.62713935953E+02 -0.28336831180E+02  0.42680608992E+02  0.80979306912E+02  0.00000000000E+00 0.  1.
<mgrwt>
<rscale>  2 0.68818702E+02</rscale>
<asrwt>0</asrwt>
<pdfrwt beam="1">  1       21 0.23049460E-01 0.68818702E+02</pdfrwt>
<pdfrwt beam="2">  1       21 0.50161890E-02 0.68818702E+02</pdfrwt>
<totfact> 0.44916310E+06</totfact>
</mgrwt>
</event>
<event>
 4    1  0.7841599E+004  0.2508156E+02  0.7546771E-02  0.1659833E+00
         21   -1    0    0  501  502  0.00000000000E+00  0.00000000000E+00  0.31368004291E+03  0.31368004291E+03  0.00000000000E+00 0.  1.
         21   -1    0    0  502  503 -0.00000000000E+00 -0.00000000000E+00 -0.21180861528E+01  0.21180861528E+01  0.00000000000E+00 0.  1.
          5    1    1    2  501    0  0.24616498054E+02  0.48075618393E+01  0.11937652346E+03  0.12198294545E+03  0.00000000000E+00 0. -1.
         -5    1    1    2    0  503 -0.24616498054E+02 -0.48075618393E+01  0.19218543330E+03  0.19381518362E+03  0.00000000000E+00 0.  1.
<mgrwt>
<rscale>  2 0.25081560E+02</rscale>
<asrwt>0</asrwt>
<pdfrwt beam="1">  1       21 0.48258431E-01 0.25081560E+02</pdfrwt>
<pdfrwt beam="2">  1       21 0.32585966E-03 0.25081560E+02</pdfrwt>
<totfact> 0.65930697E+07</totfact>
</mgrwt>
</event>
<event>
 4    1  0.7841599E+004  0.3255284E+02  0.7546771E-02  0.1571472E+00
         21   -1    0    0  501  502  0.00000000000E+00  0.00000000000E+00  0.18974524964E+03  0.18974524964E+03  0.00000000000E+00 0. -1.
         21   -1    0    0  502  503 -0.00000000000E+00 -0.00000000000E+00 -0.56664949812E+01  0.56664949812E+01  0.00000000000E+00 0. -1.
          2    1    1    2  501    0  0.25517489417E+02 -0.20212495769E+02  0.10377184537E+03  0.10875791071E+03  0.00000000000E+00 0. -1.
         -2    1    1    2    0  503 -0.25517489417E+02  0.20212495769E+02  0.80306909289E+02  0.86653833908E+02  0.00000000000E+00 0.  1.
<mgrwt>
<rscale>  2 0.32552838E+02</rscale>
<asrwt>0</asrwt>
<pdfrwt beam="1">  1       21 0.29191572E-01 0.32552838E+02</pdfrwt>
<pdfrwt beam="2">  1       21 0.87176860E-03 0.32552838E+02</pdfrwt>
<totfact> 0.41621148E+07</totfact>
</mgrwt>
</event>
<event>
 4    1  0.7841599E+004  0.2318316E+02  0.7546771E-02  0.1688558E+00
         21   -1    0    0  503  502  0.00000000000E+00  0.00000000000E+00  0.83341239527E+01  0.83341239527E+01  0.00000000000E+00 0.  1.
         21   -1    0    0  501  503 -0.00000000000E+00 -0.00000000000E+00 -0.46965220838E+03  0.46965220838E+03  0.00000000000E+00 0.  1.
          4    1    1    2  501    0  0.43415352395E+01  0.22773011449E+02 -0.86798221795E+01  0.24754763011E+02  0.00000000000E+00 0. -1.
         -4    1    1    2    0  502 -0.43415352395E+01 -0.22773011449E+02 -0.45263826225E+03  0.45323156932E+03  0.00000000000E+00 0.  1.
<mgrwt>
<rscale>  2 0.23183162E+02</rscale>
<asrwt>0</asrwt>
<pdfrwt beam="1">  1       21 0.12821727E-02 0.23183162E+02</pdfrwt>
<pdfrwt beam="2">  1       21 0.72254199E-01 0.23183162E+02</pdfrwt>
<totfact> 0.37789477E+06</totfact>
</mgrwt>
</event>
<event>
 4    1  0.7841599E+004  0.2323372E+02  0.7546771E-02  0.1687749E+00
         21   -1    0    0  503  502  0.00000000000E+00  0.00000000000E+00  0.99484937764E+01  0.99484937764E+01  0.00000000000E+00 0.  1.
         21   -1    0    0  501  503 -0.00000000000E+00 -0.00000000000E+00 -0.55926079393E+02  0.55926079393E+02  0.00000000000E+00 0.  1.
          1    1    1    2  501    0 -0.20790168040E+02 -0.10371829147E+02 -0.17303931155E+02  0.28969500521E+02  0.00000000000E+00 0.  1.
         -1    1    1    2    0  502  0.20790168040E+02  0.10371829147E+02 -0.28673654462E+02  0.36905072649E+02  0.00000000000E+00 0. -1.
<mgrwt>
<rscale>  2 0.23233724E+02</rscale>
<asrwt>0</asrwt>
<pdfrwt beam="1">  1       21 0.15305375E-02 0.23233724E+02</pdfrwt>
<pdfrwt beam="2">  1       21 0.86040121E-02 0.23233724E+02</pdfrwt>
<totfact> 0.13478832E+08</totfact>
</mgrwt>
</event>
<event>
 4    1  0.7841599E+004  0.2794824E+02  0.7546771E-02  0.1621942E+00
         21   -1    0    0  501  502  0.00000000000E+00  0.00000000000E+00  0.23395406963E+01  0.23395406963E+01  0.00000000000E+00 0. -1.
         21   -1    0    0  502  503 -0.00000000000E+00 -0.00000000000E+00 -0.46277261605E+03  0.46277261605E+03  0.00000000000E+00 0. -1.
          1    1    1    2  501    0  0.10881121745E+02  0.25743063102E+02 -0.10748009201E+03  0.11105437536E+03  0.00000000000E+00 0. -1.
         -1    1    1    2    0  503 -0.10881121745E+02 -0.25743063102E+02 -0.35295298334E+03  0.35405778139E+03  0.00000000000E+00 0.  1.
<mgrwt>
<rscale>  2 0.27948240E+02</rscale>
<asrwt>0</asrwt>
<pdfrwt beam="1">  1       21 0.35992916E-03 0.27948240E+02</pdfrwt>
<pdfrwt beam="2">  1       21 0.71195823E-01 0.27948240E+02</pdfrwt>
<totfact> 0.26720433E+07</totfact>
</mgrwt>
</event>
<event>
 4    1  0.7841599E+004  0.2488800E+02  0.7546771E-02  0.1662616E+00
         21   -1    0    0  501  502  0.00000000000E+00  0.00000000000E+00  0.18026532740E+01  0.18026532740E+01  0.00000000000E+00 0. -1.
         21   -1    0    0  502  503 -0.00000000000E+00 -0.00000000000E+00 -0.47328978706E+03  0.47328978706E+03  0.00000000000E+00 0. -1.
          5    1    1    2  501    0  0.24061450152E+02 -0.63607406058E+01 -0.36008566236E+03  0.36094472796E+03  0.00000000000E+00 0.  1.
         -5    1    1    2    0  503 -0.24061450152E+02  0.63607406058E+01 -0.11140147142E+03  0.11414771237E+03  0.00000000000E+00 0. -1.
<mgrwt>
<rscale>  2 0.24887997E+02</rscale>
<asrwt>0</asrwt>
<pdfrwt beam="1">  1       21 0.27733110E-03 0.24887997E+02</pdfrwt>
<pdfrwt beam="2">  1       21 0.72813858E-01 0.24887997E+02</pdfrwt>
<totfact> 0.36539811E+07</totfact>
</mgrwt>
</event>
<event>
 4    1  0.7841599E+004  0.2053814E+02  0.7546771E-02  0.1734834E+00
         21   -1    0    0  501  502  0.00000000000E+00  0.00000000000E+00  0.35585135053E+03  0.35585135053E+03  0.00000000000E+00 0. -1.
         21   -1    0    0  502  503 -0.00000000000E+00 -0.00000000000E+00 -0.15614367405E+01  0.15614367405E+01  0.00000000000E+00 0. -1.
          5    1    1    2  501    0  0.15220115931E+02 -0.13789964942E+02  0.89442634837E+02  0.91770365525E+02  0.00000000000E+00 0. -1.
         -5    1    1    2    0  503 -0.15220115931E+02  0.13789964942E+02  0.26484727896E+03  0.26564242175E+03  0.00000000000E+00 0.  1.
<mgrwt>
<rscale>  2 0.20538137E+02</rscale>
<asrwt>0</asrwt>
<pdfrwt beam="1">  1       21 0.54746297E-01 0.20538137E+02</pdfrwt>
<pdfrwt beam="2">  1       21 0.24022132E-03 0.20538137E+02</pdfrwt>
<totfact> 0.76439232E+07</totfact>
</mgrwt>
</event>
<event>
 4    1  0.7841599E+004  0.2823418E+02  0.7546771E-02  0.1618470E+00
         21   -1    0    0  501  502  0.00000000000E+00  0.00000000000E+00  0.13961693549E+02  0.13961693549E+02  0.00000000000E+00 0.  1.
         21   -1    0    0  502  503 -0.00000000000E+00 -0.00000000000E+00 -0.60819345838E+02  0.60819345838E+02  0.00000000000E+00 0.  1.
          3    1    1    2  501    0  0.22841486872E+02 -0.16596247581E+02 -0.32679146256E+02  0.43186752093E+02  0.00000000000E+00 0.  1.
         -3    1    1    2    0  503 -0.22841486872E+02  0.16596247581E+02 -0.14178506034E+02  0.31594287294E+02  0.00000000000E+00 0. -1.
<mgrwt>
<rscale>  2 0.28234181E+02</rscale>
<asrwt>0</asrwt>
<pdfrwt beam="1">  1       21 0.21479529E-02 0.28234181E+02</pdfrwt>
<pdfrwt beam="2">  1       21 0.93568224E-02 0.28234181E+02</pdfrwt>
<totfact> 0.73481422E+07</totfact>
</mgrwt>
</event>
<event>
 4    1  0.7841599E+004  0.2045304E+02  0.7546771E-02  0.1736466E+00
         21   -1    0    0  501  502  0.00000000000E+00  0.00000000000E+00  0.24027078554E+03  0.24027078554E+03  0.00000000000E+00 0.  1.
         21   -1    0    0  502  503 -0.00000000000E+00 -0.00000000000E+00 -0.17647217902E+01  0.17647217902E+01  0.00000000000E+00 0.  1.
          1    1    1    2  501    0 -0.17040544315E+02 -0.11311354783E+02  0.13326486301E+03  0.13482525954E+03  0.00000000000E+00 0. -1.
         -1    1    1    2    0  503  0.17040544315E+02  0.11311354783E+02  0.10524120074E+03  0.10721024779E+03  0.00000000000E+00 0.  1.
<mgrwt>
<rscale>  2 0.20453041E+02</rscale>
<asrwt>0</asrwt>
<pdfrwt beam="1">  1       21 0.36964710E-01 0.20453041E+02</pdfrwt>
<pdfrwt beam="2">  1       21 0.27149585E-03 0.20453041E+02</pdfrwt>
<totfact> 0.13521954E+08</totfact>
</mgrwt>
</event>
<event>
 4    1  0.7841599E+004  0.2705597E+02  0.7546771E-02  0.1633114E+00
         21   -1    0    0  501  502  0.00000000000E+00  0.00000000000E+00  0.14368946762E+03  0.14368946762E+03  0.00000000000E+00 0. -1.
         21   -1    0    0  502  503 -0.00000000000E+00 -0.00000000000E+00 -0.67012504898E+01  0.67012504898E+01  0.00000000000E+00 0. -1.
          1    1    1    2  501    0  0.11813339846E+02 -0.24340720356E+02  0.10531443542E+03  0.10873433668E+03  0.00000000000E+00 0. -1.
         -1    1    1    2    0  503 -0.11813339846E+02  0.24340720356E+02  0.31673781705E+02  0.41656381423E+02  0.00000000000E+00 0.  1.
<mgrwt>
<rscale>  2 0.27055973E+02</rscale>
<asrwt>0</asrwt>
<pdfrwt beam="1">  1       21 0.22106070E-01 0.27055973E+02</pdfrwt>
<pdfrwt beam="2">  1       21 0.10309617E-02 0.27055973E+02</pdfrwt>
<totfact> 0.51303643E+07</totfact>
</mgrwt>
</event>
<event>
 4    1  0.7841599E+004  0.3806539E+02  0.7546771E-02  0.1522951E+00
         21   -1    0    0  503  502  0.00000000000E+00  0.00000000000E+00  0.13043881334E+04  0.13043881334E+04  0.00000000000E+00 0.  1.
         21   -1    0    0  501  503 -0.00000000000E+00 -0.00000000000E+00 -0.12567898673E+01  0.12567898673E+01  0.00000000000E+00 0.  1.
          5    1    1    2  501    0 -0.35245529621E+02  0.14377990934E+02  0.87402831234E+03  0.87485682529E+03  0.00000000000E+00 0. -1.
         -5    1    1    2    0  502  0.35245529621E+02 -0.14377990934E+02  0.42910303117E+03  0.43078809796E+03  0.00000000000E+00 0.  1.
<mgrwt>
<rscale>  2 0.38065391E+02</rscale>
<asrwt>0</asrwt>
<pdfrwt beam="1">  1       21 0.20067401E+00 0.38065391E+02</pdfrwt>
<pdfrwt beam="2">  1       21 0.19335333E-03 0.38065391E+02</pdfrwt>
<totfact> 0.62306990E+06</totfact>
</mgrwt>
</event>
<event>
 4    1  0.7841599E+004  0.2204908E+02  0.7546771E-02  0.1707405E+00
         21   -1    0    0  501  502  0.00000000000E+00  0.00000000000E+00  0.85844824575E+01  0.85844824575E+01  0.00000000000E+00 0.  1.
         21   -1    0    0  502  503 -0.00000000000E+00 -0.00000000000E+00 -0.57269178114E+02  0.57269178114E+02  0.00000000000E+00 0.  1.
          4    1    1    2  501    0 -0.18305853916E+02  0.12290548255E+02 -0.27813736718E+02  0.35493179827E+02  0.00000000000E+00 0.  1.
         -4    1    1    2    0  503  0.18305853916E+02 -0.12290548255E+02 -0.20870958938E+02  0.30360480744E+02  0.00000000000E+00 0. -1.
<mgrwt>
<rscale>  2 0.22049079E+02</rscale>
<asrwt>0</asrwt>
<pdfrwt beam="1">  1       21 0.13206896E-02 0.22049079E+02</pdfrwt>
<pdfrwt beam="2">  1       21 0.88106428E-02 0.22049079E+02</pdfrwt>
<totfact> 0.15960723E+08</totfact>
</mgrwt>
</event>
<event>
 4    1  0.7841599E+004  0.2559023E+02  0.7546771E-02  0.1652666E+00
         21   -1    0    0  503  502  0.00000000000E+00  0.00000000000E+00  0.63488321770E+02  0.63488321770E+02  0.00000000000E+00 0.  1.
         21   -1    0    0  501  503 -0.00000000000E+00 -0.00000000000E+00 -0.10348398928E+02  0.10348398928E+02  0.00000000000E+00 0.  1.
          3    1    1    2  501    0 -0.21758207744E+02 -0.13469971083E+02  0.24461599156E+02  0.35400982451E+02  0.00000000000E+00 0. -1.
         -3    1    1    2    0  502  0.21758207744E+02  0.13469971083E+02  0.28678323686E+02  0.38435738248E+02  0.00000000000E+00 0.  1.
<mgrwt>
<rscale>  2 0.25590227E+02</rscale>
<asrwt>0</asrwt>
<pdfrwt beam="1">  1       21 0.97674339E-02 0.25590227E+02</pdfrwt>
<pdfrwt beam="2">  1       21 0.15920614E-02 0.25590227E+02</pdfrwt>
<totfact> 0.10579865E+08</totfact>
</mgrwt>
</event>
<event>
 4    1  0.7841599E+004  0.3527273E+02  0.7546771E-02  0.1546192E+00
         21   -1    0    0  501  502  0.00000000000E+00  0.00000000000E+00  0.34658030074E+02  0.34658030074E+02  0.00000000000E+00 0. -1.
         21   -1    0    0  502  503 -0.00000000000E+00 -0.00000000000E+00 -0.37316463462E+02  0.37316463462E+02  0.00000000000E+00 0. -1.
          4    1    1    2  501    0 -0.15233123445E+02  0.31813791904E+02  0.56862556247E+01  0.35728124891E+02  0.00000000000E+00 0. -1.
         -4    1    1    2    0  503  0.15233123445E+02 -0.31813791904E+02 -0.83446890123E+01  0.36246368645E+02  0.00000000000E+00 0.  1.
<mgrwt>
<rscale>  2 0.35272729E+02</rscale>
<asrwt>0</asrwt>
<pdfrwt beam="1">  1       21 0.53320046E-02 0.35272729E+02</pdfrwt>
<pdfrwt beam="2">  1       21 0.57409944E-02 0.35272729E+02</pdfrwt>
<totfact> 0.40812159E+07</totfact>
</mgrwt>
</event>
<event>
 4    1  0.7841599E+004  0.2405767E+02  0.7546771E-02  0.1674918E+00
         21   -1    0    0  501  502  0.00000000000E+00  0.00000000000E+00  0.40577664934E+02  0.40577664934E+02  0.00000000000E+00 0.  1.
         21   -1    0    0  502  503 -0.00000000000E+00 -0.00000000000E+00 -0.14280176949E+02  0.14280176949E+02  0.00000000000E+00 0.  1.
          3    1    1    2  501    0  0.12514289067E+02 -0.20546630553E+02  0.14091660282E+02  0.27880931610E+02  0.00000000000E+00 0.  1.
         -3    1    1    2    0  503 -0.12514289067E+02  0.20546630553E+02  0.12205827703E+02  0.26976910273E+02  0.00000000000E+00 0. -1.
<mgrwt>
<rscale>  2 0.24057669E+02</rscale>
<asrwt>0</asrwt>
<pdfrwt beam="1">  1       21 0.62427176E-02 0.24057669E+02</pdfrwt>
<pdfrwt beam="2">  1       21 0.21969503E-02 0.24057669E+02</pdfrwt>
<totfact> 0.13189039E+08</totfact>
</mgrwt>
</event>
<event>
 4    1  0.7841599E+004  0.2233323E+02  0.7546771E-02  0.1702552E+00
         21   -1    0    0  503  502  0.00000000000E+00  0.00000000000E+00  0.26173183414E+03  0.26173183414E+03  0.00000000000E+00 0. -1.
         21   -1    0    0  501  503 -0.00000000000E+00 -0.00000000000E+00 -0.19154155919E+01  0.19154155919E+01  0.00000000000E+00 0. -1.
          1    1    1    2  501    0 -0.21712434517E+02  0.52290847994E+01  0.12050270838E+03  0.12255478721E+03  0.00000000000E+00 0.  1.
         -1    1    1    2    0  502  0.21712434517E+02 -0.52290847994E+01  0.13931371016E+03  0.14109246252E+03  0.00000000000E+00 0. -1.
<mgrwt>
<rscale>  2 0.22333230E+02</rscale>
<asrwt>0</asrwt>
<pdfrwt beam="1">  1       21 0.40266408E-01 0.22333230E+02</pdfrwt>
<pdfrwt beam="2">  1       21 0.29467953E-03 0.22333230E+02</pdfrwt>
<totfact> 0.10483963E+08</totfact>
</mgrwt>
</event>
<event>
 4    1  0.7841599E+004  0.2391504E+02  0.7546771E-02  0.1677093E+00
         21   -1    0    0  501  502  0.00000000000E+00  0.00000000000E+00  0.10018878356E+01  0.10018878356E+01  0.00000000000E+00 0. -1.
         21   -1    0    0  502  503 -0.00000000000E+00 -0.00000000000E+00 -0.85091333641E+03  0.85091333641E+03  0.00000000000E+00 0. -1.
          5    1    1    2  501    0  0.20067458100E+02  0.13008706806E+02 -0.18058421801E+03  0.18216088801E+03  0.00000000000E+00 0. -1.
         -5    1    1    2    0  503 -0.20067458100E+02 -0.13008706806E+02 -0.66932723057E+03  0.66975433624E+03  0.00000000000E+00 0.  1.
<mgrwt>
<rscale>  2 0.23915044E+02</rscale>
<asrwt>0</asrwt>
<pdfrwt beam="1">  1       21 0.15413756E-03 0.23915044E+02</pdfrwt>
<pdfrwt beam="2">  1       21 0.13090892E+00 0.23915044E+02</pdfrwt>
<totfact> 0.23556363E+07</totfact>
</mgrwt>
</event>
<event>
 4    1  0.7841599E+004  0.2390789E+02  0.7546771E-02  0.1677202E+00
         21   -1    0    0  503  502  0.00000000000E+00  0.00000000000E+00  0.50244793633E+02  0.50244793633E+02  0.00000000000E+00 0. -1.
         21   -1    0    0  501  503 -0.00000000000E+00 -0.00000000000E+00 -0.12139572375E+02  0.12139572375E+02  0.00000000000E+00 0. -1.
          4    1    1    2  501    0  0.18224460365E+02  0.15474380713E+02  0.26875266535E+02  0.35970367879E+02  0.00000000000E+00 0. -1.
         -4    1    1    2    0  502 -0.18224460365E+02 -0.15474380713E+02  0.11229954724E+02  0.26413998129E+02  0.00000000000E+00 0.  1.
<mgrwt>
<rscale>  2 0.23907894E+02</rscale>
<asrwt>0</asrwt>
<pdfrwt beam="1">  1       21 0.77299681E-02 0.23907894E+02</pdfrwt>
<pdfrwt beam="2">  1       21 0.18676265E-02 0.23907894E+02</pdfrwt>
<totfact> 0.11949541E+08</totfact>
</mgrwt>
</event>
<event>
 4    1  0.7841599E+004  0.3410220E+02  0.7546771E-02  0.1556721E+00
         21   -1    0    0  503  502  0.00000000000E+00  0.00000000000E+00  0.60756808336E+03  0.60756808336E+03  0.00000000000E+00 0.  1.
         21   -1    0    0  501  503 -0.00000000000E+00 -0.00000000000E+00 -0.19258196239E+01  0.19258196239E+01  0.00000000000E+00 0.  1.
          5    1    1    2  501    0 -0.30411858055E+02 -0.15429799929E+02  0.32657137887E+03  0.32834711105E+03  0.00000000000E+00 0.  1.
         -5    1    1    2    0  502  0.30411858055E+02  0.15429799929E+02  0.27907088486E+03  0.28114679193E+03  0.00000000000E+00 0. -1.
<mgrwt>
<rscale>  2 0.34102197E+02</rscale>
<asrwt>0</asrwt>
<pdfrwt beam="1">  1       21 0.93471860E-01 0.34102197E+02</pdfrwt>
<pdfrwt beam="2">  1       21 0.29628043E-03 0.34102197E+02</pdfrwt>
<totfact> 0.20587055E+07</totfact>
</mgrwt>
</event>
<event>
 4    1  0.7841599E+004  0.2394224E+02  0.7546771E-02  0.1676677E+00
         21   -1    0    0  503  502  0.00000000000E+00  0.00000000000E+00  0.26638668033E+01  0.26638668033E+01  0.00000000000E+00 0. -1.
         21   -1    0    0  501  503 -0.00000000000E+00 -0.00000000000E+00 -0.21676193560E+03  0.21676193560E+03  0.00000000000E+00 0. -1.
          4    1    1    2  501    0  0.12143010144E+02  0.20634392077E+02 -0.97698661090E+02  0.10058955816E+03  0.00000000000E+00 0. -1.
         -4    1    1    2    0  502 -0.12143010144E+02 -0.20634392077E+02 -0.11639940771E+03  0.11883624425E+03  0.00000000000E+00 0.  1.
<mgrwt>
<rscale>  2 0.23942239E+02</rscale>
<asrwt>0</asrwt>
<pdfrwt beam="1">  1       21 0.40982546E-03 0.23942239E+02</pdfrwt>
<pdfrwt beam="2">  1       21 0.33348006E-01 0.23942239E+02</pdfrwt>
<totfact> 0.93672448E+07</totfact>
</mgrwt>
</event>
<event>
 4    1  0.7841599E+004  0.2358503E+02  0.7546771E-02  0.1682199E+00
         21   -1    0    0  503  502  0.00000000000E+00  0.00000000000E+00  0.21419003657E+01  0.21419003657E+01  0.00000000000E+00 0. -1.
         21   -1    0    0  501  503 -0.00000000000E+00 -0.00000000000E+00 -0.26318536386E+03  0.26318536386E+03  0.00000000000E+00 0. -1.
          3    1    1    2  501    0  0.22944892340E+02 -0.54576045786E+01 -0.14578637590E+03  0.14768182329E+03  0.00000000000E+00 0. -1.
         -3    1    1    2    0  502 -0.22944892340E+02  0.54576045786E+01 -0.11525708760E+03  0.11764544094E+03  0.00000000000E+00 0.  1.
<mgrwt>
<rscale>  2 0.23585028E+02</rscale>
<asrwt>0</asrwt>
<pdfrwt beam="1">  1       21 0.32952314E-03 0.23585028E+02</pdfrwt>
<pdfrwt beam="2">  1       21 0.40490055E-01 0.23585028E+02</pdfrwt>
<totfact> 0.89419182E+07</totfact>
</mgrwt>
</event>
<event>
 4    1  0.7841599E+004  0.2200956E+02  0.7546771E-02  0.1708087E+00
         21   -1    0    0  501  502  0.00000000000E+00  0.00000000000E+00  0.19845757958E+02  0.19845757958E+02  0.00000000000E+00 0.  1.
         21   -1    0    0  502  503 -0.00000000000E+00 -0.00000000000E+00 -0.24731640601E+02  0.24731640601E+02  0.00000000000E+00 0.  1.
          2    1    1    2  501    0 -0.21774869295E+02  0.32056117889E+01  0.10167246982E+00  0.22009798205E+02  0.00000000000E+00 0.  1.
         -2    1    1    2    0  503  0.21774869295E+02 -0.32056117889E+01 -0.49875551121E+01  0.22567600354E+02  0.00000000000E+00 0. -1.
<mgrwt>
<rscale>  2 0.22009563E+02</rscale>
<asrwt>0</asrwt>
<pdfrwt beam="1">  1       21 0.30531936E-02 0.22009563E+02</pdfrwt>
<pdfrwt beam="2">  1       21 0.38048677E-02 0.22009563E+02</pdfrwt>
<totfact> 0.16946933E+08</totfact>
</mgrwt>
</event>
<event>
 4    1  0.7841599E+004  0.3193830E+02  0.7546771E-02  0.1577601E+00
         21   -1    0    0  501  502  0.00000000000E+00  0.00000000000E+00  0.60205125337E+00  0.60205125337E+00  0.00000000000E+00 0.  1.
         21   -1    0    0  502  503 -0.00000000000E+00 -0.00000000000E+00 -0.22783516670E+04  0.22783516670E+04  0.00000000000E+00 0.  1.
          3    1    1    2  501    0 -0.30721180867E+02  0.87329274576E+01 -0.56194756110E+03  0.56285443624E+03  0.00000000000E+00 0.  1.
         -3    1    1    2    0  503  0.30721180867E+02 -0.87329274576E+01 -0.17158020546E+04  0.17160992820E+04  0.00000000000E+00 0. -1.
<mgrwt>
<rscale>  2 0.31938300E+02</rscale>
<asrwt>0</asrwt>
<pdfrwt beam="1">  1       21 0.92624881E-04 0.31938300E+02</pdfrwt>
<pdfrwt beam="2">  1       21 0.35050955E+00 0.31938300E+02</pdfrwt>
<totfact> 0.30059919E+06</totfact>
</mgrwt>
</event>
<event>
 4    1  0.7841599E+004  0.3153816E+02  0.7546771E-02  0.1581683E+00
         21   -1    0    0  503  502  0.00000000000E+00  0.00000000000E+00  0.18207533879E+03  0.18207533879E+03  0.00000000000E+00 0. -1.
         21   -1    0    0  501  503 -0.00000000000E+00 -0.00000000000E+00 -0.11826396786E+02  0.11826396786E+02  0.00000000000E+00 0. -1.
          5    1    1    2  501    0  0.29007603421E+02 -0.12377991155E+02  0.14007364928E+02  0.34508868331E+02  0.00000000000E+00 0. -1.
         -5    1    1    2    0  502 -0.29007603421E+02  0.12377991155E+02  0.15624157708E+03  0.15939286725E+03  0.00000000000E+00 0.  1.
<mgrwt>
<rscale>  2 0.31538163E+02</rscale>
<asrwt>0</asrwt>
<pdfrwt beam="1">  1       21 0.28011589E-01 0.31538163E+02</pdfrwt>
<pdfrwt beam="2">  1       21 0.18194458E-02 0.31538163E+02</pdfrwt>
<totfact> 0.14487018E+07</totfact>
</mgrwt>
</event>
<event>
 4    1  0.7841599E+004  0.2568024E+02  0.7546771E-02  0.1651419E+00
         21   -1    0    0  501  502  0.00000000000E+00  0.00000000000E+00  0.19532769757E+02  0.19532769757E+02  0.00000000000E+00 0.  1.
         21   -1    0    0  502  503 -0.00000000000E+00 -0.00000000000E+00 -0.33771394385E+02  0.33771394385E+02  0.00000000000E+00 0.  1.
          2    1    1    2  501    0  0.24930038726E+02 -0.61618145974E+01 -0.75522747754E+01  0.26767735136E+02  0.00000000000E+00 0.  1.
         -2    1    1    2    0  503 -0.24930038726E+02  0.61618145974E+01 -0.66863498525E+01  0.26536429005E+02  0.00000000000E+00 0. -1.
<mgrwt>
<rscale>  2 0.25680241E+02</rscale>
<asrwt>0</asrwt>
<pdfrwt beam="1">  1       21 0.30050415E-02 0.25680241E+02</pdfrwt>
<pdfrwt beam="2">  1       21 0.51955991E-02 0.25680241E+02</pdfrwt>
<totfact> 0.11091829E+08</totfact>
</mgrwt>
</event>
<event>
 4    1  0.7841599E+004  0.2342783E+02  0.7546771E-02  0.1684668E+00
         21   -1    0    0  503  502  0.00000000000E+00  0.00000000000E+00  0.27234597237E+01  0.27234597237E+01  0.00000000000E+00 0.  1.
         21   -1    0    0  501  503 -0.00000000000E+00 -0.00000000000E+00 -0.20745653502E+03  0.20745653502E+03  0.00000000000E+00 0.  1.
          1    1    1    2  501    0 -0.30991553761E+01  0.23221934199E+02 -0.84606562328E+02  0.87790280674E+02  0.00000000000E+00 0. -1.
         -1    1    1    2    0  502  0.30991553761E+01 -0.23221934199E+02 -0.12012651297E+03  0.12238971407E+03  0.00000000000E+00 0.  1.
<mgrwt>
<rscale>  2 0.23427825E+02</rscale>
<asrwt>0</asrwt>
<pdfrwt beam="1">  1       21 0.41899360E-03 0.23427825E+02</pdfrwt>
<pdfrwt beam="2">  1       21 0.31916406E-01 0.23427825E+02</pdfrwt>
<totfact> 0.97734133E+07</totfact>
</mgrwt>
</event>
<event>
 4    1  0.7841599E+004  0.2171250E+02  0.7546771E-02  0.1713272E+00
         21   -1    0    0  501  502  0.00000000000E+00  0.00000000000E+00  0.90748879715E+03  0.90748879715E+03  0.00000000000E+00 0.  1.
         21   -1    0    0  502  503 -0.00000000000E+00 -0.00000000000E+00 -0.11849162552E+01  0.11849162552E+01  0.00000000000E+00 0.  1.
          2    1    1    2  501    0  0.31003430467E+01  0.21490012997E+02  0.79362565766E+03  0.79392261416E+03  0.00000000000E+00 0. -1.
         -2    1    1    2    0  503 -0.31003430467E+01 -0.21490012997E+02  0.11267822324E+03  0.11475109924E+03  0.00000000000E+00 0.  1.
<mgrwt>
<rscale>  2 0.21712503E+02</rscale>
<asrwt>0</asrwt>
<pdfrwt beam="1">  1       21 0.13961311E+00 0.21712503E+02</pdfrwt>
<pdfrwt beam="2">  1       21 0.18229553E-03 0.21712503E+02</pdfrwt>
<totfact> 0.15675421E+07</totfact>
</mgrwt>
</event>
<event>
 4    1  0.7841599E+004  0.2666322E+02  0.7546771E-02  0.1638201E+00
         21   -1    0    0  501  502  0.00000000000E+00  0.00000000000E+00  0.24739641648E+02  0.24739641648E+02  0.00000000000E+00 0. -1.
         21   -1    0    0  502  503 -0.00000000000E+00 -0.00000000000E+00 -0.37678279054E+02  0.37678279054E+02  0.00000000000E+00 0. -1.
          2    1    1    2  501    0  0.24600438474E+02  0.10283262892E+02 -0.21673019557E+02  0.34360541986E+02  0.00000000000E+00 0.  1.
         -2    1    1    2    0  503 -0.24600438474E+02 -0.10283262892E+02  0.87343821514E+01  0.28057378716E+02  0.00000000000E+00 0. -1.
<mgrwt>
<rscale>  2 0.26663216E+02</rscale>
<asrwt>0</asrwt>
<pdfrwt beam="1">  1       21 0.38060987E-02 0.26663216E+02</pdfrwt>
<pdfrwt beam="2">  1       21 0.57966583E-02 0.26663216E+02</pdfrwt>
<totfact> 0.64775831E+07</totfact>
</mgrwt>
</event>
<event>
 4    1  0.7841599E+004  0.2225143E+02  0.7546771E-02  0.1703940E+00
         21   -1    0    0  503  502  0.00000000000E+00  0.00000000000E+00  0.53846601361E+02  0.53846601361E+02  0.00000000000E+00 0.  1.
         21   -1    0    0  501  503 -0.00000000000E+00 -0.00000000000E+00 -0.15362974925E+02  0.15362974925E+02  0.00000000000E+00 0.  1.
          2    1    1    2  501    0 -0.22074855926E+02 -0.27976152423E+01 -0.26845012729E+01  0.22412774533E+02  0.00000000000E+00 0. -1.
         -2    1    1    2    0  502  0.22074855926E+02  0.27976152423E+01  0.41168127709E+02  0.46796801753E+02  0.00000000000E+00 0.  1.
<mgrwt>
<rscale>  2 0.22251425E+02</rscale>
<asrwt>0</asrwt>
<pdfrwt beam="1">  1       21 0.82840924E-02 0.22251425E+02</pdfrwt>
<pdfrwt beam="2">  1       21 0.23635346E-02 0.22251425E+02</pdfrwt>
<totfact> 0.72815501E+07</totfact>
</mgrwt>
</event>
<event>
 4    1  0.7841599E+004  0.2325081E+02  0.7546771E-02  0.1687477E+00
         21   -1    0    0  501  502  0.00000000000E+00  0.00000000000E+00  0.17576807113E+04  0.17576807113E+04  0.00000000000E+00 0. -1.
         21   -1    0    0  502  503 -0.00000000000E+00 -0.00000000000E+00 -0.34350484862E+00  0.34350484862E+00  0.00000000000E+00 0. -1.
          2    1    1    2  501    0 -0.17988145192E+02  0.14731827840E+02  0.11629967180E+04  0.11632291117E+04  0.00000000000E+00 0.  1.
         -2    1    1    2    0  503  0.17988145192E+02 -0.14731827840E+02  0.59434048844E+03  0.59479510448E+03  0.00000000000E+00 0. -1.
<mgrwt>
<rscale>  2 0.23250809E+02</rscale>
<asrwt>0</asrwt>
<pdfrwt beam="1">  1       21 0.27040522E+00 0.23250809E+02</pdfrwt>
<pdfrwt beam="2">  1       21 0.52848307E-04 0.23250809E+02</pdfrwt>
<totfact> 0.16686815E+07</totfact>
</mgrwt>
</event>
<event>
 4    1  0.7841599E+004  0.2748110E+02  0.7546771E-02  0.1627726E+00
         21   -1    0    0  503  502  0.00000000000E+00  0.00000000000E+00  0.62546040264E+02  0.62546040264E+02  0.00000000000E+00 0.  1.
         21   -1    0    0  501  503 -0.00000000000E+00 -0.00000000000E+00 -0.19173351044E+02  0.19173351044E+02  0.00000000000E+00 0.  1.
          5    1    1    2  501    0 -0.11003615786E+02  0.25181966945E+02 -0.31759212697E+01  0.27664010835E+02  0.00000000000E+00 0.  1.
         -5    1    1    2    0  502  0.11003615786E+02 -0.25181966945E+02  0.46548610489E+02  0.54055380473E+02  0.00000000000E+00 0. -1.
<mgrwt>
<rscale>  2 0.27481103E+02</rscale>
<asrwt>0</asrwt>
<pdfrwt beam="1">  1       21 0.96224677E-02 0.27481103E+02</pdfrwt>
<pdfrwt beam="2">  1       21 0.29497463E-02 0.27481103E+02</pdfrwt>
<totfact> 0.42517730E+07</totfact>
</mgrwt>
</event>
<event>
 4    1  0.7841599E+004  0.2849110E+02  0.7546771E-02  0.1615393E+00
         21   -1    0    0  503  502  0.00000000000E+00  0.00000000000E+00  0.36753684702E+02  0.36753684702E+02  0.00000000000E+00 0. -1.
         21   -1    0    0  501  503 -0.00000000000E+00 -0.00000000000E+00 -0.22399411047E+02  0.22399411047E+02  0.00000000000E+00 0. -1.
          4    1    1    2  501    0 -0.20010823279E+02 -0.20280770407E+02  0.10675548749E+02  0.30425483361E+02  0.00000000000E+00 0.  1.
         -4    1    1    2    0  502  0.20010823279E+02  0.20280770407E+02  0.36787249057E+01  0.28727612389E+02  0.00000000000E+00 0. -1.
<mgrwt>
<rscale>  2 0.28491099E+02</rscale>
<asrwt>0</asrwt>
<pdfrwt beam="1">  1       21 0.56544130E-02 0.28491099E+02</pdfrwt>
<pdfrwt beam="2">  1       21 0.34460632E-02 0.28491099E+02</pdfrwt>
<totfact> 0.80202908E+07</totfact>
</mgrwt>
</event>
<event>
 4    1  0.7841599E+004  0.2112059E+02  0.7546771E-02  0.1723920E+00
         21   -1    0    0  501  502  0.00000000000E+00  0.00000000000E+00  0.23196866005E+01  0.23196866005E+01  0.00000000000E+00 0. -1.
         21   -1    0    0  502  503 -0.00000000000E+00 -0.00000000000E+00 -0.21245729643E+03  0.21245729643E+03  0.00000000000E+00 0. -1.
          4    1    1    2  501    0  0.20094460845E+02 -0.65032186948E+01 -0.13814548486E+03  0.13975068586E+03  0.00000000000E+00 0.  1.
         -4    1    1    2    0  503 -0.20094460845E+02  0.65032186948E+01 -0.71992124963E+02  0.75026297168E+02  0.00000000000E+00 0. -1.
<mgrwt>
<rscale>  2 0.21120587E+02</rscale>
<asrwt>0</asrwt>
<pdfrwt beam="1">  1       21 0.35687492E-03 0.21120587E+02</pdfrwt>
<pdfrwt beam="2">  1       21 0.32685733E-01 0.21120587E+02</pdfrwt>
<totfact> 0.11503963E+08</totfact>
</mgrwt>
</event>
<event>
 4    1  0.7841599E+004  0.2228373E+02  0.7546771E-02  0.1703391E+00
         21   -1    0    0  501  502  0.00000000000E+00  0.00000000000E+00  0.89120028617E+02  0.89120028617E+02  0.00000000000E+00 0.  1.
         21   -1    0    0  502  503 -0.00000000000E+00 -0.00000000000E+00 -0.60282292909E+01  0.60282292909E+01  0.00000000000E+00 0.  1.
          3    1    1    2  501    0  0.14376625249E+02 -0.17025780581E+02  0.54635696750E+02  0.59005287198E+02  0.00000000000E+00 0. -1.
         -3    1    1    2    0  503 -0.14376625249E+02  0.17025780581E+02  0.28456102576E+02  0.36142970710E+02  0.00000000000E+00 0.  1.
<mgrwt>
<rscale>  2 0.22283729E+02</rscale>
<asrwt>0</asrwt>
<pdfrwt beam="1">  1       21 0.13710773E-01 0.22283729E+02</pdfrwt>
<pdfrwt beam="2">  1       21 0.92741995E-03 0.22283729E+02</pdfrwt>
<totfact> 0.13065321E+08</totfact>
</mgrwt>
</event>
<event>
 4    1  0.7841599E+004  0.2188362E+02  0.7546771E-02  0.1710273E+00
         21   -1    0    0  503  502  0.00000000000E+00  0.00000000000E+00  0.21316493977E+03  0.21316493977E+03  0.00000000000E+00 0.  1.
         21   -1    0    0  501  503 -0.00000000000E+00 -0.00000000000E+00 -0.27476387658E+01  0.27476387658E+01  0.00000000000E+00 0.  1.
          2    1    1    2  501    0  0.21754591590E+02  0.23728583181E+01  0.15130974111E+03  0.15288404255E+03  0.00000000000E+00 0.  1.
         -2    1    1    2    0  502 -0.21754591590E+02 -0.23728583181E+01  0.59107559900E+02  0.63028535991E+02  0.00000000000E+00 0. -1.
<mgrwt>
<rscale>  2 0.21883617E+02</rscale>
<asrwt>0</asrwt>
<pdfrwt beam="1">  1       21 0.32794593E-01 0.21883617E+02</pdfrwt>
<pdfrwt beam="2">  1       21 0.42271383E-03 0.21883617E+02</pdfrwt>
<totfact> 0.90133370E+07</totfact>
</mgrwt>
</event>
<event>
 4    1  0.7841599E+004  0.2528649E+02  0.7546771E-02  0.1656921E+00
         21   -1    0    0  503  502  0.00000000000E+00  0.00000000000E+00  0.34784718890E+03  0.34784718890E+03  0.00000000000E+00 0. -1.
         21   -1    0    0  501  503 -0.00000000000E+00 -0.00000000000E+00 -0.18430209450E+01  0.18430209450E+01  0.00000000000E+00 0. -1.
          5    1    1    2  501    0  0.96141097445E+01 -0.23387504291E+02  0.16404305619E+03  0.16598051315E+03  0.00000000000E+00 0.  1.
         -5    1    1    2    0  502 -0.96141097445E+01  0.23387504291E+02  0.18196111177E+03  0.18370969669E+03  0.00000000000E+00 0. -1.
<mgrwt>
<rscale>  2 0.25286488E+02</rscale>
<asrwt>0</asrwt>
<pdfrwt beam="1">  1       21 0.53514900E-01 0.25286488E+02</pdfrwt>
<pdfrwt beam="2">  1       21 0.28354196E-03 0.25286488E+02</pdfrwt>
<totfact> 0.66127781E+07</totfact>
</mgrwt>
</event>
<event>
 4    1  0.7841599E+004  0.2470812E+02  0.7546771E-02  0.1665230E+00
         21   -1    0    0  503  502  0.00000000000E+00  0.00000000000E+00  0.30774556078E+01  0.30774556078E+01  0.00000000000E+00 0.  1.
         21   -1    0    0  501  503 -0.00000000000E+00 -0.00000000000E+00 -0.52849962677E+03  0.52849962677E+03  0.00000000000E+00 0.  1.
          3    1    1    2  501    0 -0.96419584198E+01  0.22749149902E+02 -0.52646580875E+02  0.58156286516E+02  0.00000000000E+00 0. -1.
         -3    1    1    2    0  502  0.96419584198E+01 -0.22749149902E+02 -0.47277559029E+03  0.47342079587E+03  0.00000000000E+00 0.  1.
<mgrwt>
<rscale>  2 0.24708120E+02</rscale>
<asrwt>0</asrwt>
<pdfrwt beam="1">  1       21 0.47345507E-03 0.24708120E+02</pdfrwt>
<pdfrwt beam="2">  1       21 0.81307574E-01 0.24708120E+02</pdfrwt>
<totfact> 0.13219173E+07</totfact>
</mgrwt>
</event>
<event>
 4    1  0.7841599E+004  0.3157063E+02  0.7546771E-02  0.1581349E+00
         21   -1    0    0  501  502  0.00000000000E+00  0.00000000000E+00  0.75888288740E+02  0.75888288740E+02  0.00000000000E+00 0. -1.
         21   -1    0    0  502  503 -0.00000000000E+00 -0.00000000000E+00 -0.16181482710E+02  0.16181482710E+02  0.00000000000E+00 0. -1.
          3    1    1    2  501    0 -0.88266919603E+01  0.30311617154E+02  0.49831768504E+02  0.58990760105E+02  0.00000000000E+00 0.  1.
         -3    1    1    2    0  503  0.88266919603E+01 -0.30311617154E+02  0.98750375249E+01  0.33079011345E+02  0.00000000000E+00 0. -1.
<mgrwt>
<rscale>  2 0.31570629E+02</rscale>
<asrwt>0</asrwt>
<pdfrwt beam="1">  1       21 0.11675121E-01 0.31570629E+02</pdfrwt>
<pdfrwt beam="2">  1       21 0.24894589E-02 0.31570629E+02</pdfrwt>
<totfact> 0.41318089E+07</totfact>
</mgrwt>
</event>
<event>
 4    1  0.7841599E+004  0.3144747E+02  0.7546771E-02  0.1582619E+00
         21   -1    0    0  501  502  0.00000000000E+00  0.00000000000E+00  0.11837170885E+01  0.11837170885E+01  0.00000000000E+00 0.  1.
         21   -1    0    0  502  503 -0.00000000000E+00 -0.00000000000E+00 -0.91582035763E+03  0.91582035763E+03  0.00000000000E+00 0.  1.
          4    1    1    2  501    0 -0.29992199168E+02  0.94557493357E+01 -0.59313985468E+03  0.59397292061E+03  0.00000000000E+00 0. -1.
         -4    1    1    2    0  503  0.29992199168E+02 -0.94557493357E+01 -0.32149678587E+03  0.32303115412E+03  0.00000000000E+00 0.  1.
<mgrwt>
<rscale>  2 0.31447467E+02</rscale>
<asrwt>0</asrwt>
<pdfrwt beam="1">  1       21 0.18210973E-03 0.31447467E+02</pdfrwt>
<pdfrwt beam="2">  1       21 0.14089590E+00 0.31447467E+02</pdfrwt>
<totfact> 0.16252513E+07</totfact>
</mgrwt>
</event>
<event>
 4    1  0.7841599E+004  0.2143132E+02  0.7546771E-02  0.1718277E+00
         21   -1    0    0  503  502  0.00000000000E+00  0.00000000000E+00  0.93514895599E+00  0.93514895599E+00  0.00000000000E+00 0. -1.
         21   -1    0    0  501  503 -0.00000000000E+00 -0.00000000000E+00 -0.51539037319E+03  0.51539037319E+03  0.00000000000E+00 0. -1.
          2    1    1    2  501    0  0.21291735285E+02  0.24420402776E+01 -0.20124347452E+03  0.20238141611E+03  0.00000000000E+00 0.  1.
         -2    1    1    2    0  502 -0.21291735285E+02 -0.24420402776E+01 -0.31321174971E+03  0.31394410603E+03  0.00000000000E+00 0. -1.
<mgrwt>
<rscale>  2 0.21431322E+02</rscale>
<asrwt>0</asrwt>
<pdfrwt beam="1">  1       21 0.14386877E-03 0.21431322E+02</pdfrwt>
<pdfrwt beam="2">  1       21 0.79290990E-01 0.21431322E+02</pdfrwt>
<totfact> 0.76325200E+07</totfact>
</mgrwt>
</event>
<event>
 4    1  0.7841599E+004  0.2013531E+02  0.7546771E-02  0.1742651E+00
         21   -1    0    0  503  502  0.00000000000E+00  0.00000000000E+00  0.26705913949E+02  0.26705913949E+02  0.00000000000E+00 0.  1.
         21   -1    0    0  501  503 -0.00000000000E+00 -0.00000000000E+00 -0.15186965541E+02  0.15186965541E+02  0.00000000000E+00 0.  1.
          2    1    1    2  501    0 -0.19304907362E+02  0.57228831944E+01  0.53553693072E+01  0.20835326269E+02  0.00000000000E+00 0. -1.
         -2    1    1    2    0  502  0.19304907362E+02 -0.57228831944E+01  0.61635791002E+01  0.21057553221E+02  0.00000000000E+00 0.  1.
<mgrwt>
<rscale>  2 0.20135313E+02</rscale>
<asrwt>0</asrwt>
<pdfrwt beam="1">  1       21 0.41086021E-02 0.20135313E+02</pdfrwt>
<pdfrwt beam="2">  1       21 0.23364562E-02 0.20135313E+02</pdfrwt>
<totfact> 0.22072773E+08</totfact>
</mgrwt>
</event>
<event>
 4    1  0.7841599E+004  0.2142607E+02  0.7546771E-02  0.1718371E+00
         21   -1    0    0  501  502  0.00000000000E+00  0.00000000000E+00  0.79216732458E+01  0.79216732458E+01  0.00000000000E+00 0. -1.
         21   -1    0    0  502  503 -0.00000000000E+00 -0.00000000000E+00 -0.70182840063E+02  0.70182840063E+02  0.00000000000E+00 0. -1.
          5    1    1    2  501    0  0.40328413893E+01  0.21043118461E+02 -0.14827896954E+02  0.26056537996E+02  0.00000000000E+00 0. -1.
         -5    1    1    2    0  503 -0.40328413893E+01 -0.21043118461E+02 -0.47433269863E+02  0.52047975313E+02  0.00000000000E+00 0.  1.
<mgrwt>
<rscale>  2 0.21426074E+02</rscale>
<asrwt>0</asrwt>
<pdfrwt beam="1">  1       21 0.12187189E-02 0.21426074E+02</pdfrwt>
<pdfrwt beam="2">  1       21 0.10797360E-01 0.21426074E+02</pdfrwt>
<totfact> 0.12777663E+08</totfact>
</mgrwt>
</event>
<event>
 4    1  0.7841599E+004  0.2425704E+02  0.7546771E-02  0.1671908E+00
         21   -1    0    0  501  502  0.00000000000E+00  0.00000000000E+00  0.25059140974E+03  0.25059140974E+03  0.00000000000E+00 0.  1.
         21   -1    0    0  502  503 -0.00000000000E+00 -0.00000000000E+00 -0.26760924596E+01  0.26760924596E+01  0.00000000000E+00 0.  1.
          5    1    1    2  501    0  0.14769577597E+02 -0.19242232175E+02  0.79621644340E+02  0.83234669272E+02  0.00000000000E+00 0. -1.
         -5    1    1    2    0  503 -0.14769577597E+02  0.19242232175E+02  0.16829367294E+03  0.17003283293E+03  0.00000000000E+00 0.  1.
<mgrwt>
<rscale>  2 0.24257039E+02</rscale>
<asrwt>0</asrwt>
<pdfrwt beam="1">  1       21 0.38552506E-01 0.24257039E+02</pdfrwt>
<pdfrwt beam="2">  1       21 0.41170673E-03 0.24257039E+02</pdfrwt>
<totfact> 0.71266734E+07</totfact>
</mgrwt>
</event>
<event>
 4    1  0.7841599E+004  0.2058286E+02  0.7546771E-02  0.1733980E+00
         21   -1    0    0  503  502  0.00000000000E+00  0.00000000000E+00  0.51345610671E+03  0.51345610671E+03  0.00000000000E+00 0. -1.
         21   -1    0    0  501  503 -0.00000000000E+00 -0.00000000000E+00 -0.11202813924E+01  0.11202813924E+01  0.00000000000E+00 0. -1.
          3    1    1    2  501    0 -0.59972193854E+01  0.19689777968E+02  0.38823628724E+03  0.38878151798E+03  0.00000000000E+00 0. -1.
         -3    1    1    2    0  502  0.59972193854E+01 -0.19689777968E+02  0.12409953807E+03  0.12579487011E+03  0.00000000000E+00 0.  1.
<mgrwt>
<rscale>  2 0.20582857E+02</rscale>
<asrwt>0</asrwt>
<pdfrwt beam="1">  1       21 0.78993059E-01 0.20582857E+02</pdfrwt>
<pdfrwt beam="2">  1       21 0.17235139E-03 0.20582857E+02</pdfrwt>
<totfact> 0.58806020E+07</totfact>
</mgrwt>
</event>
<event>
 4    1  0.7841599E+004  0.3169716E+02  0.7546771E-02  0.1580052E+00
         21   -1    0    0  501  502  0.00000000000E+00  0.00000000000E+00  0.11828099797E+01  0.11828099797E+01  0.00000000000E+00 0.  1.
         21   -1    0    0  502  503 -0.00000000000E+00 -0.00000000000E+00 -0.87289770906E+03  0.87289770906E+03  0.00000000000E+00 0.  1.
          4    1    1    2  501    0  0.31206341076E+02 -0.55564519974E+01 -0.50752284897E+03  0.50851170303E+03  0.00000000000E+00 0.  1.
         -4    1    1    2    0  503 -0.31206341076E+02  0.55564519974E+01 -0.36419205011E+03  0.36556881602E+03  0.00000000000E+00 0. -1.
<mgrwt>
<rscale>  2 0.31697159E+02</rscale>
<asrwt>0</asrwt>
<pdfrwt beam="1">  1       21 0.18197116E-03 0.31697159E+02</pdfrwt>
<pdfrwt beam="2">  1       21 0.13429167E+00 0.31697159E+02</pdfrwt>
<totfact> 0.18249481E+07</totfact>
</mgrwt>
</event>
<event>
 4    1  0.7841599E+004  0.5505313E+02  0.7546771E-02  0.1419848E+00
         21   -1    0    0  501  502  0.00000000000E+00  0.00000000000E+00  0.78637633893E+03  0.78637633893E+03  0.00000000000E+00 0.  1.
         21   -1    0    0  502  503 -0.00000000000E+00 -0.00000000000E+00 -0.42832517866E+01  0.42832517866E+01  0.00000000000E+00 0.  1.
          3    1    1    2  501    0 -0.43402979102E+02  0.33867803011E+02  0.51616772223E+03  0.51909533243E+03  0.00000000000E+00 0. -1.
         -3    1    1    2    0  503  0.43402979102E+02 -0.33867803011E+02  0.26592536491E+03  0.27156425829E+03  0.00000000000E+00 0.  1.
<mgrwt>
<rscale>  2 0.55053126E+02</rscale>
<asrwt>0</asrwt>
<pdfrwt beam="1">  1       21 0.12098086E+00 0.55053126E+02</pdfrwt>
<pdfrwt beam="2">  1       21 0.65896244E-03 0.55053126E+02</pdfrwt>
<totfact> 0.36214553E+06</totfact>
</mgrwt>
</event>
<event>
 4    1  0.7841599E+004  0.2042635E+02  0.7546771E-02  0.1736980E+00
         21   -1    0    0  501  502  0.00000000000E+00  0.00000000000E+00  0.82029601716E+01  0.82029601716E+01  0.00000000000E+00 0.  1.
         21   -1    0    0  502  503 -0.00000000000E+00 -0.00000000000E+00 -0.52604951351E+02  0.52604951351E+02  0.00000000000E+00 0.  1.
          5    1    1    2  501    0 -0.11047254097E+02  0.17181214662E+02 -0.27731962535E+02  0.34442672753E+02  0.00000000000E+00 0. -1.
         -5    1    1    2    0  503  0.11047254097E+02 -0.17181214662E+02 -0.16670028644E+02  0.26365238769E+02  0.00000000000E+00 0.  1.
<mgrwt>
<rscale>  2 0.20426355E+02</rscale>
<asrwt>0</asrwt>
<pdfrwt beam="1">  1       21 0.12619939E-02 0.20426355E+02</pdfrwt>
<pdfrwt beam="2">  1       21 0.80930696E-02 0.20426355E+02</pdfrwt>
<totfact> 0.19171731E+08</totfact>
</mgrwt>
</event>
<event>
 4    1  0.7841599E+004  0.2335608E+02  0.7546771E-02  0.1685802E+00
         21   -1    0    0  501  502  0.00000000000E+00  0.00000000000E+00  0.54320825148E+02  0.54320825148E+02  0.00000000000E+00 0. -1.
         21   -1    0    0  502  503 -0.00000000000E+00 -0.00000000000E+00 -0.10053615039E+02  0.10053615039E+02  0.00000000000E+00 0. -1.
          2    1    1    2  501    0  0.15815765611E+02 -0.17186275315E+02  0.21054208094E+02  0.31444970656E+02  0.00000000000E+00 0. -1.
         -2    1    1    2    0  503 -0.15815765611E+02  0.17186275315E+02  0.23213002015E+02  0.32929469531E+02  0.00000000000E+00 0.  1.
<mgrwt>
<rscale>  2 0.23356081E+02</rscale>
<asrwt>0</asrwt>
<pdfrwt beam="1">  1       21 0.83570499E-02 0.23356081E+02</pdfrwt>
<pdfrwt beam="2">  1       21 0.15467100E-02 0.23356081E+02</pdfrwt>
<totfact> 0.13934764E+08</totfact>
</mgrwt>
</event>
<event>
 4    1  0.7841599E+004  0.2054094E+02  0.7546771E-02  0.1734780E+00
         21   -1    0    0  501  502  0.00000000000E+00  0.00000000000E+00  0.42453580118E+01  0.42453580118E+01  0.00000000000E+00 0. -1.
         21   -1    0    0  502  503 -0.00000000000E+00 -0.00000000000E+00 -0.10030556141E+03  0.10030556141E+03  0.00000000000E+00 0. -1.
          5    1    1    2  501    0 -0.11031884241E+02  0.17327083074E+02 -0.53034628972E+02  0.56873562821E+02  0.00000000000E+00 0.  1.
         -5    1    1    2    0  503  0.11031884241E+02 -0.17327083074E+02 -0.43025574430E+02  0.47677356604E+02  0.00000000000E+00 0. -1.
<mgrwt>
<rscale>  2 0.20540942E+02</rscale>
<asrwt>0</asrwt>
<pdfrwt beam="1">  1       21 0.65313205E-03 0.20540942E+02</pdfrwt>
<pdfrwt beam="2">  1       21 0.15431624E-01 0.20540942E+02</pdfrwt>
<totfact> 0.17583536E+08</totfact>
</mgrwt>
</event>
<event>
 4    1  0.7841599E+004  0.2357121E+02  0.7546771E-02  0.1682415E+00
         21   -1    0    0  503  502  0.00000000000E+00  0.00000000000E+00  0.34993143437E+03  0.34993143437E+03  0.00000000000E+00 0. -1.
         21   -1    0    0  501  503 -0.00000000000E+00 -0.00000000000E+00 -0.15881626560E+01  0.15881626560E+01  0.00000000000E+00 0. -1.
          5    1    1    2  501    0 -0.14243685401E+01  0.23528138591E+02  0.17132379577E+03  0.17293769146E+03  0.00000000000E+00 0. -1.
         -5    1    1    2    0  502  0.14243685401E+01 -0.23528138591E+02  0.17701947594E+03  0.17858190556E+03  0.00000000000E+00 0.  1.
<mgrwt>
<rscale>  2 0.23571214E+02</rscale>
<asrwt>0</asrwt>
<pdfrwt beam="1">  1       21 0.53835544E-01 0.23571214E+02</pdfrwt>
<pdfrwt beam="2">  1       21 0.24433300E-03 0.23571214E+02</pdfrwt>
<totfact> 0.79820614E+07</totfact>
</mgrwt>
</event>
<event>
 4    1  0.7841599E+004  0.2707975E+02  0.7546771E-02  0.1632810E+00
         21   -1    0    0  501  502  0.00000000000E+00  0.00000000000E+00  0.11781517823E+02  0.11781517823E+02  0.00000000000E+00 0.  1.
         21   -1    0    0  502  503 -0.00000000000E+00 -0.00000000000E+00 -0.62590937310E+02  0.62590937310E+02  0.00000000000E+00 0.  1.
          3    1    1    2  501    0  0.24774913899E+02 -0.10932369526E+02 -0.28178579890E+02  0.39081266954E+02  0.00000000000E+00 0. -1.
         -3    1    1    2    0  503 -0.24774913899E+02  0.10932369526E+02 -0.22630839598E+02  0.35291188179E+02  0.00000000000E+00 0.  1.
<mgrwt>
<rscale>  2 0.27079754E+02</rscale>
<asrwt>0</asrwt>
<pdfrwt beam="1">  1       21 0.18125412E-02 0.27079754E+02</pdfrwt>
<pdfrwt beam="2">  1       21 0.96293752E-02 0.27079754E+02</pdfrwt>
<totfact> 0.90105193E+07</totfact>
</mgrwt>
</event>
<event>
 4    1  0.7841599E+004  0.2372259E+02  0.7546771E-02  0.1680058E+00
         21   -1    0    0  501  502  0.00000000000E+00  0.00000000000E+00  0.84639598988E+02  0.84639598988E+02  0.00000000000E+00 0. -1.
         21   -1    0    0  502  503 -0.00000000000E+00 -0.00000000000E+00 -0.73877199826E+01  0.73877199826E+01  0.00000000000E+00 0. -1.
          4    1    1    2  501    0  0.74190076010E+01  0.22532631710E+02  0.53177099903E+02  0.58228559313E+02  0.00000000000E+00 0. -1.
         -4    1    1    2    0  503 -0.74190076010E+01 -0.22532631710E+02  0.24074779102E+02  0.33798759657E+02  0.00000000000E+00 0.  1.
<mgrwt>
<rscale>  2 0.23722588E+02</rscale>
<asrwt>0</asrwt>
<pdfrwt beam="1">  1       21 0.13021476E-01 0.23722588E+02</pdfrwt>
<pdfrwt beam="2">  1       21 0.11365724E-02 0.23722588E+02</pdfrwt>
<totfact> 0.10690558E+08</totfact>
</mgrwt>
</event>
<event>
 4    1  0.7841599E+004  0.2433585E+02  0.7546771E-02  0.1670729E+00
         21   -1    0    0  501  502  0.00000000000E+00  0.00000000000E+00  0.79121516216E+01  0.79121516216E+01  0.00000000000E+00 0.  1.
         21   -1    0    0  502  503 -0.00000000000E+00 -0.00000000000E+00 -0.76455595941E+02  0.76455595941E+02  0.00000000000E+00 0.  1.
          2    1    1    2  501    0  0.21106848475E+02 -0.12113408733E+02 -0.28160851840E+02  0.37219179196E+02  0.00000000000E+00 0. -1.
         -2    1    1    2    0  503 -0.21106848475E+02  0.12113408733E+02 -0.40382592479E+02  0.47148568366E+02  0.00000000000E+00 0.  1.
<mgrwt>
<rscale>  2 0.24335853E+02</rscale>
<asrwt>0</asrwt>
<pdfrwt beam="1">  1       21 0.12172541E-02 0.24335853E+02</pdfrwt>
<pdfrwt beam="2">  1       21 0.11762399E-01 0.24335853E+02</pdfrwt>
<totfact> 0.11518138E+08</totfact>
</mgrwt>
</event>
<event>
 4    1  0.7841599E+004  0.2202843E+02  0.7546771E-02  0.1707761E+00
         21   -1    0    0  501  502  0.00000000000E+00  0.00000000000E+00  0.84015736788E+02  0.84015736788E+02  0.00000000000E+00 0.  1.
         21   -1    0    0  502  503 -0.00000000000E+00 -0.00000000000E+00 -0.90015490061E+01  0.90015490061E+01  0.00000000000E+00 0.  1.
          4    1    1    2  501    0 -0.97206994867E+00 -0.22006974545E+02  0.65348767056E+02  0.68961679245E+02  0.00000000000E+00 0. -1.
         -4    1    1    2    0  503  0.97206994867E+00  0.22006974545E+02  0.96654207262E+01  0.24055606549E+02  0.00000000000E+00 0.  1.
<mgrwt>
<rscale>  2 0.22028433E+02</rscale>
<asrwt>0</asrwt>
<pdfrwt beam="1">  1       21 0.12925497E-01 0.22028433E+02</pdfrwt>
<pdfrwt beam="2">  1       21 0.13848537E-02 0.22028433E+02</pdfrwt>
<totfact> 0.78654576E+07</totfact>
</mgrwt>
</event>
<event>
 4    1  0.7841599E+004  0.2671741E+02  0.7546771E-02  0.1637493E+00
         21   -1    0    0  503  502  0.00000000000E+00  0.00000000000E+00  0.93723854139E+03  0.93723854139E+03  0.00000000000E+00 0. -1.
         21   -1    0    0  501  503 -0.00000000000E+00 -0.00000000000E+00 -0.79542131425E+00  0.79542131425E+00  0.00000000000E+00 0. -1.
          4    1    1    2  501    0 -0.26693269157E+02  0.11354754065E+01  0.56490557111E+03  0.56553702283E+03  0.00000000000E+00 0.  1.
         -4    1    1    2    0  502  0.26693269157E+02 -0.11354754065E+01  0.37153754897E+03  0.37249693988E+03  0.00000000000E+00 0. -1.
<mgrwt>
<rscale>  2 0.26717409E+02</rscale>
<asrwt>0</asrwt>
<pdfrwt beam="1">  1       21 0.14418966E+00 0.26717409E+02</pdfrwt>
<pdfrwt beam="2">  1       21 0.12237326E-03 0.26717409E+02</pdfrwt>
<totfact> 0.26677980E+07</totfact>
</mgrwt>
</event>
<event>
 4    1  0.7841599E+004  0.2409906E+02  0.7546771E-02  0.1674290E+00
         21   -1    0    0  503  502  0.00000000000E+00  0.00000000000E+00  0.24254497182E+01  0.24254497182E+01  0.00000000000E+00 0. -1.
         21   -1    0    0  501  503 -0.00000000000E+00 -0.00000000000E+00 -0.24115244958E+03  0.24115244958E+03  0.00000000000E+00 0. -1.
          1    1    1    2  501    0  0.23953490145E+02  0.26448487713E+01 -0.12960758080E+03  0.13182901773E+03  0.00000000000E+00 0. -1.
         -1    1    1    2    0  502 -0.23953490145E+02 -0.26448487713E+01 -0.10911941906E+03  0.11174888157E+03  0.00000000000E+00 0.  1.
<mgrwt>
<rscale>  2 0.24099065E+02</rscale>
<asrwt>0</asrwt>
<pdfrwt beam="1">  1       21 0.37314613E-03 0.24099065E+02</pdfrwt>
<pdfrwt beam="2">  1       21 0.37100375E-01 0.24099065E+02</pdfrwt>
<totfact> 0.88337255E+07</totfact>
</mgrwt>
</event>
<event>
 4    1  0.7841599E+004  0.2311883E+02  0.7546771E-02  0.1689591E+00
         21   -1    0    0  501  502  0.00000000000E+00  0.00000000000E+00  0.19963016625E+02  0.19963016625E+02  0.00000000000E+00 0.  1.
         21   -1    0    0  502  503 -0.00000000000E+00 -0.00000000000E+00 -0.44399983687E+02  0.44399983687E+02  0.00000000000E+00 0.  1.
          4    1    1    2  501    0  0.73483850736E+01  0.21919890282E+02 -0.32495189146E+02  0.39880041007E+02  0.00000000000E+00 0. -1.
         -4    1    1    2    0  503 -0.73483850736E+01 -0.21919890282E+02  0.80582220836E+01  0.24482959304E+02  0.00000000000E+00 0.  1.
<mgrwt>
<rscale>  2 0.23118831E+02</rscale>
<asrwt>0</asrwt>
<pdfrwt beam="1">  1       21 0.30712334E-02 0.23118831E+02</pdfrwt>
<pdfrwt beam="2">  1       21 0.68307667E-02 0.23118831E+02</pdfrwt>
<totfact> 0.67081536E+07</totfact>
</mgrwt>
</event>
<event>
 4    1  0.7841599E+004  0.2974881E+02  0.7546771E-02  0.1600882E+00
         21   -1    0    0  503  502  0.00000000000E+00  0.00000000000E+00  0.52904305189E+01  0.52904305189E+01  0.00000000000E+00 0.  1.
         21   -1    0    0  501  503 -0.00000000000E+00 -0.00000000000E+00 -0.29949960519E+03  0.29949960519E+03  0.00000000000E+00 0.  1.
          4    1    1    2  501    0  0.46243956123E+00 -0.29745215446E+02 -0.45849246684E+02  0.54654781253E+02  0.00000000000E+00 0. -1.
         -4    1    1    2    0  502 -0.46243956123E+00  0.29745215446E+02 -0.24835992799E+03  0.25013525446E+03  0.00000000000E+00 0.  1.
<mgrwt>
<rscale>  2 0.29748810E+02</rscale>
<asrwt>0</asrwt>
<pdfrwt beam="1">  1       21 0.81391211E-03 0.29748810E+02</pdfrwt>
<pdfrwt beam="2">  1       21 0.46076878E-01 0.29748810E+02</pdfrwt>
<totfact> 0.19184233E+07</totfact>
</mgrwt>
</event>
<event>
 4    1  0.7841599E+004  0.4430709E+02  0.7546771E-02  0.1478714E+00
         21   -1    0    0  501  502  0.00000000000E+00  0.00000000000E+00  0.30505821533E+02  0.30505821533E+02  0.00000000000E+00 0.  1.
         21   -1    0    0  502  503 -0.00000000000E+00 -0.00000000000E+00 -0.86376936527E+02  0.86376936527E+02  0.00000000000E+00 0.  1.
          5    1    1    2  501    0 -0.44295941101E+02  0.99395070164E+00  0.15749309689E+01  0.44335073515E+02  0.00000000000E+00 0.  1.
         -5    1    1    2    0  503  0.44295941101E+02 -0.99395070164E+00 -0.57446045963E+02  0.72547684545E+02  0.00000000000E+00 0. -1.
<mgrwt>
<rscale>  2 0.44307091E+02</rscale>
<asrwt>0</asrwt>
<pdfrwt beam="1">  1       21 0.46932034E-02 0.44307091E+02</pdfrwt>
<pdfrwt beam="2">  1       21 0.13288759E-01 0.44307091E+02</pdfrwt>
<totfact> 0.12775809E+07</totfact>
</mgrwt>
</event>
<event>
 4    1  0.7841599E+004  0.2377348E+02  0.7546771E-02  0.1679271E+00
         21   -1    0    0  501  502  0.00000000000E+00  0.00000000000E+00  0.21623316719E+02  0.21623316719E+02  0.00000000000E+00 0. -1.
         21   -1    0    0  502  503 -0.00000000000E+00 -0.00000000000E+00 -0.26285483572E+02  0.26285483572E+02  0.00000000000E+00 0. -1.
          4    1    1    2  501    0  0.23268448335E+02 -0.48741703580E+01 -0.53338606586E+00  0.23779460156E+02  0.00000000000E+00 0. -1.
         -4    1    1    2    0  503 -0.23268448335E+02  0.48741703580E+01 -0.41287807864E+01  0.24129340136E+02  0.00000000000E+00 0.  1.
<mgrwt>
<rscale>  2 0.23773477E+02</rscale>
<asrwt>0</asrwt>
<pdfrwt beam="1">  1       21 0.33266641E-02 0.23773477E+02</pdfrwt>
<pdfrwt beam="2">  1       21 0.40439205E-02 0.23773477E+02</pdfrwt>
<totfact> 0.13788973E+08</totfact>
</mgrwt>
</event>
<event>
 4    1  0.7841599E+004  0.2447226E+02  0.7546771E-02  0.1668700E+00
         21   -1    0    0  501  502  0.00000000000E+00  0.00000000000E+00  0.58596394278E+02  0.58596394278E+02  0.00000000000E+00 0. -1.
         21   -1    0    0  502  503 -0.00000000000E+00 -0.00000000000E+00 -0.14497754991E+02  0.14497754991E+02  0.00000000000E+00 0. -1.
          2    1    1    2  501    0 -0.50532465004E+01  0.23944854687E+02  0.21984828494E+01  0.24570809775E+02  0.00000000000E+00 0.  1.
         -2    1    1    2    0  503  0.50532465004E+01 -0.23944854687E+02  0.41900156437E+02  0.48523339494E+02  0.00000000000E+00 0. -1.
<mgrwt>
<rscale>  2 0.24472257E+02</rscale>
<asrwt>0</asrwt>
<pdfrwt beam="1">  1       21 0.90148298E-02 0.24472257E+02</pdfrwt>
<pdfrwt beam="2">  1       21 0.22304239E-02 0.24472257E+02</pdfrwt>
<totfact> 0.71140741E+07</totfact>
</mgrwt>
</event>
<event>
 4    1  0.7841599E+004  0.2739900E+02  0.7546771E-02  0.1628757E+00
         21   -1    0    0  501  502  0.00000000000E+00  0.00000000000E+00  0.60579134595E+02  0.60579134595E+02  0.00000000000E+00 0.  1.
         21   -1    0    0  502  503 -0.00000000000E+00 -0.00000000000E+00 -0.13033468370E+02  0.13033468370E+02  0.00000000000E+00 0.  1.
          5    1    1    2  501    0  0.25437173579E+02  0.10181117648E+02  0.15608263392E+02  0.31532885095E+02  0.00000000000E+00 0. -1.
         -5    1    1    2    0  503 -0.25437173579E+02 -0.10181117648E+02  0.31937402833E+02  0.42079717870E+02  0.00000000000E+00 0.  1.
<mgrwt>
<rscale>  2 0.27398996E+02</rscale>
<asrwt>0</asrwt>
<pdfrwt beam="1">  1       21 0.93198667E-02 0.27398996E+02</pdfrwt>
<pdfrwt beam="2">  1       21 0.20051490E-02 0.27398996E+02</pdfrwt>
<totfact> 0.81658046E+07</totfact>
</mgrwt>
</event>
<event>
 4    1  0.7841599E+004  0.2044968E+02  0.7546771E-02  0.1736531E+00
         21   -1    0    0  503  502  0.00000000000E+00  0.00000000000E+00  0.18159049594E+03  0.18159049594E+03  0.00000000000E+00 0. -1.
         21   -1    0    0  501  503 -0.00000000000E+00 -0.00000000000E+00 -0.27076754321E+01  0.27076754321E+01  0.00000000000E+00 0. -1.
          5    1    1    2  501    0 -0.14575515457E+02  0.14343765963E+02  0.12506900042E+03  0.12672980762E+03  0.00000000000E+00 0. -1.
         -5    1    1    2    0  502  0.14575515457E+02 -0.14343765963E+02  0.53813820085E+02  0.57568363751E+02  0.00000000000E+00 0.  1.
<mgrwt>
<rscale>  2 0.20449677E+02</rscale>
<asrwt>0</asrwt>
<pdfrwt beam="1">  1       21 0.27936990E-01 0.20449677E+02</pdfrwt>
<pdfrwt beam="2">  1       21 0.41656559E-03 0.20449677E+02</pdfrwt>
<totfact> 0.12087773E+08</totfact>
</mgrwt>
</event>
<event>
 4    1  0.7841599E+004  0.2485402E+02  0.7546771E-02  0.1663108E+00
         21   -1    0    0  501  502  0.00000000000E+00  0.00000000000E+00  0.95973359726E+01  0.95973359726E+01  0.00000000000E+00 0.  1.
         21   -1    0    0  502  503 -0.00000000000E+00 -0.00000000000E+00 -0.82944249179E+02  0.82944249179E+02  0.00000000000E+00 0.  1.
          5    1    1    2  501    0  0.12565652458E+02  0.21443572984E+02 -0.58573257196E+02  0.63628208387E+02  0.00000000000E+00 0.  1.
         -5    1    1    2    0  503 -0.12565652458E+02 -0.21443572984E+02 -0.14773656011E+02  0.28913376765E+02  0.00000000000E+00 0. -1.
<mgrwt>
<rscale>  2 0.24854023E+02</rscale>
<asrwt>0</asrwt>
<pdfrwt beam="1">  1       21 0.14765132E-02 0.24854023E+02</pdfrwt>
<pdfrwt beam="2">  1       21 0.12760654E-01 0.24854023E+02</pdfrwt>
<totfact> 0.75330023E+07</totfact>
</mgrwt>
</event>
<event>
 4    1  0.7841599E+004  0.2165268E+02  0.7546771E-02  0.1714329E+00
         21   -1    0    0  501  502  0.00000000000E+00  0.00000000000E+00  0.37740396714E+02  0.37740396714E+02  0.00000000000E+00 0. -1.
         21   -1    0    0  502  503 -0.00000000000E+00 -0.00000000000E+00 -0.12852622195E+02  0.12852622195E+02  0.00000000000E+00 0. -1.
          4    1    1    2  501    0 -0.76525130475E+01  0.20255311209E+02  0.78174488145E+01  0.23020666674E+02  0.00000000000E+00 0. -1.
         -4    1    1    2    0  503  0.76525130475E+01 -0.20255311209E+02  0.17070325704E+02  0.27572352235E+02  0.00000000000E+00 0.  1.
<mgrwt>
<rscale>  2 0.21652681E+02</rscale>
<asrwt>0</asrwt>
<pdfrwt beam="1">  1       21 0.58062148E-02 0.21652681E+02</pdfrwt>
<pdfrwt beam="2">  1       21 0.19773265E-02 0.21652681E+02</pdfrwt>
<totfact> 0.16871088E+08</totfact>
</mgrwt>
</event>
<event>
 4    1  0.7841599E+004  0.8476661E+02  0.7546771E-02  0.1316044E+00
         21   -1    0    0  503  502  0.00000000000E+00  0.00000000000E+00  0.94388882673E+03  0.94388882673E+03  0.00000000000E+00 0. -1.
         21   -1    0    0  501  503 -0.00000000000E+00 -0.00000000000E+00 -0.91002150696E+01  0.91002150696E+01  0.00000000000E+00 0. -1.
          4    1    1    2  501    0  0.70271076551E+01  0.84474840830E+02  0.27473585911E+03  0.28751551481E+03  0.00000000000E+00 0.  1.
         -4    1    1    2    0  502 -0.70271076551E+01 -0.84474840830E+02  0.66005275256E+03  0.66547352699E+03  0.00000000000E+00 0. -1.
<mgrwt>
<rscale>  2 0.84766615E+02</rscale>
<asrwt>0</asrwt>
<pdfrwt beam="1">  1       21 0.14521359E+00 0.84766615E+02</pdfrwt>
<pdfrwt beam="2">  1       21 0.14000338E-02 0.84766615E+02</pdfrwt>
<totfact> 0.72803558E+05</totfact>
</mgrwt>
</event>
<event>
 4    1  0.7841599E+004  0.2742775E+02  0.7546771E-02  0.1628396E+00
         21   -1    0    0  503  502  0.00000000000E+00  0.00000000000E+00  0.30409823190E+02  0.30409823190E+02  0.00000000000E+00 0.  1.
         21   -1    0    0  501  503 -0.00000000000E+00 -0.00000000000E+00 -0.29678900452E+02  0.29678900452E+02  0.00000000000E+00 0.  1.
          3    1    1    2  501    0  0.68238514789E+01 -0.26565324366E+02 -0.11893043526E+02  0.29895248653E+02  0.00000000000E+00 0.  1.
         -3    1    1    2    0  502 -0.68238514789E+01  0.26565324366E+02  0.12623966264E+02  0.30193474989E+02  0.00000000000E+00 0. -1.
<mgrwt>
<rscale>  2 0.27427749E+02</rscale>
<asrwt>0</asrwt>
<pdfrwt beam="1">  1       21 0.46784343E-02 0.27427749E+02</pdfrwt>
<pdfrwt beam="2">  1       21 0.45659847E-02 0.27427749E+02</pdfrwt>
<totfact> 0.68908485E+07</totfact>
</mgrwt>
</event>
<event>
 4    1  0.7841599E+004  0.2507607E+02  0.7546771E-02  0.1659912E+00
         21   -1    0    0  503  502  0.00000000000E+00  0.00000000000E+00  0.36585138480E+02  0.36585138480E+02  0.00000000000E+00 0.  1.
         21   -1    0    0  501  503 -0.00000000000E+00 -0.00000000000E+00 -0.17451774033E+02  0.17451774033E+02  0.00000000000E+00 0.  1.
          3    1    1    2  501    0  0.73411043064E+01  0.23977434854E+02  0.62422291201E+01  0.25841335473E+02  0.00000000000E+00 0.  1.
         -3    1    1    2    0  502 -0.73411043064E+01 -0.23977434854E+02  0.12891135326E+02  0.28195577040E+02  0.00000000000E+00 0. -1.
<mgrwt>
<rscale>  2 0.25076068E+02</rscale>
<asrwt>0</asrwt>
<pdfrwt beam="1">  1       21 0.56284828E-02 0.25076068E+02</pdfrwt>
<pdfrwt beam="2">  1       21 0.26848883E-02 0.25076068E+02</pdfrwt>
<totfact> 0.11554910E+08</totfact>
</mgrwt>
</event>
<event>
 4    1  0.7841599E+004  0.2036535E+02  0.7546771E-02  0.1738159E+00
         21   -1    0    0  501  502  0.00000000000E+00  0.00000000000E+00  0.37508664692E+03  0.37508664692E+03  0.00000000000E+00 0.  1.
         21   -1    0    0  502  503 -0.00000000000E+00 -0.00000000000E+00 -0.13081599294E+01  0.13081599294E+01  0.00000000000E+00 0.  1.
          1    1    1    2  501    0  0.19573572702E+02 -0.56234130756E+01  0.26091998317E+03  0.26171355552E+03  0.00000000000E+00 0. -1.
         -1    1    1    2    0  503 -0.19573572702E+02  0.56234130756E+01  0.11285850381E+03  0.11468125133E+03  0.00000000000E+00 0.  1.
<mgrwt>
<rscale>  2 0.20365351E+02</rscale>
<asrwt>0</asrwt>
<pdfrwt beam="1">  1       21 0.57705552E-01 0.20365351E+02</pdfrwt>
<pdfrwt beam="2">  1       21 0.20125567E-03 0.20365351E+02</pdfrwt>
<totfact> 0.88742418E+07</totfact>
</mgrwt>
</event>
<event>
 4    1  0.7841599E+004  0.2123491E+02  0.7546771E-02  0.1721830E+00
         21   -1    0    0  501  502  0.00000000000E+00  0.00000000000E+00  0.91786260531E+01  0.91786260531E+01  0.00000000000E+00 0. -1.
         21   -1    0    0  502  503 -0.00000000000E+00 -0.00000000000E+00 -0.97149327128E+02  0.97149327128E+02  0.00000000000E+00 0. -1.
          4    1    1    2  501    0  0.19597571743E+02  0.81765791298E+01 -0.81363494354E+02  0.84088878444E+02  0.00000000000E+00 0. -1.
         -4    1    1    2    0  503 -0.19597571743E+02 -0.81765791298E+01 -0.66072067207E+01  0.22239074737E+02  0.00000000000E+00 0.  1.
<mgrwt>
<rscale>  2 0.21234907E+02</rscale>
<asrwt>0</asrwt>
<pdfrwt beam="1">  1       21 0.14120963E-02 0.21234907E+02</pdfrwt>
<pdfrwt beam="2">  1       21 0.14946051E-01 0.21234907E+02</pdfrwt>
<totfact> 0.59169777E+07</totfact>
</mgrwt>
</event>
<event>
 4    1  0.7841599E+004  0.2000481E+02  0.7546771E-02  0.1745232E+00
         21   -1    0    0  503  502  0.00000000000E+00  0.00000000000E+00  0.12003769545E+02  0.12003769545E+02  0.00000000000E+00 0. -1.
         21   -1    0    0  501  503 -0.00000000000E+00 -0.00000000000E+00 -0.33946667952E+02  0.33946667952E+02  0.00000000000E+00 0. -1.
          1    1    1    2  501    0  0.18995326910E+02 -0.62745475163E+01 -0.78972471909E+01  0.21507182618E+02  0.00000000000E+00 0.  1.
         -1    1    1    2    0  502 -0.18995326910E+02  0.62745475163E+01 -0.14045651217E+02  0.24443254879E+02  0.00000000000E+00 0. -1.
<mgrwt>
<rscale>  2 0.20004809E+02</rscale>
<asrwt>0</asrwt>
<pdfrwt beam="1">  1       21 0.18467338E-02 0.20004809E+02</pdfrwt>
<pdfrwt beam="2">  1       21 0.52225644E-02 0.20004809E+02</pdfrwt>
<totfact> 0.21609033E+08</totfact>
</mgrwt>
</event>
<event>
 4    1  0.7841599E+004  0.2430299E+02  0.7546771E-02  0.1671220E+00
         21   -1    0    0  503  502  0.00000000000E+00  0.00000000000E+00  0.50743293989E+01  0.50743293989E+01  0.00000000000E+00 0.  1.
         21   -1    0    0  501  503 -0.00000000000E+00 -0.00000000000E+00 -0.11749273654E+03  0.11749273654E+03  0.00000000000E+00 0.  1.
          4    1    1    2  501    0 -0.22177616392E+02  0.99392574530E+01 -0.62128071700E+02  0.66712313712E+02  0.00000000000E+00 0.  1.
         -4    1    1    2    0  502  0.22177616392E+02 -0.99392574530E+01 -0.50290335436E+02  0.55854752222E+02  0.00000000000E+00 0. -1.
<mgrwt>
<rscale>  2 0.24302994E+02</rscale>
<asrwt>0</asrwt>
<pdfrwt beam="1">  1       21 0.78066602E-03 0.24302994E+02</pdfrwt>
<pdfrwt beam="2">  1       21 0.18075807E-01 0.24302994E+02</pdfrwt>
<totfact> 0.10801287E+08</totfact>
</mgrwt>
</event>
<event>
 4    1  0.7841599E+004  0.2652704E+02  0.7546771E-02  0.1639990E+00
         21   -1    0    0  503  502  0.00000000000E+00  0.00000000000E+00  0.16462848050E+03  0.16462848050E+03  0.00000000000E+00 0. -1.
         21   -1    0    0  501  503 -0.00000000000E+00 -0.00000000000E+00 -0.43597088293E+01  0.43597088293E+01  0.00000000000E+00 0. -1.
          2    1    1    2  501    0 -0.25025935021E+02  0.87969429853E+01  0.68313179046E+02  0.73282836059E+02  0.00000000000E+00 0. -1.
         -2    1    1    2    0  502  0.25025935021E+02 -0.87969429853E+01  0.91955592623E+02  0.95705353268E+02  0.00000000000E+00 0.  1.
<mgrwt>
<rscale>  2 0.26527036E+02</rscale>
<asrwt>0</asrwt>
<pdfrwt beam="1">  1       21 0.25327454E-01 0.26527036E+02</pdfrwt>
<pdfrwt beam="2">  1       21 0.67072456E-03 0.26527036E+02</pdfrwt>
<totfact> 0.76413376E+07</totfact>
</mgrwt>
</event>
<event>
 4    1  0.7841599E+004  0.2016241E+02  0.7546771E-02  0.1742117E+00
         21   -1    0    0  503  502  0.00000000000E+00  0.00000000000E+00  0.36304982582E+02  0.36304982582E+02  0.00000000000E+00 0. -1.
         21   -1    0    0  501  503 -0.00000000000E+00 -0.00000000000E+00 -0.34637962163E+02  0.34637962163E+02  0.00000000000E+00 0. -1.
          4    1    1    2  501    0 -0.19944879956E+02 -0.29537656164E+01 -0.28346582244E+02  0.34785797284E+02  0.00000000000E+00 0.  1.
         -4    1    1    2    0  502  0.19944879956E+02  0.29537656164E+01  0.30013602662E+02  0.36157147461E+02  0.00000000000E+00 0. -1.
<mgrwt>
<rscale>  2 0.20162415E+02</rscale>
<asrwt>0</asrwt>
<pdfrwt beam="1">  1       21 0.55853819E-02 0.20162415E+02</pdfrwt>
<pdfrwt beam="2">  1       21 0.53289173E-02 0.20162415E+02</pdfrwt>
<totfact> 0.37556632E+07</totfact>
</mgrwt>
</event>
<event>
 4    1  0.7841599E+004  0.3913246E+02  0.7546771E-02  0.1514694E+00
         21   -1    0    0  503  502  0.00000000000E+00  0.00000000000E+00  0.22971080071E+02  0.22971080071E+02  0.00000000000E+00 0.  1.
         21   -1    0    0  501  503 -0.00000000000E+00 -0.00000000000E+00 -0.76283900573E+02  0.76283900573E+02  0.00000000000E+00 0.  1.
          2    1    1    2  501    0 -0.38432618148E+02  0.73676990564E+01 -0.44279668346E+02  0.59093469656E+02  0.00000000000E+00 0. -1.
         -2    1    1    2    0  502  0.38432618148E+02 -0.73676990564E+01 -0.90331521559E+01  0.40161510989E+02  0.00000000000E+00 0.  1.
<mgrwt>
<rscale>  2 0.39132456E+02</rscale>
<asrwt>0</asrwt>
<pdfrwt beam="1">  1       21 0.35340123E-02 0.39132456E+02</pdfrwt>
<pdfrwt beam="2">  1       21 0.11735985E-01 0.39132456E+02</pdfrwt>
<totfact> 0.24507803E+07</totfact>
</mgrwt>
</event>
<event>
 4    1  0.7841599E+004  0.2426345E+02  0.7546771E-02  0.1671812E+00
         21   -1    0    0  501  502  0.00000000000E+00  0.00000000000E+00  0.11728045525E+01  0.11728045525E+01  0.00000000000E+00 0.  1.
         21   -1    0    0  502  503 -0.00000000000E+00 -0.00000000000E+00 -0.59849339178E+03  0.59849339178E+03  0.00000000000E+00 0.  1.
          1    1    1    2  501    0  0.14284617357E+02  0.19612866125E+02 -0.41907017631E+03  0.41977199464E+03  0.00000000000E+00 0.  1.
         -1    1    1    2    0  503 -0.14284617357E+02 -0.19612866125E+02 -0.17825041091E+03  0.17989420169E+03  0.00000000000E+00 0. -1.
<mgrwt>
<rscale>  2 0.24263446E+02</rscale>
<asrwt>0</asrwt>
<pdfrwt beam="1">  1       21 0.18043106E-03 0.24263446E+02</pdfrwt>
<pdfrwt beam="2">  1       21 0.92076115E-01 0.24263446E+02</pdfrwt>
<totfact> 0.41299314E+07</totfact>
</mgrwt>
</event>
<event>
 4    1  0.7841599E+004  0.2923910E+02  0.7546771E-02  0.1606655E+00
         21   -1    0    0  503  502  0.00000000000E+00  0.00000000000E+00  0.27498076199E+02  0.27498076199E+02  0.00000000000E+00 0.  1.
         21   -1    0    0  501  503 -0.00000000000E+00 -0.00000000000E+00 -0.31121962620E+02  0.31121962620E+02  0.00000000000E+00 0.  1.
          3    1    1    2  501    0  0.13205262064E+02  0.26087274776E+02 -0.27460646703E+01  0.29367766728E+02  0.00000000000E+00 0.  1.
         -3    1    1    2    0  502 -0.13205262064E+02 -0.26087274776E+02 -0.87782175057E+00  0.29252272090E+02  0.00000000000E+00 0. -1.
<mgrwt>
<rscale>  2 0.29239098E+02</rscale>
<asrwt>0</asrwt>
<pdfrwt beam="1">  1       21 0.42304732E-02 0.29239098E+02</pdfrwt>
<pdfrwt beam="2">  1       21 0.47879943E-02 0.29239098E+02</pdfrwt>
<totfact> 0.76201333E+07</totfact>
</mgrwt>
</event>
<event>
 4    1  0.7841599E+004  0.2134284E+02  0.7546771E-02  0.1719871E+00
         21   -1    0    0  503  502  0.00000000000E+00  0.00000000000E+00  0.16304221571E+01  0.16304221571E+01  0.00000000000E+00 0.  1.
         21   -1    0    0  501  503 -0.00000000000E+00 -0.00000000000E+00 -0.32693568488E+03  0.32693568488E+03  0.00000000000E+00 0.  1.
          3    1    1    2  501    0 -0.21107631924E+02  0.31598752537E+01 -0.22530477728E+03  0.22631341013E+03  0.00000000000E+00 0.  1.
         -3    1    1    2    0  502  0.21107631924E+02 -0.31598752537E+01 -0.10000048545E+03  0.10225269691E+03  0.00000000000E+00 0. -1.
<mgrwt>
<rscale>  2 0.21342843E+02</rscale>
<asrwt>0</asrwt>
<pdfrwt beam="1">  1       21 0.25083420E-03 0.21342843E+02</pdfrwt>
<pdfrwt beam="2">  1       21 0.50297792E-01 0.21342843E+02</pdfrwt>
<totfact> 0.85559071E+07</totfact>
</mgrwt>
</event>
<event>
 4    1  0.7841599E+004  0.2358825E+02  0.7546771E-02  0.1682148E+00
         21   -1    0    0  503  502  0.00000000000E+00  0.00000000000E+00  0.96582944749E+01  0.96582944749E+01  0.00000000000E+00 0.  1.
         21   -1    0    0  501  503 -0.00000000000E+00 -0.00000000000E+00 -0.57997169060E+02  0.57997169060E+02  0.00000000000E+00 0.  1.
          5    1    1    2  501    0 -0.18472142536E+02  0.14669206307E+02 -0.21402346982E+02  0.31850684763E+02  0.00000000000E+00 0. -1.
         -5    1    1    2    0  502  0.18472142536E+02 -0.14669206307E+02 -0.26936527604E+02  0.35804778772E+02  0.00000000000E+00 0.  1.
<mgrwt>
<rscale>  2 0.23588253E+02</rscale>
<asrwt>0</asrwt>
<pdfrwt beam="1">  1       21 0.14858915E-02 0.23588253E+02</pdfrwt>
<pdfrwt beam="2">  1       21 0.89226411E-02 0.23588253E+02</pdfrwt>
<totfact> 0.13342365E+08</totfact>
</mgrwt>
</event>
<event>
 4    1  0.7841599E+004  0.2880657E+02  0.7546771E-02  0.1611668E+00
         21   -1    0    0  501  502  0.00000000000E+00  0.00000000000E+00  0.22623635787E+03  0.22623635787E+03  0.00000000000E+00 0.  1.
         21   -1    0    0  502  503 -0.00000000000E+00 -0.00000000000E+00 -0.39165028266E+01  0.39165028266E+01  0.00000000000E+00 0.  1.
          3    1    1    2  501    0  0.26543889831E+02  0.11191076371E+02  0.82168656677E+02  0.87071846299E+02  0.00000000000E+00 0. -1.
         -3    1    1    2    0  503 -0.26543889831E+02 -0.11191076371E+02  0.14015119837E+03  0.14308101440E+03  0.00000000000E+00 0.  1.
<mgrwt>
<rscale>  2 0.28806567E+02</rscale>
<asrwt>0</asrwt>
<pdfrwt beam="1">  1       21 0.34805583E-01 0.28806567E+02</pdfrwt>
<pdfrwt beam="2">  1       21 0.60253907E-03 0.28806567E+02</pdfrwt>
<totfact> 0.51055419E+07</totfact>
</mgrwt>
</event>
<event>
 4    1  0.7841599E+004  0.2108724E+02  0.7546771E-02  0.1724533E+00
         21   -1    0    0  503  502  0.00000000000E+00  0.00000000000E+00  0.42179833144E+01  0.42179833144E+01  0.00000000000E+00 0.  1.
         21   -1    0    0  501  503 -0.00000000000E+00 -0.00000000000E+00 -0.16475911030E+03  0.16475911030E+03  0.00000000000E+00 0.  1.
          1    1    1    2  501    0  0.17352928177E+02  0.11981138155E+02 -0.13097351449E+03  0.13266021742E+03  0.00000000000E+00 0.  1.
         -1    1    1    2    0  502 -0.17352928177E+02 -0.11981138155E+02 -0.29567612487E+02  0.36316876187E+02  0.00000000000E+00 0. -1.
<mgrwt>
<rscale>  2 0.21087242E+02</rscale>
<asrwt>0</asrwt>
<pdfrwt beam="1">  1       21 0.64892059E-03 0.21087242E+02</pdfrwt>
<pdfrwt beam="2">  1       21 0.25347552E-01 0.21087242E+02</pdfrwt>
<totfact> 0.75566461E+07</totfact>
</mgrwt>
</event>
<event>
 4    1  0.7841599E+004  0.3205313E+02  0.7546771E-02  0.1576443E+00
         21   -1    0    0  503  502  0.00000000000E+00  0.00000000000E+00  0.71057074552E+01  0.71057074552E+01  0.00000000000E+00 0.  1.
         21   -1    0    0  501  503 -0.00000000000E+00 -0.00000000000E+00 -0.14545522529E+03  0.14545522529E+03  0.00000000000E+00 0.  1.
          4    1    1    2  501    0  0.29094759471E+02 -0.13449833279E+02 -0.75063309334E+02  0.81620484267E+02  0.00000000000E+00 0.  1.
         -4    1    1    2    0  502 -0.29094759471E+02  0.13449833279E+02 -0.63286208505E+02  0.70940448482E+02  0.00000000000E+00 0. -1.
<mgrwt>
<rscale>  2 0.32053128E+02</rscale>
<asrwt>0</asrwt>
<pdfrwt beam="1">  1       21 0.10931858E-02 0.32053128E+02</pdfrwt>
<pdfrwt beam="2">  1       21 0.22377726E-01 0.32053128E+02</pdfrwt>
<totfact> 0.47641991E+07</totfact>
</mgrwt>
</event>
<event>
 4    1  0.7841599E+004  0.2223962E+02  0.7546771E-02  0.1704140E+00
         21   -1    0    0  503  502  0.00000000000E+00  0.00000000000E+00  0.18347574415E+03  0.18347574415E+03  0.00000000000E+00 0. -1.
         21   -1    0    0  501  503 -0.00000000000E+00 -0.00000000000E+00 -0.31106121104E+01  0.31106121104E+01  0.00000000000E+00 0. -1.
          2    1    1    2  501    0  0.20150827849E+02 -0.94098357287E+01  0.12425395770E+03  0.12622855016E+03  0.00000000000E+00 0. -1.
         -2    1    1    2    0  502 -0.20150827849E+02  0.94098357287E+01  0.56111174336E+02  0.60357806096E+02  0.00000000000E+00 0.  1.
<mgrwt>
<rscale>  2 0.22239624E+02</rscale>
<asrwt>0</asrwt>
<pdfrwt beam="1">  1       21 0.28227029E-01 0.22239624E+02</pdfrwt>
<pdfrwt beam="2">  1       21 0.47855585E-03 0.22239624E+02</pdfrwt>
<totfact> 0.99103164E+07</totfact>
</mgrwt>
</event>
<event>
 4    1  0.7841599E+004  0.2665342E+02  0.7546771E-02  0.1638329E+00
         21   -1    0    0  503  502  0.00000000000E+00  0.00000000000E+00  0.38328637045E+01  0.38328637045E+01  0.00000000000E+00 0.  1.
         21   -1    0    0  501  503 -0.00000000000E+00 -0.00000000000E+00 -0.20823305502E+03  0.20823305502E+03  0.00000000000E+00 0.  1.
          4    1    1    2  501    0  0.69419323822E+01  0.25733521091E+02 -0.67046923006E+02  0.72150498387E+02  0.00000000000E+00 0. -1.
         -4    1    1    2    0  502 -0.69419323822E+01 -0.25733521091E+02 -0.13735326831E+03  0.13991542034E+03  0.00000000000E+00 0.  1.
<mgrwt>
<rscale>  2 0.26653415E+02</rscale>
<asrwt>0</asrwt>
<pdfrwt beam="1">  1       21 0.58967133E-03 0.26653415E+02</pdfrwt>
<pdfrwt beam="2">  1       21 0.32035855E-01 0.26653415E+02</pdfrwt>
<totfact> 0.60441993E+07</totfact>
</mgrwt>
</event>
<event>
 4    1  0.7841599E+004  0.2075221E+02  0.7546771E-02  0.1730770E+00
         21   -1    0    0  501  502  0.00000000000E+00  0.00000000000E+00  0.18821823580E+04  0.18821823580E+04  0.00000000000E+00 0.  1.
         21   -1    0    0  502  503 -0.00000000000E+00 -0.00000000000E+00 -0.24377741371E+00  0.24377741371E+00  0.00000000000E+00 0.  1.
          4    1    1    2  501    0  0.12338909717E+02 -0.16685487771E+02  0.70771702557E+03  0.70802121612E+03  0.00000000000E+00 0.  1.
         -4    1    1    2    0  503 -0.12338909717E+02  0.16685487771E+02  0.11742215550E+04  0.11744049193E+04  0.00000000000E+00 0. -1.
<mgrwt>
<rscale>  2 0.20752209E+02</rscale>
<asrwt>0</asrwt>
<pdfrwt beam="1">  1       21 0.28955488E+00 0.20752209E+02</pdfrwt>
<pdfrwt beam="2">  1       21 0.37505725E-04 0.20752209E+02</pdfrwt>
<totfact> 0.21652919E+07</totfact>
</mgrwt>
</event>
<event>
 4    1  0.7841599E+004  0.3029624E+02  0.7546771E-02  0.1594837E+00
         21   -1    0    0  503  502  0.00000000000E+00  0.00000000000E+00  0.84682736006E+02  0.84682736006E+02  0.00000000000E+00 0.  1.
         21   -1    0    0  501  503 -0.00000000000E+00 -0.00000000000E+00 -0.13953033335E+02  0.13953033335E+02  0.00000000000E+00 0.  1.
          4    1    1    2  501    0 -0.28843490800E+02 -0.92690405198E+01  0.58664177728E+02  0.66025357418E+02  0.00000000000E+00 0.  1.
         -4    1    1    2    0  502  0.28843490800E+02  0.92690405198E+01  0.12065524942E+02  0.32610411923E+02  0.00000000000E+00 0. -1.
<mgrwt>
<rscale>  2 0.30296239E+02</rscale>
<asrwt>0</asrwt>
<pdfrwt beam="1">  1       21 0.13028113E-01 0.30296239E+02</pdfrwt>
<pdfrwt beam="2">  1       21 0.21466206E-02 0.30296239E+02</pdfrwt>
<totfact> 0.42844743E+07</totfact>
</mgrwt>
</event>
<event>
 4    1  0.7841599E+004  0.2852708E+02  0.7546771E-02  0.1614965E+00
         21   -1    0    0  503  502  0.00000000000E+00  0.00000000000E+00  0.23963330657E+03  0.23963330657E+03  0.00000000000E+00 0. -1.
         21   -1    0    0  501  503 -0.00000000000E+00 -0.00000000000E+00 -0.46337882462E+01  0.46337882462E+01  0.00000000000E+00 0. -1.
          3    1    1    2  501    0 -0.17976534854E+02 -0.22150362589E+02  0.18062314802E+03  0.18286201346E+03  0.00000000000E+00 0. -1.
         -3    1    1    2    0  502  0.17976534854E+02  0.22150362589E+02  0.54376370305E+02  0.61405081351E+02  0.00000000000E+00 0.  1.
<mgrwt>
<rscale>  2 0.28527081E+02</rscale>
<asrwt>0</asrwt>
<pdfrwt beam="1">  1       21 0.36866653E-01 0.28527081E+02</pdfrwt>
<pdfrwt beam="2">  1       21 0.71289068E-03 0.28527081E+02</pdfrwt>
<totfact> 0.35567220E+07</totfact>
</mgrwt>
</event>
<event>
 4    1  0.7841599E+004  0.3698412E+02  0.7546771E-02  0.1531655E+00
         21   -1    0    0  503  502  0.00000000000E+00  0.00000000000E+00  0.44210239389E+02  0.44210239389E+02  0.00000000000E+00 0.  1.
         21   -1    0    0  501  503 -0.00000000000E+00 -0.00000000000E+00 -0.33240664736E+02  0.33240664736E+02  0.00000000000E+00 0.  1.
          5    1    1    2  501    0 -0.30081483310E+02  0.21515802638E+02 -0.47051713886E+01  0.37282221488E+02  0.00000000000E+00 0.  1.
         -5    1    1    2    0  502  0.30081483310E+02 -0.21515802638E+02  0.15674746042E+02  0.40168682636E+02  0.00000000000E+00 0. -1.
<mgrwt>
<rscale>  2 0.36984124E+02</rscale>
<asrwt>0</asrwt>
<pdfrwt beam="1">  1       21 0.68015753E-02 0.36984124E+02</pdfrwt>
<pdfrwt beam="2">  1       21 0.51139484E-02 0.36984124E+02</pdfrwt>
<totfact> 0.33383651E+07</totfact>
</mgrwt>
</event>
<event>
 4    1  0.7841599E+004  0.3300401E+02  0.7546771E-02  0.1567075E+00
         21   -1    0    0  503  502  0.00000000000E+00  0.00000000000E+00  0.24389245225E+02  0.24389245225E+02  0.00000000000E+00 0. -1.
         21   -1    0    0  501  503 -0.00000000000E+00 -0.00000000000E+00 -0.52198283598E+02  0.52198283598E+02  0.00000000000E+00 0. -1.
          2    1    1    2  501    0 -0.43753842343E+01  0.32712697531E+02  0.64631537905E+00  0.33010336117E+02  0.00000000000E+00 0.  1.
         -2    1    1    2    0  502  0.43753842343E+01 -0.32712697531E+02 -0.28455353752E+02  0.43577192706E+02  0.00000000000E+00 0. -1.
<mgrwt>
<rscale>  2 0.33004008E+02</rscale>
<asrwt>0</asrwt>
<pdfrwt beam="1">  1       21 0.37521916E-02 0.33004008E+02</pdfrwt>
<pdfrwt beam="2">  1       21 0.80305052E-02 0.33004008E+02</pdfrwt>
<totfact> 0.40820589E+07</totfact>
</mgrwt>
</event>
<event>
 4    1  0.7841599E+004  0.2031680E+02  0.7546771E-02  0.1739101E+00
         21   -1    0    0  501  502  0.00000000000E+00  0.00000000000E+00  0.39319079990E+02  0.39319079990E+02  0.00000000000E+00 0. -1.
         21   -1    0    0  502  503 -0.00000000000E+00 -0.00000000000E+00 -0.14006174598E+02  0.14006174598E+02  0.00000000000E+00 0. -1.
          2    1    1    2  501    0  0.71685185223E+01 -0.19010117271E+02 -0.68745298038E+00  0.20328423649E+02  0.00000000000E+00 0. -1.
         -2    1    1    2    0  503 -0.71685185223E+01  0.19010117271E+02  0.26000358372E+02  0.32996830938E+02  0.00000000000E+00 0.  1.
<mgrwt>
<rscale>  2 0.20316796E+02</rscale>
<asrwt>0</asrwt>
<pdfrwt beam="1">  1       21 0.60490892E-02 0.20316796E+02</pdfrwt>
<pdfrwt beam="2">  1       21 0.21547961E-02 0.20316796E+02</pdfrwt>
<totfact> 0.13582728E+08</totfact>
</mgrwt>
</event>
<event>
 4    1  0.7841599E+004  0.2427930E+02  0.7546771E-02  0.1671575E+00
         21   -1    0    0  503  502  0.00000000000E+00  0.00000000000E+00  0.18851230482E+02  0.18851230482E+02  0.00000000000E+00 0. -1.
         21   -1    0    0  501  503 -0.00000000000E+00 -0.00000000000E+00 -0.31800231807E+02  0.31800231807E+02  0.00000000000E+00 0. -1.
          3    1    1    2  501    0 -0.98591454766E+01  0.22187422827E+02 -0.32053239679E+01  0.24489969028E+02  0.00000000000E+00 0.  1.
         -3    1    1    2    0  502  0.98591454766E+01 -0.22187422827E+02 -0.97436773575E+01  0.26161493262E+02  0.00000000000E+00 0. -1.
<mgrwt>
<rscale>  2 0.24279301E+02</rscale>
<asrwt>0</asrwt>
<pdfrwt beam="1">  1       21 0.29001893E-02 0.24279301E+02</pdfrwt>
<pdfrwt beam="2">  1       21 0.48923433E-02 0.24279301E+02</pdfrwt>
<totfact> 0.12709512E+08</totfact>
</mgrwt>
</event>
<event>
 4    1  0.7841599E+004  0.2908996E+02  0.7546771E-02  0.1608371E+00
         21   -1    0    0  503  502  0.00000000000E+00  0.00000000000E+00  0.23296274838E+01  0.23296274838E+01  0.00000000000E+00 0. -1.
         21   -1    0    0  501  503 -0.00000000000E+00 -0.00000000000E+00 -0.51889946911E+03  0.51889946911E+03  0.00000000000E+00 0. -1.
          4    1    1    2  501    0  0.28156927809E+02 -0.73084485378E+01 -0.11554759390E+03  0.11915314708E+03  0.00000000000E+00 0.  1.
         -4    1    1    2    0  502 -0.28156927809E+02  0.73084485378E+01 -0.40102224773E+03  0.40207594951E+03  0.00000000000E+00 0. -1.
<mgrwt>
<rscale>  2 0.29089964E+02</rscale>
<asrwt>0</asrwt>
<pdfrwt beam="1">  1       21 0.35840437E-03 0.29089964E+02</pdfrwt>
<pdfrwt beam="2">  1       21 0.79830655E-01 0.29089964E+02</pdfrwt>
<totfact> 0.21304151E+07</totfact>
</mgrwt>
</event>
<event>
 4    1  0.7841599E+004  0.2669721E+02  0.7546771E-02  0.1637756E+00
         21   -1    0    0  503  502  0.00000000000E+00  0.00000000000E+00  0.12072094766E+02  0.12072094766E+02  0.00000000000E+00 0.  1.
         21   -1    0    0  501  503 -0.00000000000E+00 -0.00000000000E+00 -0.69154095090E+02  0.69154095090E+02  0.00000000000E+00 0.  1.
          3    1    1    2  501    0  0.22337108433E+02  0.14621715609E+02 -0.13009527449E+02  0.29698295994E+02  0.00000000000E+00 0. -1.
         -3    1    1    2    0  502 -0.22337108433E+02 -0.14621715609E+02 -0.44072472875E+02  0.51527893862E+02  0.00000000000E+00 0.  1.
<mgrwt>
<rscale>  2 0.26697209E+02</rscale>
<asrwt>0</asrwt>
<pdfrwt beam="1">  1       21 0.18572453E-02 0.26697209E+02</pdfrwt>
<pdfrwt beam="2">  1       21 0.10639092E-01 0.26697209E+02</pdfrwt>
<totfact> 0.73242388E+07</totfact>
</mgrwt>
</event>
<event>
 4    1  0.7841599E+004  0.2414948E+02  0.7546771E-02  0.1673528E+00
         21   -1    0    0  501  502  0.00000000000E+00  0.00000000000E+00  0.76988007791E+01  0.76988007791E+01  0.00000000000E+00 0. -1.
         21   -1    0    0  502  503 -0.00000000000E+00 -0.00000000000E+00 -0.75770241172E+02  0.75770241172E+02  0.00000000000E+00 0. -1.
          2    1    1    2  501    0  0.87514365523E-01  0.24149317185E+02 -0.34688726999E+02  0.42267067086E+02  0.00000000000E+00 0. -1.
         -2    1    1    2    0  503 -0.87514365523E-01 -0.24149317185E+02 -0.33382713394E+02  0.41201974865E+02  0.00000000000E+00 0.  1.
<mgrwt>
<rscale>  2 0.24149476E+02</rscale>
<asrwt>0</asrwt>
<pdfrwt beam="1">  1       21 0.11844309E-02 0.24149476E+02</pdfrwt>
<pdfrwt beam="2">  1       21 0.11656960E-01 0.24149476E+02</pdfrwt>
<totfact> 0.12160036E+08</totfact>
</mgrwt>
</event>
<event>
 4    1  0.7841599E+004  0.2381079E+02  0.7546771E-02  0.1678695E+00
         21   -1    0    0  503  502  0.00000000000E+00  0.00000000000E+00  0.35531426073E+03  0.35531426073E+03  0.00000000000E+00 0.  1.
         21   -1    0    0  501  503 -0.00000000000E+00 -0.00000000000E+00 -0.16527766213E+01  0.16527766213E+01  0.00000000000E+00 0.  1.
          2    1    1    2  501    0 -0.34407261472E+01  0.23560879969E+02  0.21001622659E+03  0.21136170205E+03  0.00000000000E+00 0. -1.
         -2    1    1    2    0  502  0.34407261472E+01 -0.23560879969E+02  0.14364525751E+03  0.14560533530E+03  0.00000000000E+00 0.  1.
<mgrwt>
<rscale>  2 0.23810789E+02</rscale>
<asrwt>0</asrwt>
<pdfrwt beam="1">  1       21 0.54663672E-01 0.23810789E+02</pdfrwt>
<pdfrwt beam="2">  1       21 0.25427361E-03 0.23810789E+02</pdfrwt>
<totfact> 0.73279013E+07</totfact>
</mgrwt>
</event>
<event>
 4    1  0.7841599E+004  0.6942233E+02  0.7546771E-02  0.1362069E+00
         21   -1    0    0  501  502  0.00000000000E+00  0.00000000000E+00  0.16809383951E+02  0.16809383951E+02  0.00000000000E+00 0.  1.
         21   -1    0    0  502  503 -0.00000000000E+00 -0.00000000000E+00 -0.29173144113E+03  0.29173144113E+03  0.00000000000E+00 0.  1.
          5    1    1    2  501    0 -0.22174021726E+02 -0.65785811668E+02 -0.15769577144E+03  0.17230036735E+03  0.00000000000E+00 0. -1.
         -5    1    1    2    0  503  0.22174021726E+02  0.65785811668E+02 -0.11722628573E+03  0.13624045773E+03  0.00000000000E+00 0.  1.
<mgrwt>
<rscale>  2 0.69422333E+02</rscale>
<asrwt>0</asrwt>
<pdfrwt beam="1">  1       21 0.25860593E-02 0.69422333E+02</pdfrwt>
<pdfrwt beam="2">  1       21 0.44881757E-01 0.69422333E+02</pdfrwt>
<totfact> 0.36940965E+06</totfact>
</mgrwt>
</event>
<event>
 4    1  0.7841599E+004  0.2023952E+02  0.7546771E-02  0.1740606E+00
         21   -1    0    0  501  502  0.00000000000E+00  0.00000000000E+00  0.37609027813E+01  0.37609027813E+01  0.00000000000E+00 0. -1.
         21   -1    0    0  502  503 -0.00000000000E+00 -0.00000000000E+00 -0.12442018357E+03  0.12442018357E+03  0.00000000000E+00 0. -1.
          3    1    1    2  501    0  0.20238717404E+02 -0.17988500549E+00 -0.82950809959E+02  0.85384277906E+02  0.00000000000E+00 0. -1.
         -3    1    1    2    0  503 -0.20238717404E+02  0.17988500549E+00 -0.37708470833E+02  0.42796808448E+02  0.00000000000E+00 0.  1.
<mgrwt>
<rscale>  2 0.20239517E+02</rscale>
<asrwt>0</asrwt>
<pdfrwt beam="1">  1       21 0.57860032E-03 0.20239517E+02</pdfrwt>
<pdfrwt beam="2">  1       21 0.19141570E-01 0.20239517E+02</pdfrwt>
<totfact> 0.14474107E+08</totfact>
</mgrwt>
</event>
<event>
 4    1  0.7841599E+004  0.2057417E+02  0.7546771E-02  0.1734145E+00
         21   -1    0    0  501  502  0.00000000000E+00  0.00000000000E+00  0.53565835001E+01  0.53565835001E+01  0.00000000000E+00 0. -1.
         21   -1    0    0  502  503 -0.00000000000E+00 -0.00000000000E+00 -0.83092808536E+02  0.83092808536E+02  0.00000000000E+00 0. -1.
          2    1    1    2  501    0 -0.29069332298E+01  0.20367773750E+02 -0.29081361390E+02  0.35623335731E+02  0.00000000000E+00 0.  1.
         -2    1    1    2    0  503  0.29069332298E+01 -0.20367773750E+02 -0.48654863646E+02  0.52826056305E+02  0.00000000000E+00 0. -1.
<mgrwt>
<rscale>  2 0.20574170E+02</rscale>
<asrwt>0</asrwt>
<pdfrwt beam="1">  1       21 0.82408983E-03 0.20574170E+02</pdfrwt>
<pdfrwt beam="2">  1       21 0.12783508E-01 0.20574170E+02</pdfrwt>
<totfact> 0.17115113E+08</totfact>
</mgrwt>
</event>
<event>
 4    1  0.7841599E+004  0.4155053E+02  0.7546771E-02  0.1497102E+00
         21   -1    0    0  501  502  0.00000000000E+00  0.00000000000E+00  0.32098725543E+03  0.32098725543E+03  0.00000000000E+00 0. -1.
         21   -1    0    0  502  503 -0.00000000000E+00 -0.00000000000E+00 -0.71252827985E+01  0.71252827985E+01  0.00000000000E+00 0. -1.
          4    1    1    2  501    0  0.20840402120E+02  0.35946125466E+02  0.75703146895E+02  0.86356312719E+02  0.00000000000E+00 0.  1.
         -4    1    1    2    0  503 -0.20840402120E+02 -0.35946125466E+02  0.23815882574E+03  0.24175622551E+03  0.00000000000E+00 0. -1.
<mgrwt>
<rscale>  2 0.41550527E+02</rscale>
<asrwt>0</asrwt>
<pdfrwt beam="1">  1       21 0.49382643E-01 0.41550527E+02</pdfrwt>
<pdfrwt beam="2">  1       21 0.10961976E-02 0.41550527E+02</pdfrwt>
<totfact> 0.11188950E+07</totfact>
</mgrwt>
</event>
<event>
 4    1  0.7841599E+004  0.2108566E+02  0.7546771E-02  0.1724562E+00
         21   -1    0    0  503  502  0.00000000000E+00  0.00000000000E+00  0.80892371035E+00  0.80892371035E+00  0.00000000000E+00 0. -1.
         21   -1    0    0  501  503 -0.00000000000E+00 -0.00000000000E+00 -0.71887663248E+03  0.71887663248E+03  0.00000000000E+00 0. -1.
          2    1    1    2  501    0  0.14498907831E+02  0.15309694409E+02 -0.18443095829E+03  0.18563238793E+03  0.00000000000E+00 0.  1.
         -2    1    1    2    0  502 -0.14498907831E+02 -0.15309694409E+02 -0.53363675048E+03  0.53405316826E+03  0.00000000000E+00 0. -1.
<mgrwt>
<rscale>  2 0.21085660E+02</rscale>
<asrwt>0</asrwt>
<pdfrwt beam="1">  1       21 0.12444969E-03 0.21085660E+02</pdfrwt>
<pdfrwt beam="2">  1       21 0.11059650E+00 0.21085660E+02</pdfrwt>
<totfact> 0.45695395E+07</totfact>
</mgrwt>
</event>
<event>
 4    1  0.7841599E+004  0.2747776E+02  0.7546771E-02  0.1627768E+00
         21   -1    0    0  501  502  0.00000000000E+00  0.00000000000E+00  0.16812800991E+02  0.16812800991E+02  0.00000000000E+00 0. -1.
         21   -1    0    0  502  503 -0.00000000000E+00 -0.00000000000E+00 -0.47712061100E+02  0.47712061100E+02  0.00000000000E+00 0. -1.
          4    1    1    2  501    0 -0.10855310852E+02 -0.25242617514E+02 -0.76282242950E+01  0.28516965451E+02  0.00000000000E+00 0.  1.
         -4    1    1    2    0  503  0.10855310852E+02  0.25242617514E+02 -0.23271035814E+02  0.36007896641E+02  0.00000000000E+00 0. -1.
<mgrwt>
<rscale>  2 0.27477764E+02</rscale>
<asrwt>0</asrwt>
<pdfrwt beam="1">  1       21 0.25865848E-02 0.27477764E+02</pdfrwt>
<pdfrwt beam="2">  1       21 0.73403170E-02 0.27477764E+02</pdfrwt>
<totfact> 0.81563790E+07</totfact>
</mgrwt>
</event>
<event>
 4    1  0.7841599E+004  0.2253208E+02  0.7546771E-02  0.1699209E+00
         21   -1    0    0  503  502  0.00000000000E+00  0.00000000000E+00  0.71455895241E+00  0.71455895241E+00  0.00000000000E+00 0. -1.
         21   -1    0    0  501  503 -0.00000000000E+00 -0.00000000000E+00 -0.71207825601E+03  0.71207825601E+03  0.00000000000E+00 0. -1.
          5    1    1    2  501    0 -0.20604955909E+02  0.91175973651E+01 -0.37245567761E+03  0.37313660578E+03  0.00000000000E+00 0. -1.
         -5    1    1    2    0  502  0.20604955909E+02 -0.91175973651E+01 -0.33890801944E+03  0.33965620918E+03  0.00000000000E+00 0.  1.
<mgrwt>
<rscale>  2 0.22532084E+02</rscale>
<asrwt>0</asrwt>
<pdfrwt beam="1">  1       21 0.10993279E-03 0.22532084E+02</pdfrwt>
<pdfrwt beam="2">  1       21 0.10954986E+00 0.22532084E+02</pdfrwt>
<totfact> 0.56523446E+07</totfact>
</mgrwt>
</event>
<event>
 4    1  0.7841599E+004  0.2954219E+02  0.7546771E-02  0.1603205E+00
         21   -1    0    0  501  502  0.00000000000E+00  0.00000000000E+00  0.74740027788E+01  0.74740027788E+01  0.00000000000E+00 0.  1.
         21   -1    0    0  502  503 -0.00000000000E+00 -0.00000000000E+00 -0.17603084081E+03  0.17603084081E+03  0.00000000000E+00 0.  1.
          1    1    1    2  501    0  0.13650911136E+02 -0.26199114786E+02 -0.13751451906E+03  0.14065199587E+03  0.00000000000E+00 0.  1.
         -1    1    1    2    0  503 -0.13650911136E+02  0.26199114786E+02 -0.31042318973E+02  0.42852847719E+02  0.00000000000E+00 0. -1.
<mgrwt>
<rscale>  2 0.29542190E+02</rscale>
<asrwt>0</asrwt>
<pdfrwt beam="1">  1       21 0.11498466E-02 0.29542190E+02</pdfrwt>
<pdfrwt beam="2">  1       21 0.27081667E-01 0.29542190E+02</pdfrwt>
<totfact> 0.30781645E+07</totfact>
</mgrwt>
</event>
<event>
 4    1  0.7841599E+004  0.2134659E+02  0.7546771E-02  0.1719804E+00
         21   -1    0    0  503  502  0.00000000000E+00  0.00000000000E+00  0.25463986021E+02  0.25463986021E+02  0.00000000000E+00 0.  1.
         21   -1    0    0  501  503 -0.00000000000E+00 -0.00000000000E+00 -0.18186199229E+02  0.18186199229E+02  0.00000000000E+00 0.  1.
          1    1    1    2  501    0 -0.20455890101E+02  0.61019210646E+01  0.64008311716E+01  0.22285589967E+02  0.00000000000E+00 0. -1.
         -1    1    1    2    0  502  0.20455890101E+02 -0.61019210646E+01  0.87695562053E+00  0.21364595284E+02  0.00000000000E+00 0.  1.
<mgrwt>
<rscale>  2 0.21346589E+02</rscale>
<asrwt>0</asrwt>
<pdfrwt beam="1">  1       21 0.39175363E-02 0.21346589E+02</pdfrwt>
<pdfrwt beam="2">  1       21 0.27978768E-02 0.21346589E+02</pdfrwt>
<totfact> 0.18360434E+08</totfact>
</mgrwt>
</event>
<event>
 4    1  0.7841599E+004  0.2849688E+02  0.7546771E-02  0.1615324E+00
         21   -1    0    0  501  502  0.00000000000E+00  0.00000000000E+00  0.37392786172E+03  0.37392786172E+03  0.00000000000E+00 0. -1.
         21   -1    0    0  502  503 -0.00000000000E+00 -0.00000000000E+00 -0.32235332986E+01  0.32235332986E+01  0.00000000000E+00 0. -1.
          3    1    1    2  501    0 -0.22103300436E+02  0.17986564872E+02  0.77634786019E+02  0.82699651791E+02  0.00000000000E+00 0.  1.
         -3    1    1    2    0  503  0.22103300436E+02 -0.17986564872E+02  0.29306954240E+03  0.29445174323E+03  0.00000000000E+00 0. -1.
<mgrwt>
<rscale>  2 0.28496884E+02</rscale>
<asrwt>0</asrwt>
<pdfrwt beam="1">  1       21 0.57527329E-01 0.28496884E+02</pdfrwt>
<pdfrwt beam="2">  1       21 0.49592850E-03 0.28496884E+02</pdfrwt>
<totfact> 0.25778811E+07</totfact>
</mgrwt>
</event>
<event>
 4    1  0.7841599E+004  0.2274223E+02  0.7546771E-02  0.1695723E+00
         21   -1    0    0  503  502  0.00000000000E+00  0.00000000000E+00  0.14585505594E+04  0.14585505594E+04  0.00000000000E+00 0. -1.
         21   -1    0    0  501  503 -0.00000000000E+00 -0.00000000000E+00 -0.38621789716E+00  0.38621789716E+00  0.00000000000E+00 0. -1.
          2    1    1    2  501    0 -0.18485089879E+02  0.13248032622E+02  0.52038126423E+03  0.52087797907E+03  0.00000000000E+00 0. -1.
         -2    1    1    2    0  502  0.18485089879E+02 -0.13248032622E+02  0.93778307725E+03  0.93805879821E+03  0.00000000000E+00 0.  1.
<mgrwt>
<rscale>  2 0.22742228E+02</rscale>
<asrwt>0</asrwt>
<pdfrwt beam="1">  1       21 0.22438798E+00 0.22742228E+02</pdfrwt>
<pdfrwt beam="2">  1       21 0.59419306E-04 0.22742228E+02</pdfrwt>
<totfact> 0.23983870E+07</totfact>
</mgrwt>
</event>
<event>
 4    1  0.7841599E+004  0.2294209E+02  0.7546771E-02  0.1692451E+00
         21   -1    0    0  501  502  0.00000000000E+00  0.00000000000E+00  0.74477026954E+03  0.74477026954E+03  0.00000000000E+00 0. -1.
         21   -1    0    0  502  503 -0.00000000000E+00 -0.00000000000E+00 -0.73434489868E+00  0.73434489868E+00  0.00000000000E+00 0. -1.
          1    1    1    2  501    0 -0.45727351827E+01 -0.22481757802E+02  0.29971263643E+03  0.30058942725E+03  0.00000000000E+00 0.  1.
         -1    1    1    2    0  503  0.45727351827E+01  0.22481757802E+02  0.44432328822E+03  0.44491518719E+03  0.00000000000E+00 0. -1.
<mgrwt>
<rscale>  2 0.22942087E+02</rscale>
<asrwt>0</asrwt>
<pdfrwt beam="1">  1       21 0.11457944E+00 0.22942087E+02</pdfrwt>
<pdfrwt beam="2">  1       21 0.11297673E-03 0.22942087E+02</pdfrwt>
<totfact> 0.49377210E+07</totfact>
</mgrwt>
</event>
<event>
 4    1  0.7841599E+004  0.2546526E+02  0.7546771E-02  0.1654408E+00
         21   -1    0    0  501  502  0.00000000000E+00  0.00000000000E+00  0.39403183157E+01  0.39403183157E+01  0.00000000000E+00 0.  1.
         21   -1    0    0  502  503 -0.00000000000E+00 -0.00000000000E+00 -0.17090497728E+03  0.17090497728E+03  0.00000000000E+00 0.  1.
          5    1    1    2  501    0 -0.18515488762E+02  0.17483025288E+02 -0.10030649973E+03  0.10348851814E+03  0.00000000000E+00 0. -1.
         -5    1    1    2    0  503  0.18515488762E+02 -0.17483025288E+02 -0.66658159235E+02  0.71356777463E+02  0.00000000000E+00 0.  1.
<mgrwt>
<rscale>  2 0.25465261E+02</rscale>
<asrwt>0</asrwt>
<pdfrwt beam="1">  1       21 0.60620273E-03 0.25465261E+02</pdfrwt>
<pdfrwt beam="2">  1       21 0.26293077E-01 0.25465261E+02</pdfrwt>
<totfact> 0.82242706E+07</totfact>
</mgrwt>
</event>
<event>
 4    1  0.7841599E+004  0.3097077E+02  0.7546771E-02  0.1587599E+00
         21   -1    0    0  501  502  0.00000000000E+00  0.00000000000E+00  0.29020394436E+02  0.29020394436E+02  0.00000000000E+00 0. -1.
         21   -1    0    0  502  503 -0.00000000000E+00 -0.00000000000E+00 -0.33362007647E+02  0.33362007647E+02  0.00000000000E+00 0. -1.
          2    1    1    2  501    0  0.22829697122E+02  0.20928296059E+02 -0.51764232181E+01  0.31400382226E+02  0.00000000000E+00 0. -1.
         -2    1    1    2    0  503 -0.22829697122E+02 -0.20928296059E+02  0.83481000679E+00  0.30982019856E+02  0.00000000000E+00 0.  1.
<mgrwt>
<rscale>  2 0.30970771E+02</rscale>
<asrwt>0</asrwt>
<pdfrwt beam="1">  1       21 0.44646760E-02 0.30970771E+02</pdfrwt>
<pdfrwt beam="2">  1       21 0.51326166E-02 0.30970771E+02</pdfrwt>
<totfact> 0.63357876E+07</totfact>
</mgrwt>
</event>
<event>
 4    1  0.7841599E+004  0.2484377E+02  0.7546771E-02  0.1663256E+00
         21   -1    0    0  501  502  0.00000000000E+00  0.00000000000E+00  0.14787236894E+02  0.14787236894E+02  0.00000000000E+00 0.  1.
         21   -1    0    0  502  503 -0.00000000000E+00 -0.00000000000E+00 -0.47351460535E+02  0.47351460535E+02  0.00000000000E+00 0.  1.
          1    1    1    2  501    0  0.22501068536E+02  0.10531620784E+02 -0.55861584653E+01  0.25464058750E+02  0.00000000000E+00 0.  1.
         -1    1    1    2    0  503 -0.22501068536E+02 -0.10531620784E+02 -0.26978065176E+02  0.36674638679E+02  0.00000000000E+00 0. -1.
<mgrwt>
<rscale>  2 0.24843774E+02</rscale>
<asrwt>0</asrwt>
<pdfrwt beam="1">  1       21 0.22749596E-02 0.24843774E+02</pdfrwt>
<pdfrwt beam="2">  1       21 0.72848400E-02 0.24843774E+02</pdfrwt>
<totfact> 0.98193759E+07</totfact>
</mgrwt>
</event>
<event>
 4    1  0.7841599E+004  0.2734326E+02  0.7546771E-02  0.1629460E+00
         21   -1    0    0  501  502  0.00000000000E+00  0.00000000000E+00  0.27155661127E+02  0.27155661127E+02  0.00000000000E+00 0. -1.
         21   -1    0    0  502  503 -0.00000000000E+00 -0.00000000000E+00 -0.27694573147E+02  0.27694573147E+02  0.00000000000E+00 0. -1.
          4    1    1    2  501    0 -0.17414043286E+02  0.21080919519E+02  0.18307339525E+01  0.27404482447E+02  0.00000000000E+00 0. -1.
         -4    1    1    2    0  503  0.17414043286E+02 -0.21080919519E+02 -0.23696459729E+01  0.27445751828E+02  0.00000000000E+00 0.  1.
<mgrwt>
<rscale>  2 0.27343264E+02</rscale>
<asrwt>0</asrwt>
<pdfrwt beam="1">  1       21 0.41777940E-02 0.27343264E+02</pdfrwt>
<pdfrwt beam="2">  1       21 0.42607036E-02 0.27343264E+02</pdfrwt>
<totfact> 0.92077561E+07</totfact>
</mgrwt>
</event>
<event>
 4    1  0.7841599E+004  0.2261441E+02  0.7546771E-02  0.1697838E+00
         21   -1    0    0  503  502  0.00000000000E+00  0.00000000000E+00  0.12759580153E+03  0.12759580153E+03  0.00000000000E+00 0.  1.
         21   -1    0    0  501  503 -0.00000000000E+00 -0.00000000000E+00 -0.42998621775E+01  0.42998621775E+01  0.00000000000E+00 0.  1.
          2    1    1    2  501    0 -0.14804673924E+02  0.17094834416E+02  0.78827722203E+02  0.82007447963E+02  0.00000000000E+00 0.  1.
         -2    1    1    2    0  502  0.14804673924E+02 -0.17094834416E+02  0.44468217148E+02  0.49888215743E+02  0.00000000000E+00 0. -1.
<mgrwt>
<rscale>  2 0.22614414E+02</rscale>
<asrwt>0</asrwt>
<pdfrwt beam="1">  1       21 0.19630120E-01 0.22614414E+02</pdfrwt>
<pdfrwt beam="2">  1       21 0.66151736E-03 0.22614414E+02</pdfrwt>
<totfact> 0.11738926E+08</totfact>
</mgrwt>
</event>
<event>
 4    1  0.7841599E+004  0.2381703E+02  0.7546771E-02  0.1678599E+00
         21   -1    0    0  501  502  0.00000000000E+00  0.00000000000E+00  0.11139373227E+02  0.11139373227E+02  0.00000000000E+00 0.  1.
         21   -1    0    0  502  503 -0.00000000000E+00 -0.00000000000E+00 -0.60579455327E+02  0.60579455327E+02  0.00000000000E+00 0.  1.
          4    1    1    2  501    0 -0.67337685624E+01 -0.22845287240E+02 -0.39036921472E+02  0.45728897058E+02  0.00000000000E+00 0.  1.
         -4    1    1    2    0  503  0.67337685624E+01  0.22845287240E+02 -0.10403160627E+02  0.25989931496E+02  0.00000000000E+00 0. -1.
<mgrwt>
<rscale>  2 0.23817027E+02</rscale>
<asrwt>0</asrwt>
<pdfrwt beam="1">  1       21 0.17137498E-02 0.23817027E+02</pdfrwt>
<pdfrwt beam="2">  1       21 0.93199160E-02 0.23817027E+02</pdfrwt>
<totfact> 0.10018873E+08</totfact>
</mgrwt>
</event>
<event>
 4    1  0.7841599E+004  0.2057855E+02  0.7546771E-02  0.1734062E+00
         21   -1    0    0  503  502  0.00000000000E+00  0.00000000000E+00  0.30875285452E+02  0.30875285452E+02  0.00000000000E+00 0. -1.
         21   -1    0    0  501  503 -0.00000000000E+00 -0.00000000000E+00 -0.13716140331E+02  0.13716140331E+02  0.00000000000E+00 0. -1.
          2    1    1    2  501    0 -0.45049469024E+01  0.20079393000E+02  0.84551991937E+01  0.22247853003E+02  0.00000000000E+00 0. -1.
         -2    1    1    2    0  502  0.45049469024E+01 -0.20079393000E+02  0.87039459272E+01  0.22343572780E+02  0.00000000000E+00 0.  1.
<mgrwt>
<rscale>  2 0.20578546E+02</rscale>
<asrwt>0</asrwt>
<pdfrwt beam="1">  1       21 0.47500439E-02 0.20578546E+02</pdfrwt>
<pdfrwt beam="2">  1       21 0.21101754E-02 0.20578546E+02</pdfrwt>
<totfact> 0.20680211E+08</totfact>
</mgrwt>
</event>
<event>
 4    1  0.7841599E+004  0.2011679E+02  0.7546771E-02  0.1743016E+00
         21   -1    0    0  503  502  0.00000000000E+00  0.00000000000E+00  0.17911600675E+03  0.17911600675E+03  0.00000000000E+00 0. -1.
         21   -1    0    0  501  503 -0.00000000000E+00 -0.00000000000E+00 -0.29147753557E+01  0.29147753557E+01  0.00000000000E+00 0. -1.
          5    1    1    2  501    0 -0.22552220277E+01  0.19989974913E+02  0.44941248060E+02  0.49238205701E+02  0.00000000000E+00 0. -1.
         -5    1    1    2    0  502  0.22552220277E+01 -0.19989974913E+02  0.13125998333E+03  0.13279257640E+03  0.00000000000E+00 0.  1.
<mgrwt>
<rscale>  2 0.20116787E+02</rscale>
<asrwt>0</asrwt>
<pdfrwt beam="1">  1       21 0.27556300E-01 0.20116787E+02</pdfrwt>
<pdfrwt beam="2">  1       21 0.44842712E-03 0.20116787E+02</pdfrwt>
<totfact> 0.11069343E+08</totfact>
</mgrwt>
</event>
<event>
 4    1  0.7841599E+004  0.2088275E+02  0.7546771E-02  0.1728323E+00
         21   -1    0    0  501  502  0.00000000000E+00  0.00000000000E+00  0.58181919615E+01  0.58181919615E+01  0.00000000000E+00 0. -1.
         21   -1    0    0  502  503 -0.00000000000E+00 -0.00000000000E+00 -0.81434332176E+02  0.81434332176E+02  0.00000000000E+00 0. -1.
          1    1    1    2  501    0 -0.13130957293E+02 -0.16237838418E+02 -0.25500139267E+02  0.32959771519E+02  0.00000000000E+00 0. -1.
         -1    1    1    2    0  503  0.13130957293E+02  0.16237838418E+02 -0.50116000948E+02  0.54292752619E+02  0.00000000000E+00 0.  1.
<mgrwt>
<rscale>  2 0.20882755E+02</rscale>
<asrwt>0</asrwt>
<pdfrwt beam="1">  1       21 0.89510650E-03 0.20882755E+02</pdfrwt>
<pdfrwt beam="2">  1       21 0.12528358E-01 0.20882755E+02</pdfrwt>
<totfact> 0.15722626E+08</totfact>
</mgrwt>
</event>
<event>
 4    1  0.7841599E+004  0.4962926E+02  0.7546771E-02  0.1447352E+00
         21   -1    0    0  501  502  0.00000000000E+00  0.00000000000E+00  0.50158774104E+02  0.50158774104E+02  0.00000000000E+00 0. -1.
         21   -1    0    0  502  503 -0.00000000000E+00 -0.00000000000E+00 -0.71595218033E+02  0.71595218033E+02  0.00000000000E+00 0. -1.
          2    1    1    2  501    0 -0.49038865785E+02 -0.76323388659E+01 -0.44837897427E+02  0.66884228333E+02  0.00000000000E+00 0. -1.
         -2    1    1    2    0  503  0.49038865785E+02  0.76323388659E+01  0.23401453498E+02  0.54869763804E+02  0.00000000000E+00 0.  1.
<mgrwt>
<rscale>  2 0.49629255E+02</rscale>
<asrwt>0</asrwt>
<pdfrwt beam="1">  1       21 0.77167345E-02 0.49629255E+02</pdfrwt>
<pdfrwt beam="2">  1       21 0.11014649E-01 0.49629255E+02</pdfrwt>
<totfact> 0.78830003E+06</totfact>
</mgrwt>
</event>
<event>
 4    1  0.7841599E+004  0.2039147E+02  0.7546771E-02  0.1737653E+00
         21   -1    0    0  503  502  0.00000000000E+00  0.00000000000E+00  0.20141031608E+01  0.20141031608E+01  0.00000000000E+00 0.  1.
         21   -1    0    0  501  503 -0.00000000000E+00 -0.00000000000E+00 -0.21800622036E+03  0.21800622036E+03  0.00000000000E+00 0.  1.
          1    1    1    2  501    0 -0.11509554231E+02 -0.16832774082E+02 -0.13332408648E+03  0.13487447556E+03  0.00000000000E+00 0.  1.
         -1    1    1    2    0  502  0.11509554231E+02  0.16832774082E+02 -0.82668030711E+02  0.85145847953E+02  0.00000000000E+00 0. -1.
<mgrwt>
<rscale>  2 0.20391472E+02</rscale>
<asrwt>0</asrwt>
<pdfrwt beam="1">  1       21 0.30986209E-03 0.20391472E+02</pdfrwt>
<pdfrwt beam="2">  1       21 0.33539411E-01 0.20391472E+02</pdfrwt>
<totfact> 0.13344313E+08</totfact>
</mgrwt>
</event>
<event>
 4    1  0.7841599E+004  0.3321861E+02  0.7546771E-02  0.1565014E+00
         21   -1    0    0  503  502  0.00000000000E+00  0.00000000000E+00  0.13662609222E+03  0.13662609222E+03  0.00000000000E+00 0.  1.
         21   -1    0    0  501  503 -0.00000000000E+00 -0.00000000000E+00 -0.11058005792E+02  0.11058005792E+02  0.00000000000E+00 0.  1.
          2    1    1    2  501    0  0.62499402977E+01 -0.32625359393E+02  0.10112606953E+03  0.10644227435E+03  0.00000000000E+00 0. -1.
         -2    1    1    2    0  502 -0.62499402977E+01  0.32625359393E+02  0.24442016895E+02  0.41241823664E+02  0.00000000000E+00 0.  1.
<mgrwt>
<rscale>  2 0.33218607E+02</rscale>
<asrwt>0</asrwt>
<pdfrwt beam="1">  1       21 0.21019398E-01 0.33218607E+02</pdfrwt>
<pdfrwt beam="2">  1       21 0.17012318E-02 0.33218607E+02</pdfrwt>
<totfact> 0.27219607E+07</totfact>
</mgrwt>
</event>
<event>
 4    1  0.7841599E+004  0.2400610E+02  0.7546771E-02  0.1675702E+00
         21   -1    0    0  503  502  0.00000000000E+00  0.00000000000E+00  0.36894811140E+03  0.36894811140E+03  0.00000000000E+00 0. -1.
         21   -1    0    0  501  503 -0.00000000000E+00 -0.00000000000E+00 -0.16687372651E+01  0.16687372651E+01  0.00000000000E+00 0. -1.
          2    1    1    2  501    0  0.23800247569E+02  0.31370161806E+01  0.23050838611E+03  0.23175506191E+03  0.00000000000E+00 0. -1.
         -2    1    1    2    0  502 -0.23800247569E+02 -0.31370161806E+01  0.13677098802E+03  0.13886178675E+03  0.00000000000E+00 0.  1.
<mgrwt>
<rscale>  2 0.24006096E+02</rscale>
<asrwt>0</asrwt>
<pdfrwt beam="1">  1       21 0.56761183E-01 0.24006096E+02</pdfrwt>
<pdfrwt beam="2">  1       21 0.25672910E-03 0.24006096E+02</pdfrwt>
<totfact> 0.67206721E+07</totfact>
</mgrwt>
</event>
<event>
 4    1  0.7841599E+004  0.2653636E+02  0.7546771E-02  0.1639867E+00
         21   -1    0    0  503  502  0.00000000000E+00  0.00000000000E+00  0.76864020409E+03  0.76864020409E+03  0.00000000000E+00 0.  1.
         21   -1    0    0  501  503 -0.00000000000E+00 -0.00000000000E+00 -0.96169905672E+00  0.96169905672E+00  0.00000000000E+00 0.  1.
          5    1    1    2  501    0  0.13055688425E+02 -0.23102537741E+02  0.30008104377E+03  0.30125207232E+03  0.00000000000E+00 0. -1.
         -5    1    1    2    0  502 -0.13055688425E+02  0.23102537741E+02  0.46759746126E+03  0.46834983082E+03  0.00000000000E+00 0.  1.
<mgrwt>
<rscale>  2 0.26536357E+02</rscale>
<asrwt>0</asrwt>
<pdfrwt beam="1">  1       21 0.11825185E+00 0.26536357E+02</pdfrwt>
<pdfrwt beam="2">  1       21 0.14795432E-03 0.26536357E+02</pdfrwt>
<totfact> 0.32144095E+07</totfact>
</mgrwt>
</event>
<event>
 4    1  0.7841599E+004  0.3405468E+02  0.7546771E-02  0.1557159E+00
         21   -1    0    0  503  502  0.00000000000E+00  0.00000000000E+00  0.49046735145E+02  0.49046735145E+02  0.00000000000E+00 0. -1.
         21   -1    0    0  501  503 -0.00000000000E+00 -0.00000000000E+00 -0.28211664257E+02  0.28211664257E+02  0.00000000000E+00 0. -1.
          3    1    1    2  501    0 -0.30906870227E+02  0.14299892627E+02  0.25958921398E+02  0.42820405842E+02  0.00000000000E+00 0.  1.
         -3    1    1    2    0  502  0.30906870227E+02 -0.14299892627E+02 -0.51238505099E+01  0.34437993560E+02  0.00000000000E+00 0. -1.
<mgrwt>
<rscale>  2 0.34054685E+02</rscale>
<asrwt>0</asrwt>
<pdfrwt beam="1">  1       21 0.75456515E-02 0.34054685E+02</pdfrwt>
<pdfrwt beam="2">  1       21 0.43402560E-02 0.34054685E+02</pdfrwt>
<totfact> 0.36080900E+07</totfact>
</mgrwt>
</event>
<event>
 4    1  0.7841599E+004  0.2349027E+02  0.7546771E-02  0.1683684E+00
         21   -1    0    0  503  502  0.00000000000E+00  0.00000000000E+00  0.10230799680E+02  0.10230799680E+02  0.00000000000E+00 0.  1.
         21   -1    0    0  501  503 -0.00000000000E+00 -0.00000000000E+00 -0.53990645189E+02  0.53990645189E+02  0.00000000000E+00 0.  1.
          1    1    1    2  501    0  0.74935964701E+01 -0.22262951932E+02 -0.20844386199E+02  0.31405118258E+02  0.00000000000E+00 0.  1.
         -1    1    1    2    0  502 -0.74935964701E+01  0.22262951932E+02 -0.22915459311E+02  0.32816326611E+02  0.00000000000E+00 0. -1.
<mgrwt>
<rscale>  2 0.23490275E+02</rscale>
<asrwt>0</asrwt>
<pdfrwt beam="1">  1       21 0.15739692E-02 0.23490275E+02</pdfrwt>
<pdfrwt beam="2">  1       21 0.83062530E-02 0.23490275E+02</pdfrwt>
<totfact> 0.13728323E+08</totfact>
</mgrwt>
</event>
<event>
 4    1  0.7841599E+004  0.2035317E+02  0.7546771E-02  0.1738395E+00
         21   -1    0    0  503  502  0.00000000000E+00  0.00000000000E+00  0.17187787751E+03  0.17187787751E+03  0.00000000000E+00 0.  1.
         21   -1    0    0  501  503 -0.00000000000E+00 -0.00000000000E+00 -0.29694221256E+01  0.29694221256E+01  0.00000000000E+00 0.  1.
          3    1    1    2  501    0 -0.11871869619E+02 -0.16532095346E+02  0.46513596232E+02  0.50771705695E+02  0.00000000000E+00 0.  1.
         -3    1    1    2    0  502  0.11871869619E+02  0.16532095346E+02  0.12239485916E+03  0.12407559394E+03  0.00000000000E+00 0. -1.
<mgrwt>
<rscale>  2 0.20353168E+02</rscale>
<asrwt>0</asrwt>
<pdfrwt beam="1">  1       21 0.26442743E-01 0.20353168E+02</pdfrwt>
<pdfrwt beam="2">  1       21 0.45683431E-03 0.20353168E+02</pdfrwt>
<totfact> 0.11636240E+08</totfact>
</mgrwt>
</event>
<event>
 4    1  0.7841599E+004  0.2952054E+02  0.7546771E-02  0.1603450E+00
         21   -1    0    0  503  502  0.00000000000E+00  0.00000000000E+00  0.34652783988E+02  0.34652783988E+02  0.00000000000E+00 0.  1.
         21   -1    0    0  501  503 -0.00000000000E+00 -0.00000000000E+00 -0.34343812723E+02  0.34343812723E+02  0.00000000000E+00 0.  1.
          2    1    1    2  501    0 -0.28922162624E+02  0.59136052350E+01 -0.17696365772E+02  0.34418361078E+02  0.00000000000E+00 0. -1.
         -2    1    1    2    0  502  0.28922162624E+02 -0.59136052350E+01  0.18005337036E+02  0.34578235633E+02  0.00000000000E+00 0.  1.
<mgrwt>
<rscale>  2 0.29520539E+02</rscale>
<asrwt>0</asrwt>
<pdfrwt beam="1">  1       21 0.53311975E-02 0.29520539E+02</pdfrwt>
<pdfrwt beam="2">  1       21 0.52836635E-02 0.29520539E+02</pdfrwt>
<totfact> 0.44995274E+07</totfact>
</mgrwt>
</event>
<event>
 4    1  0.7841599E+004  0.2097402E+02  0.7546771E-02  0.1726625E+00
         21   -1    0    0  501  502  0.00000000000E+00  0.00000000000E+00  0.17298083209E+03  0.17298083209E+03  0.00000000000E+00 0. -1.
         21   -1    0    0  502  503 -0.00000000000E+00 -0.00000000000E+00 -0.28382685772E+01  0.28382685772E+01  0.00000000000E+00 0. -1.
          3    1    1    2  501    0  0.16073203168E+02  0.13474473867E+02  0.11342022823E+03  0.11534321600E+03  0.00000000000E+00 0. -1.
         -3    1    1    2    0  503 -0.16073203168E+02 -0.13474473867E+02  0.56722335284E+02  0.60475884666E+02  0.00000000000E+00 0.  1.
<mgrwt>
<rscale>  2 0.20974015E+02</rscale>
<asrwt>0</asrwt>
<pdfrwt beam="1">  1       21 0.26612427E-01 0.20974015E+02</pdfrwt>
<pdfrwt beam="2">  1       21 0.43665684E-03 0.20974015E+02</pdfrwt>
<totfact> 0.12397706E+08</totfact>
</mgrwt>
</event>
<event>
 4    1  0.7841599E+004  0.2238924E+02  0.7546771E-02  0.1701606E+00
         21   -1    0    0  501  502  0.00000000000E+00  0.00000000000E+00  0.80628084065E+03  0.80628084065E+03  0.00000000000E+00 0. -1.
         21   -1    0    0  502  503 -0.00000000000E+00 -0.00000000000E+00 -0.14387409729E+01  0.14387409729E+01  0.00000000000E+00 0. -1.
          2    1    1    2  501    0  0.52728523970E+01  0.21759484558E+02  0.70675950389E+03  0.70711404631E+03  0.00000000000E+00 0. -1.
         -2    1    1    2    0  503 -0.52728523970E+01 -0.21759484558E+02  0.98082595788E+02  0.10060553532E+03  0.00000000000E+00 0.  1.
<mgrwt>
<rscale>  2 0.22389242E+02</rscale>
<asrwt>0</asrwt>
<pdfrwt beam="1">  1       21 0.12404285E+00 0.22389242E+02</pdfrwt>
<pdfrwt beam="2">  1       21 0.22134541E-03 0.22389242E+02</pdfrwt>
<totfact> 0.15636344E+07</totfact>
</mgrwt>
</event>
<event>
 4    1  0.7841599E+004  0.2458175E+02  0.7546771E-02  0.1667083E+00
         21   -1    0    0  503  502  0.00000000000E+00  0.00000000000E+00  0.42553524528E+02  0.42553524528E+02  0.00000000000E+00 0. -1.
         21   -1    0    0  501  503 -0.00000000000E+00 -0.00000000000E+00 -0.15227964727E+02  0.15227964727E+02  0.00000000000E+00 0. -1.
          5    1    1    2  501    0  0.11062594698E+02 -0.21951795696E+02  0.61566589989E+01  0.25341009960E+02  0.00000000000E+00 0.  1.
         -5    1    1    2    0  502 -0.11062594698E+02  0.21951795696E+02  0.21168900802E+02  0.32440479295E+02  0.00000000000E+00 0. -1.
<mgrwt>
<rscale>  2 0.24581748E+02</rscale>
<asrwt>0</asrwt>
<pdfrwt beam="1">  1       21 0.65466960E-02 0.24581748E+02</pdfrwt>
<pdfrwt beam="2">  1       21 0.23427638E-02 0.24581748E+02</pdfrwt>
<totfact> 0.11128558E+08</totfact>
</mgrwt>
</event>
<event>
 4    1  0.7841599E+004  0.3475658E+02  0.7546771E-02  0.1550773E+00
         21   -1    0    0  501  502  0.00000000000E+00  0.00000000000E+00  0.47372050892E+01  0.47372050892E+01  0.00000000000E+00 0. -1.
         21   -1    0    0  502  503 -0.00000000000E+00 -0.00000000000E+00 -0.27965671500E+03  0.27965671500E+03  0.00000000000E+00 0. -1.
          3    1    1    2  501    0 -0.29373898329E+02  0.18579391259E+02 -0.95242977474E+02  0.10138660878E+03  0.00000000000E+00 0. -1.
         -3    1    1    2    0  503  0.29373898329E+02 -0.18579391259E+02 -0.17967653244E+03  0.18300731131E+03  0.00000000000E+00 0.  1.
<mgrwt>
<rscale>  2 0.34756578E+02</rscale>
<asrwt>0</asrwt>
<pdfrwt beam="1">  1       21 0.72880059E-03 0.34756578E+02</pdfrwt>
<pdfrwt beam="2">  1       21 0.43024122E-01 0.34756578E+02</pdfrwt>
<totfact> 0.26580205E+07</totfact>
</mgrwt>
</event>
<event>
 4    1  0.7841599E+004  0.2906958E+02  0.7546771E-02  0.1608607E+00
         21   -1    0    0  503  502  0.00000000000E+00  0.00000000000E+00  0.33898735602E+02  0.33898735602E+02  0.00000000000E+00 0. -1.
         21   -1    0    0  501  503 -0.00000000000E+00 -0.00000000000E+00 -0.28673835373E+02  0.28673835373E+02  0.00000000000E+00 0. -1.
          3    1    1    2  501    0  0.13366881846E+02  0.25814082456E+02 -0.86949752596E+01  0.30342099105E+02  0.00000000000E+00 0. -1.
         -3    1    1    2    0  502 -0.13366881846E+02 -0.25814082456E+02  0.13919875489E+02  0.32230471870E+02  0.00000000000E+00 0.  1.
<mgrwt>
<rscale>  2 0.29069578E+02</rscale>
<asrwt>0</asrwt>
<pdfrwt beam="1">  1       21 0.52151901E-02 0.29069578E+02</pdfrwt>
<pdfrwt beam="2">  1       21 0.44113593E-02 0.29069578E+02</pdfrwt>
<totfact> 0.62044243E+07</totfact>
</mgrwt>
</event>
<event>
 4    1  0.7841599E+004  0.2614754E+02  0.7546771E-02  0.1645046E+00
         21   -1    0    0  503  502  0.00000000000E+00  0.00000000000E+00  0.15811045321E+02  0.15811045321E+02  0.00000000000E+00 0.  1.
         21   -1    0    0  501  503 -0.00000000000E+00 -0.00000000000E+00 -0.45878094450E+02  0.45878094450E+02  0.00000000000E+00 0.  1.
          1    1    1    2  501    0 -0.20634499230E+02  0.16059610206E+02 -0.22427806769E+02  0.34448514553E+02  0.00000000000E+00 0. -1.
         -1    1    1    2    0  502  0.20634499230E+02 -0.16059610206E+02 -0.76392423600E+01  0.27240625218E+02  0.00000000000E+00 0.  1.
<mgrwt>
<rscale>  2 0.26147536E+02</rscale>
<asrwt>0</asrwt>
<pdfrwt beam="1">  1       21 0.24324685E-02 0.26147536E+02</pdfrwt>
<pdfrwt beam="2">  1       21 0.70581684E-02 0.26147536E+02</pdfrwt>
<totfact> 0.94457683E+07</totfact>
</mgrwt>
</event>
<event>
 4    1  0.7841599E+004  0.2544627E+02  0.7546771E-02  0.1654674E+00
         21   -1    0    0  501  502  0.00000000000E+00  0.00000000000E+00  0.87261528373E+00  0.87261528373E+00  0.00000000000E+00 0. -1.
         21   -1    0    0  502  503 -0.00000000000E+00 -0.00000000000E+00 -0.74831932124E+03  0.74831932124E+03  0.00000000000E+00 0. -1.
          2    1    1    2  501    0 -0.19179555010E+02 -0.16722956271E+02 -0.40804663576E+03  0.40883929550E+03  0.00000000000E+00 0. -1.
         -2    1    1    2    0  503  0.19179555010E+02  0.16722956271E+02 -0.33940007020E+03  0.34035264102E+03  0.00000000000E+00 0.  1.
<mgrwt>
<rscale>  2 0.25446269E+02</rscale>
<asrwt>0</asrwt>
<pdfrwt beam="1">  1       21 0.13424773E-03 0.25446269E+02</pdfrwt>
<pdfrwt beam="2">  1       21 0.11512672E+00 0.25446269E+02</pdfrwt>
<totfact> 0.38970111E+07</totfact>
</mgrwt>
</event>
<event>
 4    1  0.7841599E+004  0.2188703E+02  0.7546771E-02  0.1710213E+00
         21   -1    0    0  501  502  0.00000000000E+00  0.00000000000E+00  0.11719957452E+03  0.11719957452E+03  0.00000000000E+00 0.  1.
         21   -1    0    0  502  503 -0.00000000000E+00 -0.00000000000E+00 -0.58876620671E+01  0.58876620671E+01  0.00000000000E+00 0.  1.
          2    1    1    2  501    0 -0.27392819303E+00  0.21885316447E+02  0.89687281752E+02  0.92319286288E+02  0.00000000000E+00 0.  1.
         -2    1    1    2    0  503  0.27392819303E+00 -0.21885316447E+02  0.21624630699E+02  0.30767950297E+02  0.00000000000E+00 0. -1.
<mgrwt>
<rscale>  2 0.21887031E+02</rscale>
<asrwt>0</asrwt>
<pdfrwt beam="1">  1       21 0.18030702E-01 0.21887031E+02</pdfrwt>
<pdfrwt beam="2">  1       21 0.90579425E-03 0.21887031E+02</pdfrwt>
<totfact> 0.84387639E+07</totfact>
</mgrwt>
</event>
<event>
 4    1  0.7841599E+004  0.2518287E+02  0.7546771E-02  0.1658389E+00
         21   -1    0    0  503  502  0.00000000000E+00  0.00000000000E+00  0.58464932682E+01  0.58464932682E+01  0.00000000000E+00 0. -1.
         21   -1    0    0  501  503 -0.00000000000E+00 -0.00000000000E+00 -0.11348469695E+03  0.11348469695E+03  0.00000000000E+00 0. -1.
          1    1    1    2  501    0 -0.19208171088E+02  0.16285666295E+02 -0.66359781961E+02  0.70977443073E+02  0.00000000000E+00 0. -1.
         -1    1    1    2    0  502  0.19208171088E+02 -0.16285666295E+02 -0.41278421720E+02  0.48353747145E+02  0.00000000000E+00 0.  1.
<mgrwt>
<rscale>  2 0.25182866E+02</rscale>
<asrwt>0</asrwt>
<pdfrwt beam="1">  1       21 0.89946054E-03 0.25182866E+02</pdfrwt>
<pdfrwt beam="2">  1       21 0.17459183E-01 0.25182866E+02</pdfrwt>
<totfact> 0.93632711E+07</totfact>
</mgrwt>
</event>
<event>
 4    1  0.7841599E+004  0.2040521E+02  0.7546771E-02  0.1737388E+00
         21   -1    0    0  501  502  0.00000000000E+00  0.00000000000E+00  0.12059540073E+02  0.12059540073E+02  0.00000000000E+00 0. -1.
         21   -1    0    0  502  503 -0.00000000000E+00 -0.00000000000E+00 -0.35965490616E+02  0.35965490616E+02  0.00000000000E+00 0. -1.
          4    1    1    2  501    0 -0.11439173889E+02 -0.16897269567E+02 -0.16756276367E+02  0.26403507642E+02  0.00000000000E+00 0.  1.
         -4    1    1    2    0  503  0.11439173889E+02  0.16897269567E+02 -0.71496741764E+01  0.21621523048E+02  0.00000000000E+00 0. -1.
<mgrwt>
<rscale>  2 0.20405206E+02</rscale>
<asrwt>0</asrwt>
<pdfrwt beam="1">  1       21 0.18553139E-02 0.20405206E+02</pdfrwt>
<pdfrwt beam="2">  1       21 0.55331523E-02 0.20405206E+02</pdfrwt>
<totfact> 0.19705910E+08</totfact>
</mgrwt>
</event>
<event>
 4    1  0.7841599E+004  0.2480486E+02  0.7546771E-02  0.1663821E+00
         21   -1    0    0  501  502  0.00000000000E+00  0.00000000000E+00  0.35392397227E+01  0.35392397227E+01  0.00000000000E+00 0. -1.
         21   -1    0    0  502  503 -0.00000000000E+00 -0.00000000000E+00 -0.18100633526E+03  0.18100633526E+03  0.00000000000E+00 0. -1.
          3    1    1    2  501    0 -0.19535198701E+02 -0.15285850391E+02 -0.10708649970E+03  0.10992178869E+03  0.00000000000E+00 0.  1.
         -3    1    1    2    0  503  0.19535198701E+02  0.15285850391E+02 -0.70380595842E+02  0.74623786299E+02  0.00000000000E+00 0. -1.
<mgrwt>
<rscale>  2 0.24804863E+02</rscale>
<asrwt>0</asrwt>
<pdfrwt beam="1">  1       21 0.54449842E-03 0.24804863E+02</pdfrwt>
<pdfrwt beam="2">  1       21 0.27847128E-01 0.24804863E+02</pdfrwt>
<totfact> 0.86393333E+07</totfact>
</mgrwt>
</event>
<event>
 4    1  0.7841599E+004  0.2105089E+02  0.7546771E-02  0.1725203E+00
         21   -1    0    0  503  502  0.00000000000E+00  0.00000000000E+00  0.16506472622E+01  0.16506472622E+01  0.00000000000E+00 0.  1.
         21   -1    0    0  501  503 -0.00000000000E+00 -0.00000000000E+00 -0.29413879805E+03  0.29413879805E+03  0.00000000000E+00 0.  1.
          2    1    1    2  501    0 -0.12323987694E+02  0.17066322459E+02 -0.18993855931E+03  0.19110153414E+03  0.00000000000E+00 0. -1.
         -2    1    1    2    0  502  0.12323987694E+02 -0.17066322459E+02 -0.10254959147E+03  0.10468791118E+03  0.00000000000E+00 0.  1.
<mgrwt>
<rscale>  2 0.21050892E+02</rscale>
<asrwt>0</asrwt>
<pdfrwt beam="1">  1       21 0.25394572E-03 0.21050892E+02</pdfrwt>
<pdfrwt beam="2">  1       21 0.45252126E-01 0.21050892E+02</pdfrwt>
<totfact> 0.10262251E+08</totfact>
</mgrwt>
</event>
<event>
 4    1  0.7841599E+004  0.2904400E+02  0.7546771E-02  0.1608903E+00
         21   -1    0    0  503  502  0.00000000000E+00  0.00000000000E+00  0.10152680948E+03  0.10152680948E+03  0.00000000000E+00 0.  1.
         21   -1    0    0  501  503 -0.00000000000E+00 -0.00000000000E+00 -0.97318396735E+01  0.97318396735E+01  0.00000000000E+00 0.  1.
          3    1    1    2  501    0 -0.27370784160E+02 -0.97156515017E+01  0.24624265389E+02  0.38077659534E+02  0.00000000000E+00 0. -1.
         -3    1    1    2    0  502  0.27370784160E+02  0.97156515017E+01  0.67170704412E+02  0.73180989614E+02  0.00000000000E+00 0.  1.
<mgrwt>
<rscale>  2 0.29043996E+02</rscale>
<asrwt>0</asrwt>
<pdfrwt beam="1">  1       21 0.15619508E-01 0.29043996E+02</pdfrwt>
<pdfrwt beam="2">  1       21 0.14972062E-02 0.29043996E+02</pdfrwt>
<totfact> 0.54235428E+07</totfact>
</mgrwt>
</event>
<event>
 4    1  0.7841599E+004  0.2786579E+02  0.7546771E-02  0.1622953E+00
         21   -1    0    0  501  502  0.00000000000E+00  0.00000000000E+00  0.33836313984E+01  0.33836313984E+01  0.00000000000E+00 0. -1.
         21   -1    0    0  502  503 -0.00000000000E+00 -0.00000000000E+00 -0.22966840804E+03  0.22966840804E+03  0.00000000000E+00 0. -1.
          4    1    1    2  501    0 -0.18021936092E+02 -0.21253514420E+02 -0.11641026509E+03  0.11969900532E+03  0.00000000000E+00 0. -1.
         -4    1    1    2    0  503  0.18021936092E+02  0.21253514420E+02 -0.10987451155E+03  0.11335303412E+03  0.00000000000E+00 0.  1.
<mgrwt>
<rscale>  2 0.27865786E+02</rscale>
<asrwt>0</asrwt>
<pdfrwt beam="1">  1       21 0.52055864E-03 0.27865786E+02</pdfrwt>
<pdfrwt beam="2">  1       21 0.35333604E-01 0.27865786E+02</pdfrwt>
<totfact> 0.61266720E+07</totfact>
</mgrwt>
</event>
<event>
 4    1  0.7841599E+004  0.2299196E+02  0.7546771E-02  0.1691640E+00
         21   -1    0    0  503  502  0.00000000000E+00  0.00000000000E+00  0.81579362878E+01  0.81579362878E+01  0.00000000000E+00 0. -1.
         21   -1    0    0  501  503 -0.00000000000E+00 -0.00000000000E+00 -0.70779437360E+02  0.70779437360E+02  0.00000000000E+00 0. -1.
          1    1    1    2  501    0 -0.16808132277E+02 -0.15688118571E+02 -0.19838552659E+02  0.30367722116E+02  0.00000000000E+00 0. -1.
         -1    1    1    2    0  502  0.16808132277E+02  0.15688118571E+02 -0.42782948413E+02  0.48569651531E+02  0.00000000000E+00 0.  1.
<mgrwt>
<rscale>  2 0.22991963E+02</rscale>
<asrwt>0</asrwt>
<pdfrwt beam="1">  1       21 0.12550672E-02 0.22991963E+02</pdfrwt>
<pdfrwt beam="2">  1       21 0.10889144E-01 0.22991963E+02</pdfrwt>
<totfact> 0.12305802E+08</totfact>
</mgrwt>
</event>
<event>
 4    1  0.7841599E+004  0.2214449E+02  0.7546771E-02  0.1705765E+00
         21   -1    0    0  503  502  0.00000000000E+00  0.00000000000E+00  0.59424569438E+03  0.59424569438E+03  0.00000000000E+00 0.  1.
         21   -1    0    0  501  503 -0.00000000000E+00 -0.00000000000E+00 -0.84885143032E+00  0.84885143032E+00  0.00000000000E+00 0.  1.
          3    1    1    2  501    0 -0.17014940096E+02  0.14172865061E+02  0.24704323420E+03  0.24803374338E+03  0.00000000000E+00 0.  1.
         -3    1    1    2    0  502  0.17014940096E+02 -0.14172865061E+02  0.34635360876E+03  0.34706080244E+03  0.00000000000E+00 0. -1.
<mgrwt>
<rscale>  2 0.22144487E+02</rscale>
<asrwt>0</asrwt>
<pdfrwt beam="1">  1       21 0.91422082E-01 0.22144487E+02</pdfrwt>
<pdfrwt beam="2">  1       21 0.13059300E-03 0.22144487E+02</pdfrwt>
<totfact> 0.65376964E+07</totfact>
</mgrwt>
</event>
<event>
 4    1  0.7841599E+004  0.3754550E+02  0.7546771E-02  0.1527092E+00
         21   -1    0    0  501  502  0.00000000000E+00  0.00000000000E+00  0.20244070765E+03  0.20244070765E+03  0.00000000000E+00 0. -1.
         21   -1    0    0  502  503 -0.00000000000E+00 -0.00000000000E+00 -0.75677286218E+01  0.75677286218E+01  0.00000000000E+00 0. -1.
          2    1    1    2  501    0  0.63540877540E+01  0.37003922704E+02  0.12711074920E+03  0.13253983283E+03  0.00000000000E+00 0. -1.
         -2    1    1    2    0  503 -0.63540877540E+01 -0.37003922704E+02  0.67762229831E+02  0.77468603436E+02  0.00000000000E+00 0.  1.
<mgrwt>
<rscale>  2 0.37545502E+02</rscale>
<asrwt>0</asrwt>
<pdfrwt beam="1">  1       21 0.31144720E-01 0.37545502E+02</pdfrwt>
<pdfrwt beam="2">  1       21 0.11642661E-02 0.37545502E+02</pdfrwt>
<totfact> 0.24377599E+07</totfact>
</mgrwt>
</event>
<event>
 4    1  0.7841599E+004  0.2196739E+02  0.7546771E-02  0.1708817E+00
         21   -1    0    0  503  502  0.00000000000E+00  0.00000000000E+00  0.27169461134E+02  0.27169461134E+02  0.00000000000E+00 0. -1.
         21   -1    0    0  501  503 -0.00000000000E+00 -0.00000000000E+00 -0.17931281303E+02  0.17931281303E+02  0.00000000000E+00 0. -1.
          2    1    1    2  501    0 -0.47200354691E+01  0.21454312754E+02  0.68143526787E+01  0.23000036370E+02  0.00000000000E+00 0. -1.
         -2    1    1    2    0  502  0.47200354691E+01 -0.21454312754E+02  0.24238271519E+01  0.22100706067E+02  0.00000000000E+00 0.  1.
<mgrwt>
<rscale>  2 0.21967391E+02</rscale>
<asrwt>0</asrwt>
<pdfrwt beam="1">  1       21 0.41799171E-02 0.21967391E+02</pdfrwt>
<pdfrwt beam="2">  1       21 0.27586586E-02 0.21967391E+02</pdfrwt>
<totfact> 0.17100867E+08</totfact>
</mgrwt>
</event>
<event>
 4    1  0.7841599E+004  0.2511062E+02  0.7546771E-02  0.1659418E+00
         21   -1    0    0  501  502  0.00000000000E+00  0.00000000000E+00  0.14814538999E+01  0.14814538999E+01  0.00000000000E+00 0.  1.
         21   -1    0    0  502  503 -0.00000000000E+00 -0.00000000000E+00 -0.50573211222E+03  0.50573211222E+03  0.00000000000E+00 0.  1.
          1    1    1    2  501    0 -0.24268632157E+02  0.64480017584E+01 -0.35305926396E+03  0.35395110835E+03  0.00000000000E+00 0.  1.
         -1    1    1    2    0  503  0.24268632157E+02 -0.64480017584E+01 -0.15119139437E+03  0.15326245778E+03  0.00000000000E+00 0. -1.
<mgrwt>
<rscale>  2 0.25110620E+02</rscale>
<asrwt>0</asrwt>
<pdfrwt beam="1">  1       21 0.22791576E-03 0.25110620E+02</pdfrwt>
<pdfrwt beam="2">  1       21 0.77805019E-01 0.25110620E+02</pdfrwt>
<totfact> 0.42422079E+07</totfact>
</mgrwt>
</event>
<event>
 4    1  0.7841599E+004  0.3627318E+02  0.7546771E-02  0.1537577E+00
         21   -1    0    0  503  502  0.00000000000E+00  0.00000000000E+00  0.25146501382E+03  0.25146501382E+03  0.00000000000E+00 0.  1.
         21   -1    0    0  501  503 -0.00000000000E+00 -0.00000000000E+00 -0.53322979466E+01  0.53322979466E+01  0.00000000000E+00 0.  1.
          1    1    1    2  501    0 -0.29491246101E+02 -0.21118941914E+02  0.10548413982E+03  0.11154661383E+03  0.00000000000E+00 0.  1.
         -1    1    1    2    0  502  0.29491246101E+02  0.21118941914E+02  0.14064857606E+03  0.14525069794E+03  0.00000000000E+00 0. -1.
<mgrwt>
<rscale>  2 0.36273176E+02</rscale>
<asrwt>0</asrwt>
<pdfrwt beam="1">  1       21 0.38686916E-01 0.36273176E+02</pdfrwt>
<pdfrwt beam="2">  1       21 0.82035372E-03 0.36273176E+02</pdfrwt>
<totfact> 0.27460286E+07</totfact>
</mgrwt>
</event>
<event>
 4    1  0.7841599E+004  0.2649784E+02  0.7546771E-02  0.1640375E+00
         21   -1    0    0  501  502  0.00000000000E+00  0.00000000000E+00  0.91260928036E+01  0.91260928036E+01  0.00000000000E+00 0.  1.
         21   -1    0    0  502  503 -0.00000000000E+00 -0.00000000000E+00 -0.11430981391E+03  0.11430981391E+03  0.00000000000E+00 0.  1.
          5    1    1    2  501    0 -0.26410840975E+02  0.21454798427E+01 -0.87881462775E+02  0.91789362697E+02  0.00000000000E+00 0.  1.
         -5    1    1    2    0  503  0.26410840975E+02 -0.21454798427E+01 -0.17302258328E+02  0.31646544013E+02  0.00000000000E+00 0. -1.
<mgrwt>
<rscale>  2 0.26497842E+02</rscale>
<asrwt>0</asrwt>
<pdfrwt beam="1">  1       21 0.14040144E-02 0.26497842E+02</pdfrwt>
<pdfrwt beam="2">  1       21 0.17586124E-01 0.26497842E+02</pdfrwt>
<totfact> 0.47720026E+07</totfact>
</mgrwt>
</event>
<event>
 4    1  0.7841599E+004  0.2082171E+02  0.7546771E-02  0.1729464E+00
         21   -1    0    0  501  502  0.00000000000E+00  0.00000000000E+00  0.16684382972E+00  0.16684382972E+00  0.00000000000E+00 0.  1.
         21   -1    0    0  502  503 -0.00000000000E+00 -0.00000000000E+00 -0.26093339713E+04  0.26093339713E+04  0.00000000000E+00 0.  1.
          3    1    1    2  501    0  0.54923650826E+01  0.20084264901E+02 -0.12205124268E+04  0.12206900211E+04  0.00000000000E+00 0.  1.
         -3    1    1    2    0  503 -0.54923650826E+01 -0.20084264901E+02 -0.13886547006E+04  0.13888107940E+04  0.00000000000E+00 0. -1.
<mgrwt>
<rscale>  2 0.20821714E+02</rscale>
<asrwt>0</asrwt>
<pdfrwt beam="1">  1       21 0.25665751E-04 0.20821714E+02</pdfrwt>
<pdfrwt beam="2">  1       21 0.40147557E+00 0.20821714E+02</pdfrwt>
<totfact> 0.10213290E+07</totfact>
</mgrwt>
</event>
<event>
 4    1  0.7841599E+004  0.2646912E+02  0.7546771E-02  0.1640755E+00
         21   -1    0    0  503  502  0.00000000000E+00  0.00000000000E+00  0.10620739454E+04  0.10620739454E+04  0.00000000000E+00 0.  1.
         21   -1    0    0  501  503 -0.00000000000E+00 -0.00000000000E+00 -0.89399203147E+00  0.89399203147E+00  0.00000000000E+00 0.  1.
          5    1    1    2  501    0  0.25800059440E+02 -0.59136649426E+01  0.80269292025E+03  0.80312921670E+03  0.00000000000E+00 0. -1.
         -5    1    1    2    0  502 -0.25800059440E+02  0.59136649426E+01  0.25848703313E+03  0.25983872075E+03  0.00000000000E+00 0.  1.
<mgrwt>
<rscale>  2 0.26469124E+02</rscale>
<asrwt>0</asrwt>
<pdfrwt beam="1">  1       21 0.16339498E+00 0.26469124E+02</pdfrwt>
<pdfrwt beam="2">  1       21 0.13753809E-03 0.26469124E+02</pdfrwt>
<totfact> 0.16670197E+07</totfact>
</mgrwt>
</event>
<event>
 4    1  0.7841599E+004  0.2670144E+02  0.7546771E-02  0.1637701E+00
         21   -1    0    0  503  502  0.00000000000E+00  0.00000000000E+00  0.72988863826E+02  0.72988863826E+02  0.00000000000E+00 0.  1.
         21   -1    0    0  501  503 -0.00000000000E+00 -0.00000000000E+00 -0.97818090065E+01  0.97818090065E+01  0.00000000000E+00 0.  1.
          1    1    1    2  501    0  0.16792283941E+02 -0.20760198533E+02  0.33149648218E+02  0.42566017198E+02  0.00000000000E+00 0.  1.
         -1    1    1    2    0  502 -0.16792283941E+02  0.20760198533E+02  0.30057406601E+02  0.40204655635E+02  0.00000000000E+00 0. -1.
<mgrwt>
<rscale>  2 0.26701435E+02</rscale>
<asrwt>0</asrwt>
<pdfrwt beam="1">  1       21 0.11229056E-01 0.26701435E+02</pdfrwt>
<pdfrwt beam="2">  1       21 0.15048937E-02 0.26701435E+02</pdfrwt>
<totfact> 0.92395399E+07</totfact>
</mgrwt>
</event>
<event>
 4    1  0.7841599E+004  0.2355897E+02  0.7546771E-02  0.1682606E+00
         21   -1    0    0  501  502  0.00000000000E+00  0.00000000000E+00  0.87255474992E+02  0.87255474992E+02  0.00000000000E+00 0. -1.
         21   -1    0    0  502  503 -0.00000000000E+00 -0.00000000000E+00 -0.65141428999E+01  0.65141428999E+01  0.00000000000E+00 0. -1.
          1    1    1    2  501    0 -0.19424178087E+02  0.13331410930E+02  0.33180093562E+02  0.40693289626E+02  0.00000000000E+00 0. -1.
         -1    1    1    2    0  503  0.19424178087E+02 -0.13331410930E+02  0.47561238529E+02  0.53076328266E+02  0.00000000000E+00 0.  1.
<mgrwt>
<rscale>  2 0.23558973E+02</rscale>
<asrwt>0</asrwt>
<pdfrwt beam="1">  1       21 0.13423918E-01 0.23558973E+02</pdfrwt>
<pdfrwt beam="2">  1       21 0.10021759E-02 0.23558973E+02</pdfrwt>
<totfact> 0.12250177E+08</totfact>
</mgrwt>
</event>
<event>
 4    1  0.7841599E+004  0.2284965E+02  0.7546771E-02  0.1693959E+00
         21   -1    0    0  503  502  0.00000000000E+00  0.00000000000E+00  0.43117273157E+02  0.43117273157E+02  0.00000000000E+00 0. -1.
         21   -1    0    0  501  503 -0.00000000000E+00 -0.00000000000E+00 -0.13277206142E+02  0.13277206142E+02  0.00000000000E+00 0. -1.
          4    1    1    2  501    0 -0.22671797104E+02 -0.28453847765E+01  0.65560150680E+01  0.23771578240E+02  0.00000000000E+00 0. -1.
         -4    1    1    2    0  502  0.22671797104E+02  0.28453847765E+01  0.23284051947E+02  0.32622901059E+02  0.00000000000E+00 0.  1.
<mgrwt>
<rscale>  2 0.22849652E+02</rscale>
<asrwt>0</asrwt>
<pdfrwt beam="1">  1       21 0.66334266E-02 0.22849652E+02</pdfrwt>
<pdfrwt beam="2">  1       21 0.20426471E-02 0.22849652E+02</pdfrwt>
<totfact> 0.13172985E+08</totfact>
</mgrwt>
</event>
<event>
 4    1  0.7841599E+004  0.2621781E+02  0.7546771E-02  0.1644102E+00
         21   -1    0    0  501  502  0.00000000000E+00  0.00000000000E+00  0.34818999712E+03  0.34818999712E+03  0.00000000000E+00 0. -1.
         21   -1    0    0  502  503 -0.00000000000E+00 -0.00000000000E+00 -0.20270466606E+01  0.20270466606E+01  0.00000000000E+00 0. -1.
          4    1    1    2  501    0  0.24308271512E+02  0.98225030146E+01  0.20137298866E+03  0.20307253431E+03  0.00000000000E+00 0. -1.
         -4    1    1    2    0  503 -0.24308271512E+02 -0.98225030146E+01  0.14478996180E+03  0.14714450947E+03  0.00000000000E+00 0.  1.
<mgrwt>
<rscale>  2 0.26217811E+02</rscale>
<asrwt>0</asrwt>
<pdfrwt beam="1">  1       21 0.53567645E-01 0.26217811E+02</pdfrwt>
<pdfrwt beam="2">  1       21 0.31185361E-03 0.26217811E+02</pdfrwt>
<totfact> 0.57891578E+07</totfact>
</mgrwt>
</event>
<event>
 4    1  0.7841599E+004  0.3151420E+02  0.7546771E-02  0.1581930E+00
         21   -1    0    0  501  502  0.00000000000E+00  0.00000000000E+00  0.22098451816E+03  0.22098451816E+03  0.00000000000E+00 0. -1.
         21   -1    0    0  502  503 -0.00000000000E+00 -0.00000000000E+00 -0.47310908213E+01  0.47310908213E+01  0.00000000000E+00 0. -1.
          3    1    1    2  501    0 -0.59918563274E+01 -0.30939339513E+02  0.13338127305E+03  0.13705367223E+03  0.00000000000E+00 0.  1.
         -3    1    1    2    0  503  0.59918563274E+01  0.30939339513E+02  0.82872154293E+02  0.88661936754E+02  0.00000000000E+00 0. -1.
<mgrwt>
<rscale>  2 0.31514204E+02</rscale>
<asrwt>0</asrwt>
<pdfrwt beam="1">  1       21 0.33997610E-01 0.31514204E+02</pdfrwt>
<pdfrwt beam="2">  1       21 0.72786029E-03 0.31514204E+02</pdfrwt>
<totfact> 0.40931290E+07</totfact>
</mgrwt>
</event>
<event>
 4    1  0.7841599E+004  0.2099477E+02  0.7546771E-02  0.1726240E+00
         21   -1    0    0  503  502  0.00000000000E+00  0.00000000000E+00  0.45230559415E+01  0.45230559415E+01  0.00000000000E+00 0. -1.
         21   -1    0    0  501  503 -0.00000000000E+00 -0.00000000000E+00 -0.10700996670E+03  0.10700996670E+03  0.00000000000E+00 0. -1.
          1    1    1    2  501    0 -0.15274621840E+02  0.14403689486E+02 -0.67910041554E+02  0.71081320240E+02  0.00000000000E+00 0.  1.
         -1    1    1    2    0  502  0.15274621840E+02 -0.14403689486E+02 -0.34576869203E+02  0.40451702400E+02  0.00000000000E+00 0. -1.
<mgrwt>
<rscale>  2 0.20994769E+02</rscale>
<asrwt>0</asrwt>
<pdfrwt beam="1">  1       21 0.69585478E-03 0.20994769E+02</pdfrwt>
<pdfrwt beam="2">  1       21 0.16463071E-01 0.20994769E+02</pdfrwt>
<totfact> 0.14433766E+08</totfact>
</mgrwt>
</event>
<event>
 4    1  0.7841599E+004  0.2009865E+02  0.7546771E-02  0.1743373E+00
         21   -1    0    0  501  502  0.00000000000E+00  0.00000000000E+00  0.11887745916E+02  0.11887745916E+02  0.00000000000E+00 0. -1.
         21   -1    0    0  502  503 -0.00000000000E+00 -0.00000000000E+00 -0.37986735341E+02  0.37986735341E+02  0.00000000000E+00 0. -1.
          3    1    1    2  501    0 -0.20096631474E+02  0.28458096228E+00 -0.21147578221E+02  0.29174914696E+02  0.00000000000E+00 0. -1.
         -3    1    1    2    0  503  0.20096631474E+02 -0.28458096228E+00 -0.49514112043E+01  0.20699566561E+02  0.00000000000E+00 0.  1.
<mgrwt>
<rscale>  2 0.20098646E+02</rscale>
<asrwt>0</asrwt>
<pdfrwt beam="1">  1       21 0.18288840E-02 0.20098646E+02</pdfrwt>
<pdfrwt beam="2">  1       21 0.58441130E-02 0.20098646E+02</pdfrwt>
<totfact> 0.18368638E+08</totfact>
</mgrwt>
</event>
<event>
 4    1  0.7841599E+004  0.2017051E+02  0.7546771E-02  0.1741958E+00
         21   -1    0    0  501  502  0.00000000000E+00  0.00000000000E+00  0.19694338247E+02  0.19694338247E+02  0.00000000000E+00 0. -1.
         21   -1    0    0  502  503 -0.00000000000E+00 -0.00000000000E+00 -0.21154629237E+02  0.21154629237E+02  0.00000000000E+00 0. -1.
          2    1    1    2  501    0  0.19888971724E+02  0.33582974611E+01  0.23986843636E+01  0.20312632639E+02  0.00000000000E+00 0. -1.
         -2    1    1    2    0  503 -0.19888971724E+02 -0.33582974611E+01 -0.38589753542E+01  0.20536334844E+02  0.00000000000E+00 0.  1.
<mgrwt>
<rscale>  2 0.20170507E+02</rscale>
<asrwt>0</asrwt>
<pdfrwt beam="1">  1       21 0.30298982E-02 0.20170507E+02</pdfrwt>
<pdfrwt beam="2">  1       21 0.32545583E-02 0.20170507E+02</pdfrwt>
<totfact> 0.21285879E+08</totfact>
</mgrwt>
</event>
<event>
 4    1  0.7841599E+004  0.2504291E+02  0.7546771E-02  0.1660386E+00
         21   -1    0    0  501  502  0.00000000000E+00  0.00000000000E+00  0.22448929424E+03  0.22448929424E+03  0.00000000000E+00 0. -1.
         21   -1    0    0  502  503 -0.00000000000E+00 -0.00000000000E+00 -0.32495976104E+01  0.32495976104E+01  0.00000000000E+00 0. -1.
          4    1    1    2  501    0 -0.14185401014E+02  0.20637873975E+02  0.15327226818E+03  0.15530465427E+03  0.00000000000E+00 0.  1.
         -4    1    1    2    0  503  0.14185401014E+02 -0.20637873975E+02  0.67967428443E+02  0.72434237576E+02  0.00000000000E+00 0. -1.
<mgrwt>
<rscale>  2 0.25042912E+02</rscale>
<asrwt>0</asrwt>
<pdfrwt beam="1">  1       21 0.34536802E-01 0.25042912E+02</pdfrwt>
<pdfrwt beam="2">  1       21 0.49993827E-03 0.25042912E+02</pdfrwt>
<totfact> 0.66227067E+07</totfact>
</mgrwt>
</event>
<event>
 4    1  0.7841599E+004  0.3154089E+02  0.7546771E-02  0.1581655E+00
         21   -1    0    0  501  502  0.00000000000E+00  0.00000000000E+00  0.12682359936E+02  0.12682359936E+02  0.00000000000E+00 0.  1.
         21   -1    0    0  502  503 -0.00000000000E+00 -0.00000000000E+00 -0.86413318153E+02  0.86413318153E+02  0.00000000000E+00 0.  1.
          3    1    1    2  501    0  0.11601494378E+01 -0.31519550488E+02 -0.51914319378E+02  0.60744749289E+02  0.00000000000E+00 0.  1.
         -3    1    1    2    0  503 -0.11601494378E+01  0.31519550488E+02 -0.21816638838E+02  0.38350928800E+02  0.00000000000E+00 0. -1.
<mgrwt>
<rscale>  2 0.31540894E+02</rscale>
<asrwt>0</asrwt>
<pdfrwt beam="1">  1       21 0.19511323E-02 0.31540894E+02</pdfrwt>
<pdfrwt beam="2">  1       21 0.13294357E-01 0.31540894E+02</pdfrwt>
<totfact> 0.48407929E+07</totfact>
</mgrwt>
</event>
<event>
 4    1  0.7841599E+004  0.5246240E+02  0.7546771E-02  0.1432495E+00
         21   -1    0    0  501  502  0.00000000000E+00  0.00000000000E+00  0.96312060911E+02  0.96312060911E+02  0.00000000000E+00 0.  1.
         21   -1    0    0  502  503 -0.00000000000E+00 -0.00000000000E+00 -0.31171831033E+02  0.31171831033E+02  0.00000000000E+00 0.  1.
          1    1    1    2  501    0  0.18058289299E+02 -0.49256487643E+02  0.50961068338E+02  0.73139140503E+02  0.00000000000E+00 0. -1.
         -1    1    1    2    0  503 -0.18058289299E+02  0.49256487643E+02  0.14179161540E+02  0.54344751442E+02  0.00000000000E+00 0.  1.
<mgrwt>
<rscale>  2 0.52462400E+02</rscale>
<asrwt>0</asrwt>
<pdfrwt beam="1">  1       21 0.14817240E-01 0.52462400E+02</pdfrwt>
<pdfrwt beam="2">  1       21 0.47956663E-02 0.52462400E+02</pdfrwt>
<totfact> 0.10423724E+07</totfact>
</mgrwt>
</event>
<event>
 4    1  0.7841599E+004  0.2540099E+02  0.7546771E-02  0.1655308E+00
         21   -1    0    0  503  502  0.00000000000E+00  0.00000000000E+00  0.32610274835E+03  0.32610274835E+03  0.00000000000E+00 0. -1.
         21   -1    0    0  501  503 -0.00000000000E+00 -0.00000000000E+00 -0.25449684833E+01  0.25449684833E+01  0.00000000000E+00 0. -1.
          3    1    1    2  501    0 -0.10371322636E+02 -0.23187194497E+02  0.23930151074E+03  0.24064584635E+03  0.00000000000E+00 0. -1.
         -3    1    1    2    0  502  0.10371322636E+02  0.23187194497E+02  0.84256269129E+02  0.88001870488E+02  0.00000000000E+00 0.  1.
<mgrwt>
<rscale>  2 0.25400991E+02</rscale>
<asrwt>0</asrwt>
<pdfrwt beam="1">  1       21 0.50169620E-01 0.25400991E+02</pdfrwt>
<pdfrwt beam="2">  1       21 0.39153387E-03 0.25400991E+02</pdfrwt>
<totfact> 0.46822529E+07</totfact>
</mgrwt>
</event>
<event>
 4    1  0.7841599E+004  0.5803725E+02  0.7546771E-02  0.1406258E+00
         21   -1    0    0  503  502  0.00000000000E+00  0.00000000000E+00  0.40339522868E+02  0.40339522868E+02  0.00000000000E+00 0.  1.
         21   -1    0    0  501  503 -0.00000000000E+00 -0.00000000000E+00 -0.83783534906E+02  0.83783534906E+02  0.00000000000E+00 0.  1.
          2    1    1    2  501    0 -0.29855919111E+02  0.49768929346E+02 -0.25336736487E+02  0.63326711978E+02  0.00000000000E+00 0.  1.
         -2    1    1    2    0  502  0.29855919111E+02 -0.49768929346E+02 -0.18107275552E+02  0.60796345796E+02  0.00000000000E+00 0. -1.
<mgrwt>
<rscale>  2 0.58037249E+02</rscale>
<asrwt>0</asrwt>
<pdfrwt beam="1">  1       21 0.62060805E-02 0.58037249E+02</pdfrwt>
<pdfrwt beam="2">  1       21 0.12889775E-01 0.58037249E+02</pdfrwt>
<totfact> 0.87906429E+06</totfact>
</mgrwt>
</event>
<event>
 4    1  0.7841599E+004  0.2155992E+02  0.7546771E-02  0.1715976E+00
         21   -1    0    0  503  502  0.00000000000E+00  0.00000000000E+00  0.67066881410E+02  0.67066881410E+02  0.00000000000E+00 0. -1.
         21   -1    0    0  501  503 -0.00000000000E+00 -0.00000000000E+00 -0.70263623366E+01  0.70263623366E+01  0.00000000000E+00 0. -1.
          4    1    1    2  501    0  0.19849086779E+02  0.84168916970E+01  0.25700900683E+02  0.33546484283E+02  0.00000000000E+00 0.  1.
         -4    1    1    2    0  502 -0.19849086779E+02 -0.84168916970E+01  0.34339618390E+02  0.40546759464E+02  0.00000000000E+00 0. -1.
<mgrwt>
<rscale>  2 0.21559924E+02</rscale>
<asrwt>0</asrwt>
<pdfrwt beam="1">  1       21 0.10317981E-01 0.21559924E+02</pdfrwt>
<pdfrwt beam="2">  1       21 0.10809789E-02 0.21559924E+02</pdfrwt>
<totfact> 0.16529560E+08</totfact>
</mgrwt>
</event>
<event>
 4    1  0.7841599E+004  0.2306800E+02  0.7546771E-02  0.1690410E+00
         21   -1    0    0  501  502  0.00000000000E+00  0.00000000000E+00  0.16141811388E+02  0.16141811388E+02  0.00000000000E+00 0. -1.
         21   -1    0    0  502  503 -0.00000000000E+00 -0.00000000000E+00 -0.44704543007E+02  0.44704543007E+02  0.00000000000E+00 0. -1.
          1    1    1    2  501    0 -0.20198710608E+01  0.22979397566E+02  0.13081977997E+01  0.23105063797E+02  0.00000000000E+00 0.  1.
         -1    1    1    2    0  503  0.20198710608E+01 -0.22979397566E+02 -0.29870929419E+02  0.37741290597E+02  0.00000000000E+00 0. -1.
<mgrwt>
<rscale>  2 0.23067999E+02</rscale>
<asrwt>0</asrwt>
<pdfrwt beam="1">  1       21 0.24833557E-02 0.23067999E+02</pdfrwt>
<pdfrwt beam="2">  1       21 0.68776218E-02 0.23067999E+02</pdfrwt>
<totfact> 0.92212651E+07</totfact>
</mgrwt>
</event>
<event>
 4    1  0.7841599E+004  0.2106062E+02  0.7546771E-02  0.1725023E+00
         21   -1    0    0  503  502  0.00000000000E+00  0.00000000000E+00  0.59018354269E+02  0.59018354269E+02  0.00000000000E+00 0.  1.
         21   -1    0    0  501  503 -0.00000000000E+00 -0.00000000000E+00 -0.77641496181E+01  0.77641496181E+01  0.00000000000E+00 0.  1.
          3    1    1    2  501    0 -0.11745309151E+02 -0.17481346009E+02  0.31603225562E+02  0.37977804193E+02  0.00000000000E+00 0.  1.
         -3    1    1    2    0  502  0.11745309151E+02  0.17481346009E+02  0.19650979089E+02  0.28804699695E+02  0.00000000000E+00 0. -1.
<mgrwt>
<rscale>  2 0.21060621E+02</rscale>
<asrwt>0</asrwt>
<pdfrwt beam="1">  1       21 0.90797465E-02 0.21060621E+02</pdfrwt>
<pdfrwt beam="2">  1       21 0.11944846E-02 0.21060621E+02</pdfrwt>
<totfact> 0.17429581E+08</totfact>
</mgrwt>
</event>
<event>
 4    1  0.7841599E+004  0.3935317E+02  0.7546771E-02  0.1513026E+00
         21   -1    0    0  503  502  0.00000000000E+00  0.00000000000E+00  0.36292388527E+01  0.36292388527E+01  0.00000000000E+00 0. -1.
         21   -1    0    0  501  503 -0.00000000000E+00 -0.00000000000E+00 -0.44155923966E+03  0.44155923966E+03  0.00000000000E+00 0. -1.
          5    1    1    2  501    0  0.18061440118E+02  0.34963642130E+02 -0.17816005419E+03  0.18245458832E+03  0.00000000000E+00 0.  1.
         -5    1    1    2    0  502 -0.18061440118E+02 -0.34963642130E+02 -0.25976994662E+03  0.26273389019E+03  0.00000000000E+00 0. -1.
<mgrwt>
<rscale>  2 0.39353169E+02</rscale>
<asrwt>0</asrwt>
<pdfrwt beam="1">  1       21 0.55834484E-03 0.39353169E+02</pdfrwt>
<pdfrwt beam="2">  1       21 0.67932141E-01 0.39353169E+02</pdfrwt>
<totfact> 0.16181290E+07</totfact>
</mgrwt>
</event>
<event>
 4    1  0.7841599E+004  0.2761994E+02  0.7546771E-02  0.1625993E+00
         21   -1    0    0  501  502  0.00000000000E+00  0.00000000000E+00  0.75547584686E+02  0.75547584686E+02  0.00000000000E+00 0.  1.
         21   -1    0    0  502  503 -0.00000000000E+00 -0.00000000000E+00 -0.10102845434E+02  0.10102845434E+02  0.00000000000E+00 0.  1.
          3    1    1    2  501    0 -0.17900054840E+02  0.21034468897E+02  0.33683855996E+02  0.43559878327E+02  0.00000000000E+00 0. -1.
         -3    1    1    2    0  503  0.17900054840E+02 -0.21034468897E+02  0.31760883256E+02  0.42090551793E+02  0.00000000000E+00 0.  1.
<mgrwt>
<rscale>  2 0.27619936E+02</rscale>
<asrwt>0</asrwt>
<pdfrwt beam="1">  1       21 0.11622705E-01 0.27619936E+02</pdfrwt>
<pdfrwt beam="2">  1       21 0.15542840E-02 0.27619936E+02</pdfrwt>
<totfact> 0.83709383E+07</totfact>
</mgrwt>
</event>
<event>
 4    1  0.7841599E+004  0.2035571E+02  0.7546771E-02  0.1738345E+00
         21   -1    0    0  501  502  0.00000000000E+00  0.00000000000E+00  0.13188954510E+02  0.13188954510E+02  0.00000000000E+00 0. -1.
         21   -1    0    0  502  503 -0.00000000000E+00 -0.00000000000E+00 -0.36829162971E+02  0.36829162971E+02  0.00000000000E+00 0. -1.
          2    1    1    2  501    0  0.12967516627E+02 -0.15690717096E+02 -0.21407349359E+02  0.29540306313E+02  0.00000000000E+00 0.  1.
         -2    1    1    2    0  503 -0.12967516627E+02  0.15690717096E+02 -0.22328591027E+01  0.20477811168E+02  0.00000000000E+00 0. -1.
<mgrwt>
<rscale>  2 0.20355714E+02</rscale>
<asrwt>0</asrwt>
<pdfrwt beam="1">  1       21 0.20290700E-02 0.20355714E+02</pdfrwt>
<pdfrwt beam="2">  1       21 0.56660250E-02 0.20355714E+02</pdfrwt>
<totfact> 0.16539729E+08</totfact>
</mgrwt>
</event>
<event>
 4    1  0.7841599E+004  0.3457085E+02  0.7546771E-02  0.1552445E+00
         21   -1    0    0  503  502  0.00000000000E+00  0.00000000000E+00  0.73220570867E+03  0.73220570867E+03  0.00000000000E+00 0.  1.
         21   -1    0    0  501  503 -0.00000000000E+00 -0.00000000000E+00 -0.32105028459E+01  0.32105028459E+01  0.00000000000E+00 0.  1.
          3    1    1    2  501    0 -0.27360729179E+02 -0.21131358709E+02  0.10668463026E+03  0.11214612858E+03  0.00000000000E+00 0.  1.
         -3    1    1    2    0  502  0.27360729179E+02  0.21131358709E+02  0.62231057556E+03  0.62327008293E+03  0.00000000000E+00 0. -1.
<mgrwt>
<rscale>  2 0.34570852E+02</rscale>
<asrwt>0</asrwt>
<pdfrwt beam="1">  1       21 0.11264690E+00 0.34570852E+02</pdfrwt>
<pdfrwt beam="2">  1       21 0.49392410E-03 0.34570852E+02</pdfrwt>
<totfact> 0.63603251E+06</totfact>
</mgrwt>
</event>
<event>
 4    1  0.7841599E+004  0.2031669E+02  0.7546771E-02  0.1739103E+00
         21   -1    0    0  503  502  0.00000000000E+00  0.00000000000E+00  0.10812080504E+03  0.10812080504E+03  0.00000000000E+00 0.  1.
         21   -1    0    0  501  503 -0.00000000000E+00 -0.00000000000E+00 -0.39145816222E+01  0.39145816222E+01  0.00000000000E+00 0.  1.
          5    1    1    2  501    0  0.15477417279E+02  0.13161208004E+02  0.43288443827E+02  0.47819004702E+02  0.00000000000E+00 0. -1.
         -5    1    1    2    0  502 -0.15477417279E+02 -0.13161208004E+02  0.60917779587E+02  0.64216381956E+02  0.00000000000E+00 0.  1.
<mgrwt>
<rscale>  2 0.20316689E+02</rscale>
<asrwt>0</asrwt>
<pdfrwt beam="1">  1       21 0.16633968E-01 0.20316689E+02</pdfrwt>
<pdfrwt beam="2">  1       21 0.60224341E-03 0.20316689E+02</pdfrwt>
<totfact> 0.17385589E+08</totfact>
</mgrwt>
</event>
<event>
 4    1  0.7841599E+004  0.2436308E+02  0.7546771E-02  0.1670322E+00
         21   -1    0    0  503  502  0.00000000000E+00  0.00000000000E+00  0.41626052640E+01  0.41626052640E+01  0.00000000000E+00 0. -1.
         21   -1    0    0  501  503 -0.00000000000E+00 -0.00000000000E+00 -0.20059583983E+03  0.20059583983E+03  0.00000000000E+00 0. -1.
          1    1    1    2  501    0  0.11785685157E+02 -0.21322697430E+02 -0.43164476640E+02  0.49565429928E+02  0.00000000000E+00 0. -1.
         -1    1    1    2    0  502 -0.11785685157E+02  0.21322697430E+02 -0.15326875792E+03  0.15519301517E+03  0.00000000000E+00 0.  1.
<mgrwt>
<rscale>  2 0.24363083E+02</rscale>
<asrwt>0</asrwt>
<pdfrwt beam="1">  1       21 0.64040083E-03 0.24363083E+02</pdfrwt>
<pdfrwt beam="2">  1       21 0.30860897E-01 0.24363083E+02</pdfrwt>
<totfact> 0.56080164E+07</totfact>
</mgrwt>
</event>
<event>
 4    1  0.7841599E+004  0.4559981E+02  0.7546771E-02  0.1470632E+00
         21   -1    0    0  503  502  0.00000000000E+00  0.00000000000E+00  0.33098579092E+03  0.33098579092E+03  0.00000000000E+00 0.  1.
         21   -1    0    0  501  503 -0.00000000000E+00 -0.00000000000E+00 -0.62853387395E+01  0.62853387395E+01  0.00000000000E+00 0.  1.
          4    1    1    2  501    0  0.44219199981E+02 -0.11135738637E+02  0.16607601628E+03  0.17222248839E+03  0.00000000000E+00 0. -1.
         -4    1    1    2    0  502 -0.44219199981E+02  0.11135738637E+02  0.15862443590E+03  0.16504864128E+03  0.00000000000E+00 0.  1.
<mgrwt>
<rscale>  2 0.45599806E+02</rscale>
<asrwt>0</asrwt>
<pdfrwt beam="1">  1       21 0.50920877E-01 0.45599806E+02</pdfrwt>
<pdfrwt beam="2">  1       21 0.96697545E-03 0.45599806E+02</pdfrwt>
<totfact> 0.12906283E+07</totfact>
</mgrwt>
</event>
<event>
 4    1  0.7841599E+004  0.2327796E+02  0.7546771E-02  0.1687044E+00
         21   -1    0    0  503  502  0.00000000000E+00  0.00000000000E+00  0.88092923007E+01  0.88092923007E+01  0.00000000000E+00 0. -1.
         21   -1    0    0  501  503 -0.00000000000E+00 -0.00000000000E+00 -0.63465982722E+02  0.63465982722E+02  0.00000000000E+00 0. -1.
          4    1    1    2  501    0 -0.40771026541E+01 -0.22918133072E+02 -0.20984959915E+02  0.31340582831E+02  0.00000000000E+00 0.  1.
         -4    1    1    2    0  502  0.40771026541E+01  0.22918133072E+02 -0.33671730506E+02  0.40934692191E+02  0.00000000000E+00 0. -1.
<mgrwt>
<rscale>  2 0.23277964E+02</rscale>
<asrwt>0</asrwt>
<pdfrwt beam="1">  1       21 0.13552758E-02 0.23277964E+02</pdfrwt>
<pdfrwt beam="2">  1       21 0.97639972E-02 0.23277964E+02</pdfrwt>
<totfact> 0.13173751E+08</totfact>
</mgrwt>
</event>
<event>
 4    1  0.7841599E+004  0.4323538E+02  0.7546771E-02  0.1485668E+00
         21   -1    0    0  503  502  0.00000000000E+00  0.00000000000E+00  0.47765539595E+03  0.47765539595E+03  0.00000000000E+00 0. -1.
         21   -1    0    0  501  503 -0.00000000000E+00 -0.00000000000E+00 -0.45426580425E+01  0.45426580425E+01  0.00000000000E+00 0. -1.
          5    1    1    2  501    0 -0.42385961406E+02  0.85280885379E+01  0.14682900346E+03  0.15306225621E+03  0.00000000000E+00 0.  1.
         -5    1    1    2    0  502  0.42385961406E+02 -0.85280885379E+01  0.32628373445E+03  0.32913579778E+03  0.00000000000E+00 0. -1.
<mgrwt>
<rscale>  2 0.43235379E+02</rscale>
<asrwt>0</asrwt>
<pdfrwt beam="1">  1       21 0.73485406E-01 0.43235379E+02</pdfrwt>
<pdfrwt beam="2">  1       21 0.69887085E-03 0.43235379E+02</pdfrwt>
<totfact> 0.98877778E+06</totfact>
</mgrwt>
</event>
<event>
 4    1  0.7841599E+004  0.2800860E+02  0.7546771E-02  0.1621205E+00
         21   -1    0    0  501  502  0.00000000000E+00  0.00000000000E+00  0.47468681949E+01  0.47468681949E+01  0.00000000000E+00 0.  1.
         21   -1    0    0  502  503 -0.00000000000E+00 -0.00000000000E+00 -0.19237120128E+03  0.19237120128E+03  0.00000000000E+00 0.  1.
          5    1    1    2  501    0 -0.17563576859E+02 -0.21817477961E+02 -0.56814278349E+02  0.63343064348E+02  0.00000000000E+00 0.  1.
         -5    1    1    2    0  503  0.17563576859E+02  0.21817477961E+02 -0.13081005473E+03  0.13377500513E+03  0.00000000000E+00 0. -1.
<mgrwt>
<rscale>  2 0.28008598E+02</rscale>
<asrwt>0</asrwt>
<pdfrwt beam="1">  1       21 0.73028735E-03 0.28008598E+02</pdfrwt>
<pdfrwt beam="2">  1       21 0.29595572E-01 0.28008598E+02</pdfrwt>
<totfact> 0.51368226E+07</totfact>
</mgrwt>
</event>
<event>
 4    1  0.7841599E+004  0.2135249E+02  0.7546771E-02  0.1719697E+00
         21   -1    0    0  501  502  0.00000000000E+00  0.00000000000E+00  0.21299105060E+02  0.21299105060E+02  0.00000000000E+00 0. -1.
         21   -1    0    0  502  503 -0.00000000000E+00 -0.00000000000E+00 -0.24805881693E+02  0.24805881693E+02  0.00000000000E+00 0. -1.
          4    1    1    2  501    0  0.30242548648E+01 -0.21137239931E+02 -0.10287755332E+02  0.23701623133E+02  0.00000000000E+00 0.  1.
         -4    1    1    2    0  503 -0.30242548648E+01  0.21137239931E+02  0.67809786985E+01  0.22403363620E+02  0.00000000000E+00 0. -1.
<mgrwt>
<rscale>  2 0.21352495E+02</rscale>
<asrwt>0</asrwt>
<pdfrwt beam="1">  1       21 0.32767854E-02 0.21352495E+02</pdfrwt>
<pdfrwt beam="2">  1       21 0.38162895E-02 0.21352495E+02</pdfrwt>
<totfact> 0.14968235E+08</totfact>
</mgrwt>
</event>
<event>
 4    1  0.7841599E+004  0.6186125E+02  0.7546771E-02  0.1390183E+00
         21   -1    0    0  501  502  0.00000000000E+00  0.00000000000E+00  0.58973370131E+02  0.58973370131E+02  0.00000000000E+00 0.  1.
         21   -1    0    0  502  503 -0.00000000000E+00 -0.00000000000E+00 -0.12088847972E+03  0.12088847972E+03  0.00000000000E+00 0.  1.
          5    1    1    2  501    0  0.17171281863E+02 -0.59430304436E+02  0.30249659650E+02  0.68861135012E+02  0.00000000000E+00 0.  1.
         -5    1    1    2    0  503 -0.17171281863E+02  0.59430304436E+02 -0.92164769241E+02  0.11100071484E+03  0.00000000000E+00 0. -1.
<mgrwt>
<rscale>  2 0.61861248E+02</rscale>
<asrwt>0</asrwt>
<pdfrwt beam="1">  1       21 0.90728262E-02 0.61861248E+02</pdfrwt>
<pdfrwt beam="2">  1       21 0.18598228E-01 0.61861248E+02</pdfrwt>
<totfact> 0.24403502E+06</totfact>
</mgrwt>
</event>
<event>
 4    1  0.7841599E+004  0.3204305E+02  0.7546771E-02  0.1576545E+00
         21   -1    0    0  501  502  0.00000000000E+00  0.00000000000E+00  0.14378037859E+03  0.14378037859E+03  0.00000000000E+00 0.  1.
         21   -1    0    0  502  503 -0.00000000000E+00 -0.00000000000E+00 -0.22506139245E+02  0.22506139245E+02  0.00000000000E+00 0.  1.
          3    1    1    2  501    0 -0.12618591081E+02  0.29453835465E+02 -0.80606553616E+01  0.33041359375E+02  0.00000000000E+00 0. -1.
         -3    1    1    2    0  503  0.12618591081E+02 -0.29453835465E+02  0.12933489470E+03  0.13324515846E+03  0.00000000000E+00 0.  1.
<mgrwt>
<rscale>  2 0.32043053E+02</rscale>
<asrwt>0</asrwt>
<pdfrwt beam="1">  1       21 0.22120058E-01 0.32043053E+02</pdfrwt>
<pdfrwt beam="2">  1       21 0.34624830E-02 0.32043053E+02</pdfrwt>
<totfact> 0.81259689E+06</totfact>
</mgrwt>
</event>
<event>
 4    1  0.7841599E+004  0.3238535E+02  0.7546771E-02  0.1573126E+00
         21   -1    0    0  503  502  0.00000000000E+00  0.00000000000E+00  0.13241618834E+01  0.13241618834E+01  0.00000000000E+00 0.  1.
         21   -1    0    0  501  503 -0.00000000000E+00 -0.00000000000E+00 -0.79219834438E+03  0.79219834438E+03  0.00000000000E+00 0.  1.
          4    1    1    2  501    0  0.31915306336E+02  0.54976184616E+01 -0.39012181345E+03  0.39146371469E+03  0.00000000000E+00 0. -1.
         -4    1    1    2    0  502 -0.31915306336E+02 -0.54976184616E+01 -0.40075236904E+03  0.40205879157E+03  0.00000000000E+00 0.  1.
<mgrwt>
<rscale>  2 0.32385345E+02</rscale>
<asrwt>0</asrwt>
<pdfrwt beam="1">  1       21 0.20371742E-03 0.32385345E+02</pdfrwt>
<pdfrwt beam="2">  1       21 0.12187655E+00 0.32385345E+02</pdfrwt>
<totfact> 0.19471475E+07</totfact>
</mgrwt>
</event>
<event>
 4    1  0.7841599E+004  0.2606611E+02  0.7546771E-02  0.1646145E+00
         21   -1    0    0  503  502  0.00000000000E+00  0.00000000000E+00  0.29982991723E+01  0.29982991723E+01  0.00000000000E+00 0. -1.
         21   -1    0    0  501  503 -0.00000000000E+00 -0.00000000000E+00 -0.24925378892E+03  0.24925378892E+03  0.00000000000E+00 0. -1.
          2    1    1    2  501    0  0.21484576463E+02 -0.14759913487E+02 -0.85111742529E+02  0.89013767409E+02  0.00000000000E+00 0.  1.
         -2    1    1    2    0  502 -0.21484576463E+02  0.14759913487E+02 -0.16114374721E+03  0.16323832068E+03  0.00000000000E+00 0. -1.
<mgrwt>
<rscale>  2 0.26066110E+02</rscale>
<asrwt>0</asrwt>
<pdfrwt beam="1">  1       21 0.46127696E-03 0.26066110E+02</pdfrwt>
<pdfrwt beam="2">  1       21 0.38346723E-01 0.26066110E+02</pdfrwt>
<totfact> 0.61913426E+07</totfact>
</mgrwt>
</event>
<event>
 4    1  0.7841599E+004  0.2152786E+02  0.7546771E-02  0.1716548E+00
         21   -1    0    0  501  502  0.00000000000E+00  0.00000000000E+00  0.99284339400E+01  0.99284339400E+01  0.00000000000E+00 0.  1.
         21   -1    0    0  502  503 -0.00000000000E+00 -0.00000000000E+00 -0.80672907277E+02  0.80672907277E+02  0.00000000000E+00 0.  1.
          2    1    1    2  501    0  0.15361636440E+02 -0.15082073103E+02 -0.59658486775E+01  0.22339206648E+02  0.00000000000E+00 0. -1.
         -2    1    1    2    0  503 -0.15361636440E+02  0.15082073103E+02 -0.64778624659E+02  0.68262134569E+02  0.00000000000E+00 0.  1.
<mgrwt>
<rscale>  2 0.21527861E+02</rscale>
<asrwt>0</asrwt>
<pdfrwt beam="1">  1       21 0.15274514E-02 0.21527861E+02</pdfrwt>
<pdfrwt beam="2">  1       21 0.12411216E-01 0.21527861E+02</pdfrwt>
<totfact> 0.72115977E+07</totfact>
</mgrwt>
</event>
<event>
 4    1  0.7841599E+004  0.2073561E+02  0.7546771E-02  0.1731083E+00
         21   -1    0    0  501  502  0.00000000000E+00  0.00000000000E+00  0.19187910865E+01  0.19187910865E+01  0.00000000000E+00 0.  1.
         21   -1    0    0  502  503 -0.00000000000E+00 -0.00000000000E+00 -0.22796621406E+03  0.22796621406E+03  0.00000000000E+00 0.  1.
          4    1    1    2  501    0 -0.59514312501E+01 -0.19863185136E+02 -0.98019167117E+02  0.10018843636E+03  0.00000000000E+00 0. -1.
         -4    1    1    2    0  503  0.59514312501E+01  0.19863185136E+02 -0.12802825585E+03  0.12969656878E+03  0.00000000000E+00 0.  1.
<mgrwt>
<rscale>  2 0.20735613E+02</rscale>
<asrwt>0</asrwt>
<pdfrwt beam="1">  1       21 0.29519877E-03 0.20735613E+02</pdfrwt>
<pdfrwt beam="2">  1       21 0.35071709E-01 0.20735613E+02</pdfrwt>
<totfact> 0.13251795E+08</totfact>
</mgrwt>
</event>
<event>
 4    1  0.7841599E+004  0.2126205E+02  0.7546771E-02  0.1721336E+00
         21   -1    0    0  503  502  0.00000000000E+00  0.00000000000E+00  0.88498024627E+00  0.88498024627E+00  0.00000000000E+00 0. -1.
         21   -1    0    0  501  503 -0.00000000000E+00 -0.00000000000E+00 -0.51182956811E+03  0.51182956811E+03  0.00000000000E+00 0. -1.
          5    1    1    2  501    0 -0.21228433239E+02 -0.11951611278E+01 -0.24414546200E+03  0.24506954401E+03  0.00000000000E+00 0.  1.
         -5    1    1    2    0  502  0.21228433239E+02  0.11951611278E+01 -0.26679912587E+03  0.26764500434E+03  0.00000000000E+00 0. -1.
<mgrwt>
<rscale>  2 0.21262050E+02</rscale>
<asrwt>0</asrwt>
<pdfrwt beam="1">  1       21 0.13615035E-03 0.21262050E+02</pdfrwt>
<pdfrwt beam="2">  1       21 0.78743273E-01 0.21262050E+02</pdfrwt>
<totfact> 0.83621384E+07</totfact>
</mgrwt>
</event>
<event>
 4    1  0.7841599E+004  0.3390888E+02  0.7546771E-02  0.1558509E+00
         21   -1    0    0  501  502  0.00000000000E+00  0.00000000000E+00  0.72143981536E+00  0.72143981536E+00  0.00000000000E+00 0.  1.
         21   -1    0    0  502  503 -0.00000000000E+00 -0.00000000000E+00 -0.16273125971E+04  0.16273125971E+04  0.00000000000E+00 0.  1.
          1    1    1    2  501    0 -0.10484445660E+02 -0.32247305378E+02 -0.93015611706E+03  0.93077398675E+03  0.00000000000E+00 0.  1.
         -1    1    1    2    0  503  0.10484445660E+02  0.32247305378E+02 -0.69643504020E+03  0.69726005014E+03  0.00000000000E+00 0. -1.
<mgrwt>
<rscale>  2 0.33908882E+02</rscale>
<asrwt>0</asrwt>
<pdfrwt beam="1">  1       21 0.11099022E-03 0.33908882E+02</pdfrwt>
<pdfrwt beam="2">  1       21 0.25035697E+00 0.33908882E+02</pdfrwt>
<totfact> 0.74529920E+06</totfact>
</mgrwt>
</event>
<event>
 4    1  0.7841599E+004  0.2259185E+02  0.7546771E-02  0.1698213E+00
         21   -1    0    0  503  502  0.00000000000E+00  0.00000000000E+00  0.12244467691E+02  0.12244467691E+02  0.00000000000E+00 0. -1.
         21   -1    0    0  501  503 -0.00000000000E+00 -0.00000000000E+00 -0.43470271518E+02  0.43470271518E+02  0.00000000000E+00 0. -1.
          3    1    1    2  501    0 -0.81922839258E+01  0.21054176542E+02 -0.21260742659E+02  0.31022750430E+02  0.00000000000E+00 0.  1.
         -3    1    1    2    0  502  0.81922839258E+01 -0.21054176542E+02 -0.99650611682E+01  0.24691988779E+02  0.00000000000E+00 0. -1.
<mgrwt>
<rscale>  2 0.22591854E+02</rscale>
<asrwt>0</asrwt>
<pdfrwt beam="1">  1       21 0.18837642E-02 0.22591854E+02</pdfrwt>
<pdfrwt beam="2">  1       21 0.66877342E-02 0.22591854E+02</pdfrwt>
<totfact> 0.14668369E+08</totfact>
</mgrwt>
</event>
<event>
 4    1  0.7841599E+004  0.2350595E+02  0.7546771E-02  0.1683438E+00
         21   -1    0    0  503  502  0.00000000000E+00  0.00000000000E+00  0.33610962327E+03  0.33610962327E+03  0.00000000000E+00 0.  1.
         21   -1    0    0  501  503 -0.00000000000E+00 -0.00000000000E+00 -0.16477605264E+01  0.16477605264E+01  0.00000000000E+00 0.  1.
          5    1    1    2  501    0  0.19722546276E+02 -0.12788694613E+02  0.15905325808E+03  0.16078080870E+03  0.00000000000E+00 0.  1.
         -5    1    1    2    0  502 -0.19722546276E+02  0.12788694613E+02  0.17540860466E+03  0.17697657509E+03  0.00000000000E+00 0. -1.
<mgrwt>
<rscale>  2 0.23505947E+02</rscale>
<asrwt>0</asrwt>
<pdfrwt beam="1">  1       21 0.51709118E-01 0.23505947E+02</pdfrwt>
<pdfrwt beam="2">  1       21 0.25350189E-03 0.23505947E+02</pdfrwt>
<totfact> 0.81829074E+07</totfact>
</mgrwt>
</event>
<event>
 4    1  0.7841599E+004  0.2099383E+02  0.7546771E-02  0.1726257E+00
         21   -1    0    0  501  502  0.00000000000E+00  0.00000000000E+00  0.30446700267E+02  0.30446700267E+02  0.00000000000E+00 0.  1.
         21   -1    0    0  502  503 -0.00000000000E+00 -0.00000000000E+00 -0.15305304827E+02  0.15305304827E+02  0.00000000000E+00 0.  1.
          1    1    1    2  501    0  0.16976066737E+02  0.12351273251E+02  0.22451443370E+01  0.21113537503E+02  0.00000000000E+00 0.  1.
         -1    1    1    2    0  503 -0.16976066737E+02 -0.12351273251E+02  0.12896251103E+02  0.24638467592E+02  0.00000000000E+00 0. -1.
<mgrwt>
<rscale>  2 0.20993827E+02</rscale>
<asrwt>0</asrwt>
<pdfrwt beam="1">  1       21 0.46841077E-02 0.20993827E+02</pdfrwt>
<pdfrwt beam="2">  1       21 0.23546623E-02 0.20993827E+02</pdfrwt>
<totfact> 0.17984063E+08</totfact>
</mgrwt>
</event>
<event>
 4    1  0.7841599E+004  0.5335031E+02  0.7546771E-02  0.1428065E+00
         21   -1    0    0  501  502  0.00000000000E+00  0.00000000000E+00  0.33059009294E+03  0.33059009294E+03  0.00000000000E+00 0.  1.
         21   -1    0    0  502  503 -0.00000000000E+00 -0.00000000000E+00 -0.86458646425E+01  0.86458646425E+01  0.00000000000E+00 0.  1.
          1    1    1    2  501    0  0.54231871913E+01 -0.53073949734E+02  0.17195430909E+03  0.18004038301E+03  0.00000000000E+00 0. -1.
         -1    1    1    2    0  503 -0.54231871913E+01  0.53073949734E+02  0.14998991921E+03  0.15919557457E+03  0.00000000000E+00 0.  1.
<mgrwt>
<rscale>  2 0.53350306E+02</rscale>
<asrwt>0</asrwt>
<pdfrwt beam="1">  1       21 0.50860004E-01 0.53350306E+02</pdfrwt>
<pdfrwt beam="2">  1       21 0.13301333E-02 0.53350306E+02</pdfrwt>
<totfact> 0.80449136E+06</totfact>
</mgrwt>
</event>
<event>
 4    1  0.7841599E+004  0.2084227E+02  0.7546771E-02  0.1729079E+00
         21   -1    0    0  501  502  0.00000000000E+00  0.00000000000E+00  0.26100268127E+02  0.26100268127E+02  0.00000000000E+00 0.  1.
         21   -1    0    0  502  503 -0.00000000000E+00 -0.00000000000E+00 -0.17560029321E+02  0.17560029321E+02  0.00000000000E+00 0.  1.
          3    1    1    2  501    0  0.20577639356E+02  0.33107627243E+01 -0.71714053342E+00  0.20854608168E+02  0.00000000000E+00 0. -1.
         -3    1    1    2    0  503 -0.20577639356E+02 -0.33107627243E+01  0.92573793395E+01  0.22805689280E+02  0.00000000000E+00 0.  1.
<mgrwt>
<rscale>  2 0.20842274E+02</rscale>
<asrwt>0</asrwt>
<pdfrwt beam="1">  1       21 0.40154259E-02 0.20842274E+02</pdfrwt>
<pdfrwt beam="2">  1       21 0.27015430E-02 0.20842274E+02</pdfrwt>
<totfact> 0.18505085E+08</totfact>
</mgrwt>
</event>
<event>
 4    1  0.7841599E+004  0.3088364E+02  0.7546771E-02  0.1588522E+00
         21   -1    0    0  501  502  0.00000000000E+00  0.00000000000E+00  0.48291720640E+02  0.48291720640E+02  0.00000000000E+00 0. -1.
         21   -1    0    0  502  503 -0.00000000000E+00 -0.00000000000E+00 -0.19771689606E+02  0.19771689606E+02  0.00000000000E+00 0. -1.
          3    1    1    2  501    0 -0.19972556505E+02  0.23556240757E+02  0.15366540513E+02  0.34495362867E+02  0.00000000000E+00 0. -1.
         -3    1    1    2    0  503  0.19972556505E+02 -0.23556240757E+02  0.13153490521E+02  0.33568047379E+02  0.00000000000E+00 0.  1.
<mgrwt>
<rscale>  2 0.30883644E+02</rscale>
<asrwt>0</asrwt>
<pdfrwt beam="1">  1       21 0.74294954E-02 0.30883644E+02</pdfrwt>
<pdfrwt beam="2">  1       21 0.30417984E-02 0.30883644E+02</pdfrwt>
<totfact> 0.63792523E+07</totfact>
</mgrwt>
</event>
<event>
 4    1  0.7841599E+004  0.2325101E+02  0.7546771E-02  0.1687473E+00
         21   -1    0    0  501  502  0.00000000000E+00  0.00000000000E+00  0.22094631456E+02  0.22094631456E+02  0.00000000000E+00 0. -1.
         21   -1    0    0  502  503 -0.00000000000E+00 -0.00000000000E+00 -0.31285869781E+02  0.31285869781E+02  0.00000000000E+00 0. -1.
          4    1    1    2  501    0  0.17691536011E+02 -0.15087055164E+02 -0.17055257227E+02  0.28835593960E+02  0.00000000000E+00 0. -1.
         -4    1    1    2    0  503 -0.17691536011E+02  0.15087055164E+02  0.78640189029E+01  0.24544907277E+02  0.00000000000E+00 0.  1.
<mgrwt>
<rscale>  2 0.23251015E+02</rscale>
<asrwt>0</asrwt>
<pdfrwt beam="1">  1       21 0.33991741E-02 0.23251015E+02</pdfrwt>
<pdfrwt beam="2">  1       21 0.48132107E-02 0.23251015E+02</pdfrwt>
<totfact> 0.10051203E+08</totfact>
</mgrwt>
</event>
<event>
 4    1  0.7841599E+004  0.3006436E+02  0.7546771E-02  0.1597378E+00
         21   -1    0    0  503  502  0.00000000000E+00  0.00000000000E+00  0.59912523300E+01  0.59912523300E+01  0.00000000000E+00 0.  1.
         21   -1    0    0  501  503 -0.00000000000E+00 -0.00000000000E+00 -0.17395317967E+03  0.17395317967E+03  0.00000000000E+00 0.  1.
          3    1    1    2  501    0 -0.26412776927E+02 -0.14360734315E+02 -0.11675988252E+03  0.12056838575E+03  0.00000000000E+00 0.  1.
         -3    1    1    2    0  502  0.26412776927E+02  0.14360734315E+02 -0.51202044815E+02  0.59376046250E+02  0.00000000000E+00 0. -1.
<mgrwt>
<rscale>  2 0.30064356E+02</rscale>
<asrwt>0</asrwt>
<pdfrwt beam="1">  1       21 0.92173126E-03 0.30064356E+02</pdfrwt>
<pdfrwt beam="2">  1       21 0.26762024E-01 0.30064356E+02</pdfrwt>
<totfact> 0.44136138E+07</totfact>
</mgrwt>
</event>
<event>
 4    1  0.7841599E+004  0.3445933E+02  0.7546771E-02  0.1553455E+00
         21   -1    0    0  503  502  0.00000000000E+00  0.00000000000E+00  0.16602328753E+02  0.16602328753E+02  0.00000000000E+00 0.  1.
         21   -1    0    0  501  503 -0.00000000000E+00 -0.00000000000E+00 -0.11025907544E+03  0.11025907544E+03  0.00000000000E+00 0.  1.
          4    1    1    2  501    0  0.22745050881E+02 -0.25886446156E+02 -0.84425195839E+02  0.91186946032E+02  0.00000000000E+00 0. -1.
         -4    1    1    2    0  502 -0.22745050881E+02  0.25886446156E+02 -0.92315508498E+01  0.35674458164E+02  0.00000000000E+00 0.  1.
<mgrwt>
<rscale>  2 0.34459330E+02</rscale>
<asrwt>0</asrwt>
<pdfrwt beam="1">  1       21 0.25542044E-02 0.34459330E+02</pdfrwt>
<pdfrwt beam="2">  1       21 0.16962935E-01 0.34459330E+02</pdfrwt>
<totfact> 0.21234502E+07</totfact>
</mgrwt>
</event>
<event>
 4    1  0.7841599E+004  0.2547446E+02  0.7546771E-02  0.1654279E+00
         21   -1    0    0  501  502  0.00000000000E+00  0.00000000000E+00  0.53646482034E+03  0.53646482034E+03  0.00000000000E+00 0.  1.
         21   -1    0    0  502  503 -0.00000000000E+00 -0.00000000000E+00 -0.18623909190E+01  0.18623909190E+01  0.00000000000E+00 0.  1.
          3    1    1    2  501    0  0.84800443899E+01  0.24021595226E+02  0.42664786918E+03  0.42740771222E+03  0.00000000000E+00 0.  1.
         -3    1    1    2    0  503 -0.84800443899E+01 -0.24021595226E+02  0.10795456024E+03  0.11091949904E+03  0.00000000000E+00 0. -1.
<mgrwt>
<rscale>  2 0.25474462E+02</rscale>
<asrwt>0</asrwt>
<pdfrwt beam="1">  1       21 0.82532926E-01 0.25474462E+02</pdfrwt>
<pdfrwt beam="2">  1       21 0.28652211E-03 0.25474462E+02</pdfrwt>
<totfact> 0.26921970E+07</totfact>
</mgrwt>
</event>
<event>
 4    1  0.7841599E+004  0.2091730E+02  0.7546771E-02  0.1727679E+00
         21   -1    0    0  503  502  0.00000000000E+00  0.00000000000E+00  0.13079690149E+02  0.13079690149E+02  0.00000000000E+00 0.  1.
         21   -1    0    0  501  503 -0.00000000000E+00 -0.00000000000E+00 -0.38217484535E+02  0.38217484535E+02  0.00000000000E+00 0.  1.
          1    1    1    2  501    0  0.14923442295E+02 -0.14656884983E+02 -0.35112551899E+01  0.21209958047E+02  0.00000000000E+00 0. -1.
         -1    1    1    2    0  502 -0.14923442295E+02  0.14656884983E+02 -0.21626539196E+02  0.30087216637E+02  0.00000000000E+00 0.  1.
<mgrwt>
<rscale>  2 0.20917299E+02</rscale>
<asrwt>0</asrwt>
<pdfrwt beam="1">  1       21 0.20122601E-02 0.20917299E+02</pdfrwt>
<pdfrwt beam="2">  1       21 0.58796129E-02 0.20917299E+02</pdfrwt>
<totfact> 0.15926053E+08</totfact>
</mgrwt>
</event>
<event>
 4    1  0.7841599E+004  0.2362096E+02  0.7546771E-02  0.1681638E+00
         21   -1    0    0  503  502  0.00000000000E+00  0.00000000000E+00  0.63233333845E+03  0.63233333845E+03  0.00000000000E+00 0.  1.
         21   -1    0    0  501  503 -0.00000000000E+00 -0.00000000000E+00 -0.11114078769E+01  0.11114078769E+01  0.00000000000E+00 0.  1.
          5    1    1    2  501    0  0.23298380171E+02 -0.38904323220E+01  0.17183091228E+03  0.17344685756E+03  0.00000000000E+00 0.  1.
         -5    1    1    2    0  502 -0.23298380171E+02  0.38904323220E+01  0.45939101830E+03  0.45999788877E+03  0.00000000000E+00 0. -1.
<mgrwt>
<rscale>  2 0.23620965E+02</rscale>
<asrwt>0</asrwt>
<pdfrwt beam="1">  1       21 0.97281765E-01 0.23620965E+02</pdfrwt>
<pdfrwt beam="2">  1       21 0.17098633E-03 0.23620965E+02</pdfrwt>
<totfact> 0.39394680E+07</totfact>
</mgrwt>
</event>
<event>
 4    1  0.7841599E+004  0.2820938E+02  0.7546771E-02  0.1618769E+00
         21   -1    0    0  501  502  0.00000000000E+00  0.00000000000E+00  0.32155801507E+02  0.32155801507E+02  0.00000000000E+00 0.  1.
         21   -1    0    0  502  503 -0.00000000000E+00 -0.00000000000E+00 -0.36504719376E+02  0.36504719376E+02  0.00000000000E+00 0.  1.
          2    1    1    2  501    0  0.23700899707E+02 -0.15298248019E+02 -0.21657588840E+02  0.35564310675E+02  0.00000000000E+00 0.  1.
         -2    1    1    2    0  503 -0.23700899707E+02  0.15298248019E+02  0.17308670972E+02  0.33096210209E+02  0.00000000000E+00 0. -1.
<mgrwt>
<rscale>  2 0.28209379E+02</rscale>
<asrwt>0</asrwt>
<pdfrwt beam="1">  1       21 0.49470464E-02 0.28209379E+02</pdfrwt>
<pdfrwt beam="2">  1       21 0.56161107E-02 0.28209379E+02</pdfrwt>
<totfact> 0.45511580E+07</totfact>
</mgrwt>
</event>
<event>
 4    1  0.7841599E+004  0.2406131E+02  0.7546771E-02  0.1674862E+00
         21   -1    0    0  503  502  0.00000000000E+00  0.00000000000E+00  0.14317291476E+02  0.14317291476E+02  0.00000000000E+00 0.  1.
         21   -1    0    0  501  503 -0.00000000000E+00 -0.00000000000E+00 -0.40486208553E+02  0.40486208553E+02  0.00000000000E+00 0.  1.
          3    1    1    2  501    0 -0.23088750144E+02 -0.67717331782E+01 -0.12128088571E+02  0.26945079066E+02  0.00000000000E+00 0.  1.
         -3    1    1    2    0  502  0.23088750144E+02  0.67717331782E+01 -0.14040828505E+02  0.27858420963E+02  0.00000000000E+00 0. -1.
<mgrwt>
<rscale>  2 0.24061312E+02</rscale>
<asrwt>0</asrwt>
<pdfrwt beam="1">  1       21 0.22026602E-02 0.24061312E+02</pdfrwt>
<pdfrwt beam="2">  1       21 0.62286475E-02 0.24061312E+02</pdfrwt>
<totfact> 0.13184830E+08</totfact>
</mgrwt>
</event>
<event>
 4    1  0.7841599E+004  0.2722112E+02  0.7546771E-02  0.1631007E+00
         21   -1    0    0  501  502  0.00000000000E+00  0.00000000000E+00  0.21102092965E+01  0.21102092965E+01  0.00000000000E+00 0.  1.
         21   -1    0    0  502  503 -0.00000000000E+00 -0.00000000000E+00 -0.36547400620E+03  0.36547400620E+03  0.00000000000E+00 0.  1.
          3    1    1    2  501    0 -0.60779337554E+01  0.26533902762E+02 -0.14528973624E+03  0.14781778219E+03  0.00000000000E+00 0.  1.
         -3    1    1    2    0  503  0.60779337554E+01 -0.26533902762E+02 -0.21807406067E+03  0.21976643331E+03  0.00000000000E+00 0. -1.
<mgrwt>
<rscale>  2 0.27221118E+02</rscale>
<asrwt>0</asrwt>
<pdfrwt beam="1">  1       21 0.32464789E-03 0.27221118E+02</pdfrwt>
<pdfrwt beam="2">  1       21 0.56226717E-01 0.27221118E+02</pdfrwt>
<totfact> 0.49980070E+07</totfact>
</mgrwt>
</event>
<event>
 4    1  0.7841599E+004  0.3243753E+02  0.7546771E-02  0.1572609E+00
         21   -1    0    0  501  502  0.00000000000E+00  0.00000000000E+00  0.17850092749E+03  0.17850092749E+03  0.00000000000E+00 0.  1.
         21   -1    0    0  502  503 -0.00000000000E+00 -0.00000000000E+00 -0.65709236442E+01  0.65709236442E+01  0.00000000000E+00 0.  1.
          2    1    1    2  501    0 -0.32275433902E+02  0.32387879822E+01  0.56277668827E+02  0.64956673174E+02  0.00000000000E+00 0.  1.
         -2    1    1    2    0  503  0.32275433902E+02 -0.32387879822E+01  0.11565233502E+03  0.12011517796E+03  0.00000000000E+00 0. -1.
<mgrwt>
<rscale>  2 0.32437530E+02</rscale>
<asrwt>0</asrwt>
<pdfrwt beam="1">  1       21 0.27461678E-01 0.32437530E+02</pdfrwt>
<pdfrwt beam="2">  1       21 0.10109115E-02 0.32437530E+02</pdfrwt>
<totfact> 0.37162832E+07</totfact>
</mgrwt>
</event>
<event>
 4    1  0.7841599E+004  0.2225452E+02  0.7546771E-02  0.1703887E+00
         21   -1    0    0  503  502  0.00000000000E+00  0.00000000000E+00  0.35922287535E+01  0.35922287535E+01  0.00000000000E+00 0.  1.
         21   -1    0    0  501  503 -0.00000000000E+00 -0.00000000000E+00 -0.15676595302E+03  0.15676595302E+03  0.00000000000E+00 0.  1.
          5    1    1    2  501    0 -0.33093282359E+01  0.22007090016E+02 -0.48750672808E+02  0.53590034182E+02  0.00000000000E+00 0. -1.
         -5    1    1    2    0  502  0.33093282359E+01 -0.22007090016E+02 -0.10442305146E+03  0.10676814760E+03  0.00000000000E+00 0.  1.
<mgrwt>
<rscale>  2 0.22254520E+02</rscale>
<asrwt>0</asrwt>
<pdfrwt beam="1">  1       21 0.55265080E-03 0.22254520E+02</pdfrwt>
<pdfrwt beam="2">  1       21 0.24117829E-01 0.22254520E+02</pdfrwt>
<totfact> 0.10621819E+08</totfact>
</mgrwt>
</event>
<event>
 4    1  0.7841599E+004  0.2496556E+02  0.7546771E-02  0.1661497E+00
         21   -1    0    0  501  502  0.00000000000E+00  0.00000000000E+00  0.18154692602E+03  0.18154692602E+03  0.00000000000E+00 0.  1.
         21   -1    0    0  502  503 -0.00000000000E+00 -0.00000000000E+00 -0.34588978196E+01  0.34588978196E+01  0.00000000000E+00 0.  1.
          2    1    1    2  501    0  0.11299470489E+01  0.24939975305E+02  0.81064150595E+02  0.84821433967E+02  0.00000000000E+00 0. -1.
         -2    1    1    2    0  503 -0.11299470489E+01 -0.24939975305E+02  0.97023877601E+02  0.10018438987E+03  0.00000000000E+00 0.  1.
<mgrwt>
<rscale>  2 0.24965559E+02</rscale>
<asrwt>0</asrwt>
<pdfrwt beam="1">  1       21 0.27930289E-01 0.24965559E+02</pdfrwt>
<pdfrwt beam="2">  1       21 0.53213827E-03 0.24965559E+02</pdfrwt>
<totfact> 0.89043946E+07</totfact>
</mgrwt>
</event>
<event>
 4    1  0.7841599E+004  0.2353752E+02  0.7546771E-02  0.1682942E+00
         21   -1    0    0  503  502  0.00000000000E+00  0.00000000000E+00  0.26998462478E+01  0.26998462478E+01  0.00000000000E+00 0. -1.
         21   -1    0    0  501  503 -0.00000000000E+00 -0.00000000000E+00 -0.25450545776E+03  0.25450545776E+03  0.00000000000E+00 0. -1.
          5    1    1    2  501    0  0.23403712873E+02  0.25061714112E+01 -0.69299900426E+02  0.73188051419E+02  0.00000000000E+00 0. -1.
         -5    1    1    2    0  502 -0.23403712873E+02 -0.25061714112E+01 -0.18250571108E+03  0.18401725259E+03  0.00000000000E+00 0.  1.
<mgrwt>
<rscale>  2 0.23537516E+02</rscale>
<asrwt>0</asrwt>
<pdfrwt beam="1">  1       21 0.41536107E-03 0.23537516E+02</pdfrwt>
<pdfrwt beam="2">  1       21 0.39154676E-01 0.23537516E+02</pdfrwt>
<totfact> 0.67816409E+07</totfact>
</mgrwt>
</event>
<event>
 4    1  0.7841599E+004  0.9897275E+02  0.7546771E-02  0.1282471E+00
         21   -1    0    0  503  502  0.00000000000E+00  0.00000000000E+00  0.51703915646E+03  0.51703915646E+03  0.00000000000E+00 0. -1.
         21   -1    0    0  501  503 -0.00000000000E+00 -0.00000000000E+00 -0.18997330064E+02  0.18997330064E+02  0.00000000000E+00 0. -1.
          5    1    1    2  501    0  0.98904202151E+02 -0.36828618137E+01  0.23503180680E+03  0.25502069501E+03  0.00000000000E+00 0.  1.
         -5    1    1    2    0  502 -0.98904202151E+02  0.36828618137E+01  0.26301001960E+03  0.28101579152E+03  0.00000000000E+00 0. -1.
<mgrwt>
<rscale>  2 0.98972747E+02</rscale>
<asrwt>0</asrwt>
<pdfrwt beam="1">  1       21 0.79544475E-01 0.98972747E+02</pdfrwt>
<pdfrwt beam="2">  1       21 0.29226666E-02 0.98972747E+02</pdfrwt>
<totfact> 0.92405129E+05</totfact>
</mgrwt>
</event>
<event>
 4    1  0.7841599E+004  0.2525465E+02  0.7546771E-02  0.1657371E+00
         21   -1    0    0  503  502  0.00000000000E+00  0.00000000000E+00  0.33599383659E+01  0.33599383659E+01  0.00000000000E+00 0. -1.
         21   -1    0    0  501  503 -0.00000000000E+00 -0.00000000000E+00 -0.27389874791E+03  0.27389874791E+03  0.00000000000E+00 0. -1.
          2    1    1    2  501    0 -0.12754304461E+02  0.21797361304E+02 -0.21207497130E+03  0.21357338479E+03  0.00000000000E+00 0. -1.
         -2    1    1    2    0  502  0.12754304461E+02 -0.21797361304E+02 -0.58463838245E+02  0.63685301479E+02  0.00000000000E+00 0.  1.
<mgrwt>
<rscale>  2 0.25254648E+02</rscale>
<asrwt>0</asrwt>
<pdfrwt beam="1">  1       21 0.51691355E-03 0.25254648E+02</pdfrwt>
<pdfrwt beam="2">  1       21 0.42138272E-01 0.25254648E+02</pdfrwt>
<totfact> 0.43449224E+07</totfact>
</mgrwt>
</event>
<event>
 4    1  0.7841599E+004  0.2542786E+02  0.7546771E-02  0.1654931E+00
         21   -1    0    0  501  502  0.00000000000E+00  0.00000000000E+00  0.11717255976E+02  0.11717255976E+02  0.00000000000E+00 0.  1.
         21   -1    0    0  502  503 -0.00000000000E+00 -0.00000000000E+00 -0.55964204085E+02  0.55964204085E+02  0.00000000000E+00 0.  1.
          5    1    1    2  501    0 -0.17641626388E+02 -0.18312535082E+02 -0.18121451607E+02  0.31224396408E+02  0.00000000000E+00 0.  1.
         -5    1    1    2    0  503  0.17641626388E+02  0.18312535082E+02 -0.26125496503E+02  0.36457063653E+02  0.00000000000E+00 0. -1.
<mgrwt>
<rscale>  2 0.25427857E+02</rscale>
<asrwt>0</asrwt>
<pdfrwt beam="1">  1       21 0.18026548E-02 0.25427857E+02</pdfrwt>
<pdfrwt beam="2">  1       21 0.86098775E-02 0.25427857E+02</pdfrwt>
<totfact> 0.10755282E+08</totfact>
</mgrwt>
</event>
<event>
 4    1  0.7841599E+004  0.2122793E+02  0.7546771E-02  0.1721957E+00
         21   -1    0    0  501  502  0.00000000000E+00  0.00000000000E+00  0.71015370250E+02  0.71015370250E+02  0.00000000000E+00 0. -1.
         21   -1    0    0  502  503 -0.00000000000E+00 -0.00000000000E+00 -0.63998042582E+01  0.63998042582E+01  0.00000000000E+00 0. -1.
          3    1    1    2  501    0  0.17742896560E+02  0.11653949840E+02  0.28740771076E+02  0.35730335112E+02  0.00000000000E+00 0.  1.
         -3    1    1    2    0  503 -0.17742896560E+02 -0.11653949840E+02  0.35874794917E+02  0.41684839397E+02  0.00000000000E+00 0. -1.
<mgrwt>
<rscale>  2 0.21227928E+02</rscale>
<asrwt>0</asrwt>
<pdfrwt beam="1">  1       21 0.10925441E-01 0.21227928E+02</pdfrwt>
<pdfrwt beam="2">  1       21 0.98458532E-03 0.21227928E+02</pdfrwt>
<totfact> 0.17213768E+08</totfact>
</mgrwt>
</event>
<event>
 4    1  0.7841599E+004  0.2898284E+02  0.7546771E-02  0.1609612E+00
         21   -1    0    0  501  502  0.00000000000E+00  0.00000000000E+00  0.22327591297E+02  0.22327591297E+02  0.00000000000E+00 0.  1.
         21   -1    0    0  502  503 -0.00000000000E+00 -0.00000000000E+00 -0.52858118264E+02  0.52858118264E+02  0.00000000000E+00 0.  1.
          3    1    1    2  501    0 -0.10081347824E+02 -0.27172991971E+02  0.49178845823E+01  0.29397119848E+02  0.00000000000E+00 0. -1.
         -3    1    1    2    0  503  0.10081347824E+02  0.27172991971E+02 -0.35448411550E+02  0.45788589714E+02  0.00000000000E+00 0.  1.
<mgrwt>
<rscale>  2 0.28982841E+02</rscale>
<asrwt>0</asrwt>
<pdfrwt beam="1">  1       21 0.34350141E-02 0.28982841E+02</pdfrwt>
<pdfrwt beam="2">  1       21 0.81320182E-02 0.28982841E+02</pdfrwt>
<totfact> 0.44748115E+07</totfact>
</mgrwt>
</event>
<event>
 4    1  0.7841599E+004  0.2988958E+02  0.7546771E-02  0.1599312E+00
         21   -1    0    0  503  502  0.00000000000E+00  0.00000000000E+00  0.81765175268E+02  0.81765175268E+02  0.00000000000E+00 0. -1.
         21   -1    0    0  501  503 -0.00000000000E+00 -0.00000000000E+00 -0.14075711983E+02  0.14075711983E+02  0.00000000000E+00 0. -1.
          5    1    1    2  501    0  0.83288724135E+01  0.28705696495E+02  0.56512225579E+02  0.63929795611E+02  0.00000000000E+00 0.  1.
         -5    1    1    2    0  502 -0.83288724135E+01 -0.28705696495E+02  0.11177237706E+02  0.31911091640E+02  0.00000000000E+00 0. -1.
<mgrwt>
<rscale>  2 0.29889582E+02</rscale>
<asrwt>0</asrwt>
<pdfrwt beam="1">  1       21 0.12579257E-01 0.29889582E+02</pdfrwt>
<pdfrwt beam="2">  1       21 0.21654942E-02 0.29889582E+02</pdfrwt>
<totfact> 0.44736249E+07</totfact>
</mgrwt>
</event>
<event>
 4    1  0.7841599E+004  0.2124873E+02  0.7546771E-02  0.1721578E+00
         21   -1    0    0  503  502  0.00000000000E+00  0.00000000000E+00  0.29496293447E+02  0.29496293447E+02  0.00000000000E+00 0.  1.
         21   -1    0    0  501  503 -0.00000000000E+00 -0.00000000000E+00 -0.15744698806E+02  0.15744698806E+02  0.00000000000E+00 0.  1.
          4    1    1    2  501    0  0.14673667626E+02 -0.15368534683E+02  0.31054820941E+01  0.21474459223E+02  0.00000000000E+00 0.  1.
         -4    1    1    2    0  502 -0.14673667626E+02  0.15368534683E+02  0.10646112547E+02  0.23766533029E+02  0.00000000000E+00 0. -1.
<mgrwt>
<rscale>  2 0.21248727E+02</rscale>
<asrwt>0</asrwt>
<pdfrwt beam="1">  1       21 0.45378913E-02 0.21248727E+02</pdfrwt>
<pdfrwt beam="2">  1       21 0.24222614E-02 0.21248727E+02</pdfrwt>
<totfact> 0.18171907E+08</totfact>
</mgrwt>
</event>
<event>
 4    1  0.7841599E+004  0.2808161E+02  0.7546771E-02  0.1620316E+00
         21   -1    0    0  501  502  0.00000000000E+00  0.00000000000E+00  0.29546830141E+01  0.29546830141E+01  0.00000000000E+00 0. -1.
         21   -1    0    0  502  503 -0.00000000000E+00 -0.00000000000E+00 -0.26914403692E+03  0.26914403692E+03  0.00000000000E+00 0. -1.
          2    1    1    2  501    0  0.24420460667E+01 -0.27975223857E+02 -0.12064553739E+03  0.12387058744E+03  0.00000000000E+00 0. -1.
         -2    1    1    2    0  503 -0.24420460667E+01  0.27975223857E+02 -0.14554381651E+03  0.14822813250E+03  0.00000000000E+00 0.  1.
<mgrwt>
<rscale>  2 0.28081609E+02</rscale>
<asrwt>0</asrwt>
<pdfrwt beam="1">  1       21 0.45456658E-03 0.28081609E+02</pdfrwt>
<pdfrwt beam="2">  1       21 0.41406778E-01 0.28081609E+02</pdfrwt>
<totfact> 0.55615523E+07</totfact>
</mgrwt>
</event>
<event>
 4    1  0.7841599E+004  0.2312327E+02  0.7546771E-02  0.1689520E+00
         21   -1    0    0  503  502  0.00000000000E+00  0.00000000000E+00  0.13350606481E+03  0.13350606481E+03  0.00000000000E+00 0.  1.
         21   -1    0    0  501  503 -0.00000000000E+00 -0.00000000000E+00 -0.40069890071E+01  0.40069890071E+01  0.00000000000E+00 0.  1.
          2    1    1    2  501    0 -0.98520245063E+00  0.23102269014E+02  0.66299568640E+02  0.70216225043E+02  0.00000000000E+00 0.  1.
         -2    1    1    2    0  502  0.98520245063E+00 -0.23102269014E+02  0.63199507166E+02  0.67296828777E+02  0.00000000000E+00 0. -1.
<mgrwt>
<rscale>  2 0.23123267E+02</rscale>
<asrwt>0</asrwt>
<pdfrwt beam="1">  1       21 0.20539391E-01 0.23123267E+02</pdfrwt>
<pdfrwt beam="2">  1       21 0.61645995E-03 0.23123267E+02</pdfrwt>
<totfact> 0.12119838E+08</totfact>
</mgrwt>
</event>
<event>
 4    1  0.7841599E+004  0.3168179E+02  0.7546771E-02  0.1580210E+00
         21   -1    0    0  503  502  0.00000000000E+00  0.00000000000E+00  0.44710751383E+03  0.44710751383E+03  0.00000000000E+00 0.  1.
         21   -1    0    0  501  503 -0.00000000000E+00 -0.00000000000E+00 -0.24835798210E+01  0.24835798210E+01  0.00000000000E+00 0.  1.
          4    1    1    2  501    0 -0.16212476057E+02  0.27219323011E+02  0.15263213275E+03  0.15588554735E+03  0.00000000000E+00 0.  1.
         -4    1    1    2    0  502  0.16212476057E+02 -0.27219323011E+02  0.29199180126E+03  0.29370554631E+03  0.00000000000E+00 0. -1.
<mgrwt>
<rscale>  2 0.31681792E+02</rscale>
<asrwt>0</asrwt>
<pdfrwt beam="1">  1       21 0.68785707E-01 0.31681792E+02</pdfrwt>
<pdfrwt beam="2">  1       21 0.38208956E-03 0.31681792E+02</pdfrwt>
<totfact> 0.26862811E+07</totfact>
</mgrwt>
</event>
<event>
 4    1  0.7841599E+004  0.2398000E+02  0.7546771E-02  0.1676100E+00
         21   -1    0    0  503  502  0.00000000000E+00  0.00000000000E+00  0.19535298497E+02  0.19535298497E+02  0.00000000000E+00 0. -1.
         21   -1    0    0  501  503 -0.00000000000E+00 -0.00000000000E+00 -0.31090915283E+02  0.31090915283E+02  0.00000000000E+00 0. -1.
          5    1    1    2  501    0  0.14960626250E+02  0.18740865905E+02  0.62300902346E-01  0.23980080777E+02  0.00000000000E+00 0.  1.
         -5    1    1    2    0  502 -0.14960626250E+02 -0.18740865905E+02 -0.11617917688E+02  0.26646133004E+02  0.00000000000E+00 0. -1.
<mgrwt>
<rscale>  2 0.23980000E+02</rscale>
<asrwt>0</asrwt>
<pdfrwt beam="1">  1       21 0.30054306E-02 0.23980000E+02</pdfrwt>
<pdfrwt beam="2">  1       21 0.47832177E-02 0.23980000E+02</pdfrwt>
<totfact> 0.12416665E+08</totfact>
</mgrwt>
</event>
<event>
 4    1  0.7841599E+004  0.2456448E+02  0.7546771E-02  0.1667337E+00
         21   -1    0    0  503  502  0.00000000000E+00  0.00000000000E+00  0.81490718233E+01  0.81490718233E+01  0.00000000000E+00 0. -1.
         21   -1    0    0  501  503 -0.00000000000E+00 -0.00000000000E+00 -0.75872939904E+02  0.75872939904E+02  0.00000000000E+00 0. -1.
          1    1    1    2  501    0 -0.24274845781E+02 -0.37610323038E+01 -0.40379340768E+02  0.47264200644E+02  0.00000000000E+00 0.  1.
         -1    1    1    2    0  502  0.24274845781E+02  0.37610323038E+01 -0.27344527313E+02  0.36757811083E+02  0.00000000000E+00 0. -1.
<mgrwt>
<rscale>  2 0.24564476E+02</rscale>
<asrwt>0</asrwt>
<pdfrwt beam="1">  1       21 0.12537033E-02 0.24564476E+02</pdfrwt>
<pdfrwt beam="2">  1       21 0.11672760E-01 0.24564476E+02</pdfrwt>
<totfact> 0.11185565E+08</totfact>
</mgrwt>
</event>
<event>
 4    1  0.7841599E+004  0.2833052E+02  0.7546771E-02  0.1617311E+00
         21   -1    0    0  503  502  0.00000000000E+00  0.00000000000E+00  0.75611005803E+00  0.75611005803E+00  0.00000000000E+00 0. -1.
         21   -1    0    0  501  503 -0.00000000000E+00 -0.00000000000E+00 -0.11571751291E+04  0.11571751291E+04  0.00000000000E+00 0. -1.
          5    1    1    2  501    0  0.16503136089E+02 -0.23027479135E+02 -0.74467734618E+03  0.74521605471E+03  0.00000000000E+00 0. -1.
         -5    1    1    2    0  502 -0.16503136089E+02  0.23027479135E+02 -0.41174167290E+03  0.41271518448E+03  0.00000000000E+00 0.  1.
<mgrwt>
<rscale>  2 0.28330519E+02</rscale>
<asrwt>0</asrwt>
<pdfrwt beam="1">  1       21 0.11632449E-03 0.28330519E+02</pdfrwt>
<pdfrwt beam="2">  1       21 0.17802715E+00 0.28330519E+02</pdfrwt>
<totfact> 0.17302511E+07</totfact>
</mgrwt>
</event>
<event>
 4    1  0.7841599E+004  0.2428549E+02  0.7546771E-02  0.1671482E+00
         21   -1    0    0  503  502  0.00000000000E+00  0.00000000000E+00  0.51007524741E+02  0.51007524741E+02  0.00000000000E+00 0. -1.
         21   -1    0    0  501  503 -0.00000000000E+00 -0.00000000000E+00 -0.28256334906E+02  0.28256334906E+02  0.00000000000E+00 0. -1.
          2    1    1    2  501    0 -0.44079901938E+01  0.23882097140E+02 -0.19086705807E+02  0.30888303287E+02  0.00000000000E+00 0.  1.
         -2    1    1    2    0  502  0.44079901938E+01 -0.23882097140E+02  0.41837895642E+02  0.48375556360E+02  0.00000000000E+00 0. -1.
<mgrwt>
<rscale>  2 0.24285488E+02</rscale>
<asrwt>0</asrwt>
<pdfrwt beam="1">  1       21 0.78473115E-02 0.24285488E+02</pdfrwt>
<pdfrwt beam="2">  1       21 0.43471285E-02 0.24285488E+02</pdfrwt>
<totfact> 0.31404140E+07</totfact>
</mgrwt>
</event>
<event>
 4    1  0.7841599E+004  0.2223964E+02  0.7546771E-02  0.1704140E+00
         21   -1    0    0  501  502  0.00000000000E+00  0.00000000000E+00  0.20809053036E+01  0.20809053036E+01  0.00000000000E+00 0. -1.
         21   -1    0    0  502  503 -0.00000000000E+00 -0.00000000000E+00 -0.34612704264E+03  0.34612704264E+03  0.00000000000E+00 0. -1.
          4    1    1    2  501    0  0.22131680908E+02  0.21887216713E+01 -0.74571685741E+02  0.77817338149E+02  0.00000000000E+00 0. -1.
         -4    1    1    2    0  503 -0.22131680908E+02 -0.21887216713E+01 -0.26947445160E+03  0.27039060980E+03  0.00000000000E+00 0.  1.
<mgrwt>
<rscale>  2 0.22239645E+02</rscale>
<asrwt>0</asrwt>
<pdfrwt beam="1">  1       21 0.32013925E-03 0.22239645E+02</pdfrwt>
<pdfrwt beam="2">  1       21 0.53250320E-01 0.22239645E+02</pdfrwt>
<totfact> 0.54271068E+07</totfact>
</mgrwt>
</event>
<event>
 4    1  0.7841599E+004  0.2430449E+02  0.7546771E-02  0.1671197E+00
         21   -1    0    0  503  502  0.00000000000E+00  0.00000000000E+00  0.61265755747E+02  0.61265755747E+02  0.00000000000E+00 0.  1.
         21   -1    0    0  501  503 -0.00000000000E+00 -0.00000000000E+00 -0.13786951748E+02  0.13786951748E+02  0.00000000000E+00 0.  1.
          1    1    1    2  501    0 -0.24018052915E+02  0.37203989371E+01  0.31626976540E+01  0.24509404124E+02  0.00000000000E+00 0.  1.
         -1    1    1    2    0  502  0.24018052915E+02 -0.37203989371E+01  0.44316106344E+02  0.50543303370E+02  0.00000000000E+00 0. -1.
<mgrwt>
<rscale>  2 0.24304490E+02</rscale>
<asrwt>0</asrwt>
<pdfrwt beam="1">  1       21 0.94255007E-02 0.24304490E+02</pdfrwt>
<pdfrwt beam="2">  1       21 0.21210695E-02 0.24304490E+02</pdfrwt>
<totfact> 0.71298488E+07</totfact>
</mgrwt>
</event>
<event>
 4    1  0.7841599E+004  0.2620328E+02  0.7546771E-02  0.1644297E+00
         21   -1    0    0  501  502  0.00000000000E+00  0.00000000000E+00  0.23931760316E+02  0.23931760316E+02  0.00000000000E+00 0. -1.
         21   -1    0    0  502  503 -0.00000000000E+00 -0.00000000000E+00 -0.28691218561E+02  0.28691218561E+02  0.00000000000E+00 0. -1.
          2    1    1    2  501    0 -0.52013628133E+01 -0.25681855493E+02 -0.25199071041E+01  0.26324167764E+02  0.00000000000E+00 0. -1.
         -2    1    1    2    0  503  0.52013628133E+01  0.25681855493E+02 -0.22395511411E+01  0.26298811113E+02  0.00000000000E+00 0.  1.
<mgrwt>
<rscale>  2 0.26203280E+02</rscale>
<asrwt>0</asrwt>
<pdfrwt beam="1">  1       21 0.36818093E-02 0.26203280E+02</pdfrwt>
<pdfrwt beam="2">  1       21 0.44140336E-02 0.26203280E+02</pdfrwt>
<totfact> 0.10514459E+08</totfact>
</mgrwt>
</event>
<event>
 4    1  0.7841599E+004  0.3752085E+02  0.7546771E-02  0.1527290E+00
         21   -1    0    0  501  502  0.00000000000E+00  0.00000000000E+00  0.28383022786E+02  0.28383022786E+02  0.00000000000E+00 0. -1.
         21   -1    0    0  502  503 -0.00000000000E+00 -0.00000000000E+00 -0.49637520116E+02  0.49637520116E+02  0.00000000000E+00 0. -1.
          4    1    1    2  501    0  0.36816129668E+02  0.72378818751E+01 -0.95630214466E+01  0.38720352748E+02  0.00000000000E+00 0.  1.
         -4    1    1    2    0  503 -0.36816129668E+02 -0.72378818751E+01 -0.11691475883E+02  0.39300190153E+02  0.00000000000E+00 0. -1.
<mgrwt>
<rscale>  2 0.37520852E+02</rscale>
<asrwt>0</asrwt>
<pdfrwt beam="1">  1       21 0.43666189E-02 0.37520852E+02</pdfrwt>
<pdfrwt beam="2">  1       21 0.76365415E-02 0.37520852E+02</pdfrwt>
<totfact> 0.35685521E+07</totfact>
</mgrwt>
</event>
<event>
 4    1  0.7841599E+004  0.2692174E+02  0.7546771E-02  0.1634841E+00
         21   -1    0    0  501  502  0.00000000000E+00  0.00000000000E+00  0.80670162534E+03  0.80670162534E+03  0.00000000000E+00 0. -1.
         21   -1    0    0  502  503 -0.00000000000E+00 -0.00000000000E+00 -0.10477493591E+01  0.10477493591E+01  0.00000000000E+00 0. -1.
          1    1    1    2  501    0  0.12834563221E+02  0.23665463323E+02  0.55528434938E+03  0.55593658706E+03  0.00000000000E+00 0. -1.
         -1    1    1    2    0  503 -0.12834563221E+02 -0.23665463323E+02  0.25036952660E+03  0.25181278764E+03  0.00000000000E+00 0.  1.
<mgrwt>
<rscale>  2 0.26921742E+02</rscale>
<asrwt>0</asrwt>
<pdfrwt beam="1">  1       21 0.12410745E+00 0.26921742E+02</pdfrwt>
<pdfrwt beam="2">  1       21 0.16119285E-03 0.26921742E+02</pdfrwt>
<totfact> 0.25491935E+07</totfact>
</mgrwt>
</event>
<event>
 4    1  0.7841599E+004  0.2527959E+02  0.7546771E-02  0.1657018E+00
         21   -1    0    0  501  502  0.00000000000E+00  0.00000000000E+00  0.87195942605E+02  0.87195942605E+02  0.00000000000E+00 0.  1.
         21   -1    0    0  502  503 -0.00000000000E+00 -0.00000000000E+00 -0.94847131418E+01  0.94847131418E+01  0.00000000000E+00 0.  1.
          3    1    1    2  501    0  0.18195293007E+02  0.17549608193E+02  0.61901577547E+02  0.66864510304E+02  0.00000000000E+00 0.  1.
         -3    1    1    2    0  503 -0.18195293007E+02 -0.17549608193E+02  0.15809651915E+02  0.29816145442E+02  0.00000000000E+00 0. -1.
<mgrwt>
<rscale>  2 0.25279585E+02</rscale>
<asrwt>0</asrwt>
<pdfrwt beam="1">  1       21 0.13414760E-01 0.25279585E+02</pdfrwt>
<pdfrwt beam="2">  1       21 0.14591867E-02 0.25279585E+02</pdfrwt>
<totfact> 0.70779222E+07</totfact>
</mgrwt>
</event>
<event>
 4    1  0.7841599E+004  0.3063916E+02  0.7546771E-02  0.1591129E+00
         21   -1    0    0  503  502  0.00000000000E+00  0.00000000000E+00  0.76364343513E+02  0.76364343513E+02  0.00000000000E+00 0. -1.
         21   -1    0    0  501  503 -0.00000000000E+00 -0.00000000000E+00 -0.31245897861E+02  0.31245897861E+02  0.00000000000E+00 0. -1.
          1    1    1    2  501    0 -0.28942203952E+02  0.10055202160E+02 -0.19345522769E+02  0.36235445509E+02  0.00000000000E+00 0. -1.
         -1    1    1    2    0  502  0.28942203952E+02 -0.10055202160E+02  0.64463968422E+02  0.71374795865E+02  0.00000000000E+00 0.  1.
<mgrwt>
<rscale>  2 0.30639162E+02</rscale>
<asrwt>0</asrwt>
<pdfrwt beam="1">  1       21 0.11748361E-01 0.30639162E+02</pdfrwt>
<pdfrwt beam="2">  1       21 0.48070612E-02 0.30639162E+02</pdfrwt>
<totfact> 0.14334247E+07</totfact>
</mgrwt>
</event>
<event>
 4    1  0.7841599E+004  0.2350539E+02  0.7546771E-02  0.1683447E+00
         21   -1    0    0  501  502  0.00000000000E+00  0.00000000000E+00  0.62491317874E+01  0.62491317874E+01  0.00000000000E+00 0.  1.
         21   -1    0    0  502  503 -0.00000000000E+00 -0.00000000000E+00 -0.88483524328E+02  0.88483524328E+02  0.00000000000E+00 0.  1.
          3    1    1    2  501    0 -0.20853493498E+02  0.10845966102E+02 -0.42456428536E+02  0.48528872805E+02  0.00000000000E+00 0. -1.
         -3    1    1    2    0  503  0.20853493498E+02 -0.10845966102E+02 -0.39777964005E+02  0.46203783310E+02  0.00000000000E+00 0.  1.
<mgrwt>
<rscale>  2 0.23505386E+02</rscale>
<asrwt>0</asrwt>
<pdfrwt beam="1">  1       21 0.96140493E-03 0.23505386E+02</pdfrwt>
<pdfrwt beam="2">  1       21 0.13612849E-01 0.23505386E+02</pdfrwt>
<totfact> 0.12726067E+08</totfact>
</mgrwt>
</event>
<event>
 4    1  0.7841599E+004  0.2857751E+02  0.7546771E-02  0.1614366E+00
         21   -1    0    0  501  502  0.00000000000E+00  0.00000000000E+00  0.90798759244E+00  0.90798759244E+00  0.00000000000E+00 0.  1.
         21   -1    0    0  502  503 -0.00000000000E+00 -0.00000000000E+00 -0.95192441209E+03  0.95192441209E+03  0.00000000000E+00 0.  1.
          1    1    1    2  501    0  0.64351183599E+01  0.27843548747E+02 -0.36363409023E+03  0.36475529541E+03  0.00000000000E+00 0. -1.
         -1    1    1    2    0  503 -0.64351183599E+01 -0.27843548747E+02 -0.58738233427E+03  0.58807710427E+03  0.00000000000E+00 0.  1.
<mgrwt>
<rscale>  2 0.28577508E+02</rscale>
<asrwt>0</asrwt>
<pdfrwt beam="1">  1       21 0.13968992E-03 0.28577508E+02</pdfrwt>
<pdfrwt beam="2">  1       21 0.14645041E+00 0.28577508E+02</pdfrwt>
<totfact> 0.21472461E+07</totfact>
</mgrwt>
</event>
<event>
 4    1  0.7841599E+004  0.2680266E+02  0.7546771E-02  0.1636383E+00
         21   -1    0    0  501  502  0.00000000000E+00  0.00000000000E+00  0.10677849107E+04  0.10677849107E+04  0.00000000000E+00 0.  1.
         21   -1    0    0  502  503 -0.00000000000E+00 -0.00000000000E+00 -0.87624990480E+00  0.87624990480E+00  0.00000000000E+00 0.  1.
          2    1    1    2  501    0 -0.18750774316E+02  0.19151790416E+02  0.79093690723E+03  0.79139091088E+03  0.00000000000E+00 0. -1.
         -2    1    1    2    0  503  0.18750774316E+02 -0.19151790416E+02  0.27597175358E+03  0.27727024974E+03  0.00000000000E+00 0.  1.
<mgrwt>
<rscale>  2 0.26802661E+02</rscale>
<asrwt>0</asrwt>
<pdfrwt beam="1">  1       21 0.16427356E+00 0.26802661E+02</pdfrwt>
<pdfrwt beam="2">  1       21 0.13480853E-03 0.26802661E+02</pdfrwt>
<totfact> 0.16963945E+07</totfact>
</mgrwt>
</event>
<event>
 4    1  0.7841599E+004  0.2401959E+02  0.7546771E-02  0.1675497E+00
         21   -1    0    0  501  502  0.00000000000E+00  0.00000000000E+00  0.14090534174E+03  0.14090534174E+03  0.00000000000E+00 0. -1.
         21   -1    0    0  502  503 -0.00000000000E+00 -0.00000000000E+00 -0.88243366491E+01  0.88243366491E+01  0.00000000000E+00 0. -1.
          5    1    1    2  501    0 -0.10851709870E+02 -0.21428516504E+02  0.11230650695E+02  0.26515437799E+02  0.00000000000E+00 0. -1.
         -5    1    1    2    0  503  0.10851709870E+02  0.21428516504E+02  0.12085035439E+03  0.12321424059E+03  0.00000000000E+00 0.  1.
<mgrwt>
<rscale>  2 0.24019595E+02</rscale>
<asrwt>0</asrwt>
<pdfrwt beam="1">  1       21 0.21677743E-01 0.24019595E+02</pdfrwt>
<pdfrwt beam="2">  1       21 0.13575904E-02 0.24019595E+02</pdfrwt>
<totfact> 0.34074812E+07</totfact>
</mgrwt>
</event>
<event>
 4    1  0.7841599E+004  0.2352236E+02  0.7546771E-02  0.1683180E+00
         21   -1    0    0  503  502  0.00000000000E+00  0.00000000000E+00  0.45640887034E+02  0.45640887034E+02  0.00000000000E+00 0.  1.
         21   -1    0    0  501  503 -0.00000000000E+00 -0.00000000000E+00 -0.13706558154E+02  0.13706558154E+02  0.00000000000E+00 0.  1.
          5    1    1    2  501    0 -0.18570589437E+02  0.14437258699E+02  0.26053527038E+02  0.35101103998E+02  0.00000000000E+00 0. -1.
         -5    1    1    2    0  502  0.18570589437E+02 -0.14437258699E+02  0.58808018430E+01  0.24246341190E+02  0.00000000000E+00 0.  1.
<mgrwt>
<rscale>  2 0.23522356E+02</rscale>
<asrwt>0</asrwt>
<pdfrwt beam="1">  1       21 0.70216748E-02 0.23522356E+02</pdfrwt>
<pdfrwt beam="2">  1       21 0.21087013E-02 0.23522356E+02</pdfrwt>
<totfact> 0.11539684E+08</totfact>
</mgrwt>
</event>
<event>
 4    1  0.7841599E+004  0.3839954E+02  0.7546771E-02  0.1520331E+00
         21   -1    0    0  501  502  0.00000000000E+00  0.00000000000E+00  0.13220468309E+03  0.13220468309E+03  0.00000000000E+00 0.  1.
         21   -1    0    0  502  503 -0.00000000000E+00 -0.00000000000E+00 -0.11463026194E+02  0.11463026194E+02  0.00000000000E+00 0.  1.
          3    1    1    2  501    0 -0.28514380623E+02 -0.25718768295E+02  0.48563972257E+02  0.61911100348E+02  0.00000000000E+00 0.  1.
         -3    1    1    2    0  503  0.28514380623E+02  0.25718768295E+02  0.72177684638E+02  0.81756608936E+02  0.00000000000E+00 0. -1.
<mgrwt>
<rscale>  2 0.38399544E+02</rscale>
<asrwt>0</asrwt>
<pdfrwt beam="1">  1       21 0.20339181E-01 0.38399544E+02</pdfrwt>
<pdfrwt beam="2">  1       21 0.17635426E-02 0.38399544E+02</pdfrwt>
<totfact> 0.28006628E+07</totfact>
</mgrwt>
</event>
<event>
 4    1  0.7841599E+004  0.2263484E+02  0.7546771E-02  0.1697498E+00
         21   -1    0    0  503  502  0.00000000000E+00  0.00000000000E+00  0.65647022047E+01  0.65647022047E+01  0.00000000000E+00 0. -1.
         21   -1    0    0  501  503 -0.00000000000E+00 -0.00000000000E+00 -0.85757284750E+02  0.85757284750E+02  0.00000000000E+00 0. -1.
          2    1    1    2  501    0 -0.16411751531E+02 -0.15588154949E+02 -0.53440144452E+02  0.58036068114E+02  0.00000000000E+00 0.  1.
         -2    1    1    2    0  502  0.16411751531E+02  0.15588154949E+02 -0.25752438093E+02  0.34285918841E+02  0.00000000000E+00 0. -1.
<mgrwt>
<rscale>  2 0.22634844E+02</rscale>
<asrwt>0</asrwt>
<pdfrwt beam="1">  1       21 0.10099543E-02 0.22634844E+02</pdfrwt>
<pdfrwt beam="2">  1       21 0.13193427E-01 0.22634844E+02</pdfrwt>
<totfact> 0.12324448E+08</totfact>
</mgrwt>
</event>
<event>
 4    1  0.7841599E+004  0.2565812E+02  0.7546771E-02  0.1651725E+00
         21   -1    0    0  501  502  0.00000000000E+00  0.00000000000E+00  0.43697828293E+03  0.43697828293E+03  0.00000000000E+00 0. -1.
         21   -1    0    0  502  503 -0.00000000000E+00 -0.00000000000E+00 -0.15624444046E+01  0.15624444046E+01  0.00000000000E+00 0. -1.
          4    1    1    2  501    0  0.85808805328E+01  0.24180730287E+02  0.17624341385E+03  0.17810131991E+03  0.00000000000E+00 0. -1.
         -4    1    1    2    0  503 -0.85808805328E+01 -0.24180730287E+02  0.25917242468E+03  0.26043940743E+03  0.00000000000E+00 0.  1.
<mgrwt>
<rscale>  2 0.25658122E+02</rscale>
<asrwt>0</asrwt>
<pdfrwt beam="1">  1       21 0.67227331E-01 0.25658122E+02</pdfrwt>
<pdfrwt beam="2">  1       21 0.24037641E-03 0.25658122E+02</pdfrwt>
<totfact> 0.53378508E+07</totfact>
</mgrwt>
</event>
<event>
 4    1  0.7841599E+004  0.2318744E+02  0.7546771E-02  0.1688490E+00
         21   -1    0    0  501  502  0.00000000000E+00  0.00000000000E+00  0.15718342779E+03  0.15718342779E+03  0.00000000000E+00 0. -1.
         21   -1    0    0  502  503 -0.00000000000E+00 -0.00000000000E+00 -0.35207795270E+01  0.35207795270E+01  0.00000000000E+00 0. -1.
          4    1    1    2  501    0 -0.19347789765E+02 -0.12779686955E+02  0.90387154961E+02  0.93313960099E+02  0.00000000000E+00 0.  1.
         -4    1    1    2    0  503  0.19347789765E+02  0.12779686955E+02  0.63275493299E+02  0.67390247214E+02  0.00000000000E+00 0. -1.
<mgrwt>
<rscale>  2 0.23187440E+02</rscale>
<asrwt>0</asrwt>
<pdfrwt beam="1">  1       21 0.24182060E-01 0.23187440E+02</pdfrwt>
<pdfrwt beam="2">  1       21 0.54165851E-03 0.23187440E+02</pdfrwt>
<totfact> 0.11014844E+08</totfact>
</mgrwt>
</event>
<event>
 4    1  0.7841599E+004  0.2147573E+02  0.7546771E-02  0.1717480E+00
         21   -1    0    0  501  502  0.00000000000E+00  0.00000000000E+00  0.13493103493E+04  0.13493103493E+04  0.00000000000E+00 0.  1.
         21   -1    0    0  502  503 -0.00000000000E+00 -0.00000000000E+00 -0.34193981451E+00  0.34193981451E+00  0.00000000000E+00 0.  1.
          1    1    1    2  501    0  0.15971638138E+02 -0.14356668463E+02  0.68765589236E+03  0.68799115798E+03  0.00000000000E+00 0. -1.
         -1    1    1    2    0  503 -0.15971638138E+02  0.14356668463E+02  0.66131251715E+03  0.66166113116E+03  0.00000000000E+00 0.  1.
<mgrwt>
<rscale>  2 0.21475734E+02</rscale>
<asrwt>0</asrwt>
<pdfrwt beam="1">  1       21 0.20758194E+00 0.21475734E+02</pdfrwt>
<pdfrwt beam="2">  1       21 0.52607206E-04 0.21475734E+02</pdfrwt>
<totfact> 0.34678972E+07</totfact>
</mgrwt>
</event>
<event>
 4    1  0.7841599E+004  0.2122030E+02  0.7546771E-02  0.1722096E+00
         21   -1    0    0  503  502  0.00000000000E+00  0.00000000000E+00  0.21664605687E+01  0.21664605687E+01  0.00000000000E+00 0. -1.
         21   -1    0    0  501  503 -0.00000000000E+00 -0.00000000000E+00 -0.20859954650E+03  0.20859954650E+03  0.00000000000E+00 0. -1.
          5    1    1    2  501    0 -0.21196632269E+02  0.10018638019E+01 -0.96903637046E+02  0.99199878142E+02  0.00000000000E+00 0.  1.
         -5    1    1    2    0  502  0.21196632269E+02 -0.10018638019E+01 -0.10952944888E+03  0.11156612892E+03  0.00000000000E+00 0. -1.
<mgrwt>
<rscale>  2 0.21220296E+02</rscale>
<asrwt>0</asrwt>
<pdfrwt beam="1">  1       21 0.33330164E-03 0.21220296E+02</pdfrwt>
<pdfrwt beam="2">  1       21 0.32092236E-01 0.21220296E+02</pdfrwt>
<totfact> 0.13159473E+08</totfact>
</mgrwt>
</event>
<event>
 4    1  0.7841599E+004  0.2540429E+02  0.7546771E-02  0.1655262E+00
         21   -1    0    0  503  502  0.00000000000E+00  0.00000000000E+00  0.14930274582E+02  0.14930274582E+02  0.00000000000E+00 0.  1.
         21   -1    0    0  501  503 -0.00000000000E+00 -0.00000000000E+00 -0.49499640435E+02  0.49499640435E+02  0.00000000000E+00 0.  1.
          3    1    1    2  501    0  0.83540732431E+01  0.23991398418E+02 -0.58160292656E+01  0.26061541287E+02  0.00000000000E+00 0.  1.
         -3    1    1    2    0  502 -0.83540732431E+01 -0.23991398418E+02 -0.28753336588E+02  0.38368373731E+02  0.00000000000E+00 0. -1.
<mgrwt>
<rscale>  2 0.25404286E+02</rscale>
<asrwt>0</asrwt>
<pdfrwt beam="1">  1       21 0.22969653E-02 0.25404286E+02</pdfrwt>
<pdfrwt beam="2">  1       21 0.76153293E-02 0.25404286E+02</pdfrwt>
<totfact> 0.90518128E+07</totfact>
</mgrwt>
</event>
<event>
 4    1  0.7841599E+004  0.2052610E+02  0.7546771E-02  0.1735064E+00
         21   -1    0    0  501  502  0.00000000000E+00  0.00000000000E+00  0.72555125194E+01  0.72555125194E+01  0.00000000000E+00 0.  1.
         21   -1    0    0  502  503 -0.00000000000E+00 -0.00000000000E+00 -0.74182767493E+02  0.74182767493E+02  0.00000000000E+00 0.  1.
          3    1    1    2  501    0  0.57399895292E+01 -0.19707192069E+02 -0.52441373070E+02  0.56315348783E+02  0.00000000000E+00 0.  1.
         -3    1    1    2    0  503 -0.57399895292E+01  0.19707192069E+02 -0.14485881904E+02  0.25122931230E+02  0.00000000000E+00 0. -1.
<mgrwt>
<rscale>  2 0.20526103E+02</rscale>
<asrwt>0</asrwt>
<pdfrwt beam="1">  1       21 0.11162328E-02 0.20526103E+02</pdfrwt>
<pdfrwt beam="2">  1       21 0.11412733E-01 0.20526103E+02</pdfrwt>
<totfact> 0.13130953E+08</totfact>
</mgrwt>
</event>
<event>
 4    1  0.7841599E+004  0.2549443E+02  0.7546771E-02  0.1654000E+00
         21   -1    0    0  501  502  0.00000000000E+00  0.00000000000E+00  0.28106659238E+02  0.28106659238E+02  0.00000000000E+00 0. -1.
         21   -1    0    0  502  503 -0.00000000000E+00 -0.00000000000E+00 -0.24469443829E+02  0.24469443829E+02  0.00000000000E+00 0. -1.
          3    1    1    2  501    0 -0.21675817302E+02  0.13421053759E+02  0.79806123143E+01  0.26714339082E+02  0.00000000000E+00 0. -1.
         -3    1    1    2    0  503  0.21675817302E+02 -0.13421053759E+02 -0.43433969057E+01  0.25861763984E+02  0.00000000000E+00 0.  1.
<mgrwt>
<rscale>  2 0.25494426E+02</rscale>
<asrwt>0</asrwt>
<pdfrwt beam="1">  1       21 0.43241014E-02 0.25494426E+02</pdfrwt>
<pdfrwt beam="2">  1       21 0.37645298E-02 0.25494426E+02</pdfrwt>
<totfact> 0.10413494E+08</totfact>
</mgrwt>
</event>
<event>
 4    1  0.7841599E+004  0.3721789E+02  0.7546771E-02  0.1529743E+00
         21   -1    0    0  503  502  0.00000000000E+00  0.00000000000E+00  0.56195638412E+03  0.56195638412E+03  0.00000000000E+00 0.  1.
         21   -1    0    0  501  503 -0.00000000000E+00 -0.00000000000E+00 -0.27324769951E+01  0.27324769951E+01  0.00000000000E+00 0.  1.
          3    1    1    2  501    0  0.36755254941E+02  0.58499878569E+01  0.36796435854E+03  0.36984177735E+03  0.00000000000E+00 0.  1.
         -3    1    1    2    0  502 -0.36755254941E+02 -0.58499878569E+01  0.19125954859E+03  0.19484708376E+03  0.00000000000E+00 0. -1.
<mgrwt>
<rscale>  2 0.37217887E+02</rscale>
<asrwt>0</asrwt>
<pdfrwt beam="1">  1       21 0.86454737E-01 0.37217887E+02</pdfrwt>
<pdfrwt beam="2">  1       21 0.42038152E-03 0.37217887E+02</pdfrwt>
<totfact> 0.14709779E+07</totfact>
</mgrwt>
</event>
<event>
 4    1  0.7841599E+004  0.2760801E+02  0.7546771E-02  0.1626141E+00
         21   -1    0    0  503  502  0.00000000000E+00  0.00000000000E+00  0.38514564967E+01  0.38514564967E+01  0.00000000000E+00 0.  1.
         21   -1    0    0  501  503 -0.00000000000E+00 -0.00000000000E+00 -0.38359280068E+03  0.38359280068E+03  0.00000000000E+00 0.  1.
          2    1    1    2  501    0  0.13432079135E+02 -0.24120141169E+02 -0.55085557990E+02  0.61616723857E+02  0.00000000000E+00 0.  1.
         -2    1    1    2    0  502 -0.13432079135E+02  0.24120141169E+02 -0.32465578619E+03  0.32582753332E+03  0.00000000000E+00 0. -1.
<mgrwt>
<rscale>  2 0.27608005E+02</rscale>
<asrwt>0</asrwt>
<pdfrwt beam="1">  1       21 0.59253180E-03 0.27608005E+02</pdfrwt>
<pdfrwt beam="2">  1       21 0.59014273E-01 0.27608005E+02</pdfrwt>
<totfact> 0.18686672E+07</totfact>
</mgrwt>
</event>
<event>
 4    1  0.7841599E+004  0.2008466E+02  0.7546771E-02  0.1743650E+00
         21   -1    0    0  501  502  0.00000000000E+00  0.00000000000E+00  0.81200975212E+02  0.81200975212E+02  0.00000000000E+00 0. -1.
         21   -1    0    0  502  503 -0.00000000000E+00 -0.00000000000E+00 -0.50763531233E+01  0.50763531233E+01  0.00000000000E+00 0. -1.
          2    1    1    2  501    0  0.18641735947E+02  0.74752359011E+01  0.44369436412E+02  0.48703596976E+02  0.00000000000E+00 0.  1.
         -2    1    1    2    0  503 -0.18641735947E+02 -0.74752359011E+01  0.31755185677E+02  0.37573731359E+02  0.00000000000E+00 0. -1.
<mgrwt>
<rscale>  2 0.20084658E+02</rscale>
<asrwt>0</asrwt>
<pdfrwt beam="1">  1       21 0.12492457E-01 0.20084658E+02</pdfrwt>
<pdfrwt beam="2">  1       21 0.78097746E-03 0.20084658E+02</pdfrwt>
<totfact> 0.19118666E+08</totfact>
</mgrwt>
</event>
<event>
 4    1  0.7841599E+004  0.2236217E+02  0.7546771E-02  0.1702063E+00
         21   -1    0    0  501  502  0.00000000000E+00  0.00000000000E+00  0.15078075959E+01  0.15078075959E+01  0.00000000000E+00 0.  1.
         21   -1    0    0  502  503 -0.00000000000E+00 -0.00000000000E+00 -0.33384748041E+03  0.33384748041E+03  0.00000000000E+00 0.  1.
          4    1    1    2  501    0 -0.12759346210E+02 -0.18364795328E+02 -0.17976915550E+03  0.18115467394E+03  0.00000000000E+00 0. -1.
         -4    1    1    2    0  503  0.12759346210E+02  0.18364795328E+02 -0.15257051732E+03  0.15420061407E+03  0.00000000000E+00 0.  1.
<mgrwt>
<rscale>  2 0.22362169E+02</rscale>
<asrwt>0</asrwt>
<pdfrwt beam="1">  1       21 0.23197070E-03 0.22362169E+02</pdfrwt>
<pdfrwt beam="2">  1       21 0.51361085E-01 0.22362169E+02</pdfrwt>
<totfact> 0.93114818E+07</totfact>
</mgrwt>
</event>
<event>
 4    1  0.7841599E+004  0.2397313E+02  0.7546771E-02  0.1676205E+00
         21   -1    0    0  503  502  0.00000000000E+00  0.00000000000E+00  0.71761324040E+02  0.71761324040E+02  0.00000000000E+00 0. -1.
         21   -1    0    0  501  503 -0.00000000000E+00 -0.00000000000E+00 -0.14861987169E+02  0.14861987169E+02  0.00000000000E+00 0. -1.
          2    1    1    2  501    0 -0.23937317690E+02 -0.13097896291E+01 -0.96186436794E+00  0.23992413595E+02  0.00000000000E+00 0.  1.
         -2    1    1    2    0  502  0.23937317690E+02  0.13097896291E+01  0.57861201239E+02  0.62630897614E+02  0.00000000000E+00 0. -1.
<mgrwt>
<rscale>  2 0.23973125E+02</rscale>
<asrwt>0</asrwt>
<pdfrwt beam="1">  1       21 0.11040203E-01 0.23973125E+02</pdfrwt>
<pdfrwt beam="2">  1       21 0.22864596E-02 0.23973125E+02</pdfrwt>
<totfact> 0.48668022E+07</totfact>
</mgrwt>
</event>
<event>
 4    1  0.7841599E+004  0.2874580E+02  0.7546771E-02  0.1612381E+00
         21   -1    0    0  501  502  0.00000000000E+00  0.00000000000E+00  0.29125735676E+02  0.29125735676E+02  0.00000000000E+00 0. -1.
         21   -1    0    0  502  503 -0.00000000000E+00 -0.00000000000E+00 -0.29269444234E+02  0.29269444234E+02  0.00000000000E+00 0. -1.
          2    1    1    2  501    0 -0.13138348354E+02 -0.25567647025E+02  0.50441483385E+01  0.29184999646E+02  0.00000000000E+00 0. -1.
         -2    1    1    2    0  503  0.13138348354E+02  0.25567647025E+02 -0.51878568970E+01  0.29210180264E+02  0.00000000000E+00 0.  1.
<mgrwt>
<rscale>  2 0.28745796E+02</rscale>
<asrwt>0</asrwt>
<pdfrwt beam="1">  1       21 0.44808824E-02 0.28745796E+02</pdfrwt>
<pdfrwt beam="2">  1       21 0.45029914E-02 0.28745796E+02</pdfrwt>
<totfact> 0.76369680E+07</totfact>
</mgrwt>
</event>
<event>
 4    1  0.7841599E+004  0.3390992E+02  0.7546771E-02  0.1558499E+00
         21   -1    0    0  501  502  0.00000000000E+00  0.00000000000E+00  0.41517878906E+02  0.41517878906E+02  0.00000000000E+00 0. -1.
         21   -1    0    0  502  503 -0.00000000000E+00 -0.00000000000E+00 -0.28294186499E+02  0.28294186499E+02  0.00000000000E+00 0. -1.
          5    1    1    2  501    0  0.53590641647E+00 -0.33905685579E+02  0.11686883853E+02  0.35867338408E+02  0.00000000000E+00 0. -1.
         -5    1    1    2    0  503 -0.53590641647E+00  0.33905685579E+02  0.15368085546E+01  0.33944726996E+02  0.00000000000E+00 0.  1.
<mgrwt>
<rscale>  2 0.33909921E+02</rscale>
<asrwt>0</asrwt>
<pdfrwt beam="1">  1       21 0.63873660E-02 0.33909921E+02</pdfrwt>
<pdfrwt beam="2">  1       21 0.43529518E-02 0.33909921E+02</pdfrwt>
<totfact> 0.47183246E+07</totfact>
</mgrwt>
</event>
<event>
 4    1  0.7841599E+004  0.2505049E+02  0.7546771E-02  0.1660278E+00
         21   -1    0    0  501  502  0.00000000000E+00  0.00000000000E+00  0.21377518554E+02  0.21377518554E+02  0.00000000000E+00 0. -1.
         21   -1    0    0  502  503 -0.00000000000E+00 -0.00000000000E+00 -0.32703723092E+02  0.32703723092E+02  0.00000000000E+00 0. -1.
          4    1    1    2  501    0 -0.22603228628E+02 -0.10799128612E+02 -0.14316522789E+02  0.28852901898E+02  0.00000000000E+00 0. -1.
         -4    1    1    2    0  503  0.22603228628E+02  0.10799128612E+02  0.29903182508E+01  0.25228339748E+02  0.00000000000E+00 0.  1.
<mgrwt>
<rscale>  2 0.25050491E+02</rscale>
<asrwt>0</asrwt>
<pdfrwt beam="1">  1       21 0.32888490E-02 0.25050491E+02</pdfrwt>
<pdfrwt beam="2">  1       21 0.50313420E-02 0.25050491E+02</pdfrwt>
<totfact> 0.10070756E+08</totfact>
</mgrwt>
</event>
<event>
 4    1  0.7841599E+004  0.3614272E+02  0.7546771E-02  0.1538681E+00
         21   -1    0    0  503  502  0.00000000000E+00  0.00000000000E+00  0.47237842094E+01  0.47237842094E+01  0.00000000000E+00 0.  1.
         21   -1    0    0  501  503 -0.00000000000E+00 -0.00000000000E+00 -0.38521551999E+03  0.38521551999E+03  0.00000000000E+00 0.  1.
          1    1    1    2  501    0  0.32413203044E+02 -0.15990003992E+02 -0.86686553457E+02  0.93919404329E+02  0.00000000000E+00 0. -1.
         -1    1    1    2    0  502 -0.32413203044E+02  0.15990003992E+02 -0.29380518233E+03  0.29601989987E+03  0.00000000000E+00 0.  1.
<mgrwt>
<rscale>  2 0.36142717E+02</rscale>
<asrwt>0</asrwt>
<pdfrwt beam="1">  1       21 0.72673611E-03 0.36142717E+02</pdfrwt>
<pdfrwt beam="2">  1       21 0.59263920E-01 0.36142717E+02</pdfrwt>
<totfact> 0.14236747E+07</totfact>
</mgrwt>
</event>
<event>
 4    1  0.7841599E+004  0.3288239E+02  0.7546771E-02  0.1568252E+00
         21   -1    0    0  503  502  0.00000000000E+00  0.00000000000E+00  0.31011714191E+02  0.31011714191E+02  0.00000000000E+00 0.  1.
         21   -1    0    0  501  503 -0.00000000000E+00 -0.00000000000E+00 -0.34869921372E+02  0.34869921372E+02  0.00000000000E+00 0.  1.
          2    1    1    2  501    0 -0.24826221723E+01  0.32788532292E+02 -0.15752645004E+01  0.32920096005E+02  0.00000000000E+00 0.  1.
         -2    1    1    2    0  502  0.24826221723E+01 -0.32788532292E+02 -0.22829426805E+01  0.32961539558E+02  0.00000000000E+00 0. -1.
<mgrwt>
<rscale>  2 0.32882385E+02</rscale>
<asrwt>0</asrwt>
<pdfrwt beam="1">  1       21 0.47710330E-02 0.32882385E+02</pdfrwt>
<pdfrwt beam="2">  1       21 0.53646033E-02 0.32882385E+02</pdfrwt>
<totfact> 0.53731227E+07</totfact>
</mgrwt>
</event>
<event>
 4    1  0.7841599E+004  0.2224084E+02  0.7546771E-02  0.1704120E+00
         21   -1    0    0  503  502  0.00000000000E+00  0.00000000000E+00  0.10750770755E+03  0.10750770755E+03  0.00000000000E+00 0. -1.
         21   -1    0    0  501  503 -0.00000000000E+00 -0.00000000000E+00 -0.48982213191E+01  0.48982213191E+01  0.00000000000E+00 0. -1.
          1    1    1    2  501    0 -0.19662585732E+02 -0.10394128085E+02  0.65146683740E+02  0.68838547185E+02  0.00000000000E+00 0. -1.
         -1    1    1    2    0  502  0.19662585732E+02  0.10394128085E+02  0.37462802493E+02  0.43567381685E+02  0.00000000000E+00 0.  1.
<mgrwt>
<rscale>  2 0.22240845E+02</rscale>
<asrwt>0</asrwt>
<pdfrwt beam="1">  1       21 0.16539646E-01 0.22240845E+02</pdfrwt>
<pdfrwt beam="2">  1       21 0.75357259E-03 0.22240845E+02</pdfrwt>
<totfact> 0.12938855E+08</totfact>
</mgrwt>
</event>
<event>
 4    1  0.7841599E+004  0.2195208E+02  0.7546771E-02  0.1709082E+00
         21   -1    0    0  501  502  0.00000000000E+00  0.00000000000E+00  0.70848785884E+01  0.70848785884E+01  0.00000000000E+00 0.  1.
         21   -1    0    0  502  503 -0.00000000000E+00 -0.00000000000E+00 -0.95404935437E+02  0.95404935437E+02  0.00000000000E+00 0.  1.
          4    1    1    2  501    0  0.47976731761E+01 -0.21421399439E+02 -0.71616383506E+02  0.74905276238E+02  0.00000000000E+00 0. -1.
         -4    1    1    2    0  503 -0.47976731761E+01  0.21421399439E+02 -0.16703673343E+02  0.27584537788E+02  0.00000000000E+00 0.  1.
<mgrwt>
<rscale>  2 0.21952085E+02</rscale>
<asrwt>0</asrwt>
<pdfrwt beam="1">  1       21 0.10899813E-02 0.21952085E+02</pdfrwt>
<pdfrwt beam="2">  1       21 0.14677682E-01 0.21952085E+02</pdfrwt>
<totfact> 0.90978826E+07</totfact>
</mgrwt>
</event>
<event>
 4    1  0.7841599E+004  0.2242684E+02  0.7546771E-02  0.1700973E+00
         21   -1    0    0  503  502  0.00000000000E+00  0.00000000000E+00  0.46522369906E+02  0.46522369906E+02  0.00000000000E+00 0. -1.
         21   -1    0    0  501  503 -0.00000000000E+00 -0.00000000000E+00 -0.11629597020E+02  0.11629597020E+02  0.00000000000E+00 0. -1.
          5    1    1    2  501    0  0.18685676548E+02 -0.12401953625E+02  0.97332272273E+01  0.24447876677E+02  0.00000000000E+00 0. -1.
         -5    1    1    2    0  502 -0.18685676548E+02  0.12401953625E+02  0.25159545659E+02  0.33704090249E+02  0.00000000000E+00 0.  1.
<mgrwt>
<rscale>  2 0.22426836E+02</rscale>
<asrwt>0</asrwt>
<pdfrwt beam="1">  1       21 0.71572876E-02 0.22426836E+02</pdfrwt>
<pdfrwt beam="2">  1       21 0.17891688E-02 0.22426836E+02</pdfrwt>
<totfact> 0.14189527E+08</totfact>
</mgrwt>
</event>
<event>
 4    1  0.7841599E+004  0.2177655E+02  0.7546771E-02  0.1712145E+00
         21   -1    0    0  501  502  0.00000000000E+00  0.00000000000E+00  0.38264423941E+02  0.38264423941E+02  0.00000000000E+00 0. -1.
         21   -1    0    0  502  503 -0.00000000000E+00 -0.00000000000E+00 -0.14226110991E+02  0.14226110991E+02  0.00000000000E+00 0. -1.
          1    1    1    2  501    0 -0.18436606176E+02  0.11589214177E+02  0.21439779045E+02  0.30559490474E+02  0.00000000000E+00 0. -1.
         -1    1    1    2    0  503  0.18436606176E+02 -0.11589214177E+02  0.25985339047E+01  0.21931044457E+02  0.00000000000E+00 0.  1.
<mgrwt>
<rscale>  2 0.21776555E+02</rscale>
<asrwt>0</asrwt>
<pdfrwt beam="1">  1       21 0.58868344E-02 0.21776555E+02</pdfrwt>
<pdfrwt beam="2">  1       21 0.21886325E-02 0.21776555E+02</pdfrwt>
<totfact> 0.14148767E+08</totfact>
</mgrwt>
</event>
<event>
 4    1  0.7841599E+004  0.2204295E+02  0.7546771E-02  0.1707510E+00
         21   -1    0    0  501  502  0.00000000000E+00  0.00000000000E+00  0.71813584897E+00  0.71813584897E+00  0.00000000000E+00 0.  1.
         21   -1    0    0  502  503 -0.00000000000E+00 -0.00000000000E+00 -0.68894692735E+03  0.68894692735E+03  0.00000000000E+00 0.  1.
          2    1    1    2  501    0 -0.10834505316E+01  0.22016307132E+02 -0.29795373345E+03  0.29876800184E+03  0.00000000000E+00 0.  1.
         -2    1    1    2    0  503  0.10834505316E+01 -0.22016307132E+02 -0.39027505805E+03  0.39089706136E+03  0.00000000000E+00 0. -1.
<mgrwt>
<rscale>  2 0.22042950E+02</rscale>
<asrwt>0</asrwt>
<pdfrwt beam="1">  1       21 0.11048341E-03 0.22042950E+02</pdfrwt>
<pdfrwt beam="2">  1       21 0.10599090E+00 0.22042950E+02</pdfrwt>
<totfact> 0.60087581E+07</totfact>
</mgrwt>
</event>
<event>
 4    1  0.7841599E+004  0.2147199E+02  0.7546771E-02  0.1717547E+00
         21   -1    0    0  503  502  0.00000000000E+00  0.00000000000E+00  0.41480653224E+01  0.41480653224E+01  0.00000000000E+00 0.  1.
         21   -1    0    0  501  503 -0.00000000000E+00 -0.00000000000E+00 -0.12468773247E+03  0.12468773247E+03  0.00000000000E+00 0.  1.
          2    1    1    2  501    0  0.24164663044E+01  0.21335585743E+02 -0.81497874939E+02  0.84279001821E+02  0.00000000000E+00 0.  1.
         -2    1    1    2    0  502 -0.24164663044E+01 -0.21335585743E+02 -0.39041792211E+02  0.44556795974E+02  0.00000000000E+00 0. -1.
<mgrwt>
<rscale>  2 0.21471994E+02</rscale>
<asrwt>0</asrwt>
<pdfrwt beam="1">  1       21 0.63816400E-03 0.21471994E+02</pdfrwt>
<pdfrwt beam="2">  1       21 0.19182725E-01 0.21471994E+02</pdfrwt>
<totfact> 0.12696975E+08</totfact>
</mgrwt>
</event>
<event>
 4    1  0.7841599E+004  0.2484173E+02  0.7546771E-02  0.1663286E+00
         21   -1    0    0  501  502  0.00000000000E+00  0.00000000000E+00  0.29714456197E+01  0.29714456197E+01  0.00000000000E+00 0.  1.
         21   -1    0    0  502  503 -0.00000000000E+00 -0.00000000000E+00 -0.26766078919E+03  0.26766078919E+03  0.00000000000E+00 0.  1.
          4    1    1    2  501    0  0.86591851063E+01  0.23283685463E+02 -0.19640087678E+03  0.19796569373E+03  0.00000000000E+00 0.  1.
         -4    1    1    2    0  503 -0.86591851063E+01 -0.23283685463E+02 -0.68288466795E+02  0.72666541081E+02  0.00000000000E+00 0. -1.
<mgrwt>
<rscale>  2 0.24841729E+02</rscale>
<asrwt>0</asrwt>
<pdfrwt beam="1">  1       21 0.45714562E-03 0.24841729E+02</pdfrwt>
<pdfrwt beam="2">  1       21 0.41178571E-01 0.24841729E+02</pdfrwt>
<totfact> 0.54237421E+07</totfact>
</mgrwt>
</event>
<event>
 4    1  0.7841599E+004  0.4094909E+02  0.7546771E-02  0.1501341E+00
         21   -1    0    0  501  502  0.00000000000E+00  0.00000000000E+00  0.64708579324E+02  0.64708579324E+02  0.00000000000E+00 0.  1.
         21   -1    0    0  502  503 -0.00000000000E+00 -0.00000000000E+00 -0.26176900400E+02  0.26176900400E+02  0.00000000000E+00 0.  1.
          1    1    1    2  501    0 -0.70574045923E+01  0.40336346314E+02  0.14707697622E+02  0.43510276520E+02  0.00000000000E+00 0. -1.
         -1    1    1    2    0  503  0.70574045923E+01 -0.40336346314E+02  0.23823981302E+02  0.47375203204E+02  0.00000000000E+00 0.  1.
<mgrwt>
<rscale>  2 0.40949088E+02</rscale>
<asrwt>0</asrwt>
<pdfrwt beam="1">  1       21 0.99551660E-02 0.40949088E+02</pdfrwt>
<pdfrwt beam="2">  1       21 0.40272155E-02 0.40949088E+02</pdfrwt>
<totfact> 0.26488413E+07</totfact>
</mgrwt>
</event>
<event>
 4    1  0.7841599E+004  0.2015005E+02  0.7546771E-02  0.1742361E+00
         21   -1    0    0  503  502  0.00000000000E+00  0.00000000000E+00  0.19898414166E+03  0.19898414166E+03  0.00000000000E+00 0.  1.
         21   -1    0    0  501  503 -0.00000000000E+00 -0.00000000000E+00 -0.21350555239E+01  0.21350555239E+01  0.00000000000E+00 0.  1.
          5    1    1    2  501    0 -0.18300555400E+02 -0.84329178800E+01  0.11958834366E+03  0.12127405482E+03  0.00000000000E+00 0.  1.
         -5    1    1    2    0  502  0.18300555400E+02  0.84329178800E+01  0.77260742468E+02  0.79845142361E+02  0.00000000000E+00 0. -1.
<mgrwt>
<rscale>  2 0.20150048E+02</rscale>
<asrwt>0</asrwt>
<pdfrwt beam="1">  1       21 0.30612930E-01 0.20150048E+02</pdfrwt>
<pdfrwt beam="2">  1       21 0.32847024E-03 0.20150048E+02</pdfrwt>
<totfact> 0.14429190E+08</totfact>
</mgrwt>
</event>
<event>
 4    1  0.7841599E+004  0.2141591E+02  0.7546771E-02  0.1718554E+00
         21   -1    0    0  501  502  0.00000000000E+00  0.00000000000E+00  0.42861206246E+02  0.42861206246E+02  0.00000000000E+00 0. -1.
         21   -1    0    0  502  503 -0.00000000000E+00 -0.00000000000E+00 -0.11120443145E+02  0.11120443145E+02  0.00000000000E+00 0. -1.
          3    1    1    2  501    0  0.42620109425E+01  0.20987528571E+02  0.10626015725E+02  0.23907180992E+02  0.00000000000E+00 0.  1.
         -3    1    1    2    0  503 -0.42620109425E+01 -0.20987528571E+02  0.21114747376E+02  0.30074468400E+02  0.00000000000E+00 0. -1.
<mgrwt>
<rscale>  2 0.21415907E+02</rscale>
<asrwt>0</asrwt>
<pdfrwt beam="1">  1       21 0.65940316E-02 0.21415907E+02</pdfrwt>
<pdfrwt beam="2">  1       21 0.17108374E-02 0.21415907E+02</pdfrwt>
<totfact> 0.17097841E+08</totfact>
</mgrwt>
</event>
<event>
 4    1  0.7841599E+004  0.2370221E+02  0.7546771E-02  0.1680374E+00
         21   -1    0    0  501  502  0.00000000000E+00  0.00000000000E+00  0.11971311875E+03  0.11971311875E+03  0.00000000000E+00 0. -1.
         21   -1    0    0  502  503 -0.00000000000E+00 -0.00000000000E+00 -0.11977663707E+02  0.11977663707E+02  0.00000000000E+00 0. -1.
          4    1    1    2  501    0  0.18938495267E+02 -0.14252309416E+02  0.10521870852E+03  0.10785532694E+03  0.00000000000E+00 0.  1.
         -4    1    1    2    0  503 -0.18938495267E+02  0.14252309416E+02  0.25167465232E+01  0.23835455517E+02  0.00000000000E+00 0. -1.
<mgrwt>
<rscale>  2 0.23702214E+02</rscale>
<asrwt>0</asrwt>
<pdfrwt beam="1">  1       21 0.18417402E-01 0.23702214E+02</pdfrwt>
<pdfrwt beam="2">  1       21 0.18427176E-02 0.23702214E+02</pdfrwt>
<totfact> 0.28345398E+07</totfact>
</mgrwt>
</event>
<event>
 4    1  0.7841599E+004  0.2241807E+02  0.7546771E-02  0.1701120E+00
         21   -1    0    0  503  502  0.00000000000E+00  0.00000000000E+00  0.68566811735E+01  0.68566811735E+01  0.00000000000E+00 0.  1.
         21   -1    0    0  501  503 -0.00000000000E+00 -0.00000000000E+00 -0.73318764933E+02  0.73318764933E+02  0.00000000000E+00 0.  1.
          2    1    1    2  501    0 -0.22062820666E+02 -0.39751365794E+01 -0.33931823840E+02  0.40668641921E+02  0.00000000000E+00 0.  1.
         -2    1    1    2    0  502  0.22062820666E+02  0.39751365794E+01 -0.32530259920E+02  0.39506804186E+02  0.00000000000E+00 0. -1.
<mgrwt>
<rscale>  2 0.22418068E+02</rscale>
<asrwt>0</asrwt>
<pdfrwt beam="1">  1       21 0.10548741E-02 0.22418068E+02</pdfrwt>
<pdfrwt beam="2">  1       21 0.11279810E-01 0.22418068E+02</pdfrwt>
<totfact> 0.14966931E+08</totfact>
</mgrwt>
</event>
<event>
 4    1  0.7841599E+004  0.2510495E+02  0.7546771E-02  0.1659499E+00
         21   -1    0    0  503  502  0.00000000000E+00  0.00000000000E+00  0.88542446623E+02  0.88542446623E+02  0.00000000000E+00 0. -1.
         21   -1    0    0  501  503 -0.00000000000E+00 -0.00000000000E+00 -0.75435377743E+01  0.75435377743E+01  0.00000000000E+00 0. -1.
          5    1    1    2  501    0  0.69358316572E+01  0.24127840010E+02  0.29090785689E+02  0.38425671579E+02  0.00000000000E+00 0.  1.
         -5    1    1    2    0  502 -0.69358316572E+01 -0.24127840010E+02  0.51908123160E+02  0.57660312819E+02  0.00000000000E+00 0. -1.
<mgrwt>
<rscale>  2 0.25104948E+02</rscale>
<asrwt>0</asrwt>
<pdfrwt beam="1">  1       21 0.13621914E-01 0.25104948E+02</pdfrwt>
<pdfrwt beam="2">  1       21 0.11605443E-02 0.25104948E+02</pdfrwt>
<totfact> 0.97466662E+07</totfact>
</mgrwt>
</event>
<event>
 4    1  0.7841599E+004  0.4367030E+02  0.7546771E-02  0.1482818E+00
         21   -1    0    0  503  502  0.00000000000E+00  0.00000000000E+00  0.63472050788E+03  0.63472050788E+03  0.00000000000E+00 0.  1.
         21   -1    0    0  501  503 -0.00000000000E+00 -0.00000000000E+00 -0.30088772584E+01  0.30088772584E+01  0.00000000000E+00 0.  1.
          4    1    1    2  501    0 -0.33976464910E+02 -0.27435278552E+02  0.32784830499E+03  0.33074401848E+03  0.00000000000E+00 0. -1.
         -4    1    1    2    0  502  0.33976464910E+02  0.27435278552E+02  0.30386332563E+03  0.30698536665E+03  0.00000000000E+00 0.  1.
<mgrwt>
<rscale>  2 0.43670295E+02</rscale>
<asrwt>0</asrwt>
<pdfrwt beam="1">  1       21 0.97649202E-01 0.43670295E+02</pdfrwt>
<pdfrwt beam="2">  1       21 0.46290470E-03 0.43670295E+02</pdfrwt>
<totfact> 0.99261514E+06</totfact>
</mgrwt>
</event>
<event>
 4    1  0.7841599E+004  0.2534767E+02  0.7546771E-02  0.1656058E+00
         21   -1    0    0  503  502  0.00000000000E+00  0.00000000000E+00  0.14248325693E+03  0.14248325693E+03  0.00000000000E+00 0.  1.
         21   -1    0    0  501  503 -0.00000000000E+00 -0.00000000000E+00 -0.46543667976E+01  0.46543667976E+01  0.00000000000E+00 0.  1.
          2    1    1    2  501    0 -0.16927505374E+02  0.18867004790E+02  0.81901167754E+02  0.85733923201E+02  0.00000000000E+00 0.  1.
         -2    1    1    2    0  502  0.16927505374E+02 -0.18867004790E+02  0.55927722379E+02  0.61403700528E+02  0.00000000000E+00 0. -1.
<mgrwt>
<rscale>  2 0.25347669E+02</rscale>
<asrwt>0</asrwt>
<pdfrwt beam="1">  1       21 0.21920498E-01 0.25347669E+02</pdfrwt>
<pdfrwt beam="2">  1       21 0.71605654E-03 0.25347669E+02</pdfrwt>
<totfact> 0.88649743E+07</totfact>
</mgrwt>
</event>
<event>
 4    1  0.7841599E+004  0.2258912E+02  0.7546771E-02  0.1698258E+00
         21   -1    0    0  501  502  0.00000000000E+00  0.00000000000E+00  0.36317820854E+02  0.36317820854E+02  0.00000000000E+00 0. -1.
         21   -1    0    0  502  503 -0.00000000000E+00 -0.00000000000E+00 -0.15346417036E+02  0.15346417036E+02  0.00000000000E+00 0. -1.
          5    1    1    2  501    0  0.45841720725E+01 -0.22119077209E+02  0.29778472110E+01  0.22784551437E+02  0.00000000000E+00 0.  1.
         -5    1    1    2    0  503 -0.45841720725E+01  0.22119077209E+02  0.17993556607E+02  0.28879686452E+02  0.00000000000E+00 0. -1.
<mgrwt>
<rscale>  2 0.22589117E+02</rscale>
<asrwt>0</asrwt>
<pdfrwt beam="1">  1       21 0.55873570E-02 0.22589117E+02</pdfrwt>
<pdfrwt beam="2">  1       21 0.23609872E-02 0.22589117E+02</pdfrwt>
<totfact> 0.13840679E+08</totfact>
</mgrwt>
</event>
<event>
 4    1  0.7841599E+004  0.4196995E+02  0.7546771E-02  0.1494196E+00
         21   -1    0    0  501  502  0.00000000000E+00  0.00000000000E+00  0.54188400565E+02  0.54188400565E+02  0.00000000000E+00 0. -1.
         21   -1    0    0  502  503 -0.00000000000E+00 -0.00000000000E+00 -0.32810615247E+02  0.32810615247E+02  0.00000000000E+00 0. -1.
          1    1    1    2  501    0  0.32678227962E+02 -0.26336480324E+02  0.65011882593E+01  0.42470486545E+02  0.00000000000E+00 0. -1.
         -1    1    1    2    0  503 -0.32678227962E+02  0.26336480324E+02  0.14876597058E+02  0.44528529266E+02  0.00000000000E+00 0.  1.
<mgrwt>
<rscale>  2 0.41969951E+02</rscale>
<asrwt>0</asrwt>
<pdfrwt beam="1">  1       21 0.83366770E-02 0.41969951E+02</pdfrwt>
<pdfrwt beam="2">  1       21 0.50477870E-02 0.41969951E+02</pdfrwt>
<totfact> 0.24870198E+07</totfact>
</mgrwt>
</event>
<event>
 4    1  0.7841599E+004  0.3363169E+02  0.7546771E-02  0.1561098E+00
         21   -1    0    0  501  502  0.00000000000E+00  0.00000000000E+00  0.12646886112E+04  0.12646886112E+04  0.00000000000E+00 0. -1.
         21   -1    0    0  502  503 -0.00000000000E+00 -0.00000000000E+00 -0.91180422338E+00  0.91180422338E+00  0.00000000000E+00 0. -1.
          1    1    1    2  501    0  0.33517961390E+02  0.27634986029E+01  0.54436893319E+03  0.54540684455E+03  0.00000000000E+00 0. -1.
         -1    1    1    2    0  503 -0.33517961390E+02 -0.27634986029E+01  0.71940787377E+03  0.72019357086E+03  0.00000000000E+00 0.  1.
<mgrwt>
<rscale>  2 0.33631691E+02</rscale>
<asrwt>0</asrwt>
<pdfrwt beam="1">  1       21 0.19456607E+00 0.33631691E+02</pdfrwt>
<pdfrwt beam="2">  1       21 0.14027859E-03 0.33631691E+02</pdfrwt>
<totfact> 0.10701213E+07</totfact>
</mgrwt>
</event>
<event>
 4    1  0.7841599E+004  0.2389729E+02  0.7546771E-02  0.1677365E+00
         21   -1    0    0  501  502  0.00000000000E+00  0.00000000000E+00  0.68104520233E+01  0.68104520233E+01  0.00000000000E+00 0. -1.
         21   -1    0    0  502  503 -0.00000000000E+00 -0.00000000000E+00 -0.85648848489E+02  0.85648848489E+02  0.00000000000E+00 0. -1.
          2    1    1    2  501    0 -0.13126728583E+02 -0.19969207838E+02 -0.32725998917E+02  0.40522478577E+02  0.00000000000E+00 0. -1.
         -2    1    1    2    0  503  0.13126728583E+02  0.19969207838E+02 -0.46112397549E+02  0.51936821935E+02  0.00000000000E+00 0.  1.
<mgrwt>
<rscale>  2 0.23897286E+02</rscale>
<asrwt>0</asrwt>
<pdfrwt beam="1">  1       21 0.10477618E-02 0.23897286E+02</pdfrwt>
<pdfrwt beam="2">  1       21 0.13176746E-01 0.23897286E+02</pdfrwt>
<totfact> 0.11870939E+08</totfact>
</mgrwt>
</event>
<event>
 4    1  0.7841599E+004  0.2159477E+02  0.7546771E-02  0.1715356E+00
         21   -1    0    0  503  502  0.00000000000E+00  0.00000000000E+00  0.20348087962E+02  0.20348087962E+02  0.00000000000E+00 0. -1.
         21   -1    0    0  501  503 -0.00000000000E+00 -0.00000000000E+00 -0.22975777460E+02  0.22975777460E+02  0.00000000000E+00 0. -1.
          4    1    1    2  501    0  0.20538010219E+02  0.66726318193E+01 -0.22590367834E+00  0.21595946648E+02  0.00000000000E+00 0. -1.
         -4    1    1    2    0  502 -0.20538010219E+02 -0.66726318193E+01 -0.24017858199E+01  0.21727918774E+02  0.00000000000E+00 0.  1.
<mgrwt>
<rscale>  2 0.21594765E+02</rscale>
<asrwt>0</asrwt>
<pdfrwt beam="1">  1       21 0.31304751E-02 0.21594765E+02</pdfrwt>
<pdfrwt beam="2">  1       21 0.35347350E-02 0.21594765E+02</pdfrwt>
<totfact> 0.18184854E+08</totfact>
</mgrwt>
</event>
<event>
 4    1  0.7841599E+004  0.2157708E+02  0.7546771E-02  0.1715671E+00
         21   -1    0    0  501  502  0.00000000000E+00  0.00000000000E+00  0.60852799053E+00  0.60852799053E+00  0.00000000000E+00 0.  1.
         21   -1    0    0  502  503 -0.00000000000E+00 -0.00000000000E+00 -0.76864611295E+03  0.76864611295E+03  0.00000000000E+00 0.  1.
          4    1    1    2  501    0  0.31518947998E+01 -0.21345628103E+02 -0.41023114448E+03  0.41079820129E+03  0.00000000000E+00 0.  1.
         -4    1    1    2    0  503 -0.31518947998E+01  0.21345628103E+02 -0.35780644048E+03  0.35845643965E+03  0.00000000000E+00 0. -1.
<mgrwt>
<rscale>  2 0.21577078E+02</rscale>
<asrwt>0</asrwt>
<pdfrwt beam="1">  1       21 0.93619450E-04 0.21577078E+02</pdfrwt>
<pdfrwt beam="2">  1       21 0.11825355E+00 0.21577078E+02</pdfrwt>
<totfact> 0.59307721E+07</totfact>
</mgrwt>
</event>
<event>
 4    1  0.7841599E+004  0.2667628E+02  0.7546771E-02  0.1638030E+00
         21   -1    0    0  501  502  0.00000000000E+00  0.00000000000E+00  0.48232557936E+03  0.48232557936E+03  0.00000000000E+00 0. -1.
         21   -1    0    0  502  503 -0.00000000000E+00 -0.00000000000E+00 -0.18758406568E+01  0.18758406568E+01  0.00000000000E+00 0. -1.
          3    1    1    2  501    0 -0.26596932445E+02 -0.20559441630E+01  0.12836700033E+03  0.13110953625E+03  0.00000000000E+00 0.  1.
         -3    1    1    2    0  503  0.26596932445E+02  0.20559441630E+01  0.35208273837E+03  0.35309188377E+03  0.00000000000E+00 0. -1.
<mgrwt>
<rscale>  2 0.26676276E+02</rscale>
<asrwt>0</asrwt>
<pdfrwt beam="1">  1       21 0.74203836E-01 0.26676276E+02</pdfrwt>
<pdfrwt beam="2">  1       21 0.28859126E-03 0.26676276E+02</pdfrwt>
<totfact> 0.33609072E+07</totfact>
</mgrwt>
</event>
<event>
 4    1  0.7841599E+004  0.2419938E+02  0.7546771E-02  0.1672775E+00
         21   -1    0    0  503  502  0.00000000000E+00  0.00000000000E+00  0.20322722299E+03  0.20322722299E+03  0.00000000000E+00 0. -1.
         21   -1    0    0  501  503 -0.00000000000E+00 -0.00000000000E+00 -0.30107843042E+01  0.30107843042E+01  0.00000000000E+00 0. -1.
          2    1    1    2  501    0 -0.20830483262E+02  0.12316685529E+02  0.12147232534E+03  0.12385933795E+03  0.00000000000E+00 0.  1.
         -2    1    1    2    0  502  0.20830483262E+02 -0.12316685529E+02  0.78744113350E+02  0.82378669342E+02  0.00000000000E+00 0. -1.
<mgrwt>
<rscale>  2 0.24199376E+02</rscale>
<asrwt>0</asrwt>
<pdfrwt beam="1">  1       21 0.31265716E-01 0.24199376E+02</pdfrwt>
<pdfrwt beam="2">  1       21 0.46319774E-03 0.24199376E+02</pdfrwt>
<totfact> 0.88313002E+07</totfact>
</mgrwt>
</event>
<event>
 4    1  0.7841599E+004  0.2834508E+02  0.7546771E-02  0.1617137E+00
         21   -1    0    0  501  502  0.00000000000E+00  0.00000000000E+00  0.13834378879E+03  0.13834378879E+03  0.00000000000E+00 0. -1.
         21   -1    0    0  502  503 -0.00000000000E+00 -0.00000000000E+00 -0.59127281095E+01  0.59127281095E+01  0.00000000000E+00 0. -1.
          1    1    1    2  501    0  0.26191886553E+02 -0.10836445768E+02  0.75833854943E+02  0.80958119010E+02  0.00000000000E+00 0.  1.
         -1    1    1    2    0  503 -0.26191886553E+02  0.10836445768E+02  0.56597205735E+02  0.63298397888E+02  0.00000000000E+00 0. -1.
<mgrwt>
<rscale>  2 0.28345079E+02</rscale>
<asrwt>0</asrwt>
<pdfrwt beam="1">  1       21 0.21283657E-01 0.28345079E+02</pdfrwt>
<pdfrwt beam="2">  1       21 0.90965059E-03 0.28345079E+02</pdfrwt>
<totfact> 0.67005128E+07</totfact>
</mgrwt>
</event>
<event>
 4    1  0.7841599E+004  0.2359469E+02  0.7546771E-02  0.1682048E+00
         21   -1    0    0  501  502  0.00000000000E+00  0.00000000000E+00  0.43977588488E+01  0.43977588488E+01  0.00000000000E+00 0.  1.
         21   -1    0    0  502  503 -0.00000000000E+00 -0.00000000000E+00 -0.15017348399E+03  0.15017348399E+03  0.00000000000E+00 0.  1.
          3    1    1    2  501    0 -0.18253417879E+02  0.14950660337E+02 -0.10351538633E+03  0.10617035705E+03  0.00000000000E+00 0. -1.
         -3    1    1    2    0  503  0.18253417879E+02 -0.14950660337E+02 -0.42260338804E+02  0.48400885783E+02  0.00000000000E+00 0.  1.
<mgrwt>
<rscale>  2 0.23594692E+02</rscale>
<asrwt>0</asrwt>
<pdfrwt beam="1">  1       21 0.67657823E-03 0.23594692E+02</pdfrwt>
<pdfrwt beam="2">  1       21 0.23103615E-01 0.23594692E+02</pdfrwt>
<totfact> 0.86289238E+07</totfact>
</mgrwt>
</event>
<event>
 4    1  0.7841599E+004  0.2689468E+02  0.7546771E-02  0.1635190E+00
         21   -1    0    0  501  502  0.00000000000E+00  0.00000000000E+00  0.41664364215E+02  0.41664364215E+02  0.00000000000E+00 0.  1.
         21   -1    0    0  502  503 -0.00000000000E+00 -0.00000000000E+00 -0.17662309630E+02  0.17662309630E+02  0.00000000000E+00 0.  1.
          4    1    1    2  501    0 -0.18803210534E+02  0.19229218988E+02  0.15877176775E+02  0.31231527846E+02  0.00000000000E+00 0. -1.
         -4    1    1    2    0  503  0.18803210534E+02 -0.19229218988E+02  0.81248778099E+01  0.28095145999E+02  0.00000000000E+00 0.  1.
<mgrwt>
<rscale>  2 0.26894676E+02</rscale>
<asrwt>0</asrwt>
<pdfrwt beam="1">  1       21 0.64099022E-02 0.26894676E+02</pdfrwt>
<pdfrwt beam="2">  1       21 0.27172784E-02 0.26894676E+02</pdfrwt>
<totfact> 0.93667160E+07</totfact>
</mgrwt>
</event>
<event>
 4    1  0.7841599E+004  0.2200045E+02  0.7546771E-02  0.1708244E+00
         21   -1    0    0  503  502  0.00000000000E+00  0.00000000000E+00  0.91073104496E+00  0.91073104496E+00  0.00000000000E+00 0. -1.
         21   -1    0    0  501  503 -0.00000000000E+00 -0.00000000000E+00 -0.73119185953E+03  0.73119185953E+03  0.00000000000E+00 0. -1.
          2    1    1    2  501    0  0.21548241537E+02  0.44376969634E+01 -0.55645452725E+03  0.55688927155E+03  0.00000000000E+00 0.  1.
         -2    1    1    2    0  502 -0.21548241537E+02 -0.44376969634E+01 -0.17382660123E+03  0.17521331903E+03  0.00000000000E+00 0. -1.
<mgrwt>
<rscale>  2 0.22000452E+02</rscale>
<asrwt>0</asrwt>
<pdfrwt beam="1">  1       21 0.14011266E-03 0.22000452E+02</pdfrwt>
<pdfrwt beam="2">  1       21 0.11249090E+00 0.22000452E+02</pdfrwt>
<totfact> 0.37492085E+07</totfact>
</mgrwt>
</event>
<event>
 4    1  0.7841599E+004  0.2375007E+02  0.7546771E-02  0.1679632E+00
         21   -1    0    0  503  502  0.00000000000E+00  0.00000000000E+00  0.75298042223E+01  0.75298042223E+01  0.00000000000E+00 0. -1.
         21   -1    0    0  501  503 -0.00000000000E+00 -0.00000000000E+00 -0.85470628073E+02  0.85470628073E+02  0.00000000000E+00 0. -1.
          2    1    1    2  501    0 -0.57297281981E+01 -0.23048558472E+02 -0.22626010940E+02  0.32802472527E+02  0.00000000000E+00 0. -1.
         -2    1    1    2    0  502  0.57297281981E+01  0.23048558472E+02 -0.55314812911E+02  0.60197959768E+02  0.00000000000E+00 0.  1.
<mgrwt>
<rscale>  2 0.23750070E+02</rscale>
<asrwt>0</asrwt>
<pdfrwt beam="1">  1       21 0.11584314E-02 0.23750070E+02</pdfrwt>
<pdfrwt beam="2">  1       21 0.13149328E-01 0.23750070E+02</pdfrwt>
<totfact> 0.10220993E+08</totfact>
</mgrwt>
</event>
<event>
 4    1  0.7841599E+004  0.2189282E+02  0.7546771E-02  0.1710112E+00
         21   -1    0    0  501  502  0.00000000000E+00  0.00000000000E+00  0.10911282603E+01  0.10911282603E+01  0.00000000000E+00 0.  1.
         21   -1    0    0  502  503 -0.00000000000E+00 -0.00000000000E+00 -0.52047313959E+03  0.52047313959E+03  0.00000000000E+00 0.  1.
          1    1    1    2  501    0  0.99252482212E+01 -0.19513714971E+02 -0.15668190633E+03  0.15820403091E+03  0.00000000000E+00 0.  1.
         -1    1    1    2    0  503 -0.99252482212E+01  0.19513714971E+02 -0.36270010500E+03  0.36336023694E+03  0.00000000000E+00 0. -1.
<mgrwt>
<rscale>  2 0.21892821E+02</rscale>
<asrwt>0</asrwt>
<pdfrwt beam="1">  1       21 0.16786583E-03 0.21892821E+02</pdfrwt>
<pdfrwt beam="2">  1       21 0.80072816E-01 0.21892821E+02</pdfrwt>
<totfact> 0.60252815E+07</totfact>
</mgrwt>
</event>
<event>
 4    1  0.7841599E+004  0.2099337E+02  0.7546771E-02  0.1726266E+00
         21   -1    0    0  501  502  0.00000000000E+00  0.00000000000E+00  0.56570538290E+02  0.56570538290E+02  0.00000000000E+00 0. -1.
         21   -1    0    0  502  503 -0.00000000000E+00 -0.00000000000E+00 -0.85259751512E+01  0.85259751512E+01  0.00000000000E+00 0. -1.
          4    1    1    2  501    0  0.60729841849E+01  0.20095782692E+02  0.14463697594E+02  0.25493531866E+02  0.00000000000E+00 0.  1.
         -4    1    1    2    0  503 -0.60729841849E+01 -0.20095782692E+02  0.33580865545E+02  0.39602981575E+02  0.00000000000E+00 0. -1.
<mgrwt>
<rscale>  2 0.20993371E+02</rscale>
<asrwt>0</asrwt>
<pdfrwt beam="1">  1       21 0.87031595E-02 0.20993371E+02</pdfrwt>
<pdfrwt beam="2">  1       21 0.13116885E-02 0.20993371E+02</pdfrwt>
<totfact> 0.16206924E+08</totfact>
</mgrwt>
</event>
<event>
 4    1  0.7841599E+004  0.3423924E+02  0.7546771E-02  0.1555462E+00
         21   -1    0    0  503  502  0.00000000000E+00  0.00000000000E+00  0.32465607949E+03  0.32465607949E+03  0.00000000000E+00 0.  1.
         21   -1    0    0  501  503 -0.00000000000E+00 -0.00000000000E+00 -0.36488337897E+01  0.36488337897E+01  0.00000000000E+00 0.  1.
          3    1    1    2  501    0  0.62082531488E+00 -0.34233607386E+02  0.17722408182E+03  0.18050124785E+03  0.00000000000E+00 0.  1.
         -3    1    1    2    0  502 -0.62082531488E+00  0.34233607386E+02  0.14378316388E+03  0.14780366543E+03  0.00000000000E+00 0. -1.
<mgrwt>
<rscale>  2 0.34239236E+02</rscale>
<asrwt>0</asrwt>
<pdfrwt beam="1">  1       21 0.49947066E-01 0.34239236E+02</pdfrwt>
<pdfrwt beam="2">  1       21 0.56135930E-03 0.34239236E+02</pdfrwt>
<totfact> 0.29322679E+07</totfact>
</mgrwt>
</event>
<event>
 4    1  0.7841599E+004  0.2688312E+02  0.7546771E-02  0.1635340E+00
         21   -1    0    0  501  502  0.00000000000E+00  0.00000000000E+00  0.50038955466E+00  0.50038955466E+00  0.00000000000E+00 0. -1.
         21   -1    0    0  502  503 -0.00000000000E+00 -0.00000000000E+00 -0.15561463783E+04  0.15561463783E+04  0.00000000000E+00 0. -1.
          2    1    1    2  501    0  0.81777046695E+00  0.26870680774E+02 -0.98650555920E+03  0.98687178527E+03  0.00000000000E+00 0.  1.
         -2    1    1    2    0  503 -0.81777046695E+00 -0.26870680774E+02 -0.56914042956E+03  0.56977498259E+03  0.00000000000E+00 0. -1.
<mgrwt>
<rscale>  2 0.26883122E+02</rscale>
<asrwt>0</asrwt>
<pdfrwt beam="1">  1       21 0.76984266E-04 0.26883122E+02</pdfrwt>
<pdfrwt beam="2">  1       21 0.23940322E+00 0.26883122E+02</pdfrwt>
<totfact> 0.14145040E+07</totfact>
</mgrwt>
</event>
<event>
 4    1  0.7841599E+004  0.4344643E+02  0.7546771E-02  0.1484280E+00
         21   -1    0    0  501  502  0.00000000000E+00  0.00000000000E+00  0.84497453976E+01  0.84497453976E+01  0.00000000000E+00 0. -1.
         21   -1    0    0  502  503 -0.00000000000E+00 -0.00000000000E+00 -0.22593028958E+03  0.22593028958E+03  0.00000000000E+00 0. -1.
          1    1    1    2  501    0  0.33890519789E+02 -0.27185019487E+02 -0.12116550725E+03  0.12871935660E+03  0.00000000000E+00 0. -1.
         -1    1    1    2    0  503 -0.33890519789E+02  0.27185019487E+02 -0.96315036928E+02  0.10566067837E+03  0.00000000000E+00 0.  1.
<mgrwt>
<rscale>  2 0.43446434E+02</rscale>
<asrwt>0</asrwt>
<pdfrwt beam="1">  1       21 0.12999608E-02 0.43446434E+02</pdfrwt>
<pdfrwt beam="2">  1       21 0.34758507E-01 0.43446434E+02</pdfrwt>
<totfact> 0.17112791E+07</totfact>
</mgrwt>
</event>
<event>
 4    1  0.7841599E+004  0.2637695E+02  0.7546771E-02  0.1641977E+00
         21   -1    0    0  501  502  0.00000000000E+00  0.00000000000E+00  0.74877671698E+02  0.74877671698E+02  0.00000000000E+00 0.  1.
         21   -1    0    0  502  503 -0.00000000000E+00 -0.00000000000E+00 -0.93054474511E+01  0.93054474511E+01  0.00000000000E+00 0.  1.
          4    1    1    2  501    0 -0.12857015000E+02 -0.23031291802E+02  0.31170132177E+02  0.40832834542E+02  0.00000000000E+00 0.  1.
         -4    1    1    2    0  503  0.12857015000E+02  0.23031291802E+02  0.34402092070E+02  0.43350284608E+02  0.00000000000E+00 0. -1.
<mgrwt>
<rscale>  2 0.26376945E+02</rscale>
<asrwt>0</asrwt>
<pdfrwt beam="1">  1       21 0.11519641E-01 0.26376945E+02</pdfrwt>
<pdfrwt beam="2">  1       21 0.14316073E-02 0.26376945E+02</pdfrwt>
<totfact> 0.95229813E+07</totfact>
</mgrwt>
</event>
<event>
 4    1  0.7841599E+004  0.3109115E+02  0.7546771E-02  0.1586331E+00
         21   -1    0    0  501  502  0.00000000000E+00  0.00000000000E+00  0.39586915565E+03  0.39586915565E+03  0.00000000000E+00 0. -1.
         21   -1    0    0  502  503 -0.00000000000E+00 -0.00000000000E+00 -0.26290729110E+01  0.26290729110E+01  0.00000000000E+00 0. -1.
          1    1    1    2  501    0  0.13070733427E+02 -0.28210200961E+02  0.14345137199E+03  0.14678200038E+03  0.00000000000E+00 0. -1.
         -1    1    1    2    0  503 -0.13070733427E+02  0.28210200961E+02  0.24978871075E+03  0.25171622818E+03  0.00000000000E+00 0.  1.
<mgrwt>
<rscale>  2 0.31091148E+02</rscale>
<asrwt>0</asrwt>
<pdfrwt beam="1">  1       21 0.60902900E-01 0.31091148E+02</pdfrwt>
<pdfrwt beam="2">  1       21 0.40447307E-03 0.31091148E+02</pdfrwt>
<totfact> 0.31586717E+07</totfact>
</mgrwt>
</event>
<event>
 4    1  0.7841599E+004  0.2496572E+02  0.7546771E-02  0.1661495E+00
         21   -1    0    0  501  502  0.00000000000E+00  0.00000000000E+00  0.47980754467E+01  0.47980754467E+01  0.00000000000E+00 0.  1.
         21   -1    0    0  502  503 -0.00000000000E+00 -0.00000000000E+00 -0.13726405735E+03  0.13726405735E+03  0.00000000000E+00 0.  1.
          4    1    1    2  501    0 -0.53430406579E+01 -0.24387273415E+02 -0.49784621779E+02  0.55693767638E+02  0.00000000000E+00 0. -1.
         -4    1    1    2    0  503  0.53430406579E+01  0.24387273415E+02 -0.82681360121E+02  0.86368365155E+02  0.00000000000E+00 0.  1.
<mgrwt>
<rscale>  2 0.24965720E+02</rscale>
<asrwt>0</asrwt>
<pdfrwt beam="1">  1       21 0.73816548E-03 0.24965720E+02</pdfrwt>
<pdfrwt beam="2">  1       21 0.21117546E-01 0.24965720E+02</pdfrwt>
<totfact> 0.90131734E+07</totfact>
</mgrwt>
</event>
<event>
 4    1  0.7841599E+004  0.2041752E+02  0.7546771E-02  0.1737150E+00
         21   -1    0    0  501  502  0.00000000000E+00  0.00000000000E+00  0.49068979736E+03  0.49068979736E+03  0.00000000000E+00 0. -1.
         21   -1    0    0  502  503 -0.00000000000E+00 -0.00000000000E+00 -0.85084418471E+00  0.85084418471E+00  0.00000000000E+00 0. -1.
          5    1    1    2  501    0 -0.17082531768E+01  0.20345931435E+02  0.23540649735E+03  0.23629027498E+03  0.00000000000E+00 0. -1.
         -5    1    1    2    0  503  0.17082531768E+01 -0.20345931435E+02  0.25443245582E+03  0.25525036656E+03  0.00000000000E+00 0.  1.
<mgrwt>
<rscale>  2 0.20417518E+02</rscale>
<asrwt>0</asrwt>
<pdfrwt beam="1">  1       21 0.75490512E-01 0.20417518E+02</pdfrwt>
<pdfrwt beam="2">  1       21 0.13089950E-03 0.20417518E+02</pdfrwt>
<totfact> 0.95538677E+07</totfact>
</mgrwt>
</event>
<event>
 4    1  0.7841599E+004  0.2010083E+02  0.7546771E-02  0.1743330E+00
         21   -1    0    0  503  502  0.00000000000E+00  0.00000000000E+00  0.11653742405E+03  0.11653742405E+03  0.00000000000E+00 0.  1.
         21   -1    0    0  501  503 -0.00000000000E+00 -0.00000000000E+00 -0.40054084519E+01  0.40054084519E+01  0.00000000000E+00 0.  1.
          3    1    1    2  501    0  0.10687825230E+02 -0.17023921379E+02  0.34169922155E+02  0.39643752185E+02  0.00000000000E+00 0. -1.
         -3    1    1    2    0  502 -0.10687825230E+02  0.17023921379E+02  0.78362093443E+02  0.80899080316E+02  0.00000000000E+00 0.  1.
<mgrwt>
<rscale>  2 0.20100833E+02</rscale>
<asrwt>0</asrwt>
<pdfrwt beam="1">  1       21 0.17928832E-01 0.20100833E+02</pdfrwt>
<pdfrwt beam="2">  1       21 0.61621677E-03 0.20100833E+02</pdfrwt>
<totfact> 0.14732666E+08</totfact>
</mgrwt>
</event>
<event>
 4    1  0.7841599E+004  0.2391869E+02  0.7546771E-02  0.1677037E+00
         21   -1    0    0  503  502  0.00000000000E+00  0.00000000000E+00  0.16212959029E+02  0.16212959029E+02  0.00000000000E+00 0. -1.
         21   -1    0    0  501  503 -0.00000000000E+00 -0.00000000000E+00 -0.38962159617E+02  0.38962159617E+02  0.00000000000E+00 0. -1.
          4    1    1    2  501    0 -0.10076388997E+02  0.21692630810E+02 -0.29015415613E+01  0.24094040552E+02  0.00000000000E+00 0.  1.
         -4    1    1    2    0  502  0.10076388997E+02 -0.21692630810E+02 -0.19847659027E+02  0.31081078095E+02  0.00000000000E+00 0. -1.
<mgrwt>
<rscale>  2 0.23918692E+02</rscale>
<asrwt>0</asrwt>
<pdfrwt beam="1">  1       21 0.24943014E-02 0.23918692E+02</pdfrwt>
<pdfrwt beam="2">  1       21 0.59941784E-02 0.23918692E+02</pdfrwt>
<totfact> 0.11553180E+08</totfact>
</mgrwt>
</event>
<event>
 4    1  0.7841599E+004  0.8001384E+02  0.7546771E-02  0.1329012E+00
         21   -1    0    0  501  502  0.00000000000E+00  0.00000000000E+00  0.28579108511E+03  0.28579108511E+03  0.00000000000E+00 0.  1.
         21   -1    0    0  502  503 -0.00000000000E+00 -0.00000000000E+00 -0.30383666472E+02  0.30383666472E+02  0.00000000000E+00 0.  1.
          5    1    1    2  501    0  0.78789875154E+02 -0.13941685216E+02  0.20873097923E+03  0.22354157713E+03  0.00000000000E+00 0. -1.
         -5    1    1    2    0  503 -0.78789875154E+02  0.13941685216E+02  0.46676439403E+02  0.92633174451E+02  0.00000000000E+00 0.  1.
<mgrwt>
<rscale>  2 0.80013843E+02</rscale>
<asrwt>0</asrwt>
<pdfrwt beam="1">  1       21 0.43967857E-01 0.80013843E+02</pdfrwt>
<pdfrwt beam="2">  1       21 0.46744104E-02 0.80013843E+02</pdfrwt>
<totfact> 0.14782496E+06</totfact>
</mgrwt>
</event>
<event>
 4    1  0.7841599E+004  0.4410111E+02  0.7546771E-02  0.1480033E+00
         21   -1    0    0  501  502  0.00000000000E+00  0.00000000000E+00  0.33169292942E+01  0.33169292942E+01  0.00000000000E+00 0. -1.
         21   -1    0    0  502  503 -0.00000000000E+00 -0.00000000000E+00 -0.58636887576E+03  0.58636887576E+03  0.00000000000E+00 0. -1.
          4    1    1    2  501    0  0.23770593883E+02  0.37146555599E+02 -0.29025089188E+03  0.29358216561E+03  0.00000000000E+00 0. -1.
         -4    1    1    2    0  503 -0.23770593883E+02 -0.37146555599E+02 -0.29280105459E+03  0.29610363945E+03  0.00000000000E+00 0.  1.
<mgrwt>
<rscale>  2 0.44101108E+02</rscale>
<asrwt>0</asrwt>
<pdfrwt beam="1">  1       21 0.51029677E-03 0.44101108E+02</pdfrwt>
<pdfrwt beam="2">  1       21 0.90210603E-01 0.44101108E+02</pdfrwt>
<totfact> 0.10232167E+07</totfact>
</mgrwt>
</event>
<event>
 4    1  0.7841599E+004  0.3427744E+02  0.7546771E-02  0.1555112E+00
         21   -1    0    0  501  502  0.00000000000E+00  0.00000000000E+00  0.16625055239E+03  0.16625055239E+03  0.00000000000E+00 0. -1.
         21   -1    0    0  502  503 -0.00000000000E+00 -0.00000000000E+00 -0.73661619530E+01  0.73661619530E+01  0.00000000000E+00 0. -1.
          2    1    1    2  501    0  0.26179129970E+02  0.22126820803E+02  0.96927530563E+02  0.10280996657E+03  0.00000000000E+00 0. -1.
         -2    1    1    2    0  503 -0.26179129970E+02 -0.22126820803E+02  0.61956859870E+02  0.70806747771E+02  0.00000000000E+00 0.  1.
<mgrwt>
<rscale>  2 0.34277442E+02</rscale>
<asrwt>0</asrwt>
<pdfrwt beam="1">  1       21 0.25577005E-01 0.34277442E+02</pdfrwt>
<pdfrwt beam="2">  1       21 0.11332558E-02 0.34277442E+02</pdfrwt>
<totfact> 0.35920629E+07</totfact>
</mgrwt>
</event>
<event>
 4    1  0.7841599E+004  0.2198965E+02  0.7546771E-02  0.1708431E+00
         21   -1    0    0  501  502  0.00000000000E+00  0.00000000000E+00  0.79808998963E+02  0.79808998963E+02  0.00000000000E+00 0. -1.
         21   -1    0    0  502  503 -0.00000000000E+00 -0.00000000000E+00 -0.60999150651E+01  0.60999150651E+01  0.00000000000E+00 0. -1.
          4    1    1    2  501    0 -0.88818966203E+01 -0.20116079642E+02  0.40382148539E+02  0.45981112083E+02  0.00000000000E+00 0.  1.
         -4    1    1    2    0  503  0.88818966203E+01  0.20116079642E+02  0.33326935359E+02  0.39927801945E+02  0.00000000000E+00 0. -1.
<mgrwt>
<rscale>  2 0.21989651E+02</rscale>
<asrwt>0</asrwt>
<pdfrwt beam="1">  1       21 0.12278307E-01 0.21989651E+02</pdfrwt>
<pdfrwt beam="2">  1       21 0.93844853E-03 0.21989651E+02</pdfrwt>
<totfact> 0.15391804E+08</totfact>
</mgrwt>
</event>
<event>
 4    1  0.7841599E+004  0.2118689E+02  0.7546771E-02  0.1722706E+00
         21   -1    0    0  503  502  0.00000000000E+00  0.00000000000E+00  0.31711801532E+03  0.31711801532E+03  0.00000000000E+00 0.  1.
         21   -1    0    0  501  503 -0.00000000000E+00 -0.00000000000E+00 -0.16419884488E+01  0.16419884488E+01  0.00000000000E+00 0.  1.
          2    1    1    2  501    0 -0.29456787365E+01 -0.20981121245E+02  0.98546430822E+02  0.10079823163E+03  0.00000000000E+00 0. -1.
         -2    1    1    2    0  502  0.29456787365E+01  0.20981121245E+02  0.21692959605E+03  0.21796177214E+03  0.00000000000E+00 0.  1.
<mgrwt>
<rscale>  2 0.21186894E+02</rscale>
<asrwt>0</asrwt>
<pdfrwt beam="1">  1       21 0.48787338E-01 0.21186894E+02</pdfrwt>
<pdfrwt beam="2">  1       21 0.25261386E-03 0.21186894E+02</pdfrwt>
<totfact> 0.89660121E+07</totfact>
</mgrwt>
</event>
<event>
 4    1  0.7841599E+004  0.2590413E+02  0.7546771E-02  0.1648345E+00
         21   -1    0    0  503  502  0.00000000000E+00  0.00000000000E+00  0.90598821179E+00  0.90598821179E+00  0.00000000000E+00 0.  1.
         21   -1    0    0  501  503 -0.00000000000E+00 -0.00000000000E+00 -0.81982167122E+03  0.81982167122E+03  0.00000000000E+00 0.  1.
          4    1    1    2  501    0  0.25577958223E+02 -0.40978229129E+01 -0.28193664344E+03  0.28312416890E+03  0.00000000000E+00 0. -1.
         -4    1    1    2    0  502 -0.25577958223E+02  0.40978229129E+01 -0.53697903957E+03  0.53760349053E+03  0.00000000000E+00 0.  1.
<mgrwt>
<rscale>  2 0.25904133E+02</rscale>
<asrwt>0</asrwt>
<pdfrwt beam="1">  1       21 0.13938295E-03 0.25904133E+02</pdfrwt>
<pdfrwt beam="2">  1       21 0.12612627E+00 0.25904133E+02</pdfrwt>
<totfact> 0.30086471E+07</totfact>
</mgrwt>
</event>
<event>
 4    1  0.7841599E+004  0.2181782E+02  0.7546771E-02  0.1711422E+00
         21   -1    0    0  503  502  0.00000000000E+00  0.00000000000E+00  0.34723705289E+00  0.34723705289E+00  0.00000000000E+00 0.  1.
         21   -1    0    0  501  503 -0.00000000000E+00 -0.00000000000E+00 -0.18519903471E+04  0.18519903471E+04  0.00000000000E+00 0.  1.
          5    1    1    2  501    0 -0.15505729720E+02  0.15348929029E+02 -0.45376166303E+03  0.45428588368E+03  0.00000000000E+00 0.  1.
         -5    1    1    2    0  502  0.15505729720E+02 -0.15348929029E+02 -0.13978814470E+04  0.13980517005E+04  0.00000000000E+00 0. -1.
<mgrwt>
<rscale>  2 0.21817820E+02</rscale>
<asrwt>0</asrwt>
<pdfrwt beam="1">  1       21 0.53420196E-04 0.21817820E+02</pdfrwt>
<pdfrwt beam="2">  1       21 0.28492633E+00 0.21817820E+02</pdfrwt>
<totfact> 0.13924226E+07</totfact>
</mgrwt>
</event>
<event>
 4    1  0.7841599E+004  0.2307916E+02  0.7546771E-02  0.1690230E+00
         21   -1    0    0  501  502  0.00000000000E+00  0.00000000000E+00  0.24603930684E+03  0.24603930684E+03  0.00000000000E+00 0. -1.
         21   -1    0    0  502  503 -0.00000000000E+00 -0.00000000000E+00 -0.22717453815E+01  0.22717453815E+01  0.00000000000E+00 0. -1.
          3    1    1    2  501    0 -0.45677878139E+01  0.22622621508E+02  0.14881073803E+03  0.15058978531E+03  0.00000000000E+00 0. -1.
         -3    1    1    2    0  503  0.45677878139E+01 -0.22622621508E+02  0.94956823437E+02  0.97721266911E+02  0.00000000000E+00 0.  1.
<mgrwt>
<rscale>  2 0.23079161E+02</rscale>
<asrwt>0</asrwt>
<pdfrwt beam="1">  1       21 0.37852180E-01 0.23079161E+02</pdfrwt>
<pdfrwt beam="2">  1       21 0.34949948E-03 0.23079161E+02</pdfrwt>
<totfact> 0.92601512E+07</totfact>
</mgrwt>
</event>
<event>
 4    1  0.7841599E+004  0.4168974E+02  0.7546771E-02  0.1496133E+00
         21   -1    0    0  501  502  0.00000000000E+00  0.00000000000E+00  0.29232127184E+02  0.29232127184E+02  0.00000000000E+00 0. -1.
         21   -1    0    0  502  503 -0.00000000000E+00 -0.00000000000E+00 -0.68849775204E+02  0.68849775204E+02  0.00000000000E+00 0. -1.
          1    1    1    2  501    0 -0.24804625162E+02 -0.33507687395E+02 -0.37923077291E+02  0.56357735363E+02  0.00000000000E+00 0. -1.
         -1    1    1    2    0  503  0.24804625162E+02  0.33507687395E+02 -0.16945707290E+01  0.41724167025E+02  0.00000000000E+00 0.  1.
<mgrwt>
<rscale>  2 0.41689741E+02</rscale>
<asrwt>0</asrwt>
<pdfrwt beam="1">  1       21 0.44972504E-02 0.41689741E+02</pdfrwt>
<pdfrwt beam="2">  1       21 0.10592273E-01 0.41689741E+02</pdfrwt>
<totfact> 0.20014038E+07</totfact>
</mgrwt>
</event>
<event>
 4    1  0.7841599E+004  0.2629439E+02  0.7546771E-02  0.1643077E+00
         21   -1    0    0  501  502  0.00000000000E+00  0.00000000000E+00  0.33528916154E+02  0.33528916154E+02  0.00000000000E+00 0. -1.
         21   -1    0    0  502  503 -0.00000000000E+00 -0.00000000000E+00 -0.22647716129E+02  0.22647716129E+02  0.00000000000E+00 0. -1.
          4    1    1    2  501    0  0.25734261939E+02  0.53983910979E+01  0.13843431780E+02  0.29715912698E+02  0.00000000000E+00 0.  1.
         -4    1    1    2    0  503 -0.25734261939E+02 -0.53983910979E+01 -0.29622317545E+01  0.26460719585E+02  0.00000000000E+00 0. -1.
<mgrwt>
<rscale>  2 0.26294388E+02</rscale>
<asrwt>0</asrwt>
<pdfrwt beam="1">  1       21 0.51582948E-02 0.26294388E+02</pdfrwt>
<pdfrwt beam="2">  1       21 0.34842640E-02 0.26294388E+02</pdfrwt>
<totfact> 0.89513042E+07</totfact>
</mgrwt>
</event>
<event>
 4    1  0.7841599E+004  0.2095686E+02  0.7546771E-02  0.1726943E+00
         21   -1    0    0  503  502  0.00000000000E+00  0.00000000000E+00  0.20322056026E+01  0.20322056026E+01  0.00000000000E+00 0.  1.
         21   -1    0    0  501  503 -0.00000000000E+00 -0.00000000000E+00 -0.25654582814E+03  0.25654582814E+03  0.00000000000E+00 0.  1.
          1    1    1    2  501    0 -0.98400873317E+00  0.20933745447E+02 -0.75930996890E+02  0.78769957854E+02  0.00000000000E+00 0. -1.
         -1    1    1    2    0  502  0.98400873317E+00 -0.20933745447E+02 -0.17858262564E+03  0.17980807588E+03  0.00000000000E+00 0.  1.
<mgrwt>
<rscale>  2 0.20956860E+02</rscale>
<asrwt>0</asrwt>
<pdfrwt beam="1">  1       21 0.31264700E-03 0.20956860E+02</pdfrwt>
<pdfrwt beam="2">  1       21 0.39468591E-01 0.20956860E+02</pdfrwt>
<totfact> 0.98177436E+07</totfact>
</mgrwt>
</event>
<event>
 4    1  0.7841599E+004  0.3241388E+02  0.7546771E-02  0.1572843E+00
         21   -1    0    0  503  502  0.00000000000E+00  0.00000000000E+00  0.10991463513E+03  0.10991463513E+03  0.00000000000E+00 0.  1.
         21   -1    0    0  501  503 -0.00000000000E+00 -0.00000000000E+00 -0.10917440426E+02  0.10917440426E+02  0.00000000000E+00 0.  1.
          1    1    1    2  501    0  0.14584789265E+02 -0.28947253846E+02  0.28186161715E+02  0.42954851825E+02  0.00000000000E+00 0.  1.
         -1    1    1    2    0  502 -0.14584789265E+02  0.28947253846E+02  0.70811032987E+02  0.77877223729E+02  0.00000000000E+00 0. -1.
<mgrwt>
<rscale>  2 0.32413879E+02</rscale>
<asrwt>0</asrwt>
<pdfrwt beam="1">  1       21 0.16909943E-01 0.32413879E+02</pdfrwt>
<pdfrwt beam="2">  1       21 0.16796063E-02 0.32413879E+02</pdfrwt>
<totfact> 0.40528638E+07</totfact>
</mgrwt>
</event>
<event>
 4    1  0.7841599E+004  0.2223839E+02  0.7546771E-02  0.1704161E+00
         21   -1    0    0  503  502  0.00000000000E+00  0.00000000000E+00  0.19345642031E+03  0.19345642031E+03  0.00000000000E+00 0. -1.
         21   -1    0    0  501  503 -0.00000000000E+00 -0.00000000000E+00 -0.27845142146E+01  0.27845142146E+01  0.00000000000E+00 0. -1.
          5    1    1    2  501    0  0.66304423955E+01 -0.21226948077E+02  0.67249939490E+02  0.70831493366E+02  0.00000000000E+00 0. -1.
         -5    1    1    2    0  502 -0.66304423955E+01  0.21226948077E+02  0.12342196660E+03  0.12540944116E+03  0.00000000000E+00 0.  1.
<mgrwt>
<rscale>  2 0.22238392E+02</rscale>
<asrwt>0</asrwt>
<pdfrwt beam="1">  1       21 0.29762516E-01 0.22238392E+02</pdfrwt>
<pdfrwt beam="2">  1       21 0.42838696E-03 0.22238392E+02</pdfrwt>
<totfact> 0.10596004E+08</totfact>
</mgrwt>
</event>
<event>
 4    1  0.7841599E+004  0.2640189E+02  0.7546771E-02  0.1641646E+00
         21   -1    0    0  501  502  0.00000000000E+00  0.00000000000E+00  0.75311901165E+02  0.75311901165E+02  0.00000000000E+00 0.  1.
         21   -1    0    0  502  503 -0.00000000000E+00 -0.00000000000E+00 -0.10757089715E+02  0.10757089715E+02  0.00000000000E+00 0.  1.
          2    1    1    2  501    0  0.24254811540E+02  0.10428985270E+02  0.48355151398E+02  0.55093377853E+02  0.00000000000E+00 0.  1.
         -2    1    1    2    0  503 -0.24254811540E+02 -0.10428985270E+02  0.16199660052E+02  0.30975613027E+02  0.00000000000E+00 0. -1.
<mgrwt>
<rscale>  2 0.26401887E+02</rscale>
<asrwt>0</asrwt>
<pdfrwt beam="1">  1       21 0.11586446E-01 0.26401887E+02</pdfrwt>
<pdfrwt beam="2">  1       21 0.16549369E-02 0.26401887E+02</pdfrwt>
<totfact> 0.75580140E+07</totfact>
</mgrwt>
</event>
<event>
 4    1  0.7841599E+004  0.2132120E+02  0.7546771E-02  0.1720263E+00
         21   -1    0    0  501  502  0.00000000000E+00  0.00000000000E+00  0.39821858043E+01  0.39821858043E+01  0.00000000000E+00 0.  1.
         21   -1    0    0  502  503 -0.00000000000E+00 -0.00000000000E+00 -0.12122994253E+03  0.12122994253E+03  0.00000000000E+00 0.  1.
          3    1    1    2  501    0  0.20171337936E+02 -0.69073022661E+01 -0.73746142054E+02  0.76766445577E+02  0.00000000000E+00 0. -1.
         -3    1    1    2    0  503 -0.20171337936E+02  0.69073022661E+01 -0.43501614671E+02  0.48445682756E+02  0.00000000000E+00 0.  1.
<mgrwt>
<rscale>  2 0.21321203E+02</rscale>
<asrwt>0</asrwt>
<pdfrwt beam="1">  1       21 0.61264393E-03 0.21321203E+02</pdfrwt>
<pdfrwt beam="2">  1       21 0.18650762E-01 0.21321203E+02</pdfrwt>
<totfact> 0.14130693E+08</totfact>
</mgrwt>
</event>
<event>
 4    1  0.7841599E+004  0.5338649E+02  0.7546771E-02  0.1427887E+00
         21   -1    0    0  503  502  0.00000000000E+00  0.00000000000E+00  0.14710853688E+04  0.14710853688E+04  0.00000000000E+00 0.  1.
         21   -1    0    0  501  503 -0.00000000000E+00 -0.00000000000E+00 -0.19412139597E+01  0.19412139597E+01  0.00000000000E+00 0.  1.
          5    1    1    2  501    0  0.76727150815E+01  0.52832254013E+02  0.70203324797E+03  0.70406022390E+03  0.00000000000E+00 0. -1.
         -5    1    1    2    0  502 -0.76727150815E+01 -0.52832254013E+02  0.76711090690E+03  0.76896635889E+03  0.00000000000E+00 0.  1.
<mgrwt>
<rscale>  2 0.53386493E+02</rscale>
<asrwt>0</asrwt>
<pdfrwt beam="1">  1       21 0.22631994E+00 0.53386493E+02</pdfrwt>
<pdfrwt beam="2">  1       21 0.29864948E-03 0.53386493E+02</pdfrwt>
<totfact> 0.23623026E+06</totfact>
</mgrwt>
</event>
<event>
 4    1  0.7841599E+004  0.2651004E+02  0.7546771E-02  0.1640214E+00
         21   -1    0    0  501  502  0.00000000000E+00  0.00000000000E+00  0.34030105880E+00  0.34030105880E+00  0.00000000000E+00 0.  1.
         21   -1    0    0  502  503 -0.00000000000E+00 -0.00000000000E+00 -0.22700269509E+04  0.22700269509E+04  0.00000000000E+00 0.  1.
          2    1    1    2  501    0 -0.14750363398E+02  0.22027461100E+02 -0.14758536074E+04  0.14760916817E+04  0.00000000000E+00 0.  1.
         -2    1    1    2    0  503  0.14750363398E+02 -0.22027461100E+02 -0.79383304239E+03  0.79427557022E+03  0.00000000000E+00 0. -1.
<mgrwt>
<rscale>  2 0.26510041E+02</rscale>
<asrwt>0</asrwt>
<pdfrwt beam="1">  1       21 0.52355971E-04 0.26510041E+02</pdfrwt>
<pdfrwt beam="2">  1       21 0.34922183E+00 0.26510041E+02</pdfrwt>
<totfact> 0.69534280E+06</totfact>
</mgrwt>
</event>
<event>
 4    1  0.7841599E+004  0.2239557E+02  0.7546771E-02  0.1701499E+00
         21   -1    0    0  503  502  0.00000000000E+00  0.00000000000E+00  0.22449142548E+02  0.22449142548E+02  0.00000000000E+00 0. -1.
         21   -1    0    0  501  503 -0.00000000000E+00 -0.00000000000E+00 -0.22344964588E+02  0.22344964588E+02  0.00000000000E+00 0. -1.
          5    1    1    2  501    0  0.22125134633E+02 -0.34698641488E+01  0.30458823486E+00  0.22397640808E+02  0.00000000000E+00 0.  1.
         -5    1    1    2    0  502 -0.22125134633E+02  0.34698641488E+01 -0.20041027524E+00  0.22396466329E+02  0.00000000000E+00 0. -1.
<mgrwt>
<rscale>  2 0.22395570E+02</rscale>
<asrwt>0</asrwt>
<pdfrwt beam="1">  1       21 0.34537142E-02 0.22395570E+02</pdfrwt>
<pdfrwt beam="2">  1       21 0.34376869E-02 0.22395570E+02</pdfrwt>
<totfact> 0.16480996E+08</totfact>
</mgrwt>
</event>
<event>
 4    1  0.7841599E+004  0.2087194E+02  0.7546771E-02  0.1728524E+00
         21   -1    0    0  501  502  0.00000000000E+00  0.00000000000E+00  0.13264726612E+03  0.13264726612E+03  0.00000000000E+00 0.  1.
         21   -1    0    0  502  503 -0.00000000000E+00 -0.00000000000E+00 -0.74439023570E+01  0.74439023570E+01  0.00000000000E+00 0.  1.
          2    1    1    2  501    0 -0.13613648293E+02 -0.15821076576E+02  0.11496322642E+03  0.11684254924E+03  0.00000000000E+00 0. -1.
         -2    1    1    2    0  503  0.13613648293E+02  0.15821076576E+02  0.10240137352E+02  0.23248619246E+02  0.00000000000E+00 0.  1.
<mgrwt>
<rscale>  2 0.20871940E+02</rscale>
<asrwt>0</asrwt>
<pdfrwt beam="1">  1       21 0.20407270E-01 0.20871940E+02</pdfrwt>
<pdfrwt beam="2">  1       21 0.11452158E-02 0.20871940E+02</pdfrwt>
<totfact> 0.47311670E+07</totfact>
</mgrwt>
</event>
<event>
 4    1  0.7841599E+004  0.3802475E+02  0.7546771E-02  0.1523272E+00
         21   -1    0    0  503  502  0.00000000000E+00  0.00000000000E+00  0.13955215837E+01  0.13955215837E+01  0.00000000000E+00 0. -1.
         21   -1    0    0  501  503 -0.00000000000E+00 -0.00000000000E+00 -0.10646810866E+04  0.10646810866E+04  0.00000000000E+00 0. -1.
          5    1    1    2  501    0  0.20629621343E+02 -0.31942136201E+02 -0.61899805016E+03  0.62016487118E+03  0.00000000000E+00 0.  1.
         -5    1    1    2    0  502 -0.20629621343E+02  0.31942136201E+02 -0.44428751484E+03  0.44591173699E+03  0.00000000000E+00 0. -1.
<mgrwt>
<rscale>  2 0.38024746E+02</rscale>
<asrwt>0</asrwt>
<pdfrwt beam="1">  1       21 0.21469631E-03 0.38024746E+02</pdfrwt>
<pdfrwt beam="2">  1       21 0.16379657E+00 0.38024746E+02</pdfrwt>
<totfact> 0.90368888E+06</totfact>
</mgrwt>
</event>
<event>
 4    1  0.7841599E+004  0.2164289E+02  0.7546771E-02  0.1714502E+00
         21   -1    0    0  503  502  0.00000000000E+00  0.00000000000E+00  0.50838119572E+01  0.50838119572E+01  0.00000000000E+00 0. -1.
         21   -1    0    0  501  503 -0.00000000000E+00 -0.00000000000E+00 -0.13420292006E+03  0.13420292006E+03  0.00000000000E+00 0. -1.
          4    1    1    2  501    0  0.20774434348E+02  0.60693913815E+01 -0.25569269932E+02  0.33499286546E+02  0.00000000000E+00 0.  1.
         -4    1    1    2    0  502 -0.20774434348E+02 -0.60693913815E+01 -0.10354983817E+03  0.10578744547E+03  0.00000000000E+00 0. -1.
<mgrwt>
<rscale>  2 0.21642889E+02</rscale>
<asrwt>0</asrwt>
<pdfrwt beam="1">  1       21 0.78212506E-03 0.21642889E+02</pdfrwt>
<pdfrwt beam="2">  1       21 0.20646599E-01 0.21642889E+02</pdfrwt>
<totfact> 0.82788955E+07</totfact>
</mgrwt>
</event>
<event>
 4    1  0.7841599E+004  0.2776540E+02  0.7546771E-02  0.1624189E+00
         21   -1    0    0  501  502  0.00000000000E+00  0.00000000000E+00  0.76638252469E+03  0.76638252469E+03  0.00000000000E+00 0.  1.
         21   -1    0    0  502  503 -0.00000000000E+00 -0.00000000000E+00 -0.10277464972E+01  0.10277464972E+01  0.00000000000E+00 0.  1.
          5    1    1    2  501    0 -0.41996493561E+01  0.27445954949E+02  0.43859810745E+03  0.43947607143E+03  0.00000000000E+00 0. -1.
         -5    1    1    2    0  503  0.41996493561E+01 -0.27445954949E+02  0.32675667074E+03  0.32793419976E+03  0.00000000000E+00 0.  1.
<mgrwt>
<rscale>  2 0.27765401E+02</rscale>
<asrwt>0</asrwt>
<pdfrwt beam="1">  1       21 0.11790455E+00 0.27765401E+02</pdfrwt>
<pdfrwt beam="2">  1       21 0.15811546E-03 0.27765401E+02</pdfrwt>
<totfact> 0.29636577E+07</totfact>
</mgrwt>
</event>
<event>
 4    1  0.7841599E+004  0.2031489E+02  0.7546771E-02  0.1739138E+00
         21   -1    0    0  503  502  0.00000000000E+00  0.00000000000E+00  0.36770378791E+02  0.36770378791E+02  0.00000000000E+00 0. -1.
         21   -1    0    0  501  503 -0.00000000000E+00 -0.00000000000E+00 -0.12095103669E+02  0.12095103669E+02  0.00000000000E+00 0. -1.
          3    1    1    2  501    0  0.14390831416E+02  0.14338715371E+02  0.57790490583E+01  0.21120894757E+02  0.00000000000E+00 0. -1.
         -3    1    1    2    0  502 -0.14390831416E+02 -0.14338715371E+02  0.18896226064E+02  0.27744587702E+02  0.00000000000E+00 0.  1.
<mgrwt>
<rscale>  2 0.20314891E+02</rscale>
<asrwt>0</asrwt>
<pdfrwt beam="1">  1       21 0.56569813E-02 0.20314891E+02</pdfrwt>
<pdfrwt beam="2">  1       21 0.18607852E-02 0.20314891E+02</pdfrwt>
<totfact> 0.18911309E+08</totfact>
</mgrwt>
</event>
<event>
 4    1  0.7841599E+004  0.2081629E+02  0.7546771E-02  0.1729566E+00
         21   -1    0    0  503  502  0.00000000000E+00  0.00000000000E+00  0.23257830923E+03  0.23257830923E+03  0.00000000000E+00 0.  1.
         21   -1    0    0  501  503 -0.00000000000E+00 -0.00000000000E+00 -0.19643279745E+01  0.19643279745E+01  0.00000000000E+00 0.  1.
          2    1    1    2  501    0 -0.20778564644E+02 -0.12527235493E+01  0.14192784631E+03  0.14344626737E+03  0.00000000000E+00 0. -1.
         -2    1    1    2    0  502  0.20778564644E+02  0.12527235493E+01  0.88686134942E+02  0.91096369829E+02  0.00000000000E+00 0.  1.
<mgrwt>
<rscale>  2 0.20816293E+02</rscale>
<asrwt>0</asrwt>
<pdfrwt beam="1">  1       21 0.35781256E-01 0.20816293E+02</pdfrwt>
<pdfrwt beam="2">  1       21 0.30220449E-03 0.20816293E+02</pdfrwt>
<totfact> 0.12356659E+08</totfact>
</mgrwt>
</event>
<event>
 4    1  0.7841599E+004  0.4715236E+02  0.7546771E-02  0.1461335E+00
         21   -1    0    0  501  502  0.00000000000E+00  0.00000000000E+00  0.13652046225E+02  0.13652046225E+02  0.00000000000E+00 0.  1.
         21   -1    0    0  502  503 -0.00000000000E+00 -0.00000000000E+00 -0.16465907200E+03  0.16465907200E+03  0.00000000000E+00 0.  1.
          1    1    1    2  501    0  0.46030137262E+02 -0.10226005251E+02 -0.66179065263E+02  0.81258928117E+02  0.00000000000E+00 0. -1.
         -1    1    1    2    0  503 -0.46030137262E+02  0.10226005251E+02 -0.84827960508E+02  0.97052190102E+02  0.00000000000E+00 0.  1.
<mgrwt>
<rscale>  2 0.47152356E+02</rscale>
<asrwt>0</asrwt>
<pdfrwt beam="1">  1       21 0.21003147E-02 0.47152356E+02</pdfrwt>
<pdfrwt beam="2">  1       21 0.25332166E-01 0.47152356E+02</pdfrwt>
<totfact> 0.14774121E+07</totfact>
</mgrwt>
</event>
<event>
 4    1  0.7841599E+004  0.2077508E+02  0.7546771E-02  0.1730340E+00
         21   -1    0    0  503  502  0.00000000000E+00  0.00000000000E+00  0.10987172992E+03  0.10987172992E+03  0.00000000000E+00 0.  1.
         21   -1    0    0  501  503 -0.00000000000E+00 -0.00000000000E+00 -0.47335996186E+01  0.47335996186E+01  0.00000000000E+00 0.  1.
          2    1    1    2  501    0  0.11373703273E+02 -0.17385128715E+02  0.28933238988E+02  0.35619322635E+02  0.00000000000E+00 0.  1.
         -2    1    1    2    0  502 -0.11373703273E+02  0.17385128715E+02  0.76204891316E+02  0.78986006907E+02  0.00000000000E+00 0. -1.
<mgrwt>
<rscale>  2 0.20775077E+02</rscale>
<asrwt>0</asrwt>
<pdfrwt beam="1">  1       21 0.16903341E-01 0.20775077E+02</pdfrwt>
<pdfrwt beam="2">  1       21 0.72824618E-03 0.20775077E+02</pdfrwt>
<totfact> 0.12856366E+08</totfact>
</mgrwt>
</event>
<event>
 4    1  0.7841599E+004  0.4739986E+02  0.7546771E-02  0.1459893E+00
         21   -1    0    0  503  502  0.00000000000E+00  0.00000000000E+00  0.12331133730E+01  0.12331133730E+01  0.00000000000E+00 0.  1.
         21   -1    0    0  501  503 -0.00000000000E+00 -0.00000000000E+00 -0.23548953259E+04  0.23548953259E+04  0.00000000000E+00 0.  1.
          2    1    1    2  501    0 -0.19914769393E+02 -0.43013351914E+02 -0.17372329021E+04  0.17378794270E+04  0.00000000000E+00 0.  1.
         -2    1    1    2    0  502  0.19914769393E+02  0.43013351914E+02 -0.61642931037E+03  0.61824901227E+03  0.00000000000E+00 0. -1.
<mgrwt>
<rscale>  2 0.47399857E+02</rscale>
<asrwt>0</asrwt>
<pdfrwt beam="1">  1       21 0.18971071E-03 0.47399857E+02</pdfrwt>
<pdfrwt beam="2">  1       21 0.36228975E+00 0.47399857E+02</pdfrwt>
<totfact> 0.88173691E+05</totfact>
</mgrwt>
</event>
<event>
 4    1  0.7841599E+004  0.2129623E+02  0.7546771E-02  0.1720715E+00
         21   -1    0    0  501  502  0.00000000000E+00  0.00000000000E+00  0.56577564876E+03  0.56577564876E+03  0.00000000000E+00 0.  1.
         21   -1    0    0  502  503 -0.00000000000E+00 -0.00000000000E+00 -0.17144671892E+01  0.17144671892E+01  0.00000000000E+00 0.  1.
          2    1    1    2  501    0 -0.12632935797E+02 -0.17144625931E+02  0.48907620822E+03  0.48953964775E+03  0.00000000000E+00 0. -1.
         -2    1    1    2    0  503  0.12632935797E+02  0.17144625931E+02  0.74984973347E+02  0.77950468203E+02  0.00000000000E+00 0.  1.
<mgrwt>
<rscale>  2 0.21296227E+02</rscale>
<asrwt>0</asrwt>
<pdfrwt beam="1">  1       21 0.87042259E-01 0.21296227E+02</pdfrwt>
<pdfrwt beam="2">  1       21 0.26376463E-03 0.21296227E+02</pdfrwt>
<totfact> 0.26172256E+07</totfact>
</mgrwt>
</event>
<event>
 4    1  0.7841599E+004  0.2062195E+02  0.7546771E-02  0.1733235E+00
         21   -1    0    0  503  502  0.00000000000E+00  0.00000000000E+00  0.25044808615E+03  0.25044808615E+03  0.00000000000E+00 0. -1.
         21   -1    0    0  501  503 -0.00000000000E+00 -0.00000000000E+00 -0.17092175033E+01  0.17092175033E+01  0.00000000000E+00 0. -1.
          5    1    1    2  501    0 -0.10655049955E+02  0.17656016942E+02  0.13457573054E+03  0.13614658378E+03  0.00000000000E+00 0. -1.
         -5    1    1    2    0  502  0.10655049955E+02 -0.17656016942E+02  0.11416313810E+03  0.11601071987E+03  0.00000000000E+00 0.  1.
<mgrwt>
<rscale>  2 0.20621955E+02</rscale>
<asrwt>0</asrwt>
<pdfrwt beam="1">  1       21 0.38530446E-01 0.20621955E+02</pdfrwt>
<pdfrwt beam="2">  1       21 0.26295674E-03 0.20621955E+02</pdfrwt>
<totfact> 0.13141152E+08</totfact>
</mgrwt>
</event>
<event>
 4    1  0.7841599E+004  0.2424173E+02  0.7546771E-02  0.1672138E+00
         21   -1    0    0  501  502  0.00000000000E+00  0.00000000000E+00  0.31401147240E+01  0.31401147240E+01  0.00000000000E+00 0. -1.
         21   -1    0    0  502  503 -0.00000000000E+00 -0.00000000000E+00 -0.20489774394E+03  0.20489774394E+03  0.00000000000E+00 0. -1.
          5    1    1    2  501    0  0.13962383338E+02  0.19816993842E+02 -0.13149552493E+03  0.13371138497E+03  0.00000000000E+00 0. -1.
         -5    1    1    2    0  503 -0.13962383338E+02 -0.19816993842E+02 -0.70262104287E+02  0.74326473697E+02  0.00000000000E+00 0.  1.
<mgrwt>
<rscale>  2 0.24241728E+02</rscale>
<asrwt>0</asrwt>
<pdfrwt beam="1">  1       21 0.48309449E-03 0.24241728E+02</pdfrwt>
<pdfrwt beam="2">  1       21 0.31522735E-01 0.24241728E+02</pdfrwt>
<totfact> 0.81800369E+07</totfact>
</mgrwt>
</event>
<event>
 4    1  0.7841599E+004  0.2089394E+02  0.7546771E-02  0.1728114E+00
         21   -1    0    0  503  502  0.00000000000E+00  0.00000000000E+00  0.27029899018E+02  0.27029899018E+02  0.00000000000E+00 0. -1.
         21   -1    0    0  501  503 -0.00000000000E+00 -0.00000000000E+00 -0.16883760322E+02  0.16883760322E+02  0.00000000000E+00 0. -1.
          5    1    1    2  501    0 -0.17396958323E+00 -0.20893220106E+02  0.96476234056E+01  0.23013768687E+02  0.00000000000E+00 0.  1.
         -5    1    1    2    0  502  0.17396958323E+00  0.20893220106E+02  0.49851529047E+00  0.20899890653E+02  0.00000000000E+00 0. -1.
<mgrwt>
<rscale>  2 0.20893944E+02</rscale>
<asrwt>0</asrwt>
<pdfrwt beam="1">  1       21 0.41584460E-02 0.20893944E+02</pdfrwt>
<pdfrwt beam="2">  1       21 0.25975016E-02 0.20893944E+02</pdfrwt>
<totfact> 0.18624656E+08</totfact>
</mgrwt>
</event>
<event>
 4    1  0.7841599E+004  0.2796205E+02  0.7546771E-02  0.1621773E+00
         21   -1    0    0  503  502  0.00000000000E+00  0.00000000000E+00  0.30269810698E+03  0.30269810698E+03  0.00000000000E+00 0. -1.
         21   -1    0    0  501  503 -0.00000000000E+00 -0.00000000000E+00 -0.28465594134E+01  0.28465594134E+01  0.00000000000E+00 0. -1.
          4    1    1    2  501    0 -0.39455957522E+01 -0.27682281604E+02  0.19640984632E+03  0.19839028246E+03  0.00000000000E+00 0.  1.
         -4    1    1    2    0  502  0.39455957522E+01  0.27682281604E+02  0.10344170124E+03  0.10715438393E+03  0.00000000000E+00 0. -1.
<mgrwt>
<rscale>  2 0.27962054E+02</rscale>
<asrwt>0</asrwt>
<pdfrwt beam="1">  1       21 0.46568914E-01 0.27962054E+02</pdfrwt>
<pdfrwt beam="2">  1       21 0.43793246E-03 0.27962054E+02</pdfrwt>
<totfact> 0.46835195E+07</totfact>
</mgrwt>
</event>
<event>
 4    1  0.7841599E+004  0.2472132E+02  0.7546771E-02  0.1665037E+00
         21   -1    0    0  501  502  0.00000000000E+00  0.00000000000E+00  0.15978404433E+02  0.15978404433E+02  0.00000000000E+00 0.  1.
         21   -1    0    0  502  503 -0.00000000000E+00 -0.00000000000E+00 -0.41441357510E+02  0.41441357510E+02  0.00000000000E+00 0.  1.
          2    1    1    2  501    0  0.91461943885E+01  0.22967164120E+02 -0.47619623295E+01  0.25175777738E+02  0.00000000000E+00 0.  1.
         -2    1    1    2    0  503 -0.91461943885E+01 -0.22967164120E+02 -0.20700990748E+02  0.32243984205E+02  0.00000000000E+00 0. -1.
<mgrwt>
<rscale>  2 0.24721317E+02</rscale>
<asrwt>0</asrwt>
<pdfrwt beam="1">  1       21 0.24582161E-02 0.24721317E+02</pdfrwt>
<pdfrwt beam="2">  1       21 0.63755934E-02 0.24721317E+02</pdfrwt>
<totfact> 0.10798326E+08</totfact>
</mgrwt>
</event>
<event>
 4    1  0.7841599E+004  0.3877505E+02  0.7546771E-02  0.1517424E+00
         21   -1    0    0  503  502  0.00000000000E+00  0.00000000000E+00  0.54688215646E+02  0.54688215646E+02  0.00000000000E+00 0. -1.
         21   -1    0    0  501  503 -0.00000000000E+00 -0.00000000000E+00 -0.28883658626E+02  0.28883658626E+02  0.00000000000E+00 0. -1.
          3    1    1    2  501    0  0.27276219570E+02  0.27559257890E+02  0.37311340443E+01  0.38954155244E+02  0.00000000000E+00 0. -1.
         -3    1    1    2    0  502 -0.27276219570E+02 -0.27559257890E+02  0.22073422975E+02  0.44617719029E+02  0.00000000000E+00 0.  1.
<mgrwt>
<rscale>  2 0.38775054E+02</rscale>
<asrwt>0</asrwt>
<pdfrwt beam="1">  1       21 0.84135716E-02 0.38775054E+02</pdfrwt>
<pdfrwt beam="2">  1       21 0.44436398E-02 0.38775054E+02</pdfrwt>
<totfact> 0.29704079E+07</totfact>
</mgrwt>
</event>
<event>
 4    1  0.7841599E+004  0.6523971E+02  0.7546771E-02  0.1377072E+00
         21   -1    0    0  503  502  0.00000000000E+00  0.00000000000E+00  0.35243855264E+02  0.35243855264E+02  0.00000000000E+00 0.  1.
         21   -1    0    0  501  503 -0.00000000000E+00 -0.00000000000E+00 -0.14004305523E+03  0.14004305523E+03  0.00000000000E+00 0.  1.
          3    1    1    2  501    0 -0.64706397411E+02  0.83247486091E+01 -0.19881746443E+02  0.68201929202E+02  0.00000000000E+00 0.  1.
         -3    1    1    2    0  502  0.64706397411E+02 -0.83247486091E+01 -0.84917453521E+02  0.10708498129E+03  0.00000000000E+00 0. -1.
<mgrwt>
<rscale>  2 0.65239707E+02</rscale>
<asrwt>0</asrwt>
<pdfrwt beam="1">  1       21 0.54221317E-02 0.65239707E+02</pdfrwt>
<pdfrwt beam="2">  1       21 0.21545085E-01 0.65239707E+02</pdfrwt>
<totfact> 0.44517282E+06</totfact>
</mgrwt>
</event>
<event>
 4    1  0.7841599E+004  0.2036239E+02  0.7546771E-02  0.1738216E+00
         21   -1    0    0  501  502  0.00000000000E+00  0.00000000000E+00  0.61503636765E+02  0.61503636765E+02  0.00000000000E+00 0.  1.
         21   -1    0    0  502  503 -0.00000000000E+00 -0.00000000000E+00 -0.67442938093E+01  0.67442938093E+01  0.00000000000E+00 0.  1.
          5    1    1    2  501    0  0.64714088535E+00 -0.20352100289E+02  0.28074178545E+02  0.34681209300E+02  0.00000000000E+00 0. -1.
         -5    1    1    2    0  503 -0.64714088535E+00  0.20352100289E+02  0.26685164411E+02  0.33566721275E+02  0.00000000000E+00 0.  1.
<mgrwt>
<rscale>  2 0.20362386E+02</rscale>
<asrwt>0</asrwt>
<pdfrwt beam="1">  1       21 0.94620976E-02 0.20362386E+02</pdfrwt>
<pdfrwt beam="2">  1       21 0.10375837E-02 0.20362386E+02</pdfrwt>
<totfact> 0.19911012E+08</totfact>
</mgrwt>
</event>
<event>
 4    1  0.7841599E+004  0.2074409E+02  0.7546771E-02  0.1730923E+00
         21   -1    0    0  503  502  0.00000000000E+00  0.00000000000E+00  0.20706564401E+02  0.20706564401E+02  0.00000000000E+00 0.  1.
         21   -1    0    0  501  503 -0.00000000000E+00 -0.00000000000E+00 -0.34830455384E+02  0.34830455384E+02  0.00000000000E+00 0.  1.
          3    1    1    2  501    0  0.14975109266E+02 -0.14354903355E+02  0.10573736905E+02  0.23283493294E+02  0.00000000000E+00 0.  1.
         -3    1    1    2    0  502 -0.14975109266E+02  0.14354903355E+02 -0.24697627887E+02  0.32253526491E+02  0.00000000000E+00 0. -1.
<mgrwt>
<rscale>  2 0.20744087E+02</rscale>
<asrwt>0</asrwt>
<pdfrwt beam="1">  1       21 0.31856253E-02 0.20744087E+02</pdfrwt>
<pdfrwt beam="2">  1       21 0.53585316E-02 0.20744087E+02</pdfrwt>
<totfact> 0.90725189E+07</totfact>
</mgrwt>
</event>
<event>
 4    1  0.7841599E+004  0.4274902E+02  0.7546771E-02  0.1488904E+00
         21   -1    0    0  501  502  0.00000000000E+00  0.00000000000E+00  0.33477013158E+02  0.33477013158E+02  0.00000000000E+00 0.  1.
         21   -1    0    0  502  503 -0.00000000000E+00 -0.00000000000E+00 -0.12802355613E+03  0.12802355613E+03  0.00000000000E+00 0.  1.
          2    1    1    2  501    0 -0.60048991843E+01 -0.42325164476E+02  0.13884155623E+02  0.44947170540E+02  0.00000000000E+00 0.  1.
         -2    1    1    2    0  503  0.60048991843E+01  0.42325164476E+02 -0.10843069859E+03  0.11655339875E+03  0.00000000000E+00 0. -1.
<mgrwt>
<rscale>  2 0.42749016E+02</rscale>
<asrwt>0</asrwt>
<pdfrwt beam="1">  1       21 0.51503097E-02 0.42749016E+02</pdfrwt>
<pdfrwt beam="2">  1       21 0.19695932E-01 0.42749016E+02</pdfrwt>
<totfact> 0.54793273E+06</totfact>
</mgrwt>
</event>
<event>
 4    1  0.7841599E+004  0.2545866E+02  0.7546771E-02  0.1654500E+00
         21   -1    0    0  501  502  0.00000000000E+00  0.00000000000E+00  0.33098160938E+02  0.33098160938E+02  0.00000000000E+00 0.  1.
         21   -1    0    0  502  503 -0.00000000000E+00 -0.00000000000E+00 -0.20297622034E+02  0.20297622034E+02  0.00000000000E+00 0.  1.
          5    1    1    2  501    0  0.24970898458E+02 -0.49595981719E+01  0.13888947898E+01  0.25496517656E+02  0.00000000000E+00 0. -1.
         -5    1    1    2    0  503 -0.24970898458E+02  0.49595981719E+01  0.11411644114E+02  0.27899265317E+02  0.00000000000E+00 0.  1.
<mgrwt>
<rscale>  2 0.25458660E+02</rscale>
<asrwt>0</asrwt>
<pdfrwt beam="1">  1       21 0.50920247E-02 0.25458660E+02</pdfrwt>
<pdfrwt beam="2">  1       21 0.31227111E-02 0.25458660E+02</pdfrwt>
<totfact> 0.10761873E+08</totfact>
</mgrwt>
</event>
<event>
 4    1  0.7841599E+004  0.2397841E+02  0.7546771E-02  0.1676124E+00
         21   -1    0    0  503  502  0.00000000000E+00  0.00000000000E+00  0.38329651865E+01  0.38329651865E+01  0.00000000000E+00 0.  1.
         21   -1    0    0  501  503 -0.00000000000E+00 -0.00000000000E+00 -0.21559190522E+03  0.21559190522E+03  0.00000000000E+00 0.  1.
          2    1    1    2  501    0 -0.11635852990E+02 -0.20965952283E+02 -0.45366572162E+02  0.51313644381E+02  0.00000000000E+00 0.  1.
         -2    1    1    2    0  502  0.11635852990E+02  0.20965952283E+02 -0.16639236787E+03  0.16811122602E+03  0.00000000000E+00 0. -1.
<mgrwt>
<rscale>  2 0.23978412E+02</rscale>
<asrwt>0</asrwt>
<pdfrwt beam="1">  1       21 0.58968703E-03 0.23978412E+02</pdfrwt>
<pdfrwt beam="2">  1       21 0.33167981E-01 0.23978412E+02</pdfrwt>
<totfact> 0.55312239E+07</totfact>
</mgrwt>
</event>
<event>
 4    1  0.7841599E+004  0.4361230E+02  0.7546771E-02  0.1483195E+00
         21   -1    0    0  501  502  0.00000000000E+00  0.00000000000E+00  0.79480705381E+00  0.79480705381E+00  0.00000000000E+00 0. -1.
         21   -1    0    0  502  503 -0.00000000000E+00 -0.00000000000E+00 -0.23963456798E+04  0.23963456798E+04  0.00000000000E+00 0. -1.
          5    1    1    2  501    0 -0.40749754967E+02  0.15539947229E+02 -0.12420588641E+04  0.12428243055E+04  0.00000000000E+00 0. -1.
         -5    1    1    2    0  503  0.40749754967E+02 -0.15539947229E+02 -0.11534920087E+04  0.11543161814E+04  0.00000000000E+00 0.  1.
<mgrwt>
<rscale>  2 0.43612297E+02</rscale>
<asrwt>0</asrwt>
<pdfrwt beam="1">  1       21 0.12227822E-03 0.43612297E+02</pdfrwt>
<pdfrwt beam="2">  1       21 0.36866794E+00 0.43612297E+02</pdfrwt>
<totfact> 0.15630716E+06</totfact>
</mgrwt>
</event>
<event>
 4    1  0.7841599E+004  0.2094646E+02  0.7546771E-02  0.1727136E+00
         21   -1    0    0  501  502  0.00000000000E+00  0.00000000000E+00  0.62001427250E+02  0.62001427250E+02  0.00000000000E+00 0. -1.
         21   -1    0    0  502  503 -0.00000000000E+00 -0.00000000000E+00 -0.73835005190E+01  0.73835005190E+01  0.00000000000E+00 0. -1.
          5    1    1    2  501    0  0.10736409328E+02 -0.17985656005E+02  0.20235049426E+02  0.29124071358E+02  0.00000000000E+00 0. -1.
         -5    1    1    2    0  503 -0.10736409328E+02  0.17985656005E+02  0.34382877305E+02  0.40260856411E+02  0.00000000000E+00 0.  1.
<mgrwt>
<rscale>  2 0.20946463E+02</rscale>
<asrwt>0</asrwt>
<pdfrwt beam="1">  1       21 0.95386808E-02 0.20946463E+02</pdfrwt>
<pdfrwt beam="2">  1       21 0.11359232E-02 0.20946463E+02</pdfrwt>
<totfact> 0.17307938E+08</totfact>
</mgrwt>
</event>
<event>
 4    1  0.7841599E+004  0.2111094E+02  0.7546771E-02  0.1724097E+00
         21   -1    0    0  501  502  0.00000000000E+00  0.00000000000E+00  0.18078508270E+03  0.18078508270E+03  0.00000000000E+00 0.  1.
         21   -1    0    0  502  503 -0.00000000000E+00 -0.00000000000E+00 -0.30059769947E+01  0.30059769947E+01  0.00000000000E+00 0.  1.
          2    1    1    2  501    0 -0.45888381492E+01 -0.20606174077E+02  0.12786666355E+03  0.12959766778E+03  0.00000000000E+00 0.  1.
         -2    1    1    2    0  503  0.45888381492E+01  0.20606174077E+02  0.49912442151E+02  0.54193391914E+02  0.00000000000E+00 0. -1.
<mgrwt>
<rscale>  2 0.21110941E+02</rscale>
<asrwt>0</asrwt>
<pdfrwt beam="1">  1       21 0.27813081E-01 0.21110941E+02</pdfrwt>
<pdfrwt beam="2">  1       21 0.46245814E-03 0.21110941E+02</pdfrwt>
<totfact> 0.10549522E+08</totfact>
</mgrwt>
</event>
<event>
 4    1  0.7841599E+004  0.2524218E+02  0.7546771E-02  0.1657548E+00
         21   -1    0    0  503  502  0.00000000000E+00  0.00000000000E+00  0.36497583596E+01  0.36497583596E+01  0.00000000000E+00 0. -1.
         21   -1    0    0  501  503 -0.00000000000E+00 -0.00000000000E+00 -0.17467735480E+03  0.17467735480E+03  0.00000000000E+00 0. -1.
          3    1    1    2  501    0 -0.25223099914E+02  0.98116621171E+00 -0.87640460525E+02  0.91203167584E+02  0.00000000000E+00 0. -1.
         -3    1    1    2    0  502  0.25223099914E+02 -0.98116621171E+00 -0.83387135915E+02  0.87123945575E+02  0.00000000000E+00 0.  1.
<mgrwt>
<rscale>  2 0.25242176E+02</rscale>
<asrwt>0</asrwt>
<pdfrwt beam="1">  1       21 0.56150138E-03 0.25242176E+02</pdfrwt>
<pdfrwt beam="2">  1       21 0.26873435E-01 0.25242176E+02</pdfrwt>
<totfact> 0.88407188E+07</totfact>
</mgrwt>
</event>
<event>
 4    1  0.7841599E+004  0.2198964E+02  0.7546771E-02  0.1708431E+00
         21   -1    0    0  503  502  0.00000000000E+00  0.00000000000E+00  0.49604443787E+02  0.49604443787E+02  0.00000000000E+00 0.  1.
         21   -1    0    0  501  503 -0.00000000000E+00 -0.00000000000E+00 -0.97488120210E+01  0.97488120210E+01  0.00000000000E+00 0.  1.
          2    1    1    2  501    0  0.12139219471E+02  0.18335310296E+02  0.20198207655E+02  0.29858195617E+02  0.00000000000E+00 0. -1.
         -2    1    1    2    0  502 -0.12139219471E+02 -0.18335310296E+02  0.19657424112E+02  0.29495060192E+02  0.00000000000E+00 0.  1.
<mgrwt>
<rscale>  2 0.21989640E+02</rscale>
<asrwt>0</asrwt>
<pdfrwt beam="1">  1       21 0.76314527E-02 0.21989640E+02</pdfrwt>
<pdfrwt beam="2">  1       21 0.14998173E-02 0.21989640E+02</pdfrwt>
<totfact> 0.16626559E+08</totfact>
</mgrwt>
</event>
<event>
 4    1  0.7841599E+004  0.4169958E+02  0.7546771E-02  0.1496064E+00
         21   -1    0    0  501  502  0.00000000000E+00  0.00000000000E+00  0.15571347652E+02  0.15571347652E+02  0.00000000000E+00 0. -1.
         21   -1    0    0  502  503 -0.00000000000E+00 -0.00000000000E+00 -0.11316267165E+03  0.11316267165E+03  0.00000000000E+00 0. -1.
          5    1    1    2  501    0 -0.31051122669E+02 -0.27833116270E+02 -0.56187857385E+02  0.69970921802E+02  0.00000000000E+00 0. -1.
         -5    1    1    2    0  503  0.31051122669E+02  0.27833116270E+02 -0.41403466612E+02  0.58763097500E+02  0.00000000000E+00 0.  1.
<mgrwt>
<rscale>  2 0.41699575E+02</rscale>
<asrwt>0</asrwt>
<pdfrwt beam="1">  1       21 0.23955920E-02 0.41699575E+02</pdfrwt>
<pdfrwt beam="2">  1       21 0.17409641E-01 0.41699575E+02</pdfrwt>
<totfact> 0.23161631E+07</totfact>
</mgrwt>
</event>
<event>
 4    1  0.7841599E+004  0.2162832E+02  0.7546771E-02  0.1714760E+00
         21   -1    0    0  503  502  0.00000000000E+00  0.00000000000E+00  0.11789033087E+01  0.11789033087E+01  0.00000000000E+00 0.  1.
         21   -1    0    0  501  503 -0.00000000000E+00 -0.00000000000E+00 -0.42906733752E+03  0.42906733752E+03  0.00000000000E+00 0.  1.
          4    1    1    2  501    0  0.20841993352E+02  0.57788697816E+01 -0.27294168638E+03  0.27379727571E+03  0.00000000000E+00 0.  1.
         -4    1    1    2    0  502 -0.20841993352E+02 -0.57788697816E+01 -0.15494674783E+03  0.15644896511E+03  0.00000000000E+00 0. -1.
<mgrwt>
<rscale>  2 0.21628315E+02</rscale>
<asrwt>0</asrwt>
<pdfrwt beam="1">  1       21 0.18136981E-03 0.21628315E+02</pdfrwt>
<pdfrwt beam="2">  1       21 0.66010336E-01 0.21628315E+02</pdfrwt>
<totfact> 0.79993077E+07</totfact>
</mgrwt>
</event>
<event>
 4    1  0.7841599E+004  0.2071266E+02  0.7546771E-02  0.1731516E+00
         21   -1    0    0  503  502  0.00000000000E+00  0.00000000000E+00  0.54060065136E+02  0.54060065136E+02  0.00000000000E+00 0. -1.
         21   -1    0    0  501  503 -0.00000000000E+00 -0.00000000000E+00 -0.79359971102E+01  0.79359971102E+01  0.00000000000E+00 0. -1.
          2    1    1    2  501    0  0.20619584256E+02 -0.19613338547E+01  0.23182088788E+02  0.31087349934E+02  0.00000000000E+00 0. -1.
         -2    1    1    2    0  502 -0.20619584256E+02  0.19613338547E+01  0.22941979238E+02  0.30908712312E+02  0.00000000000E+00 0.  1.
<mgrwt>
<rscale>  2 0.20712655E+02</rscale>
<asrwt>0</asrwt>
<pdfrwt beam="1">  1       21 0.83169329E-02 0.20712655E+02</pdfrwt>
<pdfrwt beam="2">  1       21 0.12209227E-02 0.20712655E+02</pdfrwt>
<totfact> 0.19361462E+08</totfact>
</mgrwt>
</event>
<event>
 4    1  0.7841599E+004  0.2291844E+02  0.7546771E-02  0.1692836E+00
         21   -1    0    0  503  502  0.00000000000E+00  0.00000000000E+00  0.14595358173E+02  0.14595358173E+02  0.00000000000E+00 0.  1.
         21   -1    0    0  501  503 -0.00000000000E+00 -0.00000000000E+00 -0.43586649500E+02  0.43586649500E+02  0.00000000000E+00 0.  1.
          4    1    1    2  501    0  0.22635796887E+02 -0.35882374528E+01 -0.23490088317E+01  0.23038502365E+02  0.00000000000E+00 0.  1.
         -4    1    1    2    0  502 -0.22635796887E+02  0.35882374528E+01 -0.26642282496E+02  0.35143505308E+02  0.00000000000E+00 0. -1.
<mgrwt>
<rscale>  2 0.22918437E+02</rscale>
<asrwt>0</asrwt>
<pdfrwt beam="1">  1       21 0.22454397E-02 0.22918437E+02</pdfrwt>
<pdfrwt beam="2">  1       21 0.67056384E-02 0.22918437E+02</pdfrwt>
<totfact> 0.11201087E+08</totfact>
</mgrwt>
</event>
<event>
 4    1  0.7841599E+004  0.2792884E+02  0.7546771E-02  0.1622180E+00
         21   -1    0    0  501  502  0.00000000000E+00  0.00000000000E+00  0.56842313565E+01  0.56842313565E+01  0.00000000000E+00 0.  1.
         21   -1    0    0  502  503 -0.00000000000E+00 -0.00000000000E+00 -0.15574597510E+03  0.15574597510E+03  0.00000000000E+00 0.  1.
          5    1    1    2  501    0 -0.13427909535E+02 -0.24489006235E+02 -0.10286484173E+03  0.10658891051E+03  0.00000000000E+00 0. -1.
         -5    1    1    2    0  503  0.13427909535E+02  0.24489006235E+02 -0.47196902022E+02  0.54841295949E+02  0.00000000000E+00 0.  1.
<mgrwt>
<rscale>  2 0.27928841E+02</rscale>
<asrwt>0</asrwt>
<pdfrwt beam="1">  1       21 0.87449697E-03 0.27928841E+02</pdfrwt>
<pdfrwt beam="2">  1       21 0.23960924E-01 0.27928841E+02</pdfrwt>
<totfact> 0.57388934E+07</totfact>
</mgrwt>
</event>
<event>
 4    1  0.7841599E+004  0.2101591E+02  0.7546771E-02  0.1725849E+00
         21   -1    0    0  503  502  0.00000000000E+00  0.00000000000E+00  0.71675787032E+02  0.71675787032E+02  0.00000000000E+00 0. -1.
         21   -1    0    0  501  503 -0.00000000000E+00 -0.00000000000E+00 -0.80685637867E+01  0.80685637867E+01  0.00000000000E+00 0. -1.
          5    1    1    2  501    0 -0.21010834520E+02  0.46191663471E+00  0.12421826557E+02  0.24412503133E+02  0.00000000000E+00 0.  1.
         -5    1    1    2    0  502  0.21010834520E+02 -0.46191663471E+00  0.51185396688E+02  0.55331847686E+02  0.00000000000E+00 0. -1.
<mgrwt>
<rscale>  2 0.21015911E+02</rscale>
<asrwt>0</asrwt>
<pdfrwt beam="1">  1       21 0.11027044E-01 0.21015911E+02</pdfrwt>
<pdfrwt beam="2">  1       21 0.12413176E-02 0.21015911E+02</pdfrwt>
<totfact> 0.11933929E+08</totfact>
</mgrwt>
</event>
<event>
 4    1  0.7841599E+004  0.3895758E+02  0.7546771E-02  0.1516026E+00
         21   -1    0    0  501  502  0.00000000000E+00  0.00000000000E+00  0.18073469457E+02  0.18073469457E+02  0.00000000000E+00 0. -1.
         21   -1    0    0  502  503 -0.00000000000E+00 -0.00000000000E+00 -0.90662372027E+02  0.90662372027E+02  0.00000000000E+00 0. -1.
          4    1    1    2  501    0 -0.12258212552E+02 -0.36978769052E+02 -0.21527036799E+02  0.44509621981E+02  0.00000000000E+00 0.  1.
         -4    1    1    2    0  503  0.12258212552E+02  0.36978769052E+02 -0.51061865771E+02  0.64226219502E+02  0.00000000000E+00 0. -1.
<mgrwt>
<rscale>  2 0.38957581E+02</rscale>
<asrwt>0</asrwt>
<pdfrwt beam="1">  1       21 0.27805338E-02 0.38957581E+02</pdfrwt>
<pdfrwt beam="2">  1       21 0.13948057E-01 0.38957581E+02</pdfrwt>
<totfact> 0.26652493E+07</totfact>
</mgrwt>
</event>
<event>
 4    1  0.7841599E+004  0.2436700E+02  0.7546771E-02  0.1670264E+00
         21   -1    0    0  503  502  0.00000000000E+00  0.00000000000E+00  0.61111577484E+00  0.61111577484E+00  0.00000000000E+00 0.  1.
         21   -1    0    0  501  503 -0.00000000000E+00 -0.00000000000E+00 -0.11739667293E+04  0.11739667293E+04  0.00000000000E+00 0.  1.
          3    1    1    2  501    0  0.15621185282E+01 -0.24316875838E+02 -0.83052065033E+03  0.83087803033E+03  0.00000000000E+00 0. -1.
         -3    1    1    2    0  502 -0.15621185282E+01  0.24316875838E+02 -0.34283496320E+03  0.34369981474E+03  0.00000000000E+00 0.  1.
<mgrwt>
<rscale>  2 0.24367000E+02</rscale>
<asrwt>0</asrwt>
<pdfrwt beam="1">  1       21 0.94017306E-04 0.24367000E+02</pdfrwt>
<pdfrwt beam="2">  1       21 0.18061124E+00 0.24367000E+02</pdfrwt>
<totfact> 0.22164154E+07</totfact>
</mgrwt>
</event>
<event>
 4    1  0.7841599E+004  0.2128733E+02  0.7546771E-02  0.1720877E+00
         21   -1    0    0  501  502  0.00000000000E+00  0.00000000000E+00  0.11629564198E+01  0.11629564198E+01  0.00000000000E+00 0. -1.
         21   -1    0    0  502  503 -0.00000000000E+00 -0.00000000000E+00 -0.39218229907E+03  0.39218229907E+03  0.00000000000E+00 0. -1.
          4    1    1    2  501    0  0.64838694754E+01 -0.20275846249E+02 -0.17971819480E+03  0.18097452872E+03  0.00000000000E+00 0. -1.
         -4    1    1    2    0  503 -0.64838694754E+01  0.20275846249E+02 -0.21130114785E+03  0.21237072677E+03  0.00000000000E+00 0.  1.
<mgrwt>
<rscale>  2 0.21287332E+02</rscale>
<asrwt>0</asrwt>
<pdfrwt beam="1">  1       21 0.17891600E-03 0.21287332E+02</pdfrwt>
<pdfrwt beam="2">  1       21 0.60335864E-01 0.21287332E+02</pdfrwt>
<totfact> 0.97323464E+07</totfact>
</mgrwt>
</event>
<event>
 4    1  0.7841599E+004  0.3162084E+02  0.7546771E-02  0.1580834E+00
         21   -1    0    0  501  502  0.00000000000E+00  0.00000000000E+00  0.12002579572E+03  0.12002579572E+03  0.00000000000E+00 0. -1.
         21   -1    0    0  502  503 -0.00000000000E+00 -0.00000000000E+00 -0.84309690997E+01  0.84309690997E+01  0.00000000000E+00 0. -1.
          1    1    1    2  501    0 -0.11745048587E+02  0.29358665917E+02  0.62808070909E+02  0.70318782712E+02  0.00000000000E+00 0. -1.
         -1    1    1    2    0  503  0.11745048587E+02 -0.29358665917E+02  0.48786755711E+02  0.58137982107E+02  0.00000000000E+00 0.  1.
<mgrwt>
<rscale>  2 0.31620839E+02</rscale>
<asrwt>0</asrwt>
<pdfrwt beam="1">  1       21 0.18465506E-01 0.31620839E+02</pdfrwt>
<pdfrwt beam="2">  1       21 0.12970723E-02 0.31620839E+02</pdfrwt>
<totfact> 0.51429628E+07</totfact>
</mgrwt>
</event>
<event>
 4    1  0.7841599E+004  0.2040238E+02  0.7546771E-02  0.1737443E+00
         21   -1    0    0  503  502  0.00000000000E+00  0.00000000000E+00  0.58470117365E+01  0.58470117365E+01  0.00000000000E+00 0. -1.
         21   -1    0    0  501  503 -0.00000000000E+00 -0.00000000000E+00 -0.74287841555E+02  0.74287841555E+02  0.00000000000E+00 0. -1.
          1    1    1    2  501    0  0.16537083581E+02  0.11949136986E+02 -0.42400604013E+02  0.47053886436E+02  0.00000000000E+00 0. -1.
         -1    1    1    2    0  502 -0.16537083581E+02 -0.11949136986E+02 -0.26040225805E+02  0.33080966855E+02  0.00000000000E+00 0.  1.
<mgrwt>
<rscale>  2 0.20402378E+02</rscale>
<asrwt>0</asrwt>
<pdfrwt beam="1">  1       21 0.89954025E-03 0.20402378E+02</pdfrwt>
<pdfrwt beam="2">  1       21 0.11428899E-01 0.20402378E+02</pdfrwt>
<totfact> 0.18057903E+08</totfact>
</mgrwt>
</event>
<event>
 4    1  0.7841599E+004  0.2690993E+02  0.7546771E-02  0.1634993E+00
         21   -1    0    0  501  502  0.00000000000E+00  0.00000000000E+00  0.12213159093E+02  0.12213159093E+02  0.00000000000E+00 0. -1.
         21   -1    0    0  502  503 -0.00000000000E+00 -0.00000000000E+00 -0.64121978936E+02  0.64121978936E+02  0.00000000000E+00 0. -1.
          3    1    1    2  501    0 -0.11251098732E+02 -0.24444979181E+02 -0.36429500000E+02  0.45290757336E+02  0.00000000000E+00 0. -1.
         -3    1    1    2    0  503  0.11251098732E+02  0.24444979181E+02 -0.15479319843E+02  0.31044380693E+02  0.00000000000E+00 0.  1.
<mgrwt>
<rscale>  2 0.26909928E+02</rscale>
<asrwt>0</asrwt>
<pdfrwt beam="1">  1       21 0.18789476E-02 0.26909928E+02</pdfrwt>
<pdfrwt beam="2">  1       21 0.98649198E-02 0.26909928E+02</pdfrwt>
<totfact> 0.81763486E+07</totfact>
</mgrwt>
</event>
<event>
 4    1  0.7841599E+004  0.3151921E+02  0.7546771E-02  0.1581878E+00
         21   -1    0    0  503  502  0.00000000000E+00  0.00000000000E+00  0.14574995640E+03  0.14574995640E+03  0.00000000000E+00 0.  1.
         21   -1    0    0  501  503 -0.00000000000E+00 -0.00000000000E+00 -0.88779325958E+01  0.88779325958E+01  0.00000000000E+00 0.  1.
          2    1    1    2  501    0  0.22575019266E+02 -0.21996112320E+02  0.31178112334E+02  0.44334356212E+02  0.00000000000E+00 0. -1.
         -2    1    1    2    0  502 -0.22575019266E+02  0.21996112320E+02  0.10569391147E+03  0.11029353279E+03  0.00000000000E+00 0.  1.
<mgrwt>
<rscale>  2 0.31519208E+02</rscale>
<asrwt>0</asrwt>
<pdfrwt beam="1">  1       21 0.22423069E-01 0.31519208E+02</pdfrwt>
<pdfrwt beam="2">  1       21 0.13658359E-02 0.31519208E+02</pdfrwt>
<totfact> 0.33671653E+07</totfact>
</mgrwt>
</event>
<event>
 4    1  0.7841599E+004  0.2063113E+02  0.7546771E-02  0.1733061E+00
         21   -1    0    0  501  502  0.00000000000E+00  0.00000000000E+00  0.20975035410E+02  0.20975035410E+02  0.00000000000E+00 0. -1.
         21   -1    0    0  502  503 -0.00000000000E+00 -0.00000000000E+00 -0.21926937182E+02  0.21926937182E+02  0.00000000000E+00 0. -1.
          2    1    1    2  501    0  0.61050965412E+01 -0.19707136815E+02  0.53799624004E+01  0.21321056274E+02  0.00000000000E+00 0. -1.
         -2    1    1    2    0  503 -0.61050965412E+01  0.19707136815E+02 -0.63318641719E+01  0.21580916318E+02  0.00000000000E+00 0.  1.
<mgrwt>
<rscale>  2 0.20631128E+02</rscale>
<asrwt>0</asrwt>
<pdfrwt beam="1">  1       21 0.32269285E-02 0.20631128E+02</pdfrwt>
<pdfrwt beam="2">  1       21 0.33733749E-02 0.20631128E+02</pdfrwt>
<totfact> 0.18389879E+08</totfact>
</mgrwt>
</event>
<event>
 4    1  0.7841599E+004  0.3270718E+02  0.7546771E-02  0.1569958E+00
         21   -1    0    0  503  502  0.00000000000E+00  0.00000000000E+00  0.12311802317E+03  0.12311802317E+03  0.00000000000E+00 0.  1.
         21   -1    0    0  501  503 -0.00000000000E+00 -0.00000000000E+00 -0.10900376217E+02  0.10900376217E+02  0.00000000000E+00 0.  1.
          3    1    1    2  501    0 -0.32447427179E+02 -0.41138535257E+01  0.25926302031E+02  0.41736464374E+02  0.00000000000E+00 0. -1.
         -3    1    1    2    0  502  0.32447427179E+02  0.41138535257E+01  0.86291344925E+02  0.92281935016E+02  0.00000000000E+00 0.  1.
<mgrwt>
<rscale>  2 0.32707175E+02</rscale>
<asrwt>0</asrwt>
<pdfrwt beam="1">  1       21 0.18941233E-01 0.32707175E+02</pdfrwt>
<pdfrwt beam="2">  1       21 0.16769810E-02 0.32707175E+02</pdfrwt>
<totfact> 0.33363924E+07</totfact>
</mgrwt>
</event>
<event>
 4    1  0.7841599E+004  0.2065563E+02  0.7546771E-02  0.1732596E+00
         21   -1    0    0  501  502  0.00000000000E+00  0.00000000000E+00  0.13569914257E+03  0.13569914257E+03  0.00000000000E+00 0. -1.
         21   -1    0    0  502  503 -0.00000000000E+00 -0.00000000000E+00 -0.31548217216E+01  0.31548217216E+01  0.00000000000E+00 0. -1.
          4    1    1    2  501    0 -0.20399567468E+02 -0.32423203269E+01  0.62229408507E+02  0.65567936350E+02  0.00000000000E+00 0.  1.
         -4    1    1    2    0  503  0.20399567468E+02  0.32423203269E+01  0.70314912339E+02  0.73286027940E+02  0.00000000000E+00 0. -1.
<mgrwt>
<rscale>  2 0.20655629E+02</rscale>
<asrwt>0</asrwt>
<pdfrwt beam="1">  1       21 0.20876787E-01 0.20655629E+02</pdfrwt>
<pdfrwt beam="2">  1       21 0.48535729E-03 0.20655629E+02</pdfrwt>
<totfact> 0.16221243E+08</totfact>
</mgrwt>
</event>
<event>
 4    1  0.7841599E+004  0.3008242E+02  0.7546771E-02  0.1597179E+00
         21   -1    0    0  501  502  0.00000000000E+00  0.00000000000E+00  0.62877386485E+02  0.62877386485E+02  0.00000000000E+00 0.  1.
         21   -1    0    0  502  503 -0.00000000000E+00 -0.00000000000E+00 -0.14449498913E+02  0.14449498913E+02  0.00000000000E+00 0.  1.
          4    1    1    2  501    0  0.13945566835E+01 -0.30050083039E+02  0.26645828755E+02  0.40186471219E+02  0.00000000000E+00 0. -1.
         -4    1    1    2    0  503 -0.13945566835E+01  0.30050083039E+02  0.21782058817E+02  0.37140414178E+02  0.00000000000E+00 0.  1.
<mgrwt>
<rscale>  2 0.30082425E+02</rscale>
<asrwt>0</asrwt>
<pdfrwt beam="1">  1       21 0.96734439E-02 0.30082425E+02</pdfrwt>
<pdfrwt beam="2">  1       21 0.22229999E-02 0.30082425E+02</pdfrwt>
<totfact> 0.66917524E+07</totfact>
</mgrwt>
</event>
<event>
 4    1  0.7841599E+004  0.6275606E+02  0.7546771E-02  0.1386617E+00
         21   -1    0    0  503  502  0.00000000000E+00  0.00000000000E+00  0.28128009962E+03  0.28128009962E+03  0.00000000000E+00 0. -1.
         21   -1    0    0  501  503 -0.00000000000E+00 -0.00000000000E+00 -0.14010226315E+02  0.14010226315E+02  0.00000000000E+00 0. -1.
          1    1    1    2  501    0  0.62672375329E+02  0.32397250940E+01  0.12993452265E+03  0.14429588568E+03  0.00000000000E+00 0. -1.
         -1    1    1    2    0  502 -0.62672375329E+02 -0.32397250940E+01  0.13733535066E+03  0.15099444025E+03  0.00000000000E+00 0.  1.
<mgrwt>
<rscale>  2 0.62756055E+02</rscale>
<asrwt>0</asrwt>
<pdfrwt beam="1">  1       21 0.43273857E-01 0.62756055E+02</pdfrwt>
<pdfrwt beam="2">  1       21 0.21554196E-02 0.62756055E+02</pdfrwt>
<totfact> 0.52751469E+06</totfact>
</mgrwt>
</event>
<event>
 4    1  0.7841599E+004  0.2018891E+02  0.7546771E-02  0.1741597E+00
         21   -1    0    0  501  502  0.00000000000E+00  0.00000000000E+00  0.22518671486E+01  0.22518671486E+01  0.00000000000E+00 0. -1.
         21   -1    0    0  502  503 -0.00000000000E+00 -0.00000000000E+00 -0.18179895210E+03  0.18179895210E+03  0.00000000000E+00 0. -1.
          1    1    1    2  501    0 -0.14027972445E+02  0.14519227526E+02 -0.95867313106E+02  0.97970065331E+02  0.00000000000E+00 0. -1.
         -1    1    1    2    0  503  0.14027972445E+02 -0.14519227526E+02 -0.83679771843E+02  0.86080753915E+02  0.00000000000E+00 0.  1.
<mgrwt>
<rscale>  2 0.20188907E+02</rscale>
<asrwt>0</asrwt>
<pdfrwt beam="1">  1       21 0.34644104E-03 0.20188907E+02</pdfrwt>
<pdfrwt beam="2">  1       21 0.27969075E-01 0.20188907E+02</pdfrwt>
<totfact> 0.15725249E+08</totfact>
</mgrwt>
</event>
<event>
 4    1  0.7841599E+004  0.2680893E+02  0.7546771E-02  0.1636301E+00
         21   -1    0    0  503  502  0.00000000000E+00  0.00000000000E+00  0.52539749233E+00  0.52539749233E+00  0.00000000000E+00 0.  1.
         21   -1    0    0  501  503 -0.00000000000E+00 -0.00000000000E+00 -0.13780239410E+04  0.13780239410E+04  0.00000000000E+00 0.  1.
          5    1    1    2  501    0 -0.22116461855E+02  0.15151932593E+02 -0.74767490769E+03  0.74815538930E+03  0.00000000000E+00 0. -1.
         -5    1    1    2    0  502  0.22116461855E+02 -0.15151932593E+02 -0.62982363581E+03  0.63039394918E+03  0.00000000000E+00 0.  1.
<mgrwt>
<rscale>  2 0.26808934E+02</rscale>
<asrwt>0</asrwt>
<pdfrwt beam="1">  1       21 0.80832440E-04 0.26808934E+02</pdfrwt>
<pdfrwt beam="2">  1       21 0.21199829E+00 0.26808934E+02</pdfrwt>
<totfact> 0.18411945E+07</totfact>
</mgrwt>
</event>
<event>
 4    1  0.7841599E+004  0.2684990E+02  0.7546771E-02  0.1635770E+00
         21   -1    0    0  501  502  0.00000000000E+00  0.00000000000E+00  0.13076539101E+04  0.13076539101E+04  0.00000000000E+00 0.  1.
         21   -1    0    0  502  503 -0.00000000000E+00 -0.00000000000E+00 -0.56996067945E+00  0.56996067945E+00  0.00000000000E+00 0.  1.
          1    1    1    2  501    0  0.11522439515E+02  0.24251817739E+02  0.53520375289E+03  0.53587682762E+03  0.00000000000E+00 0.  1.
         -1    1    1    2    0  503 -0.11522439515E+02 -0.24251817739E+02  0.77188019655E+03  0.77234704317E+03  0.00000000000E+00 0. -1.
<mgrwt>
<rscale>  2 0.26849903E+02</rscale>
<asrwt>0</asrwt>
<pdfrwt beam="1">  1       21 0.20117512E+00 0.26849903E+02</pdfrwt>
<pdfrwt beam="2">  1       21 0.87687305E-04 0.26849903E+02</pdfrwt>
<totfact> 0.18829002E+07</totfact>
</mgrwt>
</event>
<event>
 4    1  0.7841599E+004  0.2099474E+02  0.7546771E-02  0.1726241E+00
         21   -1    0    0  501  502  0.00000000000E+00  0.00000000000E+00  0.48481883655E+03  0.48481883655E+03  0.00000000000E+00 0.  1.
         21   -1    0    0  502  503 -0.00000000000E+00 -0.00000000000E+00 -0.10071446421E+01  0.10071446421E+01  0.00000000000E+00 0.  1.
          4    1    1    2  501    0 -0.20828424675E+02 -0.26373635595E+01  0.16613904635E+03  0.16746032868E+03  0.00000000000E+00 0.  1.
         -4    1    1    2    0  503  0.20828424675E+02  0.26373635595E+01  0.31767264555E+03  0.31836565250E+03  0.00000000000E+00 0. -1.
<mgrwt>
<rscale>  2 0.20994737E+02</rscale>
<asrwt>0</asrwt>
<pdfrwt beam="1">  1       21 0.74587327E-01 0.20994737E+02</pdfrwt>
<pdfrwt beam="2">  1       21 0.15494572E-03 0.20994737E+02</pdfrwt>
<totfact> 0.77529655E+07</totfact>
</mgrwt>
</event>
<event>
 4    1  0.7841599E+004  0.2418446E+02  0.7546771E-02  0.1673000E+00
         21   -1    0    0  501  502  0.00000000000E+00  0.00000000000E+00  0.86186795984E+01  0.86186795984E+01  0.00000000000E+00 0.  1.
         21   -1    0    0  502  503 -0.00000000000E+00 -0.00000000000E+00 -0.89192433659E+02  0.89192433659E+02  0.00000000000E+00 0.  1.
          5    1    1    2  501    0  0.24096591702E+02  0.20596623376E+01 -0.16371036519E+02  0.29204430781E+02  0.00000000000E+00 0.  1.
         -5    1    1    2    0  503 -0.24096591702E+02 -0.20596623376E+01 -0.64202717542E+02  0.68606682476E+02  0.00000000000E+00 0. -1.
<mgrwt>
<rscale>  2 0.24184457E+02</rscale>
<asrwt>0</asrwt>
<pdfrwt beam="1">  1       21 0.13259508E-02 0.24184457E+02</pdfrwt>
<pdfrwt beam="2">  1       21 0.13721912E-01 0.24184457E+02</pdfrwt>
<totfact> 0.77907288E+07</totfact>
</mgrwt>
</event>
<event>
 4    1  0.7841599E+004  0.3478466E+02  0.7546771E-02  0.1550521E+00
         21   -1    0    0  501  502  0.00000000000E+00  0.00000000000E+00  0.48606800566E+01  0.48606800566E+01  0.00000000000E+00 0. -1.
         21   -1    0    0  502  503 -0.00000000000E+00 -0.00000000000E+00 -0.53995094077E+03  0.53995094077E+03  0.00000000000E+00 0. -1.
          5    1    1    2  501    0  0.28440455263E+02 -0.20027811126E+02 -0.67558584661E+02  0.75987729769E+02  0.00000000000E+00 0. -1.
         -5    1    1    2    0  503 -0.28440455263E+02  0.20027811126E+02 -0.46753167605E+03  0.46882389106E+03  0.00000000000E+00 0.  1.
<mgrwt>
<rscale>  2 0.34784662E+02</rscale>
<asrwt>0</asrwt>
<pdfrwt beam="1">  1       21 0.74779725E-03 0.34784662E+02</pdfrwt>
<pdfrwt beam="2">  1       21 0.83069340E-01 0.34784662E+02</pdfrwt>
<totfact> 0.67005720E+06</totfact>
</mgrwt>
</event>
<event>
 4    1  0.7841599E+004  0.2004908E+02  0.7546771E-02  0.1744354E+00
         21   -1    0    0  501  502  0.00000000000E+00  0.00000000000E+00  0.38146717006E+01  0.38146717006E+01  0.00000000000E+00 0.  1.
         21   -1    0    0  502  503 -0.00000000000E+00 -0.00000000000E+00 -0.11179181078E+03  0.11179181078E+03  0.00000000000E+00 0.  1.
          4    1    1    2  501    0 -0.42910731563E+01  0.19584491735E+02 -0.67838728462E+02  0.70739371673E+02  0.00000000000E+00 0. -1.
         -4    1    1    2    0  503  0.42910731563E+01 -0.19584491735E+02 -0.40138410619E+02  0.44867110809E+02  0.00000000000E+00 0.  1.
<mgrwt>
<rscale>  2 0.20049080E+02</rscale>
<asrwt>0</asrwt>
<pdfrwt beam="1">  1       21 0.58687260E-03 0.20049080E+02</pdfrwt>
<pdfrwt beam="2">  1       21 0.17198739E-01 0.20049080E+02</pdfrwt>
<totfact> 0.16987129E+08</totfact>
</mgrwt>
</event>
<event>
 4    1  0.7841599E+004  0.2217578E+02  0.7546771E-02  0.1705230E+00
         21   -1    0    0  501  502  0.00000000000E+00  0.00000000000E+00  0.51281259995E+01  0.51281259995E+01  0.00000000000E+00 0. -1.
         21   -1    0    0  502  503 -0.00000000000E+00 -0.00000000000E+00 -0.98838505236E+02  0.98838505236E+02  0.00000000000E+00 0. -1.
          4    1    1    2  501    0 -0.15554886483E+02 -0.15805397579E+02 -0.55825010210E+02  0.60068268255E+02  0.00000000000E+00 0.  1.
         -4    1    1    2    0  503  0.15554886483E+02  0.15805397579E+02 -0.37885369027E+02  0.43898362981E+02  0.00000000000E+00 0. -1.
<mgrwt>
<rscale>  2 0.22175777E+02</rscale>
<asrwt>0</asrwt>
<pdfrwt beam="1">  1       21 0.78894249E-03 0.22175777E+02</pdfrwt>
<pdfrwt beam="2">  1       21 0.15205923E-01 0.22175777E+02</pdfrwt>
<totfact> 0.13938030E+08</totfact>
</mgrwt>
</event>
<event>
 4    1  0.7841599E+004  0.2536657E+02  0.7546771E-02  0.1655792E+00
         21   -1    0    0  501  502  0.00000000000E+00  0.00000000000E+00  0.45260601956E+01  0.45260601956E+01  0.00000000000E+00 0. -1.
         21   -1    0    0  502  503 -0.00000000000E+00 -0.00000000000E+00 -0.16455139799E+03  0.16455139799E+03  0.00000000000E+00 0. -1.
          5    1    1    2  501    0 -0.66719902147E-02 -0.25366566241E+02 -0.11119180469E+03  0.11404858683E+03  0.00000000000E+00 0.  1.
         -5    1    1    2    0  503  0.66719902147E-02  0.25366566241E+02 -0.48833533103E+02  0.55028871356E+02  0.00000000000E+00 0. -1.
<mgrwt>
<rscale>  2 0.25366567E+02</rscale>
<asrwt>0</asrwt>
<pdfrwt beam="1">  1       21 0.69631686E-03 0.25366567E+02</pdfrwt>
<pdfrwt beam="2">  1       21 0.25315603E-01 0.25366567E+02</pdfrwt>
<totfact> 0.71545251E+07</totfact>
</mgrwt>
</event>
<event>
 4    1  0.7841599E+004  0.2613896E+02  0.7546771E-02  0.1645162E+00
         21   -1    0    0  501  502  0.00000000000E+00  0.00000000000E+00  0.11564582891E+02  0.11564582891E+02  0.00000000000E+00 0. -1.
         21   -1    0    0  502  503 -0.00000000000E+00 -0.00000000000E+00 -0.60062103306E+02  0.60062103306E+02  0.00000000000E+00 0. -1.
          2    1    1    2  501    0  0.22922696525E+02 -0.12561666379E+02 -0.28826313596E+02  0.38912746417E+02  0.00000000000E+00 0.  1.
         -2    1    1    2    0  503 -0.22922696525E+02  0.12561666379E+02 -0.19671206819E+02  0.32713939780E+02  0.00000000000E+00 0. -1.
<mgrwt>
<rscale>  2 0.26138965E+02</rscale>
<asrwt>0</asrwt>
<pdfrwt beam="1">  1       21 0.17791666E-02 0.26138965E+02</pdfrwt>
<pdfrwt beam="2">  1       21 0.92403235E-02 0.26138965E+02</pdfrwt>
<totfact> 0.98374417E+07</totfact>
</mgrwt>
</event>
<event>
 4    1  0.7841599E+004  0.2005167E+02  0.7546771E-02  0.1744303E+00
         21   -1    0    0  501  502  0.00000000000E+00  0.00000000000E+00  0.31765521189E+03  0.31765521189E+03  0.00000000000E+00 0.  1.
         21   -1    0    0  502  503 -0.00000000000E+00 -0.00000000000E+00 -0.12991217775E+01  0.12991217775E+01  0.00000000000E+00 0.  1.
          3    1    1    2  501    0  0.88725518933E+01  0.17981855718E+02  0.13261456181E+03  0.13412192705E+03  0.00000000000E+00 0.  1.
         -3    1    1    2    0  503 -0.88725518933E+01 -0.17981855718E+02  0.18374152830E+03  0.18483240661E+03  0.00000000000E+00 0. -1.
<mgrwt>
<rscale>  2 0.20051666E+02</rscale>
<asrwt>0</asrwt>
<pdfrwt beam="1">  1       21 0.48869971E-01 0.20051666E+02</pdfrwt>
<pdfrwt beam="2">  1       21 0.19986514E-03 0.20051666E+02</pdfrwt>
<totfact> 0.12340525E+08</totfact>
</mgrwt>
</event>
<event>
 4    1  0.7841599E+004  0.2349574E+02  0.7546771E-02  0.1683598E+00
         21   -1    0    0  503  502  0.00000000000E+00  0.00000000000E+00  0.46525092409E+03  0.46525092409E+03  0.00000000000E+00 0.  1.
         21   -1    0    0  501  503 -0.00000000000E+00 -0.00000000000E+00 -0.30107562754E+01  0.30107562754E+01  0.00000000000E+00 0.  1.
          3    1    1    2  501    0 -0.13837409202E+02 -0.18988842358E+02  0.41336529371E+03  0.41403250605E+03  0.00000000000E+00 0.  1.
         -3    1    1    2    0  502  0.13837409202E+02  0.18988842358E+02  0.48874874111E+02  0.54229174316E+02  0.00000000000E+00 0. -1.
<mgrwt>
<rscale>  2 0.23495745E+02</rscale>
<asrwt>0</asrwt>
<pdfrwt beam="1">  1       21 0.71577008E-01 0.23495745E+02</pdfrwt>
<pdfrwt beam="2">  1       21 0.46319364E-03 0.23495745E+02</pdfrwt>
<totfact> 0.17647656E+07</totfact>
</mgrwt>
</event>
<event>
 4    1  0.7841599E+004  0.2833647E+02  0.7546771E-02  0.1617240E+00
         21   -1    0    0  503  502  0.00000000000E+00  0.00000000000E+00  0.15563296049E+03  0.15563296049E+03  0.00000000000E+00 0.  1.
         21   -1    0    0  501  503 -0.00000000000E+00 -0.00000000000E+00 -0.53090618428E+01  0.53090618428E+01  0.00000000000E+00 0.  1.
          4    1    1    2  501    0 -0.26574711552E+02 -0.98356566924E+01  0.61645987448E+02  0.67846762672E+02  0.00000000000E+00 0.  1.
         -4    1    1    2    0  502  0.26574711552E+02  0.98356566924E+01  0.88677911204E+02  0.93095259666E+02  0.00000000000E+00 0. -1.
<mgrwt>
<rscale>  2 0.28336468E+02</rscale>
<asrwt>0</asrwt>
<pdfrwt beam="1">  1       21 0.23943529E-01 0.28336468E+02</pdfrwt>
<pdfrwt beam="2">  1       21 0.81677886E-03 0.28336468E+02</pdfrwt>
<totfact> 0.63896427E+07</totfact>
</mgrwt>
</event>
<event>
 4    1  0.7841599E+004  0.2512519E+02  0.7546771E-02  0.1659210E+00
         21   -1    0    0  501  502  0.00000000000E+00  0.00000000000E+00  0.73427409466E+01  0.73427409466E+01  0.00000000000E+00 0. -1.
         21   -1    0    0  502  503 -0.00000000000E+00 -0.00000000000E+00 -0.87558950624E+02  0.87558950624E+02  0.00000000000E+00 0. -1.
          4    1    1    2  501    0 -0.75725885326E+01  0.23956863831E+02 -0.33721402769E+02  0.42052448519E+02  0.00000000000E+00 0. -1.
         -4    1    1    2    0  503  0.75725885326E+01 -0.23956863831E+02 -0.46494806908E+02  0.52849243051E+02  0.00000000000E+00 0.  1.
<mgrwt>
<rscale>  2 0.25125195E+02</rscale>
<asrwt>0</asrwt>
<pdfrwt beam="1">  1       21 0.11296524E-02 0.25125195E+02</pdfrwt>
<pdfrwt beam="2">  1       21 0.13470608E-01 0.25125195E+02</pdfrwt>
<totfact> 0.10348896E+08</totfact>
</mgrwt>
</event>
<event>
 4    1  0.7841599E+004  0.2306336E+02  0.7546771E-02  0.1690485E+00
         21   -1    0    0  501  502  0.00000000000E+00  0.00000000000E+00  0.22633603772E+03  0.22633603772E+03  0.00000000000E+00 0. -1.
         21   -1    0    0  502  503 -0.00000000000E+00 -0.00000000000E+00 -0.23743603229E+01  0.23743603229E+01  0.00000000000E+00 0. -1.
          3    1    1    2  501    0 -0.12971138326E+02 -0.19070083813E+02  0.10042808773E+03  0.10304231816E+03  0.00000000000E+00 0. -1.
         -3    1    1    2    0  503  0.12971138326E+02  0.19070083813E+02  0.12353358966E+03  0.12566807988E+03  0.00000000000E+00 0.  1.
<mgrwt>
<rscale>  2 0.23063359E+02</rscale>
<asrwt>0</asrwt>
<pdfrwt beam="1">  1       21 0.34820912E-01 0.23063359E+02</pdfrwt>
<pdfrwt beam="2">  1       21 0.36528638E-03 0.23063359E+02</pdfrwt>
<totfact> 0.10137293E+08</totfact>
</mgrwt>
</event>
<event>
 4    1  0.7841599E+004  0.2646758E+02  0.7546771E-02  0.1640775E+00
         21   -1    0    0  501  502  0.00000000000E+00  0.00000000000E+00  0.57341960251E+00  0.57341960251E+00  0.00000000000E+00 0.  1.
         21   -1    0    0  502  503 -0.00000000000E+00 -0.00000000000E+00 -0.12279753571E+04  0.12279753571E+04  0.00000000000E+00 0.  1.
          4    1    1    2  501    0  0.69101013015E+01  0.25549624752E+02 -0.56970385433E+03  0.57031834484E+03  0.00000000000E+00 0.  1.
         -4    1    1    2    0  503 -0.69101013015E+01 -0.25549624752E+02 -0.65769808318E+03  0.65823043187E+03  0.00000000000E+00 0. -1.
<mgrwt>
<rscale>  2 0.26467581E+02</rscale>
<asrwt>0</asrwt>
<pdfrwt beam="1">  1       21 0.88219125E-04 0.26467581E+02</pdfrwt>
<pdfrwt beam="2">  1       21 0.18891773E+00 0.26467581E+02</pdfrwt>
<totfact> 0.21920259E+07</totfact>
</mgrwt>
</event>
<event>
 4    1  0.7841599E+004  0.2913484E+02  0.7546771E-02  0.1607854E+00
         21   -1    0    0  503  502  0.00000000000E+00  0.00000000000E+00  0.71913671141E+02  0.71913671141E+02  0.00000000000E+00 0. -1.
         21   -1    0    0  501  503 -0.00000000000E+00 -0.00000000000E+00 -0.12234353321E+02  0.12234353321E+02  0.00000000000E+00 0. -1.
          3    1    1    2  501    0 -0.15501873081E+02 -0.24668415340E+02  0.21944739149E+02  0.36474790757E+02  0.00000000000E+00 0. -1.
         -3    1    1    2    0  502  0.15501873081E+02  0.24668415340E+02  0.37734578671E+02  0.47673233705E+02  0.00000000000E+00 0.  1.
<mgrwt>
<rscale>  2 0.29134838E+02</rscale>
<asrwt>0</asrwt>
<pdfrwt beam="1">  1       21 0.11063641E-01 0.29134838E+02</pdfrwt>
<pdfrwt beam="2">  1       21 0.18822082E-02 0.29134838E+02</pdfrwt>
<totfact> 0.68651056E+07</totfact>
</mgrwt>
</event>
<event>
 4    1  0.7841599E+004  0.2254737E+02  0.7546771E-02  0.1698954E+00
         21   -1    0    0  503  502  0.00000000000E+00  0.00000000000E+00  0.25141966508E+01  0.25141966508E+01  0.00000000000E+00 0. -1.
         21   -1    0    0  501  503 -0.00000000000E+00 -0.00000000000E+00 -0.84231300355E+03  0.84231300355E+03  0.00000000000E+00 0. -1.
          3    1    1    2  501    0  0.21973602397E+02 -0.50541794847E+01 -0.51662202593E+02  0.56368139133E+02  0.00000000000E+00 0.  1.
         -3    1    1    2    0  502 -0.21973602397E+02  0.50541794847E+01 -0.78813660431E+03  0.78845906107E+03  0.00000000000E+00 0. -1.
<mgrwt>
<rscale>  2 0.22547371E+02</rscale>
<asrwt>0</asrwt>
<pdfrwt beam="1">  1       21 0.38679873E-03 0.22547371E+02</pdfrwt>
<pdfrwt beam="2">  1       21 0.12958687E+00 0.22547371E+02</pdfrwt>
<totfact> 0.62865847E+06</totfact>
</mgrwt>
</event>
<event>
 4    1  0.7841599E+004  0.2259878E+02  0.7546771E-02  0.1698097E+00
         21   -1    0    0  503  502  0.00000000000E+00  0.00000000000E+00  0.22194209192E+03  0.22194209192E+03  0.00000000000E+00 0.  1.
         21   -1    0    0  501  503 -0.00000000000E+00 -0.00000000000E+00 -0.23361686170E+01  0.23361686170E+01  0.00000000000E+00 0.  1.
          4    1    1    2  501    0  0.22453054357E+02  0.25622911868E+01  0.96058407005E+02  0.98680912756E+02  0.00000000000E+00 0. -1.
         -4    1    1    2    0  502 -0.22453054357E+02 -0.25622911868E+01  0.12354751630E+03  0.12559734778E+03  0.00000000000E+00 0.  1.
<mgrwt>
<rscale>  2 0.22598783E+02</rscale>
<asrwt>0</asrwt>
<pdfrwt beam="1">  1       21 0.34144921E-01 0.22598783E+02</pdfrwt>
<pdfrwt beam="2">  1       21 0.35941073E-03 0.22598783E+02</pdfrwt>
<totfact> 0.10705012E+08</totfact>
</mgrwt>
</event>
<event>
 4    1  0.7841599E+004  0.3539367E+02  0.7546771E-02  0.1545132E+00
         21   -1    0    0  501  502  0.00000000000E+00  0.00000000000E+00  0.15192716521E+02  0.15192716521E+02  0.00000000000E+00 0.  1.
         21   -1    0    0  502  503 -0.00000000000E+00 -0.00000000000E+00 -0.92808510199E+02  0.92808510199E+02  0.00000000000E+00 0.  1.
          4    1    1    2  501    0 -0.35392428859E+02  0.29615440670E+00 -0.56844457439E+02  0.66962706558E+02  0.00000000000E+00 0.  1.
         -4    1    1    2    0  503  0.35392428859E+02 -0.29615440670E+00 -0.20771336239E+02  0.41038520162E+02  0.00000000000E+00 0. -1.
<mgrwt>
<rscale>  2 0.35393668E+02</rscale>
<asrwt>0</asrwt>
<pdfrwt beam="1">  1       21 0.23373410E-02 0.35393668E+02</pdfrwt>
<pdfrwt beam="2">  1       21 0.14278233E-01 0.35393668E+02</pdfrwt>
<totfact> 0.33078878E+07</totfact>
</mgrwt>
</event>
<event>
 4    1  0.7841599E+004  0.2728391E+02  0.7546771E-02  0.1630210E+00
         21   -1    0    0  501  502  0.00000000000E+00  0.00000000000E+00  0.18626266604E+03  0.18626266604E+03  0.00000000000E+00 0.  1.
         21   -1    0    0  502  503 -0.00000000000E+00 -0.00000000000E+00 -0.51730582845E+01  0.51730582845E+01  0.00000000000E+00 0.  1.
          1    1    1    2  501    0 -0.16621792139E+02 -0.21636259830E+02  0.13619190234E+03  0.13889796966E+03  0.00000000000E+00 0. -1.
         -1    1    1    2    0  503  0.16621792139E+02  0.21636259830E+02  0.44897705415E+02  0.52537754661E+02  0.00000000000E+00 0.  1.
<mgrwt>
<rscale>  2 0.27283909E+02</rscale>
<asrwt>0</asrwt>
<pdfrwt beam="1">  1       21 0.28655790E-01 0.27283909E+02</pdfrwt>
<pdfrwt beam="2">  1       21 0.79585527E-03 0.27283909E+02</pdfrwt>
<totfact> 0.47616690E+07</totfact>
</mgrwt>
</event>
<event>
 4    1  0.7841599E+004  0.3678175E+02  0.7546771E-02  0.1533324E+00
         21   -1    0    0  503  502  0.00000000000E+00  0.00000000000E+00  0.39959490062E+03  0.39959490062E+03  0.00000000000E+00 0.  1.
         21   -1    0    0  501  503 -0.00000000000E+00 -0.00000000000E+00 -0.37765319341E+01  0.37765319341E+01  0.00000000000E+00 0.  1.
          4    1    1    2  501    0 -0.52453608543E+01 -0.36405809418E+02  0.13302485371E+03  0.13801633408E+03  0.00000000000E+00 0.  1.
         -4    1    1    2    0  502  0.52453608543E+01  0.36405809418E+02  0.26279351498E+03  0.26535509847E+03  0.00000000000E+00 0. -1.
<mgrwt>
<rscale>  2 0.36781745E+02</rscale>
<asrwt>0</asrwt>
<pdfrwt beam="1">  1       21 0.61476105E-01 0.36781745E+02</pdfrwt>
<pdfrwt beam="2">  1       21 0.58100523E-03 0.36781745E+02</pdfrwt>
<totfact> 0.18555999E+07</totfact>
</mgrwt>
</event>
<event>
 4    1  0.7841599E+004  0.2147497E+02  0.7546771E-02  0.1717494E+00
         21   -1    0    0  503  502  0.00000000000E+00  0.00000000000E+00  0.12506549901E+02  0.12506549901E+02  0.00000000000E+00 0.  1.
         21   -1    0    0  501  503 -0.00000000000E+00 -0.00000000000E+00 -0.39848802067E+02  0.39848802067E+02  0.00000000000E+00 0.  1.
          5    1    1    2  501    0  0.13068526097E+02  0.17040767404E+02 -0.20822806296E+02  0.29912595843E+02  0.00000000000E+00 0.  1.
         -5    1    1    2    0  502 -0.13068526097E+02 -0.17040767404E+02 -0.65194458702E+01  0.22442756125E+02  0.00000000000E+00 0. -1.
<mgrwt>
<rscale>  2 0.21474965E+02</rscale>
<asrwt>0</asrwt>
<pdfrwt beam="1">  1       21 0.19240846E-02 0.21474965E+02</pdfrwt>
<pdfrwt beam="2">  1       21 0.61305851E-02 0.21474965E+02</pdfrwt>
<totfact> 0.16082333E+08</totfact>
</mgrwt>
</event>
<event>
 4    1  0.7841599E+004  0.3006586E+02  0.7546771E-02  0.1597362E+00
         21   -1    0    0  503  502  0.00000000000E+00  0.00000000000E+00  0.66747323943E+02  0.66747323943E+02  0.00000000000E+00 0. -1.
         21   -1    0    0  501  503 -0.00000000000E+00 -0.00000000000E+00 -0.13770120885E+02  0.13770120885E+02  0.00000000000E+00 0. -1.
          2    1    1    2  501    0  0.30055611891E+02  0.78506676003E+00  0.21317765268E+02  0.36856522516E+02  0.00000000000E+00 0. -1.
         -2    1    1    2    0  502 -0.30055611891E+02 -0.78506676003E+00  0.31659437791E+02  0.43660922313E+02  0.00000000000E+00 0.  1.
<mgrwt>
<rscale>  2 0.30065863E+02</rscale>
<asrwt>0</asrwt>
<pdfrwt beam="1">  1       21 0.10268819E-01 0.30065863E+02</pdfrwt>
<pdfrwt beam="2">  1       21 0.21184802E-02 0.30065863E+02</pdfrwt>
<totfact> 0.65255862E+07</totfact>
</mgrwt>
</event>
<event>
 4    1  0.7841599E+004  0.2629973E+02  0.7546771E-02  0.1643006E+00
         21   -1    0    0  501  502  0.00000000000E+00  0.00000000000E+00  0.54411336067E+01  0.54411336067E+01  0.00000000000E+00 0. -1.
         21   -1    0    0  502  503 -0.00000000000E+00 -0.00000000000E+00 -0.14174963617E+03  0.14174963617E+03  0.00000000000E+00 0. -1.
          3    1    1    2  501    0  0.18642201148E+02  0.18551117898E+02 -0.91797645221E+02  0.95490749851E+02  0.00000000000E+00 0.  1.
         -3    1    1    2    0  503 -0.18642201148E+02 -0.18551117898E+02 -0.44510857338E+02  0.51700019921E+02  0.00000000000E+00 0. -1.
<mgrwt>
<rscale>  2 0.26299727E+02</rscale>
<asrwt>0</asrwt>
<pdfrwt beam="1">  1       21 0.83709756E-03 0.26299727E+02</pdfrwt>
<pdfrwt beam="2">  1       21 0.21807634E-01 0.26299727E+02</pdfrwt>
<totfact> 0.71450802E+07</totfact>
</mgrwt>
</event>
<event>
 4    1  0.7841599E+004  0.4143352E+02  0.7546771E-02  0.1497920E+00
         21   -1    0    0  503  502  0.00000000000E+00  0.00000000000E+00  0.15960719987E+02  0.15960719987E+02  0.00000000000E+00 0.  1.
         21   -1    0    0  501  503 -0.00000000000E+00 -0.00000000000E+00 -0.10763094391E+03  0.10763094391E+03  0.00000000000E+00 0.  1.
          2    1    1    2  501    0  0.35691642278E+02  0.21043837260E+02 -0.47420679077E+02  0.62971876415E+02  0.00000000000E+00 0. -1.
         -2    1    1    2    0  502 -0.35691642278E+02 -0.21043837260E+02 -0.44249544842E+02  0.60619787478E+02  0.00000000000E+00 0.  1.
<mgrwt>
<rscale>  2 0.41433518E+02</rscale>
<asrwt>0</asrwt>
<pdfrwt beam="1">  1       21 0.24554953E-02 0.41433518E+02</pdfrwt>
<pdfrwt beam="2">  1       21 0.16558607E-01 0.41433518E+02</pdfrwt>
<totfact> 0.24305464E+07</totfact>
</mgrwt>
</event>
<event>
 4    1  0.7841599E+004  0.2529711E+02  0.7546771E-02  0.1656771E+00
         21   -1    0    0  501  502  0.00000000000E+00  0.00000000000E+00  0.77618353441E+02  0.77618353441E+02  0.00000000000E+00 0. -1.
         21   -1    0    0  502  503 -0.00000000000E+00 -0.00000000000E+00 -0.12926399443E+02  0.12926399443E+02  0.00000000000E+00 0. -1.
          5    1    1    2  501    0 -0.20123639240E+02  0.15329151198E+02  0.59591431887E+02  0.64738570320E+02  0.00000000000E+00 0.  1.
         -5    1    1    2    0  503  0.20123639240E+02 -0.15329151198E+02  0.51005221120E+01  0.25806182564E+02  0.00000000000E+00 0. -1.
<mgrwt>
<rscale>  2 0.25297109E+02</rscale>
<asrwt>0</asrwt>
<pdfrwt beam="1">  1       21 0.11941285E-01 0.25297109E+02</pdfrwt>
<pdfrwt beam="2">  1       21 0.19886769E-02 0.25297109E+02</pdfrwt>
<totfact> 0.53621010E+07</totfact>
</mgrwt>
</event>
<event>
 4    1  0.7841599E+004  0.2332341E+02  0.7546771E-02  0.1686321E+00
         21   -1    0    0  501  502  0.00000000000E+00  0.00000000000E+00  0.52537049490E+03  0.52537049490E+03  0.00000000000E+00 0. -1.
         21   -1    0    0  502  503 -0.00000000000E+00 -0.00000000000E+00 -0.12408529588E+01  0.12408529588E+01  0.00000000000E+00 0. -1.
          1    1    1    2  501    0  0.19792075906E+02 -0.12339165770E+02  0.15492997077E+03  0.15667570687E+03  0.00000000000E+00 0. -1.
         -1    1    1    2    0  503 -0.19792075906E+02  0.12339165770E+02  0.36919967118E+03  0.36993564099E+03  0.00000000000E+00 0.  1.
<mgrwt>
<rscale>  2 0.23323406E+02</rscale>
<asrwt>0</asrwt>
<pdfrwt beam="1">  1       21 0.80826052E-01 0.23323406E+02</pdfrwt>
<pdfrwt beam="2">  1       21 0.19090087E-03 0.23323406E+02</pdfrwt>
<totfact> 0.49816323E+07</totfact>
</mgrwt>
</event>
<event>
 4    1  0.7841599E+004  0.2334452E+02  0.7546771E-02  0.1685986E+00
         21   -1    0    0  503  502  0.00000000000E+00  0.00000000000E+00  0.15738649507E+03  0.15738649507E+03  0.00000000000E+00 0. -1.
         21   -1    0    0  501  503 -0.00000000000E+00 -0.00000000000E+00 -0.35034857678E+01  0.35034857678E+01  0.00000000000E+00 0. -1.
          3    1    1    2  501    0 -0.19835716418E+02  0.12308970974E+02  0.68251157639E+02  0.72133119518E+02  0.00000000000E+00 0.  1.
         -3    1    1    2    0  502  0.19835716418E+02 -0.12308970974E+02  0.85631851667E+02  0.88756861325E+02  0.00000000000E+00 0. -1.
<mgrwt>
<rscale>  2 0.23344516E+02</rscale>
<asrwt>0</asrwt>
<pdfrwt beam="1">  1       21 0.24213301E-01 0.23344516E+02</pdfrwt>
<pdfrwt beam="2">  1       21 0.53899793E-03 0.23344516E+02</pdfrwt>
<totfact> 0.11090509E+08</totfact>
</mgrwt>
</event>
<event>
 4    1  0.7841599E+004  0.2452748E+02  0.7546771E-02  0.1667883E+00
         21   -1    0    0  503  502  0.00000000000E+00  0.00000000000E+00  0.62718042051E+03  0.62718042051E+03  0.00000000000E+00 0.  1.
         21   -1    0    0  501  503 -0.00000000000E+00 -0.00000000000E+00 -0.10172732187E+01  0.10172732187E+01  0.00000000000E+00 0.  1.
          4    1    1    2  501    0 -0.78186283880E+01  0.23247929127E+02  0.38812307328E+03  0.38889730929E+03  0.00000000000E+00 0.  1.
         -4    1    1    2    0  502  0.78186283880E+01 -0.23247929127E+02  0.23804007401E+03  0.23930038444E+03  0.00000000000E+00 0. -1.
<mgrwt>
<rscale>  2 0.24527478E+02</rscale>
<asrwt>0</asrwt>
<pdfrwt beam="1">  1       21 0.96488986E-01 0.24527478E+02</pdfrwt>
<pdfrwt beam="2">  1       21 0.15650407E-03 0.24527478E+02</pdfrwt>
<totfact> 0.45911535E+07</totfact>
</mgrwt>
</event>
<event>
 4    1  0.7841599E+004  0.2081348E+02  0.7546771E-02  0.1729619E+00
         21   -1    0    0  501  502  0.00000000000E+00  0.00000000000E+00  0.51751033382E+03  0.51751033382E+03  0.00000000000E+00 0.  1.
         21   -1    0    0  502  503 -0.00000000000E+00 -0.00000000000E+00 -0.11177768846E+01  0.11177768846E+01  0.00000000000E+00 0.  1.
          4    1    1    2  501    0  0.16764515906E+02  0.12334990511E+02  0.12825050531E+03  0.12992841528E+03  0.00000000000E+00 0.  1.
         -4    1    1    2    0  503 -0.16764515906E+02 -0.12334990511E+02  0.38814205163E+03  0.38869969543E+03  0.00000000000E+00 0. -1.
<mgrwt>
<rscale>  2 0.20813481E+02</rscale>
<asrwt>0</asrwt>
<pdfrwt beam="1">  1       21 0.79616783E-01 0.20813481E+02</pdfrwt>
<pdfrwt beam="2">  1       21 0.17196609E-03 0.20813481E+02</pdfrwt>
<totfact> 0.58192779E+07</totfact>
</mgrwt>
</event>
<event>
 4    1  0.7841599E+004  0.2976168E+02  0.7546771E-02  0.1600738E+00
         21   -1    0    0  501  502  0.00000000000E+00  0.00000000000E+00  0.29068112992E+02  0.29068112992E+02  0.00000000000E+00 0. -1.
         21   -1    0    0  502  503 -0.00000000000E+00 -0.00000000000E+00 -0.31128945500E+02  0.31128945500E+02  0.00000000000E+00 0. -1.
          3    1    1    2  501    0 -0.22477242777E+02 -0.19507214730E+02  0.33427118845E+01  0.29948816206E+02  0.00000000000E+00 0.  1.
         -3    1    1    2    0  503  0.22477242777E+02  0.19507214730E+02 -0.54035443928E+01  0.30248242286E+02  0.00000000000E+00 0. -1.
<mgrwt>
<rscale>  2 0.29761685E+02</rscale>
<asrwt>0</asrwt>
<pdfrwt beam="1">  1       21 0.44720174E-02 0.29761685E+02</pdfrwt>
<pdfrwt beam="2">  1       21 0.47890685E-02 0.29761685E+02</pdfrwt>
<totfact> 0.70005372E+07</totfact>
</mgrwt>
</event>
<event>
 4    1  0.7841599E+004  0.3082456E+02  0.7546771E-02  0.1589149E+00
         21   -1    0    0  503  502  0.00000000000E+00  0.00000000000E+00  0.16412454807E+02  0.16412454807E+02  0.00000000000E+00 0.  1.
         21   -1    0    0  501  503 -0.00000000000E+00 -0.00000000000E+00 -0.11233151856E+03  0.11233151856E+03  0.00000000000E+00 0.  1.
          2    1    1    2  501    0  0.85459334777E+01 -0.29616222488E+02 -0.92772356296E+02  0.97759212896E+02  0.00000000000E+00 0. -1.
         -2    1    1    2    0  502 -0.85459334777E+01  0.29616222488E+02 -0.31467074540E+01  0.30984760468E+02  0.00000000000E+00 0.  1.
<mgrwt>
<rscale>  2 0.30824562E+02</rscale>
<asrwt>0</asrwt>
<pdfrwt beam="1">  1       21 0.25249930E-02 0.30824562E+02</pdfrwt>
<pdfrwt beam="2">  1       21 0.17281772E-01 0.30824562E+02</pdfrwt>
<totfact> 0.20515823E+07</totfact>
</mgrwt>
</event>
<event>
 4    1  0.7841599E+004  0.2206465E+02  0.7546771E-02  0.1707136E+00
         21   -1    0    0  501  502  0.00000000000E+00  0.00000000000E+00  0.78137087778E+03  0.78137087778E+03  0.00000000000E+00 0.  1.
         21   -1    0    0  502  503 -0.00000000000E+00 -0.00000000000E+00 -0.63716301894E+00  0.63716301894E+00  0.00000000000E+00 0.  1.
          3    1    1    2  501    0  0.12313848415E+02  0.18308961308E+02  0.44851750095E+03  0.44905990423E+03  0.00000000000E+00 0. -1.
         -3    1    1    2    0  503 -0.12313848415E+02 -0.18308961308E+02  0.33221621381E+03  0.33294813657E+03  0.00000000000E+00 0.  1.
<mgrwt>
<rscale>  2 0.22064653E+02</rscale>
<asrwt>0</asrwt>
<pdfrwt beam="1">  1       21 0.12021014E+00 0.22064653E+02</pdfrwt>
<pdfrwt beam="2">  1       21 0.98025705E-04 0.22064653E+02</pdfrwt>
<totfact> 0.53801706E+07</totfact>
</mgrwt>
</event>
<event>
 4    1  0.7841599E+004  0.2552271E+02  0.7546771E-02  0.1653606E+00
         21   -1    0    0  503  502  0.00000000000E+00  0.00000000000E+00  0.27949781210E+01  0.27949781210E+01  0.00000000000E+00 0.  1.
         21   -1    0    0  501  503 -0.00000000000E+00 -0.00000000000E+00 -0.25331208105E+03  0.25331208105E+03  0.00000000000E+00 0.  1.
          1    1    1    2  501    0 -0.19100971166E+02  0.16928130668E+02 -0.89054612913E+02  0.92639801319E+02  0.00000000000E+00 0.  1.
         -1    1    1    2    0  502  0.19100971166E+02 -0.16928130668E+02 -0.16146249002E+03  0.16346725785E+03  0.00000000000E+00 0. -1.
<mgrwt>
<rscale>  2 0.25522710E+02</rscale>
<asrwt>0</asrwt>
<pdfrwt beam="1">  1       21 0.42999657E-03 0.25522710E+02</pdfrwt>
<pdfrwt beam="2">  1       21 0.38971095E-01 0.25522710E+02</pdfrwt>
<totfact> 0.66295397E+07</totfact>
</mgrwt>
</event>
<event>
 4    1  0.7841599E+004  0.2087474E+02  0.7546771E-02  0.1728472E+00
         21   -1    0    0  503  502  0.00000000000E+00  0.00000000000E+00  0.15532128362E+02  0.15532128362E+02  0.00000000000E+00 0. -1.
         21   -1    0    0  501  503 -0.00000000000E+00 -0.00000000000E+00 -0.28081348075E+02  0.28081348075E+02  0.00000000000E+00 0. -1.
          1    1    1    2  501    0 -0.19465717729E+02  0.75392614552E+01 -0.69419509454E+01  0.21998757076E+02  0.00000000000E+00 0. -1.
         -1    1    1    2    0  502  0.19465717729E+02 -0.75392614552E+01 -0.56072687675E+01  0.21614719360E+02  0.00000000000E+00 0.  1.
<mgrwt>
<rscale>  2 0.20874737E+02</rscale>
<asrwt>0</asrwt>
<pdfrwt beam="1">  1       21 0.23895583E-02 0.20874737E+02</pdfrwt>
<pdfrwt beam="2">  1       21 0.43202073E-02 0.20874737E+02</pdfrwt>
<totfact> 0.19939036E+08</totfact>
</mgrwt>
</event>
<event>
 4    1  0.7841599E+004  0.3619011E+02  0.7546771E-02  0.1538279E+00
         21   -1    0    0  501  502  0.00000000000E+00  0.00000000000E+00  0.45168112044E+02  0.45168112044E+02  0.00000000000E+00 0.  1.
         21   -1    0    0  502  503 -0.00000000000E+00 -0.00000000000E+00 -0.29693230548E+02  0.29693230548E+02  0.00000000000E+00 0.  1.
          3    1    1    2  501    0  0.22816842003E+02  0.28091206501E+02  0.13470454788E+02  0.38615765095E+02  0.00000000000E+00 0. -1.
         -3    1    1    2    0  503 -0.22816842003E+02 -0.28091206501E+02  0.20044267080E+01  0.36245577497E+02  0.00000000000E+00 0.  1.
<mgrwt>
<rscale>  2 0.36190111E+02</rscale>
<asrwt>0</asrwt>
<pdfrwt beam="1">  1       21 0.69489403E-02 0.36190111E+02</pdfrwt>
<pdfrwt beam="2">  1       21 0.45681893E-02 0.36190111E+02</pdfrwt>
<totfact> 0.38522863E+07</totfact>
</mgrwt>
</event>
<event>
 4    1  0.7841599E+004  0.2110734E+02  0.7546771E-02  0.1724164E+00
         21   -1    0    0  503  502  0.00000000000E+00  0.00000000000E+00  0.12964707030E+02  0.12964707030E+02  0.00000000000E+00 0. -1.
         21   -1    0    0  501  503 -0.00000000000E+00 -0.00000000000E+00 -0.38216451657E+02  0.38216451657E+02  0.00000000000E+00 0. -1.
          2    1    1    2  501    0  0.18588414456E+02 -0.99995319422E+01 -0.20750826738E+02  0.29599266905E+02  0.00000000000E+00 0. -1.
         -2    1    1    2    0  502 -0.18588414456E+02  0.99995319422E+01 -0.45009178895E+01  0.21581891782E+02  0.00000000000E+00 0.  1.
<mgrwt>
<rscale>  2 0.21107340E+02</rscale>
<asrwt>0</asrwt>
<pdfrwt beam="1">  1       21 0.19945703E-02 0.21107340E+02</pdfrwt>
<pdfrwt beam="2">  1       21 0.58794541E-02 0.21107340E+02</pdfrwt>
<totfact> 0.16188816E+08</totfact>
</mgrwt>
</event>
<event>
 4    1  0.7841599E+004  0.2432360E+02  0.7546771E-02  0.1670912E+00
         21   -1    0    0  501  502  0.00000000000E+00  0.00000000000E+00  0.23677287731E+02  0.23677287731E+02  0.00000000000E+00 0.  1.
         21   -1    0    0  502  503 -0.00000000000E+00 -0.00000000000E+00 -0.26270976090E+02  0.26270976090E+02  0.00000000000E+00 0.  1.
          3    1    1    2  501    0 -0.19168683667E+02 -0.14973277286E+02  0.42231336606E+01  0.24687493274E+02  0.00000000000E+00 0.  1.
         -3    1    1    2    0  503  0.19168683667E+02  0.14973277286E+02 -0.68168220202E+01  0.25260770548E+02  0.00000000000E+00 0. -1.
<mgrwt>
<rscale>  2 0.24323599E+02</rscale>
<asrwt>0</asrwt>
<pdfrwt beam="1">  1       21 0.36426596E-02 0.24323599E+02</pdfrwt>
<pdfrwt beam="2">  1       21 0.40416887E-02 0.24323599E+02</pdfrwt>
<totfact> 0.12050630E+08</totfact>
</mgrwt>
</event>
<event>
 4    1  0.7841599E+004  0.2139981E+02  0.7546771E-02  0.1718843E+00
         21   -1    0    0  503  502  0.00000000000E+00  0.00000000000E+00  0.26134959123E+01  0.26134959123E+01  0.00000000000E+00 0.  1.
         21   -1    0    0  501  503 -0.00000000000E+00 -0.00000000000E+00 -0.18045741778E+03  0.18045741778E+03  0.00000000000E+00 0.  1.
          4    1    1    2  501    0 -0.77473770746E+00 -0.21385783359E+02 -0.73336508647E+02  0.76394996230E+02  0.00000000000E+00 0.  1.
         -4    1    1    2    0  502  0.77473770746E+00  0.21385783359E+02 -0.10450741323E+03  0.10667591747E+03  0.00000000000E+00 0. -1.
<mgrwt>
<rscale>  2 0.21399812E+02</rscale>
<asrwt>0</asrwt>
<pdfrwt beam="1">  1       21 0.40207633E-03 0.21399812E+02</pdfrwt>
<pdfrwt beam="2">  1       21 0.27762677E-01 0.21399812E+02</pdfrwt>
<totfact> 0.13042823E+08</totfact>
</mgrwt>
</event>
<event>
 4    1  0.7841599E+004  0.2862142E+02  0.7546771E-02  0.1613847E+00
         21   -1    0    0  501  502  0.00000000000E+00  0.00000000000E+00  0.26643144271E+02  0.26643144271E+02  0.00000000000E+00 0. -1.
         21   -1    0    0  502  503 -0.00000000000E+00 -0.00000000000E+00 -0.30747145540E+02  0.30747145540E+02  0.00000000000E+00 0. -1.
          4    1    1    2  501    0  0.91522175915E+01  0.27118671459E+02 -0.19283715814E+01  0.28686304145E+02  0.00000000000E+00 0.  1.
         -4    1    1    2    0  503 -0.91522175915E+01 -0.27118671459E+02 -0.21756296869E+01  0.28703985666E+02  0.00000000000E+00 0. -1.
<mgrwt>
<rscale>  2 0.28621416E+02</rscale>
<asrwt>0</asrwt>
<pdfrwt beam="1">  1       21 0.40989453E-02 0.28621416E+02</pdfrwt>
<pdfrwt beam="2">  1       21 0.47303301E-02 0.28621416E+02</pdfrwt>
<totfact> 0.81265893E+07</totfact>
</mgrwt>
</event>
<event>
 4    1  0.7841599E+004  0.3449071E+02  0.7546771E-02  0.1553170E+00
         21   -1    0    0  503  502  0.00000000000E+00  0.00000000000E+00  0.29712584322E+03  0.29712584322E+03  0.00000000000E+00 0.  1.
         21   -1    0    0  501  503 -0.00000000000E+00 -0.00000000000E+00 -0.57334303908E+01  0.57334303908E+01  0.00000000000E+00 0.  1.
          3    1    1    2  501    0  0.73949950756E+01  0.33688619207E+02  0.62521713046E+02  0.71404296919E+02  0.00000000000E+00 0.  1.
         -3    1    1    2    0  502 -0.73949950756E+01 -0.33688619207E+02  0.22887069979E+03  0.23145497670E+03  0.00000000000E+00 0. -1.
<mgrwt>
<rscale>  2 0.34490709E+02</rscale>
<asrwt>0</asrwt>
<pdfrwt beam="1">  1       21 0.45711656E-01 0.34490709E+02</pdfrwt>
<pdfrwt beam="2">  1       21 0.88206644E-03 0.34490709E+02</pdfrwt>
<totfact> 0.17678820E+07</totfact>
</mgrwt>
</event>
<event>
 4    1  0.7841599E+004  0.2009210E+02  0.7546771E-02  0.1743503E+00
         21   -1    0    0  501  502  0.00000000000E+00  0.00000000000E+00  0.15892803559E+04  0.15892803559E+04  0.00000000000E+00 0.  1.
         21   -1    0    0  502  503 -0.00000000000E+00 -0.00000000000E+00 -0.25523925926E+00  0.25523925926E+00  0.00000000000E+00 0.  1.
          4    1    1    2  501    0 -0.15406805847E+02 -0.12896616191E+02  0.84967825746E+03  0.84991578028E+03  0.00000000000E+00 0.  1.
         -4    1    1    2    0  503  0.15406805847E+02  0.12896616191E+02  0.73934685921E+03  0.73961981490E+03  0.00000000000E+00 0. -1.
<mgrwt>
<rscale>  2 0.20092097E+02</rscale>
<asrwt>0</asrwt>
<pdfrwt beam="1">  1       21 0.24449675E+00 0.20092097E+02</pdfrwt>
<pdfrwt beam="2">  1       21 0.39268851E-04 0.20092097E+02</pdfrwt>
<totfact> 0.33375393E+07</totfact>
</mgrwt>
</event>
<event>
 4    1  0.7841599E+004  0.2365612E+02  0.7546771E-02  0.1681090E+00
         21   -1    0    0  503  502  0.00000000000E+00  0.00000000000E+00  0.48031223436E+03  0.48031223436E+03  0.00000000000E+00 0.  1.
         21   -1    0    0  501  503 -0.00000000000E+00 -0.00000000000E+00 -0.11716467182E+01  0.11716467182E+01  0.00000000000E+00 0.  1.
          4    1    1    2  501    0 -0.46409947807E+00 -0.23651564759E+02  0.25756550625E+03  0.25864957358E+03  0.00000000000E+00 0.  1.
         -4    1    1    2    0  502  0.46409947807E+00  0.23651564759E+02  0.22157508139E+03  0.22283430749E+03  0.00000000000E+00 0. -1.
<mgrwt>
<rscale>  2 0.23656118E+02</rscale>
<asrwt>0</asrwt>
<pdfrwt beam="1">  1       21 0.73894033E-01 0.23656118E+02</pdfrwt>
<pdfrwt beam="2">  1       21 0.18025372E-03 0.23656118E+02</pdfrwt>
<totfact> 0.65464018E+07</totfact>
</mgrwt>
</event>
<event>
 4    1  0.7841599E+004  0.3066524E+02  0.7546771E-02  0.1590850E+00
         21   -1    0    0  503  502  0.00000000000E+00  0.00000000000E+00  0.74898158125E+01  0.74898158125E+01  0.00000000000E+00 0.  1.
         21   -1    0    0  501  503 -0.00000000000E+00 -0.00000000000E+00 -0.14071836490E+03  0.14071836490E+03  0.00000000000E+00 0.  1.
          4    1    1    2  501    0  0.26300178701E+02 -0.15768886514E+02 -0.42285764143E+02  0.52234500388E+02  0.00000000000E+00 0. -1.
         -4    1    1    2    0  502 -0.26300178701E+02  0.15768886514E+02 -0.90942784946E+02  0.95973680326E+02  0.00000000000E+00 0.  1.
<mgrwt>
<rscale>  2 0.30665244E+02</rscale>
<asrwt>0</asrwt>
<pdfrwt beam="1">  1       21 0.11522794E-02 0.30665244E+02</pdfrwt>
<pdfrwt beam="2">  1       21 0.21648978E-01 0.30665244E+02</pdfrwt>
<totfact> 0.46224500E+07</totfact>
</mgrwt>
</event>
<event>
 4    1  0.7841599E+004  0.2267338E+02  0.7546771E-02  0.1696860E+00
         21   -1    0    0  503  502  0.00000000000E+00  0.00000000000E+00  0.20505866640E+01  0.20505866640E+01  0.00000000000E+00 0.  1.
         21   -1    0    0  501  503 -0.00000000000E+00 -0.00000000000E+00 -0.25569095590E+03  0.25569095590E+03  0.00000000000E+00 0.  1.
          5    1    1    2  501    0 -0.21152990655E+02  0.81628994831E+01 -0.10881525299E+03  0.11115233342E+03  0.00000000000E+00 0. -1.
         -5    1    1    2    0  502  0.21152990655E+02 -0.81628994831E+01 -0.14482511624E+03  0.14658920914E+03  0.00000000000E+00 0.  1.
<mgrwt>
<rscale>  2 0.22673375E+02</rscale>
<asrwt>0</asrwt>
<pdfrwt beam="1">  1       21 0.31547521E-03 0.22673375E+02</pdfrwt>
<pdfrwt beam="2">  1       21 0.39337027E-01 0.22673375E+02</pdfrwt>
<totfact> 0.99590762E+07</totfact>
</mgrwt>
</event>
<event>
 4    1  0.7841599E+004  0.2547301E+02  0.7546771E-02  0.1654299E+00
         21   -1    0    0  503  502  0.00000000000E+00  0.00000000000E+00  0.40122423980E+01  0.40122423980E+01  0.00000000000E+00 0. -1.
         21   -1    0    0  501  503 -0.00000000000E+00 -0.00000000000E+00 -0.16212745551E+03  0.16212745551E+03  0.00000000000E+00 0. -1.
          5    1    1    2  501    0 -0.15741411756E+02  0.20027038983E+02 -0.83203531813E+02  0.87015527584E+02  0.00000000000E+00 0.  1.
         -5    1    1    2    0  502  0.15741411756E+02 -0.20027038983E+02 -0.74911681294E+02  0.79124170320E+02  0.00000000000E+00 0. -1.
<mgrwt>
<rscale>  2 0.25473012E+02</rscale>
<asrwt>0</asrwt>
<pdfrwt beam="1">  1       21 0.61726813E-03 0.25473012E+02</pdfrwt>
<pdfrwt beam="2">  1       21 0.24942683E-01 0.25473012E+02</pdfrwt>
<totfact> 0.88013396E+07</totfact>
</mgrwt>
</event>
<event>
 4    1  0.7841599E+004  0.3644186E+02  0.7546771E-02  0.1536157E+00
         21   -1    0    0  501  502  0.00000000000E+00  0.00000000000E+00  0.46270038799E+00  0.46270038799E+00  0.00000000000E+00 0.  1.
         21   -1    0    0  502  503 -0.00000000000E+00 -0.00000000000E+00 -0.28705355325E+04  0.28705355325E+04  0.00000000000E+00 0.  1.
          3    1    1    2  501    0 -0.32817646214E+02 -0.15843340193E+02 -0.14521409576E+04  0.14525981447E+04  0.00000000000E+00 0. -1.
         -3    1    1    2    0  503  0.32817646214E+02  0.15843340193E+02 -0.14179318745E+04  0.14184000881E+04  0.00000000000E+00 0.  1.
<mgrwt>
<rscale>  2 0.36441862E+02</rscale>
<asrwt>0</asrwt>
<pdfrwt beam="1">  1       21 0.71185645E-04 0.36441862E+02</pdfrwt>
<pdfrwt beam="2">  1       21 0.44161483E+00 0.36441862E+02</pdfrwt>
<totfact> 0.13335035E+06</totfact>
</mgrwt>
</event>
<event>
 4    1  0.7841599E+004  0.2364532E+02  0.7546771E-02  0.1681258E+00
         21   -1    0    0  503  502  0.00000000000E+00  0.00000000000E+00  0.60589331490E+01  0.60589331490E+01  0.00000000000E+00 0. -1.
         21   -1    0    0  501  503 -0.00000000000E+00 -0.00000000000E+00 -0.10353651466E+03  0.10353651466E+03  0.00000000000E+00 0. -1.
          4    1    1    2  501    0  0.11370055470E+02 -0.20732167794E+02 -0.66809414267E+02  0.70870295453E+02  0.00000000000E+00 0.  1.
         -4    1    1    2    0  502 -0.11370055470E+02  0.20732167794E+02 -0.30668167240E+02  0.38725152353E+02  0.00000000000E+00 0. -1.
<mgrwt>
<rscale>  2 0.23645315E+02</rscale>
<asrwt>0</asrwt>
<pdfrwt beam="1">  1       21 0.93214367E-03 0.23645315E+02</pdfrwt>
<pdfrwt beam="2">  1       21 0.15928693E-01 0.23645315E+02</pdfrwt>
<totfact> 0.10219732E+08</totfact>
</mgrwt>
</event>
<event>
 4    1  0.7841599E+004  0.4757218E+02  0.7546771E-02  0.1458894E+00
         21   -1    0    0  503  502  0.00000000000E+00  0.00000000000E+00  0.63750872672E+02  0.63750872672E+02  0.00000000000E+00 0.  1.
         21   -1    0    0  501  503 -0.00000000000E+00 -0.00000000000E+00 -0.40211452020E+02  0.40211452020E+02  0.00000000000E+00 0.  1.
          1    1    1    2  501    0  0.21911486182E+02 -0.42225572993E+02 -0.60245571312E+01  0.47952137908E+02  0.00000000000E+00 0.  1.
         -1    1    1    2    0  502 -0.21911486182E+02  0.42225572993E+02  0.29563977783E+02  0.56010186784E+02  0.00000000000E+00 0. -1.
<mgrwt>
<rscale>  2 0.47572179E+02</rscale>
<asrwt>0</asrwt>
<pdfrwt beam="1">  1       21 0.98078266E-02 0.47572179E+02</pdfrwt>
<pdfrwt beam="2">  1       21 0.61863772E-02 0.47572179E+02</pdfrwt>
<totfact> 0.13802339E+07</totfact>
</mgrwt>
</event>
<event>
 4    1  0.7841599E+004  0.2212326E+02  0.7546771E-02  0.1706129E+00
         21   -1    0    0  501  502  0.00000000000E+00  0.00000000000E+00  0.64618138622E+03  0.64618138622E+03  0.00000000000E+00 0.  1.
         21   -1    0    0  502  503 -0.00000000000E+00 -0.00000000000E+00 -0.14954378051E+01  0.14954378051E+01  0.00000000000E+00 0.  1.
          2    1    1    2  501    0 -0.12584180261E+01 -0.22087438694E+02  0.54983911039E+03  0.55028400474E+03  0.00000000000E+00 0. -1.
         -2    1    1    2    0  503  0.12584180261E+01  0.22087438694E+02  0.94846838031E+02  0.97392819286E+02  0.00000000000E+00 0.  1.
<mgrwt>
<rscale>  2 0.22123258E+02</rscale>
<asrwt>0</asrwt>
<pdfrwt beam="1">  1       21 0.99412298E-01 0.22123258E+02</pdfrwt>
<pdfrwt beam="2">  1       21 0.23006787E-03 0.22123258E+02</pdfrwt>
<totfact> 0.24161433E+07</totfact>
</mgrwt>
</event>
<event>
 4    1  0.7841599E+004  0.2002497E+02  0.7546771E-02  0.1744832E+00
         21   -1    0    0  501  502  0.00000000000E+00  0.00000000000E+00  0.11902392421E+02  0.11902392421E+02  0.00000000000E+00 0.  1.
         21   -1    0    0  502  503 -0.00000000000E+00 -0.00000000000E+00 -0.35882789639E+02  0.35882789639E+02  0.00000000000E+00 0.  1.
          3    1    1    2  501    0  0.19348678119E+02 -0.51602351498E+01 -0.60847353770E+01  0.20929008012E+02  0.00000000000E+00 0.  1.
         -3    1    1    2    0  503 -0.19348678119E+02  0.51602351498E+01 -0.17895661842E+02  0.26856174048E+02  0.00000000000E+00 0. -1.
<mgrwt>
<rscale>  2 0.20024969E+02</rscale>
<asrwt>0</asrwt>
<pdfrwt beam="1">  1       21 0.18311373E-02 0.20024969E+02</pdfrwt>
<pdfrwt beam="2">  1       21 0.55204292E-02 0.20024969E+02</pdfrwt>
<totfact> 0.20050821E+08</totfact>
</mgrwt>
</event>
<event>
 4    1  0.7841599E+004  0.2786091E+02  0.7546771E-02  0.1623013E+00
         21   -1    0    0  501  502  0.00000000000E+00  0.00000000000E+00  0.83500747207E+02  0.83500747207E+02  0.00000000000E+00 0.  1.
         21   -1    0    0  502  503 -0.00000000000E+00 -0.00000000000E+00 -0.10812405318E+02  0.10812405318E+02  0.00000000000E+00 0.  1.
          2    1    1    2  501    0 -0.22324203869E+02  0.16669132780E+02  0.18684746452E+02  0.33546234007E+02  0.00000000000E+00 0.  1.
         -2    1    1    2    0  503  0.22324203869E+02 -0.16669132780E+02  0.54003595437E+02  0.60766918518E+02  0.00000000000E+00 0. -1.
<mgrwt>
<rscale>  2 0.27860906E+02</rscale>
<asrwt>0</asrwt>
<pdfrwt beam="1">  1       21 0.12846268E-01 0.27860906E+02</pdfrwt>
<pdfrwt beam="2">  1       21 0.16634470E-02 0.27860906E+02</pdfrwt>
<totfact> 0.63834509E+07</totfact>
</mgrwt>
</event>
<event>
 4    1  0.7841599E+004  0.2401072E+02  0.7546771E-02  0.1675632E+00
         21   -1    0    0  503  502  0.00000000000E+00  0.00000000000E+00  0.38607396441E+03  0.38607396441E+03  0.00000000000E+00 0.  1.
         21   -1    0    0  501  503 -0.00000000000E+00 -0.00000000000E+00 -0.54218823159E+01  0.54218823159E+01  0.00000000000E+00 0.  1.
          1    1    1    2  501    0  0.23230957660E+02 -0.60693766587E+01  0.35695152058E+03  0.35775816241E+03  0.00000000000E+00 0.  1.
         -1    1    1    2    0  502 -0.23230957660E+02  0.60693766587E+01  0.23700561512E+02  0.33737684313E+02  0.00000000000E+00 0. -1.
<mgrwt>
<rscale>  2 0.24010721E+02</rscale>
<asrwt>0</asrwt>
<pdfrwt beam="1">  1       21 0.59395973E-01 0.24010721E+02</pdfrwt>
<pdfrwt beam="2">  1       21 0.83413604E-03 0.24010721E+02</pdfrwt>
<totfact> 0.10802896E+07</totfact>
</mgrwt>
</event>
<event>
 4    1  0.7841599E+004  0.2232203E+02  0.7546771E-02  0.1702741E+00
         21   -1    0    0  503  502  0.00000000000E+00  0.00000000000E+00  0.70830066642E+03  0.70830066642E+03  0.00000000000E+00 0.  1.
         21   -1    0    0  501  503 -0.00000000000E+00 -0.00000000000E+00 -0.72407135385E+00  0.72407135385E+00  0.00000000000E+00 0.  1.
          2    1    1    2  501    0  0.60898748761E+01 -0.21475256402E+02  0.41357643278E+03  0.41417839027E+03  0.00000000000E+00 0.  1.
         -2    1    1    2    0  502 -0.60898748761E+01  0.21475256402E+02  0.29400016228E+03  0.29484634750E+03  0.00000000000E+00 0. -1.
<mgrwt>
<rscale>  2 0.22322034E+02</rscale>
<asrwt>0</asrwt>
<pdfrwt beam="1">  1       21 0.10896878E+00 0.22322034E+02</pdfrwt>
<pdfrwt beam="2">  1       21 0.11139616E-03 0.22322034E+02</pdfrwt>
<totfact> 0.56010640E+07</totfact>
</mgrwt>
</event>
<event>
 4    1  0.7841599E+004  0.2940256E+02  0.7546771E-02  0.1604788E+00
         21   -1    0    0  503  502  0.00000000000E+00  0.00000000000E+00  0.26592511437E+01  0.26592511437E+01  0.00000000000E+00 0. -1.
         21   -1    0    0  501  503 -0.00000000000E+00 -0.00000000000E+00 -0.36108211342E+03  0.36108211342E+03  0.00000000000E+00 0. -1.
          5    1    1    2  501    0 -0.24701100740E+02  0.15948854272E+02 -0.12179571788E+03  0.12529448202E+03  0.00000000000E+00 0. -1.
         -5    1    1    2    0  502  0.24701100740E+02 -0.15948854272E+02 -0.23662714440E+03  0.23844688255E+03  0.00000000000E+00 0.  1.
<mgrwt>
<rscale>  2 0.29402557E+02</rscale>
<asrwt>0</asrwt>
<pdfrwt beam="1">  1       21 0.40911592E-03 0.29402557E+02</pdfrwt>
<pdfrwt beam="2">  1       21 0.55551046E-01 0.29402557E+02</pdfrwt>
<totfact> 0.36990439E+07</totfact>
</mgrwt>
</event>
<event>
 4    1  0.7841599E+004  0.2882135E+02  0.7546771E-02  0.1611495E+00
         21   -1    0    0  501  502  0.00000000000E+00  0.00000000000E+00  0.97156997611E+01  0.97156997611E+01  0.00000000000E+00 0. -1.
         21   -1    0    0  502  503 -0.00000000000E+00 -0.00000000000E+00 -0.85600390860E+02  0.85600390860E+02  0.00000000000E+00 0. -1.
          4    1    1    2  501    0 -0.17235439321E+02  0.23099994235E+02 -0.36291758669E+02  0.46343951596E+02  0.00000000000E+00 0.  1.
         -4    1    1    2    0  503  0.17235439321E+02 -0.23099994235E+02 -0.39592932430E+02  0.48972139025E+02  0.00000000000E+00 0. -1.
<mgrwt>
<rscale>  2 0.28821348E+02</rscale>
<asrwt>0</asrwt>
<pdfrwt beam="1">  1       21 0.14947230E-02 0.28821348E+02</pdfrwt>
<pdfrwt beam="2">  1       21 0.13169291E-01 0.28821348E+02</pdfrwt>
<totfact> 0.72699032E+07</totfact>
</mgrwt>
</event>
<event>
 4    1  0.7841599E+004  0.3177720E+02  0.7546771E-02  0.1579236E+00
         21   -1    0    0  503  502  0.00000000000E+00  0.00000000000E+00  0.13659477968E+03  0.13659477968E+03  0.00000000000E+00 0.  1.
         21   -1    0    0  501  503 -0.00000000000E+00 -0.00000000000E+00 -0.74801274770E+01  0.74801274770E+01  0.00000000000E+00 0.  1.
          3    1    1    2  501    0  0.15127314191E+02  0.27945573080E+02  0.72349773103E+02  0.79020759029E+02  0.00000000000E+00 0. -1.
         -3    1    1    2    0  502 -0.15127314191E+02 -0.27945573080E+02  0.56764879097E+02  0.65054148125E+02  0.00000000000E+00 0.  1.
<mgrwt>
<rscale>  2 0.31777204E+02</rscale>
<asrwt>0</asrwt>
<pdfrwt beam="1">  1       21 0.21014580E-01 0.31777204E+02</pdfrwt>
<pdfrwt beam="2">  1       21 0.11507889E-02 0.31777204E+02</pdfrwt>
<totfact> 0.49189688E+07</totfact>
</mgrwt>
</event>
<event>
 4    1  0.7841599E+004  0.2044428E+02  0.7546771E-02  0.1736635E+00
         21   -1    0    0  501  502  0.00000000000E+00  0.00000000000E+00  0.37311224293E+02  0.37311224293E+02  0.00000000000E+00 0. -1.
         21   -1    0    0  502  503 -0.00000000000E+00 -0.00000000000E+00 -0.11693615348E+02  0.11693615348E+02  0.00000000000E+00 0. -1.
          1    1    1    2  501    0 -0.20211162012E+02 -0.30785339745E+01  0.77859418609E+01  0.21876684666E+02  0.00000000000E+00 0.  1.
         -1    1    1    2    0  503  0.20211162012E+02  0.30785339745E+01  0.17831667084E+02  0.27128154974E+02  0.00000000000E+00 0. -1.
<mgrwt>
<rscale>  2 0.20444276E+02</rscale>
<asrwt>0</asrwt>
<pdfrwt beam="1">  1       21 0.57401883E-02 0.20444276E+02</pdfrwt>
<pdfrwt beam="2">  1       21 0.17990178E-02 0.20444276E+02</pdfrwt>
<totfact> 0.19490442E+08</totfact>
</mgrwt>
</event>
<event>
 4    1  0.7841599E+004  0.2249046E+02  0.7546771E-02  0.1699905E+00
         21   -1    0    0  503  502  0.00000000000E+00  0.00000000000E+00  0.24375368728E+02  0.24375368728E+02  0.00000000000E+00 0. -1.
         21   -1    0    0  501  503 -0.00000000000E+00 -0.00000000000E+00 -0.24583044055E+02  0.24583044055E+02  0.00000000000E+00 0. -1.
          5    1    1    2  501    0 -0.13850627520E+02  0.17719510502E+02  0.95606079368E+01  0.24438211049E+02  0.00000000000E+00 0. -1.
         -5    1    1    2    0  502  0.13850627520E+02 -0.17719510502E+02 -0.97682832647E+01  0.24520201734E+02  0.00000000000E+00 0.  1.
<mgrwt>
<rscale>  2 0.22490463E+02</rscale>
<asrwt>0</asrwt>
<pdfrwt beam="1">  1       21 0.37500567E-02 0.22490463E+02</pdfrwt>
<pdfrwt beam="2">  1       21 0.37820068E-02 0.22490463E+02</pdfrwt>
<totfact> 0.12489231E+08</totfact>
</mgrwt>
</event>
<event>
 4    1  0.7841599E+004  0.2352161E+02  0.7546771E-02  0.1683192E+00
         21   -1    0    0  503  502  0.00000000000E+00  0.00000000000E+00  0.15214033743E+03  0.15214033743E+03  0.00000000000E+00 0.  1.
         21   -1    0    0  501  503 -0.00000000000E+00 -0.00000000000E+00 -0.36367033137E+01  0.36367033137E+01  0.00000000000E+00 0.  1.
          3    1    1    2  501    0 -0.55556899507E+01  0.22856080701E+02  0.73747962459E+02  0.77408191315E+02  0.00000000000E+00 0. -1.
         -3    1    1    2    0  502  0.55556899507E+01 -0.22856080701E+02  0.74755671659E+02  0.78368849430E+02  0.00000000000E+00 0.  1.
<mgrwt>
<rscale>  2 0.23521610E+02</rscale>
<asrwt>0</asrwt>
<pdfrwt beam="1">  1       21 0.23406201E-01 0.23521610E+02</pdfrwt>
<pdfrwt beam="2">  1       21 0.55949293E-03 0.23521610E+02</pdfrwt>
<totfact> 0.11169223E+08</totfact>
</mgrwt>
</event>
<event>
 4    1  0.7841599E+004  0.3231015E+02  0.7546771E-02  0.1573872E+00
         21   -1    0    0  503  502  0.00000000000E+00  0.00000000000E+00  0.60277249830E+03  0.60277249830E+03  0.00000000000E+00 0.  1.
         21   -1    0    0  501  503 -0.00000000000E+00 -0.00000000000E+00 -0.21369728719E+01  0.21369728719E+01  0.00000000000E+00 0.  1.
          1    1    1    2  501    0 -0.25135227388E+02 -0.20301869832E+02  0.43199903345E+03  0.43320562147E+03  0.00000000000E+00 0. -1.
         -1    1    1    2    0  502  0.25135227388E+02  0.20301869832E+02  0.16863649197E+03  0.17170384969E+03  0.00000000000E+00 0.  1.
<mgrwt>
<rscale>  2 0.32310147E+02</rscale>
<asrwt>0</asrwt>
<pdfrwt beam="1">  1       21 0.92734095E-01 0.32310147E+02</pdfrwt>
<pdfrwt beam="2">  1       21 0.32876554E-03 0.32310147E+02</pdfrwt>
<totfact> 0.17822568E+07</totfact>
</mgrwt>
</event>
<event>
 4    1  0.7841599E+004  0.2044594E+02  0.7546771E-02  0.1736603E+00
         21   -1    0    0  503  502  0.00000000000E+00  0.00000000000E+00  0.79955088582E+01  0.79955088582E+01  0.00000000000E+00 0.  1.
         21   -1    0    0  501  503 -0.00000000000E+00 -0.00000000000E+00 -0.55827220873E+02  0.55827220873E+02  0.00000000000E+00 0.  1.
          4    1    1    2  501    0 -0.18798448770E+02 -0.80408216121E+01 -0.31955315083E+02  0.37936508147E+02  0.00000000000E+00 0.  1.
         -4    1    1    2    0  502  0.18798448770E+02  0.80408216121E+01 -0.15876396932E+02  0.25886221584E+02  0.00000000000E+00 0. -1.
<mgrwt>
<rscale>  2 0.20445941E+02</rscale>
<asrwt>0</asrwt>
<pdfrwt beam="1">  1       21 0.12300783E-02 0.20445941E+02</pdfrwt>
<pdfrwt beam="2">  1       21 0.85888034E-02 0.20445941E+02</pdfrwt>
<totfact> 0.18093183E+08</totfact>
</mgrwt>
</event>
<event>
 4    1  0.7841599E+004  0.2452845E+02  0.7546771E-02  0.1667869E+00
         21   -1    0    0  503  502  0.00000000000E+00  0.00000000000E+00  0.87580575102E+02  0.87580575102E+02  0.00000000000E+00 0. -1.
         21   -1    0    0  501  503 -0.00000000000E+00 -0.00000000000E+00 -0.69759337149E+01  0.69759337149E+01  0.00000000000E+00 0. -1.
          2    1    1    2  501    0  0.32635302234E+01  0.24310375903E+02  0.46138936009E+02  0.52253673767E+02  0.00000000000E+00 0.  1.
         -2    1    1    2    0  502 -0.32635302234E+01 -0.24310375903E+02  0.34465705378E+02  0.42302835050E+02  0.00000000000E+00 0. -1.
<mgrwt>
<rscale>  2 0.24528453E+02</rscale>
<asrwt>0</asrwt>
<pdfrwt beam="1">  1       21 0.13473934E-01 0.24528453E+02</pdfrwt>
<pdfrwt beam="2">  1       21 0.10732206E-02 0.24528453E+02</pdfrwt>
<totfact> 0.11106336E+08</totfact>
</mgrwt>
</event>
<event>
 4    1  0.7841599E+004  0.2200487E+02  0.7546771E-02  0.1708168E+00
         21   -1    0    0  501  502  0.00000000000E+00  0.00000000000E+00  0.21499683389E+02  0.21499683389E+02  0.00000000000E+00 0.  1.
         21   -1    0    0  502  503 -0.00000000000E+00 -0.00000000000E+00 -0.26026532766E+02  0.26026532766E+02  0.00000000000E+00 0.  1.
          3    1    1    2  501    0  0.14237899594E+00  0.22004408220E+02 -0.10983390983E+02  0.24593680700E+02  0.00000000000E+00 0. -1.
         -3    1    1    2    0  503 -0.14237899594E+00 -0.22004408220E+02  0.64565416062E+01  0.22932535455E+02  0.00000000000E+00 0.  1.
<mgrwt>
<rscale>  2 0.22004869E+02</rscale>
<asrwt>0</asrwt>
<pdfrwt beam="1">  1       21 0.33076436E-02 0.22004869E+02</pdfrwt>
<pdfrwt beam="2">  1       21 0.40040820E-02 0.22004869E+02</pdfrwt>
<totfact> 0.13805964E+08</totfact>
</mgrwt>
</event>
<event>
 4    1  0.7841599E+004  0.2897573E+02  0.7546771E-02  0.1609695E+00
         21   -1    0    0  501  502  0.00000000000E+00  0.00000000000E+00  0.77119673692E+00  0.77119673692E+00  0.00000000000E+00 0.  1.
         21   -1    0    0  502  503 -0.00000000000E+00 -0.00000000000E+00 -0.10897089861E+04  0.10897089861E+04  0.00000000000E+00 0.  1.
          3    1    1    2  501    0  0.22379153449E+02  0.18405608274E+02 -0.52778252254E+03  0.52857732076E+03  0.00000000000E+00 0. -1.
         -3    1    1    2    0  503 -0.22379153449E+02 -0.18405608274E+02 -0.56115526687E+03  0.56190286212E+03  0.00000000000E+00 0.  1.
<mgrwt>
<rscale>  2 0.28975730E+02</rscale>
<asrwt>0</asrwt>
<pdfrwt beam="1">  1       21 0.11864588E-03 0.28975730E+02</pdfrwt>
<pdfrwt beam="2">  1       21 0.16764721E+00 0.28975730E+02</pdfrwt>
<totfact> 0.19596413E+07</totfact>
</mgrwt>
</event>
<event>
 4    1  0.7841599E+004  0.4413350E+02  0.7546771E-02  0.1479825E+00
         21   -1    0    0  501  502  0.00000000000E+00  0.00000000000E+00  0.23726154050E+02  0.23726154050E+02  0.00000000000E+00 0. -1.
         21   -1    0    0  502  503 -0.00000000000E+00 -0.00000000000E+00 -0.82342375644E+02  0.82342375644E+02  0.00000000000E+00 0. -1.
          2    1    1    2  501    0 -0.28024569824E+02  0.34093828503E+02 -0.26393105279E+02  0.51423357164E+02  0.00000000000E+00 0.  1.
         -2    1    1    2    0  503  0.28024569824E+02 -0.34093828503E+02 -0.32223116315E+02  0.54645172530E+02  0.00000000000E+00 0. -1.
<mgrwt>
<rscale>  2 0.44133498E+02</rscale>
<asrwt>0</asrwt>
<pdfrwt beam="1">  1       21 0.36501775E-02 0.44133498E+02</pdfrwt>
<pdfrwt beam="2">  1       21 0.12668058E-01 0.44133498E+02</pdfrwt>
<totfact> 0.20812710E+07</totfact>
</mgrwt>
</event>
<event>
 4    1  0.7841599E+004  0.2650351E+02  0.7546771E-02  0.1640300E+00
         21   -1    0    0  503  502  0.00000000000E+00  0.00000000000E+00  0.19811965224E+03  0.19811965224E+03  0.00000000000E+00 0. -1.
         21   -1    0    0  501  503 -0.00000000000E+00 -0.00000000000E+00 -0.45540816535E+01  0.45540816535E+01  0.00000000000E+00 0. -1.
          4    1    1    2  501    0  0.26268271640E+02 -0.35233353368E+01  0.49093633372E+02  0.55790866855E+02  0.00000000000E+00 0. -1.
         -4    1    1    2    0  502 -0.26268271640E+02  0.35233353368E+01  0.14447193722E+03  0.14688286704E+03  0.00000000000E+00 0.  1.
<mgrwt>
<rscale>  2 0.26503509E+02</rscale>
<asrwt>0</asrwt>
<pdfrwt beam="1">  1       21 0.30479940E-01 0.26503509E+02</pdfrwt>
<pdfrwt beam="2">  1       21 0.70062810E-03 0.26503509E+02</pdfrwt>
<totfact> 0.51152094E+07</totfact>
</mgrwt>
</event>
<event>
 4    1  0.7841599E+004  0.2880193E+02  0.7546771E-02  0.1611722E+00
         21   -1    0    0  503  502  0.00000000000E+00  0.00000000000E+00  0.74628718469E+01  0.74628718469E+01  0.00000000000E+00 0. -1.
         21   -1    0    0  501  503 -0.00000000000E+00 -0.00000000000E+00 -0.11900934087E+03  0.11900934087E+03  0.00000000000E+00 0. -1.
          5    1    1    2  501    0 -0.13500663351E+02  0.25441758399E+02 -0.72016456667E+02  0.77562368532E+02  0.00000000000E+00 0. -1.
         -5    1    1    2    0  502  0.13500663351E+02 -0.25441758399E+02 -0.39530012358E+02  0.48909844187E+02  0.00000000000E+00 0.  1.
<mgrwt>
<rscale>  2 0.28801927E+02</rscale>
<asrwt>0</asrwt>
<pdfrwt beam="1">  1       21 0.11481341E-02 0.28801927E+02</pdfrwt>
<pdfrwt beam="2">  1       21 0.18309130E-01 0.28801927E+02</pdfrwt>
<totfact> 0.61604445E+07</totfact>
</mgrwt>
</event>
<event>
 4    1  0.7841599E+004  0.2350444E+02  0.7546771E-02  0.1683461E+00
         21   -1    0    0  501  502  0.00000000000E+00  0.00000000000E+00  0.11255670338E+02  0.11255670338E+02  0.00000000000E+00 0.  1.
         21   -1    0    0  502  503 -0.00000000000E+00 -0.00000000000E+00 -0.64381726028E+02  0.64381726028E+02  0.00000000000E+00 0.  1.
          5    1    1    2  501    0  0.20323468473E+02 -0.11807422725E+02 -0.81274281022E+01  0.24869935459E+02  0.00000000000E+00 0.  1.
         -5    1    1    2    0  503 -0.20323468473E+02  0.11807422725E+02 -0.44998627587E+02  0.50767460907E+02  0.00000000000E+00 0. -1.
<mgrwt>
<rscale>  2 0.23504438E+02</rscale>
<asrwt>0</asrwt>
<pdfrwt beam="1">  1       21 0.17316415E-02 0.23504438E+02</pdfrwt>
<pdfrwt beam="2">  1       21 0.99048812E-02 0.23504438E+02</pdfrwt>
<totfact> 0.88845512E+07</totfact>
</mgrwt>
</event>
<event>
 4    1  0.7841599E+004  0.2416851E+02  0.7546771E-02  0.1673240E+00
         21   -1    0    0  501  502  0.00000000000E+00  0.00000000000E+00  0.32833204529E+01  0.32833204529E+01  0.00000000000E+00 0. -1.
         21   -1    0    0  502  503 -0.00000000000E+00 -0.00000000000E+00 -0.20976710535E+03  0.20976710535E+03  0.00000000000E+00 0. -1.
          4    1    1    2  501    0  0.21628668538E+02  0.10785061736E+02 -0.61724921904E+02  0.66287878556E+02  0.00000000000E+00 0. -1.
         -4    1    1    2    0  503 -0.21628668538E+02 -0.10785061736E+02 -0.14475886299E+03  0.14676254724E+03  0.00000000000E+00 0.  1.
<mgrwt>
<rscale>  2 0.24168510E+02</rscale>
<asrwt>0</asrwt>
<pdfrwt beam="1">  1       21 0.50512623E-03 0.24168510E+02</pdfrwt>
<pdfrwt beam="2">  1       21 0.32271862E-01 0.24168510E+02</pdfrwt>
<totfact> 0.73297032E+07</totfact>
</mgrwt>
</event>
<event>
 4    1  0.7841599E+004  0.2623549E+02  0.7546771E-02  0.1643865E+00
         21   -1    0    0  503  502  0.00000000000E+00  0.00000000000E+00  0.32496442612E+02  0.32496442612E+02  0.00000000000E+00 0. -1.
         21   -1    0    0  501  503 -0.00000000000E+00 -0.00000000000E+00 -0.22085598313E+02  0.22085598313E+02  0.00000000000E+00 0. -1.
          5    1    1    2  501    0 -0.21029798645E+02 -0.15685939509E+02  0.10729217165E+02  0.28344615543E+02  0.00000000000E+00 0.  1.
         -5    1    1    2    0  502  0.21029798645E+02  0.15685939509E+02 -0.31837286555E+00  0.26237425381E+02  0.00000000000E+00 0. -1.
<mgrwt>
<rscale>  2 0.26235494E+02</rscale>
<asrwt>0</asrwt>
<pdfrwt beam="1">  1       21 0.49994528E-02 0.26235494E+02</pdfrwt>
<pdfrwt beam="2">  1       21 0.33977843E-02 0.26235494E+02</pdfrwt>
<totfact> 0.97850419E+07</totfact>
</mgrwt>
</event>
<event>
 4    1  0.7841599E+004  0.2368888E+02  0.7546771E-02  0.1680581E+00
         21   -1    0    0  503  502  0.00000000000E+00  0.00000000000E+00  0.13045960911E+01  0.13045960911E+01  0.00000000000E+00 0. -1.
         21   -1    0    0  501  503 -0.00000000000E+00 -0.00000000000E+00 -0.46479898586E+03  0.46479898586E+03  0.00000000000E+00 0. -1.
          3    1    1    2  501    0  0.16819940480E+02 -0.16680905014E+02 -0.29538401104E+03  0.29633237583E+03  0.00000000000E+00 0. -1.
         -3    1    1    2    0  502 -0.16819940480E+02  0.16680905014E+02 -0.16811037873E+03  0.16977120612E+03  0.00000000000E+00 0.  1.
<mgrwt>
<rscale>  2 0.23688879E+02</rscale>
<asrwt>0</asrwt>
<pdfrwt beam="1">  1       21 0.20070702E-03 0.23688879E+02</pdfrwt>
<pdfrwt beam="2">  1       21 0.71507563E-01 0.23688879E+02</pdfrwt>
<totfact> 0.60008493E+07</totfact>
</mgrwt>
</event>
<event>
 4    1  0.7841599E+004  0.2344233E+02  0.7546771E-02  0.1684439E+00
         21   -1    0    0  503  502  0.00000000000E+00  0.00000000000E+00  0.15099581703E+02  0.15099581703E+02  0.00000000000E+00 0.  1.
         21   -1    0    0  501  503 -0.00000000000E+00 -0.00000000000E+00 -0.42512995947E+02  0.42512995947E+02  0.00000000000E+00 0.  1.
          2    1    1    2  501    0  0.19929372130E+02  0.12343539793E+02 -0.27785694720E+01  0.23606424897E+02  0.00000000000E+00 0.  1.
         -2    1    1    2    0  502 -0.19929372130E+02 -0.12343539793E+02 -0.24634844772E+02  0.34006152753E+02  0.00000000000E+00 0. -1.
<mgrwt>
<rscale>  2 0.23442330E+02</rscale>
<asrwt>0</asrwt>
<pdfrwt beam="1">  1       21 0.23230126E-02 0.23442330E+02</pdfrwt>
<pdfrwt beam="2">  1       21 0.65404609E-02 0.23442330E+02</pdfrwt>
<totfact> 0.11139699E+08</totfact>
</mgrwt>
</event>
<event>
 4    1  0.7841599E+004  0.3152128E+02  0.7546771E-02  0.1581857E+00
         21   -1    0    0  503  502  0.00000000000E+00  0.00000000000E+00  0.58832707202E+03  0.58832707202E+03  0.00000000000E+00 0. -1.
         21   -1    0    0  501  503 -0.00000000000E+00 -0.00000000000E+00 -0.18154670185E+01  0.18154670185E+01  0.00000000000E+00 0. -1.
          5    1    1    2  501    0 -0.31305189889E+02  0.36846007609E+01  0.21532784424E+03  0.21762277386E+03  0.00000000000E+00 0.  1.
         -5    1    1    2    0  502  0.31305189889E+02 -0.36846007609E+01  0.37118376076E+03  0.37251976518E+03  0.00000000000E+00 0. -1.
<mgrwt>
<rscale>  2 0.31521282E+02</rscale>
<asrwt>0</asrwt>
<pdfrwt beam="1">  1       21 0.90511705E-01 0.31521282E+02</pdfrwt>
<pdfrwt beam="2">  1       21 0.27930309E-03 0.31521282E+02</pdfrwt>
<totfact> 0.23798759E+07</totfact>
</mgrwt>
</event>
<event>
 4    1  0.7841599E+004  0.2504757E+02  0.7546771E-02  0.1660320E+00
         21   -1    0    0  501  502  0.00000000000E+00  0.00000000000E+00  0.33832463455E+02  0.33832463455E+02  0.00000000000E+00 0.  1.
         21   -1    0    0  502  503 -0.00000000000E+00 -0.00000000000E+00 -0.30145052425E+02  0.30145052425E+02  0.00000000000E+00 0.  1.
          3    1    1    2  501    0  0.19224481579E+02  0.16056147614E+02  0.21688327354E+02  0.33132523472E+02  0.00000000000E+00 0.  1.
         -3    1    1    2    0  503 -0.19224481579E+02 -0.16056147614E+02 -0.18000916324E+02  0.30844992408E+02  0.00000000000E+00 0. -1.
<mgrwt>
<rscale>  2 0.25047566E+02</rscale>
<asrwt>0</asrwt>
<pdfrwt beam="1">  1       21 0.52049944E-02 0.25047566E+02</pdfrwt>
<pdfrwt beam="2">  1       21 0.46377004E-02 0.25047566E+02</pdfrwt>
<totfact> 0.55427340E+07</totfact>
</mgrwt>
</event>
<event>
 4    1  0.7841599E+004  0.2373280E+02  0.7546771E-02  0.1679900E+00
         21   -1    0    0  503  502  0.00000000000E+00  0.00000000000E+00  0.70569772804E+02  0.70569772804E+02  0.00000000000E+00 0.  1.
         21   -1    0    0  501  503 -0.00000000000E+00 -0.00000000000E+00 -0.84986310040E+01  0.84986310040E+01  0.00000000000E+00 0.  1.
          5    1    1    2  501    0  0.11731385176E+02  0.20630568079E+02  0.40788607526E+02  0.47190637221E+02  0.00000000000E+00 0. -1.
         -5    1    1    2    0  502 -0.11731385176E+02 -0.20630568079E+02  0.21282534274E+02  0.31877766587E+02  0.00000000000E+00 0.  1.
<mgrwt>
<rscale>  2 0.23732799E+02</rscale>
<asrwt>0</asrwt>
<pdfrwt beam="1">  1       21 0.10856888E-01 0.23732799E+02</pdfrwt>
<pdfrwt beam="2">  1       21 0.13074817E-02 0.23732799E+02</pdfrwt>
<totfact> 0.11731487E+08</totfact>
</mgrwt>
</event>
<event>
 4    1  0.7841599E+004  0.3303708E+02  0.7546771E-02  0.1566756E+00
         21   -1    0    0  503  502  0.00000000000E+00  0.00000000000E+00  0.32833189972E+03  0.32833189972E+03  0.00000000000E+00 0.  1.
         21   -1    0    0  501  503 -0.00000000000E+00 -0.00000000000E+00 -0.34905477961E+01  0.34905477961E+01  0.00000000000E+00 0.  1.
          1    1    1    2  501    0 -0.19540463496E+02 -0.26638672533E+02  0.19863721405E+03  0.20136581486E+03  0.00000000000E+00 0. -1.
         -1    1    1    2    0  502  0.19540463496E+02  0.26638672533E+02  0.12620413787E+03  0.13045663266E+03  0.00000000000E+00 0.  1.
<mgrwt>
<rscale>  2 0.33037079E+02</rscale>
<asrwt>0</asrwt>
<pdfrwt beam="1">  1       21 0.50512576E-01 0.33037079E+02</pdfrwt>
<pdfrwt beam="2">  1       21 0.53700761E-03 0.33037079E+02</pdfrwt>
<totfact> 0.30453934E+07</totfact>
</mgrwt>
</event>
<event>
 4    1  0.7841599E+004  0.2202778E+02  0.7546771E-02  0.1707772E+00
         21   -1    0    0  501  502  0.00000000000E+00  0.00000000000E+00  0.34391643996E+01  0.34391643996E+01  0.00000000000E+00 0. -1.
         21   -1    0    0  502  503 -0.00000000000E+00 -0.00000000000E+00 -0.14121665777E+03  0.14121665777E+03  0.00000000000E+00 0. -1.
          3    1    1    2  501    0 -0.49846634732E+01 -0.21456383829E+02 -0.71075703654E+02  0.74410879090E+02  0.00000000000E+00 0.  1.
         -3    1    1    2    0  503  0.49846634732E+01  0.21456383829E+02 -0.66701789712E+02  0.70244943075E+02  0.00000000000E+00 0. -1.
<mgrwt>
<rscale>  2 0.22027784E+02</rscale>
<asrwt>0</asrwt>
<pdfrwt beam="1">  1       21 0.52910236E-03 0.22027784E+02</pdfrwt>
<pdfrwt beam="2">  1       21 0.21725634E-01 0.22027784E+02</pdfrwt>
<totfact> 0.13579688E+08</totfact>
</mgrwt>
</event>
<event>
 4    1  0.7841599E+004  0.3220618E+02  0.7546771E-02  0.1574909E+00
         21   -1    0    0  501  502  0.00000000000E+00  0.00000000000E+00  0.21678686454E+02  0.21678686454E+02  0.00000000000E+00 0.  1.
         21   -1    0    0  502  503 -0.00000000000E+00 -0.00000000000E+00 -0.48564618381E+02  0.48564618381E+02  0.00000000000E+00 0.  1.
          3    1    1    2  501    0  0.59878021867E+01  0.31644660935E+02 -0.91706301247E+01  0.33486397203E+02  0.00000000000E+00 0.  1.
         -3    1    1    2    0  503 -0.59878021867E+01 -0.31644660935E+02 -0.17715301802E+02  0.36756907632E+02  0.00000000000E+00 0. -1.
<mgrwt>
<rscale>  2 0.32206185E+02</rscale>
<asrwt>0</asrwt>
<pdfrwt beam="1">  1       21 0.33351825E-02 0.32206185E+02</pdfrwt>
<pdfrwt beam="2">  1       21 0.74714797E-02 0.32206185E+02</pdfrwt>
<totfact> 0.55157551E+07</totfact>
</mgrwt>
</event>
<event>
 4    1  0.7841599E+004  0.2045565E+02  0.7546771E-02  0.1736416E+00
         21   -1    0    0  503  502  0.00000000000E+00  0.00000000000E+00  0.80173842951E+01  0.80173842951E+01  0.00000000000E+00 0.  1.
         21   -1    0    0  501  503 -0.00000000000E+00 -0.00000000000E+00 -0.52205276293E+02  0.52205276293E+02  0.00000000000E+00 0.  1.
          2    1    1    2  501    0 -0.54879780052E+01 -0.19705726494E+02 -0.22595670251E+02  0.30479466422E+02  0.00000000000E+00 0. -1.
         -2    1    1    2    0  502  0.54879780052E+01  0.19705726494E+02 -0.21592221747E+02  0.29743194167E+02  0.00000000000E+00 0.  1.
<mgrwt>
<rscale>  2 0.20455649E+02</rscale>
<asrwt>0</asrwt>
<pdfrwt beam="1">  1       21 0.12334438E-02 0.20455649E+02</pdfrwt>
<pdfrwt beam="2">  1       21 0.80315806E-02 0.20455649E+02</pdfrwt>
<totfact> 0.20100005E+08</totfact>
</mgrwt>
</event>
<event>
 4    1  0.7841599E+004  0.2251771E+02  0.7546771E-02  0.1699449E+00
         21   -1    0    0  503  502  0.00000000000E+00  0.00000000000E+00  0.66616935730E+01  0.66616935730E+01  0.00000000000E+00 0. -1.
         21   -1    0    0  501  503 -0.00000000000E+00 -0.00000000000E+00 -0.78312467236E+02  0.78312467236E+02  0.00000000000E+00 0. -1.
          4    1    1    2  501    0  0.22051974932E+02 -0.45560664805E+01 -0.42944294515E+02  0.48489790384E+02  0.00000000000E+00 0.  1.
         -4    1    1    2    0  502 -0.22051974932E+02  0.45560664805E+01 -0.28706479149E+02  0.36484370425E+02  0.00000000000E+00 0. -1.
<mgrwt>
<rscale>  2 0.22517712E+02</rscale>
<asrwt>0</asrwt>
<pdfrwt beam="1">  1       21 0.10248759E-02 0.22517712E+02</pdfrwt>
<pdfrwt beam="2">  1       21 0.12048072E-01 0.22517712E+02</pdfrwt>
<totfact> 0.14020405E+08</totfact>
</mgrwt>
</event>
<event>
 4    1  0.7841599E+004  0.2149444E+02  0.7546771E-02  0.1717145E+00
         21   -1    0    0  503  502  0.00000000000E+00  0.00000000000E+00  0.28576166001E+02  0.28576166001E+02  0.00000000000E+00 0.  1.
         21   -1    0    0  501  503 -0.00000000000E+00 -0.00000000000E+00 -0.17581535366E+02  0.17581535366E+02  0.00000000000E+00 0.  1.
          1    1    1    2  501    0 -0.17625810682E+02  0.12302098359E+02 -0.10473204634E+01  0.21519937416E+02  0.00000000000E+00 0. -1.
         -1    1    1    2    0  502  0.17625810682E+02 -0.12302098359E+02  0.12041951098E+02  0.24637763951E+02  0.00000000000E+00 0.  1.
<mgrwt>
<rscale>  2 0.21494437E+02</rscale>
<asrwt>0</asrwt>
<pdfrwt beam="1">  1       21 0.43963332E-02 0.21494437E+02</pdfrwt>
<pdfrwt beam="2">  1       21 0.27048516E-02 0.21494437E+02</pdfrwt>
<totfact> 0.16170982E+08</totfact>
</mgrwt>
</event>
<event>
 4    1  0.7841599E+004  0.2097305E+02  0.7546771E-02  0.1726643E+00
         21   -1    0    0  501  502  0.00000000000E+00  0.00000000000E+00  0.16901728112E+01  0.16901728112E+01  0.00000000000E+00 0. -1.
         21   -1    0    0  502  503 -0.00000000000E+00 -0.00000000000E+00 -0.36272635740E+03  0.36272635740E+03  0.00000000000E+00 0. -1.
          4    1    1    2  501    0 -0.14255230189E+02 -0.15383662697E+02 -0.83670492575E+02  0.86259028475E+02  0.00000000000E+00 0. -1.
         -4    1    1    2    0  503  0.14255230189E+02  0.15383662697E+02 -0.27736569202E+03  0.27815750174E+03  0.00000000000E+00 0.  1.
<mgrwt>
<rscale>  2 0.20973046E+02</rscale>
<asrwt>0</asrwt>
<pdfrwt beam="1">  1       21 0.26002636E-03 0.20973046E+02</pdfrwt>
<pdfrwt beam="2">  1       21 0.55804103E-01 0.20973046E+02</pdfrwt>
<totfact> 0.66003832E+07</totfact>
</mgrwt>
</event>
<event>
 4    1  0.7841599E+004  0.3088983E+02  0.7546771E-02  0.1588456E+00
         21   -1    0    0  501  502  0.00000000000E+00  0.00000000000E+00  0.30582519081E+02  0.30582519081E+02  0.00000000000E+00 0. -1.
         21   -1    0    0  502  503 -0.00000000000E+00 -0.00000000000E+00 -0.32008217666E+02  0.32008217666E+02  0.00000000000E+00 0. -1.
          5    1    1    2  501    0 -0.14855324833E+02  0.27083227302E+02 -0.56850598464E+01  0.31408625924E+02  0.00000000000E+00 0.  1.
         -5    1    1    2    0  503  0.14855324833E+02 -0.27083227302E+02  0.42593612618E+01  0.31182110823E+02  0.00000000000E+00 0. -1.
<mgrwt>
<rscale>  2 0.30889835E+02</rscale>
<asrwt>0</asrwt>
<pdfrwt beam="1">  1       21 0.47050029E-02 0.30889835E+02</pdfrwt>
<pdfrwt beam="2">  1       21 0.49243412E-02 0.30889835E+02</pdfrwt>
<totfact> 0.62231277E+07</totfact>
</mgrwt>
</event>
<event>
 4    1  0.7841599E+004  0.2016715E+02  0.7546771E-02  0.1742024E+00
         21   -1    0    0  503  502  0.00000000000E+00  0.00000000000E+00  0.74806002762E+02  0.74806002762E+02  0.00000000000E+00 0. -1.
         21   -1    0    0  501  503 -0.00000000000E+00 -0.00000000000E+00 -0.54442446442E+01  0.54442446442E+01  0.00000000000E+00 0. -1.
          3    1    1    2  501    0 -0.80809739583E+01 -0.18477331610E+02  0.33208664254E+02  0.38852661493E+02  0.00000000000E+00 0.  1.
         -3    1    1    2    0  502  0.80809739583E+01  0.18477331610E+02  0.36153093863E+02  0.41397585913E+02  0.00000000000E+00 0. -1.
<mgrwt>
<rscale>  2 0.20167150E+02</rscale>
<asrwt>0</asrwt>
<pdfrwt beam="1">  1       21 0.11508615E-01 0.20167150E+02</pdfrwt>
<pdfrwt beam="2">  1       21 0.83757615E-03 0.20167150E+02</pdfrwt>
<totfact> 0.19778934E+08</totfact>
</mgrwt>
</event>
<event>
 4    1  0.7841599E+004  0.2170325E+02  0.7546771E-02  0.1713435E+00
         21   -1    0    0  501  502  0.00000000000E+00  0.00000000000E+00  0.94157807883E+02  0.94157807883E+02  0.00000000000E+00 0.  1.
         21   -1    0    0  502  503 -0.00000000000E+00 -0.00000000000E+00 -0.59674827014E+01  0.59674827014E+01  0.00000000000E+00 0.  1.
          2    1    1    2  501    0  0.32217382560E+01  0.21462794000E+02  0.64226006675E+02  0.67793886576E+02  0.00000000000E+00 0. -1.
         -2    1    1    2    0  503 -0.32217382560E+01 -0.21462794000E+02  0.23964318506E+02  0.32331404008E+02  0.00000000000E+00 0.  1.
<mgrwt>
<rscale>  2 0.21703251E+02</rscale>
<asrwt>0</asrwt>
<pdfrwt beam="1">  1       21 0.14485815E-01 0.21703251E+02</pdfrwt>
<pdfrwt beam="2">  1       21 0.91807433E-03 0.21703251E+02</pdfrwt>
<totfact> 0.11993956E+08</totfact>
</mgrwt>
</event>
<event>
 4    1  0.7841599E+004  0.2371284E+02  0.7546771E-02  0.1680209E+00
         21   -1    0    0  503  502  0.00000000000E+00  0.00000000000E+00  0.22724040759E+04  0.22724040759E+04  0.00000000000E+00 0. -1.
         21   -1    0    0  501  503 -0.00000000000E+00 -0.00000000000E+00 -0.25694799233E+00  0.25694799233E+00  0.00000000000E+00 0. -1.
          3    1    1    2  501    0 -0.23712320595E+02 -0.15708112914E+00  0.13545849490E+04  0.13547924870E+04  0.00000000000E+00 0.  1.
         -3    1    1    2    0  502  0.23712320595E+02  0.15708112914E+00  0.91756217894E+03  0.91786853691E+03  0.00000000000E+00 0. -1.
<mgrwt>
<rscale>  2 0.23712841E+02</rscale>
<asrwt>0</asrwt>
<pdfrwt beam="1">  1       21 0.34958453E+00 0.23712841E+02</pdfrwt>
<pdfrwt beam="2">  1       21 0.39532280E-04 0.23712841E+02</pdfrwt>
<totfact> 0.10318815E+07</totfact>
</mgrwt>
</event>
<event>
 4    1  0.7841599E+004  0.2059754E+02  0.7546771E-02  0.1733700E+00
         21   -1    0    0  503  502  0.00000000000E+00  0.00000000000E+00  0.26246601491E+01  0.26246601491E+01  0.00000000000E+00 0. -1.
         21   -1    0    0  501  503 -0.00000000000E+00 -0.00000000000E+00 -0.19593755510E+03  0.19593755510E+03  0.00000000000E+00 0. -1.
          4    1    1    2  501    0  0.78278971056E+01 -0.19052105906E+02 -0.55121038084E+02  0.58843755420E+02  0.00000000000E+00 0. -1.
         -4    1    1    2    0  502 -0.78278971056E+01  0.19052105906E+02 -0.13819185687E+03  0.13971845983E+03  0.00000000000E+00 0.  1.
<mgrwt>
<rscale>  2 0.20597541E+02</rscale>
<asrwt>0</asrwt>
<pdfrwt beam="1">  1       21 0.40379385E-03 0.20597541E+02</pdfrwt>
<pdfrwt beam="2">  1       21 0.30144241E-01 0.20597541E+02</pdfrwt>
<totfact> 0.11052438E+08</totfact>
</mgrwt>
</event>
<event>
 4    1  0.7841599E+004  0.2230943E+02  0.7546771E-02  0.1702955E+00
         21   -1    0    0  503  502  0.00000000000E+00  0.00000000000E+00  0.72851895884E+00  0.72851895884E+00  0.00000000000E+00 0.  1.
         21   -1    0    0  501  503 -0.00000000000E+00 -0.00000000000E+00 -0.68599425055E+03  0.68599425055E+03  0.00000000000E+00 0.  1.
          2    1    1    2  501    0 -0.20799383515E+02  0.80682400433E+01 -0.32064727830E+03  0.32142244467E+03  0.00000000000E+00 0.  1.
         -2    1    1    2    0  502  0.20799383515E+02 -0.80682400433E+01 -0.36461845328E+03  0.36530032484E+03  0.00000000000E+00 0. -1.
<mgrwt>
<rscale>  2 0.22309434E+02</rscale>
<asrwt>0</asrwt>
<pdfrwt beam="1">  1       21 0.11208009E-03 0.22309434E+02</pdfrwt>
<pdfrwt beam="2">  1       21 0.10553734E+00 0.22309434E+02</pdfrwt>
<totfact> 0.59594246E+07</totfact>
</mgrwt>
</event>
<event>
 4    1  0.7841599E+004  0.3114135E+02  0.7546771E-02  0.1585805E+00
         21   -1    0    0  503  502  0.00000000000E+00  0.00000000000E+00  0.10727069719E+03  0.10727069719E+03  0.00000000000E+00 0. -1.
         21   -1    0    0  501  503 -0.00000000000E+00 -0.00000000000E+00 -0.15800847746E+02  0.15800847746E+02  0.00000000000E+00 0. -1.
          5    1    1    2  501    0  0.12398558828E+02  0.28566754691E+02  0.85985406536E+02  0.91450936965E+02  0.00000000000E+00 0.  1.
         -5    1    1    2    0  502 -0.12398558828E+02 -0.28566754691E+02  0.54844429106E+01  0.31620607974E+02  0.00000000000E+00 0. -1.
<mgrwt>
<rscale>  2 0.31141351E+02</rscale>
<asrwt>0</asrwt>
<pdfrwt beam="1">  1       21 0.16503184E-01 0.31141351E+02</pdfrwt>
<pdfrwt beam="2">  1       21 0.24308997E-02 0.31141351E+02</pdfrwt>
<totfact> 0.23632274E+07</totfact>
</mgrwt>
</event>
<event>
 4    1  0.7841599E+004  0.2902750E+02  0.7546771E-02  0.1609094E+00
         21   -1    0    0  501  502  0.00000000000E+00  0.00000000000E+00  0.71050952784E+02  0.71050952784E+02  0.00000000000E+00 0.  1.
         21   -1    0    0  502  503 -0.00000000000E+00 -0.00000000000E+00 -0.12058265459E+02  0.12058265459E+02  0.00000000000E+00 0.  1.
          1    1    1    2  501    0  0.14203123908E+02 -0.25315354697E+02  0.34837704823E+02  0.45346020658E+02  0.00000000000E+00 0.  1.
         -1    1    1    2    0  503 -0.14203123908E+02  0.25315354697E+02  0.24154982501E+02  0.37763197585E+02  0.00000000000E+00 0. -1.
<mgrwt>
<rscale>  2 0.29027503E+02</rscale>
<asrwt>0</asrwt>
<pdfrwt beam="1">  1       21 0.10930916E-01 0.29027503E+02</pdfrwt>
<pdfrwt beam="2">  1       21 0.18551178E-02 0.29027503E+02</pdfrwt>
<totfact> 0.71578772E+07</totfact>
</mgrwt>
</event>
<event>
 4    1  0.7841599E+004  0.2012924E+02  0.7546771E-02  0.1742770E+00
         21   -1    0    0  503  502  0.00000000000E+00  0.00000000000E+00  0.32494892551E+02  0.32494892551E+02  0.00000000000E+00 0. -1.
         21   -1    0    0  501  503 -0.00000000000E+00 -0.00000000000E+00 -0.14664799398E+02  0.14664799398E+02  0.00000000000E+00 0. -1.
          2    1    1    2  501    0  0.16737605268E+02 -0.11182084240E+02  0.18038852351E+02  0.27029366108E+02  0.00000000000E+00 0.  1.
         -2    1    1    2    0  502 -0.16737605268E+02  0.11182084240E+02 -0.20875919755E+00  0.20130325841E+02  0.00000000000E+00 0. -1.
<mgrwt>
<rscale>  2 0.20129243E+02</rscale>
<asrwt>0</asrwt>
<pdfrwt beam="1">  1       21 0.49992142E-02 0.20129243E+02</pdfrwt>
<pdfrwt beam="2">  1       21 0.22561230E-02 0.20129243E+02</pdfrwt>
<totfact> 0.17092771E+08</totfact>
</mgrwt>
</event>
<event>
 4    1  0.7841599E+004  0.4084584E+02  0.7546771E-02  0.1502078E+00
         21   -1    0    0  501  502  0.00000000000E+00  0.00000000000E+00  0.51767226653E+03  0.51767226653E+03  0.00000000000E+00 0. -1.
         21   -1    0    0  502  503 -0.00000000000E+00 -0.00000000000E+00 -0.34254091399E+01  0.34254091399E+01  0.00000000000E+00 0. -1.
          4    1    1    2  501    0  0.17579123331E+02  0.36869459635E+02  0.32048172944E+03  0.32307417343E+03  0.00000000000E+00 0.  1.
         -4    1    1    2    0  503 -0.17579123331E+02 -0.36869459635E+02  0.19376512794E+03  0.19802350224E+03  0.00000000000E+00 0. -1.
<mgrwt>
<rscale>  2 0.40845840E+02</rscale>
<asrwt>0</asrwt>
<pdfrwt beam="1">  1       21 0.79641825E-01 0.40845840E+02</pdfrwt>
<pdfrwt beam="2">  1       21 0.52698643E-03 0.40845840E+02</pdfrwt>
<totfact> 0.12669286E+07</totfact>
</mgrwt>
</event>
<event>
 4    1  0.7841599E+004  0.2021021E+02  0.7546771E-02  0.1741180E+00
         21   -1    0    0  501  502  0.00000000000E+00  0.00000000000E+00  0.11803318722E+01  0.11803318722E+01  0.00000000000E+00 0.  1.
         21   -1    0    0  502  503 -0.00000000000E+00 -0.00000000000E+00 -0.34639012522E+03  0.34639012522E+03  0.00000000000E+00 0.  1.
          2    1    1    2  501    0  0.14716070156E+02 -0.13852434771E+02 -0.17805850379E+03  0.17920179531E+03  0.00000000000E+00 0.  1.
         -2    1    1    2    0  503 -0.14716070156E+02  0.13852434771E+02 -0.16715128956E+03  0.16836866179E+03  0.00000000000E+00 0. -1.
<mgrwt>
<rscale>  2 0.20210212E+02</rscale>
<asrwt>0</asrwt>
<pdfrwt beam="1">  1       21 0.18158947E-03 0.20210212E+02</pdfrwt>
<pdfrwt beam="2">  1       21 0.53290802E-01 0.20210212E+02</pdfrwt>
<totfact> 0.12001093E+08</totfact>
</mgrwt>
</event>
<event>
 4    1  0.7841599E+004  0.2503193E+02  0.7546771E-02  0.1660544E+00
         21   -1    0    0  503  502  0.00000000000E+00  0.00000000000E+00  0.91352068046E+02  0.91352068046E+02  0.00000000000E+00 0.  1.
         21   -1    0    0  501  503 -0.00000000000E+00 -0.00000000000E+00 -0.69396449490E+01  0.69396449490E+01  0.00000000000E+00 0.  1.
          4    1    1    2  501    0  0.24581704569E+02 -0.47262371671E+01  0.36913195680E+02  0.44600241396E+02  0.00000000000E+00 0. -1.
         -4    1    1    2    0  502 -0.24581704569E+02  0.47262371671E+01  0.47499227417E+02  0.53691471599E+02  0.00000000000E+00 0.  1.
<mgrwt>
<rscale>  2 0.25031930E+02</rscale>
<asrwt>0</asrwt>
<pdfrwt beam="1">  1       21 0.14054163E-01 0.25031930E+02</pdfrwt>
<pdfrwt beam="2">  1       21 0.10676378E-02 0.25031930E+02</pdfrwt>
<totfact> 0.10477190E+08</totfact>
</mgrwt>
</event>
<event>
 4    1  0.7841599E+004  0.2721866E+02  0.7546771E-02  0.1631038E+00
         21   -1    0    0  501  502  0.00000000000E+00  0.00000000000E+00  0.41065183581E+01  0.41065183581E+01  0.00000000000E+00 0. -1.
         21   -1    0    0  502  503 -0.00000000000E+00 -0.00000000000E+00 -0.26051094594E+03  0.26051094594E+03  0.00000000000E+00 0. -1.
          2    1    1    2  501    0  0.15395997155E+02  0.22445910074E+02 -0.20156828219E+03  0.20339770892E+03  0.00000000000E+00 0.  1.
         -2    1    1    2    0  503 -0.15395997155E+02 -0.22445910074E+02 -0.54836145385E+02  0.61219755375E+02  0.00000000000E+00 0. -1.
<mgrwt>
<rscale>  2 0.27218663E+02</rscale>
<asrwt>0</asrwt>
<pdfrwt beam="1">  1       21 0.63177205E-03 0.27218663E+02</pdfrwt>
<pdfrwt beam="2">  1       21 0.40078608E-01 0.27218663E+02</pdfrwt>
<totfact> 0.36037522E+07</totfact>
</mgrwt>
</event>
<event>
 4    1  0.7841599E+004  0.2431946E+02  0.7546771E-02  0.1670974E+00
         21   -1    0    0  501  502  0.00000000000E+00  0.00000000000E+00  0.22187056438E+02  0.22187056438E+02  0.00000000000E+00 0.  1.
         21   -1    0    0  502  503 -0.00000000000E+00 -0.00000000000E+00 -0.33907476859E+02  0.33907476859E+02  0.00000000000E+00 0.  1.
          4    1    1    2  501    0  0.19022964836E+02 -0.15151330176E+02 -0.18829971577E+02  0.30757175209E+02  0.00000000000E+00 0. -1.
         -4    1    1    2    0  503 -0.19022964836E+02  0.15151330176E+02  0.71095511549E+01  0.25337358088E+02  0.00000000000E+00 0.  1.
<mgrwt>
<rscale>  2 0.24319457E+02</rscale>
<asrwt>0</asrwt>
<pdfrwt beam="1">  1       21 0.34133933E-02 0.24319457E+02</pdfrwt>
<pdfrwt beam="2">  1       21 0.52165349E-02 0.24319457E+02</pdfrwt>
<totfact> 0.88965132E+07</totfact>
</mgrwt>
</event>
<event>
 4    1  0.7841599E+004  0.2130050E+02  0.7546771E-02  0.1720638E+00
         21   -1    0    0  503  502  0.00000000000E+00  0.00000000000E+00  0.37721564444E+02  0.37721564444E+02  0.00000000000E+00 0. -1.
         21   -1    0    0  501  503 -0.00000000000E+00 -0.00000000000E+00 -0.13023177945E+02  0.13023177945E+02  0.00000000000E+00 0. -1.
          5    1    1    2  501    0  0.14187898317E+02  0.15887571848E+02  0.19363320549E+02  0.28786274169E+02  0.00000000000E+00 0.  1.
         -5    1    1    2    0  502 -0.14187898317E+02 -0.15887571848E+02  0.53350659496E+01  0.21958468220E+02  0.00000000000E+00 0. -1.
<mgrwt>
<rscale>  2 0.21300502E+02</rscale>
<asrwt>0</asrwt>
<pdfrwt beam="1">  1       21 0.58033176E-02 0.21300502E+02</pdfrwt>
<pdfrwt beam="2">  1       21 0.20035659E-02 0.21300502E+02</pdfrwt>
<totfact> 0.16463005E+08</totfact>
</mgrwt>
</event>
<event>
 4    1  0.7841599E+004  0.2020311E+02  0.7546771E-02  0.1741319E+00
         21   -1    0    0  501  502  0.00000000000E+00  0.00000000000E+00  0.11025591061E+01  0.11025591061E+01  0.00000000000E+00 0.  1.
         21   -1    0    0  502  503 -0.00000000000E+00 -0.00000000000E+00 -0.42559374064E+03  0.42559374064E+03  0.00000000000E+00 0.  1.
          4    1    1    2  501    0  0.19039444401E+02  0.67576135477E+01 -0.13527456220E+03  0.13677489888E+03  0.00000000000E+00 0.  1.
         -4    1    1    2    0  503 -0.19039444401E+02 -0.67576135477E+01 -0.28921661933E+03  0.28992140087E+03  0.00000000000E+00 0. -1.
<mgrwt>
<rscale>  2 0.20203113E+02</rscale>
<asrwt>0</asrwt>
<pdfrwt beam="1">  1       21 0.16962467E-03 0.20203113E+02</pdfrwt>
<pdfrwt beam="2">  1       21 0.65475887E-01 0.20203113E+02</pdfrwt>
<totfact> 0.87959208E+07</totfact>
</mgrwt>
</event>
<event>
 4    1  0.7841599E+004  0.2094800E+02  0.7546771E-02  0.1727107E+00
         21   -1    0    0  501  502  0.00000000000E+00  0.00000000000E+00  0.10773578329E+02  0.10773578329E+02  0.00000000000E+00 0.  1.
         21   -1    0    0  502  503 -0.00000000000E+00 -0.00000000000E+00 -0.47762901934E+02  0.47762901934E+02  0.00000000000E+00 0.  1.
          4    1    1    2  501    0  0.19586215944E+02  0.74296056521E+01 -0.29724845696E+02  0.36364616687E+02  0.00000000000E+00 0.  1.
         -4    1    1    2    0  503 -0.19586215944E+02 -0.74296056521E+01 -0.72644779087E+01  0.22171863576E+02  0.00000000000E+00 0. -1.
<mgrwt>
<rscale>  2 0.20948005E+02</rscale>
<asrwt>0</asrwt>
<pdfrwt beam="1">  1       21 0.16574736E-02 0.20948005E+02</pdfrwt>
<pdfrwt beam="2">  1       21 0.73481387E-02 0.20948005E+02</pdfrwt>
<totfact> 0.14962954E+08</totfact>
</mgrwt>
</event>
<event>
 4    1  0.7841599E+004  0.2070159E+02  0.7546771E-02  0.1731725E+00
         21   -1    0    0  501  502  0.00000000000E+00  0.00000000000E+00  0.23774884727E+03  0.23774884727E+03  0.00000000000E+00 0. -1.
         21   -1    0    0  502  503 -0.00000000000E+00 -0.00000000000E+00 -0.18084640247E+01  0.18084640247E+01  0.00000000000E+00 0. -1.
          5    1    1    2  501    0  0.20140328636E+02  0.47878064202E+01  0.12481555770E+03  0.12652066776E+03  0.00000000000E+00 0. -1.
         -5    1    1    2    0  503 -0.20140328636E+02 -0.47878064202E+01  0.11112482554E+03  0.11303664353E+03  0.00000000000E+00 0.  1.
<mgrwt>
<rscale>  2 0.20701592E+02</rscale>
<asrwt>0</asrwt>
<pdfrwt beam="1">  1       21 0.36576721E-01 0.20701592E+02</pdfrwt>
<pdfrwt beam="2">  1       21 0.27822542E-03 0.20701592E+02</pdfrwt>
<totfact> 0.13354658E+08</totfact>
</mgrwt>
</event>
<event>
 4    1  0.7841599E+004  0.2607541E+02  0.7546771E-02  0.1646019E+00
         21   -1    0    0  501  502  0.00000000000E+00  0.00000000000E+00  0.24296443621E+03  0.24296443621E+03  0.00000000000E+00 0.  1.
         21   -1    0    0  502  503 -0.00000000000E+00 -0.00000000000E+00 -0.28418619943E+01  0.28418619943E+01  0.00000000000E+00 0.  1.
          3    1    1    2  501    0 -0.25789286121E+02  0.38522391396E+01  0.10487328921E+03  0.10806633988E+03  0.00000000000E+00 0. -1.
         -3    1    1    2    0  503  0.25789286121E+02 -0.38522391396E+01  0.13524928500E+03  0.13773995832E+03  0.00000000000E+00 0.  1.
<mgrwt>
<rscale>  2 0.26075410E+02</rscale>
<asrwt>0</asrwt>
<pdfrwt beam="1">  1       21 0.37379128E-01 0.26075410E+02</pdfrwt>
<pdfrwt beam="2">  1       21 0.43720973E-03 0.26075410E+02</pdfrwt>
<totfact> 0.70318041E+07</totfact>
</mgrwt>
</event>
<event>
 4    1  0.7841599E+004  0.2415161E+02  0.7546771E-02  0.1673495E+00
         21   -1    0    0  501  502  0.00000000000E+00  0.00000000000E+00  0.65859223437E+02  0.65859223437E+02  0.00000000000E+00 0. -1.
         21   -1    0    0  502  503 -0.00000000000E+00 -0.00000000000E+00 -0.10000116131E+02  0.10000116131E+02  0.00000000000E+00 0. -1.
          5    1    1    2  501    0  0.13404709752E+02  0.20090147356E+02  0.15104339524E+02  0.28485809393E+02  0.00000000000E+00 0. -1.
         -5    1    1    2    0  503 -0.13404709752E+02 -0.20090147356E+02  0.40754767782E+02  0.47373530175E+02  0.00000000000E+00 0.  1.
<mgrwt>
<rscale>  2 0.24151610E+02</rscale>
<asrwt>0</asrwt>
<pdfrwt beam="1">  1       21 0.10132188E-01 0.24151610E+02</pdfrwt>
<pdfrwt beam="2">  1       21 0.15384794E-02 0.24151610E+02</pdfrwt>
<totfact> 0.10328035E+08</totfact>
</mgrwt>
</event>
<event>
 4    1  0.7841599E+004  0.4193734E+02  0.7546771E-02  0.1494420E+00
         21   -1    0    0  501  502  0.00000000000E+00  0.00000000000E+00  0.21848881646E+02  0.21848881646E+02  0.00000000000E+00 0. -1.
         21   -1    0    0  502  503 -0.00000000000E+00 -0.00000000000E+00 -0.91540989914E+02  0.91540989914E+02  0.00000000000E+00 0. -1.
          3    1    1    2  501    0  0.24026423005E+02 -0.34372540713E+02 -0.54539669135E+02  0.68799099318E+02  0.00000000000E+00 0. -1.
         -3    1    1    2    0  503 -0.24026423005E+02  0.34372540713E+02 -0.15152439133E+02  0.44590772242E+02  0.00000000000E+00 0.  1.
<mgrwt>
<rscale>  2 0.41937341E+02</rscale>
<asrwt>0</asrwt>
<pdfrwt beam="1">  1       21 0.33613664E-02 0.41937341E+02</pdfrwt>
<pdfrwt beam="2">  1       21 0.14083229E-01 0.41937341E+02</pdfrwt>
<totfact> 0.19623823E+07</totfact>
</mgrwt>
</event>
<event>
 4    1  0.7841599E+004  0.2123809E+02  0.7546771E-02  0.1721772E+00
         21   -1    0    0  503  502  0.00000000000E+00  0.00000000000E+00  0.35953564316E+03  0.35953564316E+03  0.00000000000E+00 0.  1.
         21   -1    0    0  501  503 -0.00000000000E+00 -0.00000000000E+00 -0.12636891125E+01  0.12636891125E+01  0.00000000000E+00 0.  1.
          1    1    1    2  501    0  0.20825404964E+02  0.41663864450E+01  0.16379641451E+03  0.16516755636E+03  0.00000000000E+00 0.  1.
         -1    1    1    2    0  502 -0.20825404964E+02 -0.41663864450E+01  0.19447553954E+03  0.19563177591E+03  0.00000000000E+00 0. -1.
<mgrwt>
<rscale>  2 0.21238085E+02</rscale>
<asrwt>0</asrwt>
<pdfrwt beam="1">  1       21 0.55313094E-01 0.21238085E+02</pdfrwt>
<pdfrwt beam="2">  1       21 0.19441400E-03 0.21238085E+02</pdfrwt>
<totfact> 0.10252321E+08</totfact>
</mgrwt>
</event>
<event>
 4    1  0.7841599E+004  0.2724282E+02  0.7546771E-02  0.1630731E+00
         21   -1    0    0  503  502  0.00000000000E+00  0.00000000000E+00  0.24146730127E+03  0.24146730127E+03  0.00000000000E+00 0. -1.
         21   -1    0    0  501  503 -0.00000000000E+00 -0.00000000000E+00 -0.31274309915E+01  0.31274309915E+01  0.00000000000E+00 0. -1.
          3    1    1    2  501    0  0.52101813012E+01  0.26739954184E+02  0.10312324380E+03  0.10666102640E+03  0.00000000000E+00 0. -1.
         -3    1    1    2    0  502 -0.52101813012E+01 -0.26739954184E+02  0.13521662648E+03  0.13793370587E+03  0.00000000000E+00 0.  1.
<mgrwt>
<rscale>  2 0.27242818E+02</rscale>
<asrwt>0</asrwt>
<pdfrwt beam="1">  1       21 0.37148801E-01 0.27242818E+02</pdfrwt>
<pdfrwt beam="2">  1       21 0.48114342E-03 0.27242818E+02</pdfrwt>
<totfact> 0.62369153E+07</totfact>
</mgrwt>
</event>
<event>
 4    1  0.7841599E+004  0.2372409E+02  0.7546771E-02  0.1680035E+00
         21   -1    0    0  503  502  0.00000000000E+00  0.00000000000E+00  0.68493349995E+00  0.68493349995E+00  0.00000000000E+00 0.  1.
         21   -1    0    0  501  503 -0.00000000000E+00 -0.00000000000E+00 -0.91923356755E+03  0.91923356755E+03  0.00000000000E+00 0.  1.
          3    1    1    2  501    0 -0.23475020628E+02  0.34286814649E+01 -0.60907369960E+03  0.60953556417E+03  0.00000000000E+00 0.  1.
         -3    1    1    2    0  502  0.23475020628E+02 -0.34286814649E+01 -0.30947493446E+03  0.31038293688E+03  0.00000000000E+00 0. -1.
<mgrwt>
<rscale>  2 0.23724090E+02</rscale>
<asrwt>0</asrwt>
<pdfrwt beam="1">  1       21 0.10537353E-03 0.23724090E+02</pdfrwt>
<pdfrwt beam="2">  1       21 0.14142170E+00 0.23724090E+02</pdfrwt>
<totfact> 0.33882228E+07</totfact>
</mgrwt>
</event>
<event>
 4    1  0.7841599E+004  0.3320886E+02  0.7546771E-02  0.1565107E+00
         21   -1    0    0  501  502  0.00000000000E+00  0.00000000000E+00  0.57469089872E+02  0.57469089872E+02  0.00000000000E+00 0. -1.
         21   -1    0    0  502  503 -0.00000000000E+00 -0.00000000000E+00 -0.23469800142E+02  0.23469800142E+02  0.00000000000E+00 0. -1.
          3    1    1    2  501    0  0.13216495878E+02  0.30465601985E+02  0.34281369998E+02  0.47728827730E+02  0.00000000000E+00 0. -1.
         -3    1    1    2    0  503 -0.13216495878E+02 -0.30465601985E+02 -0.28208026708E+00  0.33210062283E+02  0.00000000000E+00 0.  1.
<mgrwt>
<rscale>  2 0.33208864E+02</rscale>
<asrwt>0</asrwt>
<pdfrwt beam="1">  1       21 0.88413984E-02 0.33208864E+02</pdfrwt>
<pdfrwt beam="2">  1       21 0.36107385E-02 0.33208864E+02</pdfrwt>
<totfact> 0.37037371E+07</totfact>
</mgrwt>
</event>
<event>
 4    1  0.7841599E+004  0.2046177E+02  0.7546771E-02  0.1736298E+00
         21   -1    0    0  501  502  0.00000000000E+00  0.00000000000E+00  0.13537217569E+02  0.13537217569E+02  0.00000000000E+00 0. -1.
         21   -1    0    0  502  503 -0.00000000000E+00 -0.00000000000E+00 -0.32366203138E+02  0.32366203138E+02  0.00000000000E+00 0. -1.
          2    1    1    2  501    0 -0.79997020831E+01  0.18833178417E+02 -0.45769368626E+01  0.20967407893E+02  0.00000000000E+00 0. -1.
         -2    1    1    2    0  503  0.79997020831E+01 -0.18833178417E+02 -0.14252048706E+02  0.24936012814E+02  0.00000000000E+00 0.  1.
<mgrwt>
<rscale>  2 0.20461765E+02</rscale>
<asrwt>0</asrwt>
<pdfrwt beam="1">  1       21 0.20826489E-02 0.20461765E+02</pdfrwt>
<pdfrwt beam="2">  1       21 0.49794158E-02 0.20461765E+02</pdfrwt>
<totfact> 0.19546619E+08</totfact>
</mgrwt>
</event>
<event>
 4    1  0.7841599E+004  0.2188690E+02  0.7546771E-02  0.1710215E+00
         21   -1    0    0  503  502  0.00000000000E+00  0.00000000000E+00  0.87568278268E+01  0.87568278268E+01  0.00000000000E+00 0.  1.
         21   -1    0    0  501  503 -0.00000000000E+00 -0.00000000000E+00 -0.74306594672E+02  0.74306594672E+02  0.00000000000E+00 0.  1.
          1    1    1    2  501    0 -0.14203087162E+02 -0.16652588452E+02 -0.11443487026E+02  0.24697971220E+02  0.00000000000E+00 0.  1.
         -1    1    1    2    0  502  0.14203087162E+02  0.16652588452E+02 -0.54106279819E+02  0.58365451279E+02  0.00000000000E+00 0. -1.
<mgrwt>
<rscale>  2 0.21886900E+02</rscale>
<asrwt>0</asrwt>
<pdfrwt beam="1">  1       21 0.13472043E-02 0.21886900E+02</pdfrwt>
<pdfrwt beam="2">  1       21 0.11431784E-01 0.21886900E+02</pdfrwt>
<totfact> 0.10052012E+08</totfact>
</mgrwt>
</event>
<event>
 4    1  0.7841599E+004  0.2254259E+02  0.7546771E-02  0.1699034E+00
         21   -1    0    0  501  502  0.00000000000E+00  0.00000000000E+00  0.60776564234E+02  0.60776564234E+02  0.00000000000E+00 0.  1.
         21   -1    0    0  502  503 -0.00000000000E+00 -0.00000000000E+00 -0.94943855628E+01  0.94943855628E+01  0.00000000000E+00 0.  1.
          3    1    1    2  501    0 -0.86443679391E+01  0.20819305437E+02  0.37779215998E+02  0.43993610188E+02  0.00000000000E+00 0.  1.
         -3    1    1    2    0  503  0.86443679391E+01 -0.20819305437E+02  0.13502962673E+02  0.26277339608E+02  0.00000000000E+00 0. -1.
<mgrwt>
<rscale>  2 0.22542595E+02</rscale>
<asrwt>0</asrwt>
<pdfrwt beam="1">  1       21 0.93502404E-02 0.22542595E+02</pdfrwt>
<pdfrwt beam="2">  1       21 0.14606747E-02 0.22542595E+02</pdfrwt>
<totfact> 0.12510563E+08</totfact>
</mgrwt>
</event>
<event>
 4    1  0.7841599E+004  0.2707490E+02  0.7546771E-02  0.1632872E+00
         21   -1    0    0  503  502  0.00000000000E+00  0.00000000000E+00  0.11501141440E+04  0.11501141440E+04  0.00000000000E+00 0.  1.
         21   -1    0    0  501  503 -0.00000000000E+00 -0.00000000000E+00 -0.75420375330E+00  0.75420375330E+00  0.00000000000E+00 0.  1.
          2    1    1    2  501    0 -0.22021583169E+02 -0.15751188677E+02  0.80116136536E+03  0.80161872696E+03  0.00000000000E+00 0. -1.
         -2    1    1    2    0  502  0.22021583169E+02  0.15751188677E+02  0.34819857486E+03  0.34924962077E+03  0.00000000000E+00 0.  1.
<mgrwt>
<rscale>  2 0.27074897E+02</rscale>
<asrwt>0</asrwt>
<pdfrwt beam="1">  1       21 0.17693923E+00 0.27074897E+02</pdfrwt>
<pdfrwt beam="2">  1       21 0.11603227E-03 0.27074897E+02</pdfrwt>
<totfact> 0.17532443E+07</totfact>
</mgrwt>
</event>
<event>
 4    1  0.7841599E+004  0.2424802E+02  0.7546771E-02  0.1672044E+00
         21   -1    0    0  503  502  0.00000000000E+00  0.00000000000E+00  0.13054156843E+02  0.13054156843E+02  0.00000000000E+00 0.  1.
         21   -1    0    0  501  503 -0.00000000000E+00 -0.00000000000E+00 -0.55534146769E+02  0.55534146769E+02  0.00000000000E+00 0.  1.
          3    1    1    2  501    0  0.19654885540E+02 -0.14200419580E+02 -0.36147403039E+02  0.43527016763E+02  0.00000000000E+00 0. -1.
         -3    1    1    2    0  502 -0.19654885540E+02  0.14200419580E+02 -0.63325868868E+01  0.25061286848E+02  0.00000000000E+00 0.  1.
<mgrwt>
<rscale>  2 0.24248019E+02</rscale>
<asrwt>0</asrwt>
<pdfrwt beam="1">  1       21 0.20083318E-02 0.24248019E+02</pdfrwt>
<pdfrwt beam="2">  1       21 0.85437150E-02 0.24248019E+02</pdfrwt>
<totfact> 0.91107122E+07</totfact>
</mgrwt>
</event>
<event>
 4    1  0.7841599E+004  0.2175718E+02  0.7546771E-02  0.1712486E+00
         21   -1    0    0  503  502  0.00000000000E+00  0.00000000000E+00  0.10139108148E+03  0.10139108148E+03  0.00000000000E+00 0. -1.
         21   -1    0    0  501  503 -0.00000000000E+00 -0.00000000000E+00 -0.46777157054E+01  0.46777157054E+01  0.00000000000E+00 0. -1.
          1    1    1    2  501    0  0.14203642754E+02  0.16481245050E+02  0.50671755538E+02  0.55145278267E+02  0.00000000000E+00 0. -1.
         -1    1    1    2    0  502 -0.14203642754E+02 -0.16481245050E+02  0.46041610240E+02  0.50923518921E+02  0.00000000000E+00 0.  1.
<mgrwt>
<rscale>  2 0.21757181E+02</rscale>
<asrwt>0</asrwt>
<pdfrwt beam="1">  1       21 0.15598626E-01 0.21757181E+02</pdfrwt>
<pdfrwt beam="2">  1       21 0.71964865E-03 0.21757181E+02</pdfrwt>
<totfact> 0.15215989E+08</totfact>
</mgrwt>
</event>
<event>
 4    1  0.7841599E+004  0.2036444E+02  0.7546771E-02  0.1738176E+00
         21   -1    0    0  501  502  0.00000000000E+00  0.00000000000E+00  0.14040825018E+01  0.14040825018E+01  0.00000000000E+00 0.  1.
         21   -1    0    0  502  503 -0.00000000000E+00 -0.00000000000E+00 -0.30786136340E+03  0.30786136340E+03  0.00000000000E+00 0.  1.
          2    1    1    2  501    0  0.16419352128E+02  0.12046384222E+02 -0.12206889001E+03  0.12375590655E+03  0.00000000000E+00 0.  1.
         -2    1    1    2    0  503 -0.16419352128E+02 -0.12046384222E+02 -0.18438839089E+03  0.18550953936E+03  0.00000000000E+00 0. -1.
<mgrwt>
<rscale>  2 0.20364442E+02</rscale>
<asrwt>0</asrwt>
<pdfrwt beam="1">  1       21 0.21601253E-03 0.20364442E+02</pdfrwt>
<pdfrwt beam="2">  1       21 0.47363322E-01 0.20364442E+02</pdfrwt>
<totfact> 0.11771827E+08</totfact>
</mgrwt>
</event>
<event>
 4    1  0.7841599E+004  0.2955524E+02  0.7546771E-02  0.1603058E+00
         21   -1    0    0  503  502  0.00000000000E+00  0.00000000000E+00  0.53685008298E+01  0.53685008298E+01  0.00000000000E+00 0. -1.
         21   -1    0    0  501  503 -0.00000000000E+00 -0.00000000000E+00 -0.16271245087E+03  0.16271245087E+03  0.00000000000E+00 0. -1.
          4    1    1    2  501    0  0.29073515307E+02 -0.53143795773E+01 -0.78956393707E+02  0.84306725887E+02  0.00000000000E+00 0. -1.
         -4    1    1    2    0  502 -0.29073515307E+02  0.53143795773E+01 -0.78387556333E+02  0.83774225813E+02  0.00000000000E+00 0.  1.
<mgrwt>
<rscale>  2 0.29555235E+02</rscale>
<asrwt>0</asrwt>
<pdfrwt beam="1">  1       21 0.82592323E-03 0.29555235E+02</pdfrwt>
<pdfrwt beam="2">  1       21 0.25032684E-01 0.29555235E+02</pdfrwt>
<totfact> 0.58568625E+07</totfact>
</mgrwt>
</event>
<event>
 4    1  0.7841599E+004  0.3372431E+02  0.7546771E-02  0.1560230E+00
         21   -1    0    0  503  502  0.00000000000E+00  0.00000000000E+00  0.23057304482E+03  0.23057304482E+03  0.00000000000E+00 0.  1.
         21   -1    0    0  501  503 -0.00000000000E+00 -0.00000000000E+00 -0.50529957487E+01  0.50529957487E+01  0.00000000000E+00 0.  1.
          1    1    1    2  501    0  0.29197024503E+02  0.16877881659E+02  0.13094400580E+03  0.13521709131E+03  0.00000000000E+00 0. -1.
         -1    1    1    2    0  502 -0.29197024503E+02 -0.16877881659E+02  0.94576043273E+02  0.10040894925E+03  0.00000000000E+00 0.  1.
<mgrwt>
<rscale>  2 0.33724311E+02</rscale>
<asrwt>0</asrwt>
<pdfrwt beam="1">  1       21 0.35472768E-01 0.33724311E+02</pdfrwt>
<pdfrwt beam="2">  1       21 0.77738414E-03 0.33724311E+02</pdfrwt>
<totfact> 0.34668197E+07</totfact>
</mgrwt>
</event>
<event>
 4    1  0.7841599E+004  0.2374541E+02  0.7546771E-02  0.1679704E+00
         21   -1    0    0  503  502  0.00000000000E+00  0.00000000000E+00  0.66354165939E+02  0.66354165939E+02  0.00000000000E+00 0.  1.
         21   -1    0    0  501  503 -0.00000000000E+00 -0.00000000000E+00 -0.11017994752E+02  0.11017994752E+02  0.00000000000E+00 0.  1.
          5    1    1    2  501    0  0.18597217841E+01 -0.23672476473E+02  0.46171254393E+02  0.51919451458E+02  0.00000000000E+00 0.  1.
         -5    1    1    2    0  502 -0.18597217841E+01  0.23672476473E+02  0.91649167942E+01  0.25452709233E+02  0.00000000000E+00 0. -1.
<mgrwt>
<rscale>  2 0.23745414E+02</rscale>
<asrwt>0</asrwt>
<pdfrwt beam="1">  1       21 0.10208333E-01 0.23745414E+02</pdfrwt>
<pdfrwt beam="2">  1       21 0.16950762E-02 0.23745414E+02</pdfrwt>
<totfact> 0.87563244E+07</totfact>
</mgrwt>
</event>
<event>
 4    1  0.7841599E+004  0.2657036E+02  0.7546771E-02  0.1639419E+00
         21   -1    0    0  503  502  0.00000000000E+00  0.00000000000E+00  0.11171397133E+02  0.11171397133E+02  0.00000000000E+00 0. -1.
         21   -1    0    0  501  503 -0.00000000000E+00 -0.00000000000E+00 -0.75418082686E+02  0.75418082686E+02  0.00000000000E+00 0. -1.
          2    1    1    2  501    0 -0.23519191678E+02 -0.12362519056E+02 -0.14694227536E+02  0.30362881574E+02  0.00000000000E+00 0.  1.
         -2    1    1    2    0  502  0.23519191678E+02  0.12362519056E+02 -0.49552458018E+02  0.56226598245E+02  0.00000000000E+00 0. -1.
<mgrwt>
<rscale>  2 0.26570364E+02</rscale>
<asrwt>0</asrwt>
<pdfrwt beam="1">  1       21 0.17186765E-02 0.26570364E+02</pdfrwt>
<pdfrwt beam="2">  1       21 0.11602782E-01 0.26570364E+02</pdfrwt>
<totfact> 0.71268379E+07</totfact>
</mgrwt>
</event>
<event>
 4    1  0.7841599E+004  0.2258186E+02  0.7546771E-02  0.1698379E+00
         21   -1    0    0  503  502  0.00000000000E+00  0.00000000000E+00  0.28933057134E+02  0.28933057134E+02  0.00000000000E+00 0.  1.
         21   -1    0    0  501  503 -0.00000000000E+00 -0.00000000000E+00 -0.19091659237E+02  0.19091659237E+02  0.00000000000E+00 0.  1.
          3    1    1    2  501    0  0.78026139491E+01 -0.21191024027E+02  0.11576531612E+02  0.25376295394E+02  0.00000000000E+00 0.  1.
         -3    1    1    2    0  502 -0.78026139491E+01  0.21191024027E+02 -0.17351337150E+01  0.22648420977E+02  0.00000000000E+00 0. -1.
<mgrwt>
<rscale>  2 0.22581857E+02</rscale>
<asrwt>0</asrwt>
<pdfrwt beam="1">  1       21 0.44512395E-02 0.22581857E+02</pdfrwt>
<pdfrwt beam="2">  1       21 0.29371784E-02 0.22581857E+02</pdfrwt>
<totfact> 0.14168025E+08</totfact>
</mgrwt>
</event>
<event>
 4    1  0.7841599E+004  0.4544056E+02  0.7546771E-02  0.1471610E+00
         21   -1    0    0  503  502  0.00000000000E+00  0.00000000000E+00  0.34037093181E+02  0.34037093181E+02  0.00000000000E+00 0.  1.
         21   -1    0    0  501  503 -0.00000000000E+00 -0.00000000000E+00 -0.61551513450E+02  0.61551513450E+02  0.00000000000E+00 0.  1.
          4    1    1    2  501    0  0.37664007085E+02 -0.25421782137E+02 -0.80198348632E+01  0.46142845469E+02  0.00000000000E+00 0.  1.
         -4    1    1    2    0  502 -0.37664007085E+02  0.25421782137E+02 -0.19494585406E+02  0.49445761162E+02  0.00000000000E+00 0. -1.
<mgrwt>
<rscale>  2 0.45440559E+02</rscale>
<asrwt>0</asrwt>
<pdfrwt beam="1">  1       21 0.52364759E-02 0.45440559E+02</pdfrwt>
<pdfrwt beam="2">  1       21 0.94694635E-02 0.45440559E+02</pdfrwt>
<totfact> 0.19140158E+07</totfact>
</mgrwt>
</event>
<event>
 4    1  0.7841599E+004  0.4808795E+02  0.7546771E-02  0.1455936E+00
         21   -1    0    0  503  502  0.00000000000E+00  0.00000000000E+00  0.39715318542E+01  0.39715318542E+01  0.00000000000E+00 0.  1.
         21   -1    0    0  501  503 -0.00000000000E+00 -0.00000000000E+00 -0.60408321008E+03  0.60408321008E+03  0.00000000000E+00 0.  1.
          3    1    1    2  501    0 -0.39793210501E+02 -0.26999099090E+02 -0.24226531328E+03  0.24699176701E+03  0.00000000000E+00 0.  1.
         -3    1    1    2    0  502  0.39793210501E+02  0.26999099090E+02 -0.35784636494E+03  0.36106297492E+03  0.00000000000E+00 0. -1.
<mgrwt>
<rscale>  2 0.48087950E+02</rscale>
<asrwt>0</asrwt>
<pdfrwt beam="1">  1       21 0.61100564E-03 0.48087950E+02</pdfrwt>
<pdfrwt beam="2">  1       21 0.92935765E-01 0.48087950E+02</pdfrwt>
<totfact> 0.73607200E+06</totfact>
</mgrwt>
</event>
<event>
 4    1  0.7841599E+004  0.2148827E+02  0.7546771E-02  0.1717255E+00
         21   -1    0    0  501  502  0.00000000000E+00  0.00000000000E+00  0.23497834042E+02  0.23497834042E+02  0.00000000000E+00 0.  1.
         21   -1    0    0  502  503 -0.00000000000E+00 -0.00000000000E+00 -0.19907962478E+02  0.19907962478E+02  0.00000000000E+00 0.  1.
          1    1    1    2  501    0 -0.18981186698E+02 -0.10072758818E+02 -0.67280288608E+00  0.21498804208E+02  0.00000000000E+00 0.  1.
         -1    1    1    2    0  503  0.18981186698E+02  0.10072758818E+02  0.42626744501E+01  0.21906992312E+02  0.00000000000E+00 0. -1.
<mgrwt>
<rscale>  2 0.21488274E+02</rscale>
<asrwt>0</asrwt>
<pdfrwt beam="1">  1       21 0.36150514E-02 0.21488274E+02</pdfrwt>
<pdfrwt beam="2">  1       21 0.30627635E-02 0.21488274E+02</pdfrwt>
<totfact> 0.18135850E+08</totfact>
</mgrwt>
</event>
<event>
 4    1  0.7841599E+004  0.2105530E+02  0.7546771E-02  0.1725121E+00
         21   -1    0    0  503  502  0.00000000000E+00  0.00000000000E+00  0.19997858207E+01  0.19997858207E+01  0.00000000000E+00 0. -1.
         21   -1    0    0  501  503 -0.00000000000E+00 -0.00000000000E+00 -0.79077528123E+03  0.79077528123E+03  0.00000000000E+00 0. -1.
          1    1    1    2  501    0  0.18938720631E+02 -0.92005756234E+01 -0.58121392599E+02  0.61817651270E+02  0.00000000000E+00 0. -1.
         -1    1    1    2    0  502 -0.18938720631E+02  0.92005756234E+01 -0.73065410281E+03  0.73095741578E+03  0.00000000000E+00 0.  1.
<mgrwt>
<rscale>  2 0.21055302E+02</rscale>
<asrwt>0</asrwt>
<pdfrwt beam="1">  1       21 0.30765908E-03 0.21055302E+02</pdfrwt>
<pdfrwt beam="2">  1       21 0.12165784E+00 0.21055302E+02</pdfrwt>
<totfact> 0.10032887E+07</totfact>
</mgrwt>
</event>
<event>
 4    1  0.7841599E+004  0.2008855E+02  0.7546771E-02  0.1743573E+00
         21   -1    0    0  503  502  0.00000000000E+00  0.00000000000E+00  0.10444522108E+03  0.10444522108E+03  0.00000000000E+00 0.  1.
         21   -1    0    0  501  503 -0.00000000000E+00 -0.00000000000E+00 -0.38691964791E+01  0.38691964791E+01  0.00000000000E+00 0.  1.
          5    1    1    2  501    0 -0.19264934235E+02 -0.56931732435E+01  0.52320473243E+02  0.56044463000E+02  0.00000000000E+00 0. -1.
         -5    1    1    2    0  502  0.19264934235E+02  0.56931732435E+01  0.48255551354E+02  0.52269954555E+02  0.00000000000E+00 0.  1.
<mgrwt>
<rscale>  2 0.20088552E+02</rscale>
<asrwt>0</asrwt>
<pdfrwt beam="1">  1       21 0.16068493E-01 0.20088552E+02</pdfrwt>
<pdfrwt beam="2">  1       21 0.59526108E-03 0.20088552E+02</pdfrwt>
<totfact> 0.18693562E+08</totfact>
</mgrwt>
</event>
<event>
 4    1  0.7841599E+004  0.2202476E+02  0.7546771E-02  0.1707824E+00
         21   -1    0    0  503  502  0.00000000000E+00  0.00000000000E+00  0.96449423970E+01  0.96449423970E+01  0.00000000000E+00 0. -1.
         21   -1    0    0  501  503 -0.00000000000E+00 -0.00000000000E+00 -0.66293129458E+02  0.66293129458E+02  0.00000000000E+00 0. -1.
          3    1    1    2  501    0  0.21903820590E+02  0.23049741703E+01 -0.46976414927E+02  0.51883271117E+02  0.00000000000E+00 0.  1.
         -3    1    1    2    0  502 -0.21903820590E+02 -0.23049741703E+01 -0.96717721340E+01  0.24054800738E+02  0.00000000000E+00 0. -1.
<mgrwt>
<rscale>  2 0.22024765E+02</rscale>
<asrwt>0</asrwt>
<pdfrwt beam="1">  1       21 0.14838373E-02 0.22024765E+02</pdfrwt>
<pdfrwt beam="2">  1       21 0.10198943E-01 0.22024765E+02</pdfrwt>
<totfact> 0.10512835E+08</totfact>
</mgrwt>
</event>
<event>
 4    1  0.7841599E+004  0.2513696E+02  0.7546771E-02  0.1659042E+00
         21   -1    0    0  501  502  0.00000000000E+00  0.00000000000E+00  0.23494513174E+02  0.23494513174E+02  0.00000000000E+00 0.  1.
         21   -1    0    0  502  503 -0.00000000000E+00 -0.00000000000E+00 -0.27290530435E+02  0.27290530435E+02  0.00000000000E+00 0.  1.
          2    1    1    2  501    0  0.24865564496E+02 -0.36838445929E+01 -0.49579155077E+01  0.25621239917E+02  0.00000000000E+00 0. -1.
         -2    1    1    2    0  503 -0.24865564496E+02  0.36838445929E+01  0.11618982462E+01  0.25163803692E+02  0.00000000000E+00 0.  1.
<mgrwt>
<rscale>  2 0.25136965E+02</rscale>
<asrwt>0</asrwt>
<pdfrwt beam="1">  1       21 0.36145405E-02 0.25136965E+02</pdfrwt>
<pdfrwt beam="2">  1       21 0.41985431E-02 0.25136965E+02</pdfrwt>
<totfact> 0.11589793E+08</totfact>
</mgrwt>
</event>
<event>
 4    1  0.7841599E+004  0.2248199E+02  0.7546771E-02  0.1700047E+00
         21   -1    0    0  501  502  0.00000000000E+00  0.00000000000E+00  0.25113463474E+02  0.25113463474E+02  0.00000000000E+00 0. -1.
         21   -1    0    0  502  503 -0.00000000000E+00 -0.00000000000E+00 -0.24376767977E+02  0.24376767977E+02  0.00000000000E+00 0. -1.
          1    1    1    2  501    0 -0.34029157059E+01 -0.22222962514E+02  0.10701248221E+02  0.24898927923E+02  0.00000000000E+00 0.  1.
         -1    1    1    2    0  503  0.34029157059E+01  0.22222962514E+02 -0.99645527242E+01  0.24591303528E+02  0.00000000000E+00 0. -1.
<mgrwt>
<rscale>  2 0.22481991E+02</rscale>
<asrwt>0</asrwt>
<pdfrwt beam="1">  1       21 0.38636098E-02 0.22481991E+02</pdfrwt>
<pdfrwt beam="2">  1       21 0.37502720E-02 0.22481991E+02</pdfrwt>
<totfact> 0.12074816E+08</totfact>
</mgrwt>
</event>
<event>
 4    1  0.7841599E+004  0.3455872E+02  0.7546771E-02  0.1552555E+00
         21   -1    0    0  501  502  0.00000000000E+00  0.00000000000E+00  0.60591083292E+02  0.60591083292E+02  0.00000000000E+00 0. -1.
         21   -1    0    0  502  503 -0.00000000000E+00 -0.00000000000E+00 -0.19720425488E+02  0.19720425488E+02  0.00000000000E+00 0. -1.
          4    1    1    2  501    0  0.23611447222E+02  0.25234988223E+02  0.21317647235E+02  0.40604767629E+02  0.00000000000E+00 0. -1.
         -4    1    1    2    0  503 -0.23611447222E+02 -0.25234988223E+02  0.19553010569E+02  0.39706741151E+02  0.00000000000E+00 0.  1.
<mgrwt>
<rscale>  2 0.34558719E+02</rscale>
<asrwt>0</asrwt>
<pdfrwt beam="1">  1       21 0.93217050E-02 0.34558719E+02</pdfrwt>
<pdfrwt beam="2">  1       21 0.30339116E-02 0.34558719E+02</pdfrwt>
<totfact> 0.45049565E+07</totfact>
</mgrwt>
</event>
<event>
 4    1  0.7841599E+004  0.3207784E+02  0.7546771E-02  0.1576195E+00
         21   -1    0    0  503  502  0.00000000000E+00  0.00000000000E+00  0.74154834707E+03  0.74154834707E+03  0.00000000000E+00 0. -1.
         21   -1    0    0  501  503 -0.00000000000E+00 -0.00000000000E+00 -0.14215124477E+01  0.14215124477E+01  0.00000000000E+00 0. -1.
          3    1    1    2  501    0 -0.19502177046E+02  0.25468665155E+02  0.31270290253E+03  0.31434390890E+03  0.00000000000E+00 0. -1.
         -3    1    1    2    0  502  0.19502177046E+02 -0.25468665155E+02  0.42742393209E+03  0.42862595061E+03  0.00000000000E+00 0.  1.
<mgrwt>
<rscale>  2 0.32077840E+02</rscale>
<asrwt>0</asrwt>
<pdfrwt beam="1">  1       21 0.11408405E+00 0.32077840E+02</pdfrwt>
<pdfrwt beam="2">  1       21 0.21869482E-03 0.32077840E+02</pdfrwt>
<totfact> 0.20397832E+07</totfact>
</mgrwt>
</event>
<event>
 4    1  0.7841599E+004  0.2906436E+02  0.7546771E-02  0.1608667E+00
         21   -1    0    0  503  502  0.00000000000E+00  0.00000000000E+00  0.18139147823E+04  0.18139147823E+04  0.00000000000E+00 0. -1.
         21   -1    0    0  501  503 -0.00000000000E+00 -0.00000000000E+00 -0.49780692613E+00  0.49780692613E+00  0.00000000000E+00 0. -1.
          3    1    1    2  501    0  0.28971930933E+02  0.23161171739E+01  0.67630667642E+03  0.67693091061E+03  0.00000000000E+00 0.  1.
         -3    1    1    2    0  502 -0.28971930933E+02 -0.23161171739E+01  0.11371102990E+04  0.11374816786E+04  0.00000000000E+00 0. -1.
<mgrwt>
<rscale>  2 0.29064363E+02</rscale>
<asrwt>0</asrwt>
<pdfrwt beam="1">  1       21 0.27905852E+00 0.29064363E+02</pdfrwt>
<pdfrwt beam="2">  1       21 0.76587133E-04 0.29064363E+02</pdfrwt>
<totfact> 0.90388391E+06</totfact>
</mgrwt>
</event>
<event>
 4    1  0.7841599E+004  0.2065566E+02  0.7546771E-02  0.1732595E+00
         21   -1    0    0  503  502  0.00000000000E+00  0.00000000000E+00  0.58999251253E+01  0.58999251253E+01  0.00000000000E+00 0. -1.
         21   -1    0    0  501  503 -0.00000000000E+00 -0.00000000000E+00 -0.11928373895E+03  0.11928373895E+03  0.00000000000E+00 0. -1.
          4    1    1    2  501    0 -0.10084315597E+02  0.18026721599E+02 -0.95968075851E+02  0.98165817346E+02  0.00000000000E+00 0.  1.
         -4    1    1    2    0  502  0.10084315597E+02 -0.18026721599E+02 -0.17415737970E+02  0.27017846726E+02  0.00000000000E+00 0. -1.
<mgrwt>
<rscale>  2 0.20655656E+02</rscale>
<asrwt>0</asrwt>
<pdfrwt beam="1">  1       21 0.90768084E-03 0.20655656E+02</pdfrwt>
<pdfrwt beam="2">  1       21 0.18351343E-01 0.20655656E+02</pdfrwt>
<totfact> 0.80313360E+07</totfact>
</mgrwt>
</event>
<event>
 4    1  0.7841599E+004  0.2197032E+02  0.7546771E-02  0.1708766E+00
         21   -1    0    0  503  502  0.00000000000E+00  0.00000000000E+00  0.15004514704E+01  0.15004514704E+01  0.00000000000E+00 0.  1.
         21   -1    0    0  501  503 -0.00000000000E+00 -0.00000000000E+00 -0.42104274149E+03  0.42104274149E+03  0.00000000000E+00 0.  1.
          5    1    1    2  501    0 -0.31205688863E+01  0.21747571216E+02 -0.31239462188E+03  0.31316624113E+03  0.00000000000E+00 0. -1.
         -5    1    1    2    0  502  0.31205688863E+01 -0.21747571216E+02 -0.10714766814E+03  0.10937695183E+03  0.00000000000E+00 0.  1.
<mgrwt>
<rscale>  2 0.21970316E+02</rscale>
<asrwt>0</asrwt>
<pdfrwt beam="1">  1       21 0.23083867E-03 0.21970316E+02</pdfrwt>
<pdfrwt beam="2">  1       21 0.64775812E-01 0.21970316E+02</pdfrwt>
<totfact> 0.58921150E+07</totfact>
</mgrwt>
</event>
<event>
 4    1  0.7841599E+004  0.2030167E+02  0.7546771E-02  0.1739395E+00
         21   -1    0    0  501  502  0.00000000000E+00  0.00000000000E+00  0.12137527801E+02  0.12137527801E+02  0.00000000000E+00 0. -1.
         21   -1    0    0  502  503 -0.00000000000E+00 -0.00000000000E+00 -0.34026470256E+02  0.34026470256E+02  0.00000000000E+00 0. -1.
          2    1    1    2  501    0  0.19689842915E+02 -0.49465101103E+01 -0.99038995003E+01  0.22588605570E+02  0.00000000000E+00 0.  1.
         -2    1    1    2    0  503 -0.19689842915E+02  0.49465101103E+01 -0.11985042955E+02  0.23575392487E+02  0.00000000000E+00 0. -1.
<mgrwt>
<rscale>  2 0.20301672E+02</rscale>
<asrwt>0</asrwt>
<pdfrwt beam="1">  1       21 0.18673120E-02 0.20301672E+02</pdfrwt>
<pdfrwt beam="2">  1       21 0.52348416E-02 0.20301672E+02</pdfrwt>
<totfact> 0.21275328E+08</totfact>
</mgrwt>
</event>
<event>
 4    1  0.7841599E+004  0.4715491E+02  0.7546771E-02  0.1461321E+00
         21   -1    0    0  501  502  0.00000000000E+00  0.00000000000E+00  0.69278995433E+03  0.69278995433E+03  0.00000000000E+00 0.  1.
         21   -1    0    0  502  503 -0.00000000000E+00 -0.00000000000E+00 -0.32308054710E+01  0.32308054710E+01  0.00000000000E+00 0.  1.
          1    1    1    2  501    0 -0.37140901153E+02 -0.29054065538E+02  0.31659166916E+03  0.32008416119E+03  0.00000000000E+00 0. -1.
         -1    1    1    2    0  503  0.37140901153E+02  0.29054065538E+02  0.37296747969E+03  0.37593659861E+03  0.00000000000E+00 0.  1.
<mgrwt>
<rscale>  2 0.47154907E+02</rscale>
<asrwt>0</asrwt>
<pdfrwt beam="1">  1       21 0.10658295E+00 0.47154907E+02</pdfrwt>
<pdfrwt beam="2">  1       21 0.49704755E-03 0.47154907E+02</pdfrwt>
<totfact> 0.73686708E+06</totfact>
</mgrwt>
</event>
<event>
 4    1  0.7841599E+004  0.2260532E+02  0.7546771E-02  0.1697989E+00
         21   -1    0    0  501  502  0.00000000000E+00  0.00000000000E+00  0.20000660186E+02  0.20000660186E+02  0.00000000000E+00 0. -1.
         21   -1    0    0  502  503 -0.00000000000E+00 -0.00000000000E+00 -0.32136835761E+02  0.32136835761E+02  0.00000000000E+00 0. -1.
          2    1    1    2  501    0 -0.16661014108E+02 -0.15277805035E+02 -0.17870849855E+02  0.28816106474E+02  0.00000000000E+00 0.  1.
         -2    1    1    2    0  503  0.16661014108E+02  0.15277805035E+02  0.57346742804E+01  0.23321389472E+02  0.00000000000E+00 0. -1.
<mgrwt>
<rscale>  2 0.22605325E+02</rscale>
<asrwt>0</asrwt>
<pdfrwt beam="1">  1       21 0.30770247E-02 0.22605325E+02</pdfrwt>
<pdfrwt beam="2">  1       21 0.49441285E-02 0.22605325E+02</pdfrwt>
<totfact> 0.11159930E+08</totfact>
</mgrwt>
</event>
<event>
 4    1  0.7841599E+004  0.2864670E+02  0.7546771E-02  0.1613548E+00
         21   -1    0    0  503  502  0.00000000000E+00  0.00000000000E+00  0.30799122963E+01  0.30799122963E+01  0.00000000000E+00 0.  1.
         21   -1    0    0  501  503 -0.00000000000E+00 -0.00000000000E+00 -0.26731642505E+03  0.26731642505E+03  0.00000000000E+00 0.  1.
          5    1    1    2  501    0  0.27840241402E+02 -0.67494191550E+01 -0.13982816145E+03  0.14273243652E+03  0.00000000000E+00 0. -1.
         -5    1    1    2    0  502 -0.27840241402E+02  0.67494191550E+01 -0.12440835129E+03  0.12766390082E+03  0.00000000000E+00 0.  1.
<mgrwt>
<rscale>  2 0.28646705E+02</rscale>
<asrwt>0</asrwt>
<pdfrwt beam="1">  1       21 0.47383277E-03 0.28646705E+02</pdfrwt>
<pdfrwt beam="2">  1       21 0.41125594E-01 0.28646705E+02</pdfrwt>
<totfact> 0.53210848E+07</totfact>
</mgrwt>
</event>
<event>
 4    1  0.7841599E+004  0.2120995E+02  0.7546771E-02  0.1722285E+00
         21   -1    0    0  501  502  0.00000000000E+00  0.00000000000E+00  0.47086681798E+03  0.47086681798E+03  0.00000000000E+00 0. -1.
         21   -1    0    0  502  503 -0.00000000000E+00 -0.00000000000E+00 -0.99420731339E+00  0.99420731339E+00  0.00000000000E+00 0. -1.
          3    1    1    2  501    0  0.18801924783E+02  0.98157904834E+01  0.18831865049E+03  0.18950930384E+03  0.00000000000E+00 0. -1.
         -3    1    1    2    0  503 -0.18801924783E+02 -0.98157904834E+01  0.28155396018E+03  0.28235172146E+03  0.00000000000E+00 0.  1.
<mgrwt>
<rscale>  2 0.21209953E+02</rscale>
<asrwt>0</asrwt>
<pdfrwt beam="1">  1       21 0.72440871E-01 0.21209953E+02</pdfrwt>
<pdfrwt beam="2">  1       21 0.15295535E-03 0.21209953E+02</pdfrwt>
<totfact> 0.84089408E+07</totfact>
</mgrwt>
</event>
<event>
 4    1  0.7841599E+004  0.2728363E+02  0.7546771E-02  0.1630214E+00
         21   -1    0    0  503  502  0.00000000000E+00  0.00000000000E+00  0.97213626662E+03  0.97213626662E+03  0.00000000000E+00 0.  1.
         21   -1    0    0  501  503 -0.00000000000E+00 -0.00000000000E+00 -0.93616411153E+00  0.93616411153E+00  0.00000000000E+00 0.  1.
          4    1    1    2  501    0  0.13359373111E+02  0.23789150795E+02  0.69319365891E+03  0.69373038372E+03  0.00000000000E+00 0. -1.
         -4    1    1    2    0  502 -0.13359373111E+02 -0.23789150795E+02  0.27800644360E+03  0.27934204701E+03  0.00000000000E+00 0.  1.
<mgrwt>
<rscale>  2 0.27283631E+02</rscale>
<asrwt>0</asrwt>
<pdfrwt beam="1">  1       21 0.14955862E+00 0.27283631E+02</pdfrwt>
<pdfrwt beam="2">  1       21 0.14402602E-03 0.27283631E+02</pdfrwt>
<totfact> 0.19406808E+07</totfact>
</mgrwt>
</event>
<event>
 4    1  0.7841599E+004  0.3462708E+02  0.7546771E-02  0.1551937E+00
         21   -1    0    0  501  502  0.00000000000E+00  0.00000000000E+00  0.23814946366E+01  0.23814946366E+01  0.00000000000E+00 0. -1.
         21   -1    0    0  502  503 -0.00000000000E+00 -0.00000000000E+00 -0.50400013824E+03  0.50400013824E+03  0.00000000000E+00 0. -1.
          1    1    1    2  501    0 -0.18795915575E+02  0.29081748776E+02 -0.25894429397E+03  0.26124927165E+03  0.00000000000E+00 0. -1.
         -1    1    1    2    0  503  0.18795915575E+02 -0.29081748776E+02 -0.24267434963E+03  0.24513236123E+03  0.00000000000E+00 0.  1.
<mgrwt>
<rscale>  2 0.34627078E+02</rscale>
<asrwt>0</asrwt>
<pdfrwt beam="1">  1       21 0.36638376E-03 0.34627078E+02</pdfrwt>
<pdfrwt beam="2">  1       21 0.77538490E-01 0.34627078E+02</pdfrwt>
<totfact> 0.22561378E+07</totfact>
</mgrwt>
</event>
<event>
 4    1  0.7841599E+004  0.2110897E+02  0.7546771E-02  0.1724134E+00
         21   -1    0    0  501  502  0.00000000000E+00  0.00000000000E+00  0.11421776372E+03  0.11421776372E+03  0.00000000000E+00 0.  1.
         21   -1    0    0  502  503 -0.00000000000E+00 -0.00000000000E+00 -0.40096592789E+01  0.40096592789E+01  0.00000000000E+00 0.  1.
          5    1    1    2  501    0  0.17023370861E+01  0.21040215699E+02  0.64825428039E+02  0.68175690305E+02  0.00000000000E+00 0.  1.
         -5    1    1    2    0  503 -0.17023370861E+01 -0.21040215699E+02  0.45382676403E+02  0.50051732694E+02  0.00000000000E+00 0. -1.
<mgrwt>
<rscale>  2 0.21108970E+02</rscale>
<asrwt>0</asrwt>
<pdfrwt beam="1">  1       21 0.17571961E-01 0.21108970E+02</pdfrwt>
<pdfrwt beam="2">  1       21 0.61687075E-03 0.21108970E+02</pdfrwt>
<totfact> 0.15453977E+08</totfact>
</mgrwt>
</event>
<event>
 4    1  0.7841599E+004  0.2385655E+02  0.7546771E-02  0.1677990E+00
         21   -1    0    0  503  502  0.00000000000E+00  0.00000000000E+00  0.33450008005E+02  0.33450008005E+02  0.00000000000E+00 0. -1.
         21   -1    0    0  501  503 -0.00000000000E+00 -0.00000000000E+00 -0.17137322544E+02  0.17137322544E+02  0.00000000000E+00 0. -1.
          3    1    1    2  501    0  0.78378510396E+01 -0.22532269894E+02  0.10297668769E+02  0.25984169750E+02  0.00000000000E+00 0.  1.
         -3    1    1    2    0  502 -0.78378510396E+01  0.22532269894E+02  0.60150166916E+01  0.24603160799E+02  0.00000000000E+00 0. -1.
<mgrwt>
<rscale>  2 0.23856552E+02</rscale>
<asrwt>0</asrwt>
<pdfrwt beam="1">  1       21 0.51461551E-02 0.23856552E+02</pdfrwt>
<pdfrwt beam="2">  1       21 0.26365112E-02 0.23856552E+02</pdfrwt>
<totfact> 0.13526867E+08</totfact>
</mgrwt>
</event>
<event>
 4    1  0.7841599E+004  0.2188142E+02  0.7546771E-02  0.1710311E+00
         21   -1    0    0  503  502  0.00000000000E+00  0.00000000000E+00  0.47940284270E+03  0.47940284270E+03  0.00000000000E+00 0.  1.
         21   -1    0    0  501  503 -0.00000000000E+00 -0.00000000000E+00 -0.10204152571E+01  0.10204152571E+01  0.00000000000E+00 0.  1.
          2    1    1    2  501    0  0.20627256698E+02  0.73015752419E+01  0.20417807475E+03  0.20534722528E+03  0.00000000000E+00 0. -1.
         -2    1    1    2    0  502 -0.20627256698E+02 -0.73015752419E+01  0.27420435269E+03  0.27507603268E+03  0.00000000000E+00 0.  1.
<mgrwt>
<rscale>  2 0.21881424E+02</rscale>
<asrwt>0</asrwt>
<pdfrwt beam="1">  1       21 0.73754104E-01 0.21881424E+02</pdfrwt>
<pdfrwt beam="2">  1       21 0.15698735E-03 0.21881424E+02</pdfrwt>
<totfact> 0.78682465E+07</totfact>
</mgrwt>
</event>
<event>
 4    1  0.7841599E+004  0.2430295E+02  0.7546771E-02  0.1671221E+00
         21   -1    0    0  503  502  0.00000000000E+00  0.00000000000E+00  0.28822302154E+02  0.28822302154E+02  0.00000000000E+00 0. -1.
         21   -1    0    0  501  503 -0.00000000000E+00 -0.00000000000E+00 -0.24141692051E+02  0.24141692051E+02  0.00000000000E+00 0. -1.
          4    1    1    2  501    0  0.98645640442E+01 -0.22210890388E+02 -0.79559962603E+01  0.25572077587E+02  0.00000000000E+00 0. -1.
         -4    1    1    2    0  502 -0.98645640442E+01  0.22210890388E+02  0.12636606364E+02  0.27391916618E+02  0.00000000000E+00 0.  1.
<mgrwt>
<rscale>  2 0.24302948E+02</rscale>
<asrwt>0</asrwt>
<pdfrwt beam="1">  1       21 0.44342003E-02 0.24302948E+02</pdfrwt>
<pdfrwt beam="2">  1       21 0.37141065E-02 0.24302948E+02</pdfrwt>
<totfact> 0.10090214E+08</totfact>
</mgrwt>
</event>
<event>
 4    1  0.7841599E+004  0.2129672E+02  0.7546771E-02  0.1720707E+00
         21   -1    0    0  501  502  0.00000000000E+00  0.00000000000E+00  0.19451402569E+03  0.19451402569E+03  0.00000000000E+00 0.  1.
         21   -1    0    0  502  503 -0.00000000000E+00 -0.00000000000E+00 -0.42111934976E+01  0.42111934976E+01  0.00000000000E+00 0.  1.
          4    1    1    2  501    0 -0.15386897799E+02  0.14723915048E+02  0.28771049082E+02  0.35795580223E+02  0.00000000000E+00 0.  1.
         -4    1    1    2    0  503  0.15386897799E+02 -0.14723915048E+02  0.16153178311E+03  0.16292963896E+03  0.00000000000E+00 0. -1.
<mgrwt>
<rscale>  2 0.21296720E+02</rscale>
<asrwt>0</asrwt>
<pdfrwt beam="1">  1       21 0.29925228E-01 0.21296720E+02</pdfrwt>
<pdfrwt beam="2">  1       21 0.64787608E-03 0.21296720E+02</pdfrwt>
<totfact> 0.56370659E+07</totfact>
</mgrwt>
</event>
<event>
 4    1  0.7841599E+004  0.3862317E+02  0.7546771E-02  0.1518595E+00
         21   -1    0    0  501  502  0.00000000000E+00  0.00000000000E+00  0.15580643061E+02  0.15580643061E+02  0.00000000000E+00 0. -1.
         21   -1    0    0  502  503 -0.00000000000E+00 -0.00000000000E+00 -0.96783580265E+02  0.96783580265E+02  0.00000000000E+00 0. -1.
          3    1    1    2  501    0 -0.38439539172E+02 -0.37617649544E+01 -0.46424919398E+02  0.60390580296E+02  0.00000000000E+00 0.  1.
         -3    1    1    2    0  503  0.38439539172E+02  0.37617649544E+01 -0.34778017805E+02  0.51973643030E+02  0.00000000000E+00 0. -1.
<mgrwt>
<rscale>  2 0.38623167E+02</rscale>
<asrwt>0</asrwt>
<pdfrwt beam="1">  1       21 0.23970220E-02 0.38623167E+02</pdfrwt>
<pdfrwt beam="2">  1       21 0.14889782E-01 0.38623167E+02</pdfrwt>
<totfact> 0.30031375E+07</totfact>
</mgrwt>
</event>
<event>
 4    1  0.7841599E+004  0.2318038E+02  0.7546771E-02  0.1688603E+00
         21   -1    0    0  503  502  0.00000000000E+00  0.00000000000E+00  0.43296852179E+01  0.43296852179E+01  0.00000000000E+00 0. -1.
         21   -1    0    0  501  503 -0.00000000000E+00 -0.00000000000E+00 -0.16423315398E+03  0.16423315398E+03  0.00000000000E+00 0. -1.
          3    1    1    2  501    0  0.22808085876E+02  0.41377554189E+01 -0.38290393533E+02  0.44760295331E+02  0.00000000000E+00 0.  1.
         -3    1    1    2    0  502 -0.22808085876E+02 -0.41377554189E+01 -0.12161307523E+03  0.12380254387E+03  0.00000000000E+00 0. -1.
<mgrwt>
<rscale>  2 0.23180375E+02</rscale>
<asrwt>0</asrwt>
<pdfrwt beam="1">  1       21 0.66610548E-03 0.23180375E+02</pdfrwt>
<pdfrwt beam="2">  1       21 0.25266637E-01 0.23180375E+02</pdfrwt>
<totfact> 0.74969685E+07</totfact>
</mgrwt>
</event>
<event>
 4    1  0.7841599E+004  0.2084750E+02  0.7546771E-02  0.1728981E+00
         21   -1    0    0  501  502  0.00000000000E+00  0.00000000000E+00  0.15767880893E+03  0.15767880893E+03  0.00000000000E+00 0. -1.
         21   -1    0    0  502  503 -0.00000000000E+00 -0.00000000000E+00 -0.27974682639E+01  0.27974682639E+01  0.00000000000E+00 0. -1.
          2    1    1    2  501    0  0.20708517079E+02 -0.24032849727E+01  0.87168137944E+02  0.89626462225E+02  0.00000000000E+00 0. -1.
         -2    1    1    2    0  503 -0.20708517079E+02  0.24032849727E+01  0.67713202722E+02  0.70849814969E+02  0.00000000000E+00 0.  1.
<mgrwt>
<rscale>  2 0.20847505E+02</rscale>
<asrwt>0</asrwt>
<pdfrwt beam="1">  1       21 0.24258271E-01 0.20847505E+02</pdfrwt>
<pdfrwt beam="2">  1       21 0.43037986E-03 0.20847505E+02</pdfrwt>
<totfact> 0.14904754E+08</totfact>
</mgrwt>
</event>
<event>
 4    1  0.7841599E+004  0.2371024E+02  0.7546771E-02  0.1680249E+00
         21   -1    0    0  501  502  0.00000000000E+00  0.00000000000E+00  0.12322306675E+04  0.12322306675E+04  0.00000000000E+00 0.  1.
         21   -1    0    0  502  503 -0.00000000000E+00 -0.00000000000E+00 -0.46956536727E+00  0.46956536727E+00  0.00000000000E+00 0.  1.
          2    1    1    2  501    0  0.68466872185E+01 -0.22700184640E+02  0.51199642713E+03  0.51254513645E+03  0.00000000000E+00 0.  1.
         -2    1    1    2    0  503 -0.68466872185E+01  0.22700184640E+02  0.71976467505E+03  0.72015509646E+03  0.00000000000E+00 0. -1.
<mgrwt>
<rscale>  2 0.23710241E+02</rscale>
<asrwt>0</asrwt>
<pdfrwt beam="1">  1       21 0.18957136E+00 0.23710241E+02</pdfrwt>
<pdfrwt beam="2">  1       21 0.72241812E-04 0.23710241E+02</pdfrwt>
<totfact> 0.28411519E+07</totfact>
</mgrwt>
</event>
<event>
 4    1  0.7841599E+004  0.2507294E+02  0.7546771E-02  0.1659956E+00
         21   -1    0    0  503  502  0.00000000000E+00  0.00000000000E+00  0.54933338126E+03  0.54933338126E+03  0.00000000000E+00 0.  1.
         21   -1    0    0  501  503 -0.00000000000E+00 -0.00000000000E+00 -0.11447476515E+01  0.11447476515E+01  0.00000000000E+00 0.  1.
          4    1    1    2  501    0 -0.25017783001E+02 -0.16622252898E+01  0.26923958992E+03  0.27040452888E+03  0.00000000000E+00 0.  1.
         -4    1    1    2    0  502  0.25017783001E+02  0.16622252898E+01  0.27894904369E+03  0.28007360003E+03  0.00000000000E+00 0. -1.
<mgrwt>
<rscale>  2 0.25072943E+02</rscale>
<asrwt>0</asrwt>
<pdfrwt beam="1">  1       21 0.84512618E-01 0.25072943E+02</pdfrwt>
<pdfrwt beam="2">  1       21 0.17611546E-03 0.25072943E+02</pdfrwt>
<totfact> 0.51735920E+07</totfact>
</mgrwt>
</event>
<event>
 4    1  0.7841599E+004  0.2187611E+02  0.7546771E-02  0.1710403E+00
         21   -1    0    0  503  502  0.00000000000E+00  0.00000000000E+00  0.18610694047E+01  0.18610694047E+01  0.00000000000E+00 0. -1.
         21   -1    0    0  501  503 -0.00000000000E+00 -0.00000000000E+00 -0.31660458564E+03  0.31660458564E+03  0.00000000000E+00 0. -1.
          1    1    1    2  501    0 -0.17933282265E+02  0.12528426942E+02 -0.88365874958E+02  0.91033466107E+02  0.00000000000E+00 0. -1.
         -1    1    1    2    0  502  0.17933282265E+02 -0.12528426942E+02 -0.22637764128E+03  0.22743218894E+03  0.00000000000E+00 0.  1.
<mgrwt>
<rscale>  2 0.21876108E+02</rscale>
<asrwt>0</asrwt>
<pdfrwt beam="1">  1       21 0.28631841E-03 0.21876108E+02</pdfrwt>
<pdfrwt beam="2">  1       21 0.48708391E-01 0.21876108E+02</pdfrwt>
<totfact> 0.75628240E+07</totfact>
</mgrwt>
</event>
<event>
 4    1  0.7841599E+004  0.2383537E+02  0.7546771E-02  0.1678316E+00
         21   -1    0    0  503  502  0.00000000000E+00  0.00000000000E+00  0.27707387875E+02  0.27707387875E+02  0.00000000000E+00 0.  1.
         21   -1    0    0  501  503 -0.00000000000E+00 -0.00000000000E+00 -0.21705528876E+02  0.21705528876E+02  0.00000000000E+00 0.  1.
          5    1    1    2  501    0  0.18500645649E+02  0.15028339104E+02 -0.28108658564E+01  0.24000538172E+02  0.00000000000E+00 0. -1.
         -5    1    1    2    0  502 -0.18500645649E+02 -0.15028339104E+02  0.88127248562E+01  0.25412378579E+02  0.00000000000E+00 0.  1.
<mgrwt>
<rscale>  2 0.23835370E+02</rscale>
<asrwt>0</asrwt>
<pdfrwt beam="1">  1       21 0.42626750E-02 0.23835370E+02</pdfrwt>
<pdfrwt beam="2">  1       21 0.33393121E-02 0.23835370E+02</pdfrwt>
<totfact> 0.12621982E+08</totfact>
</mgrwt>
</event>
<event>
 4    1  0.7841599E+004  0.2089487E+02  0.7546771E-02  0.1728097E+00
         21   -1    0    0  501  502  0.00000000000E+00  0.00000000000E+00  0.13490320457E+02  0.13490320457E+02  0.00000000000E+00 0. -1.
         21   -1    0    0  502  503 -0.00000000000E+00 -0.00000000000E+00 -0.32417611431E+02  0.32417611431E+02  0.00000000000E+00 0. -1.
          1    1    1    2  501    0 -0.18828615183E+02  0.90597278617E+01 -0.85267628568E+01  0.22567700447E+02  0.00000000000E+00 0.  1.
         -1    1    1    2    0  503  0.18828615183E+02 -0.90597278617E+01 -0.10400528116E+02  0.23340231441E+02  0.00000000000E+00 0. -1.
<mgrwt>
<rscale>  2 0.20894866E+02</rscale>
<asrwt>0</asrwt>
<pdfrwt beam="1">  1       21 0.20754339E-02 0.20894866E+02</pdfrwt>
<pdfrwt beam="2">  1       21 0.49873248E-02 0.20894866E+02</pdfrwt>
<totfact> 0.19733659E+08</totfact>
</mgrwt>
</event>
<event>
 4    1  0.7841599E+004  0.4796732E+02  0.7546771E-02  0.1456624E+00
         21   -1    0    0  501  502  0.00000000000E+00  0.00000000000E+00  0.96651044566E+01  0.96651044566E+01  0.00000000000E+00 0.  1.
         21   -1    0    0  502  503 -0.00000000000E+00 -0.00000000000E+00 -0.41302351552E+03  0.41302351552E+03  0.00000000000E+00 0.  1.
          3    1    1    2  501    0 -0.20188695686E+02 -0.43511840394E+02 -0.33923482632E+03  0.34260929800E+03  0.00000000000E+00 0. -1.
         -3    1    1    2    0  503  0.20188695686E+02  0.43511840394E+02 -0.64123584749E+02  0.80079321982E+02  0.00000000000E+00 0.  1.
<mgrwt>
<rscale>  2 0.47967319E+02</rscale>
<asrwt>0</asrwt>
<pdfrwt beam="1">  1       21 0.14869392E-02 0.47967319E+02</pdfrwt>
<pdfrwt beam="2">  1       21 0.63542076E-01 0.47967319E+02</pdfrwt>
<totfact> 0.42492939E+06</totfact>
</mgrwt>
</event>
<event>
 4    1  0.7841599E+004  0.5035635E+02  0.7546771E-02  0.1443429E+00
         21   -1    0    0  501  502  0.00000000000E+00  0.00000000000E+00  0.14324307562E+03  0.14324307562E+03  0.00000000000E+00 0.  1.
         21   -1    0    0  502  503 -0.00000000000E+00 -0.00000000000E+00 -0.17702509727E+02  0.17702509727E+02  0.00000000000E+00 0.  1.
          3    1    1    2  501    0  0.43818349538E+02  0.24813580194E+02  0.62803079546E+02  0.80498374634E+02  0.00000000000E+00 0.  1.
         -3    1    1    2    0  503 -0.43818349538E+02 -0.24813580194E+02  0.62737486346E+02  0.80447210712E+02  0.00000000000E+00 0. -1.
<mgrwt>
<rscale>  2 0.50356345E+02</rscale>
<asrwt>0</asrwt>
<pdfrwt beam="1">  1       21 0.22037395E-01 0.50356345E+02</pdfrwt>
<pdfrwt beam="2">  1       21 0.27234631E-02 0.50356345E+02</pdfrwt>
<totfact> 0.12732997E+07</totfact>
</mgrwt>
</event>
<event>
 4    1  0.7841599E+004  0.2252015E+02  0.7546771E-02  0.1699408E+00
         21   -1    0    0  501  502  0.00000000000E+00  0.00000000000E+00  0.56057431254E+01  0.56057431254E+01  0.00000000000E+00 0.  1.
         21   -1    0    0  502  503 -0.00000000000E+00 -0.00000000000E+00 -0.90637475519E+02  0.90637475519E+02  0.00000000000E+00 0.  1.
          1    1    1    2  501    0 -0.22489456824E+02 -0.11753959800E+01 -0.40453562238E+02  0.46299545589E+02  0.00000000000E+00 0. -1.
         -1    1    1    2    0  503  0.22489456824E+02  0.11753959800E+01 -0.44578170155E+02  0.49943673056E+02  0.00000000000E+00 0.  1.
<mgrwt>
<rscale>  2 0.22520152E+02</rscale>
<asrwt>0</asrwt>
<pdfrwt beam="1">  1       21 0.86242210E-03 0.22520152E+02</pdfrwt>
<pdfrwt beam="2">  1       21 0.13944226E-01 0.22520152E+02</pdfrwt>
<totfact> 0.14199695E+08</totfact>
</mgrwt>
</event>
<event>
 4    1  0.7841599E+004  0.2690376E+02  0.7546771E-02  0.1635073E+00
         21   -1    0    0  503  502  0.00000000000E+00  0.00000000000E+00  0.54151143948E+02  0.54151143948E+02  0.00000000000E+00 0.  1.
         21   -1    0    0  501  503 -0.00000000000E+00 -0.00000000000E+00 -0.17730567411E+02  0.17730567411E+02  0.00000000000E+00 0.  1.
          1    1    1    2  501    0 -0.18680983005E+02  0.19360612144E+02  0.36041126178E+02  0.44975273260E+02  0.00000000000E+00 0.  1.
         -1    1    1    2    0  502  0.18680983005E+02 -0.19360612144E+02  0.37945035908E+00  0.26906438099E+02  0.00000000000E+00 0. -1.
<mgrwt>
<rscale>  2 0.26903762E+02</rscale>
<asrwt>0</asrwt>
<pdfrwt beam="1">  1       21 0.83309451E-02 0.26903762E+02</pdfrwt>
<pdfrwt beam="2">  1       21 0.27277796E-02 0.26903762E+02</pdfrwt>
<totfact> 0.60678464E+07</totfact>
</mgrwt>
</event>
<event>
 4    1  0.7841599E+004  0.3268131E+02  0.7546771E-02  0.1570211E+00
         21   -1    0    0  501  502  0.00000000000E+00  0.00000000000E+00  0.21162579097E+01  0.21162579097E+01  0.00000000000E+00 0.  1.
         21   -1    0    0  502  503 -0.00000000000E+00 -0.00000000000E+00 -0.17240691546E+04  0.17240691546E+04  0.00000000000E+00 0.  1.
          5    1    1    2  501    0  0.32506811414E+02 -0.33727303859E+01 -0.13512404423E+03  0.13902005405E+03  0.00000000000E+00 0.  1.
         -5    1    1    2    0  503 -0.32506811414E+02  0.33727303859E+01 -0.15868288524E+04  0.15871653584E+04  0.00000000000E+00 0. -1.
<mgrwt>
<rscale>  2 0.32681311E+02</rscale>
<asrwt>0</asrwt>
<pdfrwt beam="1">  1       21 0.32557881E-03 0.32681311E+02</pdfrwt>
<pdfrwt beam="2">  1       21 0.26524086E+00 0.32681311E+02</pdfrwt>
<totfact> 0.13004325E+06</totfact>
</mgrwt>
</event>
<event>
 4    1  0.7841599E+004  0.2512291E+02  0.7546771E-02  0.1659243E+00
         21   -1    0    0  503  502  0.00000000000E+00  0.00000000000E+00  0.17918286374E+03  0.17918286374E+03  0.00000000000E+00 0.  1.
         21   -1    0    0  501  503 -0.00000000000E+00 -0.00000000000E+00 -0.38751808699E+01  0.38751808699E+01  0.00000000000E+00 0.  1.
          2    1    1    2  501    0  0.13140383270E+02 -0.21412397885E+02  0.60039022135E+02  0.65083366804E+02  0.00000000000E+00 0. -1.
         -2    1    1    2    0  502 -0.13140383270E+02  0.21412397885E+02  0.11526866073E+03  0.11797467781E+03  0.00000000000E+00 0.  1.
<mgrwt>
<rscale>  2 0.25122907E+02</rscale>
<asrwt>0</asrwt>
<pdfrwt beam="1">  1       21 0.27566588E-01 0.25122907E+02</pdfrwt>
<pdfrwt beam="2">  1       21 0.59618181E-03 0.25122907E+02</pdfrwt>
<totfact> 0.77154486E+07</totfact>
</mgrwt>
</event>
<event>
 4    1  0.7841599E+004  0.2196378E+02  0.7546771E-02  0.1708879E+00
         21   -1    0    0  503  502  0.00000000000E+00  0.00000000000E+00  0.76524543086E+03  0.76524543086E+03  0.00000000000E+00 0.  1.
         21   -1    0    0  501  503 -0.00000000000E+00 -0.00000000000E+00 -0.63040097994E+00  0.63040097994E+00  0.00000000000E+00 0.  1.
          1    1    1    2  501    0 -0.10104686673E+02 -0.19501353836E+02  0.38120824498E+03  0.38184045560E+03  0.00000000000E+00 0. -1.
         -1    1    1    2    0  502  0.10104686673E+02  0.19501353836E+02  0.38340678490E+03  0.38403537624E+03  0.00000000000E+00 0.  1.
<mgrwt>
<rscale>  2 0.21963777E+02</rscale>
<asrwt>0</asrwt>
<pdfrwt beam="1">  1       21 0.11772932E+00 0.21963777E+02</pdfrwt>
<pdfrwt beam="2">  1       21 0.96985379E-04 0.21963777E+02</pdfrwt>
<totfact> 0.57199022E+07</totfact>
</mgrwt>
</event>
<event>
 4    1  0.7841599E+004  0.2244069E+02  0.7546771E-02  0.1700740E+00
         21   -1    0    0  503  502  0.00000000000E+00  0.00000000000E+00  0.60737270182E+01  0.60737270182E+01  0.00000000000E+00 0.  1.
         21   -1    0    0  501  503 -0.00000000000E+00 -0.00000000000E+00 -0.83040001477E+02  0.83040001477E+02  0.00000000000E+00 0.  1.
          1    1    1    2  501    0  0.81332303835E+01 -0.20914954041E+02 -0.36733650313E+02  0.43045856994E+02  0.00000000000E+00 0.  1.
         -1    1    1    2    0  502 -0.81332303835E+01  0.20914954041E+02 -0.40232624146E+02  0.46067871502E+02  0.00000000000E+00 0. -1.
<mgrwt>
<rscale>  2 0.22440694E+02</rscale>
<asrwt>0</asrwt>
<pdfrwt beam="1">  1       21 0.93441958E-03 0.22440694E+02</pdfrwt>
<pdfrwt beam="2">  1       21 0.12775384E-01 0.22440694E+02</pdfrwt>
<totfact> 0.14582254E+08</totfact>
</mgrwt>
</event>
<event>
 4    1  0.7841599E+004  0.2321217E+02  0.7546771E-02  0.1688094E+00
         21   -1    0    0  501  502  0.00000000000E+00  0.00000000000E+00  0.14074917701E+02  0.14074917701E+02  0.00000000000E+00 0.  1.
         21   -1    0    0  502  503 -0.00000000000E+00 -0.00000000000E+00 -0.41970002794E+02  0.41970002794E+02  0.00000000000E+00 0.  1.
          5    1    1    2  501    0  0.89054375605E+01  0.21435909168E+02 -0.56398903069E+01  0.23887515205E+02  0.00000000000E+00 0. -1.
         -5    1    1    2    0  503 -0.89054375605E+01 -0.21435909168E+02 -0.22255194786E+02  0.32157405289E+02  0.00000000000E+00 0.  1.
<mgrwt>
<rscale>  2 0.23212174E+02</rscale>
<asrwt>0</asrwt>
<pdfrwt beam="1">  1       21 0.21653720E-02 0.23212174E+02</pdfrwt>
<pdfrwt beam="2">  1       21 0.64569235E-02 0.23212174E+02</pdfrwt>
<totfact> 0.12637681E+08</totfact>
</mgrwt>
</event>
<event>
 4    1  0.7841599E+004  0.3644369E+02  0.7546771E-02  0.1536142E+00
         21   -1    0    0  503  502  0.00000000000E+00  0.00000000000E+00  0.24377388838E+02  0.24377388838E+02  0.00000000000E+00 0.  1.
         21   -1    0    0  501  503 -0.00000000000E+00 -0.00000000000E+00 -0.54908074699E+02  0.54908074699E+02  0.00000000000E+00 0.  1.
          4    1    1    2  501    0  0.24357415261E+02  0.27108276095E+02 -0.18755200900E+02  0.40986581607E+02  0.00000000000E+00 0. -1.
         -4    1    1    2    0  502 -0.24357415261E+02 -0.27108276095E+02 -0.11775484961E+02  0.38298881930E+02  0.00000000000E+00 0.  1.
<mgrwt>
<rscale>  2 0.36443687E+02</rscale>
<asrwt>0</asrwt>
<pdfrwt beam="1">  1       21 0.37503675E-02 0.36443687E+02</pdfrwt>
<pdfrwt beam="2">  1       21 0.84473960E-02 0.36443687E+02</pdfrwt>
<totfact> 0.38309919E+07</totfact>
</mgrwt>
</event>
<event>
 4    1  0.7841599E+004  0.2542114E+02  0.7546771E-02  0.1655026E+00
         21   -1    0    0  503  502  0.00000000000E+00  0.00000000000E+00  0.59394503425E+03  0.59394503425E+03  0.00000000000E+00 0.  1.
         21   -1    0    0  501  503 -0.00000000000E+00 -0.00000000000E+00 -0.18493675379E+01  0.18493675379E+01  0.00000000000E+00 0.  1.
          3    1    1    2  501    0 -0.59329275387E+01  0.24719115856E+02  0.48718333605E+03  0.48784612046E+03  0.00000000000E+00 0. -1.
         -3    1    1    2    0  502  0.59329275387E+01 -0.24719115856E+02  0.10491233066E+03  0.10794828133E+03  0.00000000000E+00 0.  1.
<mgrwt>
<rscale>  2 0.25421139E+02</rscale>
<asrwt>0</asrwt>
<pdfrwt beam="1">  1       21 0.91376007E-01 0.25421139E+02</pdfrwt>
<pdfrwt beam="2">  1       21 0.28451856E-03 0.25421139E+02</pdfrwt>
<totfact> 0.21872158E+07</totfact>
</mgrwt>
</event>
<event>
 4    1  0.7841599E+004  0.6367694E+02  0.7546771E-02  0.1383019E+00
         21   -1    0    0  501  502  0.00000000000E+00  0.00000000000E+00  0.25079413063E+02  0.25079413063E+02  0.00000000000E+00 0. -1.
         21   -1    0    0  502  503 -0.00000000000E+00 -0.00000000000E+00 -0.21337493814E+03  0.21337493814E+03  0.00000000000E+00 0. -1.
          2    1    1    2  501    0  0.59618886570E+02  0.22368310627E+02 -0.15283478250E+03  0.16556939239E+03  0.00000000000E+00 0. -1.
         -2    1    1    2    0  503 -0.59618886570E+02 -0.22368310627E+02 -0.35460742574E+02  0.72884958805E+02  0.00000000000E+00 0.  1.
<mgrwt>
<rscale>  2 0.63676942E+02</rscale>
<asrwt>0</asrwt>
<pdfrwt beam="1">  1       21 0.38583713E-02 0.63676942E+02</pdfrwt>
<pdfrwt beam="2">  1       21 0.32826913E-01 0.63676942E+02</pdfrwt>
<totfact> 0.35416576E+06</totfact>
</mgrwt>
</event>
<event>
 4    1  0.7841599E+004  0.2285201E+02  0.7546771E-02  0.1693920E+00
         21   -1    0    0  501  502  0.00000000000E+00  0.00000000000E+00  0.42141832360E+02  0.42141832360E+02  0.00000000000E+00 0.  1.
         21   -1    0    0  502  503 -0.00000000000E+00 -0.00000000000E+00 -0.15948098062E+02  0.15948098062E+02  0.00000000000E+00 0.  1.
          4    1    1    2  501    0  0.12707225841E+02  0.18993179052E+02 -0.61869563884E+00  0.22860385460E+02  0.00000000000E+00 0.  1.
         -4    1    1    2    0  503 -0.12707225841E+02 -0.18993179052E+02  0.26812429937E+02  0.35229544962E+02  0.00000000000E+00 0. -1.
<mgrwt>
<rscale>  2 0.22852012E+02</rscale>
<asrwt>0</asrwt>
<pdfrwt beam="1">  1       21 0.64833588E-02 0.22852012E+02</pdfrwt>
<pdfrwt beam="2">  1       21 0.24535536E-02 0.22852012E+02</pdfrwt>
<totfact> 0.10307131E+08</totfact>
</mgrwt>
</event>
<event>
 4    1  0.7841599E+004  0.2010750E+02  0.7546771E-02  0.1743199E+00
         21   -1    0    0  501  502  0.00000000000E+00  0.00000000000E+00  0.10026602034E+02  0.10026602034E+02  0.00000000000E+00 0.  1.
         21   -1    0    0  502  503 -0.00000000000E+00 -0.00000000000E+00 -0.52130372273E+02  0.52130372273E+02  0.00000000000E+00 0.  1.
          1    1    1    2  501    0 -0.12815817366E+02  0.15494075697E+02 -0.62616597500E+01  0.21059913088E+02  0.00000000000E+00 0.  1.
         -1    1    1    2    0  503  0.12815817366E+02 -0.15494075697E+02 -0.35842110490E+02  0.41097061219E+02  0.00000000000E+00 0. -1.
<mgrwt>
<rscale>  2 0.20107500E+02</rscale>
<asrwt>0</asrwt>
<pdfrwt beam="1">  1       21 0.15425542E-02 0.20107500E+02</pdfrwt>
<pdfrwt beam="2">  1       21 0.80200572E-02 0.20107500E+02</pdfrwt>
<totfact> 0.14297119E+08</totfact>
</mgrwt>
</event>
<event>
 4    1  0.7841599E+004  0.2405640E+02  0.7546771E-02  0.1674937E+00
         21   -1    0    0  501  502  0.00000000000E+00  0.00000000000E+00  0.77027097195E+01  0.77027097195E+01  0.00000000000E+00 0. -1.
         21   -1    0    0  502  503 -0.00000000000E+00 -0.00000000000E+00 -0.10134529546E+03  0.10134529546E+03  0.00000000000E+00 0. -1.
          4    1    1    2  501    0  0.22336859203E+02 -0.89317024605E+01 -0.74551738713E+02  0.78336915519E+02  0.00000000000E+00 0. -1.
         -4    1    1    2    0  503 -0.22336859203E+02  0.89317024605E+01 -0.19090847028E+02  0.30711089661E+02  0.00000000000E+00 0.  1.
<mgrwt>
<rscale>  2 0.24056404E+02</rscale>
<asrwt>0</asrwt>
<pdfrwt beam="1">  1       21 0.11850323E-02 0.24056404E+02</pdfrwt>
<pdfrwt beam="2">  1       21 0.15591583E-01 0.24056404E+02</pdfrwt>
<totfact> 0.74197140E+07</totfact>
</mgrwt>
</event>
<event>
 4    1  0.7841599E+004  0.2792064E+02  0.7546771E-02  0.1622280E+00
         21   -1    0    0  503  502  0.00000000000E+00  0.00000000000E+00  0.44988071283E+01  0.44988071283E+01  0.00000000000E+00 0. -1.
         21   -1    0    0  501  503 -0.00000000000E+00 -0.00000000000E+00 -0.20873856396E+03  0.20873856396E+03  0.00000000000E+00 0. -1.
          3    1    1    2  501    0  0.22414277269E+02 -0.16648196520E+02 -0.58177826369E+02  0.64530781445E+02  0.00000000000E+00 0.  1.
         -3    1    1    2    0  502 -0.22414277269E+02  0.16648196520E+02 -0.14606193047E+03  0.14870658965E+03  0.00000000000E+00 0. -1.
<mgrwt>
<rscale>  2 0.27920642E+02</rscale>
<asrwt>0</asrwt>
<pdfrwt beam="1">  1       21 0.69212414E-03 0.27920642E+02</pdfrwt>
<pdfrwt beam="2">  1       21 0.32113627E-01 0.27920642E+02</pdfrwt>
<totfact> 0.47870494E+07</totfact>
</mgrwt>
</event>
<event>
 4    1  0.7841599E+004  0.2620679E+02  0.7546771E-02  0.1644250E+00
         21   -1    0    0  501  502  0.00000000000E+00  0.00000000000E+00  0.74081609904E+02  0.74081609904E+02  0.00000000000E+00 0. -1.
         21   -1    0    0  502  503 -0.00000000000E+00 -0.00000000000E+00 -0.10087590762E+02  0.10087590762E+02  0.00000000000E+00 0. -1.
          2    1    1    2  501    0  0.59347537182E+01 -0.25525957842E+02  0.20021754913E+02  0.32979789193E+02  0.00000000000E+00 0. -1.
         -2    1    1    2    0  503 -0.59347537182E+01  0.25525957842E+02  0.43972264229E+02  0.51189411472E+02  0.00000000000E+00 0.  1.
<mgrwt>
<rscale>  2 0.26206790E+02</rscale>
<asrwt>0</asrwt>
<pdfrwt beam="1">  1       21 0.11397170E-01 0.26206790E+02</pdfrwt>
<pdfrwt beam="2">  1       21 0.15519371E-02 0.26206790E+02</pdfrwt>
<totfact> 0.85569518E+07</totfact>
</mgrwt>
</event>
<event>
 4    1  0.7841599E+004  0.2576315E+02  0.7546771E-02  0.1650276E+00
         21   -1    0    0  503  502  0.00000000000E+00  0.00000000000E+00  0.13511675361E+01  0.13511675361E+01  0.00000000000E+00 0.  1.
         21   -1    0    0  501  503 -0.00000000000E+00 -0.00000000000E+00 -0.52344090977E+03  0.52344090977E+03  0.00000000000E+00 0.  1.
          3    1    1    2  501    0  0.17571184561E+02 -0.18841262444E+02 -0.32613223085E+03  0.32714824116E+03  0.00000000000E+00 0. -1.
         -3    1    1    2    0  502 -0.17571184561E+02  0.18841262444E+02 -0.19595751139E+03  0.19764383614E+03  0.00000000000E+00 0.  1.
<mgrwt>
<rscale>  2 0.25763146E+02</rscale>
<asrwt>0</asrwt>
<pdfrwt beam="1">  1       21 0.20787200E-03 0.25763146E+02</pdfrwt>
<pdfrwt beam="2">  1       21 0.80529345E-01 0.25763146E+02</pdfrwt>
<totfact> 0.45338955E+07</totfact>
</mgrwt>
</event>
<event>
 4    1  0.7841599E+004  0.2052209E+02  0.7546771E-02  0.1735141E+00
         21   -1    0    0  501  502  0.00000000000E+00  0.00000000000E+00  0.29111820669E+01  0.29111820669E+01  0.00000000000E+00 0.  1.
         21   -1    0    0  502  503 -0.00000000000E+00 -0.00000000000E+00 -0.14852499246E+03  0.14852499246E+03  0.00000000000E+00 0.  1.
          2    1    1    2  501    0  0.25698094928E+00 -0.20520485525E+02 -0.60605898307E+02  0.63986180343E+02  0.00000000000E+00 0.  1.
         -2    1    1    2    0  503 -0.25698094928E+00  0.20520485525E+02 -0.85007912082E+02  0.87449994179E+02  0.00000000000E+00 0. -1.
<mgrwt>
<rscale>  2 0.20522095E+02</rscale>
<asrwt>0</asrwt>
<pdfrwt beam="1">  1       21 0.44787402E-03 0.20522095E+02</pdfrwt>
<pdfrwt beam="2">  1       21 0.22850006E-01 0.20522095E+02</pdfrwt>
<totfact> 0.15551258E+08</totfact>
</mgrwt>
</event>
<event>
 4    1  0.7841599E+004  0.2625792E+02  0.7546771E-02  0.1643565E+00
         21   -1    0    0  503  502  0.00000000000E+00  0.00000000000E+00  0.19011903579E+03  0.19011903579E+03  0.00000000000E+00 0.  1.
         21   -1    0    0  501  503 -0.00000000000E+00 -0.00000000000E+00 -0.61538185110E+01  0.61538185110E+01  0.00000000000E+00 0.  1.
          4    1    1    2  501    0 -0.22206736148E+01  0.26163844151E+02  0.15487277097E+03  0.15708295045E+03  0.00000000000E+00 0. -1.
         -4    1    1    2    0  502  0.22206736148E+01 -0.26163844151E+02  0.29092446304E+02  0.39189903853E+02  0.00000000000E+00 0.  1.
<mgrwt>
<rscale>  2 0.26257916E+02</rscale>
<asrwt>0</asrwt>
<pdfrwt beam="1">  1       21 0.29249078E-01 0.26257916E+02</pdfrwt>
<pdfrwt beam="2">  1       21 0.94674146E-03 0.26257916E+02</pdfrwt>
<totfact> 0.35037364E+07</totfact>
</mgrwt>
</event>
<event>
 4    1  0.7841599E+004  0.2328211E+02  0.7546771E-02  0.1686978E+00
         21   -1    0    0  503  502  0.00000000000E+00  0.00000000000E+00  0.97986980808E+00  0.97986980808E+00  0.00000000000E+00 0.  1.
         21   -1    0    0  501  503 -0.00000000000E+00 -0.00000000000E+00 -0.70319616020E+03  0.70319616020E+03  0.00000000000E+00 0.  1.
          3    1    1    2  501    0  0.79318222165E+01  0.21889336086E+02 -0.51372427314E+03  0.51425157818E+03  0.00000000000E+00 0. -1.
         -3    1    1    2    0  502 -0.79318222165E+01 -0.21889336086E+02 -0.18849201725E+03  0.18992445183E+03  0.00000000000E+00 0.  1.
<mgrwt>
<rscale>  2 0.23282114E+02</rscale>
<asrwt>0</asrwt>
<pdfrwt beam="1">  1       21 0.15074955E-03 0.23282114E+02</pdfrwt>
<pdfrwt beam="2">  1       21 0.10818377E+00 0.23282114E+02</pdfrwt>
<totfact> 0.37257962E+07</totfact>
</mgrwt>
</event>
<event>
 4    1  0.7841599E+004  0.2309641E+02  0.7546771E-02  0.1689952E+00
         21   -1    0    0  503  502  0.00000000000E+00  0.00000000000E+00  0.36054716002E+02  0.36054716002E+02  0.00000000000E+00 0.  1.
         21   -1    0    0  501  503 -0.00000000000E+00 -0.00000000000E+00 -0.14874677518E+02  0.14874677518E+02  0.00000000000E+00 0.  1.
          5    1    1    2  501    0 -0.64237761717E+01 -0.22185113685E+02  0.12448990620E+02  0.26237788340E+02  0.00000000000E+00 0. -1.
         -5    1    1    2    0  502  0.64237761717E+01  0.22185113685E+02  0.87310478641E+01  0.24691605179E+02  0.00000000000E+00 0.  1.
<mgrwt>
<rscale>  2 0.23096410E+02</rscale>
<asrwt>0</asrwt>
<pdfrwt beam="1">  1       21 0.55468794E-02 0.23096410E+02</pdfrwt>
<pdfrwt beam="2">  1       21 0.22884119E-02 0.23096410E+02</pdfrwt>
<totfact> 0.14792301E+08</totfact>
</mgrwt>
</event>
<event>
 4    1  0.7841599E+004  0.2308368E+02  0.7546771E-02  0.1690157E+00
         21   -1    0    0  501  502  0.00000000000E+00  0.00000000000E+00  0.46077293546E+02  0.46077293546E+02  0.00000000000E+00 0. -1.
         21   -1    0    0  502  503 -0.00000000000E+00 -0.00000000000E+00 -0.15668051928E+02  0.15668051928E+02  0.00000000000E+00 0. -1.
          5    1    1    2  501    0  0.71547877218E+01 -0.21946873787E+02  0.31004435131E+02  0.38653994026E+02  0.00000000000E+00 0.  1.
         -5    1    1    2    0  503 -0.71547877218E+01  0.21946873787E+02 -0.59519351261E+00  0.23091351448E+02  0.00000000000E+00 0. -1.
<mgrwt>
<rscale>  2 0.23083679E+02</rscale>
<asrwt>0</asrwt>
<pdfrwt beam="1">  1       21 0.70888143E-02 0.23083679E+02</pdfrwt>
<pdfrwt beam="2">  1       21 0.24104695E-02 0.23083679E+02</pdfrwt>
<totfact> 0.91959258E+07</totfact>
</mgrwt>
</event>
<event>
 4    1  0.7841599E+004  0.2138379E+02  0.7546771E-02  0.1719132E+00
         21   -1    0    0  501  502  0.00000000000E+00  0.00000000000E+00  0.19999206943E+04  0.19999206943E+04  0.00000000000E+00 0. -1.
         21   -1    0    0  502  503 -0.00000000000E+00 -0.00000000000E+00 -0.24394872477E+00  0.24394872477E+00  0.00000000000E+00 0. -1.
          4    1    1    2  501    0  0.55056593160E+01 -0.20662864906E+02  0.74932855530E+03  0.74963361055E+03  0.00000000000E+00 0. -1.
         -4    1    1    2    0  503 -0.55056593160E+01  0.20662864906E+02  0.12503481903E+04  0.12505310325E+04  0.00000000000E+00 0.  1.
<mgrwt>
<rscale>  2 0.21383785E+02</rscale>
<asrwt>0</asrwt>
<pdfrwt beam="1">  1       21 0.30766698E+00 0.21383785E+02</pdfrwt>
<pdfrwt beam="2">  1       21 0.37532175E-04 0.21383785E+02</pdfrwt>
<totfact> 0.17763381E+07</totfact>
</mgrwt>
</event>
<event>
 4    1  0.7841599E+004  0.2601476E+02  0.7546771E-02  0.1646840E+00
         21   -1    0    0  501  502  0.00000000000E+00  0.00000000000E+00  0.16240052965E+02  0.16240052965E+02  0.00000000000E+00 0.  1.
         21   -1    0    0  502  503 -0.00000000000E+00 -0.00000000000E+00 -0.43169494877E+02  0.43169494877E+02  0.00000000000E+00 0.  1.
          4    1    1    2  501    0  0.13858464078E+02 -0.22016150823E+02 -0.79336482529E+01  0.27197623026E+02  0.00000000000E+00 0. -1.
         -4    1    1    2    0  503 -0.13858464078E+02  0.22016150823E+02 -0.18995793659E+02  0.32211924817E+02  0.00000000000E+00 0.  1.
<mgrwt>
<rscale>  2 0.26014764E+02</rscale>
<asrwt>0</asrwt>
<pdfrwt beam="1">  1       21 0.24984697E-02 0.26014764E+02</pdfrwt>
<pdfrwt beam="2">  1       21 0.66414608E-02 0.26014764E+02</pdfrwt>
<totfact> 0.99900585E+07</totfact>
</mgrwt>
</event>
<event>
 4    1  0.7841599E+004  0.2288057E+02  0.7546771E-02  0.1693453E+00
         21   -1    0    0  503  502  0.00000000000E+00  0.00000000000E+00  0.62849340894E+03  0.62849340894E+03  0.00000000000E+00 0.  1.
         21   -1    0    0  501  503 -0.00000000000E+00 -0.00000000000E+00 -0.83394851854E+00  0.83394851854E+00  0.00000000000E+00 0.  1.
          1    1    1    2  501    0 -0.21745837903E+02 -0.71161081046E+01  0.30308894958E+03  0.30395136424E+03  0.00000000000E+00 0. -1.
         -1    1    1    2    0  502  0.21745837903E+02  0.71161081046E+01  0.32457051084E+03  0.32537599322E+03  0.00000000000E+00 0.  1.
<mgrwt>
<rscale>  2 0.22880569E+02</rscale>
<asrwt>0</asrwt>
<pdfrwt beam="1">  1       21 0.96690915E-01 0.22880569E+02</pdfrwt>
<pdfrwt beam="2">  1       21 0.12830027E-03 0.22880569E+02</pdfrwt>
<totfact> 0.59868522E+07</totfact>
</mgrwt>
</event>
<event>
 4    1  0.7841599E+004  0.2123524E+02  0.7546771E-02  0.1721824E+00
         21   -1    0    0  503  502  0.00000000000E+00  0.00000000000E+00  0.16800720797E+03  0.16800720797E+03  0.00000000000E+00 0. -1.
         21   -1    0    0  501  503 -0.00000000000E+00 -0.00000000000E+00 -0.28648701325E+01  0.28648701325E+01  0.00000000000E+00 0. -1.
          5    1    1    2  501    0 -0.88229128763E+01  0.19315576291E+02  0.61105523162E+02  0.64690186582E+02  0.00000000000E+00 0. -1.
         -5    1    1    2    0  502  0.88229128763E+01 -0.19315576291E+02  0.10403681468E+03  0.10618189152E+03  0.00000000000E+00 0.  1.
<mgrwt>
<rscale>  2 0.21235237E+02</rscale>
<asrwt>0</asrwt>
<pdfrwt beam="1">  1       21 0.25847255E-01 0.21235237E+02</pdfrwt>
<pdfrwt beam="2">  1       21 0.44074938E-03 0.21235237E+02</pdfrwt>
<totfact> 0.12928872E+08</totfact>
</mgrwt>
</event>
<event>
 4    1  0.7841599E+004  0.3995232E+02  0.7546771E-02  0.1508563E+00
         21   -1    0    0  501  502  0.00000000000E+00  0.00000000000E+00  0.99645203305E+01  0.99645203305E+01  0.00000000000E+00 0. -1.
         21   -1    0    0  502  503 -0.00000000000E+00 -0.00000000000E+00 -0.16623847461E+03  0.16623847461E+03  0.00000000000E+00 0. -1.
          4    1    1    2  501    0 -0.23385651596E+02 -0.32392889666E+02 -0.94946026174E+02  0.10300939708E+03  0.00000000000E+00 0.  1.
         -4    1    1    2    0  503  0.23385651596E+02  0.32392889666E+02 -0.61327928109E+02  0.73193597860E+02  0.00000000000E+00 0. -1.
<mgrwt>
<rscale>  2 0.39952322E+02</rscale>
<asrwt>0</asrwt>
<pdfrwt beam="1">  1       21 0.15330033E-02 0.39952322E+02</pdfrwt>
<pdfrwt beam="2">  1       21 0.25575148E-01 0.39952322E+02</pdfrwt>
<totfact> 0.23174585E+07</totfact>
</mgrwt>
</event>
<event>
 4    1  0.7841599E+004  0.2959505E+02  0.7546771E-02  0.1602608E+00
         21   -1    0    0  501  502  0.00000000000E+00  0.00000000000E+00  0.20464906313E+02  0.20464906313E+02  0.00000000000E+00 0.  1.
         21   -1    0    0  502  503 -0.00000000000E+00 -0.00000000000E+00 -0.50688958331E+02  0.50688958331E+02  0.00000000000E+00 0.  1.
          3    1    1    2  501    0 -0.20537074674E+02 -0.21309517106E+02 -0.29148673180E+02  0.41539283860E+02  0.00000000000E+00 0.  1.
         -3    1    1    2    0  503  0.20537074674E+02  0.21309517106E+02 -0.10753788383E+01  0.29614580785E+02  0.00000000000E+00 0. -1.
<mgrwt>
<rscale>  2 0.29595050E+02</rscale>
<asrwt>0</asrwt>
<pdfrwt beam="1">  1       21 0.31484471E-02 0.29595050E+02</pdfrwt>
<pdfrwt beam="2">  1       21 0.77983013E-02 0.29595050E+02</pdfrwt>
<totfact> 0.55270312E+07</totfact>
</mgrwt>
</event>
<event>
 4    1  0.7841599E+004  0.2315030E+02  0.7546771E-02  0.1689085E+00
         21   -1    0    0  503  502  0.00000000000E+00  0.00000000000E+00  0.79638174190E+02  0.79638174190E+02  0.00000000000E+00 0. -1.
         21   -1    0    0  501  503 -0.00000000000E+00 -0.00000000000E+00 -0.12680110831E+02  0.12680110831E+02  0.00000000000E+00 0. -1.
          3    1    1    2  501    0  0.13241839521E+02  0.18989213976E+02  0.65099749667E+02  0.69093516107E+02  0.00000000000E+00 0. -1.
         -3    1    1    2    0  502 -0.13241839521E+02 -0.18989213976E+02  0.18583136918E+01  0.23224768913E+02  0.00000000000E+00 0.  1.
<mgrwt>
<rscale>  2 0.23150304E+02</rscale>
<asrwt>0</asrwt>
<pdfrwt beam="1">  1       21 0.12252027E-01 0.23150304E+02</pdfrwt>
<pdfrwt beam="2">  1       21 0.19507863E-02 0.23150304E+02</pdfrwt>
<totfact> 0.51736360E+07</totfact>
</mgrwt>
</event>
<event>
 4    1  0.7841599E+004  0.2722695E+02  0.7546771E-02  0.1630933E+00
         21   -1    0    0  503  502  0.00000000000E+00  0.00000000000E+00  0.56371966419E+02  0.56371966419E+02  0.00000000000E+00 0.  1.
         21   -1    0    0  501  503 -0.00000000000E+00 -0.00000000000E+00 -0.13156523079E+02  0.13156523079E+02  0.00000000000E+00 0.  1.
          1    1    1    2  501    0  0.26412914623E+02  0.66079463532E+01  0.20850294245E+02  0.34293465616E+02  0.00000000000E+00 0. -1.
         -1    1    1    2    0  502 -0.26412914623E+02 -0.66079463532E+01  0.22365149095E+02  0.35235023881E+02  0.00000000000E+00 0.  1.
<mgrwt>
<rscale>  2 0.27226954E+02</rscale>
<asrwt>0</asrwt>
<pdfrwt beam="1">  1       21 0.86726101E-02 0.27226954E+02</pdfrwt>
<pdfrwt beam="2">  1       21 0.20240805E-02 0.27226954E+02</pdfrwt>
<totfact> 0.90515207E+07</totfact>
</mgrwt>
</event>
<event>
 4    1  0.7841599E+004  0.4220640E+02  0.7546771E-02  0.1492575E+00
         21   -1    0    0  503  502  0.00000000000E+00  0.00000000000E+00  0.23962566441E+03  0.23962566441E+03  0.00000000000E+00 0. -1.
         21   -1    0    0  501  503 -0.00000000000E+00 -0.00000000000E+00 -0.88282342631E+01  0.88282342631E+01  0.00000000000E+00 0. -1.
          2    1    1    2  501    0  0.10709778925E+02 -0.40824997748E+02  0.16476666249E+03  0.17008654524E+03  0.00000000000E+00 0. -1.
         -2    1    1    2    0  502 -0.10709778925E+02  0.40824997748E+02  0.66030767657E+02  0.78367353427E+02  0.00000000000E+00 0.  1.
<mgrwt>
<rscale>  2 0.42206395E+02</rscale>
<asrwt>0</asrwt>
<pdfrwt beam="1">  1       21 0.36865482E-01 0.42206395E+02</pdfrwt>
<pdfrwt beam="2">  1       21 0.13581901E-02 0.42206395E+02</pdfrwt>
<totfact> 0.14240375E+07</totfact>
</mgrwt>
</event>
<event>
 4    1  0.7841599E+004  0.2033090E+02  0.7546771E-02  0.1738827E+00
         21   -1    0    0  501  502  0.00000000000E+00  0.00000000000E+00  0.52795083379E+01  0.52795083379E+01  0.00000000000E+00 0. -1.
         21   -1    0    0  502  503 -0.00000000000E+00 -0.00000000000E+00 -0.78657663764E+02  0.78657663764E+02  0.00000000000E+00 0. -1.
          4    1    1    2  501    0  0.37121796837E+00  0.20327514686E+02 -0.39548813175E+02  0.44468576317E+02  0.00000000000E+00 0.  1.
         -4    1    1    2    0  503 -0.37121796837E+00 -0.20327514686E+02 -0.33829342251E+02  0.39468595785E+02  0.00000000000E+00 0. -1.
<mgrwt>
<rscale>  2 0.20330904E+02</rscale>
<asrwt>0</asrwt>
<pdfrwt beam="1">  1       21 0.81223207E-03 0.20330904E+02</pdfrwt>
<pdfrwt beam="2">  1       21 0.12101179E-01 0.20330904E+02</pdfrwt>
<totfact> 0.19094854E+08</totfact>
</mgrwt>
</event>
<event>
 4    1  0.7841599E+004  0.2045703E+02  0.7546771E-02  0.1736389E+00
         21   -1    0    0  501  502  0.00000000000E+00  0.00000000000E+00  0.17652032543E+01  0.17652032543E+01  0.00000000000E+00 0.  1.
         21   -1    0    0  502  503 -0.00000000000E+00 -0.00000000000E+00 -0.33395506133E+03  0.33395506133E+03  0.00000000000E+00 0.  1.
          2    1    1    2  501    0  0.20443397921E+02 -0.74665313448E+00 -0.25650464414E+03  0.25731910631E+03  0.00000000000E+00 0.  1.
         -2    1    1    2    0  503 -0.20443397921E+02  0.74665313448E+00 -0.75685213942E+02  0.78401158276E+02  0.00000000000E+00 0. -1.
<mgrwt>
<rscale>  2 0.20457028E+02</rscale>
<asrwt>0</asrwt>
<pdfrwt beam="1">  1       21 0.27156966E-03 0.20457028E+02</pdfrwt>
<pdfrwt beam="2">  1       21 0.51377716E-01 0.20457028E+02</pdfrwt>
<totfact> 0.72383343E+07</totfact>
</mgrwt>
</event>
<event>
 4    1  0.7841599E+004  0.2023183E+02  0.7546771E-02  0.1740757E+00
         21   -1    0    0  501  502  0.00000000000E+00  0.00000000000E+00  0.11265551499E+02  0.11265551499E+02  0.00000000000E+00 0. -1.
         21   -1    0    0  502  503 -0.00000000000E+00 -0.00000000000E+00 -0.39683125301E+02  0.39683125301E+02  0.00000000000E+00 0. -1.
          5    1    1    2  501    0  0.19358248929E+02 -0.58809090503E+01 -0.68086343784E+01  0.21346765445E+02  0.00000000000E+00 0. -1.
         -5    1    1    2    0  503 -0.19358248929E+02  0.58809090503E+01 -0.21608939423E+02  0.29601911355E+02  0.00000000000E+00 0.  1.
<mgrwt>
<rscale>  2 0.20231829E+02</rscale>
<asrwt>0</asrwt>
<pdfrwt beam="1">  1       21 0.17331618E-02 0.20231829E+02</pdfrwt>
<pdfrwt beam="2">  1       21 0.61050961E-02 0.20231829E+02</pdfrwt>
<totfact> 0.18631758E+08</totfact>
</mgrwt>
</event>
<event>
 4    1  0.7841599E+004  0.2399216E+02  0.7546771E-02  0.1675915E+00
         21   -1    0    0  501  502  0.00000000000E+00  0.00000000000E+00  0.58432040964E+02  0.58432040964E+02  0.00000000000E+00 0. -1.
         21   -1    0    0  502  503 -0.00000000000E+00 -0.00000000000E+00 -0.99968680466E+01  0.99968680466E+01  0.00000000000E+00 0. -1.
          4    1    1    2  501    0 -0.23983548763E+02 -0.64268181591E+00  0.20086991502E+02  0.31290747495E+02  0.00000000000E+00 0.  1.
         -4    1    1    2    0  503  0.23983548763E+02  0.64268181591E+00  0.28348181415E+02  0.37138161516E+02  0.00000000000E+00 0. -1.
<mgrwt>
<rscale>  2 0.23992158E+02</rscale>
<asrwt>0</asrwt>
<pdfrwt beam="1">  1       21 0.89895445E-02 0.23992158E+02</pdfrwt>
<pdfrwt beam="2">  1       21 0.15379797E-02 0.23992158E+02</pdfrwt>
<totfact> 0.12568364E+08</totfact>
</mgrwt>
</event>
<event>
 4    1  0.7841599E+004  0.1200106E+03  0.7546771E-02  0.1243080E+00
         21   -1    0    0  503  502  0.00000000000E+00  0.00000000000E+00  0.26586869695E+02  0.26586869695E+02  0.00000000000E+00 0. -1.
         21   -1    0    0  501  503 -0.00000000000E+00 -0.00000000000E+00 -0.66801205149E+03  0.66801205149E+03  0.00000000000E+00 0. -1.
          3    1    1    2  501    0 -0.10181667141E+03 -0.63528849086E+02 -0.47172261501E+03  0.48674919081E+03  0.00000000000E+00 0.  1.
         -3    1    1    2    0  502  0.10181667141E+03  0.63528849086E+02 -0.16970256679E+03  0.20784973038E+03  0.00000000000E+00 0. -1.
<mgrwt>
<rscale>  2 0.12001062E+03</rscale>
<asrwt>0</asrwt>
<pdfrwt beam="1">  1       21 0.40902878E-02 0.12001062E+03</pdfrwt>
<pdfrwt beam="2">  1       21 0.10277108E+00 0.12001062E+03</pdfrwt>
<totfact> 0.29597063E+05</totfact>
</mgrwt>
</event>
<event>
 4    1  0.7841599E+004  0.3002869E+02  0.7546771E-02  0.1597772E+00
         21   -1    0    0  503  502  0.00000000000E+00  0.00000000000E+00  0.82473707745E+02  0.82473707745E+02  0.00000000000E+00 0. -1.
         21   -1    0    0  501  503 -0.00000000000E+00 -0.00000000000E+00 -0.10938245118E+02  0.10938245118E+02  0.00000000000E+00 0. -1.
          5    1    1    2  501    0  0.16224536113E+02 -0.25268298375E+02  0.34790212094E+02  0.45957386048E+02  0.00000000000E+00 0. -1.
         -5    1    1    2    0  502 -0.16224536113E+02  0.25268298375E+02  0.36745250532E+02  0.47454566814E+02  0.00000000000E+00 0.  1.
<mgrwt>
<rscale>  2 0.30028694E+02</rscale>
<asrwt>0</asrwt>
<pdfrwt beam="1">  1       21 0.12688262E-01 0.30028694E+02</pdfrwt>
<pdfrwt beam="2">  1       21 0.16828070E-02 0.30028694E+02</pdfrwt>
<totfact> 0.65178159E+07</totfact>
</mgrwt>
</event>
<event>
 4    1  0.7841599E+004  0.2371065E+02  0.7546771E-02  0.1680243E+00
         21   -1    0    0  503  502  0.00000000000E+00  0.00000000000E+00  0.99563338609E+03  0.99563338609E+03  0.00000000000E+00 0. -1.
         21   -1    0    0  501  503 -0.00000000000E+00 -0.00000000000E+00 -0.56908697530E+00  0.56908697530E+00  0.00000000000E+00 0. -1.
          4    1    1    2  501    0 -0.15957212946E+02 -0.17537455926E+02  0.45360333855E+03  0.45422261475E+03  0.00000000000E+00 0.  1.
         -4    1    1    2    0  502  0.15957212946E+02  0.17537455926E+02  0.54146096056E+03  0.54197985831E+03  0.00000000000E+00 0. -1.
<mgrwt>
<rscale>  2 0.23710652E+02</rscale>
<asrwt>0</asrwt>
<pdfrwt beam="1">  1       21 0.15317297E+00 0.23710652E+02</pdfrwt>
<pdfrwt beam="2">  1       21 0.87552639E-04 0.23710652E+02</pdfrwt>
<totfact> 0.36519837E+07</totfact>
</mgrwt>
</event>
<event>
 4    1  0.7841599E+004  0.2205406E+02  0.7546771E-02  0.1707319E+00
         21   -1    0    0  501  502  0.00000000000E+00  0.00000000000E+00  0.39641623310E+03  0.39641623310E+03  0.00000000000E+00 0. -1.
         21   -1    0    0  502  503 -0.00000000000E+00 -0.00000000000E+00 -0.12472958251E+01  0.12472958251E+01  0.00000000000E+00 0. -1.
          3    1    1    2  501    0  0.90826148871E+01 -0.20096955534E+02  0.17218784993E+03  0.17359446183E+03  0.00000000000E+00 0. -1.
         -3    1    1    2    0  503 -0.90826148871E+01  0.20096955534E+02  0.22298108735E+03  0.22406906710E+03  0.00000000000E+00 0.  1.
<mgrwt>
<rscale>  2 0.22054059E+02</rscale>
<asrwt>0</asrwt>
<pdfrwt beam="1">  1       21 0.60987013E-01 0.22054059E+02</pdfrwt>
<pdfrwt beam="2">  1       21 0.19189198E-03 0.22054059E+02</pdfrwt>
<totfact> 0.86922529E+07</totfact>
</mgrwt>
</event>
<event>
 4    1  0.7841599E+004  0.4386666E+02  0.7546771E-02  0.1481543E+00
         21   -1    0    0  501  502  0.00000000000E+00  0.00000000000E+00  0.66321131674E+01  0.66321131674E+01  0.00000000000E+00 0.  1.
         21   -1    0    0  502  503 -0.00000000000E+00 -0.00000000000E+00 -0.29015814575E+03  0.29015814575E+03  0.00000000000E+00 0.  1.
          4    1    1    2  501    0  0.40033458267E+02  0.17933377964E+02 -0.14081926329E+03  0.14749355490E+03  0.00000000000E+00 0. -1.
         -4    1    1    2    0  503 -0.40033458267E+02 -0.17933377964E+02 -0.14270676929E+03  0.14929670401E+03  0.00000000000E+00 0.  1.
<mgrwt>
<rscale>  2 0.43866660E+02</rscale>
<asrwt>0</asrwt>
<pdfrwt beam="1">  1       21 0.10203249E-02 0.43866660E+02</pdfrwt>
<pdfrwt beam="2">  1       21 0.44639725E-01 0.43866660E+02</pdfrwt>
<totfact> 0.15354224E+07</totfact>
</mgrwt>
</event>
<event>
 4    1  0.7841599E+004  0.3311435E+02  0.7546771E-02  0.1566013E+00
         21   -1    0    0  501  502  0.00000000000E+00  0.00000000000E+00  0.66755159962E+02  0.66755159962E+02  0.00000000000E+00 0. -1.
         21   -1    0    0  502  503 -0.00000000000E+00 -0.00000000000E+00 -0.16898295132E+02  0.16898295132E+02  0.00000000000E+00 0. -1.
          5    1    1    2  501    0 -0.29001384039E+02  0.15983746315E+02  0.17940280006E+02  0.37661838367E+02  0.00000000000E+00 0. -1.
         -5    1    1    2    0  503  0.29001384039E+02 -0.15983746315E+02  0.31916584823E+02  0.45991616728E+02  0.00000000000E+00 0.  1.
<mgrwt>
<rscale>  2 0.33114354E+02</rscale>
<asrwt>0</asrwt>
<pdfrwt beam="1">  1       21 0.10270024E-01 0.33114354E+02</pdfrwt>
<pdfrwt beam="2">  1       21 0.25997377E-02 0.33114354E+02</pdfrwt>
<totfact> 0.48405197E+07</totfact>
</mgrwt>
</event>
<event>
 4    1  0.7841599E+004  0.2682172E+02  0.7546771E-02  0.1636135E+00
         21   -1    0    0  503  502  0.00000000000E+00  0.00000000000E+00  0.21683447974E+02  0.21683447974E+02  0.00000000000E+00 0.  1.
         21   -1    0    0  501  503 -0.00000000000E+00 -0.00000000000E+00 -0.33194259631E+02  0.33194259631E+02  0.00000000000E+00 0.  1.
          2    1    1    2  501    0 -0.26655763859E+02  0.29790633999E+01 -0.51405319051E+01  0.27309881616E+02  0.00000000000E+00 0.  1.
         -2    1    1    2    0  502  0.26655763859E+02 -0.29790633999E+01 -0.63702797527E+01  0.27567825989E+02  0.00000000000E+00 0. -1.
<mgrwt>
<rscale>  2 0.26821718E+02</rscale>
<asrwt>0</asrwt>
<pdfrwt beam="1">  1       21 0.33359151E-02 0.26821718E+02</pdfrwt>
<pdfrwt beam="2">  1       21 0.51068092E-02 0.26821718E+02</pdfrwt>
<totfact> 0.97916774E+07</totfact>
</mgrwt>
</event>
<event>
 4    1  0.7841599E+004  0.2797664E+02  0.7546771E-02  0.1621595E+00
         21   -1    0    0  501  502  0.00000000000E+00  0.00000000000E+00  0.56214405105E+01  0.56214405105E+01  0.00000000000E+00 0. -1.
         21   -1    0    0  502  503 -0.00000000000E+00 -0.00000000000E+00 -0.14526246444E+03  0.14526246444E+03  0.00000000000E+00 0. -1.
          5    1    1    2  501    0  0.26195221342E+02 -0.98235826683E+01 -0.85190035139E+02  0.89666239380E+02  0.00000000000E+00 0. -1.
         -5    1    1    2    0  503 -0.26195221342E+02  0.98235826683E+01 -0.54450988789E+02  0.61217665569E+02  0.00000000000E+00 0.  1.
<mgrwt>
<rscale>  2 0.27976640E+02</rscale>
<asrwt>0</asrwt>
<pdfrwt beam="1">  1       21 0.86483700E-03 0.27976640E+02</pdfrwt>
<pdfrwt beam="2">  1       21 0.22348072E-01 0.27976640E+02</pdfrwt>
<totfact> 0.66106634E+07</totfact>
</mgrwt>
</event>
<event>
 4    1  0.7841599E+004  0.3505024E+02  0.7546771E-02  0.1548155E+00
         21   -1    0    0  501  502  0.00000000000E+00  0.00000000000E+00  0.14772822811E+02  0.14772822811E+02  0.00000000000E+00 0. -1.
         21   -1    0    0  502  503 -0.00000000000E+00 -0.00000000000E+00 -0.11544424245E+03  0.11544424245E+03  0.00000000000E+00 0. -1.
          3    1    1    2  501    0 -0.24107935365E+02  0.25442613223E+02 -0.15905316597E+02  0.38490235271E+02  0.00000000000E+00 0.  1.
         -3    1    1    2    0  503  0.24107935365E+02 -0.25442613223E+02 -0.84766103038E+02  0.91726829987E+02  0.00000000000E+00 0. -1.
<mgrwt>
<rscale>  2 0.35050237E+02</rscale>
<asrwt>0</asrwt>
<pdfrwt beam="1">  1       21 0.22727420E-02 0.35050237E+02</pdfrwt>
<pdfrwt beam="2">  1       21 0.17760653E-01 0.35050237E+02</pdfrwt>
<totfact> 0.23597930E+07</totfact>
</mgrwt>
</event>
<event>
 4    1  0.7841599E+004  0.2076864E+02  0.7546771E-02  0.1730461E+00
         21   -1    0    0  501  502  0.00000000000E+00  0.00000000000E+00  0.48869002409E+02  0.48869002409E+02  0.00000000000E+00 0. -1.
         21   -1    0    0  502  503 -0.00000000000E+00 -0.00000000000E+00 -0.88562555531E+01  0.88562555531E+01  0.00000000000E+00 0. -1.
          5    1    1    2  501    0 -0.13563138024E+02 -0.15728242940E+02  0.18329980942E+02  0.27700623465E+02  0.00000000000E+00 0.  1.
         -5    1    1    2    0  503  0.13563138024E+02  0.15728242940E+02  0.21682765914E+02  0.30024634497E+02  0.00000000000E+00 0. -1.
<mgrwt>
<rscale>  2 0.20768638E+02</rscale>
<asrwt>0</asrwt>
<pdfrwt beam="1">  1       21 0.75183079E-02 0.20768638E+02</pdfrwt>
<pdfrwt beam="2">  1       21 0.13625009E-02 0.20768638E+02</pdfrwt>
<totfact> 0.19349637E+08</totfact>
</mgrwt>
</event>
<event>
 4    1  0.7841599E+004  0.3067697E+02  0.7546771E-02  0.1590724E+00
         21   -1    0    0  501  502  0.00000000000E+00  0.00000000000E+00  0.22559018528E+02  0.22559018528E+02  0.00000000000E+00 0. -1.
         21   -1    0    0  502  503 -0.00000000000E+00 -0.00000000000E+00 -0.44201597165E+02  0.44201597165E+02  0.00000000000E+00 0. -1.
          4    1    1    2  501    0 -0.30472072455E+02 -0.35396909567E+01 -0.18736617644E+02  0.35946313476E+02  0.00000000000E+00 0.  1.
         -4    1    1    2    0  503  0.30472072455E+02  0.35396909567E+01 -0.29059609932E+01  0.30814302216E+02  0.00000000000E+00 0. -1.
<mgrwt>
<rscale>  2 0.30676972E+02</rscale>
<asrwt>0</asrwt>
<pdfrwt beam="1">  1       21 0.34706182E-02 0.30676972E+02</pdfrwt>
<pdfrwt beam="2">  1       21 0.68002457E-02 0.30676972E+02</pdfrwt>
<totfact> 0.59797342E+07</totfact>
</mgrwt>
</event>
<event>
 4    1  0.7841599E+004  0.2443654E+02  0.7546771E-02  0.1669229E+00
         21   -1    0    0  501  502  0.00000000000E+00  0.00000000000E+00  0.64004964535E+01  0.64004964535E+01  0.00000000000E+00 0.  1.
         21   -1    0    0  502  503 -0.00000000000E+00 -0.00000000000E+00 -0.12859759514E+03  0.12859759514E+03  0.00000000000E+00 0.  1.
          1    1    1    2  501    0  0.24323441639E+02 -0.23483380808E+01 -0.25733462035E+02  0.35487400204E+02  0.00000000000E+00 0.  1.
         -1    1    1    2    0  503 -0.24323441639E+02  0.23483380808E+01 -0.96463636654E+02  0.99510691392E+02  0.00000000000E+00 0. -1.
<mgrwt>
<rscale>  2 0.24436540E+02</rscale>
<asrwt>0</asrwt>
<pdfrwt beam="1">  1       21 0.98469173E-03 0.24436540E+02</pdfrwt>
<pdfrwt beam="2">  1       21 0.19784246E-01 0.24436540E+02</pdfrwt>
<totfact> 0.65260710E+07</totfact>
</mgrwt>
</event>
<event>
 4    1  0.7841599E+004  0.3750900E+02  0.7546771E-02  0.1527386E+00
         21   -1    0    0  501  502  0.00000000000E+00  0.00000000000E+00  0.41107761456E+02  0.41107761456E+02  0.00000000000E+00 0. -1.
         21   -1    0    0  502  503 -0.00000000000E+00 -0.00000000000E+00 -0.37414714310E+02  0.37414714310E+02  0.00000000000E+00 0. -1.
          2    1    1    2  501    0  0.37435214299E+02  0.23515423797E+01 -0.96164946131E+01  0.38722112414E+02  0.00000000000E+00 0.  1.
         -2    1    1    2    0  503 -0.37435214299E+02 -0.23515423797E+01  0.13309541759E+02  0.39800363353E+02  0.00000000000E+00 0. -1.
<mgrwt>
<rscale>  2 0.37508999E+02</rscale>
<asrwt>0</asrwt>
<pdfrwt beam="1">  1       21 0.63242710E-02 0.37508999E+02</pdfrwt>
<pdfrwt beam="2">  1       21 0.57561099E-02 0.37508999E+02</pdfrwt>
<totfact> 0.31116043E+07</totfact>
</mgrwt>
</event>
<event>
 4    1  0.7841599E+004  0.2374441E+02  0.7546771E-02  0.1679720E+00
         21   -1    0    0  503  502  0.00000000000E+00  0.00000000000E+00  0.10223578043E+03  0.10223578043E+03  0.00000000000E+00 0.  1.
         21   -1    0    0  501  503 -0.00000000000E+00 -0.00000000000E+00 -0.55799091373E+01  0.55799091373E+01  0.00000000000E+00 0.  1.
          4    1    1    2  501    0  0.14081531517E+02  0.19118244807E+02  0.54156817415E+02  0.59133388935E+02  0.00000000000E+00 0.  1.
         -4    1    1    2    0  502 -0.14081531517E+02 -0.19118244807E+02  0.42499053874E+02  0.48682300629E+02  0.00000000000E+00 0. -1.
<mgrwt>
<rscale>  2 0.23744406E+02</rscale>
<asrwt>0</asrwt>
<pdfrwt beam="1">  1       21 0.15728580E-01 0.23744406E+02</pdfrwt>
<pdfrwt beam="2">  1       21 0.85844763E-03 0.23744406E+02</pdfrwt>
<totfact> 0.11829336E+08</totfact>
</mgrwt>
</event>
<event>
 4    1  0.7841599E+004  0.2012052E+02  0.7546771E-02  0.1742942E+00
         21   -1    0    0  503  502  0.00000000000E+00  0.00000000000E+00  0.46553050638E+01  0.46553050638E+01  0.00000000000E+00 0. -1.
         21   -1    0    0  501  503 -0.00000000000E+00 -0.00000000000E+00 -0.10540874690E+03  0.10540874690E+03  0.00000000000E+00 0. -1.
          5    1    1    2  501    0 -0.20094412925E+02 -0.10245716506E+01 -0.73398331742E+02  0.76106177676E+02  0.00000000000E+00 0.  1.
         -5    1    1    2    0  502  0.20094412925E+02  0.10245716506E+01 -0.27355110090E+02  0.33957874284E+02  0.00000000000E+00 0. -1.
<mgrwt>
<rscale>  2 0.20120516E+02</rscale>
<asrwt>0</asrwt>
<pdfrwt beam="1">  1       21 0.71620090E-03 0.20120516E+02</pdfrwt>
<pdfrwt beam="2">  1       21 0.16216728E-01 0.20120516E+02</pdfrwt>
<totfact> 0.14009423E+08</totfact>
</mgrwt>
</event>
<event>
 4    1  0.7841599E+004  0.2183858E+02  0.7546771E-02  0.1711059E+00
         21   -1    0    0  501  502  0.00000000000E+00  0.00000000000E+00  0.55420492335E+00  0.55420492335E+00  0.00000000000E+00 0.  1.
         21   -1    0    0  502  503 -0.00000000000E+00 -0.00000000000E+00 -0.94426929779E+03  0.94426929779E+03  0.00000000000E+00 0.  1.
          1    1    1    2  501    0  0.11057526243E+02 -0.18832276417E+02 -0.61251863146E+03  0.61290782129E+03  0.00000000000E+00 0. -1.
         -1    1    1    2    0  503 -0.11057526243E+02  0.18832276417E+02 -0.33119646141E+03  0.33191568142E+03  0.00000000000E+00 0.  1.
<mgrwt>
<rscale>  2 0.21838579E+02</rscale>
<asrwt>0</asrwt>
<pdfrwt beam="1">  1       21 0.85262442E-04 0.21838579E+02</pdfrwt>
<pdfrwt beam="2">  1       21 0.14527195E+00 0.21838579E+02</pdfrwt>
<totfact> 0.42304210E+07</totfact>
</mgrwt>
</event>
<event>
 4    1  0.7841599E+004  0.2137695E+02  0.7546771E-02  0.1719255E+00
         21   -1    0    0  501  502  0.00000000000E+00  0.00000000000E+00  0.26444104512E+03  0.26444104512E+03  0.00000000000E+00 0.  1.
         21   -1    0    0  502  503 -0.00000000000E+00 -0.00000000000E+00 -0.17335250923E+01  0.17335250923E+01  0.00000000000E+00 0.  1.
          1    1    1    2  501    0 -0.21201566301E+02 -0.27327061460E+01  0.12389180344E+03  0.12572252406E+03  0.00000000000E+00 0. -1.
         -1    1    1    2    0  503  0.21201566301E+02  0.27327061460E+01  0.13881571659E+03  0.14045204615E+03  0.00000000000E+00 0.  1.
<mgrwt>
<rscale>  2 0.21376952E+02</rscale>
<asrwt>0</asrwt>
<pdfrwt beam="1">  1       21 0.40683206E-01 0.21376952E+02</pdfrwt>
<pdfrwt beam="2">  1       21 0.26669638E-03 0.21376952E+02</pdfrwt>
<totfact> 0.11745488E+08</totfact>
</mgrwt>
</event>
<event>
 4    1  0.7841599E+004  0.2942069E+02  0.7546771E-02  0.1604582E+00
         21   -1    0    0  501  502  0.00000000000E+00  0.00000000000E+00  0.14087964776E+03  0.14087964776E+03  0.00000000000E+00 0.  1.
         21   -1    0    0  502  503 -0.00000000000E+00 -0.00000000000E+00 -0.62451062557E+01  0.62451062557E+01  0.00000000000E+00 0.  1.
          3    1    1    2  501    0 -0.20591916186E+02  0.21013084170E+02  0.57961289306E+02  0.65000675201E+02  0.00000000000E+00 0.  1.
         -3    1    1    2    0  503  0.20591916186E+02 -0.21013084170E+02  0.76673252202E+02  0.82124078818E+02  0.00000000000E+00 0. -1.
<mgrwt>
<rscale>  2 0.29420685E+02</rscale>
<asrwt>0</asrwt>
<pdfrwt beam="1">  1       21 0.21673790E-01 0.29420685E+02</pdfrwt>
<pdfrwt beam="2">  1       21 0.96078569E-03 0.29420685E+02</pdfrwt>
<totfact> 0.60255015E+07</totfact>
</mgrwt>
</event>
<event>
 4    1  0.7841599E+004  0.2010038E+02  0.7546771E-02  0.1743339E+00
         21   -1    0    0  503  502  0.00000000000E+00  0.00000000000E+00  0.72956461634E+02  0.72956461634E+02  0.00000000000E+00 0. -1.
         21   -1    0    0  501  503 -0.00000000000E+00 -0.00000000000E+00 -0.13733327144E+02  0.13733327144E+02  0.00000000000E+00 0. -1.
          1    1    1    2  501    0 -0.16027335604E+02  0.12130527226E+02 -0.38723309399E+01  0.20469981052E+02  0.00000000000E+00 0.  1.
         -1    1    1    2    0  502  0.16027335604E+02 -0.12130527226E+02  0.63095465431E+02  0.66219807726E+02  0.00000000000E+00 0. -1.
<mgrwt>
<rscale>  2 0.20100378E+02</rscale>
<asrwt>0</asrwt>
<pdfrwt beam="1">  1       21 0.11224071E-01 0.20100378E+02</pdfrwt>
<pdfrwt beam="2">  1       21 0.21128196E-02 0.20100378E+02</pdfrwt>
<totfact> 0.51053995E+07</totfact>
</mgrwt>
</event>
<event>
 4    1  0.7841599E+004  0.2332913E+02  0.7546771E-02  0.1686230E+00
         21   -1    0    0  503  502  0.00000000000E+00  0.00000000000E+00  0.14729869093E+02  0.14729869093E+02  0.00000000000E+00 0. -1.
         21   -1    0    0  501  503 -0.00000000000E+00 -0.00000000000E+00 -0.40119081795E+02  0.40119081795E+02  0.00000000000E+00 0. -1.
          3    1    1    2  501    0  0.15860320909E+02 -0.17108433628E+02 -0.49851393128E+01  0.23855814690E+02  0.00000000000E+00 0. -1.
         -3    1    1    2    0  502 -0.15860320909E+02  0.17108433628E+02 -0.20404073389E+02  0.30993136198E+02  0.00000000000E+00 0.  1.
<mgrwt>
<rscale>  2 0.23329129E+02</rscale>
<asrwt>0</asrwt>
<pdfrwt beam="1">  1       21 0.22661337E-02 0.23329129E+02</pdfrwt>
<pdfrwt beam="2">  1       21 0.61721664E-02 0.23329129E+02</pdfrwt>
<totfact> 0.12689629E+08</totfact>
</mgrwt>
</event>
<event>
 4    1  0.7841599E+004  0.3765091E+02  0.7546771E-02  0.1526246E+00
         21   -1    0    0  501  502  0.00000000000E+00  0.00000000000E+00  0.94857226140E+02  0.94857226140E+02  0.00000000000E+00 0. -1.
         21   -1    0    0  502  503 -0.00000000000E+00 -0.00000000000E+00 -0.15993262887E+02  0.15993262887E+02  0.00000000000E+00 0. -1.
          4    1    1    2  501    0  0.18461331610E+01  0.37605619661E+02  0.53625309516E+02  0.65523008619E+02  0.00000000000E+00 0.  1.
         -4    1    1    2    0  503 -0.18461331610E+01 -0.37605619661E+02  0.25238653736E+02  0.45327480408E+02  0.00000000000E+00 0. -1.
<mgrwt>
<rscale>  2 0.37650908E+02</rscale>
<asrwt>0</asrwt>
<pdfrwt beam="1">  1       21 0.14593419E-01 0.37650908E+02</pdfrwt>
<pdfrwt beam="2">  1       21 0.24605020E-02 0.37650908E+02</pdfrwt>
<totfact> 0.29712551E+07</totfact>
</mgrwt>
</event>
<event>
 4    1  0.7841599E+004  0.2049232E+02  0.7546771E-02  0.1735711E+00
         21   -1    0    0  503  502  0.00000000000E+00  0.00000000000E+00  0.32609288836E+02  0.32609288836E+02  0.00000000000E+00 0.  1.
         21   -1    0    0  501  503 -0.00000000000E+00 -0.00000000000E+00 -0.12884481740E+02  0.12884481740E+02  0.00000000000E+00 0.  1.
          3    1    1    2  501    0 -0.19571756706E+02  0.60730108887E+01  0.10381331644E+02  0.22971877775E+02  0.00000000000E+00 0. -1.
         -3    1    1    2    0  502  0.19571756706E+02 -0.60730108887E+01  0.93434754522E+01  0.22521892801E+02  0.00000000000E+00 0.  1.
<mgrwt>
<rscale>  2 0.20492319E+02</rscale>
<asrwt>0</asrwt>
<pdfrwt beam="1">  1       21 0.50168136E-02 0.20492319E+02</pdfrwt>
<pdfrwt beam="2">  1       21 0.19822280E-02 0.20492319E+02</pdfrwt>
<totfact> 0.20841855E+08</totfact>
</mgrwt>
</event>
<event>
 4    1  0.7841599E+004  0.2281077E+02  0.7546771E-02  0.1694596E+00
         21   -1    0    0  503  502  0.00000000000E+00  0.00000000000E+00  0.13939291904E+03  0.13939291904E+03  0.00000000000E+00 0. -1.
         21   -1    0    0  501  503 -0.00000000000E+00 -0.00000000000E+00 -0.68769920554E+01  0.68769920554E+01  0.00000000000E+00 0. -1.
          1    1    1    2  501    0  0.51161709923E+01  0.22229617573E+02  0.16806666148E+02  0.28333639548E+02  0.00000000000E+00 0.  1.
         -1    1    1    2    0  502 -0.51161709923E+01 -0.22229617573E+02  0.11570926084E+03  0.11793627155E+03  0.00000000000E+00 0. -1.
<mgrwt>
<rscale>  2 0.22810767E+02</rscale>
<asrwt>0</asrwt>
<pdfrwt beam="1">  1       21 0.21445062E-01 0.22810767E+02</pdfrwt>
<pdfrwt beam="2">  1       21 0.10579989E-02 0.22810767E+02</pdfrwt>
<totfact> 0.49980937E+07</totfact>
</mgrwt>
</event>
<event>
 4    1  0.7841599E+004  0.2207529E+02  0.7546771E-02  0.1706953E+00
         21   -1    0    0  501  502  0.00000000000E+00  0.00000000000E+00  0.15647705625E+03  0.15647705625E+03  0.00000000000E+00 0. -1.
         21   -1    0    0  502  503 -0.00000000000E+00 -0.00000000000E+00 -0.35784758963E+01  0.35784758963E+01  0.00000000000E+00 0. -1.
          3    1    1    2  501    0 -0.16443656516E+02  0.14728359249E+02  0.47627083411E+02  0.52494356649E+02  0.00000000000E+00 0.  1.
         -3    1    1    2    0  503  0.16443656516E+02 -0.14728359249E+02  0.10527149694E+03  0.10756117550E+03  0.00000000000E+00 0. -1.
<mgrwt>
<rscale>  2 0.22075289E+02</rscale>
<asrwt>0</asrwt>
<pdfrwt beam="1">  1       21 0.24073388E-01 0.22075289E+02</pdfrwt>
<pdfrwt beam="2">  1       21 0.55053487E-03 0.22075289E+02</pdfrwt>
<totfact> 0.10693059E+08</totfact>
</mgrwt>
</event>
<event>
 4    1  0.7841599E+004  0.2704156E+02  0.7546771E-02  0.1633299E+00
         21   -1    0    0  503  502  0.00000000000E+00  0.00000000000E+00  0.14412972443E+03  0.14412972443E+03  0.00000000000E+00 0.  1.
         21   -1    0    0  501  503 -0.00000000000E+00 -0.00000000000E+00 -0.57074052135E+01  0.57074052135E+01  0.00000000000E+00 0.  1.
          3    1    1    2  501    0  0.25965313706E+02  0.75530249334E+01  0.94178589130E+02  0.97983939256E+02  0.00000000000E+00 0.  1.
         -3    1    1    2    0  502 -0.25965313706E+02 -0.75530249334E+01  0.44243730090E+02  0.51853190392E+02  0.00000000000E+00 0. -1.
<mgrwt>
<rscale>  2 0.27041555E+02</rscale>
<asrwt>0</asrwt>
<pdfrwt beam="1">  1       21 0.22173801E-01 0.27041555E+02</pdfrwt>
<pdfrwt beam="2">  1       21 0.87806245E-03 0.27041555E+02</pdfrwt>
<totfact> 0.64996198E+07</totfact>
</mgrwt>
</event>
<event>
 4    1  0.7841599E+004  0.2224542E+02  0.7546771E-02  0.1704042E+00
         21   -1    0    0  501  502  0.00000000000E+00  0.00000000000E+00  0.17353876178E+03  0.17353876178E+03  0.00000000000E+00 0. -1.
         21   -1    0    0  502  503 -0.00000000000E+00 -0.00000000000E+00 -0.30102565528E+01  0.30102565528E+01  0.00000000000E+00 0. -1.
          1    1    1    2  501    0 -0.65959684139E+01  0.21245039725E+02  0.10553169765E+03  0.10785081233E+03  0.00000000000E+00 0.  1.
         -1    1    1    2    0  503  0.65959684139E+01 -0.21245039725E+02  0.64996807584E+02  0.68698206006E+02  0.00000000000E+00 0. -1.
<mgrwt>
<rscale>  2 0.22245416E+02</rscale>
<asrwt>0</asrwt>
<pdfrwt beam="1">  1       21 0.26698263E-01 0.22245416E+02</pdfrwt>
<pdfrwt beam="2">  1       21 0.46311653E-03 0.22245416E+02</pdfrwt>
<totfact> 0.11496305E+08</totfact>
</mgrwt>
</event>
<event>
 4    1  0.7841599E+004  0.2059747E+02  0.7546771E-02  0.1733701E+00
         21   -1    0    0  501  502  0.00000000000E+00  0.00000000000E+00  0.14402616356E+04  0.14402616356E+04  0.00000000000E+00 0. -1.
         21   -1    0    0  502  503 -0.00000000000E+00 -0.00000000000E+00 -0.29601613199E+00  0.29601613199E+00  0.00000000000E+00 0. -1.
          3    1    1    2  501    0 -0.20312432828E+02  0.34148040478E+01  0.66961406101E+03  0.66993077741E+03  0.00000000000E+00 0.  1.
         -3    1    1    2    0  503  0.20312432828E+02 -0.34148040478E+01  0.77035155849E+03  0.77062687435E+03  0.00000000000E+00 0. -1.
<mgrwt>
<rscale>  2 0.20597471E+02</rscale>
<asrwt>0</asrwt>
<pdfrwt beam="1">  1       21 0.22157310E+00 0.20597471E+02</pdfrwt>
<pdfrwt beam="2">  1       21 0.45542097E-04 0.20597471E+02</pdfrwt>
<totfact> 0.35546148E+07</totfact>
</mgrwt>
</event>
<event>
 4    1  0.7841599E+004  0.2083397E+02  0.7546771E-02  0.1729235E+00
         21   -1    0    0  503  502  0.00000000000E+00  0.00000000000E+00  0.11228224720E+01  0.11228224720E+01  0.00000000000E+00 0. -1.
         21   -1    0    0  501  503 -0.00000000000E+00 -0.00000000000E+00 -0.39337765446E+03  0.39337765446E+03  0.00000000000E+00 0. -1.
          3    1    1    2  501    0  0.20687936492E+02 -0.24624585080E+01 -0.22206748932E+03  0.22304265115E+03  0.00000000000E+00 0.  1.
         -3    1    1    2    0  502 -0.20687936492E+02  0.24624585080E+01 -0.17018734267E+03  0.17145782578E+03  0.00000000000E+00 0. -1.
<mgrwt>
<rscale>  2 0.20833973E+02</rscale>
<asrwt>0</asrwt>
<pdfrwt beam="1">  1       21 0.17274179E-03 0.20833973E+02</pdfrwt>
<pdfrwt beam="2">  1       21 0.60519683E-01 0.20833973E+02</pdfrwt>
<totfact> 0.10115994E+08</totfact>
</mgrwt>
</event>
<event>
 4    1  0.7841599E+004  0.2652642E+02  0.7546771E-02  0.1639998E+00
         21   -1    0    0  503  502  0.00000000000E+00  0.00000000000E+00  0.32429539406E+02  0.32429539406E+02  0.00000000000E+00 0.  1.
         21   -1    0    0  501  503 -0.00000000000E+00 -0.00000000000E+00 -0.24998866044E+02  0.24998866044E+02  0.00000000000E+00 0.  1.
          1    1    1    2  501    0  0.12216209998E+02 -0.23546018791E+02 -0.67189178620E+01  0.27364112353E+02  0.00000000000E+00 0.  1.
         -1    1    1    2    0  502 -0.12216209998E+02  0.23546018791E+02  0.14149591224E+02  0.30064293097E+02  0.00000000000E+00 0. -1.
<mgrwt>
<rscale>  2 0.26526417E+02</rscale>
<asrwt>0</asrwt>
<pdfrwt beam="1">  1       21 0.49891599E-02 0.26526417E+02</pdfrwt>
<pdfrwt beam="2">  1       21 0.38459794E-02 0.26526417E+02</pdfrwt>
<totfact> 0.80977313E+07</totfact>
</mgrwt>
</event>
<event>
 4    1  0.7841599E+004  0.2273947E+02  0.7546771E-02  0.1695768E+00
         21   -1    0    0  503  502  0.00000000000E+00  0.00000000000E+00  0.45847301707E+01  0.45847301707E+01  0.00000000000E+00 0. -1.
         21   -1    0    0  501  503 -0.00000000000E+00 -0.00000000000E+00 -0.12402408391E+03  0.12402408391E+03  0.00000000000E+00 0. -1.
          2    1    1    2  501    0  0.66276817662E+01 -0.21752178601E+02 -0.40360997044E+02  0.46325948688E+02  0.00000000000E+00 0.  1.
         -2    1    1    2    0  502 -0.66276817662E+01  0.21752178601E+02 -0.79078356692E+02  0.82282865389E+02  0.00000000000E+00 0. -1.
<mgrwt>
<rscale>  2 0.22739469E+02</rscale>
<asrwt>0</asrwt>
<pdfrwt beam="1">  1       21 0.70534323E-03 0.22739469E+02</pdfrwt>
<pdfrwt beam="2">  1       21 0.19080625E-01 0.22739469E+02</pdfrwt>
<totfact> 0.11229194E+08</totfact>
</mgrwt>
</event>
<event>
 4    1  0.7841599E+004  0.2114075E+02  0.7546771E-02  0.1723550E+00
         21   -1    0    0  503  502  0.00000000000E+00  0.00000000000E+00  0.10018873257E+02  0.10018873257E+02  0.00000000000E+00 0. -1.
         21   -1    0    0  501  503 -0.00000000000E+00 -0.00000000000E+00 -0.45684951942E+02  0.45684951942E+02  0.00000000000E+00 0. -1.
          4    1    1    2  501    0 -0.20417098774E+02  0.54839284356E+01 -0.13558636769E+02  0.25115095549E+02  0.00000000000E+00 0. -1.
         -4    1    1    2    0  502  0.20417098774E+02 -0.54839284356E+01 -0.22107441917E+02  0.30588729649E+02  0.00000000000E+00 0.  1.
<mgrwt>
<rscale>  2 0.21140752E+02</rscale>
<asrwt>0</asrwt>
<pdfrwt beam="1">  1       21 0.15413651E-02 0.21140752E+02</pdfrwt>
<pdfrwt beam="2">  1       21 0.70284542E-02 0.21140752E+02</pdfrwt>
<totfact> 0.18003339E+08</totfact>
</mgrwt>
</event>
<event>
 4    1  0.7841599E+004  0.2233092E+02  0.7546771E-02  0.1702591E+00
         21   -1    0    0  503  502  0.00000000000E+00  0.00000000000E+00  0.37337281833E+01  0.37337281833E+01  0.00000000000E+00 0. -1.
         21   -1    0    0  501  503 -0.00000000000E+00 -0.00000000000E+00 -0.15103370883E+03  0.15103370883E+03  0.00000000000E+00 0. -1.
          4    1    1    2  501    0  0.87207028280E+01 -0.20557708668E+02 -0.99972510844E+02  0.10243618974E+03  0.00000000000E+00 0. -1.
         -4    1    1    2    0  502 -0.87207028280E+01  0.20557708668E+02 -0.47327469799E+02  0.52331247272E+02  0.00000000000E+00 0.  1.
<mgrwt>
<rscale>  2 0.22330921E+02</rscale>
<asrwt>0</asrwt>
<pdfrwt beam="1">  1       21 0.57441972E-03 0.22330921E+02</pdfrwt>
<pdfrwt beam="2">  1       21 0.23235955E-01 0.22330921E+02</pdfrwt>
<totfact> 0.10726676E+08</totfact>
</mgrwt>
</event>
<event>
 4    1  0.7841599E+004  0.2220333E+02  0.7546771E-02  0.1704759E+00
         21   -1    0    0  501  502  0.00000000000E+00  0.00000000000E+00  0.11237013254E+03  0.11237013254E+03  0.00000000000E+00 0.  1.
         21   -1    0    0  502  503 -0.00000000000E+00 -0.00000000000E+00 -0.43950715181E+01  0.43950715181E+01  0.00000000000E+00 0.  1.
          2    1    1    2  501    0 -0.20955968005E+02  0.73372451540E+01  0.51513308434E+02  0.56094640629E+02  0.00000000000E+00 0.  1.
         -2    1    1    2    0  503  0.20955968005E+02 -0.73372451540E+01  0.56461752584E+02  0.60670563425E+02  0.00000000000E+00 0. -1.
<mgrwt>
<rscale>  2 0.22203328E+02</rscale>
<asrwt>0</asrwt>
<pdfrwt beam="1">  1       21 0.17287710E-01 0.22203328E+02</pdfrwt>
<pdfrwt beam="2">  1       21 0.67616494E-03 0.22203328E+02</pdfrwt>
<totfact> 0.14082517E+08</totfact>
</mgrwt>
</event>
<event>
 4    1  0.7841599E+004  0.2413252E+02  0.7546771E-02  0.1673784E+00
         21   -1    0    0  503  502  0.00000000000E+00  0.00000000000E+00  0.32283338060E+00  0.32283338060E+00  0.00000000000E+00 0. -1.
         21   -1    0    0  501  503 -0.00000000000E+00 -0.00000000000E+00 -0.23561187573E+04  0.23561187573E+04  0.00000000000E+00 0. -1.
          4    1    1    2  501    0 -0.56212124948E+01 -0.23468712521E+02 -0.17482724438E+04  0.17484389942E+04  0.00000000000E+00 0.  1.
         -4    1    1    2    0  502  0.56212124948E+01  0.23468712521E+02 -0.60752348014E+03  0.60800259655E+03  0.00000000000E+00 0. -1.
<mgrwt>
<rscale>  2 0.24132519E+02</rscale>
<asrwt>0</asrwt>
<pdfrwt beam="1">  1       21 0.49668124E-04 0.24132519E+02</pdfrwt>
<pdfrwt beam="2">  1       21 0.36246923E+00 0.24132519E+02</pdfrwt>
<totfact> 0.64331264E+06</totfact>
</mgrwt>
</event>
<event>
 4    1  0.7841599E+004  0.2506093E+02  0.7546771E-02  0.1660128E+00
         21   -1    0    0  503  502  0.00000000000E+00  0.00000000000E+00  0.25448946866E+01  0.25448946866E+01  0.00000000000E+00 0. -1.
         21   -1    0    0  501  503 -0.00000000000E+00 -0.00000000000E+00 -0.24698039165E+03  0.24698039165E+03  0.00000000000E+00 0. -1.
          3    1    1    2  501    0 -0.11179464448E+02 -0.22429221548E+02 -0.12569656480E+03  0.12817049897E+03  0.00000000000E+00 0.  1.
         -3    1    1    2    0  502  0.11179464448E+02  0.22429221548E+02 -0.11873893216E+03  0.12135478736E+03  0.00000000000E+00 0. -1.
<mgrwt>
<rscale>  2 0.25060934E+02</rscale>
<asrwt>0</asrwt>
<pdfrwt beam="1">  1       21 0.39152229E-03 0.25060934E+02</pdfrwt>
<pdfrwt beam="2">  1       21 0.37996980E-01 0.25060934E+02</pdfrwt>
<totfact> 0.79477390E+07</totfact>
</mgrwt>
</event>
<event>
 4    1  0.7841599E+004  0.2379393E+02  0.7546771E-02  0.1678955E+00
         21   -1    0    0  501  502  0.00000000000E+00  0.00000000000E+00  0.15117351833E+01  0.15117351833E+01  0.00000000000E+00 0. -1.
         21   -1    0    0  502  503 -0.00000000000E+00 -0.00000000000E+00 -0.40493137232E+03  0.40493137232E+03  0.00000000000E+00 0. -1.
          2    1    1    2  501    0  0.97532253964E+01 -0.21703127430E+02 -0.14600279031E+03  0.14792892186E+03  0.00000000000E+00 0.  1.
         -2    1    1    2    0  503 -0.97532253964E+01  0.21703127430E+02 -0.25741684683E+03  0.25851418564E+03  0.00000000000E+00 0. -1.
<mgrwt>
<rscale>  2 0.23793931E+02</rscale>
<asrwt>0</asrwt>
<pdfrwt beam="1">  1       21 0.23257407E-03 0.23793931E+02</pdfrwt>
<pdfrwt beam="2">  1       21 0.62297288E-01 0.23793931E+02</pdfrwt>
<totfact> 0.64266904E+07</totfact>
</mgrwt>
</event>
<event>
 4    1  0.7841599E+004  0.2434094E+02  0.7546771E-02  0.1670653E+00
         21   -1    0    0  501  502  0.00000000000E+00  0.00000000000E+00  0.44449400664E+02  0.44449400664E+02  0.00000000000E+00 0. -1.
         21   -1    0    0  502  503 -0.00000000000E+00 -0.00000000000E+00 -0.15561505743E+02  0.15561505743E+02  0.00000000000E+00 0. -1.
          5    1    1    2  501    0 -0.20611362497E+02  0.12948084795E+02  0.25808114906E+02  0.35475906738E+02  0.00000000000E+00 0.  1.
         -5    1    1    2    0  503  0.20611362497E+02 -0.12948084795E+02  0.30797800141E+01  0.24534999669E+02  0.00000000000E+00 0. -1.
<mgrwt>
<rscale>  2 0.24340936E+02</rscale>
<asrwt>0</asrwt>
<pdfrwt beam="1">  1       21 0.68383693E-02 0.24340936E+02</pdfrwt>
<pdfrwt beam="2">  1       21 0.23940778E-02 0.24340936E+02</pdfrwt>
<totfact> 0.10001109E+08</totfact>
</mgrwt>
</event>
<event>
 4    1  0.7841599E+004  0.2162056E+02  0.7546771E-02  0.1714898E+00
         21   -1    0    0  501  502  0.00000000000E+00  0.00000000000E+00  0.17497690452E+03  0.17497690452E+03  0.00000000000E+00 0.  1.
         21   -1    0    0  502  503 -0.00000000000E+00 -0.00000000000E+00 -0.32833122877E+01  0.32833122877E+01  0.00000000000E+00 0.  1.
          5    1    1    2  501    0 -0.15407552735E+02 -0.15167594780E+02  0.12432208363E+03  0.12618807032E+03  0.00000000000E+00 0. -1.
         -5    1    1    2    0  503  0.15407552735E+02  0.15167594780E+02  0.47371508601E+02  0.52072146487E+02  0.00000000000E+00 0.  1.
<mgrwt>
<rscale>  2 0.21620560E+02</rscale>
<asrwt>0</asrwt>
<pdfrwt beam="1">  1       21 0.26919517E-01 0.21620560E+02</pdfrwt>
<pdfrwt beam="2">  1       21 0.50512510E-03 0.21620560E+02</pdfrwt>
<totfact> 0.98905584E+07</totfact>
</mgrwt>
</event>
<event>
 4    1  0.7841599E+004  0.2828369E+02  0.7546771E-02  0.1617874E+00
         21   -1    0    0  501  502  0.00000000000E+00  0.00000000000E+00  0.70913996215E+01  0.70913996215E+01  0.00000000000E+00 0. -1.
         21   -1    0    0  502  503 -0.00000000000E+00 -0.00000000000E+00 -0.11805125633E+03  0.11805125633E+03  0.00000000000E+00 0. -1.
          4    1    1    2  501    0 -0.15842750586E+02  0.23430205318E+02 -0.68666647690E+02  0.74263556152E+02  0.00000000000E+00 0.  1.
         -4    1    1    2    0  503  0.15842750586E+02 -0.23430205318E+02 -0.42293209023E+02  0.50879099804E+02  0.00000000000E+00 0. -1.
<mgrwt>
<rscale>  2 0.28283693E+02</rscale>
<asrwt>0</asrwt>
<pdfrwt beam="1">  1       21 0.10909845E-02 0.28283693E+02</pdfrwt>
<pdfrwt beam="2">  1       21 0.18161732E-01 0.28283693E+02</pdfrwt>
<totfact> 0.67227058E+07</totfact>
</mgrwt>
</event>
<event>
 4    1  0.7841599E+004  0.2149129E+02  0.7546771E-02  0.1717201E+00
         21   -1    0    0  503  502  0.00000000000E+00  0.00000000000E+00  0.94876047865E+02  0.94876047865E+02  0.00000000000E+00 0.  1.
         21   -1    0    0  501  503 -0.00000000000E+00 -0.00000000000E+00 -0.49375554432E+01  0.49375554432E+01  0.00000000000E+00 0.  1.
          1    1    1    2  501    0 -0.11648195501E+02  0.18060870337E+02  0.50884136274E+02  0.55236498985E+02  0.00000000000E+00 0.  1.
         -1    1    1    2    0  502  0.11648195501E+02 -0.18060870337E+02  0.39054356148E+02  0.44577104324E+02  0.00000000000E+00 0. -1.
<mgrwt>
<rscale>  2 0.21491289E+02</rscale>
<asrwt>0</asrwt>
<pdfrwt beam="1">  1       21 0.14596314E-01 0.21491289E+02</pdfrwt>
<pdfrwt beam="2">  1       21 0.75962398E-03 0.21491289E+02</pdfrwt>
<totfact> 0.15660310E+08</totfact>
</mgrwt>
</event>
<event>
 4    1  0.7841599E+004  0.3489875E+02  0.7546771E-02  0.1549502E+00
         21   -1    0    0  501  502  0.00000000000E+00  0.00000000000E+00  0.86540329835E+03  0.86540329835E+03  0.00000000000E+00 0. -1.
         21   -1    0    0  502  503 -0.00000000000E+00 -0.00000000000E+00 -0.15606022870E+01  0.15606022870E+01  0.00000000000E+00 0. -1.
          2    1    1    2  501    0 -0.34847857360E+02 -0.18839816645E+01  0.29607970149E+03  0.29812935478E+03  0.00000000000E+00 0. -1.
         -2    1    1    2    0  503  0.34847857360E+02  0.18839816645E+01  0.56776299457E+03  0.56883454585E+03  0.00000000000E+00 0.  1.
<mgrwt>
<rscale>  2 0.34898747E+02</rscale>
<asrwt>0</asrwt>
<pdfrwt beam="1">  1       21 0.13313859E+00 0.34898747E+02</pdfrwt>
<pdfrwt beam="2">  1       21 0.24009335E-03 0.34898747E+02</pdfrwt>
<totfact> 0.12573088E+07</totfact>
</mgrwt>
</event>
<event>
 4    1  0.7841599E+004  0.2415180E+02  0.7546771E-02  0.1673493E+00
         21   -1    0    0  503  502  0.00000000000E+00  0.00000000000E+00  0.15012967075E+01  0.15012967075E+01  0.00000000000E+00 0.  1.
         21   -1    0    0  501  503 -0.00000000000E+00 -0.00000000000E+00 -0.40351338241E+03  0.40351338241E+03  0.00000000000E+00 0.  1.
          3    1    1    2  501    0 -0.19419311874E+02  0.14359649906E+02 -0.24001966026E+03  0.24123172787E+03  0.00000000000E+00 0. -1.
         -3    1    1    2    0  502  0.19419311874E+02 -0.14359649906E+02 -0.16199242544E+03  0.16378295125E+03  0.00000000000E+00 0.  1.
<mgrwt>
<rscale>  2 0.24151795E+02</rscale>
<asrwt>0</asrwt>
<pdfrwt beam="1">  1       21 0.23096882E-03 0.24151795E+02</pdfrwt>
<pdfrwt beam="2">  1       21 0.62078957E-01 0.24151795E+02</pdfrwt>
<totfact> 0.65607110E+07</totfact>
</mgrwt>
</event>
<event>
 4    1  0.7841599E+004  0.2043764E+02  0.7546771E-02  0.1736763E+00
         21   -1    0    0  501  502  0.00000000000E+00  0.00000000000E+00  0.10131852581E+03  0.10131852581E+03  0.00000000000E+00 0. -1.
         21   -1    0    0  502  503 -0.00000000000E+00 -0.00000000000E+00 -0.42486866325E+01  0.42486866325E+01  0.00000000000E+00 0. -1.
          1    1    1    2  501    0  0.18346514706E+02 -0.90056919015E+01  0.57627424723E+02  0.61144232505E+02  0.00000000000E+00 0.  1.
         -1    1    1    2    0  503 -0.18346514706E+02  0.90056919015E+01  0.39442414453E+02  0.44422979936E+02  0.00000000000E+00 0. -1.
<mgrwt>
<rscale>  2 0.20437639E+02</rscale>
<asrwt>0</asrwt>
<pdfrwt beam="1">  1       21 0.15587464E-01 0.20437639E+02</pdfrwt>
<pdfrwt beam="2">  1       21 0.65364417E-03 0.20437639E+02</pdfrwt>
<totfact> 0.17239156E+08</totfact>
</mgrwt>
</event>
<event>
 4    1  0.7841599E+004  0.2425833E+02  0.7546771E-02  0.1671889E+00
         21   -1    0    0  501  502  0.00000000000E+00  0.00000000000E+00  0.32136353571E+02  0.32136353571E+02  0.00000000000E+00 0. -1.
         21   -1    0    0  502  503 -0.00000000000E+00 -0.00000000000E+00 -0.18379228024E+02  0.18379228024E+02  0.00000000000E+00 0. -1.
          2    1    1    2  501    0  0.13876902544E+02  0.19897193001E+02  0.53459629373E+01  0.24840411294E+02  0.00000000000E+00 0.  1.
         -2    1    1    2    0  503 -0.13876902544E+02 -0.19897193001E+02  0.84111626095E+01  0.25675170301E+02  0.00000000000E+00 0. -1.
<mgrwt>
<rscale>  2 0.24258333E+02</rscale>
<asrwt>0</asrwt>
<pdfrwt beam="1">  1       21 0.49440544E-02 0.24258333E+02</pdfrwt>
<pdfrwt beam="2">  1       21 0.28275735E-02 0.24258333E+02</pdfrwt>
<totfact> 0.12998409E+08</totfact>
</mgrwt>
</event>
<event>
 4    1  0.7841599E+004  0.2200986E+02  0.7546771E-02  0.1708082E+00
         21   -1    0    0  503  502  0.00000000000E+00  0.00000000000E+00  0.43427092913E+02  0.43427092913E+02  0.00000000000E+00 0.  1.
         21   -1    0    0  501  503 -0.00000000000E+00 -0.00000000000E+00 -0.12972539953E+02  0.12972539953E+02  0.00000000000E+00 0.  1.
          4    1    1    2  501    0 -0.33400785911E+01 -0.21754948028E+02  0.46721627944E+01  0.22500288751E+02  0.00000000000E+00 0. -1.
         -4    1    1    2    0  502  0.33400785911E+01  0.21754948028E+02  0.25782390166E+02  0.33899344114E+02  0.00000000000E+00 0.  1.
<mgrwt>
<rscale>  2 0.22009859E+02</rscale>
<asrwt>0</asrwt>
<pdfrwt beam="1">  1       21 0.66810911E-02 0.22009859E+02</pdfrwt>
<pdfrwt beam="2">  1       21 0.19957754E-02 0.22009859E+02</pdfrwt>
<totfact> 0.13342927E+08</totfact>
</mgrwt>
</event>
<event>
 4    1  0.7841599E+004  0.2867672E+02  0.7546771E-02  0.1613194E+00
         21   -1    0    0  503  502  0.00000000000E+00  0.00000000000E+00  0.12209914637E+03  0.12209914637E+03  0.00000000000E+00 0.  1.
         21   -1    0    0  501  503 -0.00000000000E+00 -0.00000000000E+00 -0.68604518502E+01  0.68604518502E+01  0.00000000000E+00 0.  1.
          2    1    1    2  501    0 -0.28328455535E+02 -0.44556882947E+01  0.66333949147E+02  0.72267194221E+02  0.00000000000E+00 0.  1.
         -2    1    1    2    0  502  0.28328455535E+02  0.44556882947E+01  0.48904745370E+02  0.56692403996E+02  0.00000000000E+00 0. -1.
<mgrwt>
<rscale>  2 0.28676725E+02</rscale>
<asrwt>0</asrwt>
<pdfrwt beam="1">  1       21 0.18784483E-01 0.28676725E+02</pdfrwt>
<pdfrwt beam="2">  1       21 0.10554542E-02 0.28676725E+02</pdfrwt>
<totfact> 0.66861557E+07</totfact>
</mgrwt>
</event>
<event>
 4    1  0.7841599E+004  0.2737544E+02  0.7546771E-02  0.1629054E+00
         21   -1    0    0  501  502  0.00000000000E+00  0.00000000000E+00  0.70442348758E+01  0.70442348758E+01  0.00000000000E+00 0.  1.
         21   -1    0    0  502  503 -0.00000000000E+00 -0.00000000000E+00 -0.10638735412E+03  0.10638735412E+03  0.00000000000E+00 0.  1.
          4    1    1    2  501    0  0.17308341890E+02 -0.21209343047E+02 -0.49566352377E+02  0.56623654239E+02  0.00000000000E+00 0.  1.
         -4    1    1    2    0  503 -0.17308341890E+02  0.21209343047E+02 -0.49776766863E+02  0.56807934752E+02  0.00000000000E+00 0. -1.
<mgrwt>
<rscale>  2 0.27375444E+02</rscale>
<asrwt>0</asrwt>
<pdfrwt beam="1">  1       21 0.10837286E-02 0.27375444E+02</pdfrwt>
<pdfrwt beam="2">  1       21 0.16367284E-01 0.27375444E+02</pdfrwt>
<totfact> 0.80708658E+07</totfact>
</mgrwt>
</event>
<event>
 4    1  0.7841599E+004  0.4970792E+02  0.7546771E-02  0.1446923E+00
         21   -1    0    0  503  502  0.00000000000E+00  0.00000000000E+00  0.88299946994E+03  0.88299946994E+03  0.00000000000E+00 0. -1.
         21   -1    0    0  501  503 -0.00000000000E+00 -0.00000000000E+00 -0.28576415581E+01  0.28576415581E+01  0.00000000000E+00 0. -1.
          1    1    1    2  501    0 -0.39733516157E+02 -0.29868456013E+02  0.37623075061E+03  0.37950026967E+03  0.00000000000E+00 0. -1.
         -1    1    1    2    0  502  0.39733516157E+02  0.29868456013E+02  0.50391107778E+03  0.50635684184E+03  0.00000000000E+00 0.  1.
<mgrwt>
<rscale>  2 0.49707917E+02</rscale>
<asrwt>0</asrwt>
<pdfrwt beam="1">  1       21 0.13584585E+00 0.49707917E+02</pdfrwt>
<pdfrwt beam="2">  1       21 0.43963787E-03 0.49707917E+02</pdfrwt>
<totfact> 0.50367141E+06</totfact>
</mgrwt>
</event>
<event>
 4    1  0.7841599E+004  0.3502776E+02  0.7546771E-02  0.1548354E+00
         21   -1    0    0  503  502  0.00000000000E+00  0.00000000000E+00  0.65527180704E+02  0.65527180704E+02  0.00000000000E+00 0.  1.
         21   -1    0    0  501  503 -0.00000000000E+00 -0.00000000000E+00 -0.19050920117E+02  0.19050920117E+02  0.00000000000E+00 0.  1.
          5    1    1    2  501    0 -0.34985844270E+02  0.17130920773E+01  0.28776200193E+02  0.45332258727E+02  0.00000000000E+00 0.  1.
         -5    1    1    2    0  502  0.34985844270E+02 -0.17130920773E+01  0.17700060394E+02  0.39245842095E+02  0.00000000000E+00 0. -1.
<mgrwt>
<rscale>  2 0.35027760E+02</rscale>
<asrwt>0</asrwt>
<pdfrwt beam="1">  1       21 0.10081105E-01 0.35027760E+02</pdfrwt>
<pdfrwt beam="2">  1       21 0.29309108E-02 0.35027760E+02</pdfrwt>
<totfact> 0.41834395E+07</totfact>
</mgrwt>
</event>
<event>
 4    1  0.7841599E+004  0.2232122E+02  0.7546771E-02  0.1702755E+00
         21   -1    0    0  503  502  0.00000000000E+00  0.00000000000E+00  0.44455267064E+03  0.44455267064E+03  0.00000000000E+00 0.  1.
         21   -1    0    0  501  503 -0.00000000000E+00 -0.00000000000E+00 -0.11285848082E+01  0.11285848082E+01  0.00000000000E+00 0.  1.
          1    1    1    2  501    0 -0.21273556050E+02  0.67581631056E+01  0.24026689959E+03  0.24130151262E+03  0.00000000000E+00 0. -1.
         -1    1    1    2    0  502  0.21273556050E+02 -0.67581631056E+01  0.20315718624E+03  0.20437974283E+03  0.00000000000E+00 0.  1.
<mgrwt>
<rscale>  2 0.22321222E+02</rscale>
<asrwt>0</asrwt>
<pdfrwt beam="1">  1       21 0.68392579E-01 0.22321222E+02</pdfrwt>
<pdfrwt beam="2">  1       21 0.17362879E-03 0.22321222E+02</pdfrwt>
<totfact> 0.79877618E+07</totfact>
</mgrwt>
</event>
<event>
 4    1  0.7841599E+004  0.2183913E+02  0.7546771E-02  0.1711049E+00
         21   -1    0    0  503  502  0.00000000000E+00  0.00000000000E+00  0.69209343960E+01  0.69209343960E+01  0.00000000000E+00 0. -1.
         21   -1    0    0  501  503 -0.00000000000E+00 -0.00000000000E+00 -0.69260661239E+02  0.69260661239E+02  0.00000000000E+00 0. -1.
          5    1    1    2  501    0 -0.19280706473E+02 -0.10256804906E+02 -0.33865570577E+02  0.40296706558E+02  0.00000000000E+00 0. -1.
         -5    1    1    2    0  502  0.19280706473E+02  0.10256804906E+02 -0.28474156267E+02  0.35884889077E+02  0.00000000000E+00 0.  1.
<mgrwt>
<rscale>  2 0.21839132E+02</rscale>
<asrwt>0</asrwt>
<pdfrwt beam="1">  1       21 0.10647591E-02 0.21839132E+02</pdfrwt>
<pdfrwt beam="2">  1       21 0.10655487E-01 0.21839132E+02</pdfrwt>
<totfact> 0.16095144E+08</totfact>
</mgrwt>
</event>
<event>
 4    1  0.7841599E+004  0.3370059E+02  0.7546771E-02  0.1560452E+00
         21   -1    0    0  501  502  0.00000000000E+00  0.00000000000E+00  0.48455435132E+02  0.48455435132E+02  0.00000000000E+00 0. -1.
         21   -1    0    0  502  503 -0.00000000000E+00 -0.00000000000E+00 -0.34966330931E+02  0.34966330931E+02  0.00000000000E+00 0. -1.
          1    1    1    2  501    0  0.17294542462E+02  0.28924529257E+02  0.30693998487E+02  0.45583452424E+02  0.00000000000E+00 0. -1.
         -1    1    1    2    0  503 -0.17294542462E+02 -0.28924529257E+02 -0.17204894286E+02  0.37838313640E+02  0.00000000000E+00 0.  1.
<mgrwt>
<rscale>  2 0.33700587E+02</rscale>
<asrwt>0</asrwt>
<pdfrwt beam="1">  1       21 0.74546824E-02 0.33700587E+02</pdfrwt>
<pdfrwt beam="2">  1       21 0.53794355E-02 0.33700587E+02</pdfrwt>
<totfact> 0.25986803E+07</totfact>
</mgrwt>
</event>
<event>
 4    1  0.7841599E+004  0.4603997E+02  0.7546771E-02  0.1467952E+00
         21   -1    0    0  501  502  0.00000000000E+00  0.00000000000E+00  0.12592244450E+03  0.12592244450E+03  0.00000000000E+00 0. -1.
         21   -1    0    0  502  503 -0.00000000000E+00 -0.00000000000E+00 -0.18931926382E+02  0.18931926382E+02  0.00000000000E+00 0. -1.
          4    1    1    2  501    0 -0.24081512590E+02  0.39239769284E+02  0.29380592909E+02  0.54615913265E+02  0.00000000000E+00 0.  1.
         -4    1    1    2    0  503  0.24081512590E+02 -0.39239769284E+02  0.77609925205E+02  0.90238457613E+02  0.00000000000E+00 0. -1.
<mgrwt>
<rscale>  2 0.46039969E+02</rscale>
<asrwt>0</asrwt>
<pdfrwt beam="1">  1       21 0.19372683E-01 0.46039969E+02</pdfrwt>
<pdfrwt beam="2">  1       21 0.29126041E-02 0.46039969E+02</pdfrwt>
<totfact> 0.14262530E+07</totfact>
</mgrwt>
</event>
<event>
 4    1  0.7841599E+004  0.2780762E+02  0.7546771E-02  0.1623669E+00
         21   -1    0    0  501  502  0.00000000000E+00  0.00000000000E+00  0.62146187754E+02  0.62146187754E+02  0.00000000000E+00 0.  1.
         21   -1    0    0  502  503 -0.00000000000E+00 -0.00000000000E+00 -0.14355435892E+02  0.14355435892E+02  0.00000000000E+00 0.  1.
          4    1    1    2  501    0  0.10280502130E+02 -0.25837476633E+02  0.99328356314E+01  0.29528378664E+02  0.00000000000E+00 0.  1.
         -4    1    1    2    0  503 -0.10280502130E+02  0.25837476633E+02  0.37857916230E+02  0.46973244982E+02  0.00000000000E+00 0. -1.
<mgrwt>
<rscale>  2 0.27807623E+02</rscale>
<asrwt>0</asrwt>
<pdfrwt beam="1">  1       21 0.95609518E-02 0.27807623E+02</pdfrwt>
<pdfrwt beam="2">  1       21 0.22085286E-02 0.27807623E+02</pdfrwt>
<totfact> 0.67648367E+07</totfact>
</mgrwt>
</event>
<event>
 4    1  0.7841599E+004  0.3721382E+02  0.7546771E-02  0.1529776E+00
         21   -1    0    0  503  502  0.00000000000E+00  0.00000000000E+00  0.53332040543E+01  0.53332040543E+01  0.00000000000E+00 0. -1.
         21   -1    0    0  501  503 -0.00000000000E+00 -0.00000000000E+00 -0.26059872841E+03  0.26059872841E+03  0.00000000000E+00 0. -1.
          1    1    1    2  501    0  0.34952646913E+02  0.12774235323E+02 -0.13557412679E+03  0.14058880635E+03  0.00000000000E+00 0.  1.
         -1    1    1    2    0  502 -0.34952646913E+02 -0.12774235323E+02 -0.11969139756E+03  0.12534312612E+03  0.00000000000E+00 0. -1.
<mgrwt>
<rscale>  2 0.37213823E+02</rscale>
<asrwt>0</asrwt>
<pdfrwt beam="1">  1       21 0.82049269E-03 0.37213823E+02</pdfrwt>
<pdfrwt beam="2">  1       21 0.40092124E-01 0.37213823E+02</pdfrwt>
<totfact> 0.25745873E+07</totfact>
</mgrwt>
</event>
<event>
 4    1  0.7841599E+004  0.3253920E+02  0.7546771E-02  0.1571606E+00
         21   -1    0    0  501  502  0.00000000000E+00  0.00000000000E+00  0.39250715483E+02  0.39250715483E+02  0.00000000000E+00 0.  1.
         21   -1    0    0  502  503 -0.00000000000E+00 -0.00000000000E+00 -0.27605413442E+02  0.27605413442E+02  0.00000000000E+00 0.  1.
          5    1    1    2  501    0 -0.21502765500E+02 -0.24421924494E+02  0.10873075847E+02  0.34307770235E+02  0.00000000000E+00 0. -1.
         -5    1    1    2    0  503  0.21502765500E+02  0.24421924494E+02  0.77222619354E+00  0.32548358690E+02  0.00000000000E+00 0.  1.
<mgrwt>
<rscale>  2 0.32539197E+02</rscale>
<asrwt>0</asrwt>
<pdfrwt beam="1">  1       21 0.60385717E-02 0.32539197E+02</pdfrwt>
<pdfrwt beam="2">  1       21 0.42469867E-02 0.32539197E+02</pdfrwt>
<totfact> 0.53323549E+07</totfact>
</mgrwt>
</event>
<event>
 4    1  0.7841599E+004  0.2016103E+02  0.7546771E-02  0.1742145E+00
         21   -1    0    0  501  502  0.00000000000E+00  0.00000000000E+00  0.70246299212E+00  0.70246299212E+00  0.00000000000E+00 0. -1.
         21   -1    0    0  502  503 -0.00000000000E+00 -0.00000000000E+00 -0.57900238332E+03  0.57900238332E+03  0.00000000000E+00 0. -1.
          4    1    1    2  501    0  0.18911533698E+02  0.69872023038E+01 -0.29648747058E+03  0.29717215097E+03  0.00000000000E+00 0.  1.
         -4    1    1    2    0  503 -0.18911533698E+02 -0.69872023038E+01 -0.28181244975E+03  0.28253269534E+03  0.00000000000E+00 0. -1.
<mgrwt>
<rscale>  2 0.20161029E+02</rscale>
<asrwt>0</asrwt>
<pdfrwt beam="1">  1       21 0.10807094E-03 0.20161029E+02</pdfrwt>
<pdfrwt beam="2">  1       21 0.89077528E-01 0.20161029E+02</pdfrwt>
<totfact> 0.88424143E+07</totfact>
</mgrwt>
</event>
<event>
 4    1  0.7841599E+004  0.2690547E+02  0.7546771E-02  0.1635051E+00
         21   -1    0    0  503  502  0.00000000000E+00  0.00000000000E+00  0.63730595679E+03  0.63730595679E+03  0.00000000000E+00 0.  1.
         21   -1    0    0  501  503 -0.00000000000E+00 -0.00000000000E+00 -0.12705602076E+01  0.12705602076E+01  0.00000000000E+00 0.  1.
          1    1    1    2  501    0 -0.14476921777E+02  0.22678692011E+02  0.21406540818E+03  0.21574963109E+03  0.00000000000E+00 0. -1.
         -1    1    1    2    0  502  0.14476921777E+02 -0.22678692011E+02  0.42196998840E+03  0.42282688591E+03  0.00000000000E+00 0.  1.
<mgrwt>
<rscale>  2 0.26905470E+02</rscale>
<asrwt>0</asrwt>
<pdfrwt beam="1">  1       21 0.98046815E-01 0.26905470E+02</pdfrwt>
<pdfrwt beam="2">  1       21 0.19547131E-03 0.26905470E+02</pdfrwt>
<totfact> 0.32740675E+07</totfact>
</mgrwt>
</event>
<event>
 4    1  0.7841599E+004  0.2173644E+02  0.7546771E-02  0.1712850E+00
         21   -1    0    0  501  502  0.00000000000E+00  0.00000000000E+00  0.11116061082E+02  0.11116061082E+02  0.00000000000E+00 0.  1.
         21   -1    0    0  502  503 -0.00000000000E+00 -0.00000000000E+00 -0.44720580043E+02  0.44720580043E+02  0.00000000000E+00 0.  1.
          5    1    1    2  501    0 -0.31847604014E+01 -0.21501861457E+02 -0.23018321117E+02  0.31659372261E+02  0.00000000000E+00 0. -1.
         -5    1    1    2    0  503  0.31847604014E+01  0.21501861457E+02 -0.10586197844E+02  0.24177268864E+02  0.00000000000E+00 0.  1.
<mgrwt>
<rscale>  2 0.21736438E+02</rscale>
<asrwt>0</asrwt>
<pdfrwt beam="1">  1       21 0.17101633E-02 0.21736438E+02</pdfrwt>
<pdfrwt beam="2">  1       21 0.68800892E-02 0.21736438E+02</pdfrwt>
<totfact> 0.16050032E+08</totfact>
</mgrwt>
</event>
<event>
 4    1  0.7841599E+004  0.3044627E+02  0.7546771E-02  0.1593207E+00
         21   -1    0    0  501  502  0.00000000000E+00  0.00000000000E+00  0.26022442347E+02  0.26022442347E+02  0.00000000000E+00 0. -1.
         21   -1    0    0  502  503 -0.00000000000E+00 -0.00000000000E+00 -0.42294740759E+02  0.42294740759E+02  0.00000000000E+00 0. -1.
          2    1    1    2  501    0 -0.59012968724E+01  0.29868880619E+02 -0.21703780394E+02  0.37390231580E+02  0.00000000000E+00 0.  1.
         -2    1    1    2    0  503  0.59012968724E+01 -0.29868880619E+02  0.54314819818E+01  0.30926951526E+02  0.00000000000E+00 0. -1.
<mgrwt>
<rscale>  2 0.30446270E+02</rscale>
<asrwt>0</asrwt>
<pdfrwt beam="1">  1       21 0.40034527E-02 0.30446270E+02</pdfrwt>
<pdfrwt beam="2">  1       21 0.65068832E-02 0.30446270E+02</pdfrwt>
<totfact> 0.51139142E+07</totfact>
</mgrwt>
</event>
<event>
 4    1  0.7841599E+004  0.2993542E+02  0.7546771E-02  0.1598804E+00
         21   -1    0    0  503  502  0.00000000000E+00  0.00000000000E+00  0.25565975321E+01  0.25565975321E+01  0.00000000000E+00 0. -1.
         21   -1    0    0  501  503 -0.00000000000E+00 -0.00000000000E+00 -0.38919934663E+03  0.38919934663E+03  0.00000000000E+00 0. -1.
          1    1    1    2  501    0 -0.16736530466E+02 -0.24819707488E+02 -0.13156818538E+03  0.13493078499E+03  0.00000000000E+00 0. -1.
         -1    1    1    2    0  502  0.16736530466E+02  0.24819707488E+02 -0.25507456372E+03  0.25682515918E+03  0.00000000000E+00 0.  1.
<mgrwt>
<rscale>  2 0.29935419E+02</rscale>
<asrwt>0</asrwt>
<pdfrwt beam="1">  1       21 0.39332280E-03 0.29935419E+02</pdfrwt>
<pdfrwt beam="2">  1       21 0.59876807E-01 0.29935419E+02</pdfrwt>
<totfact> 0.33841002E+07</totfact>
</mgrwt>
</event>
<event>
 4    1  0.7841599E+004  0.2329068E+02  0.7546771E-02  0.1686841E+00
         21   -1    0    0  501  502  0.00000000000E+00  0.00000000000E+00  0.24950836979E+02  0.24950836979E+02  0.00000000000E+00 0. -1.
         21   -1    0    0  502  503 -0.00000000000E+00 -0.00000000000E+00 -0.35118858197E+02  0.35118858197E+02  0.00000000000E+00 0. -1.
          4    1    1    2  501    0 -0.82981905945E+01  0.21762259059E+02  0.13453384308E+02  0.26897015370E+02  0.00000000000E+00 0.  1.
         -4    1    1    2    0  503  0.82981905945E+01 -0.21762259059E+02 -0.23621405526E+02  0.33172679806E+02  0.00000000000E+00 0. -1.
<mgrwt>
<rscale>  2 0.23290682E+02</rscale>
<asrwt>0</asrwt>
<pdfrwt beam="1">  1       21 0.38385903E-02 0.23290682E+02</pdfrwt>
<pdfrwt beam="2">  1       21 0.54029012E-02 0.23290682E+02</pdfrwt>
<totfact> 0.69108682E+07</totfact>
</mgrwt>
</event>
<event>
 4    1  0.7841599E+004  0.2434673E+02  0.7546771E-02  0.1670566E+00
         21   -1    0    0  503  502  0.00000000000E+00  0.00000000000E+00  0.11355113233E+01  0.11355113233E+01  0.00000000000E+00 0.  1.
         21   -1    0    0  501  503 -0.00000000000E+00 -0.00000000000E+00 -0.55831540781E+03  0.55831540781E+03  0.00000000000E+00 0.  1.
          5    1    1    2  501    0 -0.64839745612E+01  0.23467448027E+02 -0.20727180973E+03  0.20869682832E+03  0.00000000000E+00 0. -1.
         -5    1    1    2    0  502  0.64839745612E+01 -0.23467448027E+02 -0.34990808676E+03  0.35075409081E+03  0.00000000000E+00 0.  1.
<mgrwt>
<rscale>  2 0.24346726E+02</rscale>
<asrwt>0</asrwt>
<pdfrwt beam="1">  1       21 0.17469419E-03 0.24346726E+02</pdfrwt>
<pdfrwt beam="2">  1       21 0.85894611E-01 0.24346726E+02</pdfrwt>
<totfact> 0.50254109E+07</totfact>
</mgrwt>
</event>
<event>
 4    1  0.7841599E+004  0.2013997E+02  0.7546771E-02  0.1742559E+00
         21   -1    0    0  503  502  0.00000000000E+00  0.00000000000E+00  0.80375977779E+01  0.80375977779E+01  0.00000000000E+00 0. -1.
         21   -1    0    0  501  503 -0.00000000000E+00 -0.00000000000E+00 -0.57678666750E+02  0.57678666750E+02  0.00000000000E+00 0. -1.
          1    1    1    2  501    0  0.19646052970E+02  0.44329357511E+01 -0.36440631826E+02  0.41635777458E+02  0.00000000000E+00 0.  1.
         -1    1    1    2    0  502 -0.19646052970E+02 -0.44329357511E+01 -0.13200437146E+02  0.24080487070E+02  0.00000000000E+00 0. -1.
<mgrwt>
<rscale>  2 0.20139968E+02</rscale>
<asrwt>0</asrwt>
<pdfrwt beam="1">  1       21 0.12365535E-02 0.20139968E+02</pdfrwt>
<pdfrwt beam="2">  1       21 0.88736412E-02 0.20139968E+02</pdfrwt>
<totfact> 0.16938282E+08</totfact>
</mgrwt>
</event>
<event>
 4    1  0.7841599E+004  0.2121799E+02  0.7546771E-02  0.1722138E+00
         21   -1    0    0  503  502  0.00000000000E+00  0.00000000000E+00  0.10279253516E+01  0.10279253516E+01  0.00000000000E+00 0. -1.
         21   -1    0    0  501  503 -0.00000000000E+00 -0.00000000000E+00 -0.54428621887E+03  0.54428621887E+03  0.00000000000E+00 0. -1.
          2    1    1    2  501    0  0.10737529662E+02  0.18300512343E+02 -0.39213197433E+03  0.39270560040E+03  0.00000000000E+00 0. -1.
         -2    1    1    2    0  502 -0.10737529662E+02 -0.18300512343E+02 -0.15112631919E+03  0.15260854382E+03  0.00000000000E+00 0.  1.
<mgrwt>
<rscale>  2 0.21217995E+02</rscale>
<asrwt>0</asrwt>
<pdfrwt beam="1">  1       21 0.15814240E-03 0.21217995E+02</pdfrwt>
<pdfrwt beam="2">  1       21 0.83736322E-01 0.21217995E+02</pdfrwt>
<totfact> 0.59308867E+07</totfact>
</mgrwt>
</event>
<event>
 4    1  0.7841599E+004  0.5492784E+02  0.7546771E-02  0.1420440E+00
         21   -1    0    0  501  502  0.00000000000E+00  0.00000000000E+00  0.44521110572E+02  0.44521110572E+02  0.00000000000E+00 0.  1.
         21   -1    0    0  502  503 -0.00000000000E+00 -0.00000000000E+00 -0.67853901384E+02  0.67853901384E+02  0.00000000000E+00 0.  1.
          5    1    1    2  501    0  0.24416658213E+02 -0.49202581004E+02 -0.13675861234E+02  0.56604737932E+02  0.00000000000E+00 0.  1.
         -5    1    1    2    0  503 -0.24416658213E+02  0.49202581004E+02 -0.96569295783E+01  0.55770274024E+02  0.00000000000E+00 0. -1.
<mgrwt>
<rscale>  2 0.54927836E+02</rscale>
<asrwt>0</asrwt>
<pdfrwt beam="1">  1       21 0.68494017E-02 0.54927836E+02</pdfrwt>
<pdfrwt beam="2">  1       21 0.10439062E-01 0.54927836E+02</pdfrwt>
<totfact> 0.10669672E+07</totfact>
</mgrwt>
</event>
<event>
 4    1  0.7841599E+004  0.2033752E+02  0.7546771E-02  0.1738698E+00
         21   -1    0    0  503  502  0.00000000000E+00  0.00000000000E+00  0.48541628781E+03  0.48541628781E+03  0.00000000000E+00 0.  1.
         21   -1    0    0  501  503 -0.00000000000E+00 -0.00000000000E+00 -0.85245139966E+00  0.85245139966E+00  0.00000000000E+00 0.  1.
          4    1    1    2  501    0  0.17087350315E+02 -0.11028927505E+02  0.24733893663E+03  0.24817365766E+03  0.00000000000E+00 0.  1.
         -4    1    1    2    0  502 -0.17087350315E+02  0.11028927505E+02  0.23722489978E+03  0.23809508155E+03  0.00000000000E+00 0. -1.
<mgrwt>
<rscale>  2 0.20337522E+02</rscale>
<asrwt>0</asrwt>
<pdfrwt beam="1">  1       21 0.74679208E-01 0.20337522E+02</pdfrwt>
<pdfrwt beam="2">  1       21 0.13114676E-03 0.20337522E+02</pdfrwt>
<totfact> 0.97329801E+07</totfact>
</mgrwt>
</event>
<event>
 4    1  0.7841599E+004  0.2321599E+02  0.7546771E-02  0.1688033E+00
         21   -1    0    0  503  502  0.00000000000E+00  0.00000000000E+00  0.36025521747E+01  0.36025521747E+01  0.00000000000E+00 0. -1.
         21   -1    0    0  501  503 -0.00000000000E+00 -0.00000000000E+00 -0.15644053641E+03  0.15644053641E+03  0.00000000000E+00 0. -1.
          1    1    1    2  501    0  0.18394951438E+02 -0.14163615299E+02 -0.93138396512E+02  0.95988244809E+02  0.00000000000E+00 0. -1.
         -1    1    1    2    0  502 -0.18394951438E+02  0.14163615299E+02 -0.59699587721E+02  0.64054843773E+02  0.00000000000E+00 0.  1.
<mgrwt>
<rscale>  2 0.23215991E+02</rscale>
<asrwt>0</asrwt>
<pdfrwt beam="1">  1       21 0.55423893E-03 0.23215991E+02</pdfrwt>
<pdfrwt beam="2">  1       21 0.24067769E-01 0.23215991E+02</pdfrwt>
<totfact> 0.10740820E+08</totfact>
</mgrwt>
</event>
<event>
 4    1  0.7841599E+004  0.2280173E+02  0.7546771E-02  0.1694744E+00
         21   -1    0    0  503  502  0.00000000000E+00  0.00000000000E+00  0.10172679595E+03  0.10172679595E+03  0.00000000000E+00 0.  1.
         21   -1    0    0  501  503 -0.00000000000E+00 -0.00000000000E+00 -0.52870924962E+01  0.52870924962E+01  0.00000000000E+00 0.  1.
          4    1    1    2  501    0 -0.22654370989E+02  0.25880928795E+01  0.38452972888E+02  0.44705143704E+02  0.00000000000E+00 0. -1.
         -4    1    1    2    0  502  0.22654370989E+02 -0.25880928795E+01  0.57986730567E+02  0.62308744744E+02  0.00000000000E+00 0.  1.
<mgrwt>
<rscale>  2 0.22801727E+02</rscale>
<asrwt>0</asrwt>
<pdfrwt beam="1">  1       21 0.15650275E-01 0.22801727E+02</pdfrwt>
<pdfrwt beam="2">  1       21 0.81339892E-03 0.22801727E+02</pdfrwt>
<totfact> 0.12782856E+08</totfact>
</mgrwt>
</event>
<event>
 4    1  0.7841599E+004  0.2046537E+02  0.7546771E-02  0.1736229E+00
         21   -1    0    0  503  502  0.00000000000E+00  0.00000000000E+00  0.37426265922E+01  0.37426265922E+01  0.00000000000E+00 0.  1.
         21   -1    0    0  501  503 -0.00000000000E+00 -0.00000000000E+00 -0.11388714509E+03  0.11388714509E+03  0.00000000000E+00 0.  1.
          5    1    1    2  501    0  0.20463203275E+02  0.29757260615E+00 -0.62824874502E+02  0.66074171156E+02  0.00000000000E+00 0. -1.
         -5    1    1    2    0  502 -0.20463203275E+02 -0.29757260615E+00 -0.47319643994E+02  0.51555600524E+02  0.00000000000E+00 0.  1.
<mgrwt>
<rscale>  2 0.20465367E+02</rscale>
<asrwt>0</asrwt>
<pdfrwt beam="1">  1       21 0.57578884E-03 0.20465367E+02</pdfrwt>
<pdfrwt beam="2">  1       21 0.17521095E-01 0.20465367E+02</pdfrwt>
<totfact> 0.17033727E+08</totfact>
</mgrwt>
</event>
<event>
 4    1  0.7841599E+004  0.2910635E+02  0.7546771E-02  0.1608182E+00
         21   -1    0    0  503  502  0.00000000000E+00  0.00000000000E+00  0.32290815528E+01  0.32290815528E+01  0.00000000000E+00 0.  1.
         21   -1    0    0  501  503 -0.00000000000E+00 -0.00000000000E+00 -0.32504743706E+03  0.32504743706E+03  0.00000000000E+00 0.  1.
          3    1    1    2  501    0  0.21308648701E+02  0.19827284744E+02 -0.88826822735E+02  0.93473975881E+02  0.00000000000E+00 0.  1.
         -3    1    1    2    0  502 -0.21308648701E+02 -0.19827284744E+02 -0.23299153277E+03  0.23480254273E+03  0.00000000000E+00 0. -1.
<mgrwt>
<rscale>  2 0.29106352E+02</rscale>
<asrwt>0</asrwt>
<pdfrwt beam="1">  1       21 0.49678169E-03 0.29106352E+02</pdfrwt>
<pdfrwt beam="2">  1       21 0.50007307E-01 0.29106352E+02</pdfrwt>
<totfact> 0.34084465E+07</totfact>
</mgrwt>
</event>
<event>
 4    1  0.7841599E+004  0.2249814E+02  0.7546771E-02  0.1699777E+00
         21   -1    0    0  503  502  0.00000000000E+00  0.00000000000E+00  0.12350176330E+02  0.12350176330E+02  0.00000000000E+00 0.  1.
         21   -1    0    0  501  503 -0.00000000000E+00 -0.00000000000E+00 -0.41874888840E+02  0.41874888840E+02  0.00000000000E+00 0.  1.
          4    1    1    2  501    0 -0.11923233556E+02  0.19078860341E+02 -0.10808953232E+02  0.24959965551E+02  0.00000000000E+00 0. -1.
         -4    1    1    2    0  502  0.11923233556E+02 -0.19078860341E+02 -0.18715759278E+02  0.29265099619E+02  0.00000000000E+00 0.  1.
<mgrwt>
<rscale>  2 0.22498142E+02</rscale>
<asrwt>0</asrwt>
<pdfrwt beam="1">  1       21 0.19000271E-02 0.22498142E+02</pdfrwt>
<pdfrwt beam="2">  1       21 0.64422906E-02 0.22498142E+02</pdfrwt>
<totfact> 0.15357039E+08</totfact>
</mgrwt>
</event>
<event>
 4    1  0.7841599E+004  0.2577964E+02  0.7546771E-02  0.1650050E+00
         21   -1    0    0  503  502  0.00000000000E+00  0.00000000000E+00  0.45091995583E+02  0.45091995583E+02  0.00000000000E+00 0. -1.
         21   -1    0    0  501  503 -0.00000000000E+00 -0.00000000000E+00 -0.17508891570E+02  0.17508891570E+02  0.00000000000E+00 0. -1.
          5    1    1    2  501    0 -0.22325786334E+02  0.12889892398E+02  0.13409940013E+01  0.25814498376E+02  0.00000000000E+00 0. -1.
         -5    1    1    2    0  502  0.22325786334E+02 -0.12889892398E+02  0.26242110011E+02  0.36786388777E+02  0.00000000000E+00 0.  1.
<mgrwt>
<rscale>  2 0.25779644E+02</rscale>
<asrwt>0</asrwt>
<pdfrwt beam="1">  1       21 0.69372301E-02 0.25779644E+02</pdfrwt>
<pdfrwt beam="2">  1       21 0.26936756E-02 0.25779644E+02</pdfrwt>
<totfact> 0.82600847E+07</totfact>
</mgrwt>
</event>
<event>
 4    1  0.7841599E+004  0.2868128E+02  0.7546771E-02  0.1613140E+00
         21   -1    0    0  501  502  0.00000000000E+00  0.00000000000E+00  0.25610250545E+02  0.25610250545E+02  0.00000000000E+00 0. -1.
         21   -1    0    0  502  503 -0.00000000000E+00 -0.00000000000E+00 -0.42509968540E+02  0.42509968540E+02  0.00000000000E+00 0. -1.
          2    1    1    2  501    0 -0.18334096618E+02 -0.22056218204E+02  0.83883478225E+01  0.29882774963E+02  0.00000000000E+00 0.  1.
         -2    1    1    2    0  503  0.18334096618E+02  0.22056218204E+02 -0.25288065817E+02  0.38237444123E+02  0.00000000000E+00 0. -1.
<mgrwt>
<rscale>  2 0.28681281E+02</rscale>
<asrwt>0</asrwt>
<pdfrwt beam="1">  1       21 0.39400386E-02 0.28681281E+02</pdfrwt>
<pdfrwt beam="2">  1       21 0.65399952E-02 0.28681281E+02</pdfrwt>
<totfact> 0.51327586E+07</totfact>
</mgrwt>
</event>
<event>
 4    1  0.7841599E+004  0.2050321E+02  0.7546771E-02  0.1735502E+00
         21   -1    0    0  503  502  0.00000000000E+00  0.00000000000E+00  0.21411366224E+02  0.21411366224E+02  0.00000000000E+00 0. -1.
         21   -1    0    0  501  503 -0.00000000000E+00 -0.00000000000E+00 -0.21514410112E+02  0.21514410112E+02  0.00000000000E+00 0. -1.
          4    1    1    2  501    0  0.15327252271E+02  0.13618257870E+02  0.62944639098E+01  0.21447654546E+02  0.00000000000E+00 0. -1.
         -4    1    1    2    0  502 -0.15327252271E+02 -0.13618257870E+02 -0.63975077984E+01  0.21478121790E+02  0.00000000000E+00 0.  1.
<mgrwt>
<rscale>  2 0.20503210E+02</rscale>
<asrwt>0</asrwt>
<pdfrwt beam="1">  1       21 0.32940564E-02 0.20503210E+02</pdfrwt>
<pdfrwt beam="2">  1       21 0.33099092E-02 0.20503210E+02</pdfrwt>
<totfact> 0.18308378E+08</totfact>
</mgrwt>
</event>
<event>
 4    1  0.7841599E+004  0.3426923E+02  0.7546771E-02  0.1555187E+00
         21   -1    0    0  501  502  0.00000000000E+00  0.00000000000E+00  0.39514664011E+02  0.39514664011E+02  0.00000000000E+00 0. -1.
         21   -1    0    0  502  503 -0.00000000000E+00 -0.00000000000E+00 -0.30422179058E+02  0.30422179058E+02  0.00000000000E+00 0. -1.
          5    1    1    2  501    0 -0.32563374835E+02  0.10677397441E+02  0.98583946389E+01  0.35659054132E+02  0.00000000000E+00 0.  1.
         -5    1    1    2    0  503  0.32563374835E+02 -0.10677397441E+02 -0.76590968509E+00  0.34277788937E+02  0.00000000000E+00 0. -1.
<mgrwt>
<rscale>  2 0.34269231E+02</rscale>
<asrwt>0</asrwt>
<pdfrwt beam="1">  1       21 0.60791791E-02 0.34269231E+02</pdfrwt>
<pdfrwt beam="2">  1       21 0.46803352E-02 0.34269231E+02</pdfrwt>
<totfact> 0.45624835E+07</totfact>
</mgrwt>
</event>
<event>
 4    1  0.7841599E+004  0.3275136E+02  0.7546771E-02  0.1569526E+00
         21   -1    0    0  501  502  0.00000000000E+00  0.00000000000E+00  0.10299684842E+03  0.10299684842E+03  0.00000000000E+00 0. -1.
         21   -1    0    0  502  503 -0.00000000000E+00 -0.00000000000E+00 -0.15162604388E+02  0.15162604388E+02  0.00000000000E+00 0. -1.
          1    1    1    2  501    0  0.55504888110E+01  0.32277607370E+02  0.76978093922E+02  0.83655715928E+02  0.00000000000E+00 0.  1.
         -1    1    1    2    0  503 -0.55504888110E+01 -0.32277607370E+02  0.10856150112E+02  0.34503736882E+02  0.00000000000E+00 0. -1.
<mgrwt>
<rscale>  2 0.32751364E+02</rscale>
<asrwt>0</asrwt>
<pdfrwt beam="1">  1       21 0.15845669E-01 0.32751364E+02</pdfrwt>
<pdfrwt beam="2">  1       21 0.23327084E-02 0.32751364E+02</pdfrwt>
<totfact> 0.27303011E+07</totfact>
</mgrwt>
</event>
<event>
 4    1  0.7841599E+004  0.2149414E+02  0.7546771E-02  0.1717150E+00
         21   -1    0    0  501  502  0.00000000000E+00  0.00000000000E+00  0.62410443315E+01  0.62410443315E+01  0.00000000000E+00 0.  1.
         21   -1    0    0  502  503 -0.00000000000E+00 -0.00000000000E+00 -0.74378459922E+02  0.74378459922E+02  0.00000000000E+00 0.  1.
          3    1    1    2  501    0 -0.19323919276E+02 -0.94119217093E+01 -0.36844466178E+02  0.42655747730E+02  0.00000000000E+00 0.  1.
         -3    1    1    2    0  503  0.19323919276E+02  0.94119217093E+01 -0.31292949413E+02  0.37963756524E+02  0.00000000000E+00 0. -1.
<mgrwt>
<rscale>  2 0.21494142E+02</rscale>
<asrwt>0</asrwt>
<pdfrwt beam="1">  1       21 0.96016062E-03 0.21494142E+02</pdfrwt>
<pdfrwt beam="2">  1       21 0.11442840E-01 0.21494142E+02</pdfrwt>
<totfact> 0.16614682E+08</totfact>
</mgrwt>
</event>
<event>
 4    1  0.7841599E+004  0.3413664E+02  0.7546771E-02  0.1556404E+00
         21   -1    0    0  501  502  0.00000000000E+00  0.00000000000E+00  0.19622681381E+02  0.19622681381E+02  0.00000000000E+00 0. -1.
         21   -1    0    0  502  503 -0.00000000000E+00 -0.00000000000E+00 -0.65080120710E+02  0.65080120710E+02  0.00000000000E+00 0. -1.
          1    1    1    2  501    0  0.34128665566E+02 -0.73802759999E+00 -0.10201319735E+02  0.35628323317E+02  0.00000000000E+00 0. -1.
         -1    1    1    2    0  503 -0.34128665566E+02  0.73802759999E+00 -0.35256119594E+02  0.49074478774E+02  0.00000000000E+00 0.  1.
<mgrwt>
<rscale>  2 0.34136645E+02</rscale>
<asrwt>0</asrwt>
<pdfrwt beam="1">  1       21 0.30188741E-02 0.34136645E+02</pdfrwt>
<pdfrwt beam="2">  1       21 0.10012326E-01 0.34136645E+02</pdfrwt>
<totfact> 0.40175854E+07</totfact>
</mgrwt>
</event>
<event>
 4    1  0.7841599E+004  0.2442495E+02  0.7546771E-02  0.1669402E+00
         21   -1    0    0  503  502  0.00000000000E+00  0.00000000000E+00  0.31897193562E+03  0.31897193562E+03  0.00000000000E+00 0.  1.
         21   -1    0    0  501  503 -0.00000000000E+00 -0.00000000000E+00 -0.30179242598E+01  0.30179242598E+01  0.00000000000E+00 0.  1.
          2    1    1    2  501    0  0.14152868743E+02 -0.19906642254E+02  0.58698554844E+02  0.63577499481E+02  0.00000000000E+00 0.  1.
         -2    1    1    2    0  502 -0.14152868743E+02  0.19906642254E+02  0.25725545651E+03  0.25841236040E+03  0.00000000000E+00 0. -1.
<mgrwt>
<rscale>  2 0.24424948E+02</rscale>
<asrwt>0</asrwt>
<pdfrwt beam="1">  1       21 0.49072579E-01 0.24424948E+02</pdfrwt>
<pdfrwt beam="2">  1       21 0.46429629E-03 0.24424948E+02</pdfrwt>
<totfact> 0.37710853E+07</totfact>
</mgrwt>
</event>
<event>
 4    1  0.7841599E+004  0.4198706E+02  0.7546771E-02  0.1494078E+00
         21   -1    0    0  503  502  0.00000000000E+00  0.00000000000E+00  0.33838033470E+03  0.33838033470E+03  0.00000000000E+00 0. -1.
         21   -1    0    0  501  503 -0.00000000000E+00 -0.00000000000E+00 -0.63394890902E+01  0.63394890902E+01  0.00000000000E+00 0. -1.
          3    1    1    2  501    0  0.19966575168E+02  0.36935748045E+02  0.23877785910E+03  0.24244129105E+03  0.00000000000E+00 0. -1.
         -3    1    1    2    0  502 -0.19966575168E+02 -0.36935748045E+02  0.93262986512E+02  0.10227853275E+03  0.00000000000E+00 0.  1.
<mgrwt>
<rscale>  2 0.41987065E+02</rscale>
<asrwt>0</asrwt>
<pdfrwt beam="1">  1       21 0.52058499E-01 0.41987065E+02</pdfrwt>
<pdfrwt beam="2">  1       21 0.97530628E-03 0.41987065E+02</pdfrwt>
<totfact> 0.12062777E+07</totfact>
</mgrwt>
</event>
<event>
 4    1  0.7841599E+004  0.2187354E+02  0.7546771E-02  0.1710448E+00
         21   -1    0    0  501  502  0.00000000000E+00  0.00000000000E+00  0.10958110266E+02  0.10958110266E+02  0.00000000000E+00 0. -1.
         21   -1    0    0  502  503 -0.00000000000E+00 -0.00000000000E+00 -0.44588957182E+02  0.44588957182E+02  0.00000000000E+00 0. -1.
          5    1    1    2  501    0  0.21801006047E+02 -0.17798110155E+01 -0.20820194042E+02  0.30198213057E+02  0.00000000000E+00 0.  1.
         -5    1    1    2    0  503 -0.21801006047E+02  0.17798110155E+01 -0.12810652873E+02  0.25348854391E+02  0.00000000000E+00 0. -1.
<mgrwt>
<rscale>  2 0.21873536E+02</rscale>
<asrwt>0</asrwt>
<pdfrwt beam="1">  1       21 0.16858631E-02 0.21873536E+02</pdfrwt>
<pdfrwt beam="2">  1       21 0.68598395E-02 0.21873536E+02</pdfrwt>
<totfact> 0.16514001E+08</totfact>
</mgrwt>
</event>
<event>
 4    1  0.7841599E+004  0.2174239E+02  0.7546771E-02  0.1712746E+00
         21   -1    0    0  503  502  0.00000000000E+00  0.00000000000E+00  0.77819098073E+00  0.77819098073E+00  0.00000000000E+00 0. -1.
         21   -1    0    0  501  503 -0.00000000000E+00 -0.00000000000E+00 -0.81231637314E+03  0.81231637314E+03  0.00000000000E+00 0. -1.
          2    1    1    2  501    0 -0.90780461232E+01 -0.19756538125E+02 -0.60992271232E+03  0.61031012340E+03  0.00000000000E+00 0. -1.
         -2    1    1    2    0  502  0.90780461232E+01  0.19756538125E+02 -0.20161546984E+03  0.20278444072E+03  0.00000000000E+00 0.  1.
<mgrwt>
<rscale>  2 0.21742395E+02</rscale>
<asrwt>0</asrwt>
<pdfrwt beam="1">  1       21 0.11972172E-03 0.21742395E+02</pdfrwt>
<pdfrwt beam="2">  1       21 0.12497171E+00 0.21742395E+02</pdfrwt>
<totfact> 0.36938608E+07</totfact>
</mgrwt>
</event>
<event>
 4    1  0.7841599E+004  0.2689219E+02  0.7546771E-02  0.1635222E+00
         21   -1    0    0  503  502  0.00000000000E+00  0.00000000000E+00  0.14200951035E+04  0.14200951035E+04  0.00000000000E+00 0. -1.
         21   -1    0    0  501  503 -0.00000000000E+00 -0.00000000000E+00 -0.63479122263E+00  0.63479122263E+00  0.00000000000E+00 0. -1.
          4    1    1    2  501    0  0.26462945212E+02 -0.47856288580E+01  0.10256315868E+04  0.10259840845E+04  0.00000000000E+00 0.  1.
         -4    1    1    2    0  502 -0.26462945212E+02  0.47856288580E+01  0.39382872552E+03  0.39474581031E+03  0.00000000000E+00 0. -1.
<mgrwt>
<rscale>  2 0.26892187E+02</rscale>
<asrwt>0</asrwt>
<pdfrwt beam="1">  1       21 0.21847363E+00 0.26892187E+02</pdfrwt>
<pdfrwt beam="2">  1       21 0.97661325E-04 0.26892187E+02</pdfrwt>
<totfact> 0.12968699E+07</totfact>
</mgrwt>
</event>
<event>
 4    1  0.7841599E+004  0.2521156E+02  0.7546771E-02  0.1657982E+00
         21   -1    0    0  501  502  0.00000000000E+00  0.00000000000E+00  0.57262077512E+00  0.57262077512E+00  0.00000000000E+00 0. -1.
         21   -1    0    0  502  503 -0.00000000000E+00 -0.00000000000E+00 -0.12898269667E+04  0.12898269667E+04  0.00000000000E+00 0. -1.
          4    1    1    2  501    0  0.24930544378E+02 -0.37537780563E+01 -0.40373275777E+03  0.40451917456E+03  0.00000000000E+00 0.  1.
         -4    1    1    2    0  503 -0.24930544378E+02  0.37537780563E+01 -0.88552158813E+03  0.88588041288E+03  0.00000000000E+00 0. -1.
<mgrwt>
<rscale>  2 0.25211563E+02</rscale>
<asrwt>0</asrwt>
<pdfrwt beam="1">  1       21 0.88096535E-04 0.25211563E+02</pdfrwt>
<pdfrwt beam="2">  1       21 0.19843259E+00 0.25211563E+02</pdfrwt>
<totfact> 0.19230837E+07</totfact>
</mgrwt>
</event>
<event>
 4    1  0.7841599E+004  0.2217026E+02  0.7546771E-02  0.1705324E+00
         21   -1    0    0  503  502  0.00000000000E+00  0.00000000000E+00  0.51768582198E+03  0.51768582198E+03  0.00000000000E+00 0. -1.
         21   -1    0    0  501  503 -0.00000000000E+00 -0.00000000000E+00 -0.95105632524E+00  0.95105632524E+00  0.00000000000E+00 0. -1.
          4    1    1    2  501    0  0.69331674092E+01 -0.21058296213E+02  0.24773476068E+03  0.24872481239E+03  0.00000000000E+00 0. -1.
         -4    1    1    2    0  502 -0.69331674092E+01  0.21058296213E+02  0.26900000497E+03  0.26991206591E+03  0.00000000000E+00 0.  1.
<mgrwt>
<rscale>  2 0.22170265E+02</rscale>
<asrwt>0</asrwt>
<pdfrwt beam="1">  1       21 0.79643748E-01 0.22170265E+02</pdfrwt>
<pdfrwt beam="2">  1       21 0.14631677E-03 0.22170265E+02</pdfrwt>
<totfact> 0.74431422E+07</totfact>
</mgrwt>
</event>
<event>
 4    1  0.7841599E+004  0.2532770E+02  0.7546771E-02  0.1656339E+00
         21   -1    0    0  501  502  0.00000000000E+00  0.00000000000E+00  0.14674212243E+01  0.14674212243E+01  0.00000000000E+00 0. -1.
         21   -1    0    0  502  503 -0.00000000000E+00 -0.00000000000E+00 -0.46088219976E+03  0.46088219976E+03  0.00000000000E+00 0. -1.
          4    1    1    2  501    0 -0.56916901168E-01 -0.25327638379E+02 -0.17725606753E+03  0.17905643240E+03  0.00000000000E+00 0.  1.
         -4    1    1    2    0  503  0.56916901168E-01  0.25327638379E+02 -0.28215871100E+03  0.28329318858E+03  0.00000000000E+00 0. -1.
<mgrwt>
<rscale>  2 0.25327702E+02</rscale>
<asrwt>0</asrwt>
<pdfrwt beam="1">  1       21 0.22575739E-03 0.25327702E+02</pdfrwt>
<pdfrwt beam="2">  1       21 0.70904865E-01 0.25327702E+02</pdfrwt>
<totfact> 0.52269131E+07</totfact>
</mgrwt>
</event>
<event>
 4    1  0.7841599E+004  0.2688183E+02  0.7546771E-02  0.1635356E+00
         21   -1    0    0  503  502  0.00000000000E+00  0.00000000000E+00  0.18703164527E+02  0.18703164527E+02  0.00000000000E+00 0.  1.
         21   -1    0    0  501  503 -0.00000000000E+00 -0.00000000000E+00 -0.38910130352E+02  0.38910130352E+02  0.00000000000E+00 0.  1.
          5    1    1    2  501    0 -0.26559455238E+02  0.41506479236E+01 -0.12517361989E+02  0.29653277929E+02  0.00000000000E+00 0.  1.
         -5    1    1    2    0  502  0.26559455238E+02 -0.41506479236E+01 -0.76896038350E+01  0.27960016950E+02  0.00000000000E+00 0. -1.
<mgrwt>
<rscale>  2 0.26881825E+02</rscale>
<asrwt>0</asrwt>
<pdfrwt beam="1">  1       21 0.28774099E-02 0.26881825E+02</pdfrwt>
<pdfrwt beam="2">  1       21 0.59861739E-02 0.26881825E+02</pdfrwt>
<totfact> 0.95670291E+07</totfact>
</mgrwt>
</event>
<event>
 4    1  0.7841599E+004  0.4851600E+02  0.7546771E-02  0.1453514E+00
         21   -1    0    0  503  502  0.00000000000E+00  0.00000000000E+00  0.10751234524E+02  0.10751234524E+02  0.00000000000E+00 0. -1.
         21   -1    0    0  501  503 -0.00000000000E+00 -0.00000000000E+00 -0.23752895542E+03  0.23752895542E+03  0.00000000000E+00 0. -1.
          1    1    1    2  501    0 -0.47434250108E+02 -0.10187956702E+02 -0.14812330099E+03  0.15586633646E+03  0.00000000000E+00 0.  1.
         -1    1    1    2    0  502  0.47434250108E+02  0.10187956702E+02 -0.78654419909E+02  0.92413853487E+02  0.00000000000E+00 0. -1.
<mgrwt>
<rscale>  2 0.48516003E+02</rscale>
<asrwt>0</asrwt>
<pdfrwt beam="1">  1       21 0.16540361E-02 0.48516003E+02</pdfrwt>
<pdfrwt beam="2">  1       21 0.36542915E-01 0.48516003E+02</pdfrwt>
<totfact> 0.10848937E+07</totfact>
</mgrwt>
</event>
<event>
 4    1  0.7841599E+004  0.2653506E+02  0.7546771E-02  0.1639884E+00
         21   -1    0    0  501  502  0.00000000000E+00  0.00000000000E+00  0.54161515932E+01  0.54161515932E+01  0.00000000000E+00 0.  1.
         21   -1    0    0  502  503 -0.00000000000E+00 -0.00000000000E+00 -0.13000588063E+03  0.13000588063E+03  0.00000000000E+00 0.  1.
          2    1    1    2  501    0  0.14376309617E+02 -0.22303165591E+02 -0.61915662811E+02  0.67362146454E+02  0.00000000000E+00 0. -1.
         -2    1    1    2    0  503 -0.14376309617E+02  0.22303165591E+02 -0.62674066224E+02  0.68059885767E+02  0.00000000000E+00 0.  1.
<mgrwt>
<rscale>  2 0.26535061E+02</rscale>
<asrwt>0</asrwt>
<pdfrwt beam="1">  1       21 0.83325411E-03 0.26535061E+02</pdfrwt>
<pdfrwt beam="2">  1       21 0.20000904E-01 0.26535061E+02</pdfrwt>
<totfact> 0.83972685E+07</totfact>
</mgrwt>
</event>
<event>
 4    1  0.7841599E+004  0.2015345E+02  0.7546771E-02  0.1742294E+00
         21   -1    0    0  501  502  0.00000000000E+00  0.00000000000E+00  0.55068784359E+01  0.55068784359E+01  0.00000000000E+00 0. -1.
         21   -1    0    0  502  503 -0.00000000000E+00 -0.00000000000E+00 -0.73757473411E+02  0.73757473411E+02  0.00000000000E+00 0. -1.
          1    1    1    2  501    0 -0.18351286123E+02 -0.83301711150E+01 -0.34340596040E+02  0.39817558810E+02  0.00000000000E+00 0. -1.
         -1    1    1    2    0  503  0.18351286123E+02  0.83301711150E+01 -0.33909998935E+02  0.39446793037E+02  0.00000000000E+00 0.  1.
<mgrwt>
<rscale>  2 0.20153448E+02</rscale>
<asrwt>0</asrwt>
<pdfrwt beam="1">  1       21 0.84721212E-03 0.20153448E+02</pdfrwt>
<pdfrwt beam="2">  1       21 0.11347303E-01 0.20153448E+02</pdfrwt>
<totfact> 0.19901488E+08</totfact>
</mgrwt>
</event>
<event>
 4    1  0.7841599E+004  0.2314790E+02  0.7546771E-02  0.1689124E+00
         21   -1    0    0  503  502  0.00000000000E+00  0.00000000000E+00  0.85514442979E+02  0.85514442979E+02  0.00000000000E+00 0. -1.
         21   -1    0    0  501  503 -0.00000000000E+00 -0.00000000000E+00 -0.93221414716E+01  0.93221414716E+01  0.00000000000E+00 0. -1.
          4    1    1    2  501    0  0.13927104435E+02 -0.18489483776E+02  0.65246889266E+02  0.69231364331E+02  0.00000000000E+00 0.  1.
         -4    1    1    2    0  502 -0.13927104435E+02  0.18489483776E+02  0.10945412242E+02  0.25605220120E+02  0.00000000000E+00 0. -1.
<mgrwt>
<rscale>  2 0.23147899E+02</rscale>
<asrwt>0</asrwt>
<pdfrwt beam="1">  1       21 0.13156068E-01 0.23147899E+02</pdfrwt>
<pdfrwt beam="2">  1       21 0.14341757E-02 0.23147899E+02</pdfrwt>
<totfact> 0.73390485E+07</totfact>
</mgrwt>
</event>
<event>
 4    1  0.7841599E+004  0.2022819E+02  0.7546771E-02  0.1740828E+00
         21   -1    0    0  501  502  0.00000000000E+00  0.00000000000E+00  0.13315813311E+03  0.13315813311E+03  0.00000000000E+00 0.  1.
         21   -1    0    0  502  503 -0.00000000000E+00 -0.00000000000E+00 -0.31693772653E+01  0.31693772653E+01  0.00000000000E+00 0.  1.
          2    1    1    2  501    0  0.19122886629E+02 -0.65950672183E+01  0.76887928559E+02  0.79504297133E+02  0.00000000000E+00 0. -1.
         -2    1    1    2    0  503 -0.19122886629E+02  0.65950672183E+01  0.53100827283E+02  0.56823213239E+02  0.00000000000E+00 0.  1.
<mgrwt>
<rscale>  2 0.20228191E+02</rscale>
<asrwt>0</asrwt>
<pdfrwt beam="1">  1       21 0.20485862E-01 0.20228191E+02</pdfrwt>
<pdfrwt beam="2">  1       21 0.48759661E-03 0.20228191E+02</pdfrwt>
<totfact> 0.16546139E+08</totfact>
</mgrwt>
</event>
<event>
 4    1  0.7841599E+004  0.2358635E+02  0.7546771E-02  0.1682178E+00
         21   -1    0    0  503  502  0.00000000000E+00  0.00000000000E+00  0.35256603065E+01  0.35256603065E+01  0.00000000000E+00 0. -1.
         21   -1    0    0  501  503 -0.00000000000E+00 -0.00000000000E+00 -0.16275601956E+03  0.16275601956E+03  0.00000000000E+00 0. -1.
          5    1    1    2  501    0 -0.17021905674E+02 -0.16326988482E+02 -0.94137188560E+02  0.97047030329E+02  0.00000000000E+00 0. -1.
         -5    1    1    2    0  502  0.17021905674E+02  0.16326988482E+02 -0.65093170695E+02  0.69234649540E+02  0.00000000000E+00 0.  1.
<mgrwt>
<rscale>  2 0.23586348E+02</rscale>
<asrwt>0</asrwt>
<pdfrwt beam="1">  1       21 0.54240941E-03 0.23586348E+02</pdfrwt>
<pdfrwt beam="2">  1       21 0.25039382E-01 0.23586348E+02</pdfrwt>
<totfact> 0.10379283E+08</totfact>
</mgrwt>
</event>
<event>
 4    1  0.7841599E+004  0.3395707E+02  0.7546771E-02  0.1558062E+00
         21   -1    0    0  503  502  0.00000000000E+00  0.00000000000E+00  0.35245902481E+02  0.35245902481E+02  0.00000000000E+00 0. -1.
         21   -1    0    0  501  503 -0.00000000000E+00 -0.00000000000E+00 -0.32719628481E+02  0.32719628481E+02  0.00000000000E+00 0. -1.
          2    1    1    2  501    0  0.27296063050E+02 -0.20199197959E+02  0.16509336066E+01  0.33997179853E+02  0.00000000000E+00 0.  1.
         -2    1    1    2    0  502 -0.27296063050E+02  0.20199197959E+02  0.87534039397E+00  0.33968351108E+02  0.00000000000E+00 0. -1.
<mgrwt>
<rscale>  2 0.33957071E+02</rscale>
<asrwt>0</asrwt>
<pdfrwt beam="1">  1       21 0.54224466E-02 0.33957071E+02</pdfrwt>
<pdfrwt beam="2">  1       21 0.50337890E-02 0.33957071E+02</pdfrwt>
<totfact> 0.48765853E+07</totfact>
</mgrwt>
</event>
<event>
 4    1  0.7841599E+004  0.3456703E+02  0.7546771E-02  0.1552479E+00
         21   -1    0    0  503  502  0.00000000000E+00  0.00000000000E+00  0.82127377979E+02  0.82127377979E+02  0.00000000000E+00 0. -1.
         21   -1    0    0  501  503 -0.00000000000E+00 -0.00000000000E+00 -0.21955034092E+02  0.21955034092E+02  0.00000000000E+00 0. -1.
          3    1    1    2  501    0 -0.19105495987E+02  0.28807287448E+02  0.60311435078E+02  0.69515098994E+02  0.00000000000E+00 0. -1.
         -3    1    1    2    0  502  0.19105495987E+02 -0.28807287448E+02 -0.13909119063E+00  0.34567313078E+02  0.00000000000E+00 0.  1.
<mgrwt>
<rscale>  2 0.34567033E+02</rscale>
<asrwt>0</asrwt>
<pdfrwt beam="1">  1       21 0.12634981E-01 0.34567033E+02</pdfrwt>
<pdfrwt beam="2">  1       21 0.33776976E-02 0.34567033E+02</pdfrwt>
<totfact> 0.22731876E+07</totfact>
</mgrwt>
</event>
<event>
 4    1  0.7841599E+004  0.2241539E+02  0.7546771E-02  0.1701166E+00
         21   -1    0    0  503  502  0.00000000000E+00  0.00000000000E+00  0.54905637708E+02  0.54905637708E+02  0.00000000000E+00 0. -1.
         21   -1    0    0  501  503 -0.00000000000E+00 -0.00000000000E+00 -0.11622514771E+02  0.11622514771E+02  0.00000000000E+00 0. -1.
          1    1    1    2  501    0  0.19453931271E+02 -0.11135261616E+02  0.36980461364E+02  0.43243543054E+02  0.00000000000E+00 0. -1.
         -1    1    1    2    0  502 -0.19453931271E+02  0.11135261616E+02  0.63026615727E+01  0.23284609424E+02  0.00000000000E+00 0.  1.
<mgrwt>
<rscale>  2 0.22415385E+02</rscale>
<asrwt>0</asrwt>
<pdfrwt beam="1">  1       21 0.84470210E-02 0.22415385E+02</pdfrwt>
<pdfrwt beam="2">  1       21 0.17880792E-02 0.22415385E+02</pdfrwt>
<totfact> 0.10844582E+08</totfact>
</mgrwt>
</event>
<event>
 4    1  0.7841599E+004  0.2142251E+02  0.7546771E-02  0.1718435E+00
         21   -1    0    0  501  502  0.00000000000E+00  0.00000000000E+00  0.30233467634E+03  0.30233467634E+03  0.00000000000E+00 0. -1.
         21   -1    0    0  502  503 -0.00000000000E+00 -0.00000000000E+00 -0.15971066483E+01  0.15971066483E+01  0.00000000000E+00 0. -1.
          5    1    1    2  501    0 -0.11236961746E+02 -0.18238821567E+02  0.11653362522E+03  0.11848632718E+03  0.00000000000E+00 0.  1.
         -5    1    1    2    0  503  0.11236961746E+02  0.18238821567E+02  0.18420394447E+03  0.18544545581E+03  0.00000000000E+00 0. -1.
<mgrwt>
<rscale>  2 0.21422510E+02</rscale>
<asrwt>0</asrwt>
<pdfrwt beam="1">  1       21 0.46512982E-01 0.21422510E+02</pdfrwt>
<pdfrwt beam="2">  1       21 0.24570895E-03 0.21422510E+02</pdfrwt>
<totfact> 0.10260771E+08</totfact>
</mgrwt>
</event>
<event>
 4    1  0.7841599E+004  0.2471033E+02  0.7546771E-02  0.1665198E+00
         21   -1    0    0  503  502  0.00000000000E+00  0.00000000000E+00  0.14573788474E+02  0.14573788474E+02  0.00000000000E+00 0. -1.
         21   -1    0    0  501  503 -0.00000000000E+00 -0.00000000000E+00 -0.42477877516E+02  0.42477877516E+02  0.00000000000E+00 0. -1.
          3    1    1    2  501    0 -0.21975148713E+02 -0.11300143482E+02 -0.10616721102E+02  0.26894519342E+02  0.00000000000E+00 0. -1.
         -3    1    1    2    0  502  0.21975148713E+02  0.11300143482E+02 -0.17287367939E+02  0.30157146648E+02  0.00000000000E+00 0.  1.
<mgrwt>
<rscale>  2 0.24710330E+02</rscale>
<asrwt>0</asrwt>
<pdfrwt beam="1">  1       21 0.22421213E-02 0.24710330E+02</pdfrwt>
<pdfrwt beam="2">  1       21 0.65350581E-02 0.24710330E+02</pdfrwt>
<totfact> 0.11961318E+08</totfact>
</mgrwt>
</event>
<event>
 4    1  0.7841599E+004  0.2466352E+02  0.7546771E-02  0.1665882E+00
         21   -1    0    0  503  502  0.00000000000E+00  0.00000000000E+00  0.76064155150E+01  0.76064155150E+01  0.00000000000E+00 0. -1.
         21   -1    0    0  501  503 -0.00000000000E+00 -0.00000000000E+00 -0.10018017371E+03  0.10018017371E+03  0.00000000000E+00 0. -1.
          3    1    1    2  501    0  0.23591922294E+02 -0.71910088787E+01 -0.70492861406E+02  0.74682882345E+02  0.00000000000E+00 0.  1.
         -3    1    1    2    0  502 -0.23591922294E+02  0.71910088787E+01 -0.22080896792E+02  0.33103706882E+02  0.00000000000E+00 0. -1.
<mgrwt>
<rscale>  2 0.24663524E+02</rscale>
<asrwt>0</asrwt>
<pdfrwt beam="1">  1       21 0.11702178E-02 0.24663524E+02</pdfrwt>
<pdfrwt beam="2">  1       21 0.15412333E-01 0.24663524E+02</pdfrwt>
<totfact> 0.77635866E+07</totfact>
</mgrwt>
</event>
<event>
 4    1  0.7841599E+004  0.2259682E+02  0.7546771E-02  0.1698130E+00
         21   -1    0    0  501  502  0.00000000000E+00  0.00000000000E+00  0.14709616649E+03  0.14709616649E+03  0.00000000000E+00 0. -1.
         21   -1    0    0  502  503 -0.00000000000E+00 -0.00000000000E+00 -0.49932591280E+01  0.49932591280E+01  0.00000000000E+00 0. -1.
          4    1    1    2  501    0 -0.14000771602E+02  0.17736811492E+02  0.11303482761E+03  0.11527136825E+03  0.00000000000E+00 0. -1.
         -4    1    1    2    0  503  0.14000771602E+02 -0.17736811492E+02  0.29068079756E+02  0.36818057364E+02  0.00000000000E+00 0.  1.
<mgrwt>
<rscale>  2 0.22596816E+02</rscale>
<asrwt>0</asrwt>
<pdfrwt beam="1">  1       21 0.22630176E-01 0.22596816E+02</pdfrwt>
<pdfrwt beam="2">  1       21 0.76819382E-03 0.22596816E+02</pdfrwt>
<totfact> 0.73238338E+07</totfact>
</mgrwt>
</event>
<event>
 4    1  0.7841599E+004  0.2056599E+02  0.7546771E-02  0.1734301E+00
         21   -1    0    0  501  502  0.00000000000E+00  0.00000000000E+00  0.10108891773E+03  0.10108891773E+03  0.00000000000E+00 0.  1.
         21   -1    0    0  502  503 -0.00000000000E+00 -0.00000000000E+00 -0.45515473623E+01  0.45515473623E+01  0.00000000000E+00 0.  1.
          4    1    1    2  501    0 -0.18115579352E+02  0.97357952881E+01  0.33259584347E+02  0.39104473863E+02  0.00000000000E+00 0. -1.
         -4    1    1    2    0  503  0.18115579352E+02 -0.97357952881E+01  0.63277786017E+02  0.66535991225E+02  0.00000000000E+00 0.  1.
<mgrwt>
<rscale>  2 0.20565990E+02</rscale>
<asrwt>0</asrwt>
<pdfrwt beam="1">  1       21 0.15552139E-01 0.20565990E+02</pdfrwt>
<pdfrwt beam="2">  1       21 0.70023813E-03 0.20565990E+02</pdfrwt>
<totfact> 0.15658771E+08</totfact>
</mgrwt>
</event>
<event>
 4    1  0.7841599E+004  0.2732908E+02  0.7546771E-02  0.1629639E+00
         21   -1    0    0  503  502  0.00000000000E+00  0.00000000000E+00  0.12648243224E+02  0.12648243224E+02  0.00000000000E+00 0. -1.
         21   -1    0    0  501  503 -0.00000000000E+00 -0.00000000000E+00 -0.63309712853E+02  0.63309712853E+02  0.00000000000E+00 0. -1.
          5    1    1    2  501    0 -0.72852740203E+01  0.26340146730E+02 -0.15479308092E+02  0.31408398977E+02  0.00000000000E+00 0.  1.
         -5    1    1    2    0  502  0.72852740203E+01 -0.26340146730E+02 -0.35182161538E+02  0.44549557100E+02  0.00000000000E+00 0. -1.
<mgrwt>
<rscale>  2 0.27329079E+02</rscale>
<asrwt>0</asrwt>
<pdfrwt beam="1">  1       21 0.19458835E-02 0.27329079E+02</pdfrwt>
<pdfrwt beam="2">  1       21 0.97399560E-02 0.27329079E+02</pdfrwt>
<totfact> 0.79438131E+07</totfact>
</mgrwt>
</event>
<event>
 4    1  0.7841599E+004  0.2896469E+02  0.7546771E-02  0.1609823E+00
         21   -1    0    0  503  502  0.00000000000E+00  0.00000000000E+00  0.45013869214E+01  0.45013869214E+01  0.00000000000E+00 0.  1.
         21   -1    0    0  501  503 -0.00000000000E+00 -0.00000000000E+00 -0.18655455991E+03  0.18655455991E+03  0.00000000000E+00 0.  1.
          5    1    1    2  501    0 -0.28958109007E+02 -0.61761789659E+00 -0.93976414498E+02  0.98338802163E+02  0.00000000000E+00 0.  1.
         -5    1    1    2    0  502  0.28958109007E+02  0.61761789659E+00 -0.88076758492E+02  0.92717144669E+02  0.00000000000E+00 0. -1.
<mgrwt>
<rscale>  2 0.28964695E+02</rscale>
<asrwt>0</asrwt>
<pdfrwt beam="1">  1       21 0.69252121E-03 0.28964695E+02</pdfrwt>
<pdfrwt beam="2">  1       21 0.28700695E-01 0.28964695E+02</pdfrwt>
<totfact> 0.59280649E+07</totfact>
</mgrwt>
</event>
<event>
 4    1  0.7841599E+004  0.2315659E+02  0.7546771E-02  0.1688984E+00
         21   -1    0    0  503  502  0.00000000000E+00  0.00000000000E+00  0.19429288134E+01  0.19429288134E+01  0.00000000000E+00 0.  1.
         21   -1    0    0  501  503 -0.00000000000E+00 -0.00000000000E+00 -0.27824736370E+03  0.27824736370E+03  0.00000000000E+00 0.  1.
          3    1    1    2  501    0 -0.33742618753E+01  0.22909431988E+02 -0.15077246949E+03  0.15254037260E+03  0.00000000000E+00 0.  1.
         -3    1    1    2    0  502  0.33742618753E+01 -0.22909431988E+02 -0.12553196540E+03  0.12764991991E+03  0.00000000000E+00 0. -1.
<mgrwt>
<rscale>  2 0.23156591E+02</rscale>
<asrwt>0</asrwt>
<pdfrwt beam="1">  1       21 0.29891215E-03 0.23156591E+02</pdfrwt>
<pdfrwt beam="2">  1       21 0.42807283E-01 0.23156591E+02</pdfrwt>
<totfact> 0.92330311E+07</totfact>
</mgrwt>
</event>
<event>
 4    1  0.7841599E+004  0.2055479E+02  0.7546771E-02  0.1734515E+00
         21   -1    0    0  501  502  0.00000000000E+00  0.00000000000E+00  0.82265197045E+01  0.82265197045E+01  0.00000000000E+00 0. -1.
         21   -1    0    0  502  503 -0.00000000000E+00 -0.00000000000E+00 -0.52145554614E+02  0.52145554614E+02  0.00000000000E+00 0. -1.
          3    1    1    2  501    0  0.20553858108E+02  0.19536552212E+00 -0.25668736038E+02  0.32884392355E+02  0.00000000000E+00 0.  1.
         -3    1    1    2    0  503 -0.20553858108E+02 -0.19536552212E+00 -0.18250298872E+02  0.27487681963E+02  0.00000000000E+00 0. -1.
<mgrwt>
<rscale>  2 0.20554787E+02</rscale>
<asrwt>0</asrwt>
<pdfrwt beam="1">  1       21 0.12656185E-02 0.20554787E+02</pdfrwt>
<pdfrwt beam="2">  1       21 0.80223928E-02 0.20554787E+02</pdfrwt>
<totfact> 0.19401743E+08</totfact>
</mgrwt>
</event>
<event>
 4    1  0.7841599E+004  0.2904536E+02  0.7546771E-02  0.1608887E+00
         21   -1    0    0  503  502  0.00000000000E+00  0.00000000000E+00  0.74021111358E+00  0.74021111358E+00  0.00000000000E+00 0.  1.
         21   -1    0    0  501  503 -0.00000000000E+00 -0.00000000000E+00 -0.12271387657E+04  0.12271387657E+04  0.00000000000E+00 0.  1.
          1    1    1    2  501    0  0.25165272906E+02  0.14503164470E+02 -0.44933536689E+03  0.45027314452E+03  0.00000000000E+00 0. -1.
         -1    1    1    2    0  502 -0.25165272906E+02 -0.14503164470E+02 -0.77706318771E+03  0.77760583231E+03  0.00000000000E+00 0.  1.
<mgrwt>
<rscale>  2 0.29045357E+02</rscale>
<asrwt>0</asrwt>
<pdfrwt beam="1">  1       21 0.11388005E-03 0.29045357E+02</pdfrwt>
<pdfrwt beam="2">  1       21 0.18878823E+00 0.29045357E+02</pdfrwt>
<totfact> 0.15408884E+07</totfact>
</mgrwt>
</event>
<event>
 4    1  0.7841599E+004  0.2340019E+02  0.7546771E-02  0.1685104E+00
         21   -1    0    0  503  502  0.00000000000E+00  0.00000000000E+00  0.13723751573E+01  0.13723751573E+01  0.00000000000E+00 0.  1.
         21   -1    0    0  501  503 -0.00000000000E+00 -0.00000000000E+00 -0.40273771471E+03  0.40273771471E+03  0.00000000000E+00 0.  1.
          3    1    1    2  501    0  0.22747612170E+02  0.54877270265E+01 -0.22016445612E+03  0.22140450932E+03  0.00000000000E+00 0.  1.
         -3    1    1    2    0  502 -0.22747612170E+02 -0.54877270265E+01 -0.18120088343E+03  0.18270558055E+03  0.00000000000E+00 0. -1.
<mgrwt>
<rscale>  2 0.23400192E+02</rscale>
<asrwt>0</asrwt>
<pdfrwt beam="1">  1       21 0.21113454E-03 0.23400192E+02</pdfrwt>
<pdfrwt beam="2">  1       21 0.61959677E-01 0.23400192E+02</pdfrwt>
<totfact> 0.74445318E+07</totfact>
</mgrwt>
</event>
<event>
 4    1  0.7841599E+004  0.2462981E+02  0.7546771E-02  0.1666377E+00
         21   -1    0    0  501  502  0.00000000000E+00  0.00000000000E+00  0.28653923049E+02  0.28653923049E+02  0.00000000000E+00 0.  1.
         21   -1    0    0  502  503 -0.00000000000E+00 -0.00000000000E+00 -0.21369103571E+02  0.21369103571E+02  0.00000000000E+00 0.  1.
          1    1    1    2  501    0  0.23996299536E+02  0.55502455037E+01  0.12332343434E+01  0.24660666729E+02  0.00000000000E+00 0.  1.
         -1    1    1    2    0  503 -0.23996299536E+02 -0.55502455037E+01  0.60515851344E+01  0.25362359891E+02  0.00000000000E+00 0. -1.
<mgrwt>
<rscale>  2 0.24629812E+02</rscale>
<asrwt>0</asrwt>
<pdfrwt beam="1">  1       21 0.44082958E-02 0.24629812E+02</pdfrwt>
<pdfrwt beam="2">  1       21 0.32875544E-02 0.24629812E+02</pdfrwt>
<totfact> 0.12381204E+08</totfact>
</mgrwt>
</event>
<event>
 4    1  0.7841599E+004  0.2603341E+02  0.7546771E-02  0.1646587E+00
         21   -1    0    0  501  502  0.00000000000E+00  0.00000000000E+00  0.71955029115E+00  0.71955029115E+00  0.00000000000E+00 0. -1.
         21   -1    0    0  502  503 -0.00000000000E+00 -0.00000000000E+00 -0.10991508991E+04  0.10991508991E+04  0.00000000000E+00 0. -1.
          5    1    1    2  501    0 -0.12389884244E+02  0.22896051461E+02 -0.34120242870E+03  0.34219414921E+03  0.00000000000E+00 0. -1.
         -5    1    1    2    0  503  0.12389884244E+02 -0.22896051461E+02 -0.75722892009E+03  0.75767630016E+03  0.00000000000E+00 0.  1.
<mgrwt>
<rscale>  2 0.26033409E+02</rscale>
<asrwt>0</asrwt>
<pdfrwt beam="1">  1       21 0.11070094E-03 0.26033409E+02</pdfrwt>
<pdfrwt beam="2">  1       21 0.16909877E+00 0.26033409E+02</pdfrwt>
<totfact> 0.20876580E+07</totfact>
</mgrwt>
</event>
<event>
 4    1  0.7841599E+004  0.3397688E+02  0.7546771E-02  0.1557878E+00
         21   -1    0    0  501  502  0.00000000000E+00  0.00000000000E+00  0.17379875458E+01  0.17379875458E+01  0.00000000000E+00 0. -1.
         21   -1    0    0  502  503 -0.00000000000E+00 -0.00000000000E+00 -0.71697433858E+03  0.71697433858E+03  0.00000000000E+00 0. -1.
          1    1    1    2  501    0  0.29381238875E+02 -0.17063735456E+02 -0.45508343673E+03  0.45635004400E+03  0.00000000000E+00 0. -1.
         -1    1    1    2    0  503 -0.29381238875E+02  0.17063735456E+02 -0.26015291430E+03  0.26236228213E+03  0.00000000000E+00 0.  1.
<mgrwt>
<rscale>  2 0.33976878E+02</rscale>
<asrwt>0</asrwt>
<pdfrwt beam="1">  1       21 0.26738350E-03 0.33976878E+02</pdfrwt>
<pdfrwt beam="2">  1       21 0.11030341E+00 0.33976878E+02</pdfrwt>
<totfact> 0.16533038E+07</totfact>
</mgrwt>
</event>
<event>
 4    1  0.7841599E+004  0.2591430E+02  0.7546771E-02  0.1648206E+00
         21   -1    0    0  503  502  0.00000000000E+00  0.00000000000E+00  0.19122337476E+03  0.19122337476E+03  0.00000000000E+00 0. -1.
         21   -1    0    0  501  503 -0.00000000000E+00 -0.00000000000E+00 -0.35311246142E+01  0.35311246142E+01  0.00000000000E+00 0. -1.
          5    1    1    2  501    0 -0.13262530349E+02 -0.22263333385E+02  0.10103766611E+03  0.10430800879E+03  0.00000000000E+00 0.  1.
         -5    1    1    2    0  502  0.13262530349E+02  0.22263333385E+02  0.86654584030E+02  0.90446490579E+02  0.00000000000E+00 0. -1.
<mgrwt>
<rscale>  2 0.25914296E+02</rscale>
<asrwt>0</asrwt>
<pdfrwt beam="1">  1       21 0.29418973E-01 0.25914296E+02</pdfrwt>
<pdfrwt beam="2">  1       21 0.54325009E-03 0.25914296E+02</pdfrwt>
<totfact> 0.79299146E+07</totfact>
</mgrwt>
</event>
<event>
 4    1  0.7841599E+004  0.5091121E+02  0.7546771E-02  0.1440488E+00
         21   -1    0    0  503  502  0.00000000000E+00  0.00000000000E+00  0.89999251502E+01  0.89999251502E+01  0.00000000000E+00 0.  1.
         21   -1    0    0  501  503 -0.00000000000E+00 -0.00000000000E+00 -0.34812833538E+03  0.34812833538E+03  0.00000000000E+00 0.  1.
          5    1    1    2  501    0  0.15705562887E+01  0.50886982906E+02 -0.95352080195E+02  0.10809241821E+03  0.00000000000E+00 0.  1.
         -5    1    1    2    0  502 -0.15705562887E+01 -0.50886982906E+02 -0.24377633003E+03  0.24903584232E+03  0.00000000000E+00 0. -1.
<mgrwt>
<rscale>  2 0.50911214E+02</rscale>
<asrwt>0</asrwt>
<pdfrwt beam="1">  1       21 0.13846039E-02 0.50911214E+02</pdfrwt>
<pdfrwt beam="2">  1       21 0.53558204E-01 0.50911214E+02</pdfrwt>
<totfact> 0.67783955E+06</totfact>
</mgrwt>
</event>
<event>
 4    1  0.7841599E+004  0.3222157E+02  0.7546771E-02  0.1574755E+00
         21   -1    0    0  503  502  0.00000000000E+00  0.00000000000E+00  0.21161608266E+03  0.21161608266E+03  0.00000000000E+00 0. -1.
         21   -1    0    0  501  503 -0.00000000000E+00 -0.00000000000E+00 -0.64912191121E+01  0.64912191121E+01  0.00000000000E+00 0. -1.
          3    1    1    2  501    0 -0.25355279662E+02  0.19883141281E+02  0.48674045919E+02  0.58372872638E+02  0.00000000000E+00 0.  1.
         -3    1    1    2    0  502  0.25355279662E+02 -0.19883141281E+02  0.15645081763E+03  0.15973442914E+03  0.00000000000E+00 0. -1.
<mgrwt>
<rscale>  2 0.32221569E+02</rscale>
<asrwt>0</asrwt>
<pdfrwt beam="1">  1       21 0.32556315E-01 0.32221569E+02</pdfrwt>
<pdfrwt beam="2">  1       21 0.99864925E-03 0.32221569E+02</pdfrwt>
<totfact> 0.27626334E+07</totfact>
</mgrwt>
</event>
<event>
 4    1  0.7841599E+004  0.2947846E+02  0.7546771E-02  0.1603926E+00
         21   -1    0    0  503  502  0.00000000000E+00  0.00000000000E+00  0.12543253418E+03  0.12543253418E+03  0.00000000000E+00 0.  1.
         21   -1    0    0  501  503 -0.00000000000E+00 -0.00000000000E+00 -0.71981732504E+01  0.71981732504E+01  0.00000000000E+00 0.  1.
          3    1    1    2  501    0  0.10327476924E+02  0.27610194428E+02  0.71968061329E+02  0.77771340913E+02  0.00000000000E+00 0.  1.
         -3    1    1    2    0  502 -0.10327476924E+02 -0.27610194428E+02  0.46266299601E+02  0.54859366518E+02  0.00000000000E+00 0. -1.
<mgrwt>
<rscale>  2 0.29478460E+02</rscale>
<asrwt>0</asrwt>
<pdfrwt beam="1">  1       21 0.19297311E-01 0.29478460E+02</pdfrwt>
<pdfrwt beam="2">  1       21 0.11074114E-02 0.29478460E+02</pdfrwt>
<totfact> 0.59673394E+07</totfact>
</mgrwt>
</event>
<event>
 4    1  0.7841599E+004  0.2448427E+02  0.7546771E-02  0.1668522E+00
         21   -1    0    0  501  502  0.00000000000E+00  0.00000000000E+00  0.28658870851E+03  0.28658870851E+03  0.00000000000E+00 0.  1.
         21   -1    0    0  502  503 -0.00000000000E+00 -0.00000000000E+00 -0.24590081199E+01  0.24590081199E+01  0.00000000000E+00 0.  1.
          4    1    1    2  501    0 -0.58634859660E+01  0.23771812215E+02  0.19791567666E+03  0.19942440822E+03  0.00000000000E+00 0. -1.
         -4    1    1    2    0  503  0.58634859660E+01 -0.23771812215E+02  0.86214023724E+02  0.89623308410E+02  0.00000000000E+00 0.  1.
<mgrwt>
<rscale>  2 0.24484271E+02</rscale>
<asrwt>0</asrwt>
<pdfrwt beam="1">  1       21 0.44090544E-01 0.24484271E+02</pdfrwt>
<pdfrwt beam="2">  1       21 0.37830917E-03 0.24484271E+02</pdfrwt>
<totfact> 0.62700722E+07</totfact>
</mgrwt>
</event>
<event>
 4    1  0.7841599E+004  0.2602057E+02  0.7546771E-02  0.1646761E+00
         21   -1    0    0  503  502  0.00000000000E+00  0.00000000000E+00  0.28825248427E+02  0.28825248427E+02  0.00000000000E+00 0.  1.
         21   -1    0    0  501  503 -0.00000000000E+00 -0.00000000000E+00 -0.23492312388E+02  0.23492312388E+02  0.00000000000E+00 0.  1.
          5    1    1    2  501    0 -0.76554554674E+01  0.24868938534E+02  0.23459908220E+01  0.26126112898E+02  0.00000000000E+00 0.  1.
         -5    1    1    2    0  502  0.76554554674E+01 -0.24868938534E+02  0.29869452175E+01  0.26191447917E+02  0.00000000000E+00 0. -1.
<mgrwt>
<rscale>  2 0.26020571E+02</rscale>
<asrwt>0</asrwt>
<pdfrwt beam="1">  1       21 0.44346536E-02 0.26020571E+02</pdfrwt>
<pdfrwt beam="2">  1       21 0.36142019E-02 0.26020571E+02</pdfrwt>
<totfact> 0.10726357E+08</totfact>
</mgrwt>
</event>
<event>
 4    1  0.7841599E+004  0.2345016E+02  0.7546771E-02  0.1684315E+00
         21   -1    0    0  501  502  0.00000000000E+00  0.00000000000E+00  0.30781113944E+00  0.30781113944E+00  0.00000000000E+00 0. -1.
         21   -1    0    0  502  503 -0.00000000000E+00 -0.00000000000E+00 -0.21020064831E+04  0.21020064831E+04  0.00000000000E+00 0. -1.
          2    1    1    2  501    0  0.12385836827E+02  0.19912335375E+02 -0.14580819687E+04  0.14582705296E+04  0.00000000000E+00 0. -1.
         -2    1    1    2    0  503 -0.12385836827E+02 -0.19912335375E+02 -0.64361670325E+03  0.64404376463E+03  0.00000000000E+00 0.  1.
<mgrwt>
<rscale>  2 0.23450161E+02</rscale>
<asrwt>0</asrwt>
<pdfrwt beam="1">  1       21 0.47356749E-04 0.23450161E+02</pdfrwt>
<pdfrwt beam="2">  1       21 0.32337749E+00 0.23450161E+02</pdfrwt>
<totfact> 0.10786796E+07</totfact>
</mgrwt>
</event>
<event>
 4    1  0.7841599E+004  0.3556809E+02  0.7546771E-02  0.1543613E+00
         21   -1    0    0  501  502  0.00000000000E+00  0.00000000000E+00  0.54359764864E+02  0.54359764864E+02  0.00000000000E+00 0. -1.
         21   -1    0    0  502  503 -0.00000000000E+00 -0.00000000000E+00 -0.23745087720E+02  0.23745087720E+02  0.00000000000E+00 0. -1.
          4    1    1    2  501    0 -0.17138399376E+02 -0.31166722381E+02  0.20816532607E+02  0.41211859299E+02  0.00000000000E+00 0. -1.
         -4    1    1    2    0  503  0.17138399376E+02  0.31166722381E+02  0.97981445364E+01  0.36892993285E+02  0.00000000000E+00 0.  1.
<mgrwt>
<rscale>  2 0.35568094E+02</rscale>
<asrwt>0</asrwt>
<pdfrwt beam="1">  1       21 0.83630407E-02 0.35568094E+02</pdfrwt>
<pdfrwt beam="2">  1       21 0.36530904E-02 0.35568094E+02</pdfrwt>
<totfact> 0.40439696E+07</totfact>
</mgrwt>
</event>
<event>
 4    1  0.7841599E+004  0.6358971E+02  0.7546771E-02  0.1383356E+00
         21   -1    0    0  501  502  0.00000000000E+00  0.00000000000E+00  0.12363650014E+03  0.12363650014E+03  0.00000000000E+00 0.  1.
         21   -1    0    0  502  503 -0.00000000000E+00 -0.00000000000E+00 -0.40058329071E+02  0.40058329071E+02  0.00000000000E+00 0.  1.
          5    1    1    2  501    0 -0.21028851124E+02  0.60011989271E+02  0.67242376224E+01  0.63944247649E+02  0.00000000000E+00 0.  1.
         -5    1    1    2    0  503  0.21028851124E+02 -0.60011989271E+02  0.76853933445E+02  0.99750581561E+02  0.00000000000E+00 0. -1.
<mgrwt>
<rscale>  2 0.63589712E+02</rscale>
<asrwt>0</asrwt>
<pdfrwt beam="1">  1       21 0.19021000E-01 0.63589712E+02</pdfrwt>
<pdfrwt beam="2">  1       21 0.61628199E-02 0.63589712E+02</pdfrwt>
<totfact> 0.45032881E+06</totfact>
</mgrwt>
</event>
<event>
 4    1  0.7841599E+004  0.2660351E+02  0.7546771E-02  0.1638984E+00
         21   -1    0    0  501  502  0.00000000000E+00  0.00000000000E+00  0.17767884325E+02  0.17767884325E+02  0.00000000000E+00 0. -1.
         21   -1    0    0  502  503 -0.00000000000E+00 -0.00000000000E+00 -0.41469708589E+02  0.41469708589E+02  0.00000000000E+00 0. -1.
          4    1    1    2  501    0  0.14320211830E+02  0.22420488264E+02 -0.17735253596E+02  0.31973207236E+02  0.00000000000E+00 0.  1.
         -4    1    1    2    0  503 -0.14320211830E+02 -0.22420488264E+02 -0.59665706688E+01  0.27264385678E+02  0.00000000000E+00 0. -1.
<mgrwt>
<rscale>  2 0.26603510E+02</rscale>
<asrwt>0</asrwt>
<pdfrwt beam="1">  1       21 0.27335207E-02 0.26603510E+02</pdfrwt>
<pdfrwt beam="2">  1       21 0.63799551E-02 0.26603510E+02</pdfrwt>
<totfact> 0.93243526E+07</totfact>
</mgrwt>
</event>
<event>
 4    1  0.7841599E+004  0.3061064E+02  0.7546771E-02  0.1591435E+00
         21   -1    0    0  501  502  0.00000000000E+00  0.00000000000E+00  0.13124599797E+02  0.13124599797E+02  0.00000000000E+00 0.  1.
         21   -1    0    0  502  503 -0.00000000000E+00 -0.00000000000E+00 -0.74369788147E+02  0.74369788147E+02  0.00000000000E+00 0.  1.
          4    1    1    2  501    0  0.30534302205E+02 -0.21605173504E+01 -0.39374196563E+02  0.49873227301E+02  0.00000000000E+00 0. -1.
         -4    1    1    2    0  503 -0.30534302205E+02  0.21605173504E+01 -0.21870991787E+02  0.37621160643E+02  0.00000000000E+00 0.  1.
<mgrwt>
<rscale>  2 0.30610643E+02</rscale>
<asrwt>0</asrwt>
<pdfrwt beam="1">  1       21 0.20191692E-02 0.30610643E+02</pdfrwt>
<pdfrwt beam="2">  1       21 0.11441506E-01 0.30610643E+02</pdfrwt>
<totfact> 0.58848390E+07</totfact>
</mgrwt>
</event>
<event>
 4    1  0.7841599E+004  0.2972494E+02  0.7546771E-02  0.1601149E+00
         21   -1    0    0  501  502  0.00000000000E+00  0.00000000000E+00  0.64972742756E+00  0.64972742756E+00  0.00000000000E+00 0.  1.
         21   -1    0    0  502  503 -0.00000000000E+00 -0.00000000000E+00 -0.15933849640E+04  0.15933849640E+04  0.00000000000E+00 0.  1.
          2    1    1    2  501    0  0.13828615311E+01  0.29692752777E+02 -0.11014562850E+04  0.11018573046E+04  0.00000000000E+00 0. -1.
         -2    1    1    2    0  503 -0.13828615311E+01 -0.29692752777E+02 -0.49127895156E+03  0.49217738684E+03  0.00000000000E+00 0.  1.
<mgrwt>
<rscale>  2 0.29724937E+02</rscale>
<asrwt>0</asrwt>
<pdfrwt beam="1">  1       21 0.99958943E-04 0.29724937E+02</pdfrwt>
<pdfrwt beam="2">  1       21 0.24513400E+00 0.29724937E+02</pdfrwt>
<totfact> 0.91615179E+06</totfact>
</mgrwt>
</event>
<event>
 4    1  0.7841599E+004  0.2419745E+02  0.7546771E-02  0.1672804E+00
         21   -1    0    0  501  502  0.00000000000E+00  0.00000000000E+00  0.75292831672E+01  0.75292831672E+01  0.00000000000E+00 0. -1.
         21   -1    0    0  502  503 -0.00000000000E+00 -0.00000000000E+00 -0.14120382421E+03  0.14120382421E+03  0.00000000000E+00 0. -1.
          3    1    1    2  501    0  0.28995934338E+01 -0.24023089635E+02 -0.11668337038E+03  0.11916595739E+03  0.00000000000E+00 0. -1.
         -3    1    1    2    0  503 -0.28995934338E+01  0.24023089635E+02 -0.16991170657E+02  0.29567149981E+02  0.00000000000E+00 0.  1.
<mgrwt>
<rscale>  2 0.24197448E+02</rscale>
<asrwt>0</asrwt>
<pdfrwt beam="1">  1       21 0.11583514E-02 0.24197448E+02</pdfrwt>
<pdfrwt beam="2">  1       21 0.21723662E-01 0.24197448E+02</pdfrwt>
<totfact> 0.43247028E+07</totfact>
</mgrwt>
</event>
<event>
 4    1  0.7841599E+004  0.2870301E+02  0.7546771E-02  0.1612884E+00
         21   -1    0    0  503  502  0.00000000000E+00  0.00000000000E+00  0.11079752135E+02  0.11079752135E+02  0.00000000000E+00 0.  1.
         21   -1    0    0  501  503 -0.00000000000E+00 -0.00000000000E+00 -0.79302632817E+02  0.79302632817E+02  0.00000000000E+00 0.  1.
          5    1    1    2  501    0 -0.24962338797E+02  0.14168437588E+02 -0.22826539690E+02  0.36673067722E+02  0.00000000000E+00 0. -1.
         -5    1    1    2    0  502  0.24962338797E+02 -0.14168437588E+02 -0.45396340992E+02  0.53709317230E+02  0.00000000000E+00 0.  1.
<mgrwt>
<rscale>  2 0.28703013E+02</rscale>
<asrwt>0</asrwt>
<pdfrwt beam="1">  1       21 0.17045773E-02 0.28703013E+02</pdfrwt>
<pdfrwt beam="2">  1       21 0.12200405E-01 0.28703013E+02</pdfrwt>
<totfact> 0.67578022E+07</totfact>
</mgrwt>
</event>
<event>
 4    1  0.7841599E+004  0.3374444E+02  0.7546771E-02  0.1560042E+00
         21   -1    0    0  501  502  0.00000000000E+00  0.00000000000E+00  0.18715835201E+02  0.18715835201E+02  0.00000000000E+00 0. -1.
         21   -1    0    0  502  503 -0.00000000000E+00 -0.00000000000E+00 -0.64322623960E+02  0.64322623960E+02  0.00000000000E+00 0. -1.
          3    1    1    2  501    0  0.29169278725E+02 -0.16965853087E+02 -0.32463209073E+02  0.46824640262E+02  0.00000000000E+00 0.  1.
         -3    1    1    2    0  503 -0.29169278725E+02  0.16965853087E+02 -0.13143579685E+02  0.36213818899E+02  0.00000000000E+00 0. -1.
<mgrwt>
<rscale>  2 0.33744436E+02</rscale>
<asrwt>0</asrwt>
<pdfrwt beam="1">  1       21 0.28793593E-02 0.33744436E+02</pdfrwt>
<pdfrwt beam="2">  1       21 0.98957881E-02 0.33744436E+02</pdfrwt>
<totfact> 0.44045807E+07</totfact>
</mgrwt>
</event>
<event>
 4    1  0.7841599E+004  0.2147161E+02  0.7546771E-02  0.1717554E+00
         21   -1    0    0  501  502  0.00000000000E+00  0.00000000000E+00  0.39704484747E+03  0.39704484747E+03  0.00000000000E+00 0.  1.
         21   -1    0    0  502  503 -0.00000000000E+00 -0.00000000000E+00 -0.13403349340E+01  0.13403349340E+01  0.00000000000E+00 0.  1.
          5    1    1    2  501    0 -0.12493881471E+02 -0.17462335157E+02  0.27068260317E+03  0.27153287440E+03  0.00000000000E+00 0.  1.
         -5    1    1    2    0  503  0.12493881471E+02  0.17462335157E+02  0.12502190937E+03  0.12685230800E+03  0.00000000000E+00 0. -1.
<mgrwt>
<rscale>  2 0.21471614E+02</rscale>
<asrwt>0</asrwt>
<pdfrwt beam="1">  1       21 0.61083729E-01 0.21471614E+02</pdfrwt>
<pdfrwt beam="2">  1       21 0.20620569E-03 0.21471614E+02</pdfrwt>
<totfact> 0.77586064E+07</totfact>
</mgrwt>
</event>
<event>
 4    1  0.7841599E+004  0.2735677E+02  0.7546771E-02  0.1629289E+00
         21   -1    0    0  503  502  0.00000000000E+00  0.00000000000E+00  0.23302337009E+01  0.23302337009E+01  0.00000000000E+00 0. -1.
         21   -1    0    0  501  503 -0.00000000000E+00 -0.00000000000E+00 -0.45197557662E+03  0.45197557662E+03  0.00000000000E+00 0. -1.
          4    1    1    2  501    0  0.65817103794E+01 -0.26553228810E+02 -0.34702510218E+03  0.34810172998E+03  0.00000000000E+00 0.  1.
         -4    1    1    2    0  502 -0.65817103794E+01  0.26553228810E+02 -0.10262024074E+03  0.10620408034E+03  0.00000000000E+00 0. -1.
<mgrwt>
<rscale>  2 0.27356770E+02</rscale>
<asrwt>0</asrwt>
<pdfrwt beam="1">  1       21 0.35849721E-03 0.27356770E+02</pdfrwt>
<pdfrwt beam="2">  1       21 0.69534758E-01 0.27356770E+02</pdfrwt>
<totfact> 0.28110401E+07</totfact>
</mgrwt>
</event>
<event>
 4    1  0.7841599E+004  0.3112779E+02  0.7546771E-02  0.1585947E+00
         21   -1    0    0  503  502  0.00000000000E+00  0.00000000000E+00  0.47631324026E+01  0.47631324026E+01  0.00000000000E+00 0.  1.
         21   -1    0    0  501  503 -0.00000000000E+00 -0.00000000000E+00 -0.20389770285E+03  0.20389770285E+03  0.00000000000E+00 0.  1.
          4    1    1    2  501    0 -0.26330114908E+02  0.16603152410E+02 -0.10459135414E+03  0.10912511618E+03  0.00000000000E+00 0.  1.
         -4    1    1    2    0  502  0.26330114908E+02 -0.16603152410E+02 -0.94543216305E+02  0.99535719068E+02  0.00000000000E+00 0. -1.
<mgrwt>
<rscale>  2 0.31127795E+02</rscale>
<asrwt>0</asrwt>
<pdfrwt beam="1">  1       21 0.73278973E-03 0.31127795E+02</pdfrwt>
<pdfrwt beam="2">  1       21 0.31368872E-01 0.31127795E+02</pdfrwt>
<totfact> 0.46947200E+07</totfact>
</mgrwt>
</event>
<event>
 4    1  0.7841599E+004  0.2014101E+02  0.7546771E-02  0.1742538E+00
         21   -1    0    0  503  502  0.00000000000E+00  0.00000000000E+00  0.98695038966E+02  0.98695038966E+02  0.00000000000E+00 0.  1.
         21   -1    0    0  501  503 -0.00000000000E+00 -0.00000000000E+00 -0.41403002696E+01  0.41403002696E+01  0.00000000000E+00 0.  1.
          2    1    1    2  501    0  0.53429871010E+01 -0.19419395121E+02  0.42896260487E+02  0.47389340382E+02  0.00000000000E+00 0. -1.
         -2    1    1    2    0  502 -0.53429871010E+01  0.19419395121E+02  0.51658478209E+02  0.55445998854E+02  0.00000000000E+00 0.  1.
<mgrwt>
<rscale>  2 0.20141013E+02</rscale>
<asrwt>0</asrwt>
<pdfrwt beam="1">  1       21 0.15183850E-01 0.20141013E+02</pdfrwt>
<pdfrwt beam="2">  1       21 0.63696935E-03 0.20141013E+02</pdfrwt>
<totfact> 0.18639296E+08</totfact>
</mgrwt>
</event>
<event>
 4    1  0.7841599E+004  0.1063993E+03  0.7546771E-02  0.1267387E+00
         21   -1    0    0  501  502  0.00000000000E+00  0.00000000000E+00  0.45896825323E+03  0.45896825323E+03  0.00000000000E+00 0. -1.
         21   -1    0    0  502  503 -0.00000000000E+00 -0.00000000000E+00 -0.30810907572E+02  0.30810907572E+02  0.00000000000E+00 0. -1.
          3    1    1    2  501    0 -0.53093057787E+02  0.92205999154E+02  0.10471255098E+03  0.14928341301E+03  0.00000000000E+00 0. -1.
         -3    1    1    2    0  503  0.53093057787E+02 -0.92205999154E+02  0.32344479467E+03  0.34049574779E+03  0.00000000000E+00 0.  1.
<mgrwt>
<rscale>  2 0.10639934E+03</rscale>
<asrwt>0</asrwt>
<pdfrwt beam="1">  1       21 0.70610496E-01 0.10639934E+03</pdfrwt>
<pdfrwt beam="2">  1       21 0.47401400E-02 0.10639934E+03</pdfrwt>
<totfact> 0.54112055E+05</totfact>
</mgrwt>
</event>
<event>
 4    1  0.7841599E+004  0.2684311E+02  0.7546771E-02  0.1635858E+00
         21   -1    0    0  501  502  0.00000000000E+00  0.00000000000E+00  0.27390213380E+02  0.27390213380E+02  0.00000000000E+00 0.  1.
         21   -1    0    0  502  503 -0.00000000000E+00 -0.00000000000E+00 -0.27632377568E+02  0.27632377568E+02  0.00000000000E+00 0.  1.
          1    1    1    2  501    0  0.85960350171E+01 -0.25429522088E+02  0.59042817458E+01  0.27484776778E+02  0.00000000000E+00 0. -1.
         -1    1    1    2    0  503 -0.85960350171E+01  0.25429522088E+02 -0.61464459332E+01  0.27537814169E+02  0.00000000000E+00 0.  1.
<mgrwt>
<rscale>  2 0.26843107E+02</rscale>
<asrwt>0</asrwt>
<pdfrwt beam="1">  1       21 0.42138790E-02 0.26843107E+02</pdfrwt>
<pdfrwt beam="2">  1       21 0.42511350E-02 0.26843107E+02</pdfrwt>
<totfact> 0.90718068E+07</totfact>
</mgrwt>
</event>
<event>
 4    1  0.7841599E+004  0.2561209E+02  0.7546771E-02  0.1652363E+00
         21   -1    0    0  501  502  0.00000000000E+00  0.00000000000E+00  0.43432678667E+02  0.43432678667E+02  0.00000000000E+00 0.  1.
         21   -1    0    0  502  503 -0.00000000000E+00 -0.00000000000E+00 -0.17763548928E+02  0.17763548928E+02  0.00000000000E+00 0.  1.
          4    1    1    2  501    0  0.25391898863E+02  0.33512161519E+01  0.24675511171E+02  0.35564870717E+02  0.00000000000E+00 0. -1.
         -4    1    1    2    0  503 -0.25391898863E+02 -0.33512161519E+01  0.99361856862E+00  0.25631356878E+02  0.00000000000E+00 0.  1.
<mgrwt>
<rscale>  2 0.25612090E+02</rscale>
<asrwt>0</asrwt>
<pdfrwt beam="1">  1       21 0.66819505E-02 0.25612090E+02</pdfrwt>
<pdfrwt beam="2">  1       21 0.27328537E-02 0.25612090E+02</pdfrwt>
<totfact> 0.85691129E+07</totfact>
</mgrwt>
</event>
<event>
 4    1  0.7841599E+004  0.3421152E+02  0.7546771E-02  0.1555716E+00
         21   -1    0    0  503  502  0.00000000000E+00  0.00000000000E+00  0.97356509656E+02  0.97356509656E+02  0.00000000000E+00 0.  1.
         21   -1    0    0  501  503 -0.00000000000E+00 -0.00000000000E+00 -0.12944405046E+02  0.12944405046E+02  0.00000000000E+00 0.  1.
          4    1    1    2  501    0 -0.20676979218E+02  0.27256021243E+02  0.27484653889E+02  0.43884329356E+02  0.00000000000E+00 0. -1.
         -4    1    1    2    0  502  0.20676979218E+02 -0.27256021243E+02  0.56927450721E+02  0.66416585347E+02  0.00000000000E+00 0.  1.
<mgrwt>
<rscale>  2 0.34211521E+02</rscale>
<asrwt>0</asrwt>
<pdfrwt beam="1">  1       21 0.14977924E-01 0.34211521E+02</pdfrwt>
<pdfrwt beam="2">  1       21 0.19914470E-02 0.34211521E+02</pdfrwt>
<totfact> 0.38844838E+07</totfact>
</mgrwt>
</event>
<event>
 4    1  0.7841599E+004  0.2220739E+02  0.7546771E-02  0.1704690E+00
         21   -1    0    0  503  502  0.00000000000E+00  0.00000000000E+00  0.29279045740E+01  0.29279045740E+01  0.00000000000E+00 0. -1.
         21   -1    0    0  501  503 -0.00000000000E+00 -0.00000000000E+00 -0.18586352800E+03  0.18586352800E+03  0.00000000000E+00 0. -1.
          1    1    1    2  501    0  0.20536764178E+02 -0.84504052538E+01 -0.62563794307E+02  0.66388224784E+02  0.00000000000E+00 0.  1.
         -1    1    1    2    0  502 -0.20536764178E+02  0.84504052538E+01 -0.12037182912E+03  0.12240320779E+03  0.00000000000E+00 0. -1.
<mgrwt>
<rscale>  2 0.22207387E+02</rscale>
<asrwt>0</asrwt>
<pdfrwt beam="1">  1       21 0.45044683E-03 0.22207387E+02</pdfrwt>
<pdfrwt beam="2">  1       21 0.28594391E-01 0.22207387E+02</pdfrwt>
<totfact> 0.10578791E+08</totfact>
</mgrwt>
</event>
<event>
 4    1  0.7841599E+004  0.2349764E+02  0.7546771E-02  0.1683568E+00
         21   -1    0    0  501  502  0.00000000000E+00  0.00000000000E+00  0.14258993590E+01  0.14258993590E+01  0.00000000000E+00 0.  1.
         21   -1    0    0  502  503 -0.00000000000E+00 -0.00000000000E+00 -0.47305671661E+03  0.47305671661E+03  0.00000000000E+00 0.  1.
          2    1    1    2  501    0  0.83292571633E+01  0.21971860048E+02 -0.33687230996E+03  0.33769082365E+03  0.00000000000E+00 0. -1.
         -2    1    1    2    0  503 -0.83292571633E+01 -0.21971860048E+02 -0.13475850729E+03  0.13679179232E+03  0.00000000000E+00 0.  1.
<mgrwt>
<rscale>  2 0.23497642E+02</rscale>
<asrwt>0</asrwt>
<pdfrwt beam="1">  1       21 0.21936915E-03 0.23497642E+02</pdfrwt>
<pdfrwt beam="2">  1       21 0.72777950E-01 0.23497642E+02</pdfrwt>
<totfact> 0.50789771E+07</totfact>
</mgrwt>
</event>
<event>
 4    1  0.7841599E+004  0.2314645E+02  0.7546771E-02  0.1689147E+00
         21   -1    0    0  501  502  0.00000000000E+00  0.00000000000E+00  0.15600945849E+03  0.15600945849E+03  0.00000000000E+00 0.  1.
         21   -1    0    0  502  503 -0.00000000000E+00 -0.00000000000E+00 -0.55327434614E+01  0.55327434614E+01  0.00000000000E+00 0.  1.
          3    1    1    2  501    0  0.20570405178E+02 -0.10612088762E+02  0.25493161822E+02  0.34433403793E+02  0.00000000000E+00 0. -1.
         -3    1    1    2    0  503 -0.20570405178E+02  0.10612088762E+02  0.12498355321E+03  0.12710879816E+03  0.00000000000E+00 0.  1.
<mgrwt>
<rscale>  2 0.23146447E+02</rscale>
<asrwt>0</asrwt>
<pdfrwt beam="1">  1       21 0.24001452E-01 0.23146447E+02</pdfrwt>
<pdfrwt beam="2">  1       21 0.85119142E-03 0.23146447E+02</pdfrwt>
<totfact> 0.56977704E+07</totfact>
</mgrwt>
</event>
<event>
 4    1  0.7841599E+004  0.2550508E+02  0.7546771E-02  0.1653852E+00
         21   -1    0    0  501  502  0.00000000000E+00  0.00000000000E+00  0.54003993871E+02  0.54003993871E+02  0.00000000000E+00 0. -1.
         21   -1    0    0  502  503 -0.00000000000E+00 -0.00000000000E+00 -0.12367744450E+02  0.12367744450E+02  0.00000000000E+00 0. -1.
          3    1    1    2  501    0 -0.20977258150E+02  0.14507365221E+02  0.26174266147E+02  0.36545878201E+02  0.00000000000E+00 0. -1.
         -3    1    1    2    0  503  0.20977258150E+02 -0.14507365221E+02  0.15461983273E+02  0.29825860120E+02  0.00000000000E+00 0.  1.
<mgrwt>
<rscale>  2 0.25505078E+02</rscale>
<asrwt>0</asrwt>
<pdfrwt beam="1">  1       21 0.83083067E-02 0.25505078E+02</pdfrwt>
<pdfrwt beam="2">  1       21 0.19027299E-02 0.25505078E+02</pdfrwt>
<totfact> 0.10504629E+08</totfact>
</mgrwt>
</event>
<event>
 4    1  0.7841599E+004  0.2277447E+02  0.7546771E-02  0.1695192E+00
         21   -1    0    0  503  502  0.00000000000E+00  0.00000000000E+00  0.20282972641E+01  0.20282972641E+01  0.00000000000E+00 0.  1.
         21   -1    0    0  501  503 -0.00000000000E+00 -0.00000000000E+00 -0.26474507165E+03  0.26474507165E+03  0.00000000000E+00 0.  1.
          1    1    1    2  501    0  0.22381351542E+02 -0.42132408944E+01 -0.15598600752E+03  0.15763981362E+03  0.00000000000E+00 0. -1.
         -1    1    1    2    0  502 -0.22381351542E+02  0.42132408944E+01 -0.10673076686E+03  0.10913355529E+03  0.00000000000E+00 0.  1.
<mgrwt>
<rscale>  2 0.22774466E+02</rscale>
<asrwt>0</asrwt>
<pdfrwt beam="1">  1       21 0.31204583E-03 0.22774466E+02</pdfrwt>
<pdfrwt beam="2">  1       21 0.40729999E-01 0.22774466E+02</pdfrwt>
<totfact> 0.94881727E+07</totfact>
</mgrwt>
</event>
<event>
 4    1  0.7841599E+004  0.2221085E+02  0.7546771E-02  0.1704631E+00
         21   -1    0    0  501  502  0.00000000000E+00  0.00000000000E+00  0.21553148184E+03  0.21553148184E+03  0.00000000000E+00 0.  1.
         21   -1    0    0  502  503 -0.00000000000E+00 -0.00000000000E+00 -0.22976098265E+01  0.22976098265E+01  0.00000000000E+00 0.  1.
          3    1    1    2  501    0 -0.21571422882E+02  0.52910900940E+01  0.11333719787E+03  0.11549304022E+03  0.00000000000E+00 0.  1.
         -3    1    1    2    0  503  0.21571422882E+02 -0.52910900940E+01  0.99896674147E+02  0.10233605144E+03  0.00000000000E+00 0. -1.
<mgrwt>
<rscale>  2 0.22210851E+02</rscale>
<asrwt>0</asrwt>
<pdfrwt beam="1">  1       21 0.33158674E-01 0.22210851E+02</pdfrwt>
<pdfrwt beam="2">  1       21 0.35347860E-03 0.22210851E+02</pdfrwt>
<totfact> 0.11522238E+08</totfact>
</mgrwt>
</event>
<event>
 4    1  0.7841599E+004  0.2035440E+02  0.7546771E-02  0.1738371E+00
         21   -1    0    0  501  502  0.00000000000E+00  0.00000000000E+00  0.44723874453E+00  0.44723874453E+00  0.00000000000E+00 0.  1.
         21   -1    0    0  502  503 -0.00000000000E+00 -0.00000000000E+00 -0.99445100696E+03  0.99445100696E+03  0.00000000000E+00 0.  1.
          5    1    1    2  501    0 -0.19849652104E+02  0.45047592942E+01 -0.62717459567E+03  0.62750480078E+03  0.00000000000E+00 0. -1.
         -5    1    1    2    0  503  0.19849652104E+02 -0.45047592942E+01 -0.36682917254E+03  0.36739344493E+03  0.00000000000E+00 0.  1.
<mgrwt>
<rscale>  2 0.20354399E+02</rscale>
<asrwt>0</asrwt>
<pdfrwt beam="1">  1       21 0.68806556E-04 0.20354399E+02</pdfrwt>
<pdfrwt beam="2">  1       21 0.15299114E+00 0.20354399E+02</pdfrwt>
<totfact> 0.49968593E+07</totfact>
</mgrwt>
</event>
<event>
 4    1  0.7841599E+004  0.2041652E+02  0.7546771E-02  0.1737170E+00
         21   -1    0    0  501  502  0.00000000000E+00  0.00000000000E+00  0.31000856060E+02  0.31000856060E+02  0.00000000000E+00 0. -1.
         21   -1    0    0  502  503 -0.00000000000E+00 -0.00000000000E+00 -0.13866852122E+02  0.13866852122E+02  0.00000000000E+00 0. -1.
          4    1    1    2  501    0 -0.20194350331E+02 -0.30037813856E+01  0.46583229085E+01  0.20941214392E+02  0.00000000000E+00 0.  1.
         -4    1    1    2    0  503  0.20194350331E+02  0.30037813856E+01  0.12475681029E+02  0.23926493789E+02  0.00000000000E+00 0. -1.
<mgrwt>
<rscale>  2 0.20416525E+02</rscale>
<asrwt>0</asrwt>
<pdfrwt beam="1">  1       21 0.47693624E-02 0.20416525E+02</pdfrwt>
<pdfrwt beam="2">  1       21 0.21333619E-02 0.20416525E+02</pdfrwt>
<totfact> 0.20155459E+08</totfact>
</mgrwt>
</event>
<event>
 4    1  0.7841599E+004  0.2584254E+02  0.7546771E-02  0.1649187E+00
         21   -1    0    0  503  502  0.00000000000E+00  0.00000000000E+00  0.10774281964E+02  0.10774281964E+02  0.00000000000E+00 0.  1.
         21   -1    0    0  501  503 -0.00000000000E+00 -0.00000000000E+00 -0.62530993249E+02  0.62530993249E+02  0.00000000000E+00 0.  1.
          2    1    1    2  501    0 -0.10783571530E+02  0.23485134788E+02 -0.29305288786E+02  0.39072201394E+02  0.00000000000E+00 0. -1.
         -2    1    1    2    0  502  0.10783571530E+02 -0.23485134788E+02 -0.22451422500E+02  0.34233073820E+02  0.00000000000E+00 0.  1.
<mgrwt>
<rscale>  2 0.25842542E+02</rscale>
<asrwt>0</asrwt>
<pdfrwt beam="1">  1       21 0.16575818E-02 0.25842542E+02</pdfrwt>
<pdfrwt beam="2">  1       21 0.96201529E-02 0.25842542E+02</pdfrwt>
<totfact> 0.10226964E+08</totfact>
</mgrwt>
</event>
<event>
 4    1  0.7841599E+004  0.2426234E+02  0.7546771E-02  0.1671829E+00
         21   -1    0    0  503  502  0.00000000000E+00  0.00000000000E+00  0.85555333957E+01  0.85555333957E+01  0.00000000000E+00 0.  1.
         21   -1    0    0  501  503 -0.00000000000E+00 -0.00000000000E+00 -0.81487387848E+02  0.81487387848E+02  0.00000000000E+00 0.  1.
          2    1    1    2  501    0 -0.19208939841E+02 -0.14821529827E+02 -0.18704428103E+02  0.30635220693E+02  0.00000000000E+00 0. -1.
         -2    1    1    2    0  502  0.19208939841E+02  0.14821529827E+02 -0.54227426349E+02  0.59407700551E+02  0.00000000000E+00 0.  1.
<mgrwt>
<rscale>  2 0.24262339E+02</rscale>
<asrwt>0</asrwt>
<pdfrwt beam="1">  1       21 0.13162358E-02 0.24262339E+02</pdfrwt>
<pdfrwt beam="2">  1       21 0.12536522E-01 0.24262339E+02</pdfrwt>
<totfact> 0.91849746E+07</totfact>
</mgrwt>
</event>
<event>
 4    1  0.7841599E+004  0.5161493E+02  0.7546771E-02  0.1436821E+00
         21   -1    0    0  503  502  0.00000000000E+00  0.00000000000E+00  0.20147529625E+02  0.20147529625E+02  0.00000000000E+00 0. -1.
         21   -1    0    0  501  503 -0.00000000000E+00 -0.00000000000E+00 -0.16069895316E+03  0.16069895316E+03  0.00000000000E+00 0. -1.
          5    1    1    2  501    0  0.34599394874E+02  0.38301212704E+02 -0.10833510664E+03  0.12000248477E+03  0.00000000000E+00 0. -1.
         -5    1    1    2    0  502 -0.34599394874E+02 -0.38301212704E+02 -0.32216316896E+02  0.60843998016E+02  0.00000000000E+00 0.  1.
<mgrwt>
<rscale>  2 0.51614930E+02</rscale>
<asrwt>0</asrwt>
<pdfrwt beam="1">  1       21 0.30996200E-02 0.51614930E+02</pdfrwt>
<pdfrwt beam="2">  1       21 0.24722915E-01 0.51614930E+02</pdfrwt>
<totfact> 0.84195613E+06</totfact>
</mgrwt>
</event>
<event>
 4    1  0.7841599E+004  0.2441935E+02  0.7546771E-02  0.1669485E+00
         21   -1    0    0  503  502  0.00000000000E+00  0.00000000000E+00  0.32122198813E+02  0.32122198813E+02  0.00000000000E+00 0.  1.
         21   -1    0    0  501  503 -0.00000000000E+00 -0.00000000000E+00 -0.19053641322E+02  0.19053641322E+02  0.00000000000E+00 0.  1.
          4    1    1    2  501    0  0.24386189299E+02  0.12722676532E+01  0.24308661468E+01  0.24540048976E+02  0.00000000000E+00 0. -1.
         -4    1    1    2    0  502 -0.24386189299E+02 -0.12722676532E+01  0.10637691344E+02  0.26635791159E+02  0.00000000000E+00 0.  1.
<mgrwt>
<rscale>  2 0.24419355E+02</rscale>
<asrwt>0</asrwt>
<pdfrwt beam="1">  1       21 0.49418767E-02 0.24419355E+02</pdfrwt>
<pdfrwt beam="2">  1       21 0.29313294E-02 0.24419355E+02</pdfrwt>
<totfact> 0.12321350E+08</totfact>
</mgrwt>
</event>
<event>
 4    1  0.7841599E+004  0.3574920E+02  0.7546771E-02  0.1542046E+00
         21   -1    0    0  503  502  0.00000000000E+00  0.00000000000E+00  0.16382770082E+03  0.16382770082E+03  0.00000000000E+00 0.  1.
         21   -1    0    0  501  503 -0.00000000000E+00 -0.00000000000E+00 -0.80498806495E+01  0.80498806495E+01  0.00000000000E+00 0.  1.
          5    1    1    2  501    0 -0.20884767529E+01 -0.35688147422E+02  0.62775370504E+02  0.72240935372E+02  0.00000000000E+00 0.  1.
         -5    1    1    2    0  502  0.20884767529E+01  0.35688147422E+02  0.93002449671E+02  0.99636646101E+02  0.00000000000E+00 0. -1.
<mgrwt>
<rscale>  2 0.35749204E+02</rscale>
<asrwt>0</asrwt>
<pdfrwt beam="1">  1       21 0.25204259E-01 0.35749204E+02</pdfrwt>
<pdfrwt beam="2">  1       21 0.12384433E-02 0.35749204E+02</pdfrwt>
<totfact> 0.32459162E+07</totfact>
</mgrwt>
</event>
<event>
 4    1  0.7841599E+004  0.3212763E+02  0.7546771E-02  0.1575695E+00
         21   -1    0    0  501  502  0.00000000000E+00  0.00000000000E+00  0.62210506519E+01  0.62210506519E+01  0.00000000000E+00 0. -1.
         21   -1    0    0  502  503 -0.00000000000E+00 -0.00000000000E+00 -0.19538781019E+03  0.19538781019E+03  0.00000000000E+00 0. -1.
          3    1    1    2  501    0 -0.31695754128E+02  0.52500973766E+01 -0.13373227163E+03  0.13753728523E+03  0.00000000000E+00 0.  1.
         -3    1    1    2    0  503  0.31695754128E+02 -0.52500973766E+01 -0.55434487911E+02  0.64071575618E+02  0.00000000000E+00 0. -1.
<mgrwt>
<rscale>  2 0.32127626E+02</rscale>
<asrwt>0</asrwt>
<pdfrwt beam="1">  1       21 0.95708479E-03 0.32127626E+02</pdfrwt>
<pdfrwt beam="2">  1       21 0.30059661E-01 0.32127626E+02</pdfrwt>
<totfact> 0.34145187E+07</totfact>
</mgrwt>
</event>
<event>
 4    1  0.7841599E+004  0.2102011E+02  0.7546771E-02  0.1725771E+00
         21   -1    0    0  501  502  0.00000000000E+00  0.00000000000E+00  0.14492368447E+04  0.14492368447E+04  0.00000000000E+00 0.  1.
         21   -1    0    0  502  503 -0.00000000000E+00 -0.00000000000E+00 -0.33549989155E+00  0.33549989155E+00  0.00000000000E+00 0.  1.
          5    1    1    2  501    0  0.14836257477E+02 -0.14890619316E+02  0.50549461424E+03  0.50593146779E+03  0.00000000000E+00 0.  1.
         -5    1    1    2    0  503 -0.14836257477E+02  0.14890619316E+02  0.94340673057E+03  0.94364087680E+03  0.00000000000E+00 0. -1.
<mgrwt>
<rscale>  2 0.21020111E+02</rscale>
<asrwt>0</asrwt>
<pdfrwt beam="1">  1       21 0.22295450E+00 0.21020111E+02</pdfrwt>
<pdfrwt beam="2">  1       21 0.51616528E-04 0.21020111E+02</pdfrwt>
<totfact> 0.29423317E+07</totfact>
</mgrwt>
</event>
<event>
 4    1  0.7841599E+004  0.2064047E+02  0.7546771E-02  0.1732883E+00
         21   -1    0    0  503  502  0.00000000000E+00  0.00000000000E+00  0.53729109572E+01  0.53729109572E+01  0.00000000000E+00 0. -1.
         21   -1    0    0  501  503 -0.00000000000E+00 -0.00000000000E+00 -0.11411368217E+03  0.11411368217E+03  0.00000000000E+00 0. -1.
          3    1    1    2  501    0  0.12695360209E+02  0.16274422103E+02 -0.21368021924E+02  0.29708943882E+02  0.00000000000E+00 0. -1.
         -3    1    1    2    0  502 -0.12695360209E+02 -0.16274422103E+02 -0.87372749284E+02  0.89777649240E+02  0.00000000000E+00 0.  1.
<mgrwt>
<rscale>  2 0.20640470E+02</rscale>
<asrwt>0</asrwt>
<pdfrwt beam="1">  1       21 0.82660166E-03 0.20640470E+02</pdfrwt>
<pdfrwt beam="2">  1       21 0.17555952E-01 0.20640470E+02</pdfrwt>
<totfact> 0.99619737E+07</totfact>
</mgrwt>
</event>
<event>
 4    1  0.7841599E+004  0.2033287E+02  0.7546771E-02  0.1738788E+00
         21   -1    0    0  501  502  0.00000000000E+00  0.00000000000E+00  0.28589868755E+00  0.28589868755E+00  0.00000000000E+00 0.  1.
         21   -1    0    0  502  503 -0.00000000000E+00 -0.00000000000E+00 -0.16226390129E+04  0.16226390129E+04  0.00000000000E+00 0.  1.
          2    1    1    2  501    0  0.19327648803E+00 -0.20331954162E+02 -0.10788658873E+04  0.10790574723E+04  0.00000000000E+00 0.  1.
         -2    1    1    2    0  503 -0.19327648803E+00  0.20331954162E+02 -0.54348722691E+03  0.54386743930E+03  0.00000000000E+00 0. -1.
<mgrwt>
<rscale>  2 0.20332873E+02</rscale>
<asrwt>0</asrwt>
<pdfrwt beam="1">  1       21 0.43985068E-04 0.20332873E+02</pdfrwt>
<pdfrwt beam="2">  1       21 0.24963306E+00 0.20332873E+02</pdfrwt>
<totfact> 0.26908637E+07</totfact>
</mgrwt>
</event>
<event>
 4    1  0.7841599E+004  0.2284547E+02  0.7546771E-02  0.1694027E+00
         21   -1    0    0  503  502  0.00000000000E+00  0.00000000000E+00  0.53412632460E+02  0.53412632460E+02  0.00000000000E+00 0. -1.
         21   -1    0    0  501  503 -0.00000000000E+00 -0.00000000000E+00 -0.14149640357E+02  0.14149640357E+02  0.00000000000E+00 0. -1.
          2    1    1    2  501    0  0.14767107997E+02 -0.17431232763E+02  0.38422593158E+02  0.44701353662E+02  0.00000000000E+00 0. -1.
         -2    1    1    2    0  502 -0.14767107997E+02  0.17431232763E+02  0.84039894573E+00  0.22860919155E+02  0.00000000000E+00 0.  1.
<mgrwt>
<rscale>  2 0.22845467E+02</rscale>
<asrwt>0</asrwt>
<pdfrwt beam="1">  1       21 0.82173279E-02 0.22845467E+02</pdfrwt>
<pdfrwt beam="2">  1       21 0.21768678E-02 0.22845467E+02</pdfrwt>
<totfact> 0.84367040E+07</totfact>
</mgrwt>
</event>
<event>
 4    1  0.7841599E+004  0.2022834E+02  0.7546771E-02  0.1740825E+00
         21   -1    0    0  503  502  0.00000000000E+00  0.00000000000E+00  0.21792494708E+02  0.21792494708E+02  0.00000000000E+00 0.  1.
         21   -1    0    0  501  503 -0.00000000000E+00 -0.00000000000E+00 -0.22342329839E+02  0.22342329839E+02  0.00000000000E+00 0.  1.
          2    1    1    2  501    0 -0.17236310986E+02 -0.10587515865E+02 -0.90908836972E+01  0.22177242276E+02  0.00000000000E+00 0.  1.
         -2    1    1    2    0  502  0.17236310986E+02  0.10587515865E+02  0.85410485662E+01  0.21957582271E+02  0.00000000000E+00 0. -1.
<mgrwt>
<rscale>  2 0.20228344E+02</rscale>
<asrwt>0</asrwt>
<pdfrwt beam="1">  1       21 0.33526915E-02 0.20228344E+02</pdfrwt>
<pdfrwt beam="2">  1       21 0.34372815E-02 0.20228344E+02</pdfrwt>
<totfact> 0.16723318E+08</totfact>
</mgrwt>
</event>
<event>
 4    1  0.7841599E+004  0.3024450E+02  0.7546771E-02  0.1595402E+00
         21   -1    0    0  503  502  0.00000000000E+00  0.00000000000E+00  0.11090516706E+03  0.11090516706E+03  0.00000000000E+00 0.  1.
         21   -1    0    0  501  503 -0.00000000000E+00 -0.00000000000E+00 -0.85605659215E+01  0.85605659215E+01  0.00000000000E+00 0.  1.
          3    1    1    2  501    0 -0.23710417926E+02  0.18776209339E+02  0.62588781982E+02  0.69513204395E+02  0.00000000000E+00 0. -1.
         -3    1    1    2    0  502  0.23710417926E+02 -0.18776209339E+02  0.39755819159E+02  0.49952528589E+02  0.00000000000E+00 0.  1.
<mgrwt>
<rscale>  2 0.30244503E+02</rscale>
<asrwt>0</asrwt>
<pdfrwt beam="1">  1       21 0.17062332E-01 0.30244503E+02</pdfrwt>
<pdfrwt beam="2">  1       21 0.13170102E-02 0.30244503E+02</pdfrwt>
<totfact> 0.57140276E+07</totfact>
</mgrwt>
</event>
<event>
 4    1  0.7841599E+004  0.2010153E+02  0.7546771E-02  0.1743316E+00
         21   -1    0    0  501  502  0.00000000000E+00  0.00000000000E+00  0.10389639422E+02  0.10389639422E+02  0.00000000000E+00 0. -1.
         21   -1    0    0  502  503 -0.00000000000E+00 -0.00000000000E+00 -0.44595119017E+02  0.44595119017E+02  0.00000000000E+00 0. -1.
          1    1    1    2  501    0 -0.19658797522E+02  0.41956238507E+01 -0.72709355402E+01  0.21376110103E+02  0.00000000000E+00 0. -1.
         -1    1    1    2    0  503  0.19658797522E+02 -0.41956238507E+01 -0.26934544055E+02  0.33608648336E+02  0.00000000000E+00 0.  1.
<mgrwt>
<rscale>  2 0.20101532E+02</rscale>
<asrwt>0</asrwt>
<pdfrwt beam="1">  1       21 0.15984060E-02 0.20101532E+02</pdfrwt>
<pdfrwt beam="2">  1       21 0.68607876E-02 0.20101532E+02</pdfrwt>
<totfact> 0.17432290E+08</totfact>
</mgrwt>
</event>
<event>
 4    1  0.7841599E+004  0.2188741E+02  0.7546771E-02  0.1710207E+00
         21   -1    0    0  503  502  0.00000000000E+00  0.00000000000E+00  0.37969528802E+03  0.37969528802E+03  0.00000000000E+00 0.  1.
         21   -1    0    0  501  503 -0.00000000000E+00 -0.00000000000E+00 -0.13441768126E+01  0.13441768126E+01  0.00000000000E+00 0.  1.
          4    1    1    2  501    0 -0.11373805405E+02 -0.18700136665E+02  0.23637081630E+03  0.23738201566E+03  0.00000000000E+00 0. -1.
         -4    1    1    2    0  502  0.11373805405E+02  0.18700136665E+02  0.14198029491E+03  0.14365744918E+03  0.00000000000E+00 0.  1.
<mgrwt>
<rscale>  2 0.21887406E+02</rscale>
<asrwt>0</asrwt>
<pdfrwt beam="1">  1       21 0.58414574E-01 0.21887406E+02</pdfrwt>
<pdfrwt beam="2">  1       21 0.20679674E-03 0.21887406E+02</pdfrwt>
<totfact> 0.84874101E+07</totfact>
</mgrwt>
</event>
<event>
 4    1  0.7841599E+004  0.3144407E+02  0.7546771E-02  0.1582654E+00
         21   -1    0    0  503  502  0.00000000000E+00  0.00000000000E+00  0.10440348063E+02  0.10440348063E+02  0.00000000000E+00 0. -1.
         21   -1    0    0  501  503 -0.00000000000E+00 -0.00000000000E+00 -0.96899647168E+02  0.96899647168E+02  0.00000000000E+00 0. -1.
          2    1    1    2  501    0  0.30922524141E+02 -0.57032519125E+01 -0.51310856029E+02  0.60179178526E+02  0.00000000000E+00 0.  1.
         -2    1    1    2    0  502 -0.30922524141E+02  0.57032519125E+01 -0.35148443076E+02  0.47160816705E+02  0.00000000000E+00 0. -1.
<mgrwt>
<rscale>  2 0.31444071E+02</rscale>
<asrwt>0</asrwt>
<pdfrwt beam="1">  1       21 0.16062075E-02 0.31444071E+02</pdfrwt>
<pdfrwt beam="2">  1       21 0.14907637E-01 0.31444071E+02</pdfrwt>
<totfact> 0.53679836E+07</totfact>
</mgrwt>
</event>
<event>
 4    1  0.7841599E+004  0.3195332E+02  0.7546771E-02  0.1577449E+00
         21   -1    0    0  503  502  0.00000000000E+00  0.00000000000E+00  0.49723653370E+01  0.49723653370E+01  0.00000000000E+00 0. -1.
         21   -1    0    0  501  503 -0.00000000000E+00 -0.00000000000E+00 -0.34496574405E+03  0.34496574405E+03  0.00000000000E+00 0. -1.
          5    1    1    2  501    0 -0.79730068443E+01  0.30942618814E+02 -0.58680212864E+02  0.66816030105E+02  0.00000000000E+00 0. -1.
         -5    1    1    2    0  502  0.79730068443E+01 -0.30942618814E+02 -0.28131316585E+03  0.28312207929E+03  0.00000000000E+00 0.  1.
<mgrwt>
<rscale>  2 0.31953317E+02</rscale>
<asrwt>0</asrwt>
<pdfrwt beam="1">  1       21 0.76497929E-03 0.31953317E+02</pdfrwt>
<pdfrwt beam="2">  1       21 0.53071652E-01 0.31953317E+02</pdfrwt>
<totfact> 0.16144537E+07</totfact>
</mgrwt>
</event>
<event>
 4    1  0.7841599E+004  0.6025213E+02  0.7546771E-02  0.1396777E+00
         21   -1    0    0  501  502  0.00000000000E+00  0.00000000000E+00  0.80861745624E+02  0.80861745624E+02  0.00000000000E+00 0. -1.
         21   -1    0    0  502  503 -0.00000000000E+00 -0.00000000000E+00 -0.63166627153E+02  0.63166627153E+02  0.00000000000E+00 0. -1.
          1    1    1    2  501    0  0.32553518492E+02  0.50700961740E+02 -0.29883401322E+02  0.67255756349E+02  0.00000000000E+00 0.  1.
         -1    1    1    2    0  503 -0.32553518492E+02 -0.50700961740E+02  0.47578519794E+02  0.76772616428E+02  0.00000000000E+00 0. -1.
<mgrwt>
<rscale>  2 0.60252129E+02</rscale>
<asrwt>0</asrwt>
<pdfrwt beam="1">  1       21 0.12440269E-01 0.60252129E+02</pdfrwt>
<pdfrwt beam="2">  1       21 0.97179427E-02 0.60252129E+02</pdfrwt>
<totfact> 0.44083465E+06</totfact>
</mgrwt>
</event>
<event>
 4    1  0.7841599E+004  0.2089538E+02  0.7546771E-02  0.1728087E+00
         21   -1    0    0  503  502  0.00000000000E+00  0.00000000000E+00  0.25026295166E+03  0.25026295166E+03  0.00000000000E+00 0.  1.
         21   -1    0    0  501  503 -0.00000000000E+00 -0.00000000000E+00 -0.17597786889E+01  0.17597786889E+01  0.00000000000E+00 0.  1.
          4    1    1    2  501    0  0.16111381739E+02  0.13305648460E+02  0.11256114186E+03  0.11448418039E+03  0.00000000000E+00 0. -1.
         -4    1    1    2    0  502 -0.16111381739E+02 -0.13305648460E+02  0.13594203111E+03  0.13753854996E+03  0.00000000000E+00 0.  1.
<mgrwt>
<rscale>  2 0.20895380E+02</rscale>
<asrwt>0</asrwt>
<pdfrwt beam="1">  1       21 0.38501964E-01 0.20895380E+02</pdfrwt>
<pdfrwt beam="2">  1       21 0.27073538E-03 0.20895380E+02</pdfrwt>
<totfact> 0.12662407E+08</totfact>
</mgrwt>
</event>
<event>
 4    1  0.7841599E+004  0.2962456E+02  0.7546771E-02  0.1602276E+00
         21   -1    0    0  501  502  0.00000000000E+00  0.00000000000E+00  0.13577711828E+02  0.13577711828E+02  0.00000000000E+00 0. -1.
         21   -1    0    0  502  503 -0.00000000000E+00 -0.00000000000E+00 -0.64861587005E+02  0.64861587005E+02  0.00000000000E+00 0. -1.
          2    1    1    2  501    0  0.12832826423E+02 -0.26700805965E+02 -0.23331058110E+02  0.37708788707E+02  0.00000000000E+00 0. -1.
         -2    1    1    2    0  503 -0.12832826423E+02  0.26700805965E+02 -0.27952817067E+02  0.40730510127E+02  0.00000000000E+00 0.  1.
<mgrwt>
<rscale>  2 0.29624559E+02</rscale>
<asrwt>0</asrwt>
<pdfrwt beam="1">  1       21 0.20888788E-02 0.29624559E+02</pdfrwt>
<pdfrwt beam="2">  1       21 0.99787056E-02 0.29624559E+02</pdfrwt>
<totfact> 0.69738816E+07</totfact>
</mgrwt>
</event>
<event>
 4    1  0.7841599E+004  0.2560876E+02  0.7546771E-02  0.1652409E+00
         21   -1    0    0  503  502  0.00000000000E+00  0.00000000000E+00  0.38205725589E+02  0.38205725589E+02  0.00000000000E+00 0.  1.
         21   -1    0    0  501  503 -0.00000000000E+00 -0.00000000000E+00 -0.28342055333E+02  0.28342055333E+02  0.00000000000E+00 0.  1.
          2    1    1    2  501    0 -0.92246681246E+01  0.23889618991E+02 -0.15963435134E+02  0.30176806637E+02  0.00000000000E+00 0. -1.
         -2    1    1    2    0  502  0.92246681246E+01 -0.23889618991E+02  0.25827105391E+02  0.36370974284E+02  0.00000000000E+00 0.  1.
<mgrwt>
<rscale>  2 0.25608756E+02</rscale>
<asrwt>0</asrwt>
<pdfrwt beam="1">  1       21 0.58778040E-02 0.25608756E+02</pdfrwt>
<pdfrwt beam="2">  1       21 0.43603162E-02 0.25608756E+02</pdfrwt>
<totfact> 0.50566200E+07</totfact>
</mgrwt>
</event>
<event>
 4    1  0.7841599E+004  0.3012063E+02  0.7546771E-02  0.1596759E+00
         21   -1    0    0  501  502  0.00000000000E+00  0.00000000000E+00  0.32458518346E+03  0.32458518346E+03  0.00000000000E+00 0.  1.
         21   -1    0    0  502  503 -0.00000000000E+00 -0.00000000000E+00 -0.34173493599E+01  0.34173493599E+01  0.00000000000E+00 0.  1.
          3    1    1    2  501    0  0.25310934856E+02 -0.16328158709E+02  0.23056493992E+03  0.23252407125E+03  0.00000000000E+00 0.  1.
         -3    1    1    2    0  503 -0.25310934856E+02  0.16328158709E+02  0.90602894186E+02  0.95478461576E+02  0.00000000000E+00 0. -1.
<mgrwt>
<rscale>  2 0.30120627E+02</rscale>
<asrwt>0</asrwt>
<pdfrwt beam="1">  1       21 0.49936158E-01 0.30120627E+02</pdfrwt>
<pdfrwt beam="2">  1       21 0.52574631E-03 0.30120627E+02</pdfrwt>
<totfact> 0.31620235E+07</totfact>
</mgrwt>
</event>
<event>
 4    1  0.7841599E+004  0.2112485E+02  0.7546771E-02  0.1723842E+00
         21   -1    0    0  503  502  0.00000000000E+00  0.00000000000E+00  0.17865623394E+02  0.17865623394E+02  0.00000000000E+00 0. -1.
         21   -1    0    0  501  503 -0.00000000000E+00 -0.00000000000E+00 -0.27671373206E+02  0.27671373206E+02  0.00000000000E+00 0. -1.
          1    1    1    2  501    0 -0.84039567138E+01 -0.19381250372E+02 -0.12005419719E+02  0.24297931127E+02  0.00000000000E+00 0.  1.
         -1    1    1    2    0  502  0.84039567138E+01  0.19381250372E+02  0.21996699067E+01  0.21239065472E+02  0.00000000000E+00 0. -1.
<mgrwt>
<rscale>  2 0.21124852E+02</rscale>
<asrwt>0</asrwt>
<pdfrwt beam="1">  1       21 0.27485575E-02 0.21124852E+02</pdfrwt>
<pdfrwt beam="2">  1       21 0.42571343E-02 0.21124852E+02</pdfrwt>
<totfact> 0.16506115E+08</totfact>
</mgrwt>
</event>
<event>
 4    1  0.7841599E+004  0.2198885E+02  0.7546771E-02  0.1708445E+00
         21   -1    0    0  503  502  0.00000000000E+00  0.00000000000E+00  0.35392076347E+03  0.35392076347E+03  0.00000000000E+00 0.  1.
         21   -1    0    0  501  503 -0.00000000000E+00 -0.00000000000E+00 -0.15514257892E+01  0.15514257892E+01  0.00000000000E+00 0.  1.
          4    1    1    2  501    0 -0.43262809722E+00  0.21984591575E+02  0.11476357648E+03  0.11685113573E+03  0.00000000000E+00 0.  1.
         -4    1    1    2    0  502  0.43262809722E+00 -0.21984591575E+02  0.23760576120E+03  0.23862105353E+03  0.00000000000E+00 0. -1.
<mgrwt>
<rscale>  2 0.21988848E+02</rscale>
<asrwt>0</asrwt>
<pdfrwt beam="1">  1       21 0.54449284E-01 0.21988848E+02</pdfrwt>
<pdfrwt beam="2">  1       21 0.23868117E-03 0.21988848E+02</pdfrwt>
<totfact> 0.79360088E+07</totfact>
</mgrwt>
</event>
<event>
 4    1  0.7841599E+004  0.2340798E+02  0.7546771E-02  0.1684981E+00
         21   -1    0    0  501  502  0.00000000000E+00  0.00000000000E+00  0.69701788888E+02  0.69701788888E+02  0.00000000000E+00 0. -1.
         21   -1    0    0  502  503 -0.00000000000E+00 -0.00000000000E+00 -0.78630724864E+01  0.78630724864E+01  0.00000000000E+00 0. -1.
          3    1    1    2  501    0 -0.22767895450E+02  0.54365869739E+01  0.31531800489E+02  0.39270701333E+02  0.00000000000E+00 0.  1.
         -3    1    1    2    0  503  0.22767895450E+02 -0.54365869739E+01  0.30306915912E+02  0.38294160041E+02  0.00000000000E+00 0. -1.
<mgrwt>
<rscale>  2 0.23407980E+02</rscale>
<asrwt>0</asrwt>
<pdfrwt beam="1">  1       21 0.10723352E-01 0.23407980E+02</pdfrwt>
<pdfrwt beam="2">  1       21 0.12097035E-02 0.23407980E+02</pdfrwt>
<totfact> 0.13416399E+08</totfact>
</mgrwt>
</event>
<event>
 4    1  0.7841599E+004  0.2851583E+02  0.7546771E-02  0.1615098E+00
         21   -1    0    0  501  502  0.00000000000E+00  0.00000000000E+00  0.70180871018E+01  0.70180871018E+01  0.00000000000E+00 0. -1.
         21   -1    0    0  502  503 -0.00000000000E+00 -0.00000000000E+00 -0.11898208017E+03  0.11898208017E+03  0.00000000000E+00 0. -1.
          5    1    1    2  501    0 -0.19703087116E+02  0.20614099111E+02 -0.66178560883E+02  0.72060770497E+02  0.00000000000E+00 0.  1.
         -5    1    1    2    0  503  0.19703087116E+02 -0.20614099111E+02 -0.45785432186E+02  0.53939396776E+02  0.00000000000E+00 0. -1.
<mgrwt>
<rscale>  2 0.28515833E+02</rscale>
<asrwt>0</asrwt>
<pdfrwt beam="1">  1       21 0.10797057E-02 0.28515833E+02</pdfrwt>
<pdfrwt beam="2">  1       21 0.18304936E-01 0.28515833E+02</pdfrwt>
<totfact> 0.67495849E+07</totfact>
</mgrwt>
</event>
<event>
 4    1  0.7841599E+004  0.3573294E+02  0.7546771E-02  0.1542187E+00
         21   -1    0    0  501  502  0.00000000000E+00  0.00000000000E+00  0.20331444614E+02  0.20331444614E+02  0.00000000000E+00 0.  1.
         21   -1    0    0  502  503 -0.00000000000E+00 -0.00000000000E+00 -0.62818422057E+02  0.62818422057E+02  0.00000000000E+00 0.  1.
          5    1    1    2  501    0 -0.17326626961E+02  0.31251098252E+02 -0.20559072358E+02  0.41225218011E+02  0.00000000000E+00 0.  1.
         -5    1    1    2    0  503  0.17326626961E+02 -0.31251098252E+02 -0.21927905085E+02  0.41924648660E+02  0.00000000000E+00 0. -1.
<mgrwt>
<rscale>  2 0.35732942E+02</rscale>
<asrwt>0</asrwt>
<pdfrwt beam="1">  1       21 0.31279146E-02 0.35732942E+02</pdfrwt>
<pdfrwt beam="2">  1       21 0.96643724E-02 0.35732942E+02</pdfrwt>
<totfact> 0.40679664E+07</totfact>
</mgrwt>
</event>
<event>
 4    1  0.7841599E+004  0.2857523E+02  0.7546771E-02  0.1614393E+00
         21   -1    0    0  503  502  0.00000000000E+00  0.00000000000E+00  0.88043446413E+01  0.88043446413E+01  0.00000000000E+00 0.  1.
         21   -1    0    0  501  503 -0.00000000000E+00 -0.00000000000E+00 -0.10826672024E+03  0.10826672024E+03  0.00000000000E+00 0.  1.
          2    1    1    2  501    0  0.28518301444E+02 -0.18028640191E+01 -0.27566275713E+02  0.39704450539E+02  0.00000000000E+00 0. -1.
         -2    1    1    2    0  502 -0.28518301444E+02  0.18028640191E+01 -0.71896099885E+02  0.77366614341E+02  0.00000000000E+00 0.  1.
<mgrwt>
<rscale>  2 0.28575231E+02</rscale>
<asrwt>0</asrwt>
<pdfrwt beam="1">  1       21 0.13545146E-02 0.28575231E+02</pdfrwt>
<pdfrwt beam="2">  1       21 0.16656418E-01 0.28575231E+02</pdfrwt>
<totfact> 0.56355675E+07</totfact>
</mgrwt>
</event>
<event>
 4    1  0.7841599E+004  0.2493984E+02  0.7546771E-02  0.1661867E+00
         21   -1    0    0  503  502  0.00000000000E+00  0.00000000000E+00  0.10708693994E+04  0.10708693994E+04  0.00000000000E+00 0. -1.
         21   -1    0    0  501  503 -0.00000000000E+00 -0.00000000000E+00 -0.95637692601E+00  0.95637692601E+00  0.00000000000E+00 0. -1.
          3    1    1    2  501    0  0.68255194331E+01  0.23987663257E+02  0.87077943777E+03  0.87113651338E+03  0.00000000000E+00 0. -1.
         -3    1    1    2    0  502 -0.68255194331E+01 -0.23987663257E+02  0.19913358473E+03  0.20068926297E+03  0.00000000000E+00 0.  1.
<mgrwt>
<rscale>  2 0.24939842E+02</rscale>
<asrwt>0</asrwt>
<pdfrwt beam="1">  1       21 0.16474818E+00 0.24939842E+02</pdfrwt>
<pdfrwt beam="2">  1       21 0.14713577E-03 0.24939842E+02</pdfrwt>
<totfact> 0.14702150E+07</totfact>
</mgrwt>
</event>
<event>
 4    1  0.7841599E+004  0.2429531E+02  0.7546771E-02  0.1671335E+00
         21   -1    0    0  503  502  0.00000000000E+00  0.00000000000E+00  0.79813873271E+02  0.79813873271E+02  0.00000000000E+00 0.  1.
         21   -1    0    0  501  503 -0.00000000000E+00 -0.00000000000E+00 -0.85700005857E+01  0.85700005857E+01  0.00000000000E+00 0.  1.
          5    1    1    2  501    0 -0.14042987889E+02 -0.19825654906E+02  0.19261967600E+02  0.31004604451E+02  0.00000000000E+00 0.  1.
         -5    1    1    2    0  502  0.14042987889E+02  0.19825654906E+02  0.51981905085E+02  0.57379269406E+02  0.00000000000E+00 0. -1.
<mgrwt>
<rscale>  2 0.24295310E+02</rscale>
<asrwt>0</asrwt>
<pdfrwt beam="1">  1       21 0.12279057E-01 0.24295310E+02</pdfrwt>
<pdfrwt beam="2">  1       21 0.13184617E-02 0.24295310E+02</pdfrwt>
<totfact> 0.94904685E+07</totfact>
</mgrwt>
</event>
<event>
 4    1  0.7841599E+004  0.2115549E+02  0.7546771E-02  0.1723280E+00
         21   -1    0    0  501  502  0.00000000000E+00  0.00000000000E+00  0.84479616822E+02  0.84479616822E+02  0.00000000000E+00 0. -1.
         21   -1    0    0  502  503 -0.00000000000E+00 -0.00000000000E+00 -0.55472937510E+01  0.55472937510E+01  0.00000000000E+00 0. -1.
          5    1    1    2  501    0 -0.20512834681E+02  0.51747900771E+01  0.29919649146E+02  0.36643420201E+02  0.00000000000E+00 0.  1.
         -5    1    1    2    0  503  0.20512834681E+02 -0.51747900771E+01  0.49012673925E+02  0.53383490372E+02  0.00000000000E+00 0. -1.
<mgrwt>
<rscale>  2 0.21155492E+02</rscale>
<asrwt>0</asrwt>
<pdfrwt beam="1">  1       21 0.12996863E-01 0.21155492E+02</pdfrwt>
<pdfrwt beam="2">  1       21 0.85342987E-03 0.21155492E+02</pdfrwt>
<totfact> 0.15937393E+08</totfact>
</mgrwt>
</event>
<event>
 4    1  0.7841599E+004  0.2633309E+02  0.7546771E-02  0.1642561E+00
         21   -1    0    0  503  502  0.00000000000E+00  0.00000000000E+00  0.14815405601E+02  0.14815405601E+02  0.00000000000E+00 0.  1.
         21   -1    0    0  501  503 -0.00000000000E+00 -0.00000000000E+00 -0.46861338756E+02  0.46861338756E+02  0.00000000000E+00 0.  1.
          1    1    1    2  501    0  0.16470500358E+02  0.20546387866E+02 -0.14951377754E+02  0.30281597268E+02  0.00000000000E+00 0. -1.
         -1    1    1    2    0  502 -0.16470500358E+02 -0.20546387866E+02 -0.17094555400E+02  0.31395147089E+02  0.00000000000E+00 0.  1.
<mgrwt>
<rscale>  2 0.26333086E+02</rscale>
<asrwt>0</asrwt>
<pdfrwt beam="1">  1       21 0.22792932E-02 0.26333086E+02</pdfrwt>
<pdfrwt beam="2">  1       21 0.72094367E-02 0.26333086E+02</pdfrwt>
<totfact> 0.10111964E+08</totfact>
</mgrwt>
</event>
<event>
 4    1  0.7841599E+004  0.2406208E+02  0.7546771E-02  0.1674851E+00
         21   -1    0    0  503  502  0.00000000000E+00  0.00000000000E+00  0.25309235433E+02  0.25309235433E+02  0.00000000000E+00 0. -1.
         21   -1    0    0  501  503 -0.00000000000E+00 -0.00000000000E+00 -0.23596458512E+02  0.23596458512E+02  0.00000000000E+00 0. -1.
          1    1    1    2  501    0 -0.18921814393E+02  0.14864345586E+02 -0.34152476240E+01  0.24303245585E+02  0.00000000000E+00 0.  1.
         -1    1    1    2    0  502  0.18921814393E+02 -0.14864345586E+02  0.51280245449E+01  0.24602448361E+02  0.00000000000E+00 0. -1.
<mgrwt>
<rscale>  2 0.24062083E+02</rscale>
<asrwt>0</asrwt>
<pdfrwt beam="1">  1       21 0.38937285E-02 0.24062083E+02</pdfrwt>
<pdfrwt beam="2">  1       21 0.36302244E-02 0.24062083E+02</pdfrwt>
<totfact> 0.12809296E+08</totfact>
</mgrwt>
</event>
<event>
 4    1  0.7841599E+004  0.2089097E+02  0.7546771E-02  0.1728169E+00
         21   -1    0    0  503  502  0.00000000000E+00  0.00000000000E+00  0.33420083010E+02  0.33420083010E+02  0.00000000000E+00 0. -1.
         21   -1    0    0  501  503 -0.00000000000E+00 -0.00000000000E+00 -0.13127903290E+02  0.13127903290E+02  0.00000000000E+00 0. -1.
          1    1    1    2  501    0 -0.18127613512E+02  0.10383752329E+02  0.11832294051E+02  0.24009078837E+02  0.00000000000E+00 0.  1.
         -1    1    1    2    0  502  0.18127613512E+02 -0.10383752329E+02  0.84598856690E+01  0.22538907463E+02  0.00000000000E+00 0. -1.
<mgrwt>
<rscale>  2 0.20890971E+02</rscale>
<asrwt>0</asrwt>
<pdfrwt beam="1">  1       21 0.51415512E-02 0.20890971E+02</pdfrwt>
<pdfrwt beam="2">  1       21 0.20196774E-02 0.20890971E+02</pdfrwt>
<totfact> 0.19601592E+08</totfact>
</mgrwt>
</event>
<event>
 4    1  0.7841599E+004  0.2057981E+02  0.7546771E-02  0.1734038E+00
         21   -1    0    0  501  502  0.00000000000E+00  0.00000000000E+00  0.72176820428E+02  0.72176820428E+02  0.00000000000E+00 0.  1.
         21   -1    0    0  502  503 -0.00000000000E+00 -0.00000000000E+00 -0.67516587086E+01  0.67516587086E+01  0.00000000000E+00 0.  1.
          2    1    1    2  501    0 -0.11240270633E+02 -0.17239049856E+02  0.46990272585E+02  0.51299261608E+02  0.00000000000E+00 0. -1.
         -2    1    1    2    0  503  0.11240270633E+02  0.17239049856E+02  0.18434889134E+02  0.27629217529E+02  0.00000000000E+00 0.  1.
<mgrwt>
<rscale>  2 0.20579809E+02</rscale>
<asrwt>0</asrwt>
<pdfrwt beam="1">  1       21 0.11104126E-01 0.20579809E+02</pdfrwt>
<pdfrwt beam="2">  1       21 0.10387168E-02 0.20579809E+02</pdfrwt>
<totfact> 0.15319581E+08</totfact>
</mgrwt>
</event>
<event>
 4    1  0.7841599E+004  0.2533427E+02  0.7546771E-02  0.1656247E+00
         21   -1    0    0  503  502  0.00000000000E+00  0.00000000000E+00  0.33880445569E+03  0.33880445569E+03  0.00000000000E+00 0. -1.
         21   -1    0    0  501  503 -0.00000000000E+00 -0.00000000000E+00 -0.19713506478E+01  0.19713506478E+01  0.00000000000E+00 0. -1.
          2    1    1    2  501    0 -0.22425366032E+02 -0.11786774740E+02  0.13474885397E+03  0.13710973250E+03  0.00000000000E+00 0. -1.
         -2    1    1    2    0  502  0.22425366032E+02  0.11786774740E+02  0.20208425108E+03  0.20366607384E+03  0.00000000000E+00 0.  1.
<mgrwt>
<rscale>  2 0.25334267E+02</rscale>
<asrwt>0</asrwt>
<pdfrwt beam="1">  1       21 0.52123716E-01 0.25334267E+02</pdfrwt>
<pdfrwt beam="2">  1       21 0.30328498E-03 0.25334267E+02</pdfrwt>
<totfact> 0.63149553E+07</totfact>
</mgrwt>
</event>
<event>
 4    1  0.7841599E+004  0.3073064E+02  0.7546771E-02  0.1590150E+00
         21   -1    0    0  503  502  0.00000000000E+00  0.00000000000E+00  0.28449865637E+02  0.28449865637E+02  0.00000000000E+00 0.  1.
         21   -1    0    0  501  503 -0.00000000000E+00 -0.00000000000E+00 -0.49558665173E+02  0.49558665173E+02  0.00000000000E+00 0.  1.
          5    1    1    2  501    0  0.11853784995E+02 -0.28352420765E+02 -0.32967530978E+02  0.45069169958E+02  0.00000000000E+00 0. -1.
         -5    1    1    2    0  502 -0.11853784995E+02  0.28352420765E+02  0.11858731442E+02  0.32939360852E+02  0.00000000000E+00 0.  1.
<mgrwt>
<rscale>  2 0.30730636E+02</rscale>
<asrwt>0</asrwt>
<pdfrwt beam="1">  1       21 0.43769024E-02 0.30730636E+02</pdfrwt>
<pdfrwt beam="2">  1       21 0.76244100E-02 0.30730636E+02</pdfrwt>
<totfact> 0.34278347E+07</totfact>
</mgrwt>
</event>
<event>
 4    1  0.7841599E+004  0.2711701E+02  0.7546771E-02  0.1632333E+00
         21   -1    0    0  501  502  0.00000000000E+00  0.00000000000E+00  0.30994107921E+02  0.30994107921E+02  0.00000000000E+00 0. -1.
         21   -1    0    0  502  503 -0.00000000000E+00 -0.00000000000E+00 -0.23917005391E+02  0.23917005391E+02  0.00000000000E+00 0. -1.
          5    1    1    2  501    0 -0.82869674595E+01  0.25819725166E+02  0.10779042617E+01  0.27138421379E+02  0.00000000000E+00 0.  1.
         -5    1    1    2    0  503  0.82869674595E+01 -0.25819725166E+02  0.59991982692E+01  0.27772691933E+02  0.00000000000E+00 0. -1.
<mgrwt>
<rscale>  2 0.27117006E+02</rscale>
<asrwt>0</asrwt>
<pdfrwt beam="1">  1       21 0.47683243E-02 0.27117006E+02</pdfrwt>
<pdfrwt beam="2">  1       21 0.36795393E-02 0.27117006E+02</pdfrwt>
<totfact> 0.93897320E+07</totfact>
</mgrwt>
</event>
<event>
 4    1  0.7841599E+004  0.2807204E+02  0.7546771E-02  0.1620433E+00
         21   -1    0    0  501  502  0.00000000000E+00  0.00000000000E+00  0.18361693224E+01  0.18361693224E+01  0.00000000000E+00 0.  1.
         21   -1    0    0  502  503 -0.00000000000E+00 -0.00000000000E+00 -0.52205350468E+03  0.52205350468E+03  0.00000000000E+00 0.  1.
          3    1    1    2  501    0 -0.87093726563E+00  0.28058526758E+02 -0.14962246450E+03  0.15223311511E+03  0.00000000000E+00 0. -1.
         -3    1    1    2    0  503  0.87093726563E+00 -0.28058526758E+02 -0.37059487086E+03  0.37165655888E+03  0.00000000000E+00 0.  1.
<mgrwt>
<rscale>  2 0.28072040E+02</rscale>
<asrwt>0</asrwt>
<pdfrwt beam="1">  1       21 0.28248761E-03 0.28072040E+02</pdfrwt>
<pdfrwt beam="2">  1       21 0.80315918E-01 0.28072040E+02</pdfrwt>
<totfact> 0.29650343E+07</totfact>
</mgrwt>
</event>
<event>
 4    1  0.7841599E+004  0.3196869E+02  0.7546771E-02  0.1577294E+00
         21   -1    0    0  503  502  0.00000000000E+00  0.00000000000E+00  0.50248855321E+01  0.50248855321E+01  0.00000000000E+00 0.  1.
         21   -1    0    0  501  503 -0.00000000000E+00 -0.00000000000E+00 -0.21784631507E+03  0.21784631507E+03  0.00000000000E+00 0.  1.
          5    1    1    2  501    0 -0.25957781866E+02  0.18659861003E+02 -0.77701498388E+02  0.84020948006E+02  0.00000000000E+00 0. -1.
         -5    1    1    2    0  502  0.25957781866E+02 -0.18659861003E+02 -0.13511993115E+03  0.13885025260E+03  0.00000000000E+00 0.  1.
<mgrwt>
<rscale>  2 0.31968685E+02</rscale>
<asrwt>0</asrwt>
<pdfrwt beam="1">  1       21 0.77305935E-03 0.31968685E+02</pdfrwt>
<pdfrwt beam="2">  1       21 0.33514816E-01 0.31968685E+02</pdfrwt>
<totfact> 0.38499791E+07</totfact>
</mgrwt>
</event>
<event>
 4    1  0.7841599E+004  0.2111691E+02  0.7546771E-02  0.1723988E+00
         21   -1    0    0  503  502  0.00000000000E+00  0.00000000000E+00  0.71232597915E+02  0.71232597915E+02  0.00000000000E+00 0. -1.
         21   -1    0    0  501  503 -0.00000000000E+00 -0.00000000000E+00 -0.63913624884E+01  0.63913624884E+01  0.00000000000E+00 0. -1.
          4    1    1    2  501    0  0.20959672494E+02 -0.25721485616E+01  0.37982537103E+02  0.43457990567E+02  0.00000000000E+00 0. -1.
         -4    1    1    2    0  502 -0.20959672494E+02  0.25721485616E+01  0.26858698323E+02  0.34165969837E+02  0.00000000000E+00 0.  1.
<mgrwt>
<rscale>  2 0.21116908E+02</rscale>
<asrwt>0</asrwt>
<pdfrwt beam="1">  1       21 0.10958861E-01 0.21116908E+02</pdfrwt>
<pdfrwt beam="2">  1       21 0.98328658E-03 0.21116908E+02</pdfrwt>
<totfact> 0.17132893E+08</totfact>
</mgrwt>
</event>
<event>
 4    1  0.7841599E+004  0.2719932E+02  0.7546771E-02  0.1631284E+00
         21   -1    0    0  501  502  0.00000000000E+00  0.00000000000E+00  0.61114593017E+02  0.61114593017E+02  0.00000000000E+00 0. -1.
         21   -1    0    0  502  503 -0.00000000000E+00 -0.00000000000E+00 -0.12708686752E+02  0.12708686752E+02  0.00000000000E+00 0. -1.
          1    1    1    2  501    0 -0.41129496200E+01 -0.26886551911E+02  0.32246633058E+02  0.42185878820E+02  0.00000000000E+00 0. -1.
         -1    1    1    2    0  503  0.41129496200E+01  0.26886551911E+02  0.16159273207E+02  0.31637400950E+02  0.00000000000E+00 0.  1.
<mgrwt>
<rscale>  2 0.27199320E+02</rscale>
<asrwt>0</asrwt>
<pdfrwt beam="1">  1       21 0.94022449E-02 0.27199320E+02</pdfrwt>
<pdfrwt beam="2">  1       21 0.19551826E-02 0.27199320E+02</pdfrwt>
<totfact> 0.83516108E+07</totfact>
</mgrwt>
</event>
<event>
 4    1  0.7841599E+004  0.2270575E+02  0.7546771E-02  0.1696325E+00
         21   -1    0    0  503  502  0.00000000000E+00  0.00000000000E+00  0.18004206341E+02  0.18004206341E+02  0.00000000000E+00 0. -1.
         21   -1    0    0  501  503 -0.00000000000E+00 -0.00000000000E+00 -0.28812705435E+02  0.28812705435E+02  0.00000000000E+00 0. -1.
          5    1    1    2  501    0  0.17705351214E+02  0.14215193449E+02 -0.35660992413E+01  0.22984086891E+02  0.00000000000E+00 0.  1.
         -5    1    1    2    0  502 -0.17705351214E+02 -0.14215193449E+02 -0.72423998520E+01  0.23832824885E+02  0.00000000000E+00 0. -1.
<mgrwt>
<rscale>  2 0.22705752E+02</rscale>
<asrwt>0</asrwt>
<pdfrwt beam="1">  1       21 0.27698779E-02 0.22705752E+02</pdfrwt>
<pdfrwt beam="2">  1       21 0.44327239E-02 0.22705752E+02</pdfrwt>
<totfact> 0.15647957E+08</totfact>
</mgrwt>
</event>
<event>
 4    1  0.7841599E+004  0.4485788E+02  0.7546771E-02  0.1475231E+00
         21   -1    0    0  501  502  0.00000000000E+00  0.00000000000E+00  0.13632873685E+02  0.13632873685E+02  0.00000000000E+00 0. -1.
         21   -1    0    0  502  503 -0.00000000000E+00 -0.00000000000E+00 -0.14790120357E+03  0.14790120357E+03  0.00000000000E+00 0. -1.
          1    1    1    2  501    0 -0.10728524578E+02  0.43556036648E+02 -0.63497061798E+02  0.77743851365E+02  0.00000000000E+00 0. -1.
         -1    1    1    2    0  503  0.10728524578E+02 -0.43556036648E+02 -0.70771268088E+02  0.83790225891E+02  0.00000000000E+00 0.  1.
<mgrwt>
<rscale>  2 0.44857882E+02</rscale>
<asrwt>0</asrwt>
<pdfrwt beam="1">  1       21 0.20973652E-02 0.44857882E+02</pdfrwt>
<pdfrwt beam="2">  1       21 0.22754031E-01 0.44857882E+02</pdfrwt>
<totfact> 0.17887320E+07</totfact>
</mgrwt>
</event>
<event>
 4    1  0.7841599E+004  0.2046005E+02  0.7546771E-02  0.1736331E+00
         21   -1    0    0  503  502  0.00000000000E+00  0.00000000000E+00  0.27194428885E+02  0.27194428885E+02  0.00000000000E+00 0.  1.
         21   -1    0    0  501  503 -0.00000000000E+00 -0.00000000000E+00 -0.21174166028E+02  0.21174166028E+02  0.00000000000E+00 0.  1.
          2    1    1    2  501    0  0.18730759864E+02  0.82323827474E+01 -0.96263078521E+01  0.22611485879E+02  0.00000000000E+00 0. -1.
         -2    1    1    2    0  502 -0.18730759864E+02 -0.82323827474E+01  0.15646570710E+02  0.25757109034E+02  0.00000000000E+00 0.  1.
<mgrwt>
<rscale>  2 0.20460046E+02</rscale>
<asrwt>0</asrwt>
<pdfrwt beam="1">  1       21 0.41837583E-02 0.20460046E+02</pdfrwt>
<pdfrwt beam="2">  1       21 0.32575640E-02 0.20460046E+02</pdfrwt>
<totfact> 0.12905659E+08</totfact>
</mgrwt>
</event>
<event>
 4    1  0.7841599E+004  0.3944598E+02  0.7546771E-02  0.1512328E+00
         21   -1    0    0  503  502  0.00000000000E+00  0.00000000000E+00  0.10154623200E+03  0.10154623200E+03  0.00000000000E+00 0. -1.
         21   -1    0    0  501  503 -0.00000000000E+00 -0.00000000000E+00 -0.18051691925E+02  0.18051691925E+02  0.00000000000E+00 0. -1.
          5    1    1    2  501    0 -0.36761637300E+02 -0.14302712875E+02  0.18497551807E+02  0.43567705877E+02  0.00000000000E+00 0.  1.
         -5    1    1    2    0  502  0.36761637300E+02  0.14302712875E+02  0.64996988270E+02  0.76030218050E+02  0.00000000000E+00 0. -1.
<mgrwt>
<rscale>  2 0.39445983E+02</rscale>
<asrwt>0</asrwt>
<pdfrwt beam="1">  1       21 0.15622497E-01 0.39445983E+02</pdfrwt>
<pdfrwt beam="2">  1       21 0.27771834E-02 0.39445983E+02</pdfrwt>
<totfact> 0.21977547E+07</totfact>
</mgrwt>
</event>
<event>
 4    1  0.7841599E+004  0.2082066E+02  0.7546771E-02  0.1729484E+00
         21   -1    0    0  501  502  0.00000000000E+00  0.00000000000E+00  0.57341873691E+01  0.57341873691E+01  0.00000000000E+00 0.  1.
         21   -1    0    0  502  503 -0.00000000000E+00 -0.00000000000E+00 -0.80610154982E+02  0.80610154982E+02  0.00000000000E+00 0.  1.
          4    1    1    2  501    0 -0.18187372536E+02  0.10135049783E+02 -0.48201916036E+02  0.52506423068E+02  0.00000000000E+00 0. -1.
         -4    1    1    2    0  503  0.18187372536E+02 -0.10135049783E+02 -0.26674051578E+02  0.33837919284E+02  0.00000000000E+00 0.  1.
<mgrwt>
<rscale>  2 0.20820657E+02</rscale>
<asrwt>0</asrwt>
<pdfrwt beam="1">  1       21 0.88218269E-03 0.20820657E+02</pdfrwt>
<pdfrwt beam="2">  1       21 0.12401562E-01 0.20820657E+02</pdfrwt>
<totfact> 0.16328132E+08</totfact>
</mgrwt>
</event>
<event>
 4    1  0.7841599E+004  0.2385764E+02  0.7546771E-02  0.1677974E+00
         21   -1    0    0  503  502  0.00000000000E+00  0.00000000000E+00  0.20787529960E+01  0.20787529960E+01  0.00000000000E+00 0.  1.
         21   -1    0    0  501  503 -0.00000000000E+00 -0.00000000000E+00 -0.27645590109E+03  0.27645590109E+03  0.00000000000E+00 0.  1.
          4    1    1    2  501    0 -0.23485585427E+02 -0.41969334290E+01 -0.15080867526E+03  0.15268412985E+03  0.00000000000E+00 0. -1.
         -4    1    1    2    0  502  0.23485585427E+02  0.41969334290E+01 -0.12356847283E+03  0.12585052424E+03  0.00000000000E+00 0.  1.
<mgrwt>
<rscale>  2 0.23857640E+02</rscale>
<asrwt>0</asrwt>
<pdfrwt beam="1">  1       21 0.31980819E-03 0.23857640E+02</pdfrwt>
<pdfrwt beam="2">  1       21 0.42531672E-01 0.23857640E+02</pdfrwt>
<totfact> 0.85346315E+07</totfact>
</mgrwt>
</event>
<event>
 4    1  0.7841599E+004  0.2629435E+02  0.7546771E-02  0.1643078E+00
         21   -1    0    0  503  502  0.00000000000E+00  0.00000000000E+00  0.74750919436E+02  0.74750919436E+02  0.00000000000E+00 0.  1.
         21   -1    0    0  501  503 -0.00000000000E+00 -0.00000000000E+00 -0.12235999303E+02  0.12235999303E+02  0.00000000000E+00 0.  1.
          2    1    1    2  501    0  0.24575357536E+02  0.93511960254E+01  0.97692333467E+01  0.28050507755E+02  0.00000000000E+00 0.  1.
         -2    1    1    2    0  502 -0.24575357536E+02 -0.93511960254E+01  0.52745686786E+02  0.58936410984E+02  0.00000000000E+00 0. -1.
<mgrwt>
<rscale>  2 0.26294354E+02</rscale>
<asrwt>0</asrwt>
<pdfrwt beam="1">  1       21 0.11500141E-01 0.26294354E+02</pdfrwt>
<pdfrwt beam="2">  1       21 0.18824615E-02 0.26294354E+02</pdfrwt>
<totfact> 0.62736896E+07</totfact>
</mgrwt>
</event>
<event>
 4    1  0.7841599E+004  0.2307286E+02  0.7546771E-02  0.1690332E+00
         21   -1    0    0  501  502  0.00000000000E+00  0.00000000000E+00  0.74921391380E+01  0.74921391380E+01  0.00000000000E+00 0. -1.
         21   -1    0    0  502  503 -0.00000000000E+00 -0.00000000000E+00 -0.20363065101E+03  0.20363065101E+03  0.00000000000E+00 0. -1.
          5    1    1    2  501    0  0.23071098044E+02 -0.28546340369E+00 -0.12893744292E+02  0.26431150110E+02  0.00000000000E+00 0. -1.
         -5    1    1    2    0  503 -0.23071098044E+02  0.28546340369E+00 -0.18324476758E+03  0.18469164003E+03  0.00000000000E+00 0.  1.
<mgrwt>
<rscale>  2 0.23072864E+02</rscale>
<asrwt>0</asrwt>
<pdfrwt beam="1">  1       21 0.11526368E-02 0.23072864E+02</pdfrwt>
<pdfrwt beam="2">  1       21 0.31327792E-01 0.23072864E+02</pdfrwt>
<totfact> 0.22347690E+07</totfact>
</mgrwt>
</event>
<event>
 4    1  0.7841599E+004  0.2427359E+02  0.7546771E-02  0.1671660E+00
         21   -1    0    0  503  502  0.00000000000E+00  0.00000000000E+00  0.26319504533E+02  0.26319504533E+02  0.00000000000E+00 0.  1.
         21   -1    0    0  501  503 -0.00000000000E+00 -0.00000000000E+00 -0.22392458933E+02  0.22392458933E+02  0.00000000000E+00 0.  1.
          1    1    1    2  501    0 -0.32363482499E+01  0.24056878872E+02  0.15735978286E+01  0.24324546886E+02  0.00000000000E+00 0. -1.
         -1    1    1    2    0  502  0.32363482499E+01 -0.24056878872E+02  0.23534477713E+01  0.24387416581E+02  0.00000000000E+00 0.  1.
<mgrwt>
<rscale>  2 0.24273594E+02</rscale>
<asrwt>0</asrwt>
<pdfrwt beam="1">  1       21 0.40491545E-02 0.24273594E+02</pdfrwt>
<pdfrwt beam="2">  1       21 0.34449937E-02 0.24273594E+02</pdfrwt>
<totfact> 0.13108303E+08</totfact>
</mgrwt>
</event>
<event>
 4    1  0.7841599E+004  0.2017823E+02  0.7546771E-02  0.1741807E+00
         21   -1    0    0  503  502  0.00000000000E+00  0.00000000000E+00  0.21695034701E+02  0.21695034701E+02  0.00000000000E+00 0.  1.
         21   -1    0    0  501  503 -0.00000000000E+00 -0.00000000000E+00 -0.29456602563E+02  0.29456602563E+02  0.00000000000E+00 0.  1.
          4    1    1    2  501    0 -0.70205490191E+01  0.18917530265E+02 -0.19287472716E+02  0.27913574898E+02  0.00000000000E+00 0. -1.
         -4    1    1    2    0  502  0.70205490191E+01 -0.18917530265E+02  0.11525904854E+02  0.23238062366E+02  0.00000000000E+00 0.  1.
<mgrwt>
<rscale>  2 0.20178232E+02</rscale>
<asrwt>0</asrwt>
<pdfrwt beam="1">  1       21 0.33376976E-02 0.20178232E+02</pdfrwt>
<pdfrwt beam="2">  1       21 0.45317850E-02 0.20178232E+02</pdfrwt>
<totfact> 0.10911733E+08</totfact>
</mgrwt>
</event>
<event>
 4    1  0.7841599E+004  0.2631689E+02  0.7546771E-02  0.1642777E+00
         21   -1    0    0  503  502  0.00000000000E+00  0.00000000000E+00  0.47088167318E+02  0.47088167318E+02  0.00000000000E+00 0.  1.
         21   -1    0    0  501  503 -0.00000000000E+00 -0.00000000000E+00 -0.16786200954E+02  0.16786200954E+02  0.00000000000E+00 0.  1.
          3    1    1    2  501    0 -0.10965611988E+02 -0.23923501520E+02  0.26388006928E+02  0.37268022229E+02  0.00000000000E+00 0. -1.
         -3    1    1    2    0  502  0.10965611988E+02  0.23923501520E+02  0.39139594359E+01  0.26606346042E+02  0.00000000000E+00 0.  1.
<mgrwt>
<rscale>  2 0.26316888E+02</rscale>
<asrwt>0</asrwt>
<pdfrwt beam="1">  1       21 0.72443333E-02 0.26316888E+02</pdfrwt>
<pdfrwt beam="2">  1       21 0.25824925E-02 0.26316888E+02</pdfrwt>
<totfact> 0.82629658E+07</totfact>
</mgrwt>
</event>
<event>
 4    1  0.7841599E+004  0.3347835E+02  0.7546771E-02  0.1562544E+00
         21   -1    0    0  501  502  0.00000000000E+00  0.00000000000E+00  0.17816311455E+01  0.17816311455E+01  0.00000000000E+00 0. -1.
         21   -1    0    0  502  503 -0.00000000000E+00 -0.00000000000E+00 -0.67768013426E+03  0.67768013426E+03  0.00000000000E+00 0. -1.
          2    1    1    2  501    0 -0.33055136165E+02 -0.53063872622E+01 -0.24697611562E+03  0.24923483196E+03  0.00000000000E+00 0. -1.
         -2    1    1    2    0  503  0.33055136165E+02  0.53063872622E+01 -0.42892238749E+03  0.43022693344E+03  0.00000000000E+00 0.  1.
<mgrwt>
<rscale>  2 0.33478348E+02</rscale>
<asrwt>0</asrwt>
<pdfrwt beam="1">  1       21 0.27409688E-03 0.33478348E+02</pdfrwt>
<pdfrwt beam="2">  1       21 0.10425856E+00 0.33478348E+02</pdfrwt>
<totfact> 0.18066622E+07</totfact>
</mgrwt>
</event>
<event>
 4    1  0.7841599E+004  0.2193387E+02  0.7546771E-02  0.1709398E+00
         21   -1    0    0  503  502  0.00000000000E+00  0.00000000000E+00  0.61758721051E+01  0.61758721051E+01  0.00000000000E+00 0.  1.
         21   -1    0    0  501  503 -0.00000000000E+00 -0.00000000000E+00 -0.15452638796E+03  0.15452638796E+03  0.00000000000E+00 0.  1.
          3    1    1    2  501    0 -0.15686065792E+02  0.15331080684E+02 -0.17592713360E+02  0.28117579169E+02  0.00000000000E+00 0. -1.
         -3    1    1    2    0  502  0.15686065792E+02 -0.15331080684E+02 -0.13075780249E+03  0.13258468089E+03  0.00000000000E+00 0.  1.
<mgrwt>
<rscale>  2 0.21933871E+02</rscale>
<asrwt>0</asrwt>
<pdfrwt beam="1">  1       21 0.95013415E-03 0.21933871E+02</pdfrwt>
<pdfrwt beam="2">  1       21 0.23773291E-01 0.21933871E+02</pdfrwt>
<totfact> 0.48494737E+07</totfact>
</mgrwt>
</event>
<event>
 4    1  0.7841599E+004  0.2141238E+02  0.7546771E-02  0.1718617E+00
         21   -1    0    0  501  502  0.00000000000E+00  0.00000000000E+00  0.24583195894E+01  0.24583195894E+01  0.00000000000E+00 0.  1.
         21   -1    0    0  502  503 -0.00000000000E+00 -0.00000000000E+00 -0.19713576236E+03  0.19713576236E+03  0.00000000000E+00 0.  1.
          1    1    1    2  501    0  0.21259005196E+02  0.25583004232E+01 -0.12051300368E+03  0.12240046675E+03  0.00000000000E+00 0.  1.
         -1    1    1    2    0  503 -0.21259005196E+02 -0.25583004232E+01 -0.74164439086E+02  0.77193615202E+02  0.00000000000E+00 0. -1.
<mgrwt>
<rscale>  2 0.21412384E+02</rscale>
<asrwt>0</asrwt>
<pdfrwt beam="1">  1       21 0.37820298E-03 0.21412384E+02</pdfrwt>
<pdfrwt beam="2">  1       21 0.30328582E-01 0.21412384E+02</pdfrwt>
<totfact> 0.12160917E+08</totfact>
</mgrwt>
</event>
<event>
 4    1  0.7841599E+004  0.3158264E+02  0.7546771E-02  0.1581226E+00
         21   -1    0    0  501  502  0.00000000000E+00  0.00000000000E+00  0.21639670533E+02  0.21639670533E+02  0.00000000000E+00 0. -1.
         21   -1    0    0  502  503 -0.00000000000E+00 -0.00000000000E+00 -0.46159156174E+02  0.46159156174E+02  0.00000000000E+00 0. -1.
          4    1    1    2  501    0  0.51034116653E+01  0.31167579702E+02 -0.10987864688E+02  0.33439437877E+02  0.00000000000E+00 0. -1.
         -4    1    1    2    0  503 -0.51034116653E+01 -0.31167579702E+02 -0.13531620953E+02  0.34359388830E+02  0.00000000000E+00 0.  1.
<mgrwt>
<rscale>  2 0.31582635E+02</rscale>
<asrwt>0</asrwt>
<pdfrwt beam="1">  1       21 0.33291801E-02 0.31582635E+02</pdfrwt>
<pdfrwt beam="2">  1       21 0.71014086E-02 0.31582635E+02</pdfrwt>
<totfact> 0.59875403E+07</totfact>
</mgrwt>
</event>
<event>
 4    1  0.7841599E+004  0.2125481E+02  0.7546771E-02  0.1721468E+00
         21   -1    0    0  501  502  0.00000000000E+00  0.00000000000E+00  0.31887406338E+01  0.31887406338E+01  0.00000000000E+00 0.  1.
         21   -1    0    0  502  503 -0.00000000000E+00 -0.00000000000E+00 -0.14232840881E+03  0.14232840881E+03  0.00000000000E+00 0.  1.
          3    1    1    2  501    0 -0.17633406970E+02 -0.11867182143E+02 -0.64642648071E+02  0.68047329140E+02  0.00000000000E+00 0.  1.
         -3    1    1    2    0  503  0.17633406970E+02  0.11867182143E+02 -0.74497020101E+02  0.77469820300E+02  0.00000000000E+00 0. -1.
<mgrwt>
<rscale>  2 0.21254812E+02</rscale>
<asrwt>0</asrwt>
<pdfrwt beam="1">  1       21 0.49057559E-03 0.21254812E+02</pdfrwt>
<pdfrwt beam="2">  1       21 0.21896674E-01 0.21254812E+02</pdfrwt>
<totfact> 0.14816197E+08</totfact>
</mgrwt>
</event>
<event>
 4    1  0.7841599E+004  0.2577570E+02  0.7546771E-02  0.1650104E+00
         21   -1    0    0  503  502  0.00000000000E+00  0.00000000000E+00  0.37017002456E+03  0.37017002456E+03  0.00000000000E+00 0. -1.
         21   -1    0    0  501  503 -0.00000000000E+00 -0.00000000000E+00 -0.17961193640E+01  0.17961193640E+01  0.00000000000E+00 0. -1.
          1    1    1    2  501    0 -0.25541172027E+02  0.34691604233E+01  0.17917413746E+03  0.18101866776E+03  0.00000000000E+00 0. -1.
         -1    1    1    2    0  502  0.25541172027E+02 -0.34691604233E+01  0.18919976773E+03  0.19094747616E+03  0.00000000000E+00 0.  1.
<mgrwt>
<rscale>  2 0.25775697E+02</rscale>
<asrwt>0</asrwt>
<pdfrwt beam="1">  1       21 0.56949174E-01 0.25775697E+02</pdfrwt>
<pdfrwt beam="2">  1       21 0.27632635E-03 0.25775697E+02</pdfrwt>
<totfact> 0.60963555E+07</totfact>
</mgrwt>
</event>
<event>
 4    1  0.7841599E+004  0.2113632E+02  0.7546771E-02  0.1723632E+00
         21   -1    0    0  501  502  0.00000000000E+00  0.00000000000E+00  0.51488744921E+01  0.51488744921E+01  0.00000000000E+00 0. -1.
         21   -1    0    0  502  503 -0.00000000000E+00 -0.00000000000E+00 -0.95689007586E+02  0.95689007586E+02  0.00000000000E+00 0. -1.
          1    1    1    2  501    0 -0.10863184338E+02 -0.18131060809E+02 -0.60666956183E+02  0.64243472139E+02  0.00000000000E+00 0.  1.
         -1    1    1    2    0  503  0.10863184338E+02  0.18131060809E+02 -0.29873176911E+02  0.36594409939E+02  0.00000000000E+00 0. -1.
<mgrwt>
<rscale>  2 0.21136323E+02</rscale>
<asrwt>0</asrwt>
<pdfrwt beam="1">  1       21 0.79213456E-03 0.21136323E+02</pdfrwt>
<pdfrwt beam="2">  1       21 0.14721385E-01 0.21136323E+02</pdfrwt>
<totfact> 0.14430319E+08</totfact>
</mgrwt>
</event>
<event>
 4    1  0.7841599E+004  0.2452533E+02  0.7546771E-02  0.1667915E+00
         21   -1    0    0  501  502  0.00000000000E+00  0.00000000000E+00  0.64966995602E+03  0.64966995602E+03  0.00000000000E+00 0.  1.
         21   -1    0    0  502  503 -0.00000000000E+00 -0.00000000000E+00 -0.92584455932E+00  0.92584455932E+00  0.00000000000E+00 0.  1.
          5    1    1    2  501    0 -0.24524177773E+02 -0.23735268081E+00  0.32492888269E+03  0.32585314244E+03  0.00000000000E+00 0. -1.
         -5    1    1    2    0  503  0.24524177773E+02  0.23735268081E+00  0.32381522877E+03  0.32474265814E+03  0.00000000000E+00 0.  1.
<mgrwt>
<rscale>  2 0.24525326E+02</rscale>
<asrwt>0</asrwt>
<pdfrwt beam="1">  1       21 0.99948860E-01 0.24525326E+02</pdfrwt>
<pdfrwt beam="2">  1       21 0.14243814E-03 0.24525326E+02</pdfrwt>
<totfact> 0.48674849E+07</totfact>
</mgrwt>
</event>
<event>
 4    1  0.7841599E+004  0.3039596E+02  0.7546771E-02  0.1593753E+00
         21   -1    0    0  501  502  0.00000000000E+00  0.00000000000E+00  0.14442259442E+02  0.14442259442E+02  0.00000000000E+00 0. -1.
         21   -1    0    0  502  503 -0.00000000000E+00 -0.00000000000E+00 -0.70618400021E+02  0.70618400021E+02  0.00000000000E+00 0. -1.
          1    1    1    2  501    0  0.21998177884E+02  0.20976042172E+02 -0.41134794469E+02  0.51146705577E+02  0.00000000000E+00 0.  1.
         -1    1    1    2    0  503 -0.21998177884E+02 -0.20976042172E+02 -0.15041346110E+02  0.33913953886E+02  0.00000000000E+00 0. -1.
<mgrwt>
<rscale>  2 0.30395957E+02</rscale>
<asrwt>0</asrwt>
<pdfrwt beam="1">  1       21 0.22218861E-02 0.30395957E+02</pdfrwt>
<pdfrwt beam="2">  1       21 0.10864369E-01 0.30395957E+02</pdfrwt>
<totfact> 0.55260179E+07</totfact>
</mgrwt>
</event>
<event>
 4    1  0.7841599E+004  0.2201549E+02  0.7546771E-02  0.1707984E+00
         21   -1    0    0  501  502  0.00000000000E+00  0.00000000000E+00  0.60180265437E+02  0.60180265437E+02  0.00000000000E+00 0. -1.
         21   -1    0    0  502  503 -0.00000000000E+00 -0.00000000000E+00 -0.92433156745E+01  0.92433156745E+01  0.00000000000E+00 0. -1.
          1    1    1    2  501    0  0.11107903229E+02 -0.19007792634E+02  0.37920572780E+02  0.43848050526E+02  0.00000000000E+00 0. -1.
         -1    1    1    2    0  503 -0.11107903229E+02  0.19007792634E+02  0.13016376982E+02  0.25575530585E+02  0.00000000000E+00 0.  1.
<mgrwt>
<rscale>  2 0.22015488E+02</rscale>
<asrwt>0</asrwt>
<pdfrwt beam="1">  1       21 0.92585021E-02 0.22015488E+02</pdfrwt>
<pdfrwt beam="2">  1       21 0.14220486E-02 0.22015488E+02</pdfrwt>
<totfact> 0.13149866E+08</totfact>
</mgrwt>
</event>
<event>
 4    1  0.7841599E+004  0.2723678E+02  0.7546771E-02  0.1630808E+00
         21   -1    0    0  501  502  0.00000000000E+00  0.00000000000E+00  0.20596495301E+03  0.20596495301E+03  0.00000000000E+00 0.  1.
         21   -1    0    0  502  503 -0.00000000000E+00 -0.00000000000E+00 -0.37901534552E+01  0.37901534552E+01  0.00000000000E+00 0.  1.
          2    1    1    2  501    0 -0.76307874564E+00  0.27226091610E+02  0.12446787526E+03  0.12741308537E+03  0.00000000000E+00 0.  1.
         -2    1    1    2    0  503  0.76307874564E+00 -0.27226091610E+02  0.77706924298E+02  0.82342021091E+02  0.00000000000E+00 0. -1.
<mgrwt>
<rscale>  2 0.27236783E+02</rscale>
<asrwt>0</asrwt>
<pdfrwt beam="1">  1       21 0.31686907E-01 0.27236783E+02</pdfrwt>
<pdfrwt beam="2">  1       21 0.58310069E-03 0.27236783E+02</pdfrwt>
<totfact> 0.63024116E+07</totfact>
</mgrwt>
</event>
<event>
 4    1  0.7841599E+004  0.2916211E+02  0.7546771E-02  0.1607539E+00
         21   -1    0    0  501  502  0.00000000000E+00  0.00000000000E+00  0.51949012682E+01  0.51949012682E+01  0.00000000000E+00 0. -1.
         21   -1    0    0  502  503 -0.00000000000E+00 -0.00000000000E+00 -0.19449456238E+03  0.19449456238E+03  0.00000000000E+00 0. -1.
          3    1    1    2  501    0 -0.20886102556E+02 -0.20351885214E+02 -0.54923634398E+02  0.62185481643E+02  0.00000000000E+00 0.  1.
         -3    1    1    2    0  503  0.20886102556E+02  0.20351885214E+02 -0.13437602672E+03  0.13750398201E+03  0.00000000000E+00 0. -1.
<mgrwt>
<rscale>  2 0.29162107E+02</rscale>
<asrwt>0</asrwt>
<pdfrwt beam="1">  1       21 0.79921577E-03 0.29162107E+02</pdfrwt>
<pdfrwt beam="2">  1       21 0.29922233E-01 0.29162107E+02</pdfrwt>
<totfact> 0.44355755E+07</totfact>
</mgrwt>
</event>
<event>
 4    1  0.7841599E+004  0.2134347E+02  0.7546771E-02  0.1719860E+00
         21   -1    0    0  503  502  0.00000000000E+00  0.00000000000E+00  0.87263181648E+00  0.87263181648E+00  0.00000000000E+00 0. -1.
         21   -1    0    0  501  503 -0.00000000000E+00 -0.00000000000E+00 -0.52289151171E+03  0.52289151171E+03  0.00000000000E+00 0. -1.
          3    1    1    2  501    0 -0.18347513805E+02  0.10904699565E+02 -0.27161284118E+03  0.27245014081E+03  0.00000000000E+00 0.  1.
         -3    1    1    2    0  502  0.18347513805E+02 -0.10904699565E+02 -0.25040603872E+03  0.25131400272E+03  0.00000000000E+00 0. -1.
<mgrwt>
<rscale>  2 0.21343471E+02</rscale>
<asrwt>0</asrwt>
<pdfrwt beam="1">  1       21 0.13425082E-03 0.21343471E+02</pdfrwt>
<pdfrwt beam="2">  1       21 0.80444984E-01 0.21343471E+02</pdfrwt>
<totfact> 0.81668776E+07</totfact>
</mgrwt>
</event>
<event>
 4    1  0.7841599E+004  0.2514671E+02  0.7546771E-02  0.1658904E+00
         21   -1    0    0  501  502  0.00000000000E+00  0.00000000000E+00  0.20294635309E+03  0.20294635309E+03  0.00000000000E+00 0.  1.
         21   -1    0    0  502  503 -0.00000000000E+00 -0.00000000000E+00 -0.40441662522E+01  0.40441662522E+01  0.00000000000E+00 0.  1.
          5    1    1    2  501    0  0.18267860135E+02 -0.17281266657E+02  0.14903565146E+03  0.15114225847E+03  0.00000000000E+00 0.  1.
         -5    1    1    2    0  503 -0.18267860135E+02  0.17281266657E+02  0.49866535377E+02  0.55848260865E+02  0.00000000000E+00 0. -1.
<mgrwt>
<rscale>  2 0.25146707E+02</rscale>
<asrwt>0</asrwt>
<pdfrwt beam="1">  1       21 0.31222508E-01 0.25146707E+02</pdfrwt>
<pdfrwt beam="2">  1       21 0.62217958E-03 0.25146707E+02</pdfrwt>
<totfact> 0.57728193E+07</totfact>
</mgrwt>
</event>
<event>
 4    1  0.7841599E+004  0.2047413E+02  0.7546771E-02  0.1736061E+00
         21   -1    0    0  501  502  0.00000000000E+00  0.00000000000E+00  0.19119221639E+03  0.19119221639E+03  0.00000000000E+00 0. -1.
         21   -1    0    0  502  503 -0.00000000000E+00 -0.00000000000E+00 -0.23999511299E+01  0.23999511299E+01  0.00000000000E+00 0. -1.
          2    1    1    2  501    0  0.85208960203E+01 -0.18616772839E+02  0.12285444905E+03  0.12454880790E+03  0.00000000000E+00 0.  1.
         -2    1    1    2    0  503 -0.85208960203E+01  0.18616772839E+02  0.65937816214E+02  0.69043359615E+02  0.00000000000E+00 0. -1.
<mgrwt>
<rscale>  2 0.20474128E+02</rscale>
<asrwt>0</asrwt>
<pdfrwt beam="1">  1       21 0.29414175E-01 0.20474128E+02</pdfrwt>
<pdfrwt beam="2">  1       21 0.36922340E-03 0.20474128E+02</pdfrwt>
<totfact> 0.13143714E+08</totfact>
</mgrwt>
</event>
<event>
 4    1  0.7841599E+004  0.2849371E+02  0.7546771E-02  0.1615361E+00
         21   -1    0    0  501  502  0.00000000000E+00  0.00000000000E+00  0.76208760152E+03  0.76208760152E+03  0.00000000000E+00 0. -1.
         21   -1    0    0  502  503 -0.00000000000E+00 -0.00000000000E+00 -0.10791783598E+01  0.10791783598E+01  0.00000000000E+00 0. -1.
          5    1    1    2  501    0 -0.82181804717E+01  0.27282836904E+02  0.42369529605E+03  0.42465232317E+03  0.00000000000E+00 0.  1.
         -5    1    1    2    0  503  0.82181804717E+01 -0.27282836904E+02  0.33731312711E+03  0.33851445671E+03  0.00000000000E+00 0. -1.
<mgrwt>
<rscale>  2 0.28493713E+02</rscale>
<asrwt>0</asrwt>
<pdfrwt beam="1">  1       21 0.11724382E+00 0.28493713E+02</pdfrwt>
<pdfrwt beam="2">  1       21 0.16602805E-03 0.28493713E+02</pdfrwt>
<totfact> 0.28093546E+07</totfact>
</mgrwt>
</event>
<event>
 4    1  0.7841599E+004  0.2476704E+02  0.7546771E-02  0.1664371E+00
         21   -1    0    0  503  502  0.00000000000E+00  0.00000000000E+00  0.37482834762E+01  0.37482834762E+01  0.00000000000E+00 0. -1.
         21   -1    0    0  501  503 -0.00000000000E+00 -0.00000000000E+00 -0.16447591599E+03  0.16447591599E+03  0.00000000000E+00 0. -1.
          5    1    1    2  501    0 -0.22827977427E+02 -0.96067479906E+01 -0.86324628582E+02  0.89807280663E+02  0.00000000000E+00 0. -1.
         -5    1    1    2    0  502  0.22827977427E+02  0.96067479906E+01 -0.74403003931E+02  0.78416918801E+02  0.00000000000E+00 0.  1.
<mgrwt>
<rscale>  2 0.24767038E+02</rscale>
<asrwt>0</asrwt>
<pdfrwt beam="1">  1       21 0.57665902E-03 0.24767038E+02</pdfrwt>
<pdfrwt beam="2">  1       21 0.25303986E-01 0.24767038E+02</pdfrwt>
<totfact> 0.94238154E+07</totfact>
</mgrwt>
</event>
<event>
 4    1  0.7841599E+004  0.2086865E+02  0.7546771E-02  0.1728586E+00
         21   -1    0    0  501  502  0.00000000000E+00  0.00000000000E+00  0.15540787177E+01  0.15540787177E+01  0.00000000000E+00 0.  1.
         21   -1    0    0  502  503 -0.00000000000E+00 -0.00000000000E+00 -0.29254043349E+03  0.29254043349E+03  0.00000000000E+00 0.  1.
          3    1    1    2  501    0  0.18300914982E+02  0.10028812253E+02 -0.17565713547E+03  0.17689242439E+03  0.00000000000E+00 0. -1.
         -3    1    1    2    0  503 -0.18300914982E+02 -0.10028812253E+02 -0.11532921931E+03  0.11720208782E+03  0.00000000000E+00 0.  1.
<mgrwt>
<rscale>  2 0.20868650E+02</rscale>
<asrwt>0</asrwt>
<pdfrwt beam="1">  1       21 0.23908928E-03 0.20868650E+02</pdfrwt>
<pdfrwt beam="2">  1       21 0.45006173E-01 0.20868650E+02</pdfrwt>
<totfact> 0.11287212E+08</totfact>
</mgrwt>
</event>
<event>
 4    1  0.7841599E+004  0.2584196E+02  0.7546771E-02  0.1649195E+00
         21   -1    0    0  501  502  0.00000000000E+00  0.00000000000E+00  0.50963370996E+03  0.50963370996E+03  0.00000000000E+00 0. -1.
         21   -1    0    0  502  503 -0.00000000000E+00 -0.00000000000E+00 -0.13629623043E+01  0.13629623043E+01  0.00000000000E+00 0. -1.
          1    1    1    2  501    0 -0.13860360999E+02  0.21810485466E+02  0.30432594871E+03  0.30542116813E+03  0.00000000000E+00 0.  1.
         -1    1    1    2    0  503  0.13860360999E+02 -0.21810485466E+02  0.20394479894E+03  0.20557550413E+03  0.00000000000E+00 0. -1.
<mgrwt>
<rscale>  2 0.25841960E+02</rscale>
<asrwt>0</asrwt>
<pdfrwt beam="1">  1       21 0.78405034E-01 0.25841960E+02</pdfrwt>
<pdfrwt beam="2">  1       21 0.20968692E-03 0.25841960E+02</pdfrwt>
<totfact> 0.47393452E+07</totfact>
</mgrwt>
</event>
<event>
 4    1  0.7841599E+004  0.2556183E+02  0.7546771E-02  0.1653061E+00
         21   -1    0    0  501  502  0.00000000000E+00  0.00000000000E+00  0.59626903481E+01  0.59626903481E+01  0.00000000000E+00 0.  1.
         21   -1    0    0  502  503 -0.00000000000E+00 -0.00000000000E+00 -0.11025853103E+03  0.11025853103E+03  0.00000000000E+00 0.  1.
          1    1    1    2  501    0  0.19870366288E+02 -0.16080288511E+02 -0.47598047555E+02  0.54027597264E+02  0.00000000000E+00 0.  1.
         -1    1    1    2    0  503 -0.19870366288E+02  0.16080288511E+02 -0.56697793122E+02  0.62193624110E+02  0.00000000000E+00 0. -1.
<mgrwt>
<rscale>  2 0.25561830E+02</rscale>
<asrwt>0</asrwt>
<pdfrwt beam="1">  1       21 0.91733699E-03 0.25561830E+02</pdfrwt>
<pdfrwt beam="2">  1       21 0.16962851E-01 0.25561830E+02</pdfrwt>
<totfact> 0.95916067E+07</totfact>
</mgrwt>
</event>
<event>
 4    1  0.7841599E+004  0.2075432E+02  0.7546771E-02  0.1730731E+00
         21   -1    0    0  503  502  0.00000000000E+00  0.00000000000E+00  0.38756609391E+02  0.38756609391E+02  0.00000000000E+00 0. -1.
         21   -1    0    0  501  503 -0.00000000000E+00 -0.00000000000E+00 -0.15795041408E+02  0.15795041408E+02  0.00000000000E+00 0. -1.
          4    1    1    2  501    0  0.20745450129E+02 -0.60656572140E+00 -0.33678998836E+01  0.21025802544E+02  0.00000000000E+00 0.  1.
         -4    1    1    2    0  502 -0.20745450129E+02  0.60656572140E+00  0.26329467867E+02  0.33525848254E+02  0.00000000000E+00 0. -1.
<mgrwt>
<rscale>  2 0.20754316E+02</rscale>
<asrwt>0</asrwt>
<pdfrwt beam="1">  1       21 0.59625553E-02 0.20754316E+02</pdfrwt>
<pdfrwt beam="2">  1       21 0.24300064E-02 0.20754316E+02</pdfrwt>
<totfact> 0.11632550E+08</totfact>
</mgrwt>
</event>
<event>
 4    1  0.7841599E+004  0.2572344E+02  0.7546771E-02  0.1650823E+00
         21   -1    0    0  501  502  0.00000000000E+00  0.00000000000E+00  0.39179626761E+02  0.39179626761E+02  0.00000000000E+00 0.  1.
         21   -1    0    0  502  503 -0.00000000000E+00 -0.00000000000E+00 -0.16968101984E+02  0.16968101984E+02  0.00000000000E+00 0.  1.
          5    1    1    2  501    0 -0.19497989329E+02 -0.16778675683E+02  0.91861176402E+01  0.27314470576E+02  0.00000000000E+00 0.  1.
         -5    1    1    2    0  503  0.19497989329E+02  0.16778675683E+02  0.13025407138E+02  0.28833258169E+02  0.00000000000E+00 0. -1.
<mgrwt>
<rscale>  2 0.25723444E+02</rscale>
<asrwt>0</asrwt>
<pdfrwt beam="1">  1       21 0.60276348E-02 0.25723444E+02</pdfrwt>
<pdfrwt beam="2">  1       21 0.26104773E-02 0.25723444E+02</pdfrwt>
<totfact> 0.10884904E+08</totfact>
</mgrwt>
</event>
<event>
 4    1  0.7841599E+004  0.2003000E+02  0.7546771E-02  0.1744732E+00
         21   -1    0    0  503  502  0.00000000000E+00  0.00000000000E+00  0.11557857473E+02  0.11557857473E+02  0.00000000000E+00 0. -1.
         21   -1    0    0  501  503 -0.00000000000E+00 -0.00000000000E+00 -0.36027312388E+02  0.36027312388E+02  0.00000000000E+00 0. -1.
          2    1    1    2  501    0 -0.17317946911E+02  0.10064278515E+02 -0.16780146035E+02  0.26129950023E+02  0.00000000000E+00 0. -1.
         -2    1    1    2    0  502  0.17317946911E+02 -0.10064278515E+02 -0.76893088810E+01  0.21455219838E+02  0.00000000000E+00 0.  1.
<mgrwt>
<rscale>  2 0.20030002E+02</rscale>
<asrwt>0</asrwt>
<pdfrwt beam="1">  1       21 0.17781320E-02 0.20030002E+02</pdfrwt>
<pdfrwt beam="2">  1       21 0.55426633E-02 0.20030002E+02</pdfrwt>
<totfact> 0.20835154E+08</totfact>
</mgrwt>
</event>
<event>
 4    1  0.7841599E+004  0.2045534E+02  0.7546771E-02  0.1736422E+00
         21   -1    0    0  501  502  0.00000000000E+00  0.00000000000E+00  0.11284033372E+02  0.11284033372E+02  0.00000000000E+00 0.  1.
         21   -1    0    0  502  503 -0.00000000000E+00 -0.00000000000E+00 -0.55798467944E+02  0.55798467944E+02  0.00000000000E+00 0.  1.
          5    1    1    2  501    0  0.11628155463E+02 -0.16828751915E+02 -0.41683695746E+02  0.46432223526E+02  0.00000000000E+00 0.  1.
         -5    1    1    2    0  503 -0.11628155463E+02  0.16828751915E+02 -0.28307388261E+01  0.20650277790E+02  0.00000000000E+00 0. -1.
<mgrwt>
<rscale>  2 0.20455339E+02</rscale>
<asrwt>0</asrwt>
<pdfrwt beam="1">  1       21 0.17360051E-02 0.20455339E+02</pdfrwt>
<pdfrwt beam="2">  1       21 0.85843797E-02 0.20455339E+02</pdfrwt>
<totfact> 0.10756716E+08</totfact>
</mgrwt>
</event>
<event>
 4    1  0.7841599E+004  0.2058403E+02  0.7546771E-02  0.1733957E+00
         21   -1    0    0  501  502  0.00000000000E+00  0.00000000000E+00  0.36387220073E+01  0.36387220073E+01  0.00000000000E+00 0.  1.
         21   -1    0    0  502  503 -0.00000000000E+00 -0.00000000000E+00 -0.13283718017E+03  0.13283718017E+03  0.00000000000E+00 0.  1.
          5    1    1    2  501    0 -0.95400672556E+01  0.18239770391E+02 -0.88571922354E+02  0.90932323937E+02  0.00000000000E+00 0. -1.
         -5    1    1    2    0  503  0.95400672556E+01 -0.18239770391E+02 -0.40626535814E+02  0.45543578245E+02  0.00000000000E+00 0.  1.
<mgrwt>
<rscale>  2 0.20584026E+02</rscale>
<asrwt>0</asrwt>
<pdfrwt beam="1">  1       21 0.55980352E-03 0.20584026E+02</pdfrwt>
<pdfrwt beam="2">  1       21 0.20436484E-01 0.20584026E+02</pdfrwt>
<totfact> 0.13633495E+08</totfact>
</mgrwt>
</event>
<event>
 4    1  0.7841599E+004  0.2542692E+02  0.7546771E-02  0.1654945E+00
         21   -1    0    0  503  502  0.00000000000E+00  0.00000000000E+00  0.57007454500E+03  0.57007454500E+03  0.00000000000E+00 0. -1.
         21   -1    0    0  501  503 -0.00000000000E+00 -0.00000000000E+00 -0.12390114736E+01  0.12390114736E+01  0.00000000000E+00 0. -1.
          2    1    1    2  501    0  0.10932685451E+02  0.22956576791E+02  0.36753571358E+03  0.36841420818E+03  0.00000000000E+00 0.  1.
         -2    1    1    2    0  502 -0.10932685451E+02 -0.22956576791E+02  0.20129981994E+03  0.20289934830E+03  0.00000000000E+00 0. -1.
<mgrwt>
<rscale>  2 0.25426915E+02</rscale>
<asrwt>0</asrwt>
<pdfrwt beam="1">  1       21 0.87703567E-01 0.25426915E+02</pdfrwt>
<pdfrwt beam="2">  1       21 0.19061761E-03 0.25426915E+02</pdfrwt>
<totfact> 0.42760046E+07</totfact>
</mgrwt>
</event>
<event>
 4    1  0.7841599E+004  0.3123205E+02  0.7546771E-02  0.1584856E+00
         21   -1    0    0  503  502  0.00000000000E+00  0.00000000000E+00  0.14780886543E+01  0.14780886543E+01  0.00000000000E+00 0.  1.
         21   -1    0    0  501  503 -0.00000000000E+00 -0.00000000000E+00 -0.66221210082E+03  0.66221210082E+03  0.00000000000E+00 0.  1.
          5    1    1    2  501    0 -0.53298752356E+00  0.31227497053E+02 -0.31090250335E+03  0.31246728987E+03  0.00000000000E+00 0. -1.
         -5    1    1    2    0  502  0.53298752356E+00 -0.31227497053E+02 -0.34983150882E+03  0.35122289961E+03  0.00000000000E+00 0.  1.
<mgrwt>
<rscale>  2 0.31232045E+02</rscale>
<asrwt>0</asrwt>
<pdfrwt beam="1">  1       21 0.22739841E-03 0.31232045E+02</pdfrwt>
<pdfrwt beam="2">  1       21 0.10187871E+00 0.31232045E+02</pdfrwt>
<totfact> 0.24759804E+07</totfact>
</mgrwt>
</event>
<event>
 4    1  0.7841599E+004  0.2186378E+02  0.7546771E-02  0.1710619E+00
         21   -1    0    0  503  502  0.00000000000E+00  0.00000000000E+00  0.81837415368E+02  0.81837415368E+02  0.00000000000E+00 0.  1.
         21   -1    0    0  501  503 -0.00000000000E+00 -0.00000000000E+00 -0.58686255131E+01  0.58686255131E+01  0.00000000000E+00 0.  1.
          1    1    1    2  501    0  0.21853073822E+02  0.68415660543E+00  0.34984013261E+02  0.41254164512E+02  0.00000000000E+00 0. -1.
         -1    1    1    2    0  502 -0.21853073822E+02 -0.68415660543E+00  0.40984776594E+02  0.46451876369E+02  0.00000000000E+00 0.  1.
<mgrwt>
<rscale>  2 0.21863781E+02</rscale>
<asrwt>0</asrwt>
<pdfrwt beam="1">  1       21 0.12590371E-01 0.21863781E+02</pdfrwt>
<pdfrwt beam="2">  1       21 0.90286552E-03 0.21863781E+02</pdfrwt>
<totfact> 0.15609554E+08</totfact>
</mgrwt>
</event>
<event>
 4    1  0.7841599E+004  0.4073931E+02  0.7546771E-02  0.1502840E+00
         21   -1    0    0  501  502  0.00000000000E+00  0.00000000000E+00  0.32251458302E+02  0.32251458302E+02  0.00000000000E+00 0. -1.
         21   -1    0    0  502  503 -0.00000000000E+00 -0.00000000000E+00 -0.52880694189E+02  0.52880694189E+02  0.00000000000E+00 0. -1.
          5    1    1    2  501    0  0.36948165756E+02  0.17161704503E+02 -0.33400335301E+01  0.40875993910E+02  0.00000000000E+00 0. -1.
         -5    1    1    2    0  503 -0.36948165756E+02 -0.17161704503E+02 -0.17289202357E+02  0.44256158581E+02  0.00000000000E+00 0.  1.
<mgrwt>
<rscale>  2 0.40739306E+02</rscale>
<asrwt>0</asrwt>
<pdfrwt beam="1">  1       21 0.49617629E-02 0.40739306E+02</pdfrwt>
<pdfrwt beam="2">  1       21 0.81354913E-02 0.40739306E+02</pdfrwt>
<totfact> 0.26506161E+07</totfact>
</mgrwt>
</event>
<event>
 4    1  0.7841599E+004  0.2082190E+02  0.7546771E-02  0.1729461E+00
         21   -1    0    0  501  502  0.00000000000E+00  0.00000000000E+00  0.20179595962E+02  0.20179595962E+02  0.00000000000E+00 0.  1.
         21   -1    0    0  502  503 -0.00000000000E+00 -0.00000000000E+00 -0.21527343422E+02  0.21527343422E+02  0.00000000000E+00 0.  1.
          4    1    1    2  501    0  0.16678305447E+02  0.12465379301E+02  0.25480236100E+00  0.20823459797E+02  0.00000000000E+00 0. -1.
         -4    1    1    2    0  503 -0.16678305447E+02 -0.12465379301E+02 -0.16025498215E+01  0.20883479586E+02  0.00000000000E+00 0.  1.
<mgrwt>
<rscale>  2 0.20821901E+02</rscale>
<asrwt>0</asrwt>
<pdfrwt beam="1">  1       21 0.31045532E-02 0.20821901E+02</pdfrwt>
<pdfrwt beam="2">  1       21 0.33118990E-02 0.20821901E+02</pdfrwt>
<totfact> 0.20155787E+08</totfact>
</mgrwt>
</event>
<event>
 4    1  0.7841599E+004  0.3095183E+02  0.7546771E-02  0.1587800E+00
         21   -1    0    0  503  502  0.00000000000E+00  0.00000000000E+00  0.35511762176E+01  0.35511762176E+01  0.00000000000E+00 0. -1.
         21   -1    0    0  501  503 -0.00000000000E+00 -0.00000000000E+00 -0.27815984095E+03  0.27815984095E+03  0.00000000000E+00 0. -1.
          2    1    1    2  501    0  0.23928302666E+02 -0.19632927650E+02 -0.11284772229E+03  0.11701548591E+03  0.00000000000E+00 0.  1.
         -2    1    1    2    0  502 -0.23928302666E+02  0.19632927650E+02 -0.16176094244E+03  0.16469553126E+03  0.00000000000E+00 0. -1.
<mgrwt>
<rscale>  2 0.30951826E+02</rscale>
<asrwt>0</asrwt>
<pdfrwt beam="1">  1       21 0.54633472E-03 0.30951826E+02</pdfrwt>
<pdfrwt beam="2">  1       21 0.42793828E-01 0.30951826E+02</pdfrwt>
<totfact> 0.40522131E+07</totfact>
</mgrwt>
</event>
<event>
 4    1  0.7841599E+004  0.3415518E+02  0.7546771E-02  0.1556233E+00
         21   -1    0    0  501  502  0.00000000000E+00  0.00000000000E+00  0.68696782228E+02  0.68696782228E+02  0.00000000000E+00 0.  1.
         21   -1    0    0  502  503 -0.00000000000E+00 -0.00000000000E+00 -0.17383467717E+02  0.17383467717E+02  0.00000000000E+00 0.  1.
          1    1    1    2  501    0  0.26498400652E+02  0.21550199741E+02  0.19112018816E+02  0.39138799282E+02  0.00000000000E+00 0. -1.
         -1    1    1    2    0  503 -0.26498400652E+02 -0.21550199741E+02  0.32201295695E+02  0.46941450664E+02  0.00000000000E+00 0.  1.
<mgrwt>
<rscale>  2 0.34155180E+02</rscale>
<asrwt>0</asrwt>
<pdfrwt beam="1">  1       21 0.10568736E-01 0.34155180E+02</pdfrwt>
<pdfrwt beam="2">  1       21 0.26743797E-02 0.34155180E+02</pdfrwt>
<totfact> 0.44403861E+07</totfact>
</mgrwt>
</event>
<event>
 4    1  0.7841599E+004  0.2804123E+02  0.7546771E-02  0.1620807E+00
         21   -1    0    0  501  502  0.00000000000E+00  0.00000000000E+00  0.11465991693E+03  0.11465991693E+03  0.00000000000E+00 0. -1.
         21   -1    0    0  502  503 -0.00000000000E+00 -0.00000000000E+00 -0.81093985157E+01  0.81093985157E+01  0.00000000000E+00 0. -1.
          2    1    1    2  501    0 -0.13854981800E+02  0.24379300290E+02  0.77391191246E+02  0.82314684509E+02  0.00000000000E+00 0.  1.
         -2    1    1    2    0  503  0.13854981800E+02 -0.24379300290E+02  0.29159327166E+02  0.40454630935E+02  0.00000000000E+00 0. -1.
<mgrwt>
<rscale>  2 0.28041234E+02</rscale>
<asrwt>0</asrwt>
<pdfrwt beam="1">  1       21 0.17639986E-01 0.28041234E+02</pdfrwt>
<pdfrwt beam="2">  1       21 0.12475999E-02 0.28041234E+02</pdfrwt>
<totfact> 0.57572130E+07</totfact>
</mgrwt>
</event>
<event>
 4    1  0.7841599E+004  0.2213940E+02  0.7546771E-02  0.1705852E+00
         21   -1    0    0  501  502  0.00000000000E+00  0.00000000000E+00  0.33256969563E+02  0.33256969563E+02  0.00000000000E+00 0.  1.
         21   -1    0    0  502  503 -0.00000000000E+00 -0.00000000000E+00 -0.28514232925E+02  0.28514232925E+02  0.00000000000E+00 0.  1.
          2    1    1    2  501    0 -0.21726001061E+02 -0.42583730488E+01 -0.19096302759E+02  0.29237333021E+02  0.00000000000E+00 0. -1.
         -2    1    1    2    0  503  0.21726001061E+02  0.42583730488E+01  0.23839039397E+02  0.32533869467E+02  0.00000000000E+00 0.  1.
<mgrwt>
<rscale>  2 0.22139396E+02</rscale>
<asrwt>0</asrwt>
<pdfrwt beam="1">  1       21 0.51164569E-02 0.22139396E+02</pdfrwt>
<pdfrwt beam="2">  1       21 0.43868050E-02 0.22139396E+02</pdfrwt>
<totfact> 0.60236269E+07</totfact>
</mgrwt>
</event>
<event>
 4    1  0.7841599E+004  0.4164316E+02  0.7546771E-02  0.1496456E+00
         21   -1    0    0  503  502  0.00000000000E+00  0.00000000000E+00  0.67654291413E+02  0.67654291413E+02  0.00000000000E+00 0.  1.
         21   -1    0    0  501  503 -0.00000000000E+00 -0.00000000000E+00 -0.28142086396E+02  0.28142086396E+02  0.00000000000E+00 0.  1.
          5    1    1    2  501    0 -0.38606304613E+02  0.15611089397E+02  0.54527910674E+01  0.41998640436E+02  0.00000000000E+00 0.  1.
         -5    1    1    2    0  502  0.38606304613E+02 -0.15611089397E+02  0.34059413949E+02  0.53797737374E+02  0.00000000000E+00 0. -1.
<mgrwt>
<rscale>  2 0.41643161E+02</rscale>
<asrwt>0</asrwt>
<pdfrwt beam="1">  1       21 0.10408352E-01 0.41643161E+02</pdfrwt>
<pdfrwt beam="2">  1       21 0.43295518E-02 0.41643161E+02</pdfrwt>
<totfact> 0.21920732E+07</totfact>
</mgrwt>
</event>
<event>
 4    1  0.7841599E+004  0.3098782E+02  0.7546771E-02  0.1587419E+00
         21   -1    0    0  503  502  0.00000000000E+00  0.00000000000E+00  0.33075082820E+02  0.33075082820E+02  0.00000000000E+00 0.  1.
         21   -1    0    0  501  503 -0.00000000000E+00 -0.00000000000E+00 -0.35133053272E+02  0.35133053272E+02  0.00000000000E+00 0.  1.
          5    1    1    2  501    0 -0.23356963248E+02 -0.20364120313E+02 -0.15240507957E+02  0.34532856979E+02  0.00000000000E+00 0. -1.
         -5    1    1    2    0  502  0.23356963248E+02  0.20364120313E+02  0.13182537505E+02  0.33675279114E+02  0.00000000000E+00 0.  1.
<mgrwt>
<rscale>  2 0.30987822E+02</rscale>
<asrwt>0</asrwt>
<pdfrwt beam="1">  1       21 0.50884743E-02 0.30987822E+02</pdfrwt>
<pdfrwt beam="2">  1       21 0.54050851E-02 0.30987822E+02</pdfrwt>
<totfact> 0.47244655E+07</totfact>
</mgrwt>
</event>
<event>
 4    1  0.7841599E+004  0.2720689E+02  0.7546771E-02  0.1631188E+00
         21   -1    0    0  503  502  0.00000000000E+00  0.00000000000E+00  0.13848862437E+02  0.13848862437E+02  0.00000000000E+00 0.  1.
         21   -1    0    0  501  503 -0.00000000000E+00 -0.00000000000E+00 -0.10123287905E+03  0.10123287905E+03  0.00000000000E+00 0.  1.
          1    1    1    2  501    0 -0.24399809504E+02  0.12035957744E+02 -0.83224482463E+02  0.87558720091E+02  0.00000000000E+00 0. -1.
         -1    1    1    2    0  502  0.24399809504E+02 -0.12035957744E+02 -0.41595341548E+01  0.27523021400E+02  0.00000000000E+00 0.  1.
<mgrwt>
<rscale>  2 0.27206892E+02</rscale>
<asrwt>0</asrwt>
<pdfrwt beam="1">  1       21 0.21305943E-02 0.27206892E+02</pdfrwt>
<pdfrwt beam="2">  1       21 0.15574289E-01 0.27206892E+02</pdfrwt>
<totfact> 0.31205317E+07</totfact>
</mgrwt>
</event>
<event>
 4    1  0.7841599E+004  0.3141808E+02  0.7546771E-02  0.1582923E+00
         21   -1    0    0  503  502  0.00000000000E+00  0.00000000000E+00  0.53702474353E+03  0.53702474353E+03  0.00000000000E+00 0.  1.
         21   -1    0    0  501  503 -0.00000000000E+00 -0.00000000000E+00 -0.18380864721E+01  0.18380864721E+01  0.00000000000E+00 0.  1.
          1    1    1    2  501    0 -0.18764180144E+02  0.25199235563E+02  0.26797557996E+03  0.26981105867E+03  0.00000000000E+00 0.  1.
         -1    1    1    2    0  502  0.18764180144E+02 -0.25199235563E+02  0.26721107710E+03  0.26905177133E+03  0.00000000000E+00 0. -1.
<mgrwt>
<rscale>  2 0.31418083E+02</rscale>
<asrwt>0</asrwt>
<pdfrwt beam="1">  1       21 0.82619066E-01 0.31418083E+02</pdfrwt>
<pdfrwt beam="2">  1       21 0.28278296E-03 0.31418083E+02</pdfrwt>
<totfact> 0.28434111E+07</totfact>
</mgrwt>
</event>
<event>
 4    1  0.7841599E+004  0.2393991E+02  0.7546771E-02  0.1676712E+00
         21   -1    0    0  503  502  0.00000000000E+00  0.00000000000E+00  0.39728805392E+02  0.39728805392E+02  0.00000000000E+00 0. -1.
         21   -1    0    0  501  503 -0.00000000000E+00 -0.00000000000E+00 -0.15349755687E+02  0.15349755687E+02  0.00000000000E+00 0. -1.
          3    1    1    2  501    0 -0.75329376729E+01 -0.22723865759E+02  0.18946165693E+02  0.30529926621E+02  0.00000000000E+00 0. -1.
         -3    1    1    2    0  502  0.75329376729E+01  0.22723865759E+02  0.54328840123E+01  0.24548634457E+02  0.00000000000E+00 0.  1.
<mgrwt>
<rscale>  2 0.23939909E+02</rscale>
<asrwt>0</asrwt>
<pdfrwt beam="1">  1       21 0.61121239E-02 0.23939909E+02</pdfrwt>
<pdfrwt beam="2">  1       21 0.23615009E-02 0.23939909E+02</pdfrwt>
<totfact> 0.12188652E+08</totfact>
</mgrwt>
</event>
<event>
 4    1  0.7841599E+004  0.2236061E+02  0.7546771E-02  0.1702089E+00
         21   -1    0    0  501  502  0.00000000000E+00  0.00000000000E+00  0.23906953093E+02  0.23906953093E+02  0.00000000000E+00 0.  1.
         21   -1    0    0  502  503 -0.00000000000E+00 -0.00000000000E+00 -0.21149230186E+02  0.21149230186E+02  0.00000000000E+00 0.  1.
          5    1    1    2  501    0 -0.22256963528E+02  0.21505021233E+01 -0.99552038535E+00  0.22382764479E+02  0.00000000000E+00 0.  1.
         -5    1    1    2    0  503  0.22256963528E+02 -0.21505021233E+01  0.37532432926E+01  0.22673418800E+02  0.00000000000E+00 0. -1.
<mgrwt>
<rscale>  2 0.22360615E+02</rscale>
<asrwt>0</asrwt>
<pdfrwt beam="1">  1       21 0.36779928E-02 0.22360615E+02</pdfrwt>
<pdfrwt beam="2">  1       21 0.32537277E-02 0.22360615E+02</pdfrwt>
<totfact> 0.16266324E+08</totfact>
</mgrwt>
</event>
<event>
 4    1  0.7841599E+004  0.2516284E+02  0.7546771E-02  0.1658674E+00
         21   -1    0    0  501  502  0.00000000000E+00  0.00000000000E+00  0.51725278800E+02  0.51725278800E+02  0.00000000000E+00 0.  1.
         21   -1    0    0  502  503 -0.00000000000E+00 -0.00000000000E+00 -0.12455314193E+02  0.12455314193E+02  0.00000000000E+00 0.  1.
          4    1    1    2  501    0  0.20052226485E+02 -0.15201206369E+02  0.23844526649E+02  0.34665976305E+02  0.00000000000E+00 0. -1.
         -4    1    1    2    0  503 -0.20052226485E+02  0.15201206369E+02  0.15425437958E+02  0.29514616689E+02  0.00000000000E+00 0.  1.
<mgrwt>
<rscale>  2 0.25162839E+02</rscale>
<asrwt>0</asrwt>
<pdfrwt beam="1">  1       21 0.79577351E-02 0.25162839E+02</pdfrwt>
<pdfrwt beam="2">  1       21 0.19162022E-02 0.25162839E+02</pdfrwt>
<totfact> 0.11112300E+08</totfact>
</mgrwt>
</event>
<event>
 4    1  0.7841599E+004  0.2249937E+02  0.7546771E-02  0.1699756E+00
         21   -1    0    0  503  502  0.00000000000E+00  0.00000000000E+00  0.38689321540E+01  0.38689321540E+01  0.00000000000E+00 0.  1.
         21   -1    0    0  501  503 -0.00000000000E+00 -0.00000000000E+00 -0.14646722939E+03  0.14646722939E+03  0.00000000000E+00 0.  1.
          3    1    1    2  501    0 -0.20552430417E+02 -0.91552890881E+01 -0.46748326705E+02  0.51880899800E+02  0.00000000000E+00 0.  1.
         -3    1    1    2    0  502  0.20552430417E+02  0.91552890881E+01 -0.95849970531E+02  0.98455261744E+02  0.00000000000E+00 0. -1.
<mgrwt>
<rscale>  2 0.22499371E+02</rscale>
<asrwt>0</asrwt>
<pdfrwt beam="1">  1       21 0.59522035E-03 0.22499371E+02</pdfrwt>
<pdfrwt beam="2">  1       21 0.22533419E-01 0.22499371E+02</pdfrwt>
<totfact> 0.10766075E+08</totfact>
</mgrwt>
</event>
<event>
 4    1  0.7841599E+004  0.2698737E+02  0.7546771E-02  0.1633995E+00
         21   -1    0    0  503  502  0.00000000000E+00  0.00000000000E+00  0.76696185647E+02  0.76696185647E+02  0.00000000000E+00 0.  1.
         21   -1    0    0  501  503 -0.00000000000E+00 -0.00000000000E+00 -0.10195449928E+02  0.10195449928E+02  0.00000000000E+00 0.  1.
          2    1    1    2  501    0 -0.54974850104E+01 -0.26421498688E+02  0.44628703557E+02  0.52153994244E+02  0.00000000000E+00 0. -1.
         -2    1    1    2    0  502  0.54974850104E+01  0.26421498688E+02  0.21872032162E+02  0.34737641331E+02  0.00000000000E+00 0.  1.
<mgrwt>
<rscale>  2 0.26987366E+02</rscale>
<asrwt>0</asrwt>
<pdfrwt beam="1">  1       21 0.11799413E-01 0.26987366E+02</pdfrwt>
<pdfrwt beam="2">  1       21 0.15685308E-02 0.26987366E+02</pdfrwt>
<totfact> 0.80011964E+07</totfact>
</mgrwt>
</event>
<event>
 4    1  0.7841599E+004  0.2551640E+02  0.7546771E-02  0.1653694E+00
         21   -1    0    0  503  502  0.00000000000E+00  0.00000000000E+00  0.14796825289E+03  0.14796825289E+03  0.00000000000E+00 0.  1.
         21   -1    0    0  501  503 -0.00000000000E+00 -0.00000000000E+00 -0.46760383517E+01  0.46760383517E+01  0.00000000000E+00 0.  1.
          2    1    1    2  501    0 -0.22801139447E+02 -0.11454033318E+02  0.90183778687E+02  0.93724067227E+02  0.00000000000E+00 0. -1.
         -2    1    1    2    0  502  0.22801139447E+02  0.11454033318E+02  0.53108435848E+02  0.58920224011E+02  0.00000000000E+00 0.  1.
<mgrwt>
<rscale>  2 0.25516403E+02</rscale>
<asrwt>0</asrwt>
<pdfrwt beam="1">  1       21 0.22764343E-01 0.25516403E+02</pdfrwt>
<pdfrwt beam="2">  1       21 0.71939063E-03 0.25516403E+02</pdfrwt>
<totfact> 0.82477083E+07</totfact>
</mgrwt>
</event>
<event>
 4    1  0.7841599E+004  0.4012481E+02  0.7546771E-02  0.1507295E+00
         21   -1    0    0  501  502  0.00000000000E+00  0.00000000000E+00  0.71204700028E+01  0.71204700028E+01  0.00000000000E+00 0. -1.
         21   -1    0    0  502  503 -0.00000000000E+00 -0.00000000000E+00 -0.23469394075E+03  0.23469394075E+03  0.00000000000E+00 0. -1.
          2    1    1    2  501    0 -0.73089171685E+01 -0.39453521853E+02 -0.90662045517E+02  0.99144375303E+02  0.00000000000E+00 0.  1.
         -2    1    1    2    0  503  0.73089171685E+01  0.39453521853E+02 -0.13691142523E+03  0.14267003545E+03  0.00000000000E+00 0. -1.
<mgrwt>
<rscale>  2 0.40124813E+02</rscale>
<asrwt>0</asrwt>
<pdfrwt beam="1">  1       21 0.10954570E-02 0.40124813E+02</pdfrwt>
<pdfrwt beam="2">  1       21 0.36106757E-01 0.40124813E+02</pdfrwt>
<totfact> 0.20477230E+07</totfact>
</mgrwt>
</event>
<event>
 4    1  0.7841599E+004  0.2729825E+02  0.7546771E-02  0.1630029E+00
         21   -1    0    0  501  502  0.00000000000E+00  0.00000000000E+00  0.23583965639E+03  0.23583965639E+03  0.00000000000E+00 0. -1.
         21   -1    0    0  502  503 -0.00000000000E+00 -0.00000000000E+00 -0.49666903996E+01  0.49666903996E+01  0.00000000000E+00 0. -1.
          3    1    1    2  501    0  0.12170937548E+02  0.24434867486E+02  0.42813138718E+02  0.50775577956E+02  0.00000000000E+00 0.  1.
         -3    1    1    2    0  503 -0.12170937548E+02 -0.24434867486E+02  0.18805982728E+03  0.19003076884E+03  0.00000000000E+00 0. -1.
<mgrwt>
<rscale>  2 0.27298250E+02</rscale>
<asrwt>0</asrwt>
<pdfrwt beam="1">  1       21 0.36283015E-01 0.27298250E+02</pdfrwt>
<pdfrwt beam="2">  1       21 0.76410640E-03 0.27298250E+02</pdfrwt>
<totfact> 0.32730874E+07</totfact>
</mgrwt>
</event>
<event>
 4    1  0.7841599E+004  0.3202986E+02  0.7546771E-02  0.1576677E+00
         21   -1    0    0  501  502  0.00000000000E+00  0.00000000000E+00  0.19116779080E+03  0.19116779080E+03  0.00000000000E+00 0. -1.
         21   -1    0    0  502  503 -0.00000000000E+00 -0.00000000000E+00 -0.59484266071E+01  0.59484266071E+01  0.00000000000E+00 0. -1.
          2    1    1    2  501    0  0.28501143367E+02  0.14614955771E+02  0.12343485983E+03  0.12752284786E+03  0.00000000000E+00 0.  1.
         -2    1    1    2    0  503 -0.28501143367E+02 -0.14614955771E+02  0.61784504367E+02  0.69593369550E+02  0.00000000000E+00 0. -1.
<mgrwt>
<rscale>  2 0.32029863E+02</rscale>
<asrwt>0</asrwt>
<pdfrwt beam="1">  1       21 0.29410425E-01 0.32029863E+02</pdfrwt>
<pdfrwt beam="2">  1       21 0.91514270E-03 0.32029863E+02</pdfrwt>
<totfact> 0.38022968E+07</totfact>
</mgrwt>
</event>
