<event>
 4    1  0.7151341E+004  0.2068858E+02  0.7546771E-02  0.1731972E+00
         21   -1    0    0  503  502  0.00000000000E+00  0.00000000000E+00  0.85526334122E+00  0.85526334122E+00  0.00000000000E+00 0.  1.
         21   -1    0    0  501  503 -0.00000000000E+00 -0.00000000000E+00 -0.50178647349E+03  0.50178647349E+03  0.00000000000E+00 0.  1.
          1    1    1    2  501    0  0.19104933605E+02 -0.79384516097E+01 -0.23750079233E+03  0.23840017588E+03  0.00000000000E+00 0. -1.
         -1    1    1    2    0  502 -0.19104933605E+02  0.79384516097E+01 -0.26343041781E+03  0.26424156095E+03  0.00000000000E+00 0.  1.
<mgrwt>
<rscale>  2 0.20688584E+02</rscale>
<asrwt>0</asrwt>
<pdfrwt beam="1">  1       21 0.13157920E-03 0.20688584E+02</pdfrwt>
<pdfrwt beam="2">  1       21 0.77197785E-01 0.20688584E+02</pdfrwt>
<totfact> 0.90856934E+07</totfact>
</mgrwt>
</event>
<event>
 4    1  0.7151341E+004  0.2007327E+02  0.7546771E-02  0.1743875E+00
         21   -1    0    0  503  502  0.00000000000E+00  0.00000000000E+00  0.29677555055E+03  0.29677555055E+03  0.00000000000E+00 0. -1.
         21   -1    0    0  501  503 -0.00000000000E+00 -0.00000000000E+00 -0.15563205630E+01  0.15563205630E+01  0.00000000000E+00 0. -1.
          1    1    1    2  501    0 -0.91245558494E+01  0.17879556533E+02  0.94323031127E+02  0.96435316468E+02  0.00000000000E+00 0. -1.
         -1    1    1    2    0  502  0.91245558494E+01 -0.17879556533E+02  0.20089619886E+03  0.20189655464E+03  0.00000000000E+00 0.  1.
<mgrwt>
<rscale>  2 0.20073267E+02</rscale>
<asrwt>0</asrwt>
<pdfrwt beam="1">  1       21 0.45657732E-01 0.20073267E+02</pdfrwt>
<pdfrwt beam="2">  1       21 0.23943417E-03 0.20073267E+02</pdfrwt>
<totfact> 0.10841391E+08</totfact>
</mgrwt>
</event>
<event>
 4    1  0.7151341E+004  0.3058299E+02  0.7546771E-02  0.1591732E+00
         21   -1    0    0  503  502  0.00000000000E+00  0.00000000000E+00  0.35681324349E+01  0.35681324349E+01  0.00000000000E+00 0.  1.
         21   -1    0    0  501  503 -0.00000000000E+00 -0.00000000000E+00 -0.30410186345E+03  0.30410186345E+03  0.00000000000E+00 0.  1.
          4    1    1    2  501    0  0.23072117120E+02 -0.20074773348E+02 -0.20741711434E+03  0.20965967289E+03  0.00000000000E+00 0. -1.
         -4    1    1    2    0  502 -0.23072117120E+02  0.20074773348E+02 -0.93116616676E+02  0.98010323001E+02  0.00000000000E+00 0.  1.
<mgrwt>
<rscale>  2 0.30582987E+02</rscale>
<asrwt>0</asrwt>
<pdfrwt beam="1">  1       21 0.54894346E-03 0.30582987E+02</pdfrwt>
<pdfrwt beam="2">  1       21 0.46784902E-01 0.30582987E+02</pdfrwt>
<totfact> 0.33777276E+07</totfact>
</mgrwt>
</event>
<event>
 4    1  0.7151341E+004  0.2099905E+02  0.7546771E-02  0.1726161E+00
         21   -1    0    0  501  502  0.00000000000E+00  0.00000000000E+00  0.80343517290E+01  0.80343517290E+01  0.00000000000E+00 0. -1.
         21   -1    0    0  502  503 -0.00000000000E+00 -0.00000000000E+00 -0.56081517503E+02  0.56081517503E+02  0.00000000000E+00 0. -1.
          4    1    1    2  501    0 -0.17108943133E+02 -0.12175551208E+02 -0.28707480670E+02  0.35567955083E+02  0.00000000000E+00 0.  1.
         -4    1    1    2    0  503  0.17108943133E+02  0.12175551208E+02 -0.19339685105E+02  0.28547914150E+02  0.00000000000E+00 0. -1.
<mgrwt>
<rscale>  2 0.20999047E+02</rscale>
<asrwt>0</asrwt>
<pdfrwt beam="1">  1       21 0.12360541E-02 0.20999047E+02</pdfrwt>
<pdfrwt beam="2">  1       21 0.86279260E-02 0.20999047E+02</pdfrwt>
<totfact> 0.17979367E+08</totfact>
</mgrwt>
</event>
<event>
 4    1  0.7151341E+004  0.2646000E+02  0.7546771E-02  0.1640876E+00
         21   -1    0    0  501  502  0.00000000000E+00  0.00000000000E+00  0.22038560243E+03  0.22038560243E+03  0.00000000000E+00 0. -1.
         21   -1    0    0  502  503 -0.00000000000E+00 -0.00000000000E+00 -0.33556609305E+01  0.33556609305E+01  0.00000000000E+00 0. -1.
          2    1    1    2  501    0  0.25756054443E+02 -0.60627664375E+01  0.13433917643E+03  0.13692021692E+03  0.00000000000E+00 0.  1.
         -2    1    1    2    0  503 -0.25756054443E+02  0.60627664375E+01  0.82690765067E+02  0.86821046439E+02  0.00000000000E+00 0. -1.
<mgrwt>
<rscale>  2 0.26459998E+02</rscale>
<asrwt>0</asrwt>
<pdfrwt beam="1">  1       21 0.33905466E-01 0.26459998E+02</pdfrwt>
<pdfrwt beam="2">  1       21 0.51625570E-03 0.26459998E+02</pdfrwt>
<totfact> 0.66194611E+07</totfact>
</mgrwt>
</event>
<event>
 4    1  0.7151341E+004  0.3356235E+02  0.7546771E-02  0.1561751E+00
         21   -1    0    0  501  502  0.00000000000E+00  0.00000000000E+00  0.10058019360E+02  0.10058019360E+02  0.00000000000E+00 0.  1.
         21   -1    0    0  502  503 -0.00000000000E+00 -0.00000000000E+00 -0.11439117832E+03  0.11439117832E+03  0.00000000000E+00 0.  1.
          3    1    1    2  501    0  0.32494709168E+02 -0.83979118712E+01 -0.43157571012E+02  0.54671811598E+02  0.00000000000E+00 0. -1.
         -3    1    1    2    0  503 -0.32494709168E+02  0.83979118712E+01 -0.61175587948E+02  0.69777386083E+02  0.00000000000E+00 0.  1.
<mgrwt>
<rscale>  2 0.33562346E+02</rscale>
<asrwt>0</asrwt>
<pdfrwt beam="1">  1       21 0.15473877E-02 0.33562346E+02</pdfrwt>
<pdfrwt beam="2">  1       21 0.17598642E-01 0.33562346E+02</pdfrwt>
<totfact> 0.43197010E+07</totfact>
</mgrwt>
</event>
<event>
 4    1  0.7151341E+004  0.2022721E+02  0.7546771E-02  0.1740847E+00
         21   -1    0    0  501  502  0.00000000000E+00  0.00000000000E+00  0.12241914088E+03  0.12241914088E+03  0.00000000000E+00 0.  1.
         21   -1    0    0  502  503 -0.00000000000E+00 -0.00000000000E+00 -0.47372446773E+01  0.47372446773E+01  0.00000000000E+00 0.  1.
          2    1    1    2  501    0  0.39077371680E+01 -0.19846144808E+02  0.93343502875E+02  0.95509943998E+02  0.00000000000E+00 0.  1.
         -2    1    1    2    0  503 -0.39077371680E+01  0.19846144808E+02  0.24338393324E+02  0.31646441555E+02  0.00000000000E+00 0. -1.
<mgrwt>
<rscale>  2 0.20227206E+02</rscale>
<asrwt>0</asrwt>
<pdfrwt beam="1">  1       21 0.18833712E-01 0.20227206E+02</pdfrwt>
<pdfrwt beam="2">  1       21 0.72880696E-03 0.20227206E+02</pdfrwt>
<totfact> 0.10581257E+08</totfact>
</mgrwt>
</event>
<event>
 4    1  0.7151341E+004  0.2006818E+02  0.7546771E-02  0.1743976E+00
         21   -1    0    0  503  502  0.00000000000E+00  0.00000000000E+00  0.33773195076E+02  0.33773195076E+02  0.00000000000E+00 0. -1.
         21   -1    0    0  501  503 -0.00000000000E+00 -0.00000000000E+00 -0.15749719569E+02  0.15749719569E+02  0.00000000000E+00 0. -1.
          3    1    1    2  501    0  0.16747774915E+02  0.11056395028E+02  0.21214616810E+02  0.29202599234E+02  0.00000000000E+00 0. -1.
         -3    1    1    2    0  502 -0.16747774915E+02 -0.11056395028E+02 -0.31911413031E+01  0.20320315412E+02  0.00000000000E+00 0.  1.
<mgrwt>
<rscale>  2 0.20068180E+02</rscale>
<asrwt>0</asrwt>
<pdfrwt beam="1">  1       21 0.51958761E-02 0.20068180E+02</pdfrwt>
<pdfrwt beam="2">  1       21 0.24230338E-02 0.20068180E+02</pdfrwt>
<totfact> 0.14396090E+08</totfact>
</mgrwt>
</event>
<event>
 4    1  0.7151341E+004  0.3072223E+02  0.7546771E-02  0.1590240E+00
         21   -1    0    0  501  502  0.00000000000E+00  0.00000000000E+00  0.59391337112E+03  0.59391337112E+03  0.00000000000E+00 0.  1.
         21   -1    0    0  502  503 -0.00000000000E+00 -0.00000000000E+00 -0.21130198162E+01  0.21130198162E+01  0.00000000000E+00 0.  1.
          5    1    1    2  501    0  0.27935124472E+02 -0.12786101166E+02  0.44427792698E+03  0.44533889563E+03  0.00000000000E+00 0. -1.
         -5    1    1    2    0  503 -0.27935124472E+02  0.12786101166E+02  0.14752242432E+03  0.15068749530E+03  0.00000000000E+00 0.  1.
<mgrwt>
<rscale>  2 0.30722232E+02</rscale>
<asrwt>0</asrwt>
<pdfrwt beam="1">  1       21 0.91371155E-01 0.30722232E+02</pdfrwt>
<pdfrwt beam="2">  1       21 0.32508044E-03 0.30722232E+02</pdfrwt>
<totfact> 0.18573291E+07</totfact>
</mgrwt>
</event>
<event>
 4    1  0.7151341E+004  0.2406731E+02  0.7546771E-02  0.1674771E+00
         21   -1    0    0  501  502  0.00000000000E+00  0.00000000000E+00  0.25926756558E+02  0.25926756558E+02  0.00000000000E+00 0. -1.
         21   -1    0    0  502  503 -0.00000000000E+00 -0.00000000000E+00 -0.29982757181E+02  0.29982757181E+02  0.00000000000E+00 0. -1.
          5    1    1    2  501    0  0.23768384799E+02 -0.37814250026E+01  0.12084708795E+02  0.26930939042E+02  0.00000000000E+00 0. -1.
         -5    1    1    2    0  503 -0.23768384799E+02  0.37814250026E+01 -0.16140709419E+02  0.28978574698E+02  0.00000000000E+00 0.  1.
<mgrwt>
<rscale>  2 0.24067308E+02</rscale>
<asrwt>0</asrwt>
<pdfrwt beam="1">  1       21 0.39887318E-02 0.24067308E+02</pdfrwt>
<pdfrwt beam="2">  1       21 0.46127319E-02 0.24067308E+02</pdfrwt>
<totfact> 0.84460151E+07</totfact>
</mgrwt>
</event>
<event>
 4    1  0.7151341E+004  0.5314448E+02  0.7546771E-02  0.1429083E+00
         21   -1    0    0  501  502  0.00000000000E+00  0.00000000000E+00  0.89928702579E+02  0.89928702579E+02  0.00000000000E+00 0.  1.
         21   -1    0    0  502  503 -0.00000000000E+00 -0.00000000000E+00 -0.43114596710E+02  0.43114596710E+02  0.00000000000E+00 0.  1.
          5    1    1    2  501    0 -0.24903528173E+02 -0.46948377519E+02 -0.11258333438E+02  0.54323898414E+02  0.00000000000E+00 0. -1.
         -5    1    1    2    0  503  0.24903528173E+02  0.46948377519E+02  0.58072439306E+02  0.78719400875E+02  0.00000000000E+00 0.  1.
<mgrwt>
<rscale>  2 0.53144481E+02</rscale>
<asrwt>0</asrwt>
<pdfrwt beam="1">  1       21 0.13835185E-01 0.53144481E+02</pdfrwt>
<pdfrwt beam="2">  1       21 0.66330149E-02 0.53144481E+02</pdfrwt>
<totfact> 0.68935637E+06</totfact>
</mgrwt>
</event>
<event>
 4    1  0.7151341E+004  0.3440728E+02  0.7546771E-02  0.1553928E+00
         21   -1    0    0  503  502  0.00000000000E+00  0.00000000000E+00  0.60777898083E+01  0.60777898083E+01  0.00000000000E+00 0. -1.
         21   -1    0    0  501  503 -0.00000000000E+00 -0.00000000000E+00 -0.20188442333E+03  0.20188442333E+03  0.00000000000E+00 0. -1.
          5    1    1    2  501    0 -0.11816877963E+02 -0.32314430584E+02 -0.11740270120E+03  0.12234073434E+03  0.00000000000E+00 0. -1.
         -5    1    1    2    0  502  0.11816877963E+02  0.32314430584E+02 -0.78403932314E+02  0.85621478795E+02  0.00000000000E+00 0.  1.
<mgrwt>
<rscale>  2 0.34407282E+02</rscale>
<asrwt>0</asrwt>
<pdfrwt beam="1">  1       21 0.93504467E-03 0.34407282E+02</pdfrwt>
<pdfrwt beam="2">  1       21 0.31059139E-01 0.34407282E+02</pdfrwt>
<totfact> 0.33728447E+07</totfact>
</mgrwt>
</event>
<event>
 4    1  0.7151341E+004  0.2411491E+02  0.7546771E-02  0.1674050E+00
         21   -1    0    0  501  502  0.00000000000E+00  0.00000000000E+00  0.22165016366E+02  0.22165016366E+02  0.00000000000E+00 0. -1.
         21   -1    0    0  502  503 -0.00000000000E+00 -0.00000000000E+00 -0.28321852637E+02  0.28321852637E+02  0.00000000000E+00 0. -1.
          2    1    1    2  501    0  0.10627093321E+02 -0.21647026608E+02  0.37716387306E+01  0.24408075142E+02  0.00000000000E+00 0. -1.
         -2    1    1    2    0  503 -0.10627093321E+02  0.21647026608E+02 -0.99284750012E+01  0.26078793861E+02  0.00000000000E+00 0.  1.
<mgrwt>
<rscale>  2 0.24114910E+02</rscale>
<asrwt>0</asrwt>
<pdfrwt beam="1">  1       21 0.34100025E-02 0.24114910E+02</pdfrwt>
<pdfrwt beam="2">  1       21 0.43572081E-02 0.24114910E+02</pdfrwt>
<totfact> 0.11837889E+08</totfact>
</mgrwt>
</event>
<event>
 4    1  0.7151341E+004  0.2362767E+02  0.7546771E-02  0.1681533E+00
         21   -1    0    0  501  502  0.00000000000E+00  0.00000000000E+00  0.15274415911E+03  0.15274415911E+03  0.00000000000E+00 0. -1.
         21   -1    0    0  502  503 -0.00000000000E+00 -0.00000000000E+00 -0.40258322331E+01  0.40258322331E+01  0.00000000000E+00 0. -1.
          4    1    1    2  501    0 -0.10038584387E+02 -0.21389102543E+02  0.98151864017E+02  0.10095570957E+03  0.00000000000E+00 0. -1.
         -4    1    1    2    0  503  0.10038584387E+02  0.21389102543E+02  0.50566462861E+02  0.55814281778E+02  0.00000000000E+00 0.  1.
<mgrwt>
<rscale>  2 0.23627672E+02</rscale>
<asrwt>0</asrwt>
<pdfrwt beam="1">  1       21 0.23499097E-01 0.23627672E+02</pdfrwt>
<pdfrwt beam="2">  1       21 0.61935892E-03 0.23627672E+02</pdfrwt>
<totfact> 0.95515506E+07</totfact>
</mgrwt>
</event>
<event>
 4    1  0.7151341E+004  0.2169395E+02  0.7546771E-02  0.1713599E+00
         21   -1    0    0  501  502  0.00000000000E+00  0.00000000000E+00  0.63273754606E+01  0.63273754606E+01  0.00000000000E+00 0. -1.
         21   -1    0    0  502  503 -0.00000000000E+00 -0.00000000000E+00 -0.11459260630E+03  0.11459260630E+03  0.00000000000E+00 0. -1.
          1    1    1    2  501    0 -0.71947149625E+00 -0.21682013248E+02 -0.18316925519E+02  0.28392553569E+02  0.00000000000E+00 0.  1.
         -1    1    1    2    0  503  0.71947149625E+00  0.21682013248E+02 -0.89948305319E+02  0.92527428190E+02  0.00000000000E+00 0. -1.
<mgrwt>
<rscale>  2 0.21693947E+02</rscale>
<asrwt>0</asrwt>
<pdfrwt beam="1">  1       21 0.97344247E-03 0.21693947E+02</pdfrwt>
<pdfrwt beam="2">  1       21 0.17629630E-01 0.21693947E+02</pdfrwt>
<totfact> 0.78567782E+07</totfact>
</mgrwt>
</event>
<event>
 4    1  0.7151341E+004  0.2769455E+02  0.7546771E-02  0.1625066E+00
         21   -1    0    0  501  502  0.00000000000E+00  0.00000000000E+00  0.22627272903E+03  0.22627272903E+03  0.00000000000E+00 0.  1.
         21   -1    0    0  502  503 -0.00000000000E+00 -0.00000000000E+00 -0.42778875978E+01  0.42778875978E+01  0.00000000000E+00 0.  1.
          3    1    1    2  501    0  0.25052353431E+02 -0.11805411173E+02  0.58470351444E+02  0.64697528109E+02  0.00000000000E+00 0. -1.
         -3    1    1    2    0  503 -0.25052353431E+02  0.11805411173E+02  0.16352448999E+03  0.16585308852E+03  0.00000000000E+00 0.  1.
<mgrwt>
<rscale>  2 0.27694551E+02</rscale>
<asrwt>0</asrwt>
<pdfrwt beam="1">  1       21 0.34811180E-01 0.27694551E+02</pdfrwt>
<pdfrwt beam="2">  1       21 0.65813673E-03 0.27694551E+02</pdfrwt>
<totfact> 0.44357263E+07</totfact>
</mgrwt>
</event>
<event>
 4    1  0.7151341E+004  0.3044765E+02  0.7546771E-02  0.1593193E+00
         21   -1    0    0  503  502  0.00000000000E+00  0.00000000000E+00  0.44377360773E+02  0.44377360773E+02  0.00000000000E+00 0.  1.
         21   -1    0    0  501  503 -0.00000000000E+00 -0.00000000000E+00 -0.25611668848E+02  0.25611668848E+02  0.00000000000E+00 0.  1.
          3    1    1    2  501    0 -0.14776825701E+02  0.26621510136E+02  0.24407756456E+02  0.39023043896E+02  0.00000000000E+00 0. -1.
         -3    1    1    2    0  502  0.14776825701E+02 -0.26621510136E+02 -0.56420645314E+01  0.30965985724E+02  0.00000000000E+00 0.  1.
<mgrwt>
<rscale>  2 0.30447650E+02</rscale>
<asrwt>0</asrwt>
<pdfrwt beam="1">  1       21 0.68272863E-02 0.30447650E+02</pdfrwt>
<pdfrwt beam="2">  1       21 0.39402568E-02 0.30447650E+02</pdfrwt>
<totfact> 0.48491867E+07</totfact>
</mgrwt>
</event>
<event>
 4    1  0.7151341E+004  0.2107295E+02  0.7546771E-02  0.1724796E+00
         21   -1    0    0  501  502  0.00000000000E+00  0.00000000000E+00  0.97606976464E+01  0.97606976464E+01  0.00000000000E+00 0. -1.
         21   -1    0    0  502  503 -0.00000000000E+00 -0.00000000000E+00 -0.46380452881E+02  0.46380452881E+02  0.00000000000E+00 0. -1.
          4    1    1    2  501    0  0.20934369223E+02 -0.24127752097E+01 -0.22186974960E+02  0.30599528703E+02  0.00000000000E+00 0.  1.
         -4    1    1    2    0  503 -0.20934369223E+02  0.24127752097E+01 -0.14432780275E+02  0.25541621825E+02  0.00000000000E+00 0. -1.
<mgrwt>
<rscale>  2 0.21072952E+02</rscale>
<asrwt>0</asrwt>
<pdfrwt beam="1">  1       21 0.15016458E-02 0.21072952E+02</pdfrwt>
<pdfrwt beam="2">  1       21 0.71354542E-02 0.21072952E+02</pdfrwt>
<totfact> 0.18260189E+08</totfact>
</mgrwt>
</event>
<event>
 4    1  0.7151341E+004  0.2201598E+02  0.7546771E-02  0.1707976E+00
         21   -1    0    0  503  502  0.00000000000E+00  0.00000000000E+00  0.15523526674E+04  0.15523526674E+04  0.00000000000E+00 0.  1.
         21   -1    0    0  501  503 -0.00000000000E+00 -0.00000000000E+00 -0.31327640960E+00  0.31327640960E+00  0.00000000000E+00 0.  1.
          5    1    1    2  501    0 -0.62004495866E+01  0.21124813638E+02  0.82071798210E+03  0.82101322125E+03  0.00000000000E+00 0.  1.
         -5    1    1    2    0  502  0.62004495866E+01 -0.21124813638E+02  0.73132140890E+03  0.73165272257E+03  0.00000000000E+00 0. -1.
<mgrwt>
<rscale>  2 0.22015979E+02</rscale>
<asrwt>0</asrwt>
<pdfrwt beam="1">  1       21 0.23881733E+00 0.22015979E+02</pdfrwt>
<pdfrwt beam="2">  1       21 0.48197614E-04 0.22015979E+02</pdfrwt>
<totfact> 0.27060196E+07</totfact>
</mgrwt>
</event>
<event>
 4    1  0.7151341E+004  0.3845537E+02  0.7546771E-02  0.1519896E+00
         21   -1    0    0  501  502  0.00000000000E+00  0.00000000000E+00  0.34162726196E+02  0.34162726196E+02  0.00000000000E+00 0. -1.
         21   -1    0    0  502  503 -0.00000000000E+00 -0.00000000000E+00 -0.44550571827E+02  0.44550571827E+02  0.00000000000E+00 0. -1.
          3    1    1    2  501    0  0.33622704061E+02 -0.18663574799E+02 -0.11821036260E+02  0.40231233525E+02  0.00000000000E+00 0.  1.
         -3    1    1    2    0  503 -0.33622704061E+02  0.18663574799E+02  0.14331906285E+01  0.38482064498E+02  0.00000000000E+00 0. -1.
<mgrwt>
<rscale>  2 0.38455367E+02</rscale>
<asrwt>0</asrwt>
<pdfrwt beam="1">  1       21 0.52558040E-02 0.38455367E+02</pdfrwt>
<pdfrwt beam="2">  1       21 0.68539341E-02 0.38455367E+02</pdfrwt>
<totfact> 0.31754134E+07</totfact>
</mgrwt>
</event>
<event>
 4    1  0.7151341E+004  0.3070959E+02  0.7546771E-02  0.1590375E+00
         21   -1    0    0  501  502  0.00000000000E+00  0.00000000000E+00  0.19044795218E+02  0.19044795218E+02  0.00000000000E+00 0.  1.
         21   -1    0    0  502  503 -0.00000000000E+00 -0.00000000000E+00 -0.66711531739E+02  0.66711531739E+02  0.00000000000E+00 0.  1.
          5    1    1    2  501    0 -0.23420013590E+01 -0.30620156505E+02 -0.45600730726E+02  0.54977318937E+02  0.00000000000E+00 0. -1.
         -5    1    1    2    0  503  0.23420013590E+01  0.30620156505E+02 -0.20660057946E+01  0.30779008020E+02  0.00000000000E+00 0.  1.
<mgrwt>
<rscale>  2 0.30709591E+02</rscale>
<asrwt>0</asrwt>
<pdfrwt beam="1">  1       21 0.29299685E-02 0.30709591E+02</pdfrwt>
<pdfrwt beam="2">  1       21 0.10263313E-01 0.30709591E+02</pdfrwt>
<totfact> 0.39535555E+07</totfact>
</mgrwt>
</event>
<event>
 4    1  0.7151341E+004  0.2528546E+02  0.7546771E-02  0.1656935E+00
         21   -1    0    0  501  502  0.00000000000E+00  0.00000000000E+00  0.13321094535E+03  0.13321094535E+03  0.00000000000E+00 0. -1.
         21   -1    0    0  502  503 -0.00000000000E+00 -0.00000000000E+00 -0.50832139206E+01  0.50832139206E+01  0.00000000000E+00 0. -1.
          1    1    1    2  501    0 -0.12878151135E+02 -0.21760237995E+02  0.47729796438E+02  0.54013777893E+02  0.00000000000E+00 0.  1.
         -1    1    1    2    0  503  0.12878151135E+02  0.21760237995E+02  0.80397934989E+02  0.84280381376E+02  0.00000000000E+00 0. -1.
<mgrwt>
<rscale>  2 0.25285465E+02</rscale>
<asrwt>0</asrwt>
<pdfrwt beam="1">  1       21 0.20493989E-01 0.25285465E+02</pdfrwt>
<pdfrwt beam="2">  1       21 0.78203301E-03 0.25285465E+02</pdfrwt>
<totfact> 0.87430366E+07</totfact>
</mgrwt>
</event>
<event>
 4    1  0.7151341E+004  0.5087514E+02  0.7546771E-02  0.1440678E+00
         21   -1    0    0  503  502  0.00000000000E+00  0.00000000000E+00  0.16367492633E+03  0.16367492633E+03  0.00000000000E+00 0.  1.
         21   -1    0    0  501  503 -0.00000000000E+00 -0.00000000000E+00 -0.16419945146E+02  0.16419945146E+02  0.00000000000E+00 0.  1.
          4    1    1    2  501    0 -0.47387686718E+02  0.18511820502E+02  0.56322707555E+02  0.75898140537E+02  0.00000000000E+00 0.  1.
         -4    1    1    2    0  502  0.47387686718E+02 -0.18511820502E+02  0.90932273624E+02  0.10419673093E+03  0.00000000000E+00 0. -1.
<mgrwt>
<rscale>  2 0.50875145E+02</rscale>
<asrwt>0</asrwt>
<pdfrwt beam="1">  1       21 0.25180757E-01 0.50875145E+02</pdfrwt>
<pdfrwt beam="2">  1       21 0.25261455E-02 0.50875145E+02</pdfrwt>
<totfact> 0.11263534E+07</totfact>
</mgrwt>
</event>
<event>
 4    1  0.7151341E+004  0.2237311E+02  0.7546771E-02  0.1701878E+00
         21   -1    0    0  503  502  0.00000000000E+00  0.00000000000E+00  0.14215077090E+03  0.14215077090E+03  0.00000000000E+00 0.  1.
         21   -1    0    0  501  503 -0.00000000000E+00 -0.00000000000E+00 -0.36578574352E+01  0.36578574352E+01  0.00000000000E+00 0.  1.
          1    1    1    2  501    0  0.54658192644E+00  0.22366433299E+02  0.83332564936E+02  0.86283674407E+02  0.00000000000E+00 0. -1.
         -1    1    1    2    0  502 -0.54658192644E+00 -0.22366433299E+02  0.55160348527E+02  0.59524953927E+02  0.00000000000E+00 0.  1.
<mgrwt>
<rscale>  2 0.22373111E+02</rscale>
<asrwt>0</asrwt>
<pdfrwt beam="1">  1       21 0.21869345E-01 0.22373111E+02</pdfrwt>
<pdfrwt beam="2">  1       21 0.56274741E-03 0.22373111E+02</pdfrwt>
<totfact> 0.12310353E+08</totfact>
</mgrwt>
</event>
<event>
 4    1  0.7151341E+004  0.3863016E+02  0.7546771E-02  0.1518541E+00
         21   -1    0    0  503  502  0.00000000000E+00  0.00000000000E+00  0.10453008537E+03  0.10453008537E+03  0.00000000000E+00 0. -1.
         21   -1    0    0  501  503 -0.00000000000E+00 -0.00000000000E+00 -0.15559107866E+02  0.15559107866E+02  0.00000000000E+00 0. -1.
          2    1    1    2  501    0  0.20940612435E+02 -0.32461981274E+02  0.27243630915E+02  0.47270550058E+02  0.00000000000E+00 0.  1.
         -2    1    1    2    0  502 -0.20940612435E+02  0.32461981274E+02  0.61727346589E+02  0.72818643178E+02  0.00000000000E+00 0. -1.
<mgrwt>
<rscale>  2 0.38630163E+02</rscale>
<asrwt>0</asrwt>
<pdfrwt beam="1">  1       21 0.16081551E-01 0.38630163E+02</pdfrwt>
<pdfrwt beam="2">  1       21 0.23937090E-02 0.38630163E+02</pdfrwt>
<totfact> 0.26320103E+07</totfact>
</mgrwt>
</event>
<event>
 4    1  0.7151341E+004  0.2806547E+02  0.7546771E-02  0.1620512E+00
         21   -1    0    0  501  502  0.00000000000E+00  0.00000000000E+00  0.12573573600E+03  0.12573573600E+03  0.00000000000E+00 0. -1.
         21   -1    0    0  502  503 -0.00000000000E+00 -0.00000000000E+00 -0.64249712290E+01  0.64249712290E+01  0.00000000000E+00 0. -1.
          2    1    1    2  501    0  0.19180067345E+02  0.20488912153E+02  0.49211877777E+02  0.56652267553E+02  0.00000000000E+00 0.  1.
         -2    1    1    2    0  503 -0.19180067345E+02 -0.20488912153E+02  0.70098886999E+02  0.75508439681E+02  0.00000000000E+00 0. -1.
<mgrwt>
<rscale>  2 0.28065468E+02</rscale>
<asrwt>0</asrwt>
<pdfrwt beam="1">  1       21 0.19343958E-01 0.28065468E+02</pdfrwt>
<pdfrwt beam="2">  1       21 0.98845720E-03 0.28065468E+02</pdfrwt>
<totfact> 0.69780122E+07</totfact>
</mgrwt>
</event>
<event>
 4    1  0.7151341E+004  0.2139806E+02  0.7546771E-02  0.1718875E+00
         21   -1    0    0  503  502  0.00000000000E+00  0.00000000000E+00  0.21499913969E+02  0.21499913969E+02  0.00000000000E+00 0. -1.
         21   -1    0    0  501  503 -0.00000000000E+00 -0.00000000000E+00 -0.23521339123E+02  0.23521339123E+02  0.00000000000E+00 0. -1.
          3    1    1    2  501    0  0.34093804924E+01 -0.21124701231E+02 -0.79336099259E+01  0.22821460161E+02  0.00000000000E+00 0.  1.
         -3    1    1    2    0  502 -0.34093804924E+01  0.21124701231E+02  0.59121847720E+01  0.22199792932E+02  0.00000000000E+00 0. -1.
<mgrwt>
<rscale>  2 0.21398058E+02</rscale>
<asrwt>0</asrwt>
<pdfrwt beam="1">  1       21 0.33076791E-02 0.21398058E+02</pdfrwt>
<pdfrwt beam="2">  1       21 0.36186676E-02 0.21398058E+02</pdfrwt>
<totfact> 0.16042625E+08</totfact>
</mgrwt>
</event>
<event>
 4    1  0.7151341E+004  0.2189500E+02  0.7546771E-02  0.1710074E+00
         21   -1    0    0  501  502  0.00000000000E+00  0.00000000000E+00  0.45947758599E+03  0.45947758599E+03  0.00000000000E+00 0.  1.
         21   -1    0    0  502  503 -0.00000000000E+00 -0.00000000000E+00 -0.14356349551E+01  0.14356349551E+01  0.00000000000E+00 0.  1.
          4    1    1    2  501    0  0.16692881831E+02 -0.14168234044E+02  0.34948954194E+03  0.35017471509E+03  0.00000000000E+00 0.  1.
         -4    1    1    2    0  503 -0.16692881831E+02  0.14168234044E+02  0.10855240910E+03  0.11073850586E+03  0.00000000000E+00 0. -1.
<mgrwt>
<rscale>  2 0.21895003E+02</rscale>
<asrwt>0</asrwt>
<pdfrwt beam="1">  1       21 0.70688742E-01 0.21895003E+02</pdfrwt>
<pdfrwt beam="2">  1       21 0.22086728E-03 0.21895003E+02</pdfrwt>
<totfact> 0.52536189E+07</totfact>
</mgrwt>
</event>
<event>
 4    1  0.7151341E+004  0.2140460E+02  0.7546771E-02  0.1718757E+00
         21   -1    0    0  501  502  0.00000000000E+00  0.00000000000E+00  0.25648629118E+01  0.25648629118E+01  0.00000000000E+00 0.  1.
         21   -1    0    0  502  503 -0.00000000000E+00 -0.00000000000E+00 -0.26728670111E+03  0.26728670111E+03  0.00000000000E+00 0.  1.
          4    1    1    2  501    0 -0.11404712048E+02 -0.18113240443E+02 -0.21006903403E+03  0.21115670957E+03  0.00000000000E+00 0. -1.
         -4    1    1    2    0  503  0.11404712048E+02  0.18113240443E+02 -0.54652804171E+02  0.58694854459E+02  0.00000000000E+00 0.  1.
<mgrwt>
<rscale>  2 0.21404601E+02</rscale>
<asrwt>0</asrwt>
<pdfrwt beam="1">  1       21 0.39459437E-03 0.21404601E+02</pdfrwt>
<pdfrwt beam="2">  1       21 0.41121023E-01 0.21404601E+02</pdfrwt>
<totfact> 0.65090410E+07</totfact>
</mgrwt>
</event>
<event>
 4    1  0.7151341E+004  0.2407827E+02  0.7546771E-02  0.1674605E+00
         21   -1    0    0  503  502  0.00000000000E+00  0.00000000000E+00  0.19590076548E+02  0.19590076548E+02  0.00000000000E+00 0.  1.
         21   -1    0    0  501  503 -0.00000000000E+00 -0.00000000000E+00 -0.29814340308E+02  0.29814340308E+02  0.00000000000E+00 0.  1.
          1    1    1    2  501    0  0.87314867234E+01 -0.22439344418E+02 -0.72321956476E+01  0.25140956469E+02  0.00000000000E+00 0. -1.
         -1    1    1    2    0  502 -0.87314867234E+01  0.22439344418E+02 -0.29920681128E+01  0.24263460386E+02  0.00000000000E+00 0.  1.
<mgrwt>
<rscale>  2 0.24078269E+02</rscale>
<asrwt>0</asrwt>
<pdfrwt beam="1">  1       21 0.30138580E-02 0.24078269E+02</pdfrwt>
<pdfrwt beam="2">  1       21 0.45868216E-02 0.24078269E+02</pdfrwt>
<totfact> 0.13230695E+08</totfact>
</mgrwt>
</event>
<event>
 4    1  0.7151341E+004  0.2243600E+02  0.7546771E-02  0.1700819E+00
         21   -1    0    0  501  502  0.00000000000E+00  0.00000000000E+00  0.17416998807E+02  0.17416998807E+02  0.00000000000E+00 0.  1.
         21   -1    0    0  502  503 -0.00000000000E+00 -0.00000000000E+00 -0.34166229572E+02  0.34166229572E+02  0.00000000000E+00 0.  1.
          1    1    1    2  501    0  0.21084947839E+02  0.76680520473E+01  0.17499397100E+01  0.22504140432E+02  0.00000000000E+00 0.  1.
         -1    1    1    2    0  503 -0.21084947839E+02 -0.76680520473E+01 -0.18499170475E+02  0.29079087947E+02  0.00000000000E+00 0. -1.
<mgrwt>
<rscale>  2 0.22435999E+02</rscale>
<asrwt>0</asrwt>
<pdfrwt beam="1">  1       21 0.26795383E-02 0.22435999E+02</pdfrwt>
<pdfrwt beam="2">  1       21 0.52563430E-02 0.22435999E+02</pdfrwt>
<totfact> 0.12521734E+08</totfact>
</mgrwt>
</event>
<event>
 4    1  0.7151341E+004  0.2939603E+02  0.7546771E-02  0.1604862E+00
         21   -1    0    0  503  502  0.00000000000E+00  0.00000000000E+00  0.17565763216E+02  0.17565763216E+02  0.00000000000E+00 0. -1.
         21   -1    0    0  501  503 -0.00000000000E+00 -0.00000000000E+00 -0.63079991471E+02  0.63079991471E+02  0.00000000000E+00 0. -1.
          4    1    1    2  501    0  0.12431949401E+02 -0.26637815596E+02 -0.38381511629E+01  0.29645539125E+02  0.00000000000E+00 0. -1.
         -4    1    1    2    0  502 -0.12431949401E+02  0.26637815596E+02 -0.41676077093E+02  0.51000215563E+02  0.00000000000E+00 0.  1.
<mgrwt>
<rscale>  2 0.29396030E+02</rscale>
<asrwt>0</asrwt>
<pdfrwt beam="1">  1       21 0.27024251E-02 0.29396030E+02</pdfrwt>
<pdfrwt beam="2">  1       21 0.97046141E-02 0.29396030E+02</pdfrwt>
<totfact> 0.48829939E+07</totfact>
</mgrwt>
</event>
<event>
 4    1  0.7151341E+004  0.2587874E+02  0.7546771E-02  0.1648692E+00
         21   -1    0    0  501  502  0.00000000000E+00  0.00000000000E+00  0.12877995719E+02  0.12877995719E+02  0.00000000000E+00 0. -1.
         21   -1    0    0  502  503 -0.00000000000E+00 -0.00000000000E+00 -0.53768807043E+02  0.53768807043E+02  0.00000000000E+00 0. -1.
          1    1    1    2  501    0 -0.11649990554E+02  0.23108154763E+02 -0.26482326370E+02  0.37027323781E+02  0.00000000000E+00 0.  1.
         -1    1    1    2    0  503  0.11649990554E+02 -0.23108154763E+02 -0.14408484954E+02  0.29619478981E+02  0.00000000000E+00 0. -1.
<mgrwt>
<rscale>  2 0.25878738E+02</rscale>
<asrwt>0</asrwt>
<pdfrwt beam="1">  1       21 0.19812301E-02 0.25878738E+02</pdfrwt>
<pdfrwt beam="2">  1       21 0.82721241E-02 0.25878738E+02</pdfrwt>
<totfact> 0.99802117E+07</totfact>
</mgrwt>
</event>
<event>
 4    1  0.7151341E+004  0.2836354E+02  0.7546771E-02  0.1616915E+00
         21   -1    0    0  503  502  0.00000000000E+00  0.00000000000E+00  0.18042498143E+03  0.18042498143E+03  0.00000000000E+00 0.  1.
         21   -1    0    0  501  503 -0.00000000000E+00 -0.00000000000E+00 -0.45442872791E+01  0.45442872791E+01  0.00000000000E+00 0.  1.
          4    1    1    2  501    0  0.20279905653E+00  0.28362816456E+02  0.75260197230E+02  0.80427531181E+02  0.00000000000E+00 0.  1.
         -4    1    1    2    0  502 -0.20279905653E+00 -0.28362816456E+02  0.10062049692E+03  0.10454173753E+03  0.00000000000E+00 0. -1.
<mgrwt>
<rscale>  2 0.28363541E+02</rscale>
<asrwt>0</asrwt>
<pdfrwt beam="1">  1       21 0.27757684E-01 0.28363541E+02</pdfrwt>
<pdfrwt beam="2">  1       21 0.69912126E-03 0.28363541E+02</pdfrwt>
<totfact> 0.61820608E+07</totfact>
</mgrwt>
</event>
<event>
 4    1  0.7151341E+004  0.2895870E+02  0.7546771E-02  0.1609892E+00
         21   -1    0    0  501  502  0.00000000000E+00  0.00000000000E+00  0.21528002105E+02  0.21528002105E+02  0.00000000000E+00 0. -1.
         21   -1    0    0  502  503 -0.00000000000E+00 -0.00000000000E+00 -0.41365674666E+02  0.41365674666E+02  0.00000000000E+00 0. -1.
          1    1    1    2  501    0  0.17861305062E+02 -0.22794299590E+02 -0.23261160999E+01  0.29051972884E+02  0.00000000000E+00 0.  1.
         -1    1    1    2    0  503 -0.17861305062E+02  0.22794299590E+02 -0.17511556461E+02  0.33841703887E+02  0.00000000000E+00 0. -1.
<mgrwt>
<rscale>  2 0.28958700E+02</rscale>
<asrwt>0</asrwt>
<pdfrwt beam="1">  1       21 0.33120003E-02 0.28958700E+02</pdfrwt>
<pdfrwt beam="2">  1       21 0.63639500E-02 0.28958700E+02</pdfrwt>
<totfact> 0.70788206E+07</totfact>
</mgrwt>
</event>
<event>
 4    1  0.7151341E+004  0.3152866E+02  0.7546771E-02  0.1581781E+00
         21   -1    0    0  501  502  0.00000000000E+00  0.00000000000E+00  0.15415264095E+01  0.15415264095E+01  0.00000000000E+00 0.  1.
         21   -1    0    0  502  503 -0.00000000000E+00 -0.00000000000E+00 -0.69429412002E+03  0.69429412002E+03  0.00000000000E+00 0.  1.
          3    1    1    2  501    0 -0.27357084559E+02  0.15673101122E+02 -0.43922034867E+03  0.44035050910E+03  0.00000000000E+00 0.  1.
         -3    1    1    2    0  503  0.27357084559E+02 -0.15673101122E+02 -0.25353224494E+03  0.25548513733E+03  0.00000000000E+00 0. -1.
<mgrwt>
<rscale>  2 0.31528656E+02</rscale>
<asrwt>0</asrwt>
<pdfrwt beam="1">  1       21 0.23715843E-03 0.31528656E+02</pdfrwt>
<pdfrwt beam="2">  1       21 0.10681424E+00 0.31528656E+02</pdfrwt>
<totfact> 0.20972068E+07</totfact>
</mgrwt>
</event>
<event>
 4    1  0.7151341E+004  0.4349604E+02  0.7546771E-02  0.1483955E+00
         21   -1    0    0  503  502  0.00000000000E+00  0.00000000000E+00  0.58952650523E+01  0.58952650523E+01  0.00000000000E+00 0. -1.
         21   -1    0    0  501  503 -0.00000000000E+00 -0.00000000000E+00 -0.32971510918E+03  0.32971510918E+03  0.00000000000E+00 0. -1.
          3    1    1    2  501    0 -0.11918726308E+02  0.41831198558E+02 -0.13450237370E+03  0.14136050983E+03  0.00000000000E+00 0.  1.
         -3    1    1    2    0  502  0.11918726308E+02 -0.41831198558E+02 -0.18931747043E+03  0.19424986440E+03  0.00000000000E+00 0. -1.
<mgrwt>
<rscale>  2 0.43496037E+02</rscale>
<asrwt>0</asrwt>
<pdfrwt beam="1">  1       21 0.90696397E-03 0.43496037E+02</pdfrwt>
<pdfrwt beam="2">  1       21 0.50725395E-01 0.43496037E+02</pdfrwt>
<totfact> 0.14262902E+07</totfact>
</mgrwt>
</event>
<event>
 4    1  0.7151341E+004  0.2646653E+02  0.7546771E-02  0.1640789E+00
         21   -1    0    0  501  502  0.00000000000E+00  0.00000000000E+00  0.31276010803E+01  0.31276010803E+01  0.00000000000E+00 0. -1.
         21   -1    0    0  502  503 -0.00000000000E+00 -0.00000000000E+00 -0.23385806780E+03  0.23385806780E+03  0.00000000000E+00 0. -1.
          4    1    1    2  501    0  0.62326898438E+01 -0.25722184087E+02 -0.90995357211E+02  0.94766197617E+02  0.00000000000E+00 0. -1.
         -4    1    1    2    0  503 -0.62326898438E+01  0.25722184087E+02 -0.13973510951E+03  0.14221947126E+03  0.00000000000E+00 0.  1.
<mgrwt>
<rscale>  2 0.26466529E+02</rscale>
<asrwt>0</asrwt>
<pdfrwt beam="1">  1       21 0.48116932E-03 0.26466529E+02</pdfrwt>
<pdfrwt beam="2">  1       21 0.35978170E-01 0.26466529E+02</pdfrwt>
<totfact> 0.65786338E+07</totfact>
</mgrwt>
</event>
<event>
 4    1  0.7151341E+004  0.2043906E+02  0.7546771E-02  0.1736735E+00
         21   -1    0    0  503  502  0.00000000000E+00  0.00000000000E+00  0.15209083372E+02  0.15209083372E+02  0.00000000000E+00 0.  1.
         21   -1    0    0  501  503 -0.00000000000E+00 -0.00000000000E+00 -0.27674993926E+02  0.27674993926E+02  0.00000000000E+00 0.  1.
          1    1    1    2  501    0  0.18725631845E+02  0.81918170397E+01 -0.43762258952E+01  0.20902308664E+02  0.00000000000E+00 0. -1.
         -1    1    1    2    0  502 -0.18725631845E+02 -0.81918170397E+01 -0.80896846592E+01  0.21981768634E+02  0.00000000000E+00 0.  1.
<mgrwt>
<rscale>  2 0.20439060E+02</rscale>
<asrwt>0</asrwt>
<pdfrwt beam="1">  1       21 0.23398590E-02 0.20439060E+02</pdfrwt>
<pdfrwt beam="2">  1       21 0.42576913E-02 0.20439060E+02</pdfrwt>
<totfact> 0.20928441E+08</totfact>
</mgrwt>
</event>
<event>
 4    1  0.7151341E+004  0.2495142E+02  0.7546771E-02  0.1661701E+00
         21   -1    0    0  503  502  0.00000000000E+00  0.00000000000E+00  0.69023067156E+02  0.69023067156E+02  0.00000000000E+00 0.  1.
         21   -1    0    0  501  503 -0.00000000000E+00 -0.00000000000E+00 -0.11438906477E+02  0.11438906477E+02  0.00000000000E+00 0.  1.
          2    1    1    2  501    0  0.23678557270E+02  0.78676189672E+01  0.10291007657E+02  0.26990337923E+02  0.00000000000E+00 0.  1.
         -2    1    1    2    0  502 -0.23678557270E+02 -0.78676189672E+01  0.47293153022E+02  0.53471635709E+02  0.00000000000E+00 0. -1.
<mgrwt>
<rscale>  2 0.24951423E+02</rscale>
<asrwt>0</asrwt>
<pdfrwt beam="1">  1       21 0.10618933E-01 0.24951423E+02</pdfrwt>
<pdfrwt beam="2">  1       21 0.17598318E-02 0.24951423E+02</pdfrwt>
<totfact> 0.78467132E+07</totfact>
</mgrwt>
</event>
<event>
 4    1  0.7151341E+004  0.3912106E+02  0.7546771E-02  0.1514781E+00
         21   -1    0    0  501  502  0.00000000000E+00  0.00000000000E+00  0.71947566366E+01  0.71947566366E+01  0.00000000000E+00 0.  1.
         21   -1    0    0  502  503 -0.00000000000E+00 -0.00000000000E+00 -0.37609098923E+03  0.37609098923E+03  0.00000000000E+00 0.  1.
          5    1    1    2  501    0  0.51508612830E+01  0.38780487444E+02 -0.58138702374E+02  0.70075432871E+02  0.00000000000E+00 0.  1.
         -5    1    1    2    0  503 -0.51508612830E+01 -0.38780487444E+02 -0.31075753022E+03  0.31321031299E+03  0.00000000000E+00 0. -1.
<mgrwt>
<rscale>  2 0.39121063E+02</rscale>
<asrwt>0</asrwt>
<pdfrwt beam="1">  1       21 0.11068860E-02 0.39121063E+02</pdfrwt>
<pdfrwt beam="2">  1       21 0.57860135E-01 0.39121063E+02</pdfrwt>
<totfact> 0.79604980E+06</totfact>
</mgrwt>
</event>
<event>
 4    1  0.7151341E+004  0.2150654E+02  0.7546771E-02  0.1716928E+00
         21   -1    0    0  501  502  0.00000000000E+00  0.00000000000E+00  0.69193490730E+02  0.69193490730E+02  0.00000000000E+00 0. -1.
         21   -1    0    0  502  503 -0.00000000000E+00 -0.00000000000E+00 -0.77749901071E+01  0.77749901071E+01  0.00000000000E+00 0. -1.
          1    1    1    2  501    0 -0.10781285570E+02 -0.18609011577E+02  0.16297319885E+02  0.26983959417E+02  0.00000000000E+00 0. -1.
         -1    1    1    2    0  503  0.10781285570E+02  0.18609011577E+02  0.45121180737E+02  0.49984521419E+02  0.00000000000E+00 0.  1.
<mgrwt>
<rscale>  2 0.21506544E+02</rscale>
<asrwt>0</asrwt>
<pdfrwt beam="1">  1       21 0.10645152E-01 0.21506544E+02</pdfrwt>
<pdfrwt beam="2">  1       21 0.11961524E-02 0.21506544E+02</pdfrwt>
<totfact> 0.13470365E+08</totfact>
</mgrwt>
</event>
<event>
 4    1  0.7151341E+004  0.2264940E+02  0.7546771E-02  0.1697257E+00
         21   -1    0    0  503  502  0.00000000000E+00  0.00000000000E+00  0.12401207833E+02  0.12401207833E+02  0.00000000000E+00 0. -1.
         21   -1    0    0  501  503 -0.00000000000E+00 -0.00000000000E+00 -0.50572208179E+02  0.50572208179E+02  0.00000000000E+00 0. -1.
          4    1    1    2  501    0  0.22638381141E+02 -0.70635127451E+00 -0.32519292418E+02  0.39629529547E+02  0.00000000000E+00 0.  1.
         -4    1    1    2    0  502 -0.22638381141E+02  0.70635127451E+00 -0.56517079289E+01  0.23343886465E+02  0.00000000000E+00 0. -1.
<mgrwt>
<rscale>  2 0.22649398E+02</rscale>
<asrwt>0</asrwt>
<pdfrwt beam="1">  1       21 0.19078782E-02 0.22649398E+02</pdfrwt>
<pdfrwt beam="2">  1       21 0.77803396E-02 0.22649398E+02</pdfrwt>
<totfact> 0.11264613E+08</totfact>
</mgrwt>
</event>
<event>
 4    1  0.7151341E+004  0.2242752E+02  0.7546771E-02  0.1700961E+00
         21   -1    0    0  503  502  0.00000000000E+00  0.00000000000E+00  0.23484545896E+02  0.23484545896E+02  0.00000000000E+00 0.  1.
         21   -1    0    0  501  503 -0.00000000000E+00 -0.00000000000E+00 -0.22182699013E+02  0.22182699013E+02  0.00000000000E+00 0.  1.
          2    1    1    2  501    0 -0.21708000877E+02 -0.56352732723E+01  0.48902171295E+01  0.22954472996E+02  0.00000000000E+00 0. -1.
         -2    1    1    2    0  502  0.21708000877E+02  0.56352732723E+01 -0.35883702468E+01  0.22712771913E+02  0.00000000000E+00 0.  1.
<mgrwt>
<rscale>  2 0.22427519E+02</rscale>
<asrwt>0</asrwt>
<pdfrwt beam="1">  1       21 0.36130071E-02 0.22427519E+02</pdfrwt>
<pdfrwt beam="2">  1       21 0.34127229E-02 0.22427519E+02</pdfrwt>
<totfact> 0.15540329E+08</totfact>
</mgrwt>
</event>
<event>
 4    1  0.7151341E+004  0.2086536E+02  0.7546771E-02  0.1728647E+00
         21   -1    0    0  503  502  0.00000000000E+00  0.00000000000E+00  0.18171733234E+04  0.18171733234E+04  0.00000000000E+00 0. -1.
         21   -1    0    0  501  503 -0.00000000000E+00 -0.00000000000E+00 -0.24094721787E+00  0.24094721787E+00  0.00000000000E+00 0. -1.
          2    1    1    2  501    0 -0.19854922651E+02 -0.64144515094E+01  0.97685194990E+03  0.97707476437E+03  0.00000000000E+00 0.  1.
         -2    1    1    2    0  502  0.19854922651E+02  0.64144515094E+01  0.84008042627E+03  0.84033950623E+03  0.00000000000E+00 0. -1.
<mgrwt>
<rscale>  2 0.20865357E+02</rscale>
<asrwt>0</asrwt>
<pdfrwt beam="1">  1       21 0.27955415E+00 0.20865357E+02</pdfrwt>
<pdfrwt beam="2">  1       21 0.37070258E-04 0.20865357E+02</pdfrwt>
<totfact> 0.24579460E+07</totfact>
</mgrwt>
</event>
<event>
 4    1  0.7151341E+004  0.2063452E+02  0.7546771E-02  0.1732997E+00
         21   -1    0    0  503  502  0.00000000000E+00  0.00000000000E+00  0.58151875426E+02  0.58151875426E+02  0.00000000000E+00 0.  1.
         21   -1    0    0  501  503 -0.00000000000E+00 -0.00000000000E+00 -0.76135148768E+01  0.76135148768E+01  0.00000000000E+00 0.  1.
          5    1    1    2  501    0 -0.20108662849E+02 -0.46287054327E+01  0.31704447660E+02  0.37827968978E+02  0.00000000000E+00 0.  1.
         -5    1    1    2    0  502  0.20108662849E+02  0.46287054327E+01  0.18833912889E+02  0.27937421324E+02  0.00000000000E+00 0. -1.
<mgrwt>
<rscale>  2 0.20634516E+02</rscale>
<asrwt>0</asrwt>
<pdfrwt beam="1">  1       21 0.89464421E-02 0.20634516E+02</pdfrwt>
<pdfrwt beam="2">  1       21 0.11713100E-02 0.20634516E+02</pdfrwt>
<totfact> 0.18273121E+08</totfact>
</mgrwt>
</event>
<event>
 4    1  0.7151341E+004  0.2155090E+02  0.7546771E-02  0.1716137E+00
         21   -1    0    0  501  502  0.00000000000E+00  0.00000000000E+00  0.44940758705E+02  0.44940758705E+02  0.00000000000E+00 0.  1.
         21   -1    0    0  502  503 -0.00000000000E+00 -0.00000000000E+00 -0.11914701134E+02  0.11914701134E+02  0.00000000000E+00 0.  1.
          2    1    1    2  501    0 -0.92726725305E+01  0.19454016787E+02  0.26865734553E+02  0.34441383800E+02  0.00000000000E+00 0. -1.
         -2    1    1    2    0  503  0.92726725305E+01 -0.19454016787E+02  0.61603230182E+01  0.22414076039E+02  0.00000000000E+00 0.  1.
<mgrwt>
<rscale>  2 0.21550898E+02</rscale>
<asrwt>0</asrwt>
<pdfrwt beam="1">  1       21 0.69139628E-02 0.21550898E+02</pdfrwt>
<pdfrwt beam="2">  1       21 0.18330310E-02 0.21550898E+02</pdfrwt>
<totfact> 0.14287303E+08</totfact>
</mgrwt>
</event>
<event>
 4    1  0.7151341E+004  0.2090488E+02  0.7546771E-02  0.1727910E+00
         21   -1    0    0  501  502  0.00000000000E+00  0.00000000000E+00  0.21862511416E+02  0.21862511416E+02  0.00000000000E+00 0.  1.
         21   -1    0    0  502  503 -0.00000000000E+00 -0.00000000000E+00 -0.24233259694E+02  0.24233259694E+02  0.00000000000E+00 0.  1.
          3    1    1    2  501    0  0.20403956989E+02 -0.45488980418E+01 -0.10830687270E+02  0.23543952959E+02  0.00000000000E+00 0. -1.
         -3    1    1    2    0  503 -0.20403956989E+02  0.45488980418E+01  0.84599389921E+01  0.22551818151E+02  0.00000000000E+00 0.  1.
<mgrwt>
<rscale>  2 0.20904878E+02</rscale>
<asrwt>0</asrwt>
<pdfrwt beam="1">  1       21 0.33634633E-02 0.20904878E+02</pdfrwt>
<pdfrwt beam="2">  1       21 0.37281938E-02 0.20904878E+02</pdfrwt>
<totfact> 0.14809541E+08</totfact>
</mgrwt>
</event>
<event>
 4    1  0.7151341E+004  0.2146522E+02  0.7546771E-02  0.1717668E+00
         21   -1    0    0  503  502  0.00000000000E+00  0.00000000000E+00  0.74117161552E+02  0.74117161552E+02  0.00000000000E+00 0. -1.
         21   -1    0    0  501  503 -0.00000000000E+00 -0.00000000000E+00 -0.70187745293E+01  0.70187745293E+01  0.00000000000E+00 0. -1.
          1    1    1    2  501    0  0.93936206065E+01 -0.19300661457E+02  0.19834342877E+02  0.29225961030E+02  0.00000000000E+00 0. -1.
         -1    1    1    2    0  502 -0.93936206065E+01  0.19300661457E+02  0.47264044146E+02  0.51909975052E+02  0.00000000000E+00 0.  1.
<mgrwt>
<rscale>  2 0.21465219E+02</rscale>
<asrwt>0</asrwt>
<pdfrwt beam="1">  1       21 0.11402640E-01 0.21465219E+02</pdfrwt>
<pdfrwt beam="2">  1       21 0.10798115E-02 0.21465219E+02</pdfrwt>
<totfact> 0.14008744E+08</totfact>
</mgrwt>
</event>
<event>
 4    1  0.7151341E+004  0.2856428E+02  0.7546771E-02  0.1614523E+00
         21   -1    0    0  503  502  0.00000000000E+00  0.00000000000E+00  0.16681010463E+03  0.16681010463E+03  0.00000000000E+00 0.  1.
         21   -1    0    0  501  503 -0.00000000000E+00 -0.00000000000E+00 -0.51757520323E+01  0.51757520323E+01  0.00000000000E+00 0.  1.
          2    1    1    2  501    0  0.22957006120E+02 -0.16996888465E+02  0.60657658057E+02  0.67046773439E+02  0.00000000000E+00 0. -1.
         -2    1    1    2    0  502 -0.22957006120E+02  0.16996888465E+02  0.10097669454E+03  0.10493908322E+03  0.00000000000E+00 0.  1.
<mgrwt>
<rscale>  2 0.28564284E+02</rscale>
<asrwt>0</asrwt>
<pdfrwt beam="1">  1       21 0.25663089E-01 0.28564284E+02</pdfrwt>
<pdfrwt beam="2">  1       21 0.79626967E-03 0.28564284E+02</pdfrwt>
<totfact> 0.58715034E+07</totfact>
</mgrwt>
</event>
<event>
 4    1  0.7151341E+004  0.2635022E+02  0.7546771E-02  0.1642333E+00
         21   -1    0    0  503  502  0.00000000000E+00  0.00000000000E+00  0.99847597732E+00  0.99847597732E+00  0.00000000000E+00 0. -1.
         21   -1    0    0  501  503 -0.00000000000E+00 -0.00000000000E+00 -0.85184586340E+03  0.85184586340E+03  0.00000000000E+00 0. -1.
          4    1    1    2  501    0  0.51265541433E+01  0.25846714174E+02 -0.60817044030E+03  0.60874101114E+03  0.00000000000E+00 0. -1.
         -4    1    1    2    0  502 -0.51265541433E+01 -0.25846714174E+02 -0.24267694712E+03  0.24410332824E+03  0.00000000000E+00 0.  1.
<mgrwt>
<rscale>  2 0.26350222E+02</rscale>
<asrwt>0</asrwt>
<pdfrwt beam="1">  1       21 0.15361143E-03 0.26350222E+02</pdfrwt>
<pdfrwt beam="2">  1       21 0.13105343E+00 0.26350222E+02</pdfrwt>
<totfact> 0.24009986E+07</totfact>
</mgrwt>
</event>
<event>
 4    1  0.7151341E+004  0.2126216E+02  0.7546771E-02  0.1721334E+00
         21   -1    0    0  503  502  0.00000000000E+00  0.00000000000E+00  0.43407897969E+02  0.43407897969E+02  0.00000000000E+00 0. -1.
         21   -1    0    0  501  503 -0.00000000000E+00 -0.00000000000E+00 -0.14653069448E+02  0.14653069448E+02  0.00000000000E+00 0. -1.
          2    1    1    2  501    0 -0.14226870861E+02  0.15801132248E+02 -0.12357195469E+01  0.21298043047E+02  0.00000000000E+00 0.  1.
         -2    1    1    2    0  502  0.14226870861E+02 -0.15801132248E+02  0.29990548068E+02  0.36762924370E+02  0.00000000000E+00 0. -1.
<mgrwt>
<rscale>  2 0.21262164E+02</rscale>
<asrwt>0</asrwt>
<pdfrwt beam="1">  1       21 0.66781381E-02 0.21262164E+02</pdfrwt>
<pdfrwt beam="2">  1       21 0.22543184E-02 0.21262164E+02</pdfrwt>
<totfact> 0.10962961E+08</totfact>
</mgrwt>
</event>
<event>
 4    1  0.7151341E+004  0.2446731E+02  0.7546771E-02  0.1668773E+00
         21   -1    0    0  503  502  0.00000000000E+00  0.00000000000E+00  0.19981338011E+01  0.19981338011E+01  0.00000000000E+00 0. -1.
         21   -1    0    0  501  503 -0.00000000000E+00 -0.00000000000E+00 -0.30514383237E+03  0.30514383237E+03  0.00000000000E+00 0. -1.
          2    1    1    2  501    0  0.24351170958E+02  0.23811277029E+01 -0.17226458873E+03  0.17399349938E+03  0.00000000000E+00 0. -1.
         -2    1    1    2    0  502 -0.24351170958E+02 -0.23811277029E+01 -0.13088110983E+03  0.13314846679E+03  0.00000000000E+00 0.  1.
<mgrwt>
<rscale>  2 0.24467311E+02</rscale>
<asrwt>0</asrwt>
<pdfrwt beam="1">  1       21 0.30740530E-03 0.24467311E+02</pdfrwt>
<pdfrwt beam="2">  1       21 0.46945190E-01 0.24467311E+02</pdfrwt>
<totfact> 0.75302093E+07</totfact>
</mgrwt>
</event>
<event>
 4    1  0.7151341E+004  0.2066564E+02  0.7546771E-02  0.1732406E+00
         21   -1    0    0  503  502  0.00000000000E+00  0.00000000000E+00  0.52139317326E+02  0.52139317326E+02  0.00000000000E+00 0.  1.
         21   -1    0    0  501  503 -0.00000000000E+00 -0.00000000000E+00 -0.84901683792E+01  0.84901683792E+01  0.00000000000E+00 0.  1.
          4    1    1    2  501    0 -0.49325628178E+01 -0.20068347853E+02  0.27515915904E+02  0.34412125618E+02  0.00000000000E+00 0.  1.
         -4    1    1    2    0  502  0.49325628178E+01  0.20068347853E+02  0.16133233043E+02  0.26217360087E+02  0.00000000000E+00 0. -1.
<mgrwt>
<rscale>  2 0.20665642E+02</rscale>
<asrwt>0</asrwt>
<pdfrwt beam="1">  1       21 0.80214332E-02 0.20665642E+02</pdfrwt>
<pdfrwt beam="2">  1       21 0.13061798E-02 0.20665642E+02</pdfrwt>
<totfact> 0.18536342E+08</totfact>
</mgrwt>
</event>
<event>
 4    1  0.7151341E+004  0.2185756E+02  0.7546771E-02  0.1710727E+00
         21   -1    0    0  503  502  0.00000000000E+00  0.00000000000E+00  0.13887795978E+02  0.13887795978E+02  0.00000000000E+00 0. -1.
         21   -1    0    0  501  503 -0.00000000000E+00 -0.00000000000E+00 -0.35348336443E+02  0.35348336443E+02  0.00000000000E+00 0. -1.
          5    1    1    2  501    0  0.41589383800E+01 -0.21458240949E+02 -0.66999336814E+01  0.22861364448E+02  0.00000000000E+00 0.  1.
         -5    1    1    2    0  502 -0.41589383800E+01  0.21458240949E+02 -0.14760606783E+02  0.26374767974E+02  0.00000000000E+00 0. -1.
<mgrwt>
<rscale>  2 0.21857559E+02</rscale>
<asrwt>0</asrwt>
<pdfrwt beam="1">  1       21 0.21365840E-02 0.21857559E+02</pdfrwt>
<pdfrwt beam="2">  1       21 0.54382056E-02 0.21857559E+02</pdfrwt>
<totfact> 0.16683201E+08</totfact>
</mgrwt>
</event>
<event>
 4    1  0.7151341E+004  0.2966674E+02  0.7546771E-02  0.1601802E+00
         21   -1    0    0  503  502  0.00000000000E+00  0.00000000000E+00  0.30230263011E+02  0.30230263011E+02  0.00000000000E+00 0. -1.
         21   -1    0    0  501  503 -0.00000000000E+00 -0.00000000000E+00 -0.29117354664E+02  0.29117354664E+02  0.00000000000E+00 0. -1.
          2    1    1    2  501    0  0.76496857025E+01  0.28663528984E+02  0.22517915510E+00  0.29667596647E+02  0.00000000000E+00 0. -1.
         -2    1    1    2    0  502 -0.76496857025E+01 -0.28663528984E+02  0.88772919244E+00  0.29680021029E+02  0.00000000000E+00 0.  1.
<mgrwt>
<rscale>  2 0.29666742E+02</rscale>
<asrwt>0</asrwt>
<pdfrwt beam="1">  1       21 0.46508097E-02 0.29666742E+02</pdfrwt>
<pdfrwt beam="2">  1       21 0.44795930E-02 0.29666742E+02</pdfrwt>
<totfact> 0.73119702E+07</totfact>
</mgrwt>
</event>
<event>
 4    1  0.7151341E+004  0.2113090E+02  0.7546771E-02  0.1723731E+00
         21   -1    0    0  501  502  0.00000000000E+00  0.00000000000E+00  0.47447589396E+02  0.47447589396E+02  0.00000000000E+00 0. -1.
         21   -1    0    0  502  503 -0.00000000000E+00 -0.00000000000E+00 -0.99272650220E+01  0.99272650220E+01  0.00000000000E+00 0. -1.
          2    1    1    2  501    0 -0.76359086622E+01  0.19702992853E+02  0.12216222318E+02  0.24408013361E+02  0.00000000000E+00 0.  1.
         -2    1    1    2    0  503  0.76359086622E+01 -0.19702992853E+02  0.25304102056E+02  0.32966841058E+02  0.00000000000E+00 0. -1.
<mgrwt>
<rscale>  2 0.21130902E+02</rscale>
<asrwt>0</asrwt>
<pdfrwt beam="1">  1       21 0.72996290E-02 0.21130902E+02</pdfrwt>
<pdfrwt beam="2">  1       21 0.15272716E-02 0.21130902E+02</pdfrwt>
<totfact> 0.17170066E+08</totfact>
</mgrwt>
</event>
<event>
 4    1  0.7151341E+004  0.4513361E+02  0.7546771E-02  0.1473509E+00
         21   -1    0    0  503  502  0.00000000000E+00  0.00000000000E+00  0.43718747171E+01  0.43718747171E+01  0.00000000000E+00 0. -1.
         21   -1    0    0  501  503 -0.00000000000E+00 -0.00000000000E+00 -0.48886886937E+03  0.48886886937E+03  0.00000000000E+00 0. -1.
          5    1    1    2  501    0  0.33990516620E+02 -0.29693217944E+02 -0.29565572287E+03  0.29908084003E+03  0.00000000000E+00 0. -1.
         -5    1    1    2    0  502 -0.33990516620E+02  0.29693217944E+02 -0.18884127179E+03  0.19415990406E+03  0.00000000000E+00 0.  1.
<mgrwt>
<rscale>  2 0.45133606E+02</rscale>
<asrwt>0</asrwt>
<pdfrwt beam="1">  1       21 0.67259597E-03 0.45133606E+02</pdfrwt>
<pdfrwt beam="2">  1       21 0.75210611E-01 0.45133606E+02</pdfrwt>
<totfact> 0.10022097E+07</totfact>
</mgrwt>
</event>
<event>
 4    1  0.7151341E+004  0.3153891E+02  0.7546771E-02  0.1581675E+00
         21   -1    0    0  501  502  0.00000000000E+00  0.00000000000E+00  0.37385197503E+02  0.37385197503E+02  0.00000000000E+00 0. -1.
         21   -1    0    0  502  503 -0.00000000000E+00 -0.00000000000E+00 -0.28508211728E+02  0.28508211728E+02  0.00000000000E+00 0. -1.
          5    1    1    2  501    0 -0.27808713803E+02  0.14878796174E+02 -0.40700841302E+01  0.31800451629E+02  0.00000000000E+00 0.  1.
         -5    1    1    2    0  503  0.27808713803E+02 -0.14878796174E+02  0.12947069906E+02  0.34092957603E+02  0.00000000000E+00 0. -1.
<mgrwt>
<rscale>  2 0.31538915E+02</rscale>
<asrwt>0</asrwt>
<pdfrwt beam="1">  1       21 0.57515689E-02 0.31538915E+02</pdfrwt>
<pdfrwt beam="2">  1       21 0.43858787E-02 0.31538915E+02</pdfrwt>
<totfact> 0.54446382E+07</totfact>
</mgrwt>
</event>
<event>
 4    1  0.7151341E+004  0.2320151E+02  0.7546771E-02  0.1688264E+00
         21   -1    0    0  503  502  0.00000000000E+00  0.00000000000E+00  0.31915206330E+02  0.31915206330E+02  0.00000000000E+00 0.  1.
         21   -1    0    0  501  503 -0.00000000000E+00 -0.00000000000E+00 -0.17213558948E+02  0.17213558948E+02  0.00000000000E+00 0.  1.
          5    1    1    2  501    0 -0.23200945893E+02  0.16181055678E+00  0.38647870752E+01  0.23521195806E+02  0.00000000000E+00 0. -1.
         -5    1    1    2    0  502  0.23200945893E+02 -0.16181055678E+00  0.10836860307E+02  0.25607569473E+02  0.00000000000E+00 0.  1.
<mgrwt>
<rscale>  2 0.23201510E+02</rscale>
<asrwt>0</asrwt>
<pdfrwt beam="1">  1       21 0.49100317E-02 0.23201510E+02</pdfrwt>
<pdfrwt beam="2">  1       21 0.26482399E-02 0.23201510E+02</pdfrwt>
<totfact> 0.14357853E+08</totfact>
</mgrwt>
</event>
<event>
 4    1  0.7151341E+004  0.4980259E+02  0.7546771E-02  0.1446409E+00
         21   -1    0    0  501  502  0.00000000000E+00  0.00000000000E+00  0.19004494003E+02  0.19004494003E+02  0.00000000000E+00 0.  1.
         21   -1    0    0  502  503 -0.00000000000E+00 -0.00000000000E+00 -0.21395573911E+03  0.21395573911E+03  0.00000000000E+00 0.  1.
          3    1    1    2  501    0 -0.38171353221E+02  0.31988220010E+02 -0.24733007678E+02  0.55605935789E+02  0.00000000000E+00 0. -1.
         -3    1    1    2    0  503  0.38171353221E+02 -0.31988220010E+02 -0.17021823743E+03  0.17735429733E+03  0.00000000000E+00 0.  1.
<mgrwt>
<rscale>  2 0.49802595E+02</rscale>
<asrwt>0</asrwt>
<pdfrwt beam="1">  1       21 0.29237682E-02 0.49802595E+02</pdfrwt>
<pdfrwt beam="2">  1       21 0.32916268E-01 0.49802595E+02</pdfrwt>
<totfact> 0.54004033E+06</totfact>
</mgrwt>
</event>
<event>
 4    1  0.7151341E+004  0.2278152E+02  0.7546771E-02  0.1695076E+00
         21   -1    0    0  503  502  0.00000000000E+00  0.00000000000E+00  0.15535165050E+01  0.15535165050E+01  0.00000000000E+00 0. -1.
         21   -1    0    0  501  503 -0.00000000000E+00 -0.00000000000E+00 -0.33940929991E+03  0.33940929991E+03  0.00000000000E+00 0. -1.
          1    1    1    2  501    0  0.22632389058E+02 -0.26024307957E+01 -0.14756404574E+03  0.14931224088E+03  0.00000000000E+00 0.  1.
         -1    1    1    2    0  502 -0.22632389058E+02  0.26024307957E+01 -0.19029173767E+03  0.19165057554E+03  0.00000000000E+00 0. -1.
<mgrwt>
<rscale>  2 0.22781521E+02</rscale>
<asrwt>0</asrwt>
<pdfrwt beam="1">  1       21 0.23900234E-03 0.22781521E+02</pdfrwt>
<pdfrwt beam="2">  1       21 0.52216859E-01 0.22781521E+02</pdfrwt>
<totfact> 0.86755624E+07</totfact>
</mgrwt>
</event>
<event>
 4    1  0.7151341E+004  0.2764615E+02  0.7546771E-02  0.1625667E+00
         21   -1    0    0  501  502  0.00000000000E+00  0.00000000000E+00  0.14279652035E+01  0.14279652035E+01  0.00000000000E+00 0. -1.
         21   -1    0    0  502  503 -0.00000000000E+00 -0.00000000000E+00 -0.57517180473E+03  0.57517180473E+03  0.00000000000E+00 0. -1.
          5    1    1    2  501    0  0.58290052038E+01 -0.27024666051E+02 -0.21091223970E+03  0.21271643739E+03  0.00000000000E+00 0.  1.
         -5    1    1    2    0  503 -0.58290052038E+01  0.27024666051E+02 -0.36283159982E+03  0.36388333255E+03  0.00000000000E+00 0. -1.
<mgrwt>
<rscale>  2 0.27646155E+02</rscale>
<asrwt>0</asrwt>
<pdfrwt beam="1">  1       21 0.21968724E-03 0.27646155E+02</pdfrwt>
<pdfrwt beam="2">  1       21 0.88487857E-01 0.27646155E+02</pdfrwt>
<totfact> 0.34703694E+07</totfact>
</mgrwt>
</event>
<event>
 4    1  0.7151341E+004  0.3401510E+02  0.7546771E-02  0.1557525E+00
         21   -1    0    0  501  502  0.00000000000E+00  0.00000000000E+00  0.84520599095E+01  0.84520599095E+01  0.00000000000E+00 0. -1.
         21   -1    0    0  502  503 -0.00000000000E+00 -0.00000000000E+00 -0.17232487272E+03  0.17232487272E+03  0.00000000000E+00 0. -1.
          4    1    1    2  501    0 -0.30733667031E+02  0.14576302617E+02 -0.40950289284E+02  0.53234885926E+02  0.00000000000E+00 0. -1.
         -4    1    1    2    0  503  0.30733667031E+02 -0.14576302617E+02 -0.12292252353E+03  0.12754204671E+03  0.00000000000E+00 0.  1.
<mgrwt>
<rscale>  2 0.34015098E+02</rscale>
<asrwt>0</asrwt>
<pdfrwt beam="1">  1       21 0.13003170E-02 0.34015098E+02</pdfrwt>
<pdfrwt beam="2">  1       21 0.26511517E-01 0.34015098E+02</pdfrwt>
<totfact> 0.27224595E+07</totfact>
</mgrwt>
</event>
<event>
 4    1  0.7151341E+004  0.2094855E+02  0.7546771E-02  0.1727097E+00
         21   -1    0    0  501  502  0.00000000000E+00  0.00000000000E+00  0.39139444802E+01  0.39139444802E+01  0.00000000000E+00 0. -1.
         21   -1    0    0  502  503 -0.00000000000E+00 -0.00000000000E+00 -0.12907733896E+03  0.12907733896E+03  0.00000000000E+00 0. -1.
          4    1    1    2  501    0  0.51071116079E+01 -0.20316471467E+02 -0.86681518984E+02  0.89176943967E+02  0.00000000000E+00 0.  1.
         -4    1    1    2    0  503 -0.51071116079E+01  0.20316471467E+02 -0.38481875499E+02  0.43814339477E+02  0.00000000000E+00 0. -1.
<mgrwt>
<rscale>  2 0.20948547E+02</rscale>
<asrwt>0</asrwt>
<pdfrwt beam="1">  1       21 0.60214544E-03 0.20948547E+02</pdfrwt>
<pdfrwt beam="2">  1       21 0.19858048E-01 0.20948547E+02</pdfrwt>
<totfact> 0.12936417E+08</totfact>
</mgrwt>
</event>
<event>
 4    1  0.7151341E+004  0.2163784E+02  0.7546771E-02  0.1714592E+00
         21   -1    0    0  503  502  0.00000000000E+00  0.00000000000E+00  0.25840200631E+01  0.25840200631E+01  0.00000000000E+00 0. -1.
         21   -1    0    0  501  503 -0.00000000000E+00 -0.00000000000E+00 -0.18380207702E+03  0.18380207702E+03  0.00000000000E+00 0. -1.
          2    1    1    2  501    0  0.19885462650E+02 -0.85302183136E+01 -0.10172063262E+03  0.10399655451E+03  0.00000000000E+00 0.  1.
         -2    1    1    2    0  502 -0.19885462650E+02  0.85302183136E+01 -0.79497424338E+02  0.82389542574E+02  0.00000000000E+00 0. -1.
<mgrwt>
<rscale>  2 0.21637843E+02</rscale>
<asrwt>0</asrwt>
<pdfrwt beam="1">  1       21 0.39754151E-03 0.21637843E+02</pdfrwt>
<pdfrwt beam="2">  1       21 0.28277245E-01 0.21637843E+02</pdfrwt>
<totfact> 0.12870464E+08</totfact>
</mgrwt>
</event>
<event>
 4    1  0.7151341E+004  0.2431058E+02  0.7546771E-02  0.1671106E+00
         21   -1    0    0  501  502  0.00000000000E+00  0.00000000000E+00  0.68380936057E+02  0.68380936057E+02  0.00000000000E+00 0. -1.
         21   -1    0    0  502  503 -0.00000000000E+00 -0.00000000000E+00 -0.86428618044E+01  0.86428618044E+01  0.00000000000E+00 0. -1.
          5    1    1    2  501    0  0.23478696699E+02 -0.63051796325E+01  0.29789964148E+02  0.38450571554E+02  0.00000000000E+00 0.  1.
         -5    1    1    2    0  503 -0.23478696699E+02  0.63051796325E+01  0.29948110104E+02  0.38573226307E+02  0.00000000000E+00 0. -1.
<mgrwt>
<rscale>  2 0.24310584E+02</rscale>
<asrwt>0</asrwt>
<pdfrwt beam="1">  1       21 0.10520144E-01 0.24310584E+02</pdfrwt>
<pdfrwt beam="2">  1       21 0.13296711E-02 0.24310584E+02</pdfrwt>
<totfact> 0.12135423E+08</totfact>
</mgrwt>
</event>
<event>
 4    1  0.7151341E+004  0.4269019E+02  0.7546771E-02  0.1489299E+00
         21   -1    0    0  501  502  0.00000000000E+00  0.00000000000E+00  0.14150031945E+02  0.14150031945E+02  0.00000000000E+00 0.  1.
         21   -1    0    0  502  503 -0.00000000000E+00 -0.00000000000E+00 -0.13320651116E+03  0.13320651116E+03  0.00000000000E+00 0.  1.
          1    1    1    2  501    0 -0.41277144439E+02 -0.10892640771E+02 -0.72936553829E+02  0.84511497209E+02  0.00000000000E+00 0. -1.
         -1    1    1    2    0  503  0.41277144439E+02  0.10892640771E+02 -0.46119925384E+02  0.62845045895E+02  0.00000000000E+00 0.  1.
<mgrwt>
<rscale>  2 0.42690189E+02</rscale>
<asrwt>0</asrwt>
<pdfrwt beam="1">  1       21 0.21769280E-02 0.42690189E+02</pdfrwt>
<pdfrwt beam="2">  1       21 0.20493310E-01 0.42690189E+02</pdfrwt>
<totfact> 0.20227354E+07</totfact>
</mgrwt>
</event>
<event>
 4    1  0.7151341E+004  0.2212145E+02  0.7546771E-02  0.1706160E+00
         21   -1    0    0  501  502  0.00000000000E+00  0.00000000000E+00  0.16094220656E+03  0.16094220656E+03  0.00000000000E+00 0.  1.
         21   -1    0    0  502  503 -0.00000000000E+00 -0.00000000000E+00 -0.34834783056E+01  0.34834783056E+01  0.00000000000E+00 0.  1.
          3    1    1    2  501    0  0.52972397704E+01  0.21477842301E+02  0.10804387599E+03  0.11028525557E+03  0.00000000000E+00 0. -1.
         -3    1    1    2    0  503 -0.52972397704E+01 -0.21477842301E+02  0.49414852270E+02  0.54140429293E+02  0.00000000000E+00 0.  1.
<mgrwt>
<rscale>  2 0.22121448E+02</rscale>
<asrwt>0</asrwt>
<pdfrwt beam="1">  1       21 0.24760334E-01 0.22121448E+02</pdfrwt>
<pdfrwt beam="2">  1       21 0.53591986E-03 0.22121448E+02</pdfrwt>
<totfact> 0.10590230E+08</totfact>
</mgrwt>
</event>
<event>
 4    1  0.7151341E+004  0.3571725E+02  0.7546771E-02  0.1542322E+00
         21   -1    0    0  503  502  0.00000000000E+00  0.00000000000E+00  0.53082815166E+02  0.53082815166E+02  0.00000000000E+00 0.  1.
         21   -1    0    0  501  503 -0.00000000000E+00 -0.00000000000E+00 -0.24365027584E+02  0.24365027584E+02  0.00000000000E+00 0.  1.
          3    1    1    2  501    0  0.34384909901E+02 -0.96643778223E+01  0.18881545646E+02  0.40400928128E+02  0.00000000000E+00 0.  1.
         -3    1    1    2    0  502 -0.34384909901E+02  0.96643778223E+01  0.98362419355E+01  0.37046914622E+02  0.00000000000E+00 0. -1.
<mgrwt>
<rscale>  2 0.35717254E+02</rscale>
<asrwt>0</asrwt>
<pdfrwt beam="1">  1       21 0.81665869E-02 0.35717254E+02</pdfrwt>
<pdfrwt beam="2">  1       21 0.37484658E-02 0.35717254E+02</pdfrwt>
<totfact> 0.40406441E+07</totfact>
</mgrwt>
</event>
<event>
 4    1  0.7151341E+004  0.2063207E+02  0.7546771E-02  0.1733043E+00
         21   -1    0    0  501  502  0.00000000000E+00  0.00000000000E+00  0.42138012781E+01  0.42138012781E+01  0.00000000000E+00 0. -1.
         21   -1    0    0  502  503 -0.00000000000E+00 -0.00000000000E+00 -0.10726499636E+03  0.10726499636E+03  0.00000000000E+00 0. -1.
          4    1    1    2  501    0 -0.31986482181E+00  0.20629591080E+02 -0.38077364459E+02  0.43307828689E+02  0.00000000000E+00 0.  1.
         -4    1    1    2    0  503  0.31986482181E+00 -0.20629591080E+02 -0.64973830620E+02  0.68170968947E+02  0.00000000000E+00 0. -1.
<mgrwt>
<rscale>  2 0.20632071E+02</rscale>
<asrwt>0</asrwt>
<pdfrwt beam="1">  1       21 0.64827726E-03 0.20632071E+02</pdfrwt>
<pdfrwt beam="2">  1       21 0.16502304E-01 0.20632071E+02</pdfrwt>
<totfact> 0.15881044E+08</totfact>
</mgrwt>
</event>
<event>
 4    1  0.7151341E+004  0.2144167E+02  0.7546771E-02  0.1718091E+00
         21   -1    0    0  503  502  0.00000000000E+00  0.00000000000E+00  0.83570465552E+03  0.83570465552E+03  0.00000000000E+00 0. -1.
         21   -1    0    0  501  503 -0.00000000000E+00 -0.00000000000E+00 -0.57889350100E+00  0.57889350100E+00  0.00000000000E+00 0. -1.
          3    1    1    2  501    0  0.92713199517E+01 -0.19333588914E+02  0.32435435357E+03  0.32506228897E+03  0.00000000000E+00 0.  1.
         -3    1    1    2    0  502 -0.92713199517E+01  0.19333588914E+02  0.51077140845E+03  0.51122126005E+03  0.00000000000E+00 0. -1.
<mgrwt>
<rscale>  2 0.21441666E+02</rscale>
<asrwt>0</asrwt>
<pdfrwt beam="1">  1       21 0.12856898E+00 0.21441666E+02</pdfrwt>
<pdfrwt beam="2">  1       21 0.89061208E-04 0.21441666E+02</pdfrwt>
<totfact> 0.52567598E+07</totfact>
</mgrwt>
</event>
<event>
 4    1  0.7151341E+004  0.2837373E+02  0.7546771E-02  0.1616793E+00
         21   -1    0    0  503  502  0.00000000000E+00  0.00000000000E+00  0.12147603131E+01  0.12147603131E+01  0.00000000000E+00 0.  1.
         21   -1    0    0  501  503 -0.00000000000E+00 -0.00000000000E+00 -0.78986736974E+03  0.78986736974E+03  0.00000000000E+00 0.  1.
          3    1    1    2  501    0 -0.10110251685E+02 -0.26511339245E+02 -0.23564097889E+03  0.23734308338E+03  0.00000000000E+00 0. -1.
         -3    1    1    2    0  502  0.10110251685E+02  0.26511339245E+02 -0.55301163054E+03  0.55373904668E+03  0.00000000000E+00 0.  1.
<mgrwt>
<rscale>  2 0.28373725E+02</rscale>
<asrwt>0</asrwt>
<pdfrwt beam="1">  1       21 0.18688587E-03 0.28373725E+02</pdfrwt>
<pdfrwt beam="2">  1       21 0.12151827E+00 0.28373725E+02</pdfrwt>
<totfact> 0.21787729E+07</totfact>
</mgrwt>
</event>
<event>
 4    1  0.7151341E+004  0.3586780E+02  0.7546771E-02  0.1541027E+00
         21   -1    0    0  501  502  0.00000000000E+00  0.00000000000E+00  0.61995947869E+02  0.61995947869E+02  0.00000000000E+00 0.  1.
         21   -1    0    0  502  503 -0.00000000000E+00 -0.00000000000E+00 -0.21545855588E+02  0.21545855588E+02  0.00000000000E+00 0.  1.
          4    1    1    2  501    0  0.21667611139E+02 -0.28583449911E+02  0.12203774197E+02  0.37887083366E+02  0.00000000000E+00 0. -1.
         -4    1    1    2    0  503 -0.21667611139E+02  0.28583449911E+02  0.28246318083E+02  0.45654720091E+02  0.00000000000E+00 0.  1.
<mgrwt>
<rscale>  2 0.35867799E+02</rscale>
<asrwt>0</asrwt>
<pdfrwt beam="1">  1       21 0.95378381E-02 0.35867799E+02</pdfrwt>
<pdfrwt beam="2">  1       21 0.33147470E-02 0.35867799E+02</pdfrwt>
<totfact> 0.37958686E+07</totfact>
</mgrwt>
</event>
<event>
 4    1  0.7151341E+004  0.2140528E+02  0.7546771E-02  0.1718745E+00
         21   -1    0    0  503  502  0.00000000000E+00  0.00000000000E+00  0.84871127531E+01  0.84871127531E+01  0.00000000000E+00 0.  1.
         21   -1    0    0  501  503 -0.00000000000E+00 -0.00000000000E+00 -0.68529197428E+02  0.68529197428E+02  0.00000000000E+00 0.  1.
          3    1    1    2  501    0 -0.20470717937E+02  0.62558435216E+01 -0.12281444078E+02  0.24678325301E+02  0.00000000000E+00 0. -1.
         -3    1    1    2    0  502  0.20470717937E+02 -0.62558435216E+01 -0.47760640597E+02  0.52337984880E+02  0.00000000000E+00 0.  1.
<mgrwt>
<rscale>  2 0.21405277E+02</rscale>
<asrwt>0</asrwt>
<pdfrwt beam="1">  1       21 0.13057096E-02 0.21405277E+02</pdfrwt>
<pdfrwt beam="2">  1       21 0.10542954E-01 0.21405277E+02</pdfrwt>
<totfact> 0.11976222E+08</totfact>
</mgrwt>
</event>
<event>
 4    1  0.7151341E+004  0.7373521E+02  0.7546771E-02  0.1347833E+00
         21   -1    0    0  501  502  0.00000000000E+00  0.00000000000E+00  0.86075610405E+02  0.86075610405E+02  0.00000000000E+00 0.  1.
         21   -1    0    0  502  503 -0.00000000000E+00 -0.00000000000E+00 -0.63344405096E+02  0.63344405096E+02  0.00000000000E+00 0.  1.
          1    1    1    2  501    0  0.34609970941E+01  0.73653937936E+02  0.73787332661E+01  0.74103486955E+02  0.00000000000E+00 0. -1.
         -1    1    1    2    0  503 -0.34609970941E+01 -0.73653937936E+02  0.15352472043E+02  0.75316528546E+02  0.00000000000E+00 0.  1.
<mgrwt>
<rscale>  2 0.73735209E+02</rscale>
<asrwt>0</asrwt>
<pdfrwt beam="1">  1       21 0.13242402E-01 0.73735209E+02</pdfrwt>
<pdfrwt beam="2">  1       21 0.97452931E-02 0.73735209E+02</pdfrwt>
<totfact> 0.39932567E+06</totfact>
</mgrwt>
</event>
<event>
 4    1  0.7151341E+004  0.2904677E+02  0.7546771E-02  0.1608871E+00
         21   -1    0    0  503  502  0.00000000000E+00  0.00000000000E+00  0.53694190534E+03  0.53694190534E+03  0.00000000000E+00 0. -1.
         21   -1    0    0  501  503 -0.00000000000E+00 -0.00000000000E+00 -0.15745004244E+01  0.15745004244E+01  0.00000000000E+00 0. -1.
          5    1    1    2  501    0 -0.15486309017E+02 -0.24574155741E+02  0.25560822248E+03  0.25725333486E+03  0.00000000000E+00 0. -1.
         -5    1    1    2    0  502  0.15486309017E+02  0.24574155741E+02  0.27975918244E+03  0.28126307091E+03  0.00000000000E+00 0.  1.
<mgrwt>
<rscale>  2 0.29046771E+02</rscale>
<asrwt>0</asrwt>
<pdfrwt beam="1">  1       21 0.82606301E-01 0.29046771E+02</pdfrwt>
<pdfrwt beam="2">  1       21 0.24223126E-03 0.29046771E+02</pdfrwt>
<totfact> 0.35195943E+07</totfact>
</mgrwt>
</event>
<event>
 4    1  0.7151341E+004  0.2446326E+02  0.7546771E-02  0.1668833E+00
         21   -1    0    0  503  502  0.00000000000E+00  0.00000000000E+00  0.17187319231E+03  0.17187319231E+03  0.00000000000E+00 0.  1.
         21   -1    0    0  501  503 -0.00000000000E+00 -0.00000000000E+00 -0.35040228927E+01  0.35040228927E+01  0.00000000000E+00 0.  1.
          5    1    1    2  501    0  0.66377233944E+00 -0.24454251779E+02  0.91146868552E+02  0.94372679683E+02  0.00000000000E+00 0. -1.
         -5    1    1    2    0  502 -0.66377233944E+00  0.24454251779E+02  0.77222300865E+02  0.81004535519E+02  0.00000000000E+00 0.  1.
<mgrwt>
<rscale>  2 0.24463259E+02</rscale>
<asrwt>0</asrwt>
<pdfrwt beam="1">  1       21 0.26442023E-01 0.24463259E+02</pdfrwt>
<pdfrwt beam="2">  1       21 0.53908058E-03 0.24463259E+02</pdfrwt>
<totfact> 0.95933284E+07</totfact>
</mgrwt>
</event>
<event>
 4    1  0.7151341E+004  0.2834767E+02  0.7546771E-02  0.1617105E+00
         21   -1    0    0  503  502  0.00000000000E+00  0.00000000000E+00  0.24584834073E+02  0.24584834073E+02  0.00000000000E+00 0. -1.
         21   -1    0    0  501  503 -0.00000000000E+00 -0.00000000000E+00 -0.33077143170E+02  0.33077143170E+02  0.00000000000E+00 0. -1.
          3    1    1    2  501    0 -0.14201129609E+02 -0.24534027172E+02 -0.73795989937E+01  0.29292474336E+02  0.00000000000E+00 0.  1.
         -3    1    1    2    0  502  0.14201129609E+02  0.24534027172E+02 -0.11127101027E+01  0.28369502907E+02  0.00000000000E+00 0. -1.
<mgrwt>
<rscale>  2 0.28347673E+02</rscale>
<asrwt>0</asrwt>
<pdfrwt beam="1">  1       21 0.37822822E-02 0.28347673E+02</pdfrwt>
<pdfrwt beam="2">  1       21 0.50887913E-02 0.28347673E+02</pdfrwt>
<totfact> 0.81923778E+07</totfact>
</mgrwt>
</event>
<event>
 4    1  0.7151341E+004  0.2224606E+02  0.7546771E-02  0.1704031E+00
         21   -1    0    0  503  502  0.00000000000E+00  0.00000000000E+00  0.45796269743E+01  0.45796269743E+01  0.00000000000E+00 0. -1.
         21   -1    0    0  501  503 -0.00000000000E+00 -0.00000000000E+00 -0.11103991934E+03  0.11103991934E+03  0.00000000000E+00 0. -1.
          5    1    1    2  501    0  0.18108452682E+02  0.12921731717E+02 -0.43764255483E+02  0.49093759961E+02  0.00000000000E+00 0.  1.
         -5    1    1    2    0  502 -0.18108452682E+02 -0.12921731717E+02 -0.62696036883E+02  0.66525786353E+02  0.00000000000E+00 0. -1.
<mgrwt>
<rscale>  2 0.22246061E+02</rscale>
<asrwt>0</asrwt>
<pdfrwt beam="1">  1       21 0.70455799E-03 0.22246061E+02</pdfrwt>
<pdfrwt beam="2">  1       21 0.17083065E-01 0.22246061E+02</pdfrwt>
<totfact> 0.13529477E+08</totfact>
</mgrwt>
</event>
<event>
 4    1  0.7151341E+004  0.2570585E+02  0.7546771E-02  0.1651066E+00
         21   -1    0    0  501  502  0.00000000000E+00  0.00000000000E+00  0.10524745285E+01  0.10524745285E+01  0.00000000000E+00 0. -1.
         21   -1    0    0  502  503 -0.00000000000E+00 -0.00000000000E+00 -0.66278889922E+03  0.66278889922E+03  0.00000000000E+00 0. -1.
          4    1    1    2  501    0  0.28591194131E+01  0.25546352885E+02 -0.40708196375E+03  0.40789277502E+03  0.00000000000E+00 0.  1.
         -4    1    1    2    0  503 -0.28591194131E+01 -0.25546352885E+02 -0.25465446094E+03  0.25594859872E+03  0.00000000000E+00 0. -1.
<mgrwt>
<rscale>  2 0.25705850E+02</rscale>
<asrwt>0</asrwt>
<pdfrwt beam="1">  1       21 0.16191954E-03 0.25705850E+02</pdfrwt>
<pdfrwt beam="2">  1       21 0.10196728E+00 0.25705850E+02</pdfrwt>
<totfact> 0.39094674E+07</totfact>
</mgrwt>
</event>
<event>
 4    1  0.7151341E+004  0.2547774E+02  0.7546771E-02  0.1654233E+00
         21   -1    0    0  503  502  0.00000000000E+00  0.00000000000E+00  0.62709071555E+01  0.62709071555E+01  0.00000000000E+00 0.  1.
         21   -1    0    0  501  503 -0.00000000000E+00 -0.00000000000E+00 -0.16504686735E+03  0.16504686735E+03  0.00000000000E+00 0.  1.
          1    1    1    2  501    0 -0.15754281303E+02  0.20022935998E+02 -0.13169123814E+03  0.13413313367E+03  0.00000000000E+00 0. -1.
         -1    1    1    2    0  502  0.15754281303E+02 -0.20022935998E+02 -0.27084722058E+02  0.37184640839E+02  0.00000000000E+00 0.  1.
<mgrwt>
<rscale>  2 0.25477742E+02</rscale>
<asrwt>0</asrwt>
<pdfrwt beam="1">  1       21 0.96475498E-03 0.25477742E+02</pdfrwt>
<pdfrwt beam="2">  1       21 0.25391825E-01 0.25477742E+02</pdfrwt>
<totfact> 0.43693829E+07</totfact>
</mgrwt>
</event>
<event>
 4    1  0.7151341E+004  0.3951848E+02  0.7546771E-02  0.1511785E+00
         21   -1    0    0  503  502  0.00000000000E+00  0.00000000000E+00  0.21519475135E+03  0.21519475135E+03  0.00000000000E+00 0. -1.
         21   -1    0    0  501  503 -0.00000000000E+00 -0.00000000000E+00 -0.92634222137E+01  0.92634222137E+01  0.00000000000E+00 0. -1.
          5    1    1    2  501    0 -0.26118026686E+02  0.29657359138E+02  0.50736899117E+02  0.64311299170E+02  0.00000000000E+00 0. -1.
         -5    1    1    2    0  502  0.26118026686E+02 -0.29657359138E+02  0.15519443002E+03  0.16014687440E+03  0.00000000000E+00 0.  1.
<mgrwt>
<rscale>  2 0.39518480E+02</rscale>
<asrwt>0</asrwt>
<pdfrwt beam="1">  1       21 0.33106881E-01 0.39518480E+02</pdfrwt>
<pdfrwt beam="2">  1       21 0.14251420E-02 0.39518480E+02</pdfrwt>
<totfact> 0.16055151E+07</totfact>
</mgrwt>
</event>
<event>
 4    1  0.7151341E+004  0.2338459E+02  0.7546771E-02  0.1685351E+00
         21   -1    0    0  501  502  0.00000000000E+00  0.00000000000E+00  0.14402327733E+02  0.14402327733E+02  0.00000000000E+00 0. -1.
         21   -1    0    0  502  503 -0.00000000000E+00 -0.00000000000E+00 -0.46257588156E+02  0.46257588156E+02  0.00000000000E+00 0. -1.
          1    1    1    2  501    0  0.19427330092E+02  0.13016057236E+02 -0.30887779678E+01  0.23587697001E+02  0.00000000000E+00 0.  1.
         -1    1    1    2    0  503 -0.19427330092E+02 -0.13016057236E+02 -0.28766482455E+02  0.37072218888E+02  0.00000000000E+00 0. -1.
<mgrwt>
<rscale>  2 0.23384587E+02</rscale>
<asrwt>0</asrwt>
<pdfrwt beam="1">  1       21 0.22157427E-02 0.23384587E+02</pdfrwt>
<pdfrwt beam="2">  1       21 0.71165521E-02 0.23384587E+02</pdfrwt>
<totfact> 0.10444602E+08</totfact>
</mgrwt>
</event>
<event>
 4    1  0.7151341E+004  0.2132433E+02  0.7546771E-02  0.1720206E+00
         21   -1    0    0  503  502  0.00000000000E+00  0.00000000000E+00  0.88059464618E+01  0.88059464618E+01  0.00000000000E+00 0.  1.
         21   -1    0    0  501  503 -0.00000000000E+00 -0.00000000000E+00 -0.51645232526E+02  0.51645232526E+02  0.00000000000E+00 0.  1.
          2    1    1    2  501    0  0.97619353414E+01 -0.18958682038E+02 -0.21077873700E+02  0.29983391502E+02  0.00000000000E+00 0.  1.
         -2    1    1    2    0  502 -0.97619353414E+01  0.18958682038E+02 -0.21761412364E+02  0.30467787486E+02  0.00000000000E+00 0. -1.
<mgrwt>
<rscale>  2 0.21324329E+02</rscale>
<asrwt>0</asrwt>
<pdfrwt beam="1">  1       21 0.13547610E-02 0.21324329E+02</pdfrwt>
<pdfrwt beam="2">  1       21 0.79454202E-02 0.21324329E+02</pdfrwt>
<totfact> 0.17992735E+08</totfact>
</mgrwt>
</event>
<event>
 4    1  0.7151341E+004  0.2650901E+02  0.7546771E-02  0.1640228E+00
         21   -1    0    0  501  502  0.00000000000E+00  0.00000000000E+00  0.27870607503E+02  0.27870607503E+02  0.00000000000E+00 0. -1.
         21   -1    0    0  502  503 -0.00000000000E+00 -0.00000000000E+00 -0.25757989972E+02  0.25757989972E+02  0.00000000000E+00 0. -1.
          1    1    1    2  501    0  0.23373736167E+02 -0.12505834095E+02 -0.28407372455E+01  0.26660780501E+02  0.00000000000E+00 0. -1.
         -1    1    1    2    0  503 -0.23373736167E+02  0.12505834095E+02  0.49533547765E+01  0.26967816974E+02  0.00000000000E+00 0.  1.
<mgrwt>
<rscale>  2 0.26509007E+02</rscale>
<asrwt>0</asrwt>
<pdfrwt beam="1">  1       21 0.42877858E-02 0.26509007E+02</pdfrwt>
<pdfrwt beam="2">  1       21 0.39627677E-02 0.26509007E+02</pdfrwt>
<totfact> 0.98326728E+07</totfact>
</mgrwt>
</event>
<event>
 4    1  0.7151341E+004  0.2563229E+02  0.7546771E-02  0.1652083E+00
         21   -1    0    0  501  502  0.00000000000E+00  0.00000000000E+00  0.22700139707E+03  0.22700139707E+03  0.00000000000E+00 0.  1.
         21   -1    0    0  502  503 -0.00000000000E+00 -0.00000000000E+00 -0.41738655167E+01  0.41738655167E+01  0.00000000000E+00 0.  1.
          5    1    1    2  501    0 -0.20120527315E+02  0.15880128354E+02  0.17541236185E+03  0.17727524019E+03  0.00000000000E+00 0.  1.
         -5    1    1    2    0  503  0.20120527315E+02 -0.15880128354E+02  0.47415169702E+02  0.53900022392E+02  0.00000000000E+00 0. -1.
<mgrwt>
<rscale>  2 0.25632286E+02</rscale>
<asrwt>0</asrwt>
<pdfrwt beam="1">  1       21 0.34923282E-01 0.25632286E+02</pdfrwt>
<pdfrwt beam="2">  1       21 0.64213334E-03 0.25632286E+02</pdfrwt>
<totfact> 0.44977762E+07</totfact>
</mgrwt>
</event>
<event>
 4    1  0.7151341E+004  0.2561949E+02  0.7546771E-02  0.1652260E+00
         21   -1    0    0  501  502  0.00000000000E+00  0.00000000000E+00  0.12055288323E+02  0.12055288323E+02  0.00000000000E+00 0.  1.
         21   -1    0    0  502  503 -0.00000000000E+00 -0.00000000000E+00 -0.11023822054E+03  0.11023822054E+03  0.00000000000E+00 0.  1.
          1    1    1    2  501    0  0.22481071713E+02 -0.12286574877E+02 -0.55908570358E+01  0.26222436766E+02  0.00000000000E+00 0.  1.
         -1    1    1    2    0  503 -0.22481071713E+02  0.12286574877E+02 -0.92592075184E+02  0.96071072100E+02  0.00000000000E+00 0. -1.
<mgrwt>
<rscale>  2 0.25619495E+02</rscale>
<asrwt>0</asrwt>
<pdfrwt beam="1">  1       21 0.18546597E-02 0.25619495E+02</pdfrwt>
<pdfrwt beam="2">  1       21 0.16959727E-01 0.25619495E+02</pdfrwt>
<totfact> 0.32936054E+07</totfact>
</mgrwt>
</event>
<event>
 4    1  0.7151341E+004  0.2705533E+02  0.7546771E-02  0.1633122E+00
         21   -1    0    0  501  502  0.00000000000E+00  0.00000000000E+00  0.25318937745E+02  0.25318937745E+02  0.00000000000E+00 0.  1.
         21   -1    0    0  502  503 -0.00000000000E+00 -0.00000000000E+00 -0.29022716307E+02  0.29022716307E+02  0.00000000000E+00 0.  1.
          4    1    1    2  501    0  0.26897729180E+02  0.29160403286E+01 -0.16474848815E+00  0.27055836123E+02  0.00000000000E+00 0.  1.
         -4    1    1    2    0  503 -0.26897729180E+02 -0.29160403286E+01 -0.35390300739E+01  0.27285817930E+02  0.00000000000E+00 0. -1.
<mgrwt>
<rscale>  2 0.27055335E+02</rscale>
<asrwt>0</asrwt>
<pdfrwt beam="1">  1       21 0.38952212E-02 0.27055335E+02</pdfrwt>
<pdfrwt beam="2">  1       21 0.44650333E-02 0.27055335E+02</pdfrwt>
<totfact> 0.95239587E+07</totfact>
</mgrwt>
</event>
<event>
 4    1  0.7151341E+004  0.2033583E+02  0.7546771E-02  0.1738731E+00
         21   -1    0    0  501  502  0.00000000000E+00  0.00000000000E+00  0.23733302777E+03  0.23733302777E+03  0.00000000000E+00 0. -1.
         21   -1    0    0  502  503 -0.00000000000E+00 -0.00000000000E+00 -0.24200371250E+01  0.24200371250E+01  0.00000000000E+00 0. -1.
          4    1    1    2  501    0 -0.19588853968E+02  0.54610365089E+01  0.18088708205E+03  0.18202659853E+03  0.00000000000E+00 0. -1.
         -4    1    1    2    0  503  0.19588853968E+02 -0.54610365089E+01  0.54025908593E+02  0.57726466363E+02  0.00000000000E+00 0.  1.
<mgrwt>
<rscale>  2 0.20335833E+02</rscale>
<asrwt>0</asrwt>
<pdfrwt beam="1">  1       21 0.36512755E-01 0.20335833E+02</pdfrwt>
<pdfrwt beam="2">  1       21 0.37231359E-03 0.20335833E+02</pdfrwt>
<totfact> 0.87290219E+07</totfact>
</mgrwt>
</event>
<event>
 4    1  0.7151341E+004  0.2913873E+02  0.7546771E-02  0.1607809E+00
         21   -1    0    0  503  502  0.00000000000E+00  0.00000000000E+00  0.25813768573E+01  0.25813768573E+01  0.00000000000E+00 0. -1.
         21   -1    0    0  501  503 -0.00000000000E+00 -0.00000000000E+00 -0.33587131304E+03  0.33587131304E+03  0.00000000000E+00 0. -1.
          4    1    1    2  501    0  0.27811788966E+02  0.86931045464E+01 -0.14229913347E+03  0.14525188143E+03  0.00000000000E+00 0.  1.
         -4    1    1    2    0  502 -0.27811788966E+02 -0.86931045464E+01 -0.19099080271E+03  0.19320080847E+03  0.00000000000E+00 0. -1.
<mgrwt>
<rscale>  2 0.29138731E+02</rscale>
<asrwt>0</asrwt>
<pdfrwt beam="1">  1       21 0.39713522E-03 0.29138731E+02</pdfrwt>
<pdfrwt beam="2">  1       21 0.51672468E-01 0.29138731E+02</pdfrwt>
<totfact> 0.44539589E+07</totfact>
</mgrwt>
</event>
<event>
 4    1  0.7151341E+004  0.2314777E+02  0.7546771E-02  0.1689126E+00
         21   -1    0    0  501  502  0.00000000000E+00  0.00000000000E+00  0.98554177874E+02  0.98554177874E+02  0.00000000000E+00 0. -1.
         21   -1    0    0  502  503 -0.00000000000E+00 -0.00000000000E+00 -0.57046325372E+01  0.57046325372E+01  0.00000000000E+00 0. -1.
          2    1    1    2  501    0  0.47625758801E+01  0.22652534850E+02  0.35129422573E+02  0.42070129480E+02  0.00000000000E+00 0.  1.
         -2    1    1    2    0  503 -0.47625758801E+01 -0.22652534850E+02  0.57720122764E+02  0.62188680932E+02  0.00000000000E+00 0. -1.
<mgrwt>
<rscale>  2 0.23147774E+02</rscale>
<asrwt>0</asrwt>
<pdfrwt beam="1">  1       21 0.15162180E-01 0.23147774E+02</pdfrwt>
<pdfrwt beam="2">  1       21 0.87763585E-03 0.23147774E+02</pdfrwt>
<totfact> 0.12095959E+08</totfact>
</mgrwt>
</event>
<event>
 4    1  0.7151341E+004  0.2073700E+02  0.7546771E-02  0.1731057E+00
         21   -1    0    0  503  502  0.00000000000E+00  0.00000000000E+00  0.41522381555E+02  0.41522381555E+02  0.00000000000E+00 0. -1.
         21   -1    0    0  501  503 -0.00000000000E+00 -0.00000000000E+00 -0.11391814489E+02  0.11391814489E+02  0.00000000000E+00 0. -1.
          4    1    1    2  501    0 -0.14664904628E+01  0.20685083253E+02  0.23041528312E+02  0.30998956280E+02  0.00000000000E+00 0. -1.
         -4    1    1    2    0  502  0.14664904628E+01 -0.20685083253E+02  0.70890387540E+01  0.21915239765E+02  0.00000000000E+00 0.  1.
<mgrwt>
<rscale>  2 0.20737002E+02</rscale>
<asrwt>0</asrwt>
<pdfrwt beam="1">  1       21 0.63880587E-02 0.20737002E+02</pdfrwt>
<pdfrwt beam="2">  1       21 0.17525869E-02 0.20737002E+02</pdfrwt>
<totfact> 0.17169974E+08</totfact>
</mgrwt>
</event>
<event>
 4    1  0.7151341E+004  0.2450927E+02  0.7546771E-02  0.1668152E+00
         21   -1    0    0  501  502  0.00000000000E+00  0.00000000000E+00  0.38890792252E+02  0.38890792252E+02  0.00000000000E+00 0. -1.
         21   -1    0    0  502  503 -0.00000000000E+00 -0.00000000000E+00 -0.24191605776E+02  0.24191605776E+02  0.00000000000E+00 0. -1.
          2    1    1    2  501    0  0.68367902135E+00 -0.24499732676E+02  0.26314146818E+02  0.35960236942E+02  0.00000000000E+00 0. -1.
         -2    1    1    2    0  503 -0.68367902135E+00  0.24499732676E+02 -0.11614960342E+02  0.27122161085E+02  0.00000000000E+00 0.  1.
<mgrwt>
<rscale>  2 0.24509270E+02</rscale>
<asrwt>0</asrwt>
<pdfrwt beam="1">  1       21 0.59831988E-02 0.24509270E+02</pdfrwt>
<pdfrwt beam="2">  1       21 0.37217855E-02 0.24509270E+02</pdfrwt>
<totfact> 0.62450694E+07</totfact>
</mgrwt>
</event>
<event>
 4    1  0.7151341E+004  0.2751796E+02  0.7546771E-02  0.1627265E+00
         21   -1    0    0  503  502  0.00000000000E+00  0.00000000000E+00  0.52428554226E+03  0.52428554226E+03  0.00000000000E+00 0.  1.
         21   -1    0    0  501  503 -0.00000000000E+00 -0.00000000000E+00 -0.21072245778E+01  0.21072245778E+01  0.00000000000E+00 0.  1.
          1    1    1    2  501    0  0.18181121732E+02 -0.20656358736E+02  0.40871031743E+03  0.40963564532E+03  0.00000000000E+00 0. -1.
         -1    1    1    2    0  502 -0.18181121732E+02  0.20656358736E+02  0.11346800026E+03  0.11675712152E+03  0.00000000000E+00 0.  1.
<mgrwt>
<rscale>  2 0.27517964E+02</rscale>
<asrwt>0</asrwt>
<pdfrwt beam="1">  1       21 0.80659211E-01 0.27517964E+02</pdfrwt>
<pdfrwt beam="2">  1       21 0.32418881E-03 0.27517964E+02</pdfrwt>
<totfact> 0.23924870E+07</totfact>
</mgrwt>
</event>
<event>
 4    1  0.7151341E+004  0.3080400E+02  0.7546771E-02  0.1589368E+00
         21   -1    0    0  501  502  0.00000000000E+00  0.00000000000E+00  0.13419367313E+01  0.13419367313E+01  0.00000000000E+00 0. -1.
         21   -1    0    0  502  503 -0.00000000000E+00 -0.00000000000E+00 -0.71422362543E+03  0.71422362543E+03  0.00000000000E+00 0. -1.
          1    1    1    2  501    0 -0.22256700886E+02 -0.21296141383E+02 -0.32071464909E+03  0.32219058414E+03  0.00000000000E+00 0. -1.
         -1    1    1    2    0  503  0.22256700886E+02  0.21296141383E+02 -0.39216703962E+03  0.39337497802E+03  0.00000000000E+00 0.  1.
<mgrwt>
<rscale>  2 0.30803999E+02</rscale>
<asrwt>0</asrwt>
<pdfrwt beam="1">  1       21 0.20645199E-03 0.30803999E+02</pdfrwt>
<pdfrwt beam="2">  1       21 0.10988046E+00 0.30803999E+02</pdfrwt>
<totfact> 0.24008609E+07</totfact>
</mgrwt>
</event>
<event>
 4    1  0.7151341E+004  0.2484226E+02  0.7546771E-02  0.1663278E+00
         21   -1    0    0  501  502  0.00000000000E+00  0.00000000000E+00  0.13408964711E+01  0.13408964711E+01  0.00000000000E+00 0.  1.
         21   -1    0    0  502  503 -0.00000000000E+00 -0.00000000000E+00 -0.46079379956E+03  0.46079379956E+03  0.00000000000E+00 0.  1.
          4    1    1    2  501    0  0.12470617991E+02 -0.21485381957E+02 -0.23771668659E+03  0.23901121529E+03  0.00000000000E+00 0. -1.
         -4    1    1    2    0  503 -0.12470617991E+02  0.21485381957E+02 -0.22173621650E+03  0.22312348074E+03  0.00000000000E+00 0.  1.
<mgrwt>
<rscale>  2 0.24842261E+02</rscale>
<asrwt>0</asrwt>
<pdfrwt beam="1">  1       21 0.20629163E-03 0.24842261E+02</pdfrwt>
<pdfrwt beam="2">  1       21 0.70891400E-01 0.24842261E+02</pdfrwt>
<totfact> 0.59345325E+07</totfact>
</mgrwt>
</event>
<event>
 4    1  0.7151341E+004  0.2135512E+02  0.7546771E-02  0.1719649E+00
         21   -1    0    0  501  502  0.00000000000E+00  0.00000000000E+00  0.17771209138E+02  0.17771209138E+02  0.00000000000E+00 0.  1.
         21   -1    0    0  502  503 -0.00000000000E+00 -0.00000000000E+00 -0.27410429739E+02  0.27410429739E+02  0.00000000000E+00 0.  1.
          2    1    1    2  501    0  0.47142857849E+01  0.20828270415E+02  0.88626299979E+00  0.21373506989E+02  0.00000000000E+00 0. -1.
         -2    1    1    2    0  503 -0.47142857849E+01 -0.20828270415E+02 -0.10525483601E+02  0.23808131887E+02  0.00000000000E+00 0.  1.
<mgrwt>
<rscale>  2 0.21355124E+02</rscale>
<asrwt>0</asrwt>
<pdfrwt beam="1">  1       21 0.27340322E-02 0.21355124E+02</pdfrwt>
<pdfrwt beam="2">  1       21 0.42169892E-02 0.21355124E+02</pdfrwt>
<totfact> 0.16949699E+08</totfact>
</mgrwt>
</event>
<event>
 4    1  0.7151341E+004  0.2009241E+02  0.7546771E-02  0.1743497E+00
         21   -1    0    0  503  502  0.00000000000E+00  0.00000000000E+00  0.41036424403E+02  0.41036424403E+02  0.00000000000E+00 0. -1.
         21   -1    0    0  501  503 -0.00000000000E+00 -0.00000000000E+00 -0.98850916555E+01  0.98850916555E+01  0.00000000000E+00 0. -1.
          5    1    1    2  501    0 -0.46640439478E+01  0.19543585501E+02  0.17338126733E+02  0.26538946452E+02  0.00000000000E+00 0.  1.
         -5    1    1    2    0  502  0.46640439478E+01 -0.19543585501E+02  0.13813206014E+02  0.24382569606E+02  0.00000000000E+00 0. -1.
<mgrwt>
<rscale>  2 0.20092413E+02</rscale>
<asrwt>0</asrwt>
<pdfrwt beam="1">  1       21 0.63132960E-02 0.20092413E+02</pdfrwt>
<pdfrwt beam="2">  1       21 0.15207834E-02 0.20092413E+02</pdfrwt>
<totfact> 0.21478368E+08</totfact>
</mgrwt>
</event>
<event>
 4    1  0.7151341E+004  0.2753771E+02  0.7546771E-02  0.1627018E+00
         21   -1    0    0  503  502  0.00000000000E+00  0.00000000000E+00  0.13862553130E+03  0.13862553130E+03  0.00000000000E+00 0.  1.
         21   -1    0    0  501  503 -0.00000000000E+00 -0.00000000000E+00 -0.62953302339E+01  0.62953302339E+01  0.00000000000E+00 0.  1.
          3    1    1    2  501    0 -0.17911872764E+02  0.20916274234E+02  0.39933674826E+02  0.48507979745E+02  0.00000000000E+00 0.  1.
         -3    1    1    2    0  502  0.17911872764E+02 -0.20916274234E+02  0.92396526243E+02  0.96412881793E+02  0.00000000000E+00 0. -1.
<mgrwt>
<rscale>  2 0.27537714E+02</rscale>
<asrwt>0</asrwt>
<pdfrwt beam="1">  1       21 0.21327003E-01 0.27537714E+02</pdfrwt>
<pdfrwt beam="2">  1       21 0.96851245E-03 0.27537714E+02</pdfrwt>
<totfact> 0.60326874E+07</totfact>
</mgrwt>
</event>
<event>
 4    1  0.7151341E+004  0.3756552E+02  0.7546771E-02  0.1526931E+00
         21   -1    0    0  503  502  0.00000000000E+00  0.00000000000E+00  0.43661578152E+02  0.43661578152E+02  0.00000000000E+00 0. -1.
         21   -1    0    0  501  503 -0.00000000000E+00 -0.00000000000E+00 -0.32415332325E+02  0.32415332325E+02  0.00000000000E+00 0. -1.
          2    1    1    2  501    0  0.26165514534E+02  0.26954303108E+02  0.76794207524E+01  0.38342432238E+02  0.00000000000E+00 0. -1.
         -2    1    1    2    0  502 -0.26165514534E+02 -0.26954303108E+02  0.35668250747E+01  0.37734478239E+02  0.00000000000E+00 0.  1.
<mgrwt>
<rscale>  2 0.37565524E+02</rscale>
<asrwt>0</asrwt>
<pdfrwt beam="1">  1       21 0.67171659E-02 0.37565524E+02</pdfrwt>
<pdfrwt beam="2">  1       21 0.49869742E-02 0.37565524E+02</pdfrwt>
<totfact> 0.35595914E+07</totfact>
</mgrwt>
</event>
<event>
 4    1  0.7151341E+004  0.4763606E+02  0.7546771E-02  0.1458526E+00
         21   -1    0    0  501  502  0.00000000000E+00  0.00000000000E+00  0.19583111451E+03  0.19583111451E+03  0.00000000000E+00 0.  1.
         21   -1    0    0  502  503 -0.00000000000E+00 -0.00000000000E+00 -0.14806374869E+02  0.14806374869E+02  0.00000000000E+00 0.  1.
          4    1    1    2  501    0 -0.28094046727E+02  0.38469712140E+02  0.41406552223E+02  0.63116533338E+02  0.00000000000E+00 0.  1.
         -4    1    1    2    0  503  0.28094046727E+02 -0.38469712140E+02  0.13961818742E+03  0.14752095605E+03  0.00000000000E+00 0. -1.
<mgrwt>
<rscale>  2 0.47636060E+02</rscale>
<asrwt>0</asrwt>
<pdfrwt beam="1">  1       21 0.30127862E-01 0.47636060E+02</pdfrwt>
<pdfrwt beam="2">  1       21 0.22779040E-02 0.47636060E+02</pdfrwt>
<totfact> 0.94384619E+06</totfact>
</mgrwt>
</event>
<event>
 4    1  0.7151341E+004  0.2104443E+02  0.7546771E-02  0.1725322E+00
         21   -1    0    0  501  502  0.00000000000E+00  0.00000000000E+00  0.15501424186E+02  0.15501424186E+02  0.00000000000E+00 0. -1.
         21   -1    0    0  502  503 -0.00000000000E+00 -0.00000000000E+00 -0.30839364914E+02  0.30839364914E+02  0.00000000000E+00 0. -1.
          3    1    1    2  501    0  0.13104458726E+02  0.16466364410E+02 -0.13828836204E+01  0.21089816559E+02  0.00000000000E+00 0.  1.
         -3    1    1    2    0  503 -0.13104458726E+02 -0.16466364410E+02 -0.13955057108E+02  0.25250972541E+02  0.00000000000E+00 0. -1.
<mgrwt>
<rscale>  2 0.21044429E+02</rscale>
<asrwt>0</asrwt>
<pdfrwt beam="1">  1       21 0.23848345E-02 0.21044429E+02</pdfrwt>
<pdfrwt beam="2">  1       21 0.47445177E-02 0.21044429E+02</pdfrwt>
<totfact> 0.17294555E+08</totfact>
</mgrwt>
</event>
<event>
 4    1  0.7151341E+004  0.2061074E+02  0.7546771E-02  0.1733448E+00
         21   -1    0    0  503  502  0.00000000000E+00  0.00000000000E+00  0.10922848439E+03  0.10922848439E+03  0.00000000000E+00 0. -1.
         21   -1    0    0  501  503 -0.00000000000E+00 -0.00000000000E+00 -0.38982580895E+01  0.38982580895E+01  0.00000000000E+00 0. -1.
          2    1    1    2  501    0 -0.20606417578E+02 -0.42229721180E+00  0.55403574232E+02  0.59113101915E+02  0.00000000000E+00 0.  1.
         -2    1    1    2    0  502  0.20606417578E+02  0.42229721180E+00  0.49926652072E+02  0.54013640568E+02  0.00000000000E+00 0. -1.
<mgrwt>
<rscale>  2 0.20610744E+02</rscale>
<asrwt>0</asrwt>
<pdfrwt beam="1">  1       21 0.16804380E-01 0.20610744E+02</pdfrwt>
<pdfrwt beam="2">  1       21 0.59973210E-03 0.20610744E+02</pdfrwt>
<totfact> 0.17267111E+08</totfact>
</mgrwt>
</event>
<event>
 4    1  0.7151341E+004  0.2089879E+02  0.7546771E-02  0.1728023E+00
         21   -1    0    0  503  502  0.00000000000E+00  0.00000000000E+00  0.15178652777E+04  0.15178652777E+04  0.00000000000E+00 0.  1.
         21   -1    0    0  501  503 -0.00000000000E+00 -0.00000000000E+00 -0.35651751524E+00  0.35651751524E+00  0.00000000000E+00 0.  1.
          3    1    1    2  501    0 -0.78390731716E+01  0.19372873645E+02  0.42535112343E+03  0.42586422426E+03  0.00000000000E+00 0. -1.
         -3    1    1    2    0  502  0.78390731716E+01 -0.19372873645E+02  0.10921576368E+04  0.10923575710E+04  0.00000000000E+00 0.  1.
<mgrwt>
<rscale>  2 0.20898787E+02</rscale>
<asrwt>0</asrwt>
<pdfrwt beam="1">  1       21 0.23351256E+00 0.20898787E+02</pdfrwt>
<pdfrwt beam="2">  1       21 0.54850064E-04 0.20898787E+02</pdfrwt>
<totfact> 0.23833268E+07</totfact>
</mgrwt>
</event>
<event>
 4    1  0.7151341E+004  0.2181543E+02  0.7546771E-02  0.1711464E+00
         21   -1    0    0  501  502  0.00000000000E+00  0.00000000000E+00  0.11950038142E+03  0.11950038142E+03  0.00000000000E+00 0. -1.
         21   -1    0    0  502  503 -0.00000000000E+00 -0.00000000000E+00 -0.50417860518E+01  0.50417860518E+01  0.00000000000E+00 0. -1.
          2    1    1    2  501    0 -0.16020930285E+02 -0.14806855796E+02  0.28686545875E+02  0.36039299383E+02  0.00000000000E+00 0. -1.
         -2    1    1    2    0  503  0.16020930285E+02  0.14806855796E+02  0.85772049491E+02  0.88502868087E+02  0.00000000000E+00 0.  1.
<mgrwt>
<rscale>  2 0.21815435E+02</rscale>
<asrwt>0</asrwt>
<pdfrwt beam="1">  1       21 0.18384672E-01 0.21815435E+02</pdfrwt>
<pdfrwt beam="2">  1       21 0.77565948E-03 0.21815435E+02</pdfrwt>
<totfact> 0.10275501E+08</totfact>
</mgrwt>
</event>
<event>
 4    1  0.7151341E+004  0.2394385E+02  0.7546771E-02  0.1676652E+00
         21   -1    0    0  501  502  0.00000000000E+00  0.00000000000E+00  0.44401292390E+03  0.44401292390E+03  0.00000000000E+00 0.  1.
         21   -1    0    0  502  503 -0.00000000000E+00 -0.00000000000E+00 -0.14927138169E+01  0.14927138169E+01  0.00000000000E+00 0.  1.
          2    1    1    2  501    0  0.14522100264E+02 -0.19037244445E+02  0.30310484653E+03  0.30404910140E+03  0.00000000000E+00 0.  1.
         -2    1    1    2    0  503 -0.14522100264E+02  0.19037244445E+02  0.13941536356E+03  0.14145653632E+03  0.00000000000E+00 0. -1.
<mgrwt>
<rscale>  2 0.23943852E+02</rscale>
<asrwt>0</asrwt>
<pdfrwt beam="1">  1       21 0.68309575E-01 0.23943852E+02</pdfrwt>
<pdfrwt beam="2">  1       21 0.22964863E-03 0.23943852E+02</pdfrwt>
<totfact> 0.54371984E+07</totfact>
</mgrwt>
</event>
<event>
 4    1  0.7151341E+004  0.2212980E+02  0.7546771E-02  0.1706017E+00
         21   -1    0    0  501  502  0.00000000000E+00  0.00000000000E+00  0.99369735248E+02  0.99369735248E+02  0.00000000000E+00 0. -1.
         21   -1    0    0  502  503 -0.00000000000E+00 -0.00000000000E+00 -0.50465561602E+01  0.50465561602E+01  0.00000000000E+00 0. -1.
          5    1    1    2  501    0 -0.21754441095E+02 -0.40586248962E+01  0.55152082035E+02  0.59426259315E+02  0.00000000000E+00 0.  1.
         -5    1    1    2    0  503  0.21754441095E+02  0.40586248962E+01  0.39171097053E+02  0.44990032093E+02  0.00000000000E+00 0. -1.
<mgrwt>
<rscale>  2 0.22129802E+02</rscale>
<asrwt>0</asrwt>
<pdfrwt beam="1">  1       21 0.15287650E-01 0.22129802E+02</pdfrwt>
<pdfrwt beam="2">  1       21 0.77639333E-03 0.22129802E+02</pdfrwt>
<totfact> 0.14136722E+08</totfact>
</mgrwt>
</event>
<event>
 4    1  0.7151341E+004  0.2225206E+02  0.7546771E-02  0.1703929E+00
         21   -1    0    0  501  502  0.00000000000E+00  0.00000000000E+00  0.52533327821E+02  0.52533327821E+02  0.00000000000E+00 0. -1.
         21   -1    0    0  502  503 -0.00000000000E+00 -0.00000000000E+00 -0.16859782835E+02  0.16859782835E+02  0.00000000000E+00 0. -1.
          3    1    1    2  501    0  0.12136026884E+02  0.18651296857E+02  0.40876602854E+02  0.46540849626E+02  0.00000000000E+00 0.  1.
         -3    1    1    2    0  503 -0.12136026884E+02 -0.18651296857E+02 -0.52030578691E+01  0.22852261030E+02  0.00000000000E+00 0. -1.
<mgrwt>
<rscale>  2 0.22252057E+02</rscale>
<asrwt>0</asrwt>
<pdfrwt beam="1">  1       21 0.80820504E-02 0.22252057E+02</pdfrwt>
<pdfrwt beam="2">  1       21 0.25938128E-02 0.22252057E+02</pdfrwt>
<totfact> 0.65672027E+07</totfact>
</mgrwt>
</event>
<event>
 4    1  0.7151341E+004  0.3038360E+02  0.7546771E-02  0.1593887E+00
         21   -1    0    0  503  502  0.00000000000E+00  0.00000000000E+00  0.21703664760E+01  0.21703664760E+01  0.00000000000E+00 0.  1.
         21   -1    0    0  501  503 -0.00000000000E+00 -0.00000000000E+00 -0.46652605397E+03  0.46652605397E+03  0.00000000000E+00 0.  1.
          3    1    1    2  501    0  0.30101350798E+02  0.41317938734E+01 -0.30180068424E+03  0.30332625348E+03  0.00000000000E+00 0.  1.
         -3    1    1    2    0  502 -0.30101350798E+02 -0.41317938734E+01 -0.16255500325E+03  0.16537016696E+03  0.00000000000E+00 0. -1.
<mgrwt>
<rscale>  2 0.30383598E+02</rscale>
<asrwt>0</asrwt>
<pdfrwt beam="1">  1       21 0.33390234E-03 0.30383598E+02</pdfrwt>
<pdfrwt beam="2">  1       21 0.71773282E-01 0.30383598E+02</pdfrwt>
<totfact> 0.29793966E+07</totfact>
</mgrwt>
</event>
<event>
 4    1  0.7151341E+004  0.3814908E+02  0.7546771E-02  0.1522291E+00
         21   -1    0    0  503  502  0.00000000000E+00  0.00000000000E+00  0.16239519920E+01  0.16239519920E+01  0.00000000000E+00 0.  1.
         21   -1    0    0  501  503 -0.00000000000E+00 -0.00000000000E+00 -0.90646316593E+03  0.90646316593E+03  0.00000000000E+00 0.  1.
          5    1    1    2  501    0  0.28226166900E+02  0.25663902314E+02 -0.50078088573E+03  0.50223186667E+03  0.00000000000E+00 0. -1.
         -5    1    1    2    0  502 -0.28226166900E+02 -0.25663902314E+02 -0.40405832821E+03  0.40585525126E+03  0.00000000000E+00 0.  1.
<mgrwt>
<rscale>  2 0.38149081E+02</rscale>
<asrwt>0</asrwt>
<pdfrwt beam="1">  1       21 0.24983891E-03 0.38149081E+02</pdfrwt>
<pdfrwt beam="2">  1       21 0.13945580E+00 0.38149081E+02</pdfrwt>
<totfact> 0.10725452E+07</totfact>
</mgrwt>
</event>
<event>
 4    1  0.7151341E+004  0.2080751E+02  0.7546771E-02  0.1729731E+00
         21   -1    0    0  501  502  0.00000000000E+00  0.00000000000E+00  0.19581201242E+02  0.19581201242E+02  0.00000000000E+00 0.  1.
         21   -1    0    0  502  503 -0.00000000000E+00 -0.00000000000E+00 -0.22809146431E+02  0.22809146431E+02  0.00000000000E+00 0.  1.
          3    1    1    2  501    0  0.15777033886E+02  0.13566046963E+02 -0.53231279276E+01  0.21477619034E+02  0.00000000000E+00 0.  1.
         -3    1    1    2    0  503 -0.15777033886E+02 -0.13566046963E+02  0.20951827390E+01  0.20912728639E+02  0.00000000000E+00 0. -1.
<mgrwt>
<rscale>  2 0.20807509E+02</rscale>
<asrwt>0</asrwt>
<pdfrwt beam="1">  1       21 0.30124925E-02 0.20807509E+02</pdfrwt>
<pdfrwt beam="2">  1       21 0.35090995E-02 0.20807509E+02</pdfrwt>
<totfact> 0.19294603E+08</totfact>
</mgrwt>
</event>
<event>
 4    1  0.7151341E+004  0.2242126E+02  0.7546771E-02  0.1701067E+00
         21   -1    0    0  503  502  0.00000000000E+00  0.00000000000E+00  0.26920997133E+02  0.26920997133E+02  0.00000000000E+00 0. -1.
         21   -1    0    0  501  503 -0.00000000000E+00 -0.00000000000E+00 -0.23693182873E+02  0.23693182873E+02  0.00000000000E+00 0. -1.
          4    1    1    2  501    0  0.12425084579E+02  0.18663600500E+02 -0.10034406890E+02  0.24564242957E+02  0.00000000000E+00 0.  1.
         -4    1    1    2    0  502 -0.12425084579E+02 -0.18663600500E+02  0.13262221150E+02  0.26049937049E+02  0.00000000000E+00 0. -1.
<mgrwt>
<rscale>  2 0.22421256E+02</rscale>
<asrwt>0</asrwt>
<pdfrwt beam="1">  1       21 0.41416918E-02 0.22421256E+02</pdfrwt>
<pdfrwt beam="2">  1       21 0.36451051E-02 0.22421256E+02</pdfrwt>
<totfact> 0.11308275E+08</totfact>
</mgrwt>
</event>
<event>
 4    1  0.7151341E+004  0.2103765E+02  0.7546771E-02  0.1725447E+00
         21   -1    0    0  501  502  0.00000000000E+00  0.00000000000E+00  0.44174310777E+02  0.44174310777E+02  0.00000000000E+00 0. -1.
         21   -1    0    0  502  503 -0.00000000000E+00 -0.00000000000E+00 -0.13236526807E+02  0.13236526807E+02  0.00000000000E+00 0. -1.
          5    1    1    2  501    0 -0.53830167568E+01 -0.20337299268E+02  0.29621538523E+02  0.36332054104E+02  0.00000000000E+00 0.  1.
         -5    1    1    2    0  503  0.53830167568E+01  0.20337299268E+02  0.13162454470E+01  0.21078783480E+02  0.00000000000E+00 0. -1.
<mgrwt>
<rscale>  2 0.21037647E+02</rscale>
<asrwt>0</asrwt>
<pdfrwt beam="1">  1       21 0.67960477E-02 0.21037647E+02</pdfrwt>
<pdfrwt beam="2">  1       21 0.20363888E-02 0.21037647E+02</pdfrwt>
<totfact> 0.12416744E+08</totfact>
</mgrwt>
</event>
<event>
 4    1  0.7151341E+004  0.2122472E+02  0.7546771E-02  0.1722015E+00
         21   -1    0    0  503  502  0.00000000000E+00  0.00000000000E+00  0.92062827568E+00  0.92062827568E+00  0.00000000000E+00 0. -1.
         21   -1    0    0  501  503 -0.00000000000E+00 -0.00000000000E+00 -0.50373987185E+03  0.50373987185E+03  0.00000000000E+00 0. -1.
          4    1    1    2  501    0  0.20991099357E+02  0.31404806844E+01 -0.29409032988E+03  0.29485523736E+03  0.00000000000E+00 0. -1.
         -4    1    1    2    0  502 -0.20991099357E+02 -0.31404806844E+01 -0.20872891369E+03  0.20980526276E+03  0.00000000000E+00 0.  1.
<mgrwt>
<rscale>  2 0.21224723E+02</rscale>
<asrwt>0</asrwt>
<pdfrwt beam="1">  1       21 0.14163493E-03 0.21224723E+02</pdfrwt>
<pdfrwt beam="2">  1       21 0.77498545E-01 0.21224723E+02</pdfrwt>
<totfact> 0.81662284E+07</totfact>
</mgrwt>
</event>
<event>
 4    1  0.7151341E+004  0.2403643E+02  0.7546771E-02  0.1675241E+00
         21   -1    0    0  503  502  0.00000000000E+00  0.00000000000E+00  0.21767815836E+01  0.21767815836E+01  0.00000000000E+00 0. -1.
         21   -1    0    0  501  503 -0.00000000000E+00 -0.00000000000E+00 -0.28469710671E+03  0.28469710671E+03  0.00000000000E+00 0. -1.
          1    1    1    2  501    0 -0.27962600653E+01  0.23873224646E+02 -0.17858944388E+03  0.18019972084E+03  0.00000000000E+00 0. -1.
         -1    1    1    2    0  502  0.27962600653E+01 -0.23873224646E+02 -0.10393088125E+03  0.10667416746E+03  0.00000000000E+00 0.  1.
<mgrwt>
<rscale>  2 0.24036429E+02</rscale>
<asrwt>0</asrwt>
<pdfrwt beam="1">  1       21 0.33488923E-03 0.24036429E+02</pdfrwt>
<pdfrwt beam="2">  1       21 0.43799587E-01 0.24036429E+02</pdfrwt>
<totfact> 0.75580790E+07</totfact>
</mgrwt>
</event>
<event>
 4    1  0.7151341E+004  0.2525121E+02  0.7546771E-02  0.1657420E+00
         21   -1    0    0  501  502  0.00000000000E+00  0.00000000000E+00  0.20556397727E+02  0.20556397727E+02  0.00000000000E+00 0.  1.
         21   -1    0    0  502  503 -0.00000000000E+00 -0.00000000000E+00 -0.45324017772E+02  0.45324017772E+02  0.00000000000E+00 0.  1.
          4    1    1    2  501    0 -0.14985674983E+02 -0.20323712883E+02  0.61224012000E+01  0.25982831957E+02  0.00000000000E+00 0.  1.
         -4    1    1    2    0  503  0.14985674983E+02  0.20323712883E+02 -0.30890021245E+02  0.39897583543E+02  0.00000000000E+00 0. -1.
<mgrwt>
<rscale>  2 0.25251213E+02</rscale>
<asrwt>0</asrwt>
<pdfrwt beam="1">  1       21 0.31625227E-02 0.25251213E+02</pdfrwt>
<pdfrwt beam="2">  1       21 0.69729258E-02 0.25251213E+02</pdfrwt>
<totfact> 0.63425068E+07</totfact>
</mgrwt>
</event>
<event>
 4    1  0.7151341E+004  0.2082242E+02  0.7546771E-02  0.1729451E+00
         21   -1    0    0  503  502  0.00000000000E+00  0.00000000000E+00  0.42454324378E+02  0.42454324378E+02  0.00000000000E+00 0. -1.
         21   -1    0    0  501  503 -0.00000000000E+00 -0.00000000000E+00 -0.16417374297E+02  0.16417374297E+02  0.00000000000E+00 0. -1.
          4    1    1    2  501    0  0.20045555680E+02  0.56346308141E+01  0.31114539859E+02  0.37439123355E+02  0.00000000000E+00 0.  1.
         -4    1    1    2    0  502 -0.20045555680E+02 -0.56346308141E+01 -0.50775897781E+01  0.21432575321E+02  0.00000000000E+00 0. -1.
<mgrwt>
<rscale>  2 0.20822425E+02</rscale>
<asrwt>0</asrwt>
<pdfrwt beam="1">  1       21 0.65314345E-02 0.20822425E+02</pdfrwt>
<pdfrwt beam="2">  1       21 0.25257499E-02 0.20822425E+02</pdfrwt>
<totfact> 0.94800728E+07</totfact>
</mgrwt>
</event>
<event>
 4    1  0.7151341E+004  0.2760996E+02  0.7546771E-02  0.1626117E+00
         21   -1    0    0  503  502  0.00000000000E+00  0.00000000000E+00  0.10149090226E+03  0.10149090226E+03  0.00000000000E+00 0. -1.
         21   -1    0    0  501  503 -0.00000000000E+00 -0.00000000000E+00 -0.11119562756E+02  0.11119562756E+02  0.00000000000E+00 0. -1.
          1    1    1    2  501    0 -0.12242235700E+02 -0.24747480170E+02  0.13110796337E+02  0.30564736058E+02  0.00000000000E+00 0. -1.
         -1    1    1    2    0  502  0.12242235700E+02  0.24747480170E+02  0.77260543172E+02  0.82045728962E+02  0.00000000000E+00 0.  1.
<mgrwt>
<rscale>  2 0.27609964E+02</rscale>
<asrwt>0</asrwt>
<pdfrwt beam="1">  1       21 0.15613984E-01 0.27609964E+02</pdfrwt>
<pdfrwt beam="2">  1       21 0.17107020E-02 0.27609964E+02</pdfrwt>
<totfact> 0.43721554E+07</totfact>
</mgrwt>
</event>
<event>
 4    1  0.7151341E+004  0.2661237E+02  0.7546771E-02  0.1638867E+00
         21   -1    0    0  503  502  0.00000000000E+00  0.00000000000E+00  0.79476700925E+02  0.79476700925E+02  0.00000000000E+00 0.  1.
         21   -1    0    0  501  503 -0.00000000000E+00 -0.00000000000E+00 -0.11937849470E+02  0.11937849470E+02  0.00000000000E+00 0.  1.
          3    1    1    2  501    0  0.17307964226E+02  0.20215159699E+02  0.10754138043E+02  0.28703132100E+02  0.00000000000E+00 0.  1.
         -3    1    1    2    0  502 -0.17307964226E+02 -0.20215159699E+02  0.56784713413E+02  0.62711418296E+02  0.00000000000E+00 0. -1.
<mgrwt>
<rscale>  2 0.26612371E+02</rscale>
<asrwt>0</asrwt>
<pdfrwt beam="1">  1       21 0.12227184E-01 0.26612371E+02</pdfrwt>
<pdfrwt beam="2">  1       21 0.18365923E-02 0.26612371E+02</pdfrwt>
<totfact> 0.58947718E+07</totfact>
</mgrwt>
</event>
<event>
 4    1  0.7151341E+004  0.2555916E+02  0.7546771E-02  0.1653098E+00
         21   -1    0    0  503  502  0.00000000000E+00  0.00000000000E+00  0.55964732000E+02  0.55964732000E+02  0.00000000000E+00 0. -1.
         21   -1    0    0  501  503 -0.00000000000E+00 -0.00000000000E+00 -0.16362514708E+02  0.16362514708E+02  0.00000000000E+00 0. -1.
          4    1    1    2  501    0 -0.85654580156E+00 -0.25544799185E+02  0.39161571197E+02  0.46764292946E+02  0.00000000000E+00 0. -1.
         -4    1    1    2    0  502  0.85654580156E+00  0.25544799185E+02  0.44064609548E+00  0.25562953763E+02  0.00000000000E+00 0.  1.
<mgrwt>
<rscale>  2 0.25559156E+02</rscale>
<asrwt>0</asrwt>
<pdfrwt beam="1">  1       21 0.86099586E-02 0.25559156E+02</pdfrwt>
<pdfrwt beam="2">  1       21 0.25173100E-02 0.25559156E+02</pdfrwt>
<totfact> 0.64316829E+07</totfact>
</mgrwt>
</event>
<event>
 4    1  0.7151341E+004  0.2117025E+02  0.7546771E-02  0.1723010E+00
         21   -1    0    0  501  502  0.00000000000E+00  0.00000000000E+00  0.12707827815E+02  0.12707827815E+02  0.00000000000E+00 0. -1.
         21   -1    0    0  502  503 -0.00000000000E+00 -0.00000000000E+00 -0.35454428780E+02  0.35454428780E+02  0.00000000000E+00 0. -1.
          1    1    1    2  501    0  0.65587183059E+01 -0.20128655958E+02 -0.96270491079E+01  0.23256389466E+02  0.00000000000E+00 0.  1.
         -1    1    1    2    0  503 -0.65587183059E+01  0.20128655958E+02 -0.13119551857E+02  0.24905867128E+02  0.00000000000E+00 0. -1.
<mgrwt>
<rscale>  2 0.21170252E+02</rscale>
<asrwt>0</asrwt>
<pdfrwt beam="1">  1       21 0.19550505E-02 0.21170252E+02</pdfrwt>
<pdfrwt beam="2">  1       21 0.54545274E-02 0.21170252E+02</pdfrwt>
<totfact> 0.18832439E+08</totfact>
</mgrwt>
</event>
<event>
 4    1  0.7151341E+004  0.2329240E+02  0.7546771E-02  0.1686814E+00
         21   -1    0    0  503  502  0.00000000000E+00  0.00000000000E+00  0.22683045853E+03  0.22683045853E+03  0.00000000000E+00 0. -1.
         21   -1    0    0  501  503 -0.00000000000E+00 -0.00000000000E+00 -0.24428570004E+01  0.24428570004E+01  0.00000000000E+00 0. -1.
          4    1    1    2  501    0  0.51141719985E+01 -0.22724017005E+02  0.12876496935E+03  0.13085470200E+03  0.00000000000E+00 0. -1.
         -4    1    1    2    0  502 -0.51141719985E+01  0.22724017005E+02  0.95622632176E+02  0.98418613526E+02  0.00000000000E+00 0.  1.
<mgrwt>
<rscale>  2 0.23292396E+02</rscale>
<asrwt>0</asrwt>
<pdfrwt beam="1">  1       21 0.34896977E-01 0.23292396E+02</pdfrwt>
<pdfrwt beam="2">  1       21 0.37582433E-03 0.23292396E+02</pdfrwt>
<totfact> 0.97099353E+07</totfact>
</mgrwt>
</event>
<event>
 4    1  0.7151341E+004  0.2725580E+02  0.7546771E-02  0.1630567E+00
         21   -1    0    0  501  502  0.00000000000E+00  0.00000000000E+00  0.40145099735E+02  0.40145099735E+02  0.00000000000E+00 0.  1.
         21   -1    0    0  502  503 -0.00000000000E+00 -0.00000000000E+00 -0.18505763263E+02  0.18505763263E+02  0.00000000000E+00 0.  1.
          2    1    1    2  501    0  0.19843235013E+01 -0.27183472011E+02  0.11026683242E+02  0.29401810041E+02  0.00000000000E+00 0. -1.
         -2    1    1    2    0  503 -0.19843235013E+01  0.27183472011E+02  0.10612653230E+02  0.29249052958E+02  0.00000000000E+00 0.  1.
<mgrwt>
<rscale>  2 0.27255801E+02</rscale>
<asrwt>0</asrwt>
<pdfrwt beam="1">  1       21 0.61761692E-02 0.27255801E+02</pdfrwt>
<pdfrwt beam="2">  1       21 0.28470405E-02 0.27255801E+02</pdfrwt>
<totfact> 0.92809126E+07</totfact>
</mgrwt>
</event>
<event>
 4    1  0.7151341E+004  0.2386693E+02  0.7546771E-02  0.1677831E+00
         21   -1    0    0  501  502  0.00000000000E+00  0.00000000000E+00  0.37243798019E+01  0.37243798019E+01  0.00000000000E+00 0. -1.
         21   -1    0    0  502  503 -0.00000000000E+00 -0.00000000000E+00 -0.16667263951E+03  0.16667263951E+03  0.00000000000E+00 0. -1.
          5    1    1    2  501    0  0.23136453988E+02 -0.58595894894E+01 -0.57024266396E+02  0.61817451016E+02  0.00000000000E+00 0. -1.
         -5    1    1    2    0  503 -0.23136453988E+02  0.58595894894E+01 -0.10592399331E+03  0.10857956829E+03  0.00000000000E+00 0.  1.
<mgrwt>
<rscale>  2 0.23866929E+02</rscale>
<asrwt>0</asrwt>
<pdfrwt beam="1">  1       21 0.57298142E-03 0.23866929E+02</pdfrwt>
<pdfrwt beam="2">  1       21 0.25641948E-01 0.23866929E+02</pdfrwt>
<totfact> 0.92009903E+07</totfact>
</mgrwt>
</event>
<event>
 4    1  0.7151341E+004  0.2000811E+02  0.7546771E-02  0.1745167E+00
         21   -1    0    0  501  502  0.00000000000E+00  0.00000000000E+00  0.27357928181E+02  0.27357928181E+02  0.00000000000E+00 0. -1.
         21   -1    0    0  502  503 -0.00000000000E+00 -0.00000000000E+00 -0.14913418718E+02  0.14913418718E+02  0.00000000000E+00 0. -1.
          2    1    1    2  501    0  0.11703374771E+02  0.16228233412E+02  0.91212319888E+01  0.21989120349E+02  0.00000000000E+00 0.  1.
         -2    1    1    2    0  503 -0.11703374771E+02 -0.16228233412E+02  0.33232774743E+01  0.20282226551E+02  0.00000000000E+00 0. -1.
<mgrwt>
<rscale>  2 0.20008112E+02</rscale>
<asrwt>0</asrwt>
<pdfrwt beam="1">  1       21 0.42089120E-02 0.20008112E+02</pdfrwt>
<pdfrwt beam="2">  1       21 0.22943721E-02 0.20008112E+02</pdfrwt>
<totfact> 0.21805372E+08</totfact>
</mgrwt>
</event>
<event>
 4    1  0.7151341E+004  0.2004481E+02  0.7546771E-02  0.1744438E+00
         21   -1    0    0  501  502  0.00000000000E+00  0.00000000000E+00  0.14825108863E+03  0.14825108863E+03  0.00000000000E+00 0. -1.
         21   -1    0    0  502  503 -0.00000000000E+00 -0.00000000000E+00 -0.30250596067E+01  0.30250596067E+01  0.00000000000E+00 0. -1.
          3    1    1    2  501    0 -0.17691341763E+02 -0.94239606628E+01  0.48211824973E+02  0.52212782679E+02  0.00000000000E+00 0. -1.
         -3    1    1    2    0  503  0.17691341763E+02  0.94239606628E+01  0.97014204056E+02  0.99063365562E+02  0.00000000000E+00 0.  1.
<mgrwt>
<rscale>  2 0.20044815E+02</rscale>
<asrwt>0</asrwt>
<pdfrwt beam="1">  1       21 0.22807854E-01 0.20044815E+02</pdfrwt>
<pdfrwt beam="2">  1       21 0.46539390E-03 0.20044815E+02</pdfrwt>
<totfact> 0.14643504E+08</totfact>
</mgrwt>
</event>
<event>
 4    1  0.7151341E+004  0.2086555E+02  0.7546771E-02  0.1728644E+00
         21   -1    0    0  503  502  0.00000000000E+00  0.00000000000E+00  0.34394601131E+03  0.34394601131E+03  0.00000000000E+00 0. -1.
         21   -1    0    0  501  503 -0.00000000000E+00 -0.00000000000E+00 -0.15547803735E+01  0.15547803735E+01  0.00000000000E+00 0. -1.
          2    1    1    2  501    0  0.14847878843E+02 -0.14659869526E+02  0.24567036386E+03  0.24655485994E+03  0.00000000000E+00 0. -1.
         -2    1    1    2    0  502 -0.14847878843E+02  0.14659869526E+02  0.96720867080E+02  0.98945931747E+02  0.00000000000E+00 0.  1.
<mgrwt>
<rscale>  2 0.20865552E+02</rscale>
<asrwt>0</asrwt>
<pdfrwt beam="1">  1       21 0.52914711E-01 0.20865552E+02</pdfrwt>
<pdfrwt beam="2">  1       21 0.23919725E-03 0.20865552E+02</pdfrwt>
<totfact> 0.82544752E+07</totfact>
</mgrwt>
</event>
<event>
 4    1  0.7151341E+004  0.2840754E+02  0.7546771E-02  0.1616389E+00
         21   -1    0    0  501  502  0.00000000000E+00  0.00000000000E+00  0.11519890693E+01  0.11519890693E+01  0.00000000000E+00 0.  1.
         21   -1    0    0  502  503 -0.00000000000E+00 -0.00000000000E+00 -0.70268206948E+03  0.70268206948E+03  0.00000000000E+00 0.  1.
          5    1    1    2  501    0  0.19978716871E+02  0.20195032174E+02 -0.33123284710E+03  0.33244877418E+03  0.00000000000E+00 0.  1.
         -5    1    1    2    0  503 -0.19978716871E+02 -0.20195032174E+02 -0.37029723331E+03  0.37138528437E+03  0.00000000000E+00 0. -1.
<mgrwt>
<rscale>  2 0.28407542E+02</rscale>
<asrwt>0</asrwt>
<pdfrwt beam="1">  1       21 0.17722855E-03 0.28407542E+02</pdfrwt>
<pdfrwt beam="2">  1       21 0.10810526E+00 0.28407542E+02</pdfrwt>
<totfact> 0.30678289E+07</totfact>
</mgrwt>
</event>
<event>
 4    1  0.7151341E+004  0.2428638E+02  0.7546771E-02  0.1671469E+00
         21   -1    0    0  501  502  0.00000000000E+00  0.00000000000E+00  0.51955841887E+01  0.51955841887E+01  0.00000000000E+00 0. -1.
         21   -1    0    0  502  503 -0.00000000000E+00 -0.00000000000E+00 -0.26170968931E+03  0.26170968931E+03  0.00000000000E+00 0. -1.
          4    1    1    2  501    0 -0.82944796526E+00  0.24272212210E+02 -0.27837323563E+02  0.36942453257E+02  0.00000000000E+00 0.  1.
         -4    1    1    2    0  503  0.82944796526E+00 -0.24272212210E+02 -0.22867678156E+03  0.22996282024E+03  0.00000000000E+00 0. -1.
<mgrwt>
<rscale>  2 0.24286380E+02</rscale>
<asrwt>0</asrwt>
<pdfrwt beam="1">  1       21 0.79932068E-03 0.24286380E+02</pdfrwt>
<pdfrwt beam="2">  1       21 0.40263027E-01 0.24286380E+02</pdfrwt>
<totfact> 0.24560766E+07</totfact>
</mgrwt>
</event>
<event>
 4    1  0.7151341E+004  0.2259114E+02  0.7546771E-02  0.1698225E+00
         21   -1    0    0  501  502  0.00000000000E+00  0.00000000000E+00  0.65866663528E+02  0.65866663528E+02  0.00000000000E+00 0. -1.
         21   -1    0    0  502  503 -0.00000000000E+00 -0.00000000000E+00 -0.77971071351E+01  0.77971071351E+01  0.00000000000E+00 0. -1.
          5    1    1    2  501    0 -0.14764066839E+02  0.17099174458E+02  0.31946678951E+02  0.39127352744E+02  0.00000000000E+00 0. -1.
         -5    1    1    2    0  503  0.14764066839E+02 -0.17099174458E+02  0.26122877442E+02  0.34536417919E+02  0.00000000000E+00 0.  1.
<mgrwt>
<rscale>  2 0.22591136E+02</rscale>
<asrwt>0</asrwt>
<pdfrwt beam="1">  1       21 0.10133332E-01 0.22591136E+02</pdfrwt>
<pdfrwt beam="2">  1       21 0.11995550E-02 0.22591136E+02</pdfrwt>
<totfact> 0.14768836E+08</totfact>
</mgrwt>
</event>
<event>
 4    1  0.7151341E+004  0.5782053E+02  0.7546771E-02  0.1407212E+00
         21   -1    0    0  501  502  0.00000000000E+00  0.00000000000E+00  0.62181881675E+02  0.62181881675E+02  0.00000000000E+00 0.  1.
         21   -1    0    0  502  503 -0.00000000000E+00 -0.00000000000E+00 -0.55312862973E+02  0.55312862973E+02  0.00000000000E+00 0.  1.
          4    1    1    2  501    0  0.48612814634E+02 -0.31305085220E+02  0.13261709760E+02  0.59321893539E+02  0.00000000000E+00 0. -1.
         -4    1    1    2    0  503 -0.48612814634E+02  0.31305085220E+02 -0.63926910580E+01  0.58172851110E+02  0.00000000000E+00 0.  1.
<mgrwt>
<rscale>  2 0.57820534E+02</rscale>
<asrwt>0</asrwt>
<pdfrwt beam="1">  1       21 0.95664433E-02 0.57820534E+02</pdfrwt>
<pdfrwt beam="2">  1       21 0.85096713E-02 0.57820534E+02</pdfrwt>
<totfact> 0.86497495E+06</totfact>
</mgrwt>
</event>
<event>
 4    1  0.7151341E+004  0.2343576E+02  0.7546771E-02  0.1684542E+00
         21   -1    0    0  503  502  0.00000000000E+00  0.00000000000E+00  0.16418845769E+01  0.16418845769E+01  0.00000000000E+00 0. -1.
         21   -1    0    0  501  503 -0.00000000000E+00 -0.00000000000E+00 -0.33608093002E+03  0.33608093002E+03  0.00000000000E+00 0. -1.
          3    1    1    2  501    0  0.45110539005E+01 -0.22997505037E+02 -0.17874633819E+03  0.18027614446E+03  0.00000000000E+00 0.  1.
         -3    1    1    2    0  502 -0.45110539005E+01  0.22997505037E+02 -0.15569270725E+03  0.15744667013E+03  0.00000000000E+00 0. -1.
<mgrwt>
<rscale>  2 0.23435760E+02</rscale>
<asrwt>0</asrwt>
<pdfrwt beam="1">  1       21 0.25259742E-03 0.23435760E+02</pdfrwt>
<pdfrwt beam="2">  1       21 0.51704802E-01 0.23435760E+02</pdfrwt>
<totfact> 0.82206983E+07</totfact>
</mgrwt>
</event>
<event>
 4    1  0.7151341E+004  0.2436488E+02  0.7546771E-02  0.1670296E+00
         21   -1    0    0  501  502  0.00000000000E+00  0.00000000000E+00  0.30496542129E+01  0.30496542129E+01  0.00000000000E+00 0.  1.
         21   -1    0    0  502  503 -0.00000000000E+00 -0.00000000000E+00 -0.19600304130E+03  0.19600304130E+03  0.00000000000E+00 0.  1.
          1    1    1    2  501    0 -0.49632778852E+01 -0.23853993819E+02 -0.10471378636E+03  0.10751104223E+03  0.00000000000E+00 0.  1.
         -1    1    1    2    0  503  0.49632778852E+01  0.23853993819E+02 -0.88239600727E+02  0.91541653278E+02  0.00000000000E+00 0. -1.
<mgrwt>
<rscale>  2 0.24364875E+02</rscale>
<asrwt>0</asrwt>
<pdfrwt beam="1">  1       21 0.46917744E-03 0.24364875E+02</pdfrwt>
<pdfrwt beam="2">  1       21 0.30154323E-01 0.24364875E+02</pdfrwt>
<totfact> 0.92750838E+07</totfact>
</mgrwt>
</event>
<event>
 4    1  0.7151341E+004  0.2374268E+02  0.7546771E-02  0.1679747E+00
         21   -1    0    0  503  502  0.00000000000E+00  0.00000000000E+00  0.98130090543E+02  0.98130090543E+02  0.00000000000E+00 0.  1.
         21   -1    0    0  501  503 -0.00000000000E+00 -0.00000000000E+00 -0.65307803888E+01  0.65307803888E+01  0.00000000000E+00 0.  1.
          1    1    1    2  501    0  0.15343806138E+02  0.18118562183E+02  0.27642718264E+02  0.36439464258E+02  0.00000000000E+00 0. -1.
         -1    1    1    2    0  502 -0.15343806138E+02 -0.18118562183E+02  0.63956591890E+02  0.68221406674E+02  0.00000000000E+00 0.  1.
<mgrwt>
<rscale>  2 0.23742676E+02</rscale>
<asrwt>0</asrwt>
<pdfrwt beam="1">  1       21 0.15096936E-01 0.23742676E+02</pdfrwt>
<pdfrwt beam="2">  1       21 0.10047355E-02 0.23742676E+02</pdfrwt>
<totfact> 0.10019005E+08</totfact>
</mgrwt>
</event>
<event>
 4    1  0.7151341E+004  0.2081262E+02  0.7546771E-02  0.1729635E+00
         21   -1    0    0  503  502  0.00000000000E+00  0.00000000000E+00  0.11806673859E+03  0.11806673859E+03  0.00000000000E+00 0.  1.
         21   -1    0    0  501  503 -0.00000000000E+00 -0.00000000000E+00 -0.36697709156E+01  0.36697709156E+01  0.00000000000E+00 0.  1.
          5    1    1    2  501    0 -0.57040285255E+01 -0.20015722892E+02  0.58180507275E+02  0.61791071613E+02  0.00000000000E+00 0. -1.
         -5    1    1    2    0  502  0.57040285255E+01  0.20015722892E+02  0.56216460402E+02  0.59945437895E+02  0.00000000000E+00 0.  1.
<mgrwt>
<rscale>  2 0.20812619E+02</rscale>
<asrwt>0</asrwt>
<pdfrwt beam="1">  1       21 0.18164111E-01 0.20812619E+02</pdfrwt>
<pdfrwt beam="2">  1       21 0.56458023E-03 0.20812619E+02</pdfrwt>
<totfact> 0.16565968E+08</totfact>
</mgrwt>
</event>
<event>
 4    1  0.7151341E+004  0.2409416E+02  0.7546771E-02  0.1674364E+00
         21   -1    0    0  503  502  0.00000000000E+00  0.00000000000E+00  0.37619178453E+02  0.37619178453E+02  0.00000000000E+00 0.  1.
         21   -1    0    0  501  503 -0.00000000000E+00 -0.00000000000E+00 -0.15498517350E+02  0.15498517350E+02  0.00000000000E+00 0.  1.
          4    1    1    2  501    0  0.23225090612E+02  0.64127685079E+01  0.93166754194E+01  0.25832709396E+02  0.00000000000E+00 0.  1.
         -4    1    1    2    0  502 -0.23225090612E+02 -0.64127685079E+01  0.12803985684E+02  0.27284986407E+02  0.00000000000E+00 0. -1.
<mgrwt>
<rscale>  2 0.24094158E+02</rscale>
<asrwt>0</asrwt>
<pdfrwt beam="1">  1       21 0.57875659E-02 0.24094158E+02</pdfrwt>
<pdfrwt beam="2">  1       21 0.23843873E-02 0.24094158E+02</pdfrwt>
<totfact> 0.13134411E+08</totfact>
</mgrwt>
</event>
<event>
 4    1  0.7151341E+004  0.2019926E+02  0.7546771E-02  0.1741394E+00
         21   -1    0    0  503  502  0.00000000000E+00  0.00000000000E+00  0.62018633396E+02  0.62018633396E+02  0.00000000000E+00 0. -1.
         21   -1    0    0  501  503 -0.00000000000E+00 -0.00000000000E+00 -0.79391091434E+01  0.79391091434E+01  0.00000000000E+00 0. -1.
          2    1    1    2  501    0  0.12070547469E+02 -0.16196050081E+02  0.41518598004E+02  0.46171464507E+02  0.00000000000E+00 0. -1.
         -2    1    1    2    0  502 -0.12070547469E+02  0.16196050081E+02  0.12560926248E+02  0.23786278032E+02  0.00000000000E+00 0.  1.
<mgrwt>
<rscale>  2 0.20199261E+02</rscale>
<asrwt>0</asrwt>
<pdfrwt beam="1">  1       21 0.95413279E-02 0.20199261E+02</pdfrwt>
<pdfrwt beam="2">  1       21 0.12214014E-02 0.20199261E+02</pdfrwt>
<totfact> 0.15338466E+08</totfact>
</mgrwt>
</event>
<event>
 4    1  0.7151341E+004  0.2050671E+02  0.7546771E-02  0.1735435E+00
         21   -1    0    0  501  502  0.00000000000E+00  0.00000000000E+00  0.94586125720E+02  0.94586125720E+02  0.00000000000E+00 0.  1.
         21   -1    0    0  502  503 -0.00000000000E+00 -0.00000000000E+00 -0.49183837124E+01  0.49183837124E+01  0.00000000000E+00 0.  1.
          3    1    1    2  501    0  0.20326454868E+02  0.27129715326E+01  0.29414275069E+02  0.35857001546E+02  0.00000000000E+00 0. -1.
         -3    1    1    2    0  503 -0.20326454868E+02 -0.27129715326E+01  0.60253466939E+02  0.63647507886E+02  0.00000000000E+00 0.  1.
<mgrwt>
<rscale>  2 0.20506706E+02</rscale>
<asrwt>0</asrwt>
<pdfrwt beam="1">  1       21 0.14551710E-01 0.20506706E+02</pdfrwt>
<pdfrwt beam="2">  1       21 0.75667449E-03 0.20506706E+02</pdfrwt>
<totfact> 0.15609411E+08</totfact>
</mgrwt>
</event>
<event>
 4    1  0.7151341E+004  0.2145855E+02  0.7546771E-02  0.1717788E+00
         21   -1    0    0  501  502  0.00000000000E+00  0.00000000000E+00  0.17145074369E+03  0.17145074369E+03  0.00000000000E+00 0.  1.
         21   -1    0    0  502  503 -0.00000000000E+00 -0.00000000000E+00 -0.26911776430E+01  0.26911776430E+01  0.00000000000E+00 0.  1.
          4    1    1    2  501    0 -0.22710556482E+01 -0.21338038345E+02  0.80460562131E+02  0.83272874530E+02  0.00000000000E+00 0. -1.
         -4    1    1    2    0  503  0.22710556482E+01  0.21338038345E+02  0.88299003912E+02  0.90869046799E+02  0.00000000000E+00 0.  1.
<mgrwt>
<rscale>  2 0.21458555E+02</rscale>
<asrwt>0</asrwt>
<pdfrwt beam="1">  1       21 0.26377029E-01 0.21458555E+02</pdfrwt>
<pdfrwt beam="2">  1       21 0.41402746E-03 0.21458555E+02</pdfrwt>
<totfact> 0.13707080E+08</totfact>
</mgrwt>
</event>
<event>
 4    1  0.7151341E+004  0.2586312E+02  0.7546771E-02  0.1648905E+00
         21   -1    0    0  501  502  0.00000000000E+00  0.00000000000E+00  0.18001223883E+02  0.18001223883E+02  0.00000000000E+00 0.  1.
         21   -1    0    0  502  503 -0.00000000000E+00 -0.00000000000E+00 -0.45206933616E+02  0.45206933616E+02  0.00000000000E+00 0.  1.
          1    1    1    2  501    0  0.25812413785E+02  0.16186692189E+01 -0.26937848711E+02  0.37343653928E+02  0.00000000000E+00 0.  1.
         -1    1    1    2    0  503 -0.25812413785E+02 -0.16186692189E+01 -0.26786102092E+00  0.25864503571E+02  0.00000000000E+00 0. -1.
<mgrwt>
<rscale>  2 0.25863117E+02</rscale>
<asrwt>0</asrwt>
<pdfrwt beam="1">  1       21 0.27694191E-02 0.25863117E+02</pdfrwt>
<pdfrwt beam="2">  1       21 0.69549128E-02 0.25863117E+02</pdfrwt>
<totfact> 0.78845846E+07</totfact>
</mgrwt>
</event>
<event>
 4    1  0.7151341E+004  0.2244519E+02  0.7546771E-02  0.1700665E+00
         21   -1    0    0  503  502  0.00000000000E+00  0.00000000000E+00  0.72112147274E+03  0.72112147274E+03  0.00000000000E+00 0. -1.
         21   -1    0    0  501  503 -0.00000000000E+00 -0.00000000000E+00 -0.10695723400E+01  0.10695723400E+01  0.00000000000E+00 0. -1.
          4    1    1    2  501    0  0.20712994850E+02 -0.86462894474E+01  0.57268253965E+03  0.57312221881E+03  0.00000000000E+00 0.  1.
         -4    1    1    2    0  502 -0.20712994850E+02  0.86462894474E+01  0.14736936075E+03  0.14906882627E+03  0.00000000000E+00 0. -1.
<mgrwt>
<rscale>  2 0.22445188E+02</rscale>
<asrwt>0</asrwt>
<pdfrwt beam="1">  1       21 0.11094138E+00 0.22445188E+02</pdfrwt>
<pdfrwt beam="2">  1       21 0.16455017E-03 0.22445188E+02</pdfrwt>
<totfact> 0.30834546E+07</totfact>
</mgrwt>
</event>
<event>
 4    1  0.7151341E+004  0.2023685E+02  0.7546771E-02  0.1740659E+00
         21   -1    0    0  503  502  0.00000000000E+00  0.00000000000E+00  0.23789483409E+02  0.23789483409E+02  0.00000000000E+00 0.  1.
         21   -1    0    0  501  503 -0.00000000000E+00 -0.00000000000E+00 -0.17552765513E+02  0.17552765513E+02  0.00000000000E+00 0.  1.
          3    1    1    2  501    0  0.14097222965E+01 -0.20187690778E+02  0.24985699602E+00  0.20238394314E+02  0.00000000000E+00 0.  1.
         -3    1    1    2    0  502 -0.14097222965E+01  0.20187690778E+02  0.59868608993E+01  0.21103854608E+02  0.00000000000E+00 0. -1.
<mgrwt>
<rscale>  2 0.20236852E+02</rscale>
<asrwt>0</asrwt>
<pdfrwt beam="1">  1       21 0.36599205E-02 0.20236852E+02</pdfrwt>
<pdfrwt beam="2">  1       21 0.27004255E-02 0.20236852E+02</pdfrwt>
<totfact> 0.21206842E+08</totfact>
</mgrwt>
</event>
<event>
 4    1  0.7151341E+004  0.3089028E+02  0.7546771E-02  0.1588451E+00
         21   -1    0    0  503  502  0.00000000000E+00  0.00000000000E+00  0.15232478233E+01  0.15232478233E+01  0.00000000000E+00 0. -1.
         21   -1    0    0  501  503 -0.00000000000E+00 -0.00000000000E+00 -0.70038151787E+03  0.70038151787E+03  0.00000000000E+00 0. -1.
          4    1    1    2  501    0  0.29936034952E+02 -0.76186119437E+01 -0.23539053110E+03  0.23740874366E+03  0.00000000000E+00 0.  1.
         -4    1    1    2    0  502 -0.29936034952E+02  0.76186119437E+01 -0.46346773895E+03  0.46449602204E+03  0.00000000000E+00 0. -1.
<mgrwt>
<rscale>  2 0.30890281E+02</rscale>
<asrwt>0</asrwt>
<pdfrwt beam="1">  1       21 0.23434589E-03 0.30890281E+02</pdfrwt>
<pdfrwt beam="2">  1       21 0.10775097E+00 0.30890281E+02</pdfrwt>
<totfact> 0.20860959E+07</totfact>
</mgrwt>
</event>
<event>
 4    1  0.7151341E+004  0.2726316E+02  0.7546771E-02  0.1630473E+00
         21   -1    0    0  503  502  0.00000000000E+00  0.00000000000E+00  0.54140774228E+03  0.54140774228E+03  0.00000000000E+00 0.  1.
         21   -1    0    0  501  503 -0.00000000000E+00 -0.00000000000E+00 -0.14530108943E+01  0.14530108943E+01  0.00000000000E+00 0.  1.
          5    1    1    2  501    0 -0.92944766627E+01  0.25629919745E+02  0.33372483369E+03  0.33483659403E+03  0.00000000000E+00 0.  1.
         -5    1    1    2    0  502  0.92944766627E+01 -0.25629919745E+02  0.20622989770E+03  0.20802415914E+03  0.00000000000E+00 0. -1.
<mgrwt>
<rscale>  2 0.27263163E+02</rscale>
<asrwt>0</asrwt>
<pdfrwt beam="1">  1       21 0.83293338E-01 0.27263163E+02</pdfrwt>
<pdfrwt beam="2">  1       21 0.22354057E-03 0.27263163E+02</pdfrwt>
<totfact> 0.38411341E+07</totfact>
</mgrwt>
</event>
<event>
 4    1  0.7151341E+004  0.2514882E+02  0.7546771E-02  0.1658873E+00
         21   -1    0    0  503  502  0.00000000000E+00  0.00000000000E+00  0.26851315291E+02  0.26851315291E+02  0.00000000000E+00 0.  1.
         21   -1    0    0  501  503 -0.00000000000E+00 -0.00000000000E+00 -0.34620231789E+02  0.34620231789E+02  0.00000000000E+00 0.  1.
          5    1    1    2  501    0 -0.23397626229E+02  0.92203191325E+01 -0.21261414015E+02  0.32931913458E+02  0.00000000000E+00 0.  1.
         -5    1    1    2    0  502  0.23397626229E+02 -0.92203191325E+01  0.13492497517E+02  0.28539633623E+02  0.00000000000E+00 0. -1.
<mgrwt>
<rscale>  2 0.25148821E+02</rscale>
<asrwt>0</asrwt>
<pdfrwt beam="1">  1       21 0.41309716E-02 0.25148821E+02</pdfrwt>
<pdfrwt beam="2">  1       21 0.53261895E-02 0.25148821E+02</pdfrwt>
<totfact> 0.64257880E+07</totfact>
</mgrwt>
</event>
<event>
 4    1  0.7151341E+004  0.2639411E+02  0.7546771E-02  0.1641749E+00
         21   -1    0    0  501  502  0.00000000000E+00  0.00000000000E+00  0.60537937735E+01  0.60537937735E+01  0.00000000000E+00 0.  1.
         21   -1    0    0  502  503 -0.00000000000E+00 -0.00000000000E+00 -0.12657381383E+03  0.12657381383E+03  0.00000000000E+00 0.  1.
          2    1    1    2  501    0 -0.26360218204E+02  0.13371662626E+01 -0.40273770910E+02  0.48152110449E+02  0.00000000000E+00 0. -1.
         -2    1    1    2    0  503  0.26360218204E+02 -0.13371662626E+01 -0.80246249151E+02  0.84475497159E+02  0.00000000000E+00 0.  1.
<mgrwt>
<rscale>  2 0.26394111E+02</rscale>
<asrwt>0</asrwt>
<pdfrwt beam="1">  1       21 0.93135294E-03 0.26394111E+02</pdfrwt>
<pdfrwt beam="2">  1       21 0.19472893E-01 0.26394111E+02</pdfrwt>
<totfact> 0.74344750E+07</totfact>
</mgrwt>
</event>
<event>
 4    1  0.7151341E+004  0.3375881E+02  0.7546771E-02  0.1559907E+00
         21   -1    0    0  503  502  0.00000000000E+00  0.00000000000E+00  0.18086091490E+04  0.18086091490E+04  0.00000000000E+00 0. -1.
         21   -1    0    0  501  503 -0.00000000000E+00 -0.00000000000E+00 -0.74322947544E+00  0.74322947544E+00  0.00000000000E+00 0. -1.
          3    1    1    2  501    0  0.70727881191E+01 -0.33009589353E+02  0.12568427050E+04  0.12572960043E+04  0.00000000000E+00 0.  1.
         -3    1    1    2    0  502 -0.70727881191E+01  0.33009589353E+02  0.55102321452E+03  0.55205637417E+03  0.00000000000E+00 0. -1.
<mgrwt>
<rscale>  2 0.33758811E+02</rscale>
<asrwt>0</asrwt>
<pdfrwt beam="1">  1       21 0.27824404E+00 0.33758811E+02</pdfrwt>
<pdfrwt beam="2">  1       21 0.11434444E-03 0.33758811E+02</pdfrwt>
<totfact> 0.51455047E+06</totfact>
</mgrwt>
</event>
<event>
 4    1  0.7151341E+004  0.2802570E+02  0.7546771E-02  0.1620997E+00
         21   -1    0    0  503  502  0.00000000000E+00  0.00000000000E+00  0.38455930932E+02  0.38455930932E+02  0.00000000000E+00 0.  1.
         21   -1    0    0  501  503 -0.00000000000E+00 -0.00000000000E+00 -0.20911686972E+02  0.20911686972E+02  0.00000000000E+00 0.  1.
          2    1    1    2  501    0 -0.18274964522E+02  0.21247719669E+02  0.42409505042E+01  0.28344762843E+02  0.00000000000E+00 0.  1.
         -2    1    1    2    0  502  0.18274964522E+02 -0.21247719669E+02  0.13303293456E+02  0.31022855062E+02  0.00000000000E+00 0. -1.
<mgrwt>
<rscale>  2 0.28025701E+02</rscale>
<asrwt>0</asrwt>
<pdfrwt beam="1">  1       21 0.59162971E-02 0.28025701E+02</pdfrwt>
<pdfrwt beam="2">  1       21 0.32171826E-02 0.28025701E+02</pdfrwt>
<totfact> 0.82726048E+07</totfact>
</mgrwt>
</event>
<event>
 4    1  0.7151341E+004  0.5678897E+02  0.7546771E-02  0.1411823E+00
         21   -1    0    0  501  502  0.00000000000E+00  0.00000000000E+00  0.25163004668E+03  0.25163004668E+03  0.00000000000E+00 0.  1.
         21   -1    0    0  502  503 -0.00000000000E+00 -0.00000000000E+00 -0.12816769397E+02  0.12816769397E+02  0.00000000000E+00 0.  1.
          3    1    1    2  501    0 -0.54636734146E+02 -0.15485940484E+02  0.11868070816E+03  0.13156784394E+03  0.00000000000E+00 0.  1.
         -3    1    1    2    0  503  0.54636734146E+02  0.15485940484E+02  0.12013256913E+03  0.13287897214E+03  0.00000000000E+00 0. -1.
<mgrwt>
<rscale>  2 0.56788970E+02</rscale>
<asrwt>0</asrwt>
<pdfrwt beam="1">  1       21 0.38712311E-01 0.56788970E+02</pdfrwt>
<pdfrwt beam="2">  1       21 0.19718109E-02 0.56788970E+02</pdfrwt>
<totfact> 0.74894038E+06</totfact>
</mgrwt>
</event>
<event>
 4    1  0.7151341E+004  0.2439995E+02  0.7546771E-02  0.1669773E+00
         21   -1    0    0  501  502  0.00000000000E+00  0.00000000000E+00  0.63716278685E+01  0.63716278685E+01  0.00000000000E+00 0.  1.
         21   -1    0    0  502  503 -0.00000000000E+00 -0.00000000000E+00 -0.95208518117E+02  0.95208518117E+02  0.00000000000E+00 0.  1.
          4    1    1    2  501    0 -0.38264119285E+01  0.24098049771E+02 -0.51342966004E+02  0.56845910927E+02  0.00000000000E+00 0. -1.
         -4    1    1    2    0  503  0.38264119285E+01 -0.24098049771E+02 -0.37493924245E+02  0.44734235059E+02  0.00000000000E+00 0.  1.
<mgrwt>
<rscale>  2 0.24399947E+02</rscale>
<asrwt>0</asrwt>
<pdfrwt beam="1">  1       21 0.98025046E-03 0.24399947E+02</pdfrwt>
<pdfrwt beam="2">  1       21 0.14647464E-01 0.24399947E+02</pdfrwt>
<totfact> 0.11031449E+08</totfact>
</mgrwt>
</event>
<event>
 4    1  0.7151341E+004  0.2097891E+02  0.7546771E-02  0.1726534E+00
         21   -1    0    0  503  502  0.00000000000E+00  0.00000000000E+00  0.56880208153E+02  0.56880208153E+02  0.00000000000E+00 0.  1.
         21   -1    0    0  501  503 -0.00000000000E+00 -0.00000000000E+00 -0.10528702614E+02  0.10528702614E+02  0.00000000000E+00 0.  1.
          4    1    1    2  501    0  0.18939960434E+02 -0.90217730507E+01  0.58221257231E+01  0.21771808334E+02  0.00000000000E+00 0. -1.
         -4    1    1    2    0  502 -0.18939960434E+02  0.90217730507E+01  0.40529379816E+02  0.45637102433E+02  0.00000000000E+00 0.  1.
<mgrwt>
<rscale>  2 0.20978906E+02</rscale>
<asrwt>0</asrwt>
<pdfrwt beam="1">  1       21 0.87508011E-02 0.20978906E+02</pdfrwt>
<pdfrwt beam="2">  1       21 0.16198004E-02 0.20978906E+02</pdfrwt>
<totfact> 0.11669285E+08</totfact>
</mgrwt>
</event>
<event>
 4    1  0.7151341E+004  0.2215635E+02  0.7546771E-02  0.1705562E+00
         21   -1    0    0  503  502  0.00000000000E+00  0.00000000000E+00  0.53070922404E+01  0.53070922404E+01  0.00000000000E+00 0.  1.
         21   -1    0    0  501  503 -0.00000000000E+00 -0.00000000000E+00 -0.92537014004E+02  0.92537014004E+02  0.00000000000E+00 0.  1.
          5    1    1    2  501    0  0.12208644365E+02  0.18489259757E+02 -0.44599124123E+02  0.49799453774E+02  0.00000000000E+00 0. -1.
         -5    1    1    2    0  502 -0.12208644365E+02 -0.18489259757E+02 -0.42630797640E+02  0.48044652471E+02  0.00000000000E+00 0.  1.
<mgrwt>
<rscale>  2 0.22156347E+02</rscale>
<asrwt>0</asrwt>
<pdfrwt beam="1">  1       21 0.81647570E-03 0.22156347E+02</pdfrwt>
<pdfrwt beam="2">  1       21 0.14236464E-01 0.22156347E+02</pdfrwt>
<totfact> 0.14806078E+08</totfact>
</mgrwt>
</event>
<event>
 4    1  0.7151341E+004  0.3075185E+02  0.7546771E-02  0.1589924E+00
         21   -1    0    0  501  502  0.00000000000E+00  0.00000000000E+00  0.87433105297E+02  0.87433105297E+02  0.00000000000E+00 0. -1.
         21   -1    0    0  502  503 -0.00000000000E+00 -0.00000000000E+00 -0.12420006185E+02  0.12420006185E+02  0.00000000000E+00 0. -1.
          3    1    1    2  501    0  0.22833014750E+02  0.20599267263E+02  0.55448673942E+02  0.63405298015E+02  0.00000000000E+00 0.  1.
         -3    1    1    2    0  503 -0.22833014750E+02 -0.20599267263E+02  0.19564425170E+02  0.36447813468E+02  0.00000000000E+00 0. -1.
<mgrwt>
<rscale>  2 0.30751852E+02</rscale>
<asrwt>0</asrwt>
<pdfrwt beam="1">  1       21 0.13451247E-01 0.30751852E+02</pdfrwt>
<pdfrwt beam="2">  1       21 0.19107702E-02 0.30751852E+02</pdfrwt>
<totfact> 0.48747499E+07</totfact>
</mgrwt>
</event>
<event>
 4    1  0.7151341E+004  0.5264791E+02  0.7546771E-02  0.1431561E+00
         21   -1    0    0  503  502  0.00000000000E+00  0.00000000000E+00  0.11574348748E+03  0.11574348748E+03  0.00000000000E+00 0. -1.
         21   -1    0    0  501  503 -0.00000000000E+00 -0.00000000000E+00 -0.26926771388E+02  0.26926771388E+02  0.00000000000E+00 0. -1.
          3    1    1    2  501    0  0.52554045057E+02 -0.31424192791E+01  0.20681287337E+02  0.56564282871E+02  0.00000000000E+00 0. -1.
         -3    1    1    2    0  502 -0.52554045057E+02  0.31424192791E+01  0.68135428755E+02  0.86105975998E+02  0.00000000000E+00 0.  1.
<mgrwt>
<rscale>  2 0.52647910E+02</rscale>
<asrwt>0</asrwt>
<pdfrwt beam="1">  1       21 0.17806690E-01 0.52647910E+02</pdfrwt>
<pdfrwt beam="2">  1       21 0.41425803E-02 0.52647910E+02</pdfrwt>
<totfact> 0.95660853E+06</totfact>
</mgrwt>
</event>
<event>
 4    1  0.7151341E+004  0.3152128E+02  0.7546771E-02  0.1581857E+00
         21   -1    0    0  503  502  0.00000000000E+00  0.00000000000E+00  0.12825006063E+02  0.12825006063E+02  0.00000000000E+00 0.  1.
         21   -1    0    0  501  503 -0.00000000000E+00 -0.00000000000E+00 -0.83957242692E+02  0.83957242692E+02  0.00000000000E+00 0.  1.
          4    1    1    2  501    0  0.15463953629E+02  0.27467389650E+02 -0.49014410756E+02  0.58275241894E+02  0.00000000000E+00 0. -1.
         -4    1    1    2    0  502 -0.15463953629E+02 -0.27467389650E+02 -0.22117825873E+02  0.38507006861E+02  0.00000000000E+00 0.  1.
<mgrwt>
<rscale>  2 0.31521284E+02</rscale>
<asrwt>0</asrwt>
<pdfrwt beam="1">  1       21 0.19730779E-02 0.31521284E+02</pdfrwt>
<pdfrwt beam="2">  1       21 0.12916499E-01 0.31521284E+02</pdfrwt>
<totfact> 0.49969197E+07</totfact>
</mgrwt>
</event>
<event>
 4    1  0.7151341E+004  0.2011826E+02  0.7546771E-02  0.1742986E+00
         21   -1    0    0  503  502  0.00000000000E+00  0.00000000000E+00  0.10642042910E+02  0.10642042910E+02  0.00000000000E+00 0. -1.
         21   -1    0    0  501  503 -0.00000000000E+00 -0.00000000000E+00 -0.39135103008E+02  0.39135103008E+02  0.00000000000E+00 0. -1.
          3    1    1    2  501    0 -0.18537579497E+02  0.78168216725E+01 -0.10069123264E+02  0.22497373135E+02  0.00000000000E+00 0. -1.
         -3    1    1    2    0  502  0.18537579497E+02 -0.78168216725E+01 -0.18423936834E+02  0.27279772784E+02  0.00000000000E+00 0.  1.
<mgrwt>
<rscale>  2 0.20118264E+02</rscale>
<asrwt>0</asrwt>
<pdfrwt beam="1">  1       21 0.16372374E-02 0.20118264E+02</pdfrwt>
<pdfrwt beam="2">  1       21 0.60207850E-02 0.20118264E+02</pdfrwt>
<totfact> 0.20730515E+08</totfact>
</mgrwt>
</event>
<event>
 4    1  0.7151341E+004  0.2639410E+02  0.7546771E-02  0.1641749E+00
         21   -1    0    0  503  502  0.00000000000E+00  0.00000000000E+00  0.86054197624E+01  0.86054197624E+01  0.00000000000E+00 0.  1.
         21   -1    0    0  501  503 -0.00000000000E+00 -0.00000000000E+00 -0.96772169983E+02  0.96772169983E+02  0.00000000000E+00 0.  1.
          5    1    1    2  501    0 -0.42290097225E+01  0.26053099454E+02 -0.65384992959E+02  0.70511316955E+02  0.00000000000E+00 0. -1.
         -5    1    1    2    0  502  0.42290097225E+01 -0.26053099454E+02 -0.22781757262E+02  0.34866272791E+02  0.00000000000E+00 0.  1.
<mgrwt>
<rscale>  2 0.26394100E+02</rscale>
<asrwt>0</asrwt>
<pdfrwt beam="1">  1       21 0.13239109E-02 0.26394100E+02</pdfrwt>
<pdfrwt beam="2">  1       21 0.14888025E-01 0.26394100E+02</pdfrwt>
<totfact> 0.69467656E+07</totfact>
</mgrwt>
</event>
<event>
 4    1  0.7151341E+004  0.4814834E+02  0.7546771E-02  0.1455593E+00
         21   -1    0    0  503  502  0.00000000000E+00  0.00000000000E+00  0.12271293854E+03  0.12271293854E+03  0.00000000000E+00 0. -1.
         21   -1    0    0  501  503 -0.00000000000E+00 -0.00000000000E+00 -0.21383972377E+02  0.21383972377E+02  0.00000000000E+00 0. -1.
          4    1    1    2  501    0 -0.35265568051E+02 -0.32781121644E+02  0.75261012311E+02  0.89344737955E+02  0.00000000000E+00 0. -1.
         -4    1    1    2    0  502  0.35265568051E+02  0.32781121644E+02  0.26067953856E+02  0.54752172965E+02  0.00000000000E+00 0.  1.
<mgrwt>
<rscale>  2 0.48148336E+02</rscale>
<asrwt>0</asrwt>
<pdfrwt beam="1">  1       21 0.18878913E-01 0.48148336E+02</pdfrwt>
<pdfrwt beam="2">  1       21 0.32898420E-02 0.48148336E+02</pdfrwt>
<totfact> 0.12366069E+07</totfact>
</mgrwt>
</event>
<event>
 4    1  0.7151341E+004  0.3828730E+02  0.7546771E-02  0.1521207E+00
         21   -1    0    0  501  502  0.00000000000E+00  0.00000000000E+00  0.55560369534E+02  0.55560369534E+02  0.00000000000E+00 0.  1.
         21   -1    0    0  502  503 -0.00000000000E+00 -0.00000000000E+00 -0.27563318269E+02  0.27563318269E+02  0.00000000000E+00 0.  1.
          1    1    1    2  501    0 -0.19143118191E+01  0.38239414378E+02  0.22594651572E+02  0.44457121830E+02  0.00000000000E+00 0.  1.
         -1    1    1    2    0  503  0.19143118191E+01 -0.38239414378E+02  0.54023996926E+01  0.38666565973E+02  0.00000000000E+00 0. -1.
<mgrwt>
<rscale>  2 0.38287301E+02</rscale>
<asrwt>0</asrwt>
<pdfrwt beam="1">  1       21 0.85477491E-02 0.38287301E+02</pdfrwt>
<pdfrwt beam="2">  1       21 0.42405105E-02 0.38287301E+02</pdfrwt>
<totfact> 0.31125837E+07</totfact>
</mgrwt>
</event>
<event>
 4    1  0.7151341E+004  0.2143930E+02  0.7546771E-02  0.1718133E+00
         21   -1    0    0  501  502  0.00000000000E+00  0.00000000000E+00  0.20010789988E+03  0.20010789988E+03  0.00000000000E+00 0. -1.
         21   -1    0    0  502  503 -0.00000000000E+00 -0.00000000000E+00 -0.26955094092E+01  0.26955094092E+01  0.00000000000E+00 0. -1.
          1    1    1    2  501    0  0.19276949087E+02  0.93831183661E+01  0.59715994279E+02  0.63447960165E+02  0.00000000000E+00 0.  1.
         -1    1    1    2    0  503 -0.19276949087E+02 -0.93831183661E+01  0.13769639619E+03  0.13935544912E+03  0.00000000000E+00 0. -1.
<mgrwt>
<rscale>  2 0.21439302E+02</rscale>
<asrwt>0</asrwt>
<pdfrwt beam="1">  1       21 0.30785819E-01 0.21439302E+02</pdfrwt>
<pdfrwt beam="2">  1       21 0.41469391E-03 0.21439302E+02</pdfrwt>
<totfact> 0.10346292E+08</totfact>
</mgrwt>
</event>
<event>
 4    1  0.7151341E+004  0.3990361E+02  0.7546771E-02  0.1508922E+00
         21   -1    0    0  501  502  0.00000000000E+00  0.00000000000E+00  0.16387176981E+02  0.16387176981E+02  0.00000000000E+00 0.  1.
         21   -1    0    0  502  503 -0.00000000000E+00 -0.00000000000E+00 -0.10330988168E+03  0.10330988168E+03  0.00000000000E+00 0.  1.
          2    1    1    2  501    0 -0.28049553424E+02  0.28381694679E+02 -0.28867922418E+02  0.49250938924E+02  0.00000000000E+00 0. -1.
         -2    1    1    2    0  503  0.28049553424E+02 -0.28381694679E+02 -0.58054782277E+02  0.70446119733E+02  0.00000000000E+00 0.  1.
<mgrwt>
<rscale>  2 0.39903609E+02</rscale>
<asrwt>0</asrwt>
<pdfrwt beam="1">  1       21 0.25211042E-02 0.39903609E+02</pdfrwt>
<pdfrwt beam="2">  1       21 0.15893828E-01 0.39903609E+02</pdfrwt>
<totfact> 0.24894739E+07</totfact>
</mgrwt>
</event>
<event>
 4    1  0.7151341E+004  0.2369138E+02  0.7546771E-02  0.1680542E+00
         21   -1    0    0  501  502  0.00000000000E+00  0.00000000000E+00  0.10722054872E+03  0.10722054872E+03  0.00000000000E+00 0.  1.
         21   -1    0    0  502  503 -0.00000000000E+00 -0.00000000000E+00 -0.68539325832E+01  0.68539325832E+01  0.00000000000E+00 0.  1.
          2    1    1    2  501    0  0.12203449056E+02  0.20306579069E+02  0.77905387540E+02  0.81428070897E+02  0.00000000000E+00 0. -1.
         -2    1    1    2    0  503 -0.12203449056E+02 -0.20306579069E+02  0.22461228598E+02  0.32646410407E+02  0.00000000000E+00 0.  1.
<mgrwt>
<rscale>  2 0.23691377E+02</rscale>
<asrwt>0</asrwt>
<pdfrwt beam="1">  1       21 0.16495468E-01 0.23691377E+02</pdfrwt>
<pdfrwt beam="2">  1       21 0.10544512E-02 0.23691377E+02</pdfrwt>
<totfact> 0.80009959E+07</totfact>
</mgrwt>
</event>
<event>
 4    1  0.7151341E+004  0.2155768E+02  0.7546771E-02  0.1716016E+00
         21   -1    0    0  501  502  0.00000000000E+00  0.00000000000E+00  0.58936768033E+02  0.58936768033E+02  0.00000000000E+00 0.  1.
         21   -1    0    0  502  503 -0.00000000000E+00 -0.00000000000E+00 -0.82485194449E+01  0.82485194449E+01  0.00000000000E+00 0.  1.
          1    1    1    2  501    0 -0.13128048650E+02 -0.17099352258E+02  0.32393435638E+02  0.38911029046E+02  0.00000000000E+00 0. -1.
         -1    1    1    2    0  503  0.13128048650E+02  0.17099352258E+02  0.18294812950E+02  0.28274258432E+02  0.00000000000E+00 0.  1.
<mgrwt>
<rscale>  2 0.21557679E+02</rscale>
<asrwt>0</asrwt>
<pdfrwt beam="1">  1       21 0.90671948E-02 0.21557679E+02</pdfrwt>
<pdfrwt beam="2">  1       21 0.12690030E-02 0.21557679E+02</pdfrwt>
<totfact> 0.16062290E+08</totfact>
</mgrwt>
</event>
<event>
 4    1  0.7151341E+004  0.2863167E+02  0.7546771E-02  0.1613726E+00
         21   -1    0    0  503  502  0.00000000000E+00  0.00000000000E+00  0.85436866718E+00  0.85436866718E+00  0.00000000000E+00 0. -1.
         21   -1    0    0  501  503 -0.00000000000E+00 -0.00000000000E+00 -0.10079528224E+04  0.10079528224E+04  0.00000000000E+00 0. -1.
          5    1    1    2  501    0  0.19704190962E+02 -0.20772992720E+02 -0.61413215039E+03  0.61479921154E+03  0.00000000000E+00 0.  1.
         -5    1    1    2    0  502 -0.19704190962E+02  0.20772992720E+02 -0.39296630339E+03  0.39400797957E+03  0.00000000000E+00 0. -1.
<mgrwt>
<rscale>  2 0.28631667E+02</rscale>
<asrwt>0</asrwt>
<pdfrwt beam="1">  1       21 0.13144198E-03 0.28631667E+02</pdfrwt>
<pdfrwt beam="2">  1       21 0.15506890E+00 0.28631667E+02</pdfrwt>
<totfact> 0.20438227E+07</totfact>
</mgrwt>
</event>
<event>
 4    1  0.7151341E+004  0.5076119E+02  0.7546771E-02  0.1441279E+00
         21   -1    0    0  503  502  0.00000000000E+00  0.00000000000E+00  0.39488599217E+03  0.39488599217E+03  0.00000000000E+00 0. -1.
         21   -1    0    0  501  503 -0.00000000000E+00 -0.00000000000E+00 -0.67941064010E+01  0.67941064010E+01  0.00000000000E+00 0. -1.
          2    1    1    2  501    0  0.90316778266E+01 -0.49951252623E+02  0.15408757995E+03  0.16223341560E+03  0.00000000000E+00 0.  1.
         -2    1    1    2    0  502 -0.90316778266E+01  0.49951252623E+02  0.23400430581E+03  0.23944668296E+03  0.00000000000E+00 0. -1.
<mgrwt>
<rscale>  2 0.50761194E+02</rscale>
<asrwt>0</asrwt>
<pdfrwt beam="1">  1       21 0.60751673E-01 0.50761194E+02</pdfrwt>
<pdfrwt beam="2">  1       21 0.10452475E-02 0.50761194E+02</pdfrwt>
<totfact> 0.80932327E+06</totfact>
</mgrwt>
</event>
<event>
 4    1  0.7151341E+004  0.3298641E+02  0.7546771E-02  0.1567245E+00
         21   -1    0    0  503  502  0.00000000000E+00  0.00000000000E+00  0.13877840398E+01  0.13877840398E+01  0.00000000000E+00 0. -1.
         21   -1    0    0  501  503 -0.00000000000E+00 -0.00000000000E+00 -0.87226861709E+03  0.87226861709E+03  0.00000000000E+00 0. -1.
          5    1    1    2  501    0 -0.32686437315E+02  0.44384827295E+01 -0.29652650665E+03  0.29835561409E+03  0.00000000000E+00 0. -1.
         -5    1    1    2    0  502  0.32686437315E+02 -0.44384827295E+01 -0.57435432640E+03  0.57530078704E+03  0.00000000000E+00 0.  1.
<mgrwt>
<rscale>  2 0.32986411E+02</rscale>
<asrwt>0</asrwt>
<pdfrwt beam="1">  1       21 0.21350499E-03 0.32986411E+02</pdfrwt>
<pdfrwt beam="2">  1       21 0.13419533E+00 0.32986411E+02</pdfrwt>
<totfact> 0.14555689E+07</totfact>
</mgrwt>
</event>
<event>
 4    1  0.7151341E+004  0.2363224E+02  0.7546771E-02  0.1681462E+00
         21   -1    0    0  503  502  0.00000000000E+00  0.00000000000E+00  0.13446560250E+02  0.13446560250E+02  0.00000000000E+00 0. -1.
         21   -1    0    0  501  503 -0.00000000000E+00 -0.00000000000E+00 -0.60018214523E+02  0.60018214523E+02  0.00000000000E+00 0. -1.
          1    1    1    2  501    0  0.95333363658E+00 -0.23613007356E+02 -0.29006835678E+01  0.23809597362E+02  0.00000000000E+00 0.  1.
         -1    1    1    2    0  502 -0.95333363658E+00  0.23613007356E+02 -0.43670970705E+02  0.49655177411E+02  0.00000000000E+00 0. -1.
<mgrwt>
<rscale>  2 0.23632244E+02</rscale>
<asrwt>0</asrwt>
<pdfrwt beam="1">  1       21 0.20687016E-02 0.23632244E+02</pdfrwt>
<pdfrwt beam="2">  1       21 0.92335714E-02 0.23632244E+02</pdfrwt>
<totfact> 0.76070829E+07</totfact>
</mgrwt>
</event>
<event>
 4    1  0.7151341E+004  0.2631469E+02  0.7546771E-02  0.1642806E+00
         21   -1    0    0  503  502  0.00000000000E+00  0.00000000000E+00  0.64618455240E+02  0.64618455240E+02  0.00000000000E+00 0. -1.
         21   -1    0    0  501  503 -0.00000000000E+00 -0.00000000000E+00 -0.19407882456E+02  0.19407882456E+02  0.00000000000E+00 0. -1.
          5    1    1    2  501    0 -0.25961515472E+02 -0.42968286111E+01  0.50720978510E+02  0.57140884511E+02  0.00000000000E+00 0.  1.
         -5    1    1    2    0  502  0.25961515472E+02  0.42968286111E+01 -0.55104057261E+01  0.26885453185E+02  0.00000000000E+00 0. -1.
<mgrwt>
<rscale>  2 0.26314692E+02</rscale>
<asrwt>0</asrwt>
<pdfrwt beam="1">  1       21 0.99413007E-02 0.26314692E+02</pdfrwt>
<pdfrwt beam="2">  1       21 0.29858281E-02 0.26314692E+02</pdfrwt>
<totfact> 0.39127380E+07</totfact>
</mgrwt>
</event>
<event>
 4    1  0.7151341E+004  0.2264084E+02  0.7546771E-02  0.1697399E+00
         21   -1    0    0  503  502  0.00000000000E+00  0.00000000000E+00  0.54106888050E+01  0.54106888050E+01  0.00000000000E+00 0. -1.
         21   -1    0    0  501  503 -0.00000000000E+00 -0.00000000000E+00 -0.94739794350E+02  0.94739794350E+02  0.00000000000E+00 0. -1.
          2    1    1    2  501    0  0.16653841791E+02  0.15338092417E+02 -0.44654838956E+02  0.50066577350E+02  0.00000000000E+00 0.  1.
         -2    1    1    2    0  502 -0.16653841791E+02 -0.15338092417E+02 -0.44674266589E+02  0.50083905805E+02  0.00000000000E+00 0. -1.
<mgrwt>
<rscale>  2 0.22640838E+02</rscale>
<asrwt>0</asrwt>
<pdfrwt beam="1">  1       21 0.83241371E-03 0.22640838E+02</pdfrwt>
<pdfrwt beam="2">  1       21 0.14575352E-01 0.22640838E+02</pdfrwt>
<totfact> 0.13911159E+08</totfact>
</mgrwt>
</event>
<event>
 4    1  0.7151341E+004  0.2187439E+02  0.7546771E-02  0.1710433E+00
         21   -1    0    0  501  502  0.00000000000E+00  0.00000000000E+00  0.17097440483E+02  0.17097440483E+02  0.00000000000E+00 0.  1.
         21   -1    0    0  502  503 -0.00000000000E+00 -0.00000000000E+00 -0.30018572884E+02  0.30018572884E+02  0.00000000000E+00 0.  1.
          4    1    1    2  501    0 -0.18277307050E+02  0.12017869791E+02 -0.33049566726E+00  0.21876891340E+02  0.00000000000E+00 0.  1.
         -4    1    1    2    0  503  0.18277307050E+02 -0.12017869791E+02 -0.12590636734E+02  0.25239122027E+02  0.00000000000E+00 0. -1.
<mgrwt>
<rscale>  2 0.21874395E+02</rscale>
<asrwt>0</asrwt>
<pdfrwt beam="1">  1       21 0.26303755E-02 0.21874395E+02</pdfrwt>
<pdfrwt beam="2">  1       21 0.46182419E-02 0.21874395E+02</pdfrwt>
<totfact> 0.15705411E+08</totfact>
</mgrwt>
</event>
<event>
 4    1  0.7151341E+004  0.2879078E+02  0.7546771E-02  0.1611853E+00
         21   -1    0    0  503  502  0.00000000000E+00  0.00000000000E+00  0.15011997042E+03  0.15011997042E+03  0.00000000000E+00 0. -1.
         21   -1    0    0  501  503 -0.00000000000E+00 -0.00000000000E+00 -0.55311852204E+01  0.55311852204E+01  0.00000000000E+00 0. -1.
          2    1    1    2  501    0 -0.22887444703E+02  0.17466360817E+02  0.69061898308E+02  0.74822821940E+02  0.00000000000E+00 0.  1.
         -2    1    1    2    0  502  0.22887444703E+02 -0.17466360817E+02  0.75526886896E+02  0.80828333705E+02  0.00000000000E+00 0. -1.
<mgrwt>
<rscale>  2 0.28790778E+02</rscale>
<asrwt>0</asrwt>
<pdfrwt beam="1">  1       21 0.23095377E-01 0.28790778E+02</pdfrwt>
<pdfrwt beam="2">  1       21 0.85095169E-03 0.28790778E+02</pdfrwt>
<totfact> 0.64311228E+07</totfact>
</mgrwt>
</event>
<event>
 4    1  0.7151341E+004  0.2825433E+02  0.7546771E-02  0.1618227E+00
         21   -1    0    0  501  502  0.00000000000E+00  0.00000000000E+00  0.26760050175E+03  0.26760050175E+03  0.00000000000E+00 0.  1.
         21   -1    0    0  502  503 -0.00000000000E+00 -0.00000000000E+00 -0.29877055556E+01  0.29877055556E+01  0.00000000000E+00 0.  1.
          2    1    1    2  501    0 -0.27329749509E+01  0.28121841230E+02  0.13755751639E+03  0.14042926127E+03  0.00000000000E+00 0.  1.
         -2    1    1    2    0  503  0.27329749509E+01 -0.28121841230E+02  0.12705527981E+03  0.13015894604E+03  0.00000000000E+00 0. -1.
<mgrwt>
<rscale>  2 0.28254329E+02</rscale>
<asrwt>0</asrwt>
<pdfrwt beam="1">  1       21 0.41169289E-01 0.28254329E+02</pdfrwt>
<pdfrwt beam="2">  1       21 0.45964722E-03 0.28254329E+02</pdfrwt>
<totfact> 0.55385200E+07</totfact>
</mgrwt>
</event>
<event>
 4    1  0.7151341E+004  0.2276405E+02  0.7546771E-02  0.1695364E+00
         21   -1    0    0  501  502  0.00000000000E+00  0.00000000000E+00  0.14113163355E+02  0.14113163355E+02  0.00000000000E+00 0.  1.
         21   -1    0    0  502  503 -0.00000000000E+00 -0.00000000000E+00 -0.82239095707E+02  0.82239095707E+02  0.00000000000E+00 0.  1.
          2    1    1    2  501    0 -0.12132818893E+02 -0.19261275867E+02 -0.69905674378E+02  0.73518741505E+02  0.00000000000E+00 0.  1.
         -2    1    1    2    0  503  0.12132818893E+02  0.19261275867E+02  0.17797420253E+01  0.22833517556E+02  0.00000000000E+00 0. -1.
<mgrwt>
<rscale>  2 0.22764052E+02</rscale>
<asrwt>0</asrwt>
<pdfrwt beam="1">  1       21 0.21712558E-02 0.22764052E+02</pdfrwt>
<pdfrwt beam="2">  1       21 0.12652169E-01 0.22764052E+02</pdfrwt>
<totfact> 0.41408552E+07</totfact>
</mgrwt>
</event>
<event>
 4    1  0.7151341E+004  0.3181265E+02  0.7546771E-02  0.1578875E+00
         21   -1    0    0  503  502  0.00000000000E+00  0.00000000000E+00  0.17757799164E+03  0.17757799164E+03  0.00000000000E+00 0. -1.
         21   -1    0    0  501  503 -0.00000000000E+00 -0.00000000000E+00 -0.66411194480E+01  0.66411194480E+01  0.00000000000E+00 0. -1.
          4    1    1    2  501    0 -0.31487769757E+02 -0.45348471089E+01  0.50778674271E+02  0.59920933264E+02  0.00000000000E+00 0.  1.
         -4    1    1    2    0  502  0.31487769757E+02  0.45348471089E+01  0.12015819792E+03  0.12429817782E+03  0.00000000000E+00 0. -1.
<mgrwt>
<rscale>  2 0.31812647E+02</rscale>
<asrwt>0</asrwt>
<pdfrwt beam="1">  1       21 0.27319687E-01 0.31812647E+02</pdfrwt>
<pdfrwt beam="2">  1       21 0.10217108E-02 0.31812647E+02</pdfrwt>
<totfact> 0.36776520E+07</totfact>
</mgrwt>
</event>
<event>
 4    1  0.7151341E+004  0.2473400E+02  0.7546771E-02  0.1664852E+00
         21   -1    0    0  503  502  0.00000000000E+00  0.00000000000E+00  0.33473909127E+02  0.33473909127E+02  0.00000000000E+00 0. -1.
         21   -1    0    0  501  503 -0.00000000000E+00 -0.00000000000E+00 -0.28525093882E+02  0.28525093882E+02  0.00000000000E+00 0. -1.
          4    1    1    2  501    0 -0.10834981622E+02 -0.22234524160E+02 -0.16107179704E+02  0.29516302773E+02  0.00000000000E+00 0. -1.
         -4    1    1    2    0  502  0.10834981622E+02  0.22234524160E+02  0.21055994949E+02  0.32482700237E+02  0.00000000000E+00 0.  1.
<mgrwt>
<rscale>  2 0.24734003E+02</rscale>
<asrwt>0</asrwt>
<pdfrwt beam="1">  1       21 0.51498322E-02 0.24734003E+02</pdfrwt>
<pdfrwt beam="2">  1       21 0.43884759E-02 0.24734003E+02</pdfrwt>
<totfact> 0.61363242E+07</totfact>
</mgrwt>
</event>
<event>
 4    1  0.7151341E+004  0.2015989E+02  0.7546771E-02  0.1742167E+00
         21   -1    0    0  503  502  0.00000000000E+00  0.00000000000E+00  0.25032080330E+03  0.25032080330E+03  0.00000000000E+00 0.  1.
         21   -1    0    0  501  503 -0.00000000000E+00 -0.00000000000E+00 -0.16916493651E+01  0.16916493651E+01  0.00000000000E+00 0.  1.
          3    1    1    2  501    0 -0.18394484070E+02  0.82500933328E+01  0.14958694650E+03  0.15093931114E+03  0.00000000000E+00 0. -1.
         -3    1    1    2    0  502  0.18394484070E+02 -0.82500933328E+01  0.99042207439E+02  0.10107314153E+03  0.00000000000E+00 0.  1.
<mgrwt>
<rscale>  2 0.20159888E+02</rscale>
<asrwt>0</asrwt>
<pdfrwt beam="1">  1       21 0.38510863E-01 0.20159888E+02</pdfrwt>
<pdfrwt beam="2">  1       21 0.26025395E-03 0.20159888E+02</pdfrwt>
<totfact> 0.13265044E+08</totfact>
</mgrwt>
</event>
<event>
 4    1  0.7151341E+004  0.2573226E+02  0.7546771E-02  0.1650702E+00
         21   -1    0    0  501  502  0.00000000000E+00  0.00000000000E+00  0.44358212164E+00  0.44358212164E+00  0.00000000000E+00 0.  1.
         21   -1    0    0  502  503 -0.00000000000E+00 -0.00000000000E+00 -0.15317714536E+04  0.15317714536E+04  0.00000000000E+00 0.  1.
          5    1    1    2  501    0  0.25726771389E+02  0.53140688350E+00 -0.64335858448E+03  0.64387298234E+03  0.00000000000E+00 0. -1.
         -5    1    1    2    0  503 -0.25726771389E+02 -0.53140688350E+00 -0.88796928703E+03  0.88834205342E+03  0.00000000000E+00 0.  1.
<mgrwt>
<rscale>  2 0.25732259E+02</rscale>
<asrwt>0</asrwt>
<pdfrwt beam="1">  1       21 0.68242770E-04 0.25732259E+02</pdfrwt>
<pdfrwt beam="2">  1       21 0.23565934E+00 0.25732259E+02</pdfrwt>
<totfact> 0.17479755E+07</totfact>
</mgrwt>
</event>
<event>
 4    1  0.7151341E+004  0.2124082E+02  0.7546771E-02  0.1721722E+00
         21   -1    0    0  501  502  0.00000000000E+00  0.00000000000E+00  0.47517646652E+01  0.47517646652E+01  0.00000000000E+00 0.  1.
         21   -1    0    0  502  503 -0.00000000000E+00 -0.00000000000E+00 -0.11409716078E+03  0.11409716078E+03  0.00000000000E+00 0.  1.
          5    1    1    2  501    0  0.20922817062E+02 -0.36617108990E+01 -0.30328341230E+02  0.37026756303E+02  0.00000000000E+00 0.  1.
         -5    1    1    2    0  503 -0.20922817062E+02  0.36617108990E+01 -0.79017054883E+02  0.81822169140E+02  0.00000000000E+00 0. -1.
<mgrwt>
<rscale>  2 0.21240819E+02</rscale>
<asrwt>0</asrwt>
<pdfrwt beam="1">  1       21 0.73104076E-03 0.21240819E+02</pdfrwt>
<pdfrwt beam="2">  1       21 0.17553408E-01 0.21240819E+02</pdfrwt>
<totfact> 0.12060392E+08</totfact>
</mgrwt>
</event>
<event>
 4    1  0.7151341E+004  0.2034016E+02  0.7546771E-02  0.1738647E+00
         21   -1    0    0  503  502  0.00000000000E+00  0.00000000000E+00  0.48172560093E+02  0.48172560093E+02  0.00000000000E+00 0.  1.
         21   -1    0    0  501  503 -0.00000000000E+00 -0.00000000000E+00 -0.87272327374E+01  0.87272327374E+01  0.00000000000E+00 0.  1.
          1    1    1    2  501    0 -0.17770504311E+02 -0.98960283342E+01  0.23311769137E+02  0.30938015136E+02  0.00000000000E+00 0.  1.
         -1    1    1    2    0  502  0.17770504311E+02  0.98960283342E+01  0.16133558219E+02  0.25961777695E+02  0.00000000000E+00 0. -1.
<mgrwt>
<rscale>  2 0.20340162E+02</rscale>
<asrwt>0</asrwt>
<pdfrwt beam="1">  1       21 0.74111629E-02 0.20340162E+02</pdfrwt>
<pdfrwt beam="2">  1       21 0.13426512E-02 0.20340162E+02</pdfrwt>
<totfact> 0.20113124E+08</totfact>
</mgrwt>
</event>
<event>
 4    1  0.7151341E+004  0.3127625E+02  0.7546771E-02  0.1584395E+00
         21   -1    0    0  501  502  0.00000000000E+00  0.00000000000E+00  0.39759259945E+02  0.39759259945E+02  0.00000000000E+00 0.  1.
         21   -1    0    0  502  503 -0.00000000000E+00 -0.00000000000E+00 -0.28617062237E+02  0.28617062237E+02  0.00000000000E+00 0.  1.
          5    1    1    2  501    0  0.39203344179E+01  0.31029581084E+02  0.18375107120E+02  0.36274625923E+02  0.00000000000E+00 0.  1.
         -5    1    1    2    0  503 -0.39203344179E+01 -0.31029581084E+02 -0.72329094117E+01  0.32101696260E+02  0.00000000000E+00 0. -1.
<mgrwt>
<rscale>  2 0.31276252E+02</rscale>
<asrwt>0</asrwt>
<pdfrwt beam="1">  1       21 0.61168092E-02 0.31276252E+02</pdfrwt>
<pdfrwt beam="2">  1       21 0.44026249E-02 0.31276252E+02</pdfrwt>
<totfact> 0.48876317E+07</totfact>
</mgrwt>
</event>
<event>
 4    1  0.7151341E+004  0.2249171E+02  0.7546771E-02  0.1699884E+00
         21   -1    0    0  503  502  0.00000000000E+00  0.00000000000E+00  0.27786815410E+01  0.27786815410E+01  0.00000000000E+00 0. -1.
         21   -1    0    0  501  503 -0.00000000000E+00 -0.00000000000E+00 -0.18299794677E+03  0.18299794677E+03  0.00000000000E+00 0. -1.
          2    1    1    2  501    0 -0.22490356233E+02 -0.24681817179E+00 -0.96772103086E+02  0.99351482014E+02  0.00000000000E+00 0.  1.
         -2    1    1    2    0  502  0.22490356233E+02  0.24681817179E+00 -0.83447162142E+02  0.86425146296E+02  0.00000000000E+00 0. -1.
<mgrwt>
<rscale>  2 0.22491711E+02</rscale>
<asrwt>0</asrwt>
<pdfrwt beam="1">  1       21 0.42748961E-03 0.22491711E+02</pdfrwt>
<pdfrwt beam="2">  1       21 0.28153521E-01 0.22491711E+02</pdfrwt>
<totfact> 0.11789988E+08</totfact>
</mgrwt>
</event>
<event>
 4    1  0.7151341E+004  0.2109614E+02  0.7546771E-02  0.1724369E+00
         21   -1    0    0  503  502  0.00000000000E+00  0.00000000000E+00  0.89842986499E+01  0.89842986499E+01  0.00000000000E+00 0.  1.
         21   -1    0    0  501  503 -0.00000000000E+00 -0.00000000000E+00 -0.57577444229E+02  0.57577444229E+02  0.00000000000E+00 0.  1.
          5    1    1    2  501    0  0.19473111413E+02 -0.81145010917E+01 -0.36734058220E+02  0.42360810065E+02  0.00000000000E+00 0. -1.
         -5    1    1    2    0  502 -0.19473111413E+02  0.81145010917E+01 -0.11859087360E+02  0.24200932814E+02  0.00000000000E+00 0.  1.
<mgrwt>
<rscale>  2 0.21096142E+02</rscale>
<asrwt>0</asrwt>
<pdfrwt beam="1">  1       21 0.13821998E-02 0.21096142E+02</pdfrwt>
<pdfrwt beam="2">  1       21 0.88580685E-02 0.21096142E+02</pdfrwt>
<totfact> 0.14571094E+08</totfact>
</mgrwt>
</event>
<event>
 4    1  0.7151341E+004  0.4206344E+02  0.7546771E-02  0.1493553E+00
         21   -1    0    0  503  502  0.00000000000E+00  0.00000000000E+00  0.25145422232E+03  0.25145422232E+03  0.00000000000E+00 0.  1.
         21   -1    0    0  501  503 -0.00000000000E+00 -0.00000000000E+00 -0.71676207042E+01  0.71676207042E+01  0.00000000000E+00 0.  1.
          4    1    1    2  501    0  0.26849333975E+02  0.32379723752E+02  0.10464709369E+03  0.11278451784E+03  0.00000000000E+00 0. -1.
         -4    1    1    2    0  502 -0.26849333975E+02 -0.32379723752E+02  0.13963950793E+03  0.14583732519E+03  0.00000000000E+00 0.  1.
<mgrwt>
<rscale>  2 0.42063443E+02</rscale>
<asrwt>0</asrwt>
<pdfrwt beam="1">  1       21 0.38685258E-01 0.42063443E+02</pdfrwt>
<pdfrwt beam="2">  1       21 0.11027111E-02 0.42063443E+02</pdfrwt>
<totfact> 0.17892896E+07</totfact>
</mgrwt>
</event>
<event>
 4    1  0.7151341E+004  0.3174760E+02  0.7546771E-02  0.1579538E+00
         21   -1    0    0  501  502  0.00000000000E+00  0.00000000000E+00  0.11170141475E+02  0.11170141475E+02  0.00000000000E+00 0.  1.
         21   -1    0    0  502  503 -0.00000000000E+00 -0.00000000000E+00 -0.90241243295E+02  0.90241243295E+02  0.00000000000E+00 0.  1.
          4    1    1    2  501    0  0.55001493198E+01  0.31267527027E+02 -0.39036697425E+02  0.50316733149E+02  0.00000000000E+00 0.  1.
         -4    1    1    2    0  503 -0.55001493198E+01 -0.31267527027E+02 -0.40034404395E+02  0.51094651620E+02  0.00000000000E+00 0. -1.
<mgrwt>
<rscale>  2 0.31747597E+02</rscale>
<asrwt>0</asrwt>
<pdfrwt beam="1">  1       21 0.17184834E-02 0.31747597E+02</pdfrwt>
<pdfrwt beam="2">  1       21 0.13883268E-01 0.31747597E+02</pdfrwt>
<totfact> 0.54777451E+07</totfact>
</mgrwt>
</event>
<event>
 4    1  0.7151341E+004  0.2512892E+02  0.7546771E-02  0.1659157E+00
         21   -1    0    0  503  502  0.00000000000E+00  0.00000000000E+00  0.38986514423E+02  0.38986514423E+02  0.00000000000E+00 0.  1.
         21   -1    0    0  501  503 -0.00000000000E+00 -0.00000000000E+00 -0.17191505476E+02  0.17191505476E+02  0.00000000000E+00 0.  1.
          2    1    1    2  501    0  0.22158485760E+02 -0.11851755657E+02  0.41414350501E+01  0.25467903086E+02  0.00000000000E+00 0. -1.
         -2    1    1    2    0  502 -0.22158485760E+02  0.11851755657E+02  0.17653573897E+02  0.30710116813E+02  0.00000000000E+00 0.  1.
<mgrwt>
<rscale>  2 0.25128920E+02</rscale>
<asrwt>0</asrwt>
<pdfrwt beam="1">  1       21 0.59979253E-02 0.25128920E+02</pdfrwt>
<pdfrwt beam="2">  1       21 0.26448470E-02 0.25128920E+02</pdfrwt>
<totfact> 0.10683996E+08</totfact>
</mgrwt>
</event>
<event>
 4    1  0.7151341E+004  0.3094982E+02  0.7546771E-02  0.1587821E+00
         21   -1    0    0  501  502  0.00000000000E+00  0.00000000000E+00  0.12461743227E+02  0.12461743227E+02  0.00000000000E+00 0. -1.
         21   -1    0    0  502  503 -0.00000000000E+00 -0.00000000000E+00 -0.79235190212E+02  0.79235190212E+02  0.00000000000E+00 0. -1.
          3    1    1    2  501    0 -0.58251130625E+01 -0.30396702962E+02 -0.25459643854E+02  0.40075989798E+02  0.00000000000E+00 0. -1.
         -3    1    1    2    0  503  0.58251130625E+01  0.30396702962E+02 -0.41313803131E+02  0.51620943640E+02  0.00000000000E+00 0.  1.
<mgrwt>
<rscale>  2 0.30949822E+02</rscale>
<asrwt>0</asrwt>
<pdfrwt beam="1">  1       21 0.19171912E-02 0.30949822E+02</pdfrwt>
<pdfrwt beam="2">  1       21 0.12190029E-01 0.30949822E+02</pdfrwt>
<totfact> 0.57422250E+07</totfact>
</mgrwt>
</event>
<event>
 4    1  0.7151341E+004  0.2522868E+02  0.7546771E-02  0.1657739E+00
         21   -1    0    0  501  502  0.00000000000E+00  0.00000000000E+00  0.12762230151E+02  0.12762230151E+02  0.00000000000E+00 0. -1.
         21   -1    0    0  502  503 -0.00000000000E+00 -0.00000000000E+00 -0.83360620274E+02  0.83360620274E+02  0.00000000000E+00 0. -1.
          2    1    1    2  501    0  0.24993546505E+02 -0.34364169216E+01 -0.48370457031E+01  0.25688194551E+02  0.00000000000E+00 0.  1.
         -2    1    1    2    0  503 -0.24993546505E+02  0.34364169216E+01 -0.65761344419E+02  0.70434655874E+02  0.00000000000E+00 0. -1.
<mgrwt>
<rscale>  2 0.25228681E+02</rscale>
<asrwt>0</asrwt>
<pdfrwt beam="1">  1       21 0.19634200E-02 0.25228681E+02</pdfrwt>
<pdfrwt beam="2">  1       21 0.12824711E-01 0.25228681E+02</pdfrwt>
<totfact> 0.48460065E+07</totfact>
</mgrwt>
</event>
<event>
 4    1  0.7151341E+004  0.2135047E+02  0.7546771E-02  0.1719734E+00
         21   -1    0    0  501  502  0.00000000000E+00  0.00000000000E+00  0.25379223692E+01  0.25379223692E+01  0.00000000000E+00 0. -1.
         21   -1    0    0  502  503 -0.00000000000E+00 -0.00000000000E+00 -0.23163426686E+03  0.23163426686E+03  0.00000000000E+00 0. -1.
          1    1    1    2  501    0  0.39523331313E+01 -0.20981460332E+02 -0.59060512131E+02  0.62801168047E+02  0.00000000000E+00 0.  1.
         -1    1    1    2    0  503 -0.39523331313E+01  0.20981460332E+02 -0.17003583236E+03  0.17137102119E+03  0.00000000000E+00 0. -1.
<mgrwt>
<rscale>  2 0.21350471E+02</rscale>
<asrwt>0</asrwt>
<pdfrwt beam="1">  1       21 0.39044960E-03 0.21350471E+02</pdfrwt>
<pdfrwt beam="2">  1       21 0.35636041E-01 0.21350471E+02</pdfrwt>
<totfact> 0.86305812E+07</totfact>
</mgrwt>
</event>
<event>
 4    1  0.7151341E+004  0.2107547E+02  0.7546771E-02  0.1724750E+00
         21   -1    0    0  503  502  0.00000000000E+00  0.00000000000E+00  0.59004471580E+02  0.59004471580E+02  0.00000000000E+00 0. -1.
         21   -1    0    0  501  503 -0.00000000000E+00 -0.00000000000E+00 -0.75318854296E+01  0.75318854296E+01  0.00000000000E+00 0. -1.
          3    1    1    2  501    0  0.15906823025E+02  0.13825641391E+02  0.24963924167E+02  0.32670673217E+02  0.00000000000E+00 0. -1.
         -3    1    1    2    0  502 -0.15906823025E+02 -0.13825641391E+02  0.26508661984E+02  0.33865683793E+02  0.00000000000E+00 0.  1.
<mgrwt>
<rscale>  2 0.21075469E+02</rscale>
<asrwt>0</asrwt>
<pdfrwt beam="1">  1       21 0.90776107E-02 0.21075469E+02</pdfrwt>
<pdfrwt beam="2">  1       21 0.11587516E-02 0.21075469E+02</pdfrwt>
<totfact> 0.18255324E+08</totfact>
</mgrwt>
</event>
<event>
 4    1  0.7151341E+004  0.6031111E+02  0.7546771E-02  0.1396531E+00
         21   -1    0    0  501  502  0.00000000000E+00  0.00000000000E+00  0.37018345311E+02  0.37018345311E+02  0.00000000000E+00 0. -1.
         21   -1    0    0  502  503 -0.00000000000E+00 -0.00000000000E+00 -0.98275434386E+02  0.98275434386E+02  0.00000000000E+00 0. -1.
          5    1    1    2  501    0 -0.42357655404E+01  0.60162185826E+02 -0.29786524101E+02  0.67265647481E+02  0.00000000000E+00 0. -1.
         -5    1    1    2    0  503  0.42357655404E+01 -0.60162185826E+02 -0.31470564974E+02  0.68028132216E+02  0.00000000000E+00 0.  1.
<mgrwt>
<rscale>  2 0.60311113E+02</rscale>
<asrwt>0</asrwt>
<pdfrwt beam="1">  1       21 0.56951301E-02 0.60311113E+02</pdfrwt>
<pdfrwt beam="2">  1       21 0.15119298E-01 0.60311113E+02</pdfrwt>
<totfact> 0.76948707E+06</totfact>
</mgrwt>
</event>
<event>
 4    1  0.7151341E+004  0.2027067E+02  0.7546771E-02  0.1739998E+00
         21   -1    0    0  501  502  0.00000000000E+00  0.00000000000E+00  0.70214784141E+00  0.70214784141E+00  0.00000000000E+00 0.  1.
         21   -1    0    0  502  503 -0.00000000000E+00 -0.00000000000E+00 -0.61687169733E+03  0.61687169733E+03  0.00000000000E+00 0.  1.
          4    1    1    2  501    0  0.19894744850E+02 -0.38857612029E+01 -0.23812201809E+03  0.23898325362E+03  0.00000000000E+00 0.  1.
         -4    1    1    2    0  503 -0.19894744850E+02  0.38857612029E+01 -0.37804753140E+03  0.37859059155E+03  0.00000000000E+00 0. -1.
<mgrwt>
<rscale>  2 0.20270669E+02</rscale>
<asrwt>0</asrwt>
<pdfrwt beam="1">  1       21 0.10802253E-03 0.20270669E+02</pdfrwt>
<pdfrwt beam="2">  1       21 0.94903526E-01 0.20270669E+02</pdfrwt>
<totfact> 0.77382185E+07</totfact>
</mgrwt>
</event>
<event>
 4    1  0.7151341E+004  0.2061747E+02  0.7546771E-02  0.1733320E+00
         21   -1    0    0  501  502  0.00000000000E+00  0.00000000000E+00  0.19790060752E+01  0.19790060752E+01  0.00000000000E+00 0. -1.
         21   -1    0    0  502  503 -0.00000000000E+00 -0.00000000000E+00 -0.22940018281E+03  0.22940018281E+03  0.00000000000E+00 0. -1.
          3    1    1    2  501    0  0.20468132500E+02 -0.24770499899E+01 -0.84519263132E+02  0.86997621032E+02  0.00000000000E+00 0. -1.
         -3    1    1    2    0  503 -0.20468132500E+02  0.24770499899E+01 -0.14290191360E+03  0.14438156785E+03  0.00000000000E+00 0.  1.
<mgrwt>
<rscale>  2 0.20617474E+02</rscale>
<asrwt>0</asrwt>
<pdfrwt beam="1">  1       21 0.30446264E-03 0.20617474E+02</pdfrwt>
<pdfrwt beam="2">  1       21 0.35292317E-01 0.20617474E+02</pdfrwt>
<totfact> 0.12504413E+08</totfact>
</mgrwt>
</event>
<event>
 4    1  0.7151341E+004  0.2815659E+02  0.7546771E-02  0.1619407E+00
         21   -1    0    0  501  502  0.00000000000E+00  0.00000000000E+00  0.19050901201E+03  0.19050901201E+03  0.00000000000E+00 0.  1.
         21   -1    0    0  502  503 -0.00000000000E+00 -0.00000000000E+00 -0.41967384002E+01  0.41967384002E+01  0.00000000000E+00 0.  1.
          1    1    1    2  501    0  0.28152024157E+02 -0.50713710437E+00  0.84229018950E+02  0.88810592192E+02  0.00000000000E+00 0. -1.
         -1    1    1    2    0  503 -0.28152024157E+02  0.50713710437E+00  0.10208325466E+03  0.10589515822E+03  0.00000000000E+00 0.  1.
<mgrwt>
<rscale>  2 0.28156592E+02</rscale>
<asrwt>0</asrwt>
<pdfrwt beam="1">  1       21 0.29309072E-01 0.28156592E+02</pdfrwt>
<pdfrwt beam="2">  1       21 0.64565221E-03 0.28156592E+02</pdfrwt>
<totfact> 0.62952614E+07</totfact>
</mgrwt>
</event>
<event>
 4    1  0.7151341E+004  0.2482125E+02  0.7546771E-02  0.1663583E+00
         21   -1    0    0  501  502  0.00000000000E+00  0.00000000000E+00  0.38053783421E+03  0.38053783421E+03  0.00000000000E+00 0.  1.
         21   -1    0    0  502  503 -0.00000000000E+00 -0.00000000000E+00 -0.17319103470E+01  0.17319103470E+01  0.00000000000E+00 0.  1.
          5    1    1    2  501    0  0.10919567768E+02 -0.22290295128E+02  0.14060220106E+03  0.14277630462E+03  0.00000000000E+00 0.  1.
         -5    1    1    2    0  503 -0.10919567768E+02  0.22290295128E+02  0.23820372281E+03  0.23949343995E+03  0.00000000000E+00 0. -1.
<mgrwt>
<rscale>  2 0.24821245E+02</rscale>
<asrwt>0</asrwt>
<pdfrwt beam="1">  1       21 0.58544216E-01 0.24821245E+02</pdfrwt>
<pdfrwt beam="2">  1       21 0.26644805E-03 0.24821245E+02</pdfrwt>
<totfact> 0.60330120E+07</totfact>
</mgrwt>
</event>
<event>
 4    1  0.7151341E+004  0.2590748E+02  0.7546771E-02  0.1648299E+00
         21   -1    0    0  501  502  0.00000000000E+00  0.00000000000E+00  0.11146056586E+02  0.11146056586E+02  0.00000000000E+00 0. -1.
         21   -1    0    0  502  503 -0.00000000000E+00 -0.00000000000E+00 -0.13388501073E+03  0.13388501073E+03  0.00000000000E+00 0. -1.
          2    1    1    2  501    0  0.18418130538E+02 -0.18220046423E+02 -0.11515933926E+03  0.11803758318E+03  0.00000000000E+00 0.  1.
         -2    1    1    2    0  503 -0.18418130538E+02  0.18220046423E+02 -0.75796148899E+01  0.26993484141E+02  0.00000000000E+00 0. -1.
<mgrwt>
<rscale>  2 0.25907482E+02</rscale>
<asrwt>0</asrwt>
<pdfrwt beam="1">  1       21 0.17147779E-02 0.25907482E+02</pdfrwt>
<pdfrwt beam="2">  1       21 0.20597695E-01 0.25907482E+02</pdfrwt>
<totfact> 0.26539992E+07</totfact>
</mgrwt>
</event>
<event>
 4    1  0.7151341E+004  0.2208324E+02  0.7546771E-02  0.1706816E+00
         21   -1    0    0  503  502  0.00000000000E+00  0.00000000000E+00  0.83223757216E+02  0.83223757216E+02  0.00000000000E+00 0. -1.
         21   -1    0    0  501  503 -0.00000000000E+00 -0.00000000000E+00 -0.59581715161E+01  0.59581715161E+01  0.00000000000E+00 0. -1.
          4    1    1    2  501    0 -0.82240600817E+01  0.20494740001E+02  0.44364166234E+02  0.49556521039E+02  0.00000000000E+00 0.  1.
         -4    1    1    2    0  502  0.82240600817E+01 -0.20494740001E+02  0.32901419467E+02  0.39625407693E+02  0.00000000000E+00 0. -1.
<mgrwt>
<rscale>  2 0.22083241E+02</rscale>
<asrwt>0</asrwt>
<pdfrwt beam="1">  1       21 0.12803654E-01 0.22083241E+02</pdfrwt>
<pdfrwt beam="2">  1       21 0.91664183E-03 0.22083241E+02</pdfrwt>
<totfact> 0.14880550E+08</totfact>
</mgrwt>
</event>
<event>
 4    1  0.7151341E+004  0.2163985E+02  0.7546771E-02  0.1714556E+00
         21   -1    0    0  501  502  0.00000000000E+00  0.00000000000E+00  0.21730331826E+04  0.21730331826E+04  0.00000000000E+00 0. -1.
         21   -1    0    0  502  503 -0.00000000000E+00 -0.00000000000E+00 -0.27825763168E+00  0.27825763168E+00  0.00000000000E+00 0. -1.
          5    1    1    2  501    0  0.18382519275E+02  0.11417801985E+02  0.57030539521E+03  0.57071580232E+03  0.00000000000E+00 0.  1.
         -5    1    1    2    0  503 -0.18382519275E+02 -0.11417801985E+02  0.16024495298E+04  0.16025956379E+04  0.00000000000E+00 0. -1.
<mgrwt>
<rscale>  2 0.21639853E+02</rscale>
<asrwt>0</asrwt>
<pdfrwt beam="1">  1       21 0.33429921E+00 0.21639853E+02</pdfrwt>
<pdfrwt beam="2">  1       21 0.42810607E-04 0.21639853E+02</pdfrwt>
<totfact> 0.10991471E+07</totfact>
</mgrwt>
</event>
<event>
 4    1  0.7151341E+004  0.2126176E+02  0.7546771E-02  0.1721341E+00
         21   -1    0    0  501  502  0.00000000000E+00  0.00000000000E+00  0.13224572060E+02  0.13224572060E+02  0.00000000000E+00 0.  1.
         21   -1    0    0  502  503 -0.00000000000E+00 -0.00000000000E+00 -0.48682494494E+02  0.48682494494E+02  0.00000000000E+00 0.  1.
          3    1    1    2  501    0 -0.15781486877E+02  0.14248050022E+02 -0.34621411491E+02  0.40628861553E+02  0.00000000000E+00 0. -1.
         -3    1    1    2    0  503  0.15781486877E+02 -0.14248050022E+02 -0.83651094284E+00  0.21278205001E+02  0.00000000000E+00 0.  1.
<mgrwt>
<rscale>  2 0.21261756E+02</rscale>
<asrwt>0</asrwt>
<pdfrwt beam="1">  1       21 0.20345496E-02 0.21261756E+02</pdfrwt>
<pdfrwt beam="2">  1       21 0.74896145E-02 0.21261756E+02</pdfrwt>
<totfact> 0.10660897E+08</totfact>
</mgrwt>
</event>
<event>
 4    1  0.7151341E+004  0.2199615E+02  0.7546771E-02  0.1708319E+00
         21   -1    0    0  503  502  0.00000000000E+00  0.00000000000E+00  0.21884033857E+04  0.21884033857E+04  0.00000000000E+00 0.  1.
         21   -1    0    0  501  503 -0.00000000000E+00 -0.00000000000E+00 -0.22690913249E+00  0.22690913249E+00  0.00000000000E+00 0.  1.
          3    1    1    2  501    0 -0.92251594700E+01 -0.19968153101E+02  0.12693565877E+04  0.12695471545E+04  0.00000000000E+00 0. -1.
         -3    1    1    2    0  502  0.92251594700E+01  0.19968153101E+02  0.91881988884E+03  0.91908314032E+03  0.00000000000E+00 0.  1.
<mgrwt>
<rscale>  2 0.21996152E+02</rscale>
<asrwt>0</asrwt>
<pdfrwt beam="1">  1       21 0.33666054E+00 0.21996152E+02</pdfrwt>
<pdfrwt beam="2">  1       21 0.34910850E-04 0.21996152E+02</pdfrwt>
<totfact> 0.14248545E+07</totfact>
</mgrwt>
</event>
<event>
 4    1  0.7151341E+004  0.2529881E+02  0.7546771E-02  0.1656747E+00
         21   -1    0    0  503  502  0.00000000000E+00  0.00000000000E+00  0.12875432866E+03  0.12875432866E+03  0.00000000000E+00 0.  1.
         21   -1    0    0  501  503 -0.00000000000E+00 -0.00000000000E+00 -0.61626455689E+01  0.61626455689E+01  0.00000000000E+00 0.  1.
          2    1    1    2  501    0  0.23572743343E+02 -0.91845371324E+01  0.90960381356E+02  0.94413033674E+02  0.00000000000E+00 0.  1.
         -2    1    1    2    0  502 -0.23572743343E+02  0.91845371324E+01  0.31631301735E+02  0.40503940555E+02  0.00000000000E+00 0. -1.
<mgrwt>
<rscale>  2 0.25298813E+02</rscale>
<asrwt>0</asrwt>
<pdfrwt beam="1">  1       21 0.19808356E-01 0.25298813E+02</pdfrwt>
<pdfrwt beam="2">  1       21 0.94809941E-03 0.25298813E+02</pdfrwt>
<totfact> 0.69523842E+07</totfact>
</mgrwt>
</event>
<event>
 4    1  0.7151341E+004  0.2378697E+02  0.7546771E-02  0.1679062E+00
         21   -1    0    0  501  502  0.00000000000E+00  0.00000000000E+00  0.50404953572E+01  0.50404953572E+01  0.00000000000E+00 0. -1.
         21   -1    0    0  502  503 -0.00000000000E+00 -0.00000000000E+00 -0.15037529323E+03  0.15037529323E+03  0.00000000000E+00 0. -1.
          3    1    1    2  501    0 -0.19994928261E+02  0.12884989061E+02 -0.33542267231E+02  0.41120600558E+02  0.00000000000E+00 0. -1.
         -3    1    1    2    0  503  0.19994928261E+02 -0.12884989061E+02 -0.11179253064E+03  0.11429518803E+03  0.00000000000E+00 0.  1.
<mgrwt>
<rscale>  2 0.23786973E+02</rscale>
<asrwt>0</asrwt>
<pdfrwt beam="1">  1       21 0.77546091E-03 0.23786973E+02</pdfrwt>
<pdfrwt beam="2">  1       21 0.23134658E-01 0.23786973E+02</pdfrwt>
<totfact> 0.70397756E+07</totfact>
</mgrwt>
</event>
<event>
 4    1  0.7151341E+004  0.2337713E+02  0.7546771E-02  0.1685469E+00
         21   -1    0    0  503  502  0.00000000000E+00  0.00000000000E+00  0.75350039598E+03  0.75350039598E+03  0.00000000000E+00 0. -1.
         21   -1    0    0  501  503 -0.00000000000E+00 -0.00000000000E+00 -0.82883752862E+00  0.82883752862E+00  0.00000000000E+00 0. -1.
          3    1    1    2  501    0  0.11760623258E+02 -0.20203419241E+02  0.50966039422E+03  0.51019624445E+03  0.00000000000E+00 0. -1.
         -3    1    1    2    0  502 -0.11760623258E+02  0.20203419241E+02  0.24301116423E+03  0.24413298907E+03  0.00000000000E+00 0.  1.
<mgrwt>
<rscale>  2 0.23377134E+02</rscale>
<asrwt>0</asrwt>
<pdfrwt beam="1">  1       21 0.11592259E+00 0.23377134E+02</pdfrwt>
<pdfrwt beam="2">  1       21 0.12751407E-03 0.23377134E+02</pdfrwt>
<totfact> 0.40622056E+07</totfact>
</mgrwt>
</event>
<event>
 4    1  0.7151341E+004  0.2012412E+02  0.7546771E-02  0.1742871E+00
         21   -1    0    0  501  502  0.00000000000E+00  0.00000000000E+00  0.16816276755E+02  0.16816276755E+02  0.00000000000E+00 0. -1.
         21   -1    0    0  502  503 -0.00000000000E+00 -0.00000000000E+00 -0.34259464844E+02  0.34259464844E+02  0.00000000000E+00 0. -1.
          5    1    1    2  501    0  0.23723991913E+01 -0.19983790458E+02  0.51971733380E+01  0.20784387643E+02  0.00000000000E+00 0.  1.
         -5    1    1    2    0  503 -0.23723991913E+01  0.19983790458E+02 -0.22640361427E+02  0.30291353957E+02  0.00000000000E+00 0. -1.
<mgrwt>
<rscale>  2 0.20124119E+02</rscale>
<asrwt>0</asrwt>
<pdfrwt beam="1">  1       21 0.25871195E-02 0.20124119E+02</pdfrwt>
<pdfrwt beam="2">  1       21 0.52706868E-02 0.20124119E+02</pdfrwt>
<totfact> 0.12735352E+08</totfact>
</mgrwt>
</event>
<event>
 4    1  0.7151341E+004  0.4167714E+02  0.7546771E-02  0.1496220E+00
         21   -1    0    0  501  502  0.00000000000E+00  0.00000000000E+00  0.53882199838E+02  0.53882199838E+02  0.00000000000E+00 0. -1.
         21   -1    0    0  502  503 -0.00000000000E+00 -0.00000000000E+00 -0.34169456166E+02  0.34169456166E+02  0.00000000000E+00 0. -1.
          4    1    1    2  501    0 -0.38938859172E+02 -0.14857646082E+02 -0.61435541425E+00  0.41681672631E+02  0.00000000000E+00 0. -1.
         -4    1    1    2    0  503  0.38938859172E+02  0.14857646082E+02  0.20327099086E+02  0.46369983373E+02  0.00000000000E+00 0.  1.
<mgrwt>
<rscale>  2 0.41677145E+02</rscale>
<asrwt>0</asrwt>
<pdfrwt beam="1">  1       21 0.82895692E-02 0.41677145E+02</pdfrwt>
<pdfrwt beam="2">  1       21 0.52568394E-02 0.41677145E+02</pdfrwt>
<totfact> 0.23473242E+07</totfact>
</mgrwt>
</event>
<event>
 4    1  0.7151341E+004  0.2150230E+02  0.7546771E-02  0.1717004E+00
         21   -1    0    0  501  502  0.00000000000E+00  0.00000000000E+00  0.24519017416E+01  0.24519017416E+01  0.00000000000E+00 0.  1.
         21   -1    0    0  502  503 -0.00000000000E+00 -0.00000000000E+00 -0.19317497877E+03  0.19317497877E+03  0.00000000000E+00 0.  1.
          1    1    1    2  501    0 -0.21468674960E+02  0.12020233819E+01 -0.80255276416E+02  0.83085848719E+02  0.00000000000E+00 0. -1.
         -1    1    1    2    0  503  0.21468674960E+02 -0.12020233819E+01 -0.11046780061E+03  0.11254103179E+03  0.00000000000E+00 0.  1.
<mgrwt>
<rscale>  2 0.21502299E+02</rscale>
<asrwt>0</asrwt>
<pdfrwt beam="1">  1       21 0.37721567E-03 0.21502299E+02</pdfrwt>
<pdfrwt beam="2">  1       21 0.29719226E-01 0.21502299E+02</pdfrwt>
<totfact> 0.12680196E+08</totfact>
</mgrwt>
</event>
<event>
 4    1  0.7151341E+004  0.3885855E+02  0.7546771E-02  0.1516783E+00
         21   -1    0    0  503  502  0.00000000000E+00  0.00000000000E+00  0.42371565842E+02  0.42371565842E+02  0.00000000000E+00 0. -1.
         21   -1    0    0  501  503 -0.00000000000E+00 -0.00000000000E+00 -0.49934449246E+02  0.49934449246E+02  0.00000000000E+00 0. -1.
          3    1    1    2  501    0  0.27906897290E+02  0.27040562025E+02 -0.28477761050E+02  0.48176444300E+02  0.00000000000E+00 0. -1.
         -3    1    1    2    0  502 -0.27906897290E+02 -0.27040562025E+02  0.20914877645E+02  0.44129570788E+02  0.00000000000E+00 0.  1.
<mgrwt>
<rscale>  2 0.38858550E+02</rscale>
<asrwt>0</asrwt>
<pdfrwt beam="1">  1       21 0.65187024E-02 0.38858550E+02</pdfrwt>
<pdfrwt beam="2">  1       21 0.76822230E-02 0.38858550E+02</pdfrwt>
<totfact> 0.18519678E+07</totfact>
</mgrwt>
</event>
<event>
 4    1  0.7151341E+004  0.2067728E+02  0.7546771E-02  0.1732185E+00
         21   -1    0    0  503  502  0.00000000000E+00  0.00000000000E+00  0.72952444717E+01  0.72952444717E+01  0.00000000000E+00 0.  1.
         21   -1    0    0  501  503 -0.00000000000E+00 -0.00000000000E+00 -0.66353272035E+02  0.66353272035E+02  0.00000000000E+00 0.  1.
          3    1    1    2  501    0 -0.74591355095E+01  0.19285003602E+02 -0.16946768513E+02  0.26734678407E+02  0.00000000000E+00 0. -1.
         -3    1    1    2    0  502  0.74591355095E+01 -0.19285003602E+02 -0.42111259050E+02  0.46913838100E+02  0.00000000000E+00 0.  1.
<mgrwt>
<rscale>  2 0.20677284E+02</rscale>
<asrwt>0</asrwt>
<pdfrwt beam="1">  1       21 0.11223453E-02 0.20677284E+02</pdfrwt>
<pdfrwt beam="2">  1       21 0.10208196E-01 0.20677284E+02</pdfrwt>
<totfact> 0.15698573E+08</totfact>
</mgrwt>
</event>
<event>
 4    1  0.7151341E+004  0.2216815E+02  0.7546771E-02  0.1705360E+00
         21   -1    0    0  501  502  0.00000000000E+00  0.00000000000E+00  0.13457102150E+02  0.13457102150E+02  0.00000000000E+00 0. -1.
         21   -1    0    0  502  503 -0.00000000000E+00 -0.00000000000E+00 -0.10683082932E+03  0.10683082932E+03  0.00000000000E+00 0. -1.
          3    1    1    2  501    0  0.24729612476E+01 -0.22029784492E+02 -0.95480247297E+02  0.98019919230E+02  0.00000000000E+00 0. -1.
         -3    1    1    2    0  503 -0.24729612476E+01  0.22029784492E+02  0.21065201263E+01  0.22268012241E+02  0.00000000000E+00 0.  1.
<mgrwt>
<rscale>  2 0.22168152E+02</rscale>
<asrwt>0</asrwt>
<pdfrwt beam="1">  1       21 0.20703234E-02 0.22168152E+02</pdfrwt>
<pdfrwt beam="2">  1       21 0.16435513E-01 0.22168152E+02</pdfrwt>
<totfact> 0.28402743E+07</totfact>
</mgrwt>
</event>
<event>
 4    1  0.7151341E+004  0.2191839E+02  0.7546771E-02  0.1709667E+00
         21   -1    0    0  501  502  0.00000000000E+00  0.00000000000E+00  0.11569356388E+01  0.11569356388E+01  0.00000000000E+00 0. -1.
         21   -1    0    0  502  503 -0.00000000000E+00 -0.00000000000E+00 -0.54218428866E+03  0.54218428866E+03  0.00000000000E+00 0. -1.
          2    1    1    2  501    0 -0.92545827581E+01  0.19868784605E+02 -0.40196382157E+03  0.40256096402E+03  0.00000000000E+00 0.  1.
         -2    1    1    2    0  503  0.92545827581E+01 -0.19868784605E+02 -0.13906353145E+03  0.14078026028E+03  0.00000000000E+00 0. -1.
<mgrwt>
<rscale>  2 0.21918392E+02</rscale>
<asrwt>0</asrwt>
<pdfrwt beam="1">  1       21 0.17799011E-03 0.21918392E+02</pdfrwt>
<pdfrwt beam="2">  1       21 0.83412961E-01 0.21918392E+02</pdfrwt>
<totfact> 0.50846615E+07</totfact>
</mgrwt>
</event>
<event>
 4    1  0.7151341E+004  0.3140734E+02  0.7546771E-02  0.1583034E+00
         21   -1    0    0  501  502  0.00000000000E+00  0.00000000000E+00  0.32882004637E+02  0.32882004637E+02  0.00000000000E+00 0.  1.
         21   -1    0    0  502  503 -0.00000000000E+00 -0.00000000000E+00 -0.35411014943E+02  0.35411014943E+02  0.00000000000E+00 0.  1.
          4    1    1    2  501    0 -0.37459143256E-02 -0.31407338852E+02 -0.14613984405E+02  0.34640864423E+02  0.00000000000E+00 0. -1.
         -4    1    1    2    0  503  0.37459143256E-02  0.31407338852E+02  0.12084974098E+02  0.33652155157E+02  0.00000000000E+00 0.  1.
<mgrwt>
<rscale>  2 0.31407339E+02</rscale>
<asrwt>0</asrwt>
<pdfrwt beam="1">  1       21 0.50587700E-02 0.31407339E+02</pdfrwt>
<pdfrwt beam="2">  1       21 0.54478484E-02 0.31407339E+02</pdfrwt>
<totfact> 0.47223862E+07</totfact>
</mgrwt>
</event>
<event>
 4    1  0.7151341E+004  0.2724603E+02  0.7546771E-02  0.1630690E+00
         21   -1    0    0  501  502  0.00000000000E+00  0.00000000000E+00  0.26240474421E+03  0.26240474421E+03  0.00000000000E+00 0.  1.
         21   -1    0    0  502  503 -0.00000000000E+00 -0.00000000000E+00 -0.30442277903E+01  0.30442277903E+01  0.00000000000E+00 0.  1.
          5    1    1    2  501    0  0.18248851550E+02  0.20231802147E+02  0.16497001438E+03  0.16720482064E+03  0.00000000000E+00 0. -1.
         -5    1    1    2    0  503 -0.18248851550E+02 -0.20231802147E+02  0.94390502039E+02  0.98244151359E+02  0.00000000000E+00 0.  1.
<mgrwt>
<rscale>  2 0.27246035E+02</rscale>
<asrwt>0</asrwt>
<pdfrwt beam="1">  1       21 0.40369943E-01 0.27246035E+02</pdfrwt>
<pdfrwt beam="2">  1       21 0.46834295E-03 0.27246035E+02</pdfrwt>
<totfact> 0.55474059E+07</totfact>
</mgrwt>
</event>
<event>
 4    1  0.7151341E+004  0.2032158E+02  0.7546771E-02  0.1739008E+00
         21   -1    0    0  501  502  0.00000000000E+00  0.00000000000E+00  0.11596684504E+02  0.11596684504E+02  0.00000000000E+00 0.  1.
         21   -1    0    0  502  503 -0.00000000000E+00 -0.00000000000E+00 -0.37910691300E+02  0.37910691300E+02  0.00000000000E+00 0.  1.
          4    1    1    2  501    0  0.23882827843E+01  0.20180754632E+02 -0.19254007152E+02  0.27994348422E+02  0.00000000000E+00 0.  1.
         -4    1    1    2    0  503 -0.23882827843E+01 -0.20180754632E+02 -0.70599996440E+01  0.21513027382E+02  0.00000000000E+00 0. -1.
<mgrwt>
<rscale>  2 0.20321583E+02</rscale>
<asrwt>0</asrwt>
<pdfrwt beam="1">  1       21 0.17841053E-02 0.20321583E+02</pdfrwt>
<pdfrwt beam="2">  1       21 0.58324140E-02 0.20321583E+02</pdfrwt>
<totfact> 0.19206162E+08</totfact>
</mgrwt>
</event>
<event>
 4    1  0.7151341E+004  0.2308109E+02  0.7546771E-02  0.1690199E+00
         21   -1    0    0  501  502  0.00000000000E+00  0.00000000000E+00  0.16922407308E+01  0.16922407308E+01  0.00000000000E+00 0. -1.
         21   -1    0    0  502  503 -0.00000000000E+00 -0.00000000000E+00 -0.33565839147E+03  0.33565839147E+03  0.00000000000E+00 0. -1.
          3    1    1    2  501    0  0.23045824975E+02 -0.12754053351E+01 -0.20901935416E+03  0.21028986453E+03  0.00000000000E+00 0. -1.
         -3    1    1    2    0  503 -0.23045824975E+02  0.12754053351E+01 -0.12494679657E+03  0.12706076767E+03  0.00000000000E+00 0.  1.
<mgrwt>
<rscale>  2 0.23081090E+02</rscale>
<asrwt>0</asrwt>
<pdfrwt beam="1">  1       21 0.26034485E-03 0.23081090E+02</pdfrwt>
<pdfrwt beam="2">  1       21 0.51639728E-01 0.23081090E+02</pdfrwt>
<totfact> 0.78571566E+07</totfact>
</mgrwt>
</event>
<event>
 4    1  0.7151341E+004  0.2112915E+02  0.7546771E-02  0.1723763E+00
         21   -1    0    0  503  502  0.00000000000E+00  0.00000000000E+00  0.50530410391E+01  0.50530410391E+01  0.00000000000E+00 0. -1.
         21   -1    0    0  501  503 -0.00000000000E+00 -0.00000000000E+00 -0.90737605783E+02  0.90737605783E+02  0.00000000000E+00 0. -1.
          5    1    1    2  501    0 -0.20842695478E+02  0.34674099422E+01 -0.50610045274E+02  0.54843573636E+02  0.00000000000E+00 0.  1.
         -5    1    1    2    0  502  0.20842695478E+02 -0.34674099422E+01 -0.35074519470E+02  0.40947073186E+02  0.00000000000E+00 0. -1.
<mgrwt>
<rscale>  2 0.21129148E+02</rscale>
<asrwt>0</asrwt>
<pdfrwt beam="1">  1       21 0.77739093E-03 0.21129148E+02</pdfrwt>
<pdfrwt beam="2">  1       21 0.13959632E-01 0.21129148E+02</pdfrwt>
<totfact> 0.16232193E+08</totfact>
</mgrwt>
</event>
<event>
 4    1  0.7151341E+004  0.2280316E+02  0.7546771E-02  0.1694721E+00
         21   -1    0    0  501  502  0.00000000000E+00  0.00000000000E+00  0.34989976084E+02  0.34989976084E+02  0.00000000000E+00 0.  1.
         21   -1    0    0  502  503 -0.00000000000E+00 -0.00000000000E+00 -0.20441323416E+02  0.20441323416E+02  0.00000000000E+00 0.  1.
          2    1    1    2  501    0 -0.10937493866E+02 -0.20008875751E+02 -0.72068099141E+01  0.23914890551E+02  0.00000000000E+00 0.  1.
         -2    1    1    2    0  503  0.10937493866E+02  0.20008875751E+02  0.21755462582E+02  0.31516408950E+02  0.00000000000E+00 0. -1.
<mgrwt>
<rscale>  2 0.22803155E+02</rscale>
<asrwt>0</asrwt>
<pdfrwt beam="1">  1       21 0.53830732E-02 0.22803155E+02</pdfrwt>
<pdfrwt beam="2">  1       21 0.31448190E-02 0.22803155E+02</pdfrwt>
<totfact> 0.94437090E+07</totfact>
</mgrwt>
</event>
<event>
 4    1  0.7151341E+004  0.2116046E+02  0.7546771E-02  0.1723189E+00
         21   -1    0    0  503  502  0.00000000000E+00  0.00000000000E+00  0.21635462710E+03  0.21635462710E+03  0.00000000000E+00 0. -1.
         21   -1    0    0  501  503 -0.00000000000E+00 -0.00000000000E+00 -0.22707765781E+01  0.22707765781E+01  0.00000000000E+00 0. -1.
          5    1    1    2  501    0  0.26756636598E+01 -0.20990612441E+02  0.13957947562E+03  0.14117434258E+03  0.00000000000E+00 0.  1.
         -5    1    1    2    0  502 -0.26756636598E+01  0.20990612441E+02  0.74504374896E+02  0.77451061099E+02  0.00000000000E+00 0. -1.
<mgrwt>
<rscale>  2 0.21160458E+02</rscale>
<asrwt>0</asrwt>
<pdfrwt beam="1">  1       21 0.33285311E-01 0.21160458E+02</pdfrwt>
<pdfrwt beam="2">  1       21 0.34935041E-03 0.21160458E+02</pdfrwt>
<totfact> 0.11484436E+08</totfact>
</mgrwt>
</event>
<event>
 4    1  0.7151341E+004  0.2525932E+02  0.7546771E-02  0.1657305E+00
         21   -1    0    0  501  502  0.00000000000E+00  0.00000000000E+00  0.10012806961E+01  0.10012806961E+01  0.00000000000E+00 0. -1.
         21   -1    0    0  502  503 -0.00000000000E+00 -0.00000000000E+00 -0.68177831586E+03  0.68177831586E+03  0.00000000000E+00 0. -1.
          3    1    1    2  501    0 -0.24975988378E+02  0.37726844307E+01 -0.25310994220E+03  0.25436720698E+03  0.00000000000E+00 0.  1.
         -3    1    1    2    0  503  0.24975988378E+02 -0.37726844307E+01 -0.42766709296E+03  0.42841238958E+03  0.00000000000E+00 0. -1.
<mgrwt>
<rscale>  2 0.25259318E+02</rscale>
<asrwt>0</asrwt>
<pdfrwt beam="1">  1       21 0.15404276E-03 0.25259318E+02</pdfrwt>
<pdfrwt beam="2">  1       21 0.10488926E+00 0.25259318E+02</pdfrwt>
<totfact> 0.39323451E+07</totfact>
</mgrwt>
</event>
<event>
 4    1  0.7151341E+004  0.2384483E+02  0.7546771E-02  0.1678171E+00
         21   -1    0    0  501  502  0.00000000000E+00  0.00000000000E+00  0.14887497334E+01  0.14887497334E+01  0.00000000000E+00 0. -1.
         21   -1    0    0  502  503 -0.00000000000E+00 -0.00000000000E+00 -0.74165764339E+03  0.74165764339E+03  0.00000000000E+00 0. -1.
          4    1    1    2  501    0 -0.20890802852E+02 -0.11495661698E+02 -0.62886914309E+03  0.62932104288E+03  0.00000000000E+00 0.  1.
         -4    1    1    2    0  503  0.20890802852E+02  0.11495661698E+02 -0.11129975056E+03  0.11382535024E+03  0.00000000000E+00 0. -1.
<mgrwt>
<rscale>  2 0.23844829E+02</rscale>
<asrwt>0</asrwt>
<pdfrwt beam="1">  1       21 0.22903810E-03 0.23844829E+02</pdfrwt>
<pdfrwt beam="2">  1       21 0.11410134E+00 0.23844829E+02</pdfrwt>
<totfact> 0.18175770E+07</totfact>
</mgrwt>
</event>
<event>
 4    1  0.7151341E+004  0.3548975E+02  0.7546771E-02  0.1544294E+00
         21   -1    0    0  503  502  0.00000000000E+00  0.00000000000E+00  0.10431782840E+03  0.10431782840E+03  0.00000000000E+00 0.  1.
         21   -1    0    0  501  503 -0.00000000000E+00 -0.00000000000E+00 -0.15962087815E+02  0.15962087815E+02  0.00000000000E+00 0.  1.
          5    1    1    2  501    0 -0.29397334801E+01  0.35367788843E+02  0.14495938508E+02  0.38336076401E+02  0.00000000000E+00 0.  1.
         -5    1    1    2    0  502  0.29397334801E+01 -0.35367788843E+02  0.73859802078E+02  0.81943839815E+02  0.00000000000E+00 0. -1.
<mgrwt>
<rscale>  2 0.35489752E+02</rscale>
<asrwt>0</asrwt>
<pdfrwt beam="1">  1       21 0.16048896E-01 0.35489752E+02</pdfrwt>
<pdfrwt beam="2">  1       21 0.24557059E-02 0.35489752E+02</pdfrwt>
<totfact> 0.25010901E+07</totfact>
</mgrwt>
</event>
<event>
 4    1  0.7151341E+004  0.3476503E+02  0.7546771E-02  0.1550697E+00
         21   -1    0    0  501  502  0.00000000000E+00  0.00000000000E+00  0.12543306927E+03  0.12543306927E+03  0.00000000000E+00 0. -1.
         21   -1    0    0  502  503 -0.00000000000E+00 -0.00000000000E+00 -0.99082906603E+01  0.99082906603E+01  0.00000000000E+00 0. -1.
          4    1    1    2  501    0 -0.33418943562E+02 -0.95802629633E+01  0.46533529333E+02  0.58085941323E+02  0.00000000000E+00 0.  1.
         -4    1    1    2    0  503  0.33418943562E+02  0.95802629633E+01  0.68991249274E+02  0.77255418604E+02  0.00000000000E+00 0. -1.
<mgrwt>
<rscale>  2 0.34765029E+02</rscale>
<asrwt>0</asrwt>
<pdfrwt beam="1">  1       21 0.19297394E-01 0.34765029E+02</pdfrwt>
<pdfrwt beam="2">  1       21 0.15243525E-02 0.34765029E+02</pdfrwt>
<totfact> 0.37854253E+07</totfact>
</mgrwt>
</event>
<event>
 4    1  0.7151341E+004  0.3594355E+02  0.7546771E-02  0.1540378E+00
         21   -1    0    0  503  502  0.00000000000E+00  0.00000000000E+00  0.10589104542E+02  0.10589104542E+02  0.00000000000E+00 0. -1.
         21   -1    0    0  501  503 -0.00000000000E+00 -0.00000000000E+00 -0.12223570456E+03  0.12223570456E+03  0.00000000000E+00 0. -1.
          4    1    1    2  501    0  0.10918858891E+02  0.34244962945E+02 -0.52947114064E+02  0.63994811151E+02  0.00000000000E+00 0.  1.
         -4    1    1    2    0  502 -0.10918858891E+02 -0.34244962945E+02 -0.58699485956E+02  0.68829997953E+02  0.00000000000E+00 0. -1.
<mgrwt>
<rscale>  2 0.35943553E+02</rscale>
<asrwt>0</asrwt>
<pdfrwt beam="1">  1       21 0.16290930E-02 0.35943553E+02</pdfrwt>
<pdfrwt beam="2">  1       21 0.18805493E-01 0.35943553E+02</pdfrwt>
<totfact> 0.35983219E+07</totfact>
</mgrwt>
</event>
<event>
 4    1  0.7151341E+004  0.4376492E+02  0.7546771E-02  0.1482203E+00
         21   -1    0    0  503  502  0.00000000000E+00  0.00000000000E+00  0.16610708303E+02  0.16610708303E+02  0.00000000000E+00 0.  1.
         21   -1    0    0  501  503 -0.00000000000E+00 -0.00000000000E+00 -0.11769002272E+03  0.11769002272E+03  0.00000000000E+00 0.  1.
          4    1    1    2  501    0 -0.30966654466E+02 -0.30926278328E+02 -0.60090400622E+02  0.74338581012E+02  0.00000000000E+00 0. -1.
         -4    1    1    2    0  502  0.30966654466E+02  0.30926278328E+02 -0.40988913797E+02  0.59962150013E+02  0.00000000000E+00 0.  1.
<mgrwt>
<rscale>  2 0.43764922E+02</rscale>
<asrwt>0</asrwt>
<pdfrwt beam="1">  1       21 0.25554937E-02 0.43764922E+02</pdfrwt>
<pdfrwt beam="2">  1       21 0.18106157E-01 0.43764922E+02</pdfrwt>
<totfact> 0.19659912E+07</totfact>
</mgrwt>
</event>
<event>
 4    1  0.7151341E+004  0.3600484E+02  0.7546771E-02  0.1539854E+00
         21   -1    0    0  503  502  0.00000000000E+00  0.00000000000E+00  0.78391719753E+02  0.78391719753E+02  0.00000000000E+00 0.  1.
         21   -1    0    0  501  503 -0.00000000000E+00 -0.00000000000E+00 -0.16868592467E+02  0.16868592467E+02  0.00000000000E+00 0.  1.
          3    1    1    2  501    0  0.27135096818E+02  0.23665062814E+02  0.37441491686E+02  0.51944335370E+02  0.00000000000E+00 0. -1.
         -3    1    1    2    0  502 -0.27135096818E+02 -0.23665062814E+02  0.24081635601E+02  0.43315976851E+02  0.00000000000E+00 0.  1.
<mgrwt>
<rscale>  2 0.36004842E+02</rscale>
<asrwt>0</asrwt>
<pdfrwt beam="1">  1       21 0.12060264E-01 0.36004842E+02</pdfrwt>
<pdfrwt beam="2">  1       21 0.25951681E-02 0.36004842E+02</pdfrwt>
<totfact> 0.37611916E+07</totfact>
</mgrwt>
</event>
<event>
 4    1  0.7151341E+004  0.2166009E+02  0.7546771E-02  0.1714198E+00
         21   -1    0    0  503  502  0.00000000000E+00  0.00000000000E+00  0.12072887663E+02  0.12072887663E+02  0.00000000000E+00 0.  1.
         21   -1    0    0  501  503 -0.00000000000E+00 -0.00000000000E+00 -0.39181765671E+02  0.39181765671E+02  0.00000000000E+00 0.  1.
          1    1    1    2  501    0 -0.85102913775E+01  0.19918197151E+02 -0.11234230305E+02  0.24400155074E+02  0.00000000000E+00 0.  1.
         -1    1    1    2    0  502  0.85102913775E+01 -0.19918197151E+02 -0.15874647703E+02  0.26854498260E+02  0.00000000000E+00 0. -1.
<mgrwt>
<rscale>  2 0.21660093E+02</rscale>
<asrwt>0</asrwt>
<pdfrwt beam="1">  1       21 0.18573673E-02 0.21660093E+02</pdfrwt>
<pdfrwt beam="2">  1       21 0.60279640E-02 0.21660093E+02</pdfrwt>
<totfact> 0.17485428E+08</totfact>
</mgrwt>
</event>
<event>
 4    1  0.7151341E+004  0.2092923E+02  0.7546771E-02  0.1727457E+00
         21   -1    0    0  501  502  0.00000000000E+00  0.00000000000E+00  0.62666537885E+01  0.62666537885E+01  0.00000000000E+00 0.  1.
         21   -1    0    0  502  503 -0.00000000000E+00 -0.00000000000E+00 -0.71349275507E+02  0.71349275507E+02  0.00000000000E+00 0.  1.
          2    1    1    2  501    0  0.84783559139E+01 -0.19135044874E+02 -0.38074305156E+02  0.43447499058E+02  0.00000000000E+00 0.  1.
         -2    1    1    2    0  503 -0.84783559139E+01  0.19135044874E+02 -0.27008316563E+02  0.34168430237E+02  0.00000000000E+00 0. -1.
<mgrwt>
<rscale>  2 0.20929225E+02</rscale>
<asrwt>0</asrwt>
<pdfrwt beam="1">  1       21 0.96410052E-03 0.20929225E+02</pdfrwt>
<pdfrwt beam="2">  1       21 0.10976812E-01 0.20929225E+02</pdfrwt>
<totfact> 0.17549031E+08</totfact>
</mgrwt>
</event>
<event>
 4    1  0.7151341E+004  0.2019452E+02  0.7546771E-02  0.1741487E+00
         21   -1    0    0  501  502  0.00000000000E+00  0.00000000000E+00  0.10181988089E+01  0.10181988089E+01  0.00000000000E+00 0. -1.
         21   -1    0    0  502  503 -0.00000000000E+00 -0.00000000000E+00 -0.41384875584E+03  0.41384875584E+03  0.00000000000E+00 0. -1.
          4    1    1    2  501    0 -0.18765372653E+02 -0.74618778519E+01 -0.24362832683E+03  0.24446386332E+03  0.00000000000E+00 0. -1.
         -4    1    1    2    0  503  0.18765372653E+02  0.74618778519E+01 -0.16920223020E+03  0.17040309133E+03  0.00000000000E+00 0.  1.
<mgrwt>
<rscale>  2 0.20194525E+02</rscale>
<asrwt>0</asrwt>
<pdfrwt beam="1">  1       21 0.15664583E-03 0.20194525E+02</pdfrwt>
<pdfrwt beam="2">  1       21 0.63669095E-01 0.20194525E+02</pdfrwt>
<totfact> 0.10426832E+08</totfact>
</mgrwt>
</event>
<event>
 4    1  0.7151341E+004  0.2130283E+02  0.7546771E-02  0.1720596E+00
         21   -1    0    0  503  502  0.00000000000E+00  0.00000000000E+00  0.25918250035E+02  0.25918250035E+02  0.00000000000E+00 0.  1.
         21   -1    0    0  501  503 -0.00000000000E+00 -0.00000000000E+00 -0.19776070466E+02  0.19776070466E+02  0.00000000000E+00 0.  1.
          1    1    1    2  501    0 -0.20045798558E+02  0.72094805810E+01  0.10806175535E+02  0.23886901845E+02  0.00000000000E+00 0. -1.
         -1    1    1    2    0  502  0.20045798558E+02 -0.72094805810E+01 -0.46639959653E+01  0.21807418656E+02  0.00000000000E+00 0.  1.
<mgrwt>
<rscale>  2 0.21302832E+02</rscale>
<asrwt>0</asrwt>
<pdfrwt beam="1">  1       21 0.39874231E-02 0.21302832E+02</pdfrwt>
<pdfrwt beam="2">  1       21 0.30424724E-02 0.21302832E+02</pdfrwt>
<totfact> 0.15670846E+08</totfact>
</mgrwt>
</event>
<event>
 4    1  0.7151341E+004  0.2397148E+02  0.7546771E-02  0.1676230E+00
         21   -1    0    0  501  502  0.00000000000E+00  0.00000000000E+00  0.46656832317E+03  0.46656832317E+03  0.00000000000E+00 0. -1.
         21   -1    0    0  502  503 -0.00000000000E+00 -0.00000000000E+00 -0.31093484323E+01  0.31093484323E+01  0.00000000000E+00 0. -1.
          5    1    1    2  501    0  0.15776587295E+02 -0.18048018251E+02  0.41422509216E+03  0.41491813487E+03  0.00000000000E+00 0.  1.
         -5    1    1    2    0  503 -0.15776587295E+02  0.18048018251E+02  0.49233882583E+02  0.54759536737E+02  0.00000000000E+00 0. -1.
<mgrwt>
<rscale>  2 0.23971476E+02</rscale>
<asrwt>0</asrwt>
<pdfrwt beam="1">  1       21 0.71779687E-01 0.23971476E+02</pdfrwt>
<pdfrwt beam="2">  1       21 0.47836167E-03 0.23971476E+02</pdfrwt>
<totfact> 0.16794935E+07</totfact>
</mgrwt>
</event>
<event>
 4    1  0.7151341E+004  0.2156052E+02  0.7546771E-02  0.1715965E+00
         21   -1    0    0  503  502  0.00000000000E+00  0.00000000000E+00  0.35652202170E+02  0.35652202170E+02  0.00000000000E+00 0.  1.
         21   -1    0    0  501  503 -0.00000000000E+00 -0.00000000000E+00 -0.17014277153E+02  0.17014277153E+02  0.00000000000E+00 0.  1.
          2    1    1    2  501    0  0.16330505623E+02  0.14077301424E+02  0.22048174620E+02  0.30837928487E+02  0.00000000000E+00 0. -1.
         -2    1    1    2    0  502 -0.16330505623E+02 -0.14077301424E+02 -0.34102496025E+01  0.21828550837E+02  0.00000000000E+00 0.  1.
<mgrwt>
<rscale>  2 0.21560516E+02</rscale>
<asrwt>0</asrwt>
<pdfrwt beam="1">  1       21 0.54849542E-02 0.21560516E+02</pdfrwt>
<pdfrwt beam="2">  1       21 0.26175811E-02 0.21560516E+02</pdfrwt>
<totfact> 0.11987700E+08</totfact>
</mgrwt>
</event>
<event>
 4    1  0.7151341E+004  0.2281607E+02  0.7546771E-02  0.1694509E+00
         21   -1    0    0  501  502  0.00000000000E+00  0.00000000000E+00  0.11495631942E+03  0.11495631942E+03  0.00000000000E+00 0. -1.
         21   -1    0    0  502  503 -0.00000000000E+00 -0.00000000000E+00 -0.47258251026E+01  0.47258251026E+01  0.00000000000E+00 0. -1.
          2    1    1    2  501    0  0.10344175024E+02  0.20336452402E+02  0.67344877946E+02  0.71104893213E+02  0.00000000000E+00 0. -1.
         -2    1    1    2    0  503 -0.10344175024E+02 -0.20336452402E+02  0.42885616368E+02  0.48577251306E+02  0.00000000000E+00 0.  1.
<mgrwt>
<rscale>  2 0.22816074E+02</rscale>
<asrwt>0</asrwt>
<pdfrwt beam="1">  1       21 0.17685585E-01 0.22816074E+02</pdfrwt>
<pdfrwt beam="2">  1       21 0.72705010E-03 0.22816074E+02</pdfrwt>
<totfact> 0.12252937E+08</totfact>
</mgrwt>
</event>
<event>
 4    1  0.7151341E+004  0.3479870E+02  0.7546771E-02  0.1550395E+00
         21   -1    0    0  501  502  0.00000000000E+00  0.00000000000E+00  0.15782011062E+02  0.15782011062E+02  0.00000000000E+00 0. -1.
         21   -1    0    0  502  503 -0.00000000000E+00 -0.00000000000E+00 -0.86280550906E+02  0.86280550906E+02  0.00000000000E+00 0. -1.
          4    1    1    2  501    0 -0.26776004338E+02  0.22226004294E+02 -0.52227798041E+02  0.62759003843E+02  0.00000000000E+00 0.  1.
         -4    1    1    2    0  503  0.26776004338E+02 -0.22226004294E+02 -0.18270741803E+02  0.39303558124E+02  0.00000000000E+00 0. -1.
<mgrwt>
<rscale>  2 0.34798702E+02</rscale>
<asrwt>0</asrwt>
<pdfrwt beam="1">  1       21 0.24280017E-02 0.34798702E+02</pdfrwt>
<pdfrwt beam="2">  1       21 0.13273931E-01 0.34798702E+02</pdfrwt>
<totfact> 0.35212899E+07</totfact>
</mgrwt>
</event>
<event>
 4    1  0.7151341E+004  0.2674015E+02  0.7546771E-02  0.1637196E+00
         21   -1    0    0  503  502  0.00000000000E+00  0.00000000000E+00  0.48569387522E+03  0.48569387522E+03  0.00000000000E+00 0.  1.
         21   -1    0    0  501  503 -0.00000000000E+00 -0.00000000000E+00 -0.20609080647E+01  0.20609080647E+01  0.00000000000E+00 0.  1.
          4    1    1    2  501    0 -0.39886269721E+01 -0.26441000508E+02  0.11147147519E+03  0.11463387559E+03  0.00000000000E+00 0.  1.
         -4    1    1    2    0  502  0.39886269721E+01  0.26441000508E+02  0.37216149196E+03  0.37312090769E+03  0.00000000000E+00 0. -1.
<mgrwt>
<rscale>  2 0.26740151E+02</rscale>
<asrwt>0</asrwt>
<pdfrwt beam="1">  1       21 0.74722044E-01 0.26740151E+02</pdfrwt>
<pdfrwt beam="2">  1       21 0.31706317E-03 0.26740151E+02</pdfrwt>
<totfact> 0.28874288E+07</totfact>
</mgrwt>
</event>
<event>
 4    1  0.7151341E+004  0.3322064E+02  0.7546771E-02  0.1564994E+00
         21   -1    0    0  501  502  0.00000000000E+00  0.00000000000E+00  0.17261674607E+03  0.17261674607E+03  0.00000000000E+00 0.  1.
         21   -1    0    0  502  503 -0.00000000000E+00 -0.00000000000E+00 -0.88750706681E+01  0.88750706681E+01  0.00000000000E+00 0.  1.
          2    1    1    2  501    0 -0.54546334635E+00 -0.33216162775E+02  0.33885158410E+02  0.47453292406E+02  0.00000000000E+00 0. -1.
         -2    1    1    2    0  503  0.54546334635E+00  0.33216162775E+02  0.12985651699E+03  0.13403852433E+03  0.00000000000E+00 0.  1.
<mgrwt>
<rscale>  2 0.33220641E+02</rscale>
<asrwt>0</asrwt>
<pdfrwt beam="1">  1       21 0.26556420E-01 0.33220641E+02</pdfrwt>
<pdfrwt beam="2">  1       21 0.13653956E-02 0.33220641E+02</pdfrwt>
<totfact> 0.25074184E+07</totfact>
</mgrwt>
</event>
<event>
 4    1  0.7151341E+004  0.2645679E+02  0.7546771E-02  0.1640918E+00
         21   -1    0    0  503  502  0.00000000000E+00  0.00000000000E+00  0.62545051154E+02  0.62545051154E+02  0.00000000000E+00 0. -1.
         21   -1    0    0  501  503 -0.00000000000E+00 -0.00000000000E+00 -0.17214608919E+02  0.17214608919E+02  0.00000000000E+00 0. -1.
          3    1    1    2  501    0 -0.13022855296E+02  0.23029702264E+02 -0.92442433427E+00  0.26472939141E+02  0.00000000000E+00 0. -1.
         -3    1    1    2    0  502  0.13022855296E+02 -0.23029702264E+02  0.46254866570E+02  0.53286720933E+02  0.00000000000E+00 0.  1.
<mgrwt>
<rscale>  2 0.26456794E+02</rscale>
<asrwt>0</asrwt>
<pdfrwt beam="1">  1       21 0.96223155E-02 0.26456794E+02</pdfrwt>
<pdfrwt beam="2">  1       21 0.26484014E-02 0.26456794E+02</pdfrwt>
<totfact> 0.49872648E+07</totfact>
</mgrwt>
</event>
<event>
 4    1  0.7151341E+004  0.2026315E+02  0.7546771E-02  0.1740145E+00
         21   -1    0    0  503  502  0.00000000000E+00  0.00000000000E+00  0.63058166980E+01  0.63058166980E+01  0.00000000000E+00 0. -1.
         21   -1    0    0  501  503 -0.00000000000E+00 -0.00000000000E+00 -0.90139655808E+02  0.90139655808E+02  0.00000000000E+00 0. -1.
          5    1    1    2  501    0  0.18976592790E+02  0.71052302298E+01 -0.67325991715E+02  0.70309206587E+02  0.00000000000E+00 0.  1.
         -5    1    1    2    0  502 -0.18976592790E+02 -0.71052302298E+01 -0.16507847395E+02  0.26136265919E+02  0.00000000000E+00 0. -1.
<mgrwt>
<rscale>  2 0.20263153E+02</rscale>
<asrwt>0</asrwt>
<pdfrwt beam="1">  1       21 0.97012569E-03 0.20263153E+02</pdfrwt>
<pdfrwt beam="2">  1       21 0.13867639E-01 0.20263153E+02</pdfrwt>
<totfact> 0.11652088E+08</totfact>
</mgrwt>
</event>
<event>
 4    1  0.7151341E+004  0.2318816E+02  0.7546771E-02  0.1688478E+00
         21   -1    0    0  501  502  0.00000000000E+00  0.00000000000E+00  0.36187697358E+01  0.36187697358E+01  0.00000000000E+00 0. -1.
         21   -1    0    0  502  503 -0.00000000000E+00 -0.00000000000E+00 -0.15244217516E+03  0.15244217516E+03  0.00000000000E+00 0. -1.
          1    1    1    2  501    0  0.11719114833E+01 -0.23158529541E+02 -0.61997778241E+02  0.66192260680E+02  0.00000000000E+00 0. -1.
         -1    1    1    2    0  503 -0.11719114833E+01  0.23158529541E+02 -0.86825627188E+02  0.89868684221E+02  0.00000000000E+00 0.  1.
<mgrwt>
<rscale>  2 0.23188162E+02</rscale>
<asrwt>0</asrwt>
<pdfrwt beam="1">  1       21 0.55673381E-03 0.23188162E+02</pdfrwt>
<pdfrwt beam="2">  1       21 0.23452642E-01 0.23188162E+02</pdfrwt>
<totfact> 0.11167601E+08</totfact>
</mgrwt>
</event>
<event>
 4    1  0.7151341E+004  0.2167594E+02  0.7546771E-02  0.1713917E+00
         21   -1    0    0  501  502  0.00000000000E+00  0.00000000000E+00  0.67604096214E+01  0.67604096214E+01  0.00000000000E+00 0.  1.
         21   -1    0    0  502  503 -0.00000000000E+00 -0.00000000000E+00 -0.10766112035E+03  0.10766112035E+03  0.00000000000E+00 0.  1.
          1    1    1    2  501    0  0.21651664796E+02  0.10255529524E+01 -0.16389099927E+02  0.27174417081E+02  0.00000000000E+00 0.  1.
         -1    1    1    2    0  503 -0.21651664796E+02 -0.10255529524E+01 -0.84511610801E+02  0.87247112889E+02  0.00000000000E+00 0. -1.
<mgrwt>
<rscale>  2 0.21675939E+02</rscale>
<asrwt>0</asrwt>
<pdfrwt beam="1">  1       21 0.10400632E-02 0.21675939E+02</pdfrwt>
<pdfrwt beam="2">  1       21 0.16563247E-01 0.21675939E+02</pdfrwt>
<totfact> 0.79168564E+07</totfact>
</mgrwt>
</event>
<event>
 4    1  0.7151341E+004  0.2743689E+02  0.7546771E-02  0.1628281E+00
         21   -1    0    0  503  502  0.00000000000E+00  0.00000000000E+00  0.10498618348E+02  0.10498618348E+02  0.00000000000E+00 0.  1.
         21   -1    0    0  501  503 -0.00000000000E+00 -0.00000000000E+00 -0.76376224959E+02  0.76376224959E+02  0.00000000000E+00 0.  1.
          3    1    1    2  501    0 -0.25396911430E+02  0.10381700136E+02 -0.22194169419E+02  0.35289714707E+02  0.00000000000E+00 0. -1.
         -3    1    1    2    0  502  0.25396911430E+02 -0.10381700136E+02 -0.43683437192E+02  0.51585128601E+02  0.00000000000E+00 0.  1.
<mgrwt>
<rscale>  2 0.27436888E+02</rscale>
<asrwt>0</asrwt>
<pdfrwt beam="1">  1       21 0.16151721E-02 0.27436888E+02</pdfrwt>
<pdfrwt beam="2">  1       21 0.11750188E-01 0.27436888E+02</pdfrwt>
<totfact> 0.77357577E+07</totfact>
</mgrwt>
</event>
<event>
 4    1  0.7151341E+004  0.2017301E+02  0.7546771E-02  0.1741909E+00
         21   -1    0    0  503  502  0.00000000000E+00  0.00000000000E+00  0.31639081591E+02  0.31639081591E+02  0.00000000000E+00 0.  1.
         21   -1    0    0  501  503 -0.00000000000E+00 -0.00000000000E+00 -0.13288934138E+02  0.13288934138E+02  0.00000000000E+00 0.  1.
          5    1    1    2  501    0 -0.19264912272E+02  0.59844304519E+01  0.13200276551E+02  0.24108039192E+02  0.00000000000E+00 0. -1.
         -5    1    1    2    0  502  0.19264912272E+02 -0.59844304519E+01  0.51498709020E+01  0.20819976536E+02  0.00000000000E+00 0.  1.
<mgrwt>
<rscale>  2 0.20173008E+02</rscale>
<asrwt>0</asrwt>
<pdfrwt beam="1">  1       21 0.48675510E-02 0.20173008E+02</pdfrwt>
<pdfrwt beam="2">  1       21 0.20444514E-02 0.20173008E+02</pdfrwt>
<totfact> 0.20747101E+08</totfact>
</mgrwt>
</event>
<event>
 4    1  0.7151341E+004  0.2451987E+02  0.7546771E-02  0.1667995E+00
         21   -1    0    0  503  502  0.00000000000E+00  0.00000000000E+00  0.84447878229E+03  0.84447878229E+03  0.00000000000E+00 0. -1.
         21   -1    0    0  501  503 -0.00000000000E+00 -0.00000000000E+00 -0.15639722024E+01  0.15639722024E+01  0.00000000000E+00 0. -1.
          3    1    1    2  501    0  0.93484676701E+01 -0.22667826765E+02  0.10922786041E+03  0.11194619112E+03  0.00000000000E+00 0.  1.
         -3    1    1    2    0  502 -0.93484676701E+01  0.22667826765E+02  0.73368694968E+03  0.73409656337E+03  0.00000000000E+00 0. -1.
<mgrwt>
<rscale>  2 0.24519874E+02</rscale>
<asrwt>0</asrwt>
<pdfrwt beam="1">  1       21 0.12991945E+00 0.24519874E+02</pdfrwt>
<pdfrwt beam="2">  1       21 0.24061178E-03 0.24519874E+02</pdfrwt>
<totfact> 0.12647804E+07</totfact>
</mgrwt>
</event>
<event>
 4    1  0.7151341E+004  0.3169940E+02  0.7546771E-02  0.1580029E+00
         21   -1    0    0  501  502  0.00000000000E+00  0.00000000000E+00  0.25843536349E+02  0.25843536349E+02  0.00000000000E+00 0. -1.
         21   -1    0    0  502  503 -0.00000000000E+00 -0.00000000000E+00 -0.39112069620E+02  0.39112069620E+02  0.00000000000E+00 0. -1.
          4    1    1    2  501    0  0.81032363038E+00  0.31689045515E+02 -0.41441468322E+01  0.31969144233E+02  0.00000000000E+00 0. -1.
         -4    1    1    2    0  503 -0.81032363038E+00 -0.31689045515E+02 -0.91243864392E+01  0.32986461737E+02  0.00000000000E+00 0.  1.
<mgrwt>
<rscale>  2 0.31699404E+02</rscale>
<asrwt>0</asrwt>
<pdfrwt beam="1">  1       21 0.39759287E-02 0.31699404E+02</pdfrwt>
<pdfrwt beam="2">  1       21 0.60172415E-02 0.31699404E+02</pdfrwt>
<totfact> 0.59250220E+07</totfact>
</mgrwt>
</event>
<event>
 4    1  0.7151341E+004  0.2391086E+02  0.7546771E-02  0.1677157E+00
         21   -1    0    0  501  502  0.00000000000E+00  0.00000000000E+00  0.47124839337E+00  0.47124839337E+00  0.00000000000E+00 0.  1.
         21   -1    0    0  502  503 -0.00000000000E+00 -0.00000000000E+00 -0.13365378493E+04  0.13365378493E+04  0.00000000000E+00 0.  1.
          2    1    1    2  501    0 -0.19124727181E+02 -0.14351802227E+02 -0.46497473128E+03  0.46558912160E+03  0.00000000000E+00 0. -1.
         -2    1    1    2    0  503  0.19124727181E+02  0.14351802227E+02 -0.87109186959E+03  0.87141997606E+03  0.00000000000E+00 0.  1.
<mgrwt>
<rscale>  2 0.23910864E+02</rscale>
<asrwt>0</asrwt>
<pdfrwt beam="1">  1       21 0.72500465E-04 0.23910864E+02</pdfrwt>
<pdfrwt beam="2">  1       21 0.20561919E+00 0.23910864E+02</pdfrwt>
<totfact> 0.22962502E+07</totfact>
</mgrwt>
</event>
<event>
 4    1  0.7151341E+004  0.2370430E+02  0.7546771E-02  0.1680342E+00
         21   -1    0    0  503  502  0.00000000000E+00  0.00000000000E+00  0.26529921808E+02  0.26529921808E+02  0.00000000000E+00 0. -1.
         21   -1    0    0  501  503 -0.00000000000E+00 -0.00000000000E+00 -0.26157582583E+02  0.26157582583E+02  0.00000000000E+00 0. -1.
          3    1    1    2  501    0  0.21052461319E+02  0.10894382901E+02  0.11678406561E+02  0.26424967100E+02  0.00000000000E+00 0. -1.
         -3    1    1    2    0  502 -0.21052461319E+02 -0.10894382901E+02 -0.11306067336E+02  0.26262537292E+02  0.00000000000E+00 0.  1.
<mgrwt>
<rscale>  2 0.23704297E+02</rscale>
<asrwt>0</asrwt>
<pdfrwt beam="1">  1       21 0.40815265E-02 0.23704297E+02</pdfrwt>
<pdfrwt beam="2">  1       21 0.40242435E-02 0.23704297E+02</pdfrwt>
<totfact> 0.10066246E+08</totfact>
</mgrwt>
</event>
<event>
 4    1  0.7151341E+004  0.2247539E+02  0.7546771E-02  0.1700158E+00
         21   -1    0    0  503  502  0.00000000000E+00  0.00000000000E+00  0.57163500031E+02  0.57163500031E+02  0.00000000000E+00 0.  1.
         21   -1    0    0  501  503 -0.00000000000E+00 -0.00000000000E+00 -0.93333380867E+01  0.93333380867E+01  0.00000000000E+00 0.  1.
          2    1    1    2  501    0  0.21514541832E+02 -0.65013729832E+01  0.31583777701E+02  0.38764395710E+02  0.00000000000E+00 0. -1.
         -2    1    1    2    0  502 -0.21514541832E+02  0.65013729832E+01  0.16246384243E+02  0.27732442407E+02  0.00000000000E+00 0.  1.
<mgrwt>
<rscale>  2 0.22475395E+02</rscale>
<asrwt>0</asrwt>
<pdfrwt beam="1">  1       21 0.87943844E-02 0.22475395E+02</pdfrwt>
<pdfrwt beam="2">  1       21 0.14358982E-02 0.22475395E+02</pdfrwt>
<totfact> 0.14186834E+08</totfact>
</mgrwt>
</event>
<event>
 4    1  0.7151341E+004  0.2270763E+02  0.7546771E-02  0.1696294E+00
         21   -1    0    0  501  502  0.00000000000E+00  0.00000000000E+00  0.35294574328E+02  0.35294574328E+02  0.00000000000E+00 0.  1.
         21   -1    0    0  502  503 -0.00000000000E+00 -0.00000000000E+00 -0.14638752200E+02  0.14638752200E+02  0.00000000000E+00 0.  1.
          1    1    1    2  501    0 -0.19794391400E+02  0.11127387173E+02  0.92121708825E+01  0.24505117191E+02  0.00000000000E+00 0.  1.
         -1    1    1    2    0  503  0.19794391400E+02 -0.11127387173E+02  0.11443651246E+02  0.25428209336E+02  0.00000000000E+00 0. -1.
<mgrwt>
<rscale>  2 0.22707635E+02</rscale>
<asrwt>0</asrwt>
<pdfrwt beam="1">  1       21 0.54299345E-02 0.22707635E+02</pdfrwt>
<pdfrwt beam="2">  1       21 0.22521157E-02 0.22707635E+02</pdfrwt>
<totfact> 0.15605748E+08</totfact>
</mgrwt>
</event>
<event>
 4    1  0.7151341E+004  0.3521566E+02  0.7546771E-02  0.1546694E+00
         21   -1    0    0  501  502  0.00000000000E+00  0.00000000000E+00  0.77623806133E+01  0.77623806133E+01  0.00000000000E+00 0.  1.
         21   -1    0    0  502  503 -0.00000000000E+00 -0.00000000000E+00 -0.17709131861E+03  0.17709131861E+03  0.00000000000E+00 0.  1.
          1    1    1    2  501    0  0.22608478627E+02  0.26999989191E+02 -0.55752658287E+02  0.65943169686E+02  0.00000000000E+00 0.  1.
         -1    1    1    2    0  503 -0.22608478627E+02 -0.26999989191E+02 -0.11357627971E+03  0.11891052954E+03  0.00000000000E+00 0. -1.
<mgrwt>
<rscale>  2 0.35215660E+02</rscale>
<asrwt>0</asrwt>
<pdfrwt beam="1">  1       21 0.11942124E-02 0.35215660E+02</pdfrwt>
<pdfrwt beam="2">  1       21 0.27244817E-01 0.35215660E+02</pdfrwt>
<totfact> 0.29697310E+07</totfact>
</mgrwt>
</event>
<event>
 4    1  0.7151341E+004  0.2170492E+02  0.7546771E-02  0.1713406E+00
         21   -1    0    0  503  502  0.00000000000E+00  0.00000000000E+00  0.30371296729E+02  0.30371296729E+02  0.00000000000E+00 0.  1.
         21   -1    0    0  501  503 -0.00000000000E+00 -0.00000000000E+00 -0.16119261391E+02  0.16119261391E+02  0.00000000000E+00 0.  1.
          5    1    1    2  501    0  0.36236687361E+01 -0.21400297760E+02  0.11639756163E+02  0.24629000038E+02  0.00000000000E+00 0. -1.
         -5    1    1    2    0  502 -0.36236687361E+01  0.21400297760E+02  0.26122791750E+01  0.21861558083E+02  0.00000000000E+00 0.  1.
<mgrwt>
<rscale>  2 0.21704924E+02</rscale>
<asrwt>0</asrwt>
<pdfrwt beam="1">  1       21 0.46725072E-02 0.21704924E+02</pdfrwt>
<pdfrwt beam="2">  1       21 0.24798864E-02 0.21704924E+02</pdfrwt>
<totfact> 0.16845545E+08</totfact>
</mgrwt>
</event>
<event>
 4    1  0.7151341E+004  0.2098887E+02  0.7546771E-02  0.1726349E+00
         21   -1    0    0  501  502  0.00000000000E+00  0.00000000000E+00  0.13870492555E+02  0.13870492555E+02  0.00000000000E+00 0. -1.
         21   -1    0    0  502  503 -0.00000000000E+00 -0.00000000000E+00 -0.56177424256E+02  0.56177424256E+02  0.00000000000E+00 0. -1.
          5    1    1    2  501    0  0.18148604891E+02  0.10543286123E+02  0.19368811718E+01  0.21078051391E+02  0.00000000000E+00 0. -1.
         -5    1    1    2    0  503 -0.18148604891E+02 -0.10543286123E+02 -0.44243812872E+02  0.48969865420E+02  0.00000000000E+00 0.  1.
<mgrwt>
<rscale>  2 0.20988872E+02</rscale>
<asrwt>0</asrwt>
<pdfrwt beam="1">  1       21 0.21339220E-02 0.20988872E+02</pdfrwt>
<pdfrwt beam="2">  1       21 0.86426806E-02 0.20988872E+02</pdfrwt>
<totfact> 0.78219047E+07</totfact>
</mgrwt>
</event>
<event>
 4    1  0.7151341E+004  0.2662077E+02  0.7546771E-02  0.1638757E+00
         21   -1    0    0  501  502  0.00000000000E+00  0.00000000000E+00  0.28458835765E+03  0.28458835765E+03  0.00000000000E+00 0.  1.
         21   -1    0    0  502  503 -0.00000000000E+00 -0.00000000000E+00 -0.32406743315E+01  0.32406743315E+01  0.00000000000E+00 0.  1.
          1    1    1    2  501    0 -0.18735848078E+02 -0.18911197693E+02  0.20993211031E+03  0.21161322345E+03  0.00000000000E+00 0.  1.
         -1    1    1    2    0  503  0.18735848078E+02  0.18911197693E+02  0.71415573009E+02  0.76215808528E+02  0.00000000000E+00 0. -1.
<mgrwt>
<rscale>  2 0.26620770E+02</rscale>
<asrwt>0</asrwt>
<pdfrwt beam="1">  1       21 0.43782805E-01 0.26620770E+02</pdfrwt>
<pdfrwt beam="2">  1       21 0.49856551E-03 0.26620770E+02</pdfrwt>
<totfact> 0.43088055E+07</totfact>
</mgrwt>
</event>
<event>
 4    1  0.7151341E+004  0.2021485E+02  0.7546771E-02  0.1741089E+00
         21   -1    0    0  501  502  0.00000000000E+00  0.00000000000E+00  0.96096375529E+02  0.96096375529E+02  0.00000000000E+00 0. -1.
         21   -1    0    0  502  503 -0.00000000000E+00 -0.00000000000E+00 -0.42769748364E+01  0.42769748364E+01  0.00000000000E+00 0. -1.
          4    1    1    2  501    0  0.81644947502E+00 -0.20198358938E+02  0.49713865006E+02  0.53666643899E+02  0.00000000000E+00 0. -1.
         -4    1    1    2    0  503 -0.81644947502E+00  0.20198358938E+02  0.42105535687E+02  0.46706706467E+02  0.00000000000E+00 0.  1.
<mgrwt>
<rscale>  2 0.20214853E+02</rscale>
<asrwt>0</asrwt>
<pdfrwt beam="1">  1       21 0.14784056E-01 0.20214853E+02</pdfrwt>
<pdfrwt beam="2">  1       21 0.65799620E-03 0.20214853E+02</pdfrwt>
<totfact> 0.18609235E+08</totfact>
</mgrwt>
</event>
<event>
 4    1  0.7151341E+004  0.2201014E+02  0.7546771E-02  0.1708077E+00
         21   -1    0    0  501  502  0.00000000000E+00  0.00000000000E+00  0.44409124663E+01  0.44409124663E+01  0.00000000000E+00 0. -1.
         21   -1    0    0  502  503 -0.00000000000E+00 -0.00000000000E+00 -0.13888025471E+03  0.13888025471E+03  0.00000000000E+00 0. -1.
          3    1    1    2  501    0 -0.18359900890E+02 -0.12139205345E+02 -0.10041051745E+03  0.10279454403E+03  0.00000000000E+00 0.  1.
         -3    1    1    2    0  503  0.18359900890E+02  0.12139205345E+02 -0.34028824794E+02  0.40526623150E+02  0.00000000000E+00 0. -1.
<mgrwt>
<rscale>  2 0.22010140E+02</rscale>
<asrwt>0</asrwt>
<pdfrwt beam="1">  1       21 0.68321733E-03 0.22010140E+02</pdfrwt>
<pdfrwt beam="2">  1       21 0.21366192E-01 0.22010140E+02</pdfrwt>
<totfact> 0.95773938E+07</totfact>
</mgrwt>
</event>
<event>
 4    1  0.7151341E+004  0.3455135E+02  0.7546771E-02  0.1552621E+00
         21   -1    0    0  501  502  0.00000000000E+00  0.00000000000E+00  0.11602939215E+02  0.11602939215E+02  0.00000000000E+00 0.  1.
         21   -1    0    0  502  503 -0.00000000000E+00 -0.00000000000E+00 -0.10695798491E+03  0.10695798491E+03  0.00000000000E+00 0.  1.
          3    1    1    2  501    0  0.25726685634E+01  0.34455437275E+02 -0.36112791999E+02  0.49979290984E+02  0.00000000000E+00 0. -1.
         -3    1    1    2    0  503 -0.25726685634E+01 -0.34455437275E+02 -0.59242253698E+02  0.68581633143E+02  0.00000000000E+00 0.  1.
<mgrwt>
<rscale>  2 0.34551350E+02</rscale>
<asrwt>0</asrwt>
<pdfrwt beam="1">  1       21 0.17850676E-02 0.34551350E+02</pdfrwt>
<pdfrwt beam="2">  1       21 0.16455074E-01 0.34551350E+02</pdfrwt>
<totfact> 0.39177446E+07</totfact>
</mgrwt>
</event>
<event>
 4    1  0.7151341E+004  0.2224255E+02  0.7546771E-02  0.1704091E+00
         21   -1    0    0  503  502  0.00000000000E+00  0.00000000000E+00  0.42223059594E+02  0.42223059594E+02  0.00000000000E+00 0. -1.
         21   -1    0    0  501  503 -0.00000000000E+00 -0.00000000000E+00 -0.11861225430E+02  0.11861225430E+02  0.00000000000E+00 0. -1.
          5    1    1    2  501    0 -0.19305576652E+02 -0.11046531094E+02  0.12199857750E+02  0.25368635521E+02  0.00000000000E+00 0.  1.
         -5    1    1    2    0  502  0.19305576652E+02  0.11046531094E+02  0.18161976414E+02  0.28715649503E+02  0.00000000000E+00 0. -1.
<mgrwt>
<rscale>  2 0.22242552E+02</rscale>
<asrwt>0</asrwt>
<pdfrwt beam="1">  1       21 0.64958552E-02 0.22242552E+02</pdfrwt>
<pdfrwt beam="2">  1       21 0.18248039E-02 0.22242552E+02</pdfrwt>
<totfact> 0.16062692E+08</totfact>
</mgrwt>
</event>
<event>
 4    1  0.7151341E+004  0.2181017E+02  0.7546771E-02  0.1711556E+00
         21   -1    0    0  501  502  0.00000000000E+00  0.00000000000E+00  0.55985055172E+01  0.55985055172E+01  0.00000000000E+00 0.  1.
         21   -1    0    0  502  503 -0.00000000000E+00 -0.00000000000E+00 -0.11765030362E+03  0.11765030362E+03  0.00000000000E+00 0.  1.
          1    1    1    2  501    0  0.10107546649E+02  0.19326695167E+02 -0.23545256589E+02  0.32094590715E+02  0.00000000000E+00 0. -1.
         -1    1    1    2    0  503 -0.10107546649E+02 -0.19326695167E+02 -0.88506541516E+02  0.91154218424E+02  0.00000000000E+00 0.  1.
<mgrwt>
<rscale>  2 0.21810173E+02</rscale>
<asrwt>0</asrwt>
<pdfrwt beam="1">  1       21 0.86130854E-03 0.21810173E+02</pdfrwt>
<pdfrwt beam="2">  1       21 0.18100047E-01 0.21810173E+02</pdfrwt>
<totfact> 0.90293399E+07</totfact>
</mgrwt>
</event>
<event>
 4    1  0.7151341E+004  0.2698378E+02  0.7546771E-02  0.1634041E+00
         21   -1    0    0  501  502  0.00000000000E+00  0.00000000000E+00  0.19970542409E+03  0.19970542409E+03  0.00000000000E+00 0.  1.
         21   -1    0    0  502  503 -0.00000000000E+00 -0.00000000000E+00 -0.36690715783E+01  0.36690715783E+01  0.00000000000E+00 0.  1.
          4    1    1    2  501    0 -0.16605058268E+02 -0.21269612507E+02  0.89953212032E+02  0.93913283039E+02  0.00000000000E+00 0.  1.
         -4    1    1    2    0  503  0.16605058268E+02  0.21269612507E+02  0.10608314048E+03  0.10946121263E+03  0.00000000000E+00 0. -1.
<mgrwt>
<rscale>  2 0.26983780E+02</rscale>
<asrwt>0</asrwt>
<pdfrwt beam="1">  1       21 0.30723903E-01 0.26983780E+02</pdfrwt>
<pdfrwt beam="2">  1       21 0.56447271E-03 0.26983780E+02</pdfrwt>
<totfact> 0.69857510E+07</totfact>
</mgrwt>
</event>
<event>
 4    1  0.7151341E+004  0.2371654E+02  0.7546771E-02  0.1680152E+00
         21   -1    0    0  501  502  0.00000000000E+00  0.00000000000E+00  0.23998920078E+03  0.23998920078E+03  0.00000000000E+00 0.  1.
         21   -1    0    0  502  503 -0.00000000000E+00 -0.00000000000E+00 -0.25394684054E+01  0.25394684054E+01  0.00000000000E+00 0.  1.
          5    1    1    2  501    0 -0.23621477842E+02  0.21213413837E+01  0.85059813884E+02  0.88304282131E+02  0.00000000000E+00 0. -1.
         -5    1    1    2    0  503  0.23621477842E+02 -0.21213413837E+01  0.15238991849E+03  0.15422438705E+03  0.00000000000E+00 0.  1.
<mgrwt>
<rscale>  2 0.23716541E+02</rscale>
<asrwt>0</asrwt>
<pdfrwt beam="1">  1       21 0.36921398E-01 0.23716541E+02</pdfrwt>
<pdfrwt beam="2">  1       21 0.39068764E-03 0.23716541E+02</pdfrwt>
<totfact> 0.82987106E+07</totfact>
</mgrwt>
</event>
<event>
 4    1  0.7151341E+004  0.2672572E+02  0.7546771E-02  0.1637384E+00
         21   -1    0    0  501  502  0.00000000000E+00  0.00000000000E+00  0.25511790746E+03  0.25511790746E+03  0.00000000000E+00 0. -1.
         21   -1    0    0  502  503 -0.00000000000E+00 -0.00000000000E+00 -0.28132082811E+01  0.28132082811E+01  0.00000000000E+00 0. -1.
          5    1    1    2  501    0  0.44168050736E+01  0.26358220525E+02  0.11722916958E+03  0.12023702490E+03  0.00000000000E+00 0. -1.
         -5    1    1    2    0  503 -0.44168050736E+01 -0.26358220525E+02  0.13507552961E+03  0.13769409085E+03  0.00000000000E+00 0.  1.
<mgrwt>
<rscale>  2 0.26725717E+02</rscale>
<asrwt>0</asrwt>
<pdfrwt beam="1">  1       21 0.39248890E-01 0.26725717E+02</pdfrwt>
<pdfrwt beam="2">  1       21 0.43280148E-03 0.26725717E+02</pdfrwt>
<totfact> 0.65477092E+07</totfact>
</mgrwt>
</event>
<event>
 4    1  0.7151341E+004  0.3205801E+02  0.7546771E-02  0.1576394E+00
         21   -1    0    0  503  502  0.00000000000E+00  0.00000000000E+00  0.18795423276E+01  0.18795423276E+01  0.00000000000E+00 0. -1.
         21   -1    0    0  501  503 -0.00000000000E+00 -0.00000000000E+00 -0.54765055897E+03  0.54765055897E+03  0.00000000000E+00 0. -1.
          4    1    1    2  501    0  0.70980941696E+01  0.31262330767E+02 -0.28377288440E+03  0.28557795115E+03  0.00000000000E+00 0.  1.
         -4    1    1    2    0  502 -0.70980941696E+01 -0.31262330767E+02 -0.26199813224E+03  0.26395215014E+03  0.00000000000E+00 0. -1.
<mgrwt>
<rscale>  2 0.32058014E+02</rscale>
<asrwt>0</asrwt>
<pdfrwt beam="1">  1       21 0.28916053E-03 0.32058014E+02</pdfrwt>
<pdfrwt beam="2">  1       21 0.84253882E-01 0.32058014E+02</pdfrwt>
<totfact> 0.26474192E+07</totfact>
</mgrwt>
</event>
<event>
 4    1  0.7151341E+004  0.2838655E+02  0.7546771E-02  0.1616640E+00
         21   -1    0    0  503  502  0.00000000000E+00  0.00000000000E+00  0.10469969524E+03  0.10469969524E+03  0.00000000000E+00 0. -1.
         21   -1    0    0  501  503 -0.00000000000E+00 -0.00000000000E+00 -0.10025253389E+02  0.10025253389E+02  0.00000000000E+00 0. -1.
          3    1    1    2  501    0  0.23648615487E+02  0.15701571525E+02  0.19689198692E+02  0.34546503556E+02  0.00000000000E+00 0. -1.
         -3    1    1    2    0  502 -0.23648615487E+02 -0.15701571525E+02  0.74985243157E+02  0.80178445072E+02  0.00000000000E+00 0.  1.
<mgrwt>
<rscale>  2 0.28386552E+02</rscale>
<asrwt>0</asrwt>
<pdfrwt beam="1">  1       21 0.16107645E-01 0.28386552E+02</pdfrwt>
<pdfrwt beam="2">  1       21 0.15423468E-02 0.28386552E+02</pdfrwt>
<totfact> 0.48883856E+07</totfact>
</mgrwt>
</event>
<event>
 4    1  0.7151341E+004  0.2189168E+02  0.7546771E-02  0.1710132E+00
         21   -1    0    0  501  502  0.00000000000E+00  0.00000000000E+00  0.53639161550E+01  0.53639161550E+01  0.00000000000E+00 0.  1.
         21   -1    0    0  502  503 -0.00000000000E+00 -0.00000000000E+00 -0.10948315495E+03  0.10948315495E+03  0.00000000000E+00 0.  1.
          4    1    1    2  501    0  0.18138270901E+02 -0.12257597162E+02 -0.27432528831E+02  0.35096854525E+02  0.00000000000E+00 0. -1.
         -4    1    1    2    0  503 -0.18138270901E+02  0.12257597162E+02 -0.76686709963E+02  0.79750216580E+02  0.00000000000E+00 0.  1.
<mgrwt>
<rscale>  2 0.21891678E+02</rscale>
<asrwt>0</asrwt>
<pdfrwt beam="1">  1       21 0.82521796E-03 0.21891678E+02</pdfrwt>
<pdfrwt beam="2">  1       21 0.16843560E-01 0.21891678E+02</pdfrwt>
<totfact> 0.10904106E+08</totfact>
</mgrwt>
</event>
<event>
 4    1  0.7151341E+004  0.2256319E+02  0.7546771E-02  0.1698690E+00
         21   -1    0    0  503  502  0.00000000000E+00  0.00000000000E+00  0.16230712738E+01  0.16230712738E+01  0.00000000000E+00 0.  1.
         21   -1    0    0  501  503 -0.00000000000E+00 -0.00000000000E+00 -0.38202900220E+03  0.38202900220E+03  0.00000000000E+00 0.  1.
          1    1    1    2  501    0 -0.22523958382E+02  0.13300236671E+01 -0.10905475030E+03  0.11136442981E+03  0.00000000000E+00 0. -1.
         -1    1    1    2    0  502  0.22523958382E+02 -0.13300236671E+01 -0.27135118062E+03  0.27228764366E+03  0.00000000000E+00 0.  1.
<mgrwt>
<rscale>  2 0.22563193E+02</rscale>
<asrwt>0</asrwt>
<pdfrwt beam="1">  1       21 0.24970316E-03 0.22563193E+02</pdfrwt>
<pdfrwt beam="2">  1       21 0.58773718E-01 0.22563193E+02</pdfrwt>
<totfact> 0.64319633E+07</totfact>
</mgrwt>
</event>
<event>
 4    1  0.7151341E+004  0.2425932E+02  0.7546771E-02  0.1671874E+00
         21   -1    0    0  501  502  0.00000000000E+00  0.00000000000E+00  0.73203502302E+02  0.73203502302E+02  0.00000000000E+00 0.  1.
         21   -1    0    0  502  503 -0.00000000000E+00 -0.00000000000E+00 -0.81681108309E+01  0.81681108309E+01  0.00000000000E+00 0.  1.
          4    1    1    2  501    0 -0.22990473864E+02 -0.77429095129E+01  0.37624352366E+02  0.44767247259E+02  0.00000000000E+00 0.  1.
         -4    1    1    2    0  503  0.22990473864E+02  0.77429095129E+01  0.27411039105E+02  0.36604365874E+02  0.00000000000E+00 0. -1.
<mgrwt>
<rscale>  2 0.24259319E+02</rscale>
<asrwt>0</asrwt>
<pdfrwt beam="1">  1       21 0.11262077E-01 0.24259319E+02</pdfrwt>
<pdfrwt beam="2">  1       21 0.12566325E-02 0.24259319E+02</pdfrwt>
<totfact> 0.11793599E+08</totfact>
</mgrwt>
</event>
<event>
 4    1  0.7151341E+004  0.2193694E+02  0.7546771E-02  0.1709345E+00
         21   -1    0    0  501  502  0.00000000000E+00  0.00000000000E+00  0.84649078129E+01  0.84649078129E+01  0.00000000000E+00 0. -1.
         21   -1    0    0  502  503 -0.00000000000E+00 -0.00000000000E+00 -0.81562157106E+02  0.81562157106E+02  0.00000000000E+00 0. -1.
          2    1    1    2  501    0 -0.30529059190E+01 -0.21723471419E+02 -0.61325963364E+02  0.65131430413E+02  0.00000000000E+00 0. -1.
         -2    1    1    2    0  503  0.30529059190E+01  0.21723471419E+02 -0.11771285929E+02  0.24895634506E+02  0.00000000000E+00 0.  1.
<mgrwt>
<rscale>  2 0.21936942E+02</rscale>
<asrwt>0</asrwt>
<pdfrwt beam="1">  1       21 0.13022936E-02 0.21936942E+02</pdfrwt>
<pdfrwt beam="2">  1       21 0.12548024E-01 0.21936942E+02</pdfrwt>
<totfact> 0.90613359E+07</totfact>
</mgrwt>
</event>
<event>
 4    1  0.7151341E+004  0.2221751E+02  0.7546771E-02  0.1704517E+00
         21   -1    0    0  501  502  0.00000000000E+00  0.00000000000E+00  0.25548596203E+02  0.25548596203E+02  0.00000000000E+00 0.  1.
         21   -1    0    0  502  503 -0.00000000000E+00 -0.00000000000E+00 -0.23450414825E+02  0.23450414825E+02  0.00000000000E+00 0.  1.
          1    1    1    2  501    0  0.99397300918E+01 -0.19870068736E+02 -0.92320147917E+01  0.24059259403E+02  0.00000000000E+00 0.  1.
         -1    1    1    2    0  503 -0.99397300918E+01  0.19870068736E+02  0.11330196170E+02  0.24939751626E+02  0.00000000000E+00 0. -1.
<mgrwt>
<rscale>  2 0.22217513E+02</rscale>
<asrwt>0</asrwt>
<pdfrwt beam="1">  1       21 0.39305533E-02 0.22217513E+02</pdfrwt>
<pdfrwt beam="2">  1       21 0.36077561E-02 0.22217513E+02</pdfrwt>
<totfact> 0.12445321E+08</totfact>
</mgrwt>
</event>
<event>
 4    1  0.7151341E+004  0.2277597E+02  0.7546771E-02  0.1695167E+00
         21   -1    0    0  501  502  0.00000000000E+00  0.00000000000E+00  0.33136583314E+02  0.33136583314E+02  0.00000000000E+00 0.  1.
         21   -1    0    0  502  503 -0.00000000000E+00 -0.00000000000E+00 -0.21844252397E+02  0.21844252397E+02  0.00000000000E+00 0.  1.
          2    1    1    2  501    0  0.20824952267E+02 -0.92231446456E+01 -0.89870748026E+01  0.24484945326E+02  0.00000000000E+00 0. -1.
         -2    1    1    2    0  503 -0.20824952267E+02  0.92231446456E+01  0.20279405719E+02  0.30495890386E+02  0.00000000000E+00 0.  1.
<mgrwt>
<rscale>  2 0.22775975E+02</rscale>
<asrwt>0</asrwt>
<pdfrwt beam="1">  1       21 0.50979359E-02 0.22775975E+02</pdfrwt>
<pdfrwt beam="2">  1       21 0.33606542E-02 0.22775975E+02</pdfrwt>
<totfact> 0.92825839E+07</totfact>
</mgrwt>
</event>
<event>
 4    1  0.7151341E+004  0.2452201E+02  0.7546771E-02  0.1667964E+00
         21   -1    0    0  503  502  0.00000000000E+00  0.00000000000E+00  0.19545616932E+02  0.19545616932E+02  0.00000000000E+00 0.  1.
         21   -1    0    0  501  503 -0.00000000000E+00 -0.00000000000E+00 -0.35457270403E+02  0.35457270403E+02  0.00000000000E+00 0.  1.
          3    1    1    2  501    0  0.22039375034E+02  0.10751504588E+02  0.20482133020E+01  0.24607398898E+02  0.00000000000E+00 0. -1.
         -3    1    1    2    0  502 -0.22039375034E+02 -0.10751504588E+02 -0.17959866773E+02  0.30395488437E+02  0.00000000000E+00 0.  1.
<mgrwt>
<rscale>  2 0.24522009E+02</rscale>
<asrwt>0</asrwt>
<pdfrwt beam="1">  1       21 0.30070180E-02 0.24522009E+02</pdfrwt>
<pdfrwt beam="2">  1       21 0.54549647E-02 0.24522009E+02</pdfrwt>
<totfact> 0.10122578E+08</totfact>
</mgrwt>
</event>
<event>
 4    1  0.7151341E+004  0.2869967E+02  0.7546771E-02  0.1612923E+00
         21   -1    0    0  501  502  0.00000000000E+00  0.00000000000E+00  0.60748274050E+02  0.60748274050E+02  0.00000000000E+00 0. -1.
         21   -1    0    0  502  503 -0.00000000000E+00 -0.00000000000E+00 -0.15427923917E+02  0.15427923917E+02  0.00000000000E+00 0. -1.
          4    1    1    2  501    0  0.28614558584E+02 -0.22086375538E+01  0.94027348212E+01  0.30200703054E+02  0.00000000000E+00 0.  1.
         -4    1    1    2    0  503 -0.28614558584E+02  0.22086375538E+01  0.35917615312E+02  0.45975494913E+02  0.00000000000E+00 0. -1.
<mgrwt>
<rscale>  2 0.28699670E+02</rscale>
<asrwt>0</asrwt>
<pdfrwt beam="1">  1       21 0.93458882E-02 0.28699670E+02</pdfrwt>
<pdfrwt beam="2">  1       21 0.23735268E-02 0.28699670E+02</pdfrwt>
<totfact> 0.63300360E+07</totfact>
</mgrwt>
</event>
<event>
 4    1  0.7151341E+004  0.2043784E+02  0.7546771E-02  0.1736759E+00
         21   -1    0    0  501  502  0.00000000000E+00  0.00000000000E+00  0.13985388070E+03  0.13985388070E+03  0.00000000000E+00 0.  1.
         21   -1    0    0  502  503 -0.00000000000E+00 -0.00000000000E+00 -0.29869160098E+01  0.29869160098E+01  0.00000000000E+00 0.  1.
          2    1    1    2  501    0 -0.46505948021E+01 -0.19901688166E+02  0.67863868209E+02  0.70874606399E+02  0.00000000000E+00 0.  1.
         -2    1    1    2    0  503  0.46505948021E+01  0.19901688166E+02  0.69003096480E+02  0.71966190310E+02  0.00000000000E+00 0. -1.
<mgrwt>
<rscale>  2 0.20437838E+02</rscale>
<asrwt>0</asrwt>
<pdfrwt beam="1">  1       21 0.21515977E-01 0.20437838E+02</pdfrwt>
<pdfrwt beam="2">  1       21 0.45952565E-03 0.20437838E+02</pdfrwt>
<totfact> 0.16621799E+08</totfact>
</mgrwt>
</event>
<event>
 4    1  0.7151341E+004  0.3122337E+02  0.7546771E-02  0.1584947E+00
         21   -1    0    0  503  502  0.00000000000E+00  0.00000000000E+00  0.91465150096E+02  0.91465150096E+02  0.00000000000E+00 0.  1.
         21   -1    0    0  501  503 -0.00000000000E+00 -0.00000000000E+00 -0.11755803841E+02  0.11755803841E+02  0.00000000000E+00 0.  1.
          4    1    1    2  501    0 -0.12615023853E+02  0.28561509396E+02  0.24088088365E+02  0.39435195534E+02  0.00000000000E+00 0.  1.
         -4    1    1    2    0  502  0.12615023853E+02 -0.28561509396E+02  0.55621257890E+02  0.63785758402E+02  0.00000000000E+00 0. -1.
<mgrwt>
<rscale>  2 0.31223367E+02</rscale>
<asrwt>0</asrwt>
<pdfrwt beam="1">  1       21 0.14071561E-01 0.31223367E+02</pdfrwt>
<pdfrwt beam="2">  1       21 0.18085853E-02 0.31223367E+02</pdfrwt>
<totfact> 0.49288708E+07</totfact>
</mgrwt>
</event>
<event>
 4    1  0.7151341E+004  0.2099339E+02  0.7546771E-02  0.1726266E+00
         21   -1    0    0  503  502  0.00000000000E+00  0.00000000000E+00  0.46703116716E+00  0.46703116716E+00  0.00000000000E+00 0.  1.
         21   -1    0    0  501  503 -0.00000000000E+00 -0.00000000000E+00 -0.94554382990E+03  0.94554382990E+03  0.00000000000E+00 0.  1.
          5    1    1    2  501    0  0.19838893926E+02  0.68659153214E+01 -0.45147212095E+03  0.45195995232E+03  0.00000000000E+00 0. -1.
         -5    1    1    2    0  502 -0.19838893926E+02 -0.68659153214E+01 -0.49360467778E+03  0.49405090874E+03  0.00000000000E+00 0.  1.
<mgrwt>
<rscale>  2 0.20993392E+02</rscale>
<asrwt>0</asrwt>
<pdfrwt beam="1">  1       21 0.71851676E-04 0.20993392E+02</pdfrwt>
<pdfrwt beam="2">  1       21 0.14546681E+00 0.20993392E+02</pdfrwt>
<totfact> 0.53278846E+07</totfact>
</mgrwt>
</event>
<event>
 4    1  0.7151341E+004  0.2587579E+02  0.7546771E-02  0.1648732E+00
         21   -1    0    0  503  502  0.00000000000E+00  0.00000000000E+00  0.15681421272E+04  0.15681421272E+04  0.00000000000E+00 0.  1.
         21   -1    0    0  501  503 -0.00000000000E+00 -0.00000000000E+00 -0.50815132288E+00  0.50815132288E+00  0.00000000000E+00 0.  1.
          2    1    1    2  501    0 -0.38216030293E+01  0.25592023611E+02  0.10973016345E+04  0.10976066843E+04  0.00000000000E+00 0.  1.
         -2    1    1    2    0  502  0.38216030293E+01 -0.25592023611E+02  0.47033234131E+03  0.47104359416E+03  0.00000000000E+00 0. -1.
<mgrwt>
<rscale>  2 0.25875786E+02</rscale>
<asrwt>0</asrwt>
<pdfrwt beam="1">  1       21 0.24124876E+00 0.25875786E+02</pdfrwt>
<pdfrwt beam="2">  1       21 0.78178382E-04 0.25875786E+02</pdfrwt>
<totfact> 0.13497142E+07</totfact>
</mgrwt>
</event>
<event>
 4    1  0.7151341E+004  0.3686017E+02  0.7546771E-02  0.1532676E+00
         21   -1    0    0  501  502  0.00000000000E+00  0.00000000000E+00  0.60822885364E+03  0.60822885364E+03  0.00000000000E+00 0. -1.
         21   -1    0    0  502  503 -0.00000000000E+00 -0.00000000000E+00 -0.32042182974E+01  0.32042182974E+01  0.00000000000E+00 0. -1.
          2    1    1    2  501    0 -0.27749706567E+02  0.24261618072E+02  0.47075393283E+03  0.47219480896E+03  0.00000000000E+00 0.  1.
         -2    1    1    2    0  503  0.27749706567E+02 -0.24261618072E+02  0.13427070251E+03  0.13923826298E+03  0.00000000000E+00 0. -1.
<mgrwt>
<rscale>  2 0.36860173E+02</rscale>
<asrwt>0</asrwt>
<pdfrwt beam="1">  1       21 0.93573578E-01 0.36860173E+02</pdfrwt>
<pdfrwt beam="2">  1       21 0.49295715E-03 0.36860173E+02</pdfrwt>
<totfact> 0.97416651E+06</totfact>
</mgrwt>
</event>
<event>
 4    1  0.7151341E+004  0.2023024E+02  0.7546771E-02  0.1740788E+00
         21   -1    0    0  501  502  0.00000000000E+00  0.00000000000E+00  0.34530549590E+02  0.34530549590E+02  0.00000000000E+00 0. -1.
         21   -1    0    0  502  503 -0.00000000000E+00 -0.00000000000E+00 -0.12729124085E+02  0.12729124085E+02  0.00000000000E+00 0. -1.
          4    1    1    2  501    0  0.71547450722E+01 -0.18922799849E+02  0.17102891026E+02  0.26490972285E+02  0.00000000000E+00 0.  1.
         -4    1    1    2    0  503 -0.71547450722E+01  0.18922799849E+02  0.46985344781E+01  0.20768701389E+02  0.00000000000E+00 0. -1.
<mgrwt>
<rscale>  2 0.20230243E+02</rscale>
<asrwt>0</asrwt>
<pdfrwt beam="1">  1       21 0.53123922E-02 0.20230243E+02</pdfrwt>
<pdfrwt beam="2">  1       21 0.19583268E-02 0.20230243E+02</pdfrwt>
<totfact> 0.19307569E+08</totfact>
</mgrwt>
</event>
<event>
 4    1  0.7151341E+004  0.2521817E+02  0.7546771E-02  0.1657888E+00
         21   -1    0    0  503  502  0.00000000000E+00  0.00000000000E+00  0.11348816770E+01  0.11348816770E+01  0.00000000000E+00 0.  1.
         21   -1    0    0  501  503 -0.00000000000E+00 -0.00000000000E+00 -0.56365749178E+03  0.56365749178E+03  0.00000000000E+00 0.  1.
          5    1    1    2  501    0  0.16630790142E+02 -0.18957129124E+02 -0.30282140546E+03  0.30386964233E+03  0.00000000000E+00 0. -1.
         -5    1    1    2    0  502 -0.16630790142E+02  0.18957129124E+02 -0.25970120464E+03  0.26092273113E+03  0.00000000000E+00 0.  1.
<mgrwt>
<rscale>  2 0.25218167E+02</rscale>
<asrwt>0</asrwt>
<pdfrwt beam="1">  1       21 0.17459736E-03 0.25218167E+02</pdfrwt>
<pdfrwt beam="2">  1       21 0.86716449E-01 0.25218167E+02</pdfrwt>
<totfact> 0.49650597E+07</totfact>
</mgrwt>
</event>
<event>
 4    1  0.7151341E+004  0.3438011E+02  0.7546771E-02  0.1554175E+00
         21   -1    0    0  503  502  0.00000000000E+00  0.00000000000E+00  0.87431362320E+01  0.87431362320E+01  0.00000000000E+00 0. -1.
         21   -1    0    0  501  503 -0.00000000000E+00 -0.00000000000E+00 -0.14648977990E+03  0.14648977990E+03  0.00000000000E+00 0. -1.
          3    1    1    2  501    0 -0.13635103956E+02 -0.31560672722E+02 -0.47317301414E+02  0.58488623985E+02  0.00000000000E+00 0.  1.
         -3    1    1    2    0  502  0.13635103956E+02  0.31560672722E+02 -0.90429342255E+02  0.96744292148E+02  0.00000000000E+00 0. -1.
<mgrwt>
<rscale>  2 0.34380112E+02</rscale>
<asrwt>0</asrwt>
<pdfrwt beam="1">  1       21 0.13450979E-02 0.34380112E+02</pdfrwt>
<pdfrwt beam="2">  1       21 0.22536889E-01 0.34380112E+02</pdfrwt>
<totfact> 0.34736160E+07</totfact>
</mgrwt>
</event>
<event>
 4    1  0.7151341E+004  0.2598272E+02  0.7546771E-02  0.1647275E+00
         21   -1    0    0  503  502  0.00000000000E+00  0.00000000000E+00  0.30195462701E+02  0.30195462701E+02  0.00000000000E+00 0.  1.
         21   -1    0    0  501  503 -0.00000000000E+00 -0.00000000000E+00 -0.24424042660E+02  0.24424042660E+02  0.00000000000E+00 0.  1.
          4    1    1    2  501    0 -0.25795851460E+02  0.31106111728E+01  0.10829130004E+02  0.28149101426E+02  0.00000000000E+00 0.  1.
         -4    1    1    2    0  502  0.25795851460E+02 -0.31106111728E+01 -0.50577099634E+01  0.26470403935E+02  0.00000000000E+00 0. -1.
<mgrwt>
<rscale>  2 0.25982722E+02</rscale>
<asrwt>0</asrwt>
<pdfrwt beam="1">  1       21 0.46454558E-02 0.25982722E+02</pdfrwt>
<pdfrwt beam="2">  1       21 0.37575451E-02 0.25982722E+02</pdfrwt>
<totfact> 0.93652324E+07</totfact>
</mgrwt>
</event>
<event>
 4    1  0.7151341E+004  0.2268895E+02  0.7546771E-02  0.1696602E+00
         21   -1    0    0  503  502  0.00000000000E+00  0.00000000000E+00  0.28815959022E+00  0.28815959022E+00  0.00000000000E+00 0.  1.
         21   -1    0    0  501  503 -0.00000000000E+00 -0.00000000000E+00 -0.20041720380E+04  0.20041720380E+04  0.00000000000E+00 0.  1.
          5    1    1    2  501    0 -0.63916890885E+01  0.21770041814E+02 -0.67162459862E+03  0.67200773052E+03  0.00000000000E+00 0. -1.
         -5    1    1    2    0  502  0.63916890885E+01 -0.21770041814E+02 -0.13322592798E+04  0.13324524671E+04  0.00000000000E+00 0.  1.
<mgrwt>
<rscale>  2 0.22688949E+02</rscale>
<asrwt>0</asrwt>
<pdfrwt beam="1">  1       21 0.44330379E-04 0.22688949E+02</pdfrwt>
<pdfrwt beam="2">  1       21 0.30834714E+00 0.22688949E+02</pdfrwt>
<totfact> 0.13993884E+07</totfact>
</mgrwt>
</event>
<event>
 4    1  0.7151341E+004  0.2600965E+02  0.7546771E-02  0.1646909E+00
         21   -1    0    0  503  502  0.00000000000E+00  0.00000000000E+00  0.11320459166E+02  0.11320459166E+02  0.00000000000E+00 0. -1.
         21   -1    0    0  501  503 -0.00000000000E+00 -0.00000000000E+00 -0.86866798307E+02  0.86866798307E+02  0.00000000000E+00 0. -1.
          2    1    1    2  501    0  0.22954147457E+02 -0.12231485611E+02 -0.10348376235E+02  0.27992695769E+02  0.00000000000E+00 0. -1.
         -2    1    1    2    0  502 -0.22954147457E+02  0.12231485611E+02 -0.65197962906E+02  0.70194561704E+02  0.00000000000E+00 0.  1.
<mgrwt>
<rscale>  2 0.26009654E+02</rscale>
<asrwt>0</asrwt>
<pdfrwt beam="1">  1       21 0.17416091E-02 0.26009654E+02</pdfrwt>
<pdfrwt beam="2">  1       21 0.13364123E-01 0.26009654E+02</pdfrwt>
<totfact> 0.54727355E+07</totfact>
</mgrwt>
</event>
<event>
 4    1  0.7151341E+004  0.3212470E+02  0.7546771E-02  0.1575724E+00
         21   -1    0    0  501  502  0.00000000000E+00  0.00000000000E+00  0.11080512820E+03  0.11080512820E+03  0.00000000000E+00 0. -1.
         21   -1    0    0  502  503 -0.00000000000E+00 -0.00000000000E+00 -0.12487347447E+02  0.12487347447E+02  0.00000000000E+00 0. -1.
          2    1    1    2  501    0 -0.83129250684E+01  0.31030493774E+02  0.18080633045E+02  0.36863336235E+02  0.00000000000E+00 0. -1.
         -2    1    1    2    0  503  0.83129250684E+01 -0.31030493774E+02  0.80237147705E+02  0.86429139409E+02  0.00000000000E+00 0.  1.
<mgrwt>
<rscale>  2 0.32124699E+02</rscale>
<asrwt>0</asrwt>
<pdfrwt beam="1">  1       21 0.17046942E-01 0.32124699E+02</pdfrwt>
<pdfrwt beam="2">  1       21 0.19211305E-02 0.32124699E+02</pdfrwt>
<totfact> 0.32405143E+07</totfact>
</mgrwt>
</event>
<event>
 4    1  0.7151341E+004  0.2146130E+02  0.7546771E-02  0.1717739E+00
         21   -1    0    0  503  502  0.00000000000E+00  0.00000000000E+00  0.26161397093E+01  0.26161397093E+01  0.00000000000E+00 0. -1.
         21   -1    0    0  501  503 -0.00000000000E+00 -0.00000000000E+00 -0.28442880485E+03  0.28442880485E+03  0.00000000000E+00 0. -1.
          1    1    1    2  501    0 -0.20146262709E+02 -0.73969905899E+01 -0.22949803804E+03  0.23049932068E+03  0.00000000000E+00 0. -1.
         -1    1    1    2    0  502  0.20146262709E+02  0.73969905899E+01 -0.52314627104E+02  0.56545623880E+02  0.00000000000E+00 0.  1.
<mgrwt>
<rscale>  2 0.21461299E+02</rscale>
<asrwt>0</asrwt>
<pdfrwt beam="1">  1       21 0.40248319E-03 0.21461299E+02</pdfrwt>
<pdfrwt beam="2">  1       21 0.43758261E-01 0.21461299E+02</pdfrwt>
<totfact> 0.56248398E+07</totfact>
</mgrwt>
</event>
<event>
 4    1  0.7151341E+004  0.2185616E+02  0.7546771E-02  0.1710752E+00
         21   -1    0    0  503  502  0.00000000000E+00  0.00000000000E+00  0.48912920353E+02  0.48912920353E+02  0.00000000000E+00 0.  1.
         21   -1    0    0  501  503 -0.00000000000E+00 -0.00000000000E+00 -0.16739568408E+02  0.16739568408E+02  0.00000000000E+00 0.  1.
          3    1    1    2  501    0  0.11304647674E+02  0.18705528033E+02  0.37273767647E+02  0.43209091550E+02  0.00000000000E+00 0.  1.
         -3    1    1    2    0  502 -0.11304647674E+02 -0.18705528033E+02 -0.51004157019E+01  0.22443397211E+02  0.00000000000E+00 0. -1.
<mgrwt>
<rscale>  2 0.21856162E+02</rscale>
<asrwt>0</asrwt>
<pdfrwt beam="1">  1       21 0.75250646E-02 0.21856162E+02</pdfrwt>
<pdfrwt beam="2">  1       21 0.25753182E-02 0.21856162E+02</pdfrwt>
<totfact> 0.74212078E+07</totfact>
</mgrwt>
</event>
<event>
 4    1  0.7151341E+004  0.2521710E+02  0.7546771E-02  0.1657903E+00
         21   -1    0    0  503  502  0.00000000000E+00  0.00000000000E+00  0.96951538028E+02  0.96951538028E+02  0.00000000000E+00 0.  1.
         21   -1    0    0  501  503 -0.00000000000E+00 -0.00000000000E+00 -0.66393311585E+01  0.66393311585E+01  0.00000000000E+00 0.  1.
          2    1    1    2  501    0  0.77761422286E+00  0.25205110750E+02  0.50854473780E+02  0.56763366666E+02  0.00000000000E+00 0. -1.
         -2    1    1    2    0  502 -0.77761422286E+00 -0.25205110750E+02  0.39457733089E+02  0.46827502521E+02  0.00000000000E+00 0.  1.
<mgrwt>
<rscale>  2 0.25217103E+02</rscale>
<asrwt>0</asrwt>
<pdfrwt beam="1">  1       21 0.14915620E-01 0.25217103E+02</pdfrwt>
<pdfrwt beam="2">  1       21 0.10214356E-02 0.25217103E+02</pdfrwt>
<totfact> 0.10139772E+08</totfact>
</mgrwt>
</event>
<event>
 4    1  0.7151341E+004  0.2806659E+02  0.7546771E-02  0.1620499E+00
         21   -1    0    0  501  502  0.00000000000E+00  0.00000000000E+00  0.21640603726E+04  0.21640603726E+04  0.00000000000E+00 0.  1.
         21   -1    0    0  502  503 -0.00000000000E+00 -0.00000000000E+00 -0.44126067075E+00  0.44126067075E+00  0.00000000000E+00 0.  1.
          4    1    1    2  501    0  0.92588474244E+01  0.26495421396E+02  0.62897533223E+03  0.62960122471E+03  0.00000000000E+00 0. -1.
         -4    1    1    2    0  503 -0.92588474244E+01 -0.26495421396E+02  0.15346437797E+04  0.15349004085E+04  0.00000000000E+00 0.  1.
<mgrwt>
<rscale>  2 0.28066592E+02</rscale>
<asrwt>0</asrwt>
<pdfrwt beam="1">  1       21 0.33292387E+00 0.28066592E+02</pdfrwt>
<pdfrwt beam="2">  1       21 0.67887990E-04 0.28066592E+02</pdfrwt>
<totfact> 0.57995456E+06</totfact>
</mgrwt>
</event>
<event>
 4    1  0.7151341E+004  0.2036834E+02  0.7546771E-02  0.1738101E+00
         21   -1    0    0  503  502  0.00000000000E+00  0.00000000000E+00  0.21939560443E+02  0.21939560443E+02  0.00000000000E+00 0.  1.
         21   -1    0    0  501  503 -0.00000000000E+00 -0.00000000000E+00 -0.21359674719E+02  0.21359674719E+02  0.00000000000E+00 0.  1.
          4    1    1    2  501    0 -0.11203210289E+02  0.17010501393E+02  0.76222302892E+01  0.21747815362E+02  0.00000000000E+00 0.  1.
         -4    1    1    2    0  502  0.11203210289E+02 -0.17010501393E+02 -0.70423445652E+01  0.21551419800E+02  0.00000000000E+00 0. -1.
<mgrwt>
<rscale>  2 0.20368335E+02</rscale>
<asrwt>0</asrwt>
<pdfrwt beam="1">  1       21 0.33753170E-02 0.20368335E+02</pdfrwt>
<pdfrwt beam="2">  1       21 0.32861038E-02 0.20368335E+02</pdfrwt>
<totfact> 0.17788444E+08</totfact>
</mgrwt>
</event>
<event>
 4    1  0.7151341E+004  0.2355090E+02  0.7546771E-02  0.1682733E+00
         21   -1    0    0  503  502  0.00000000000E+00  0.00000000000E+00  0.25146523523E+01  0.25146523523E+01  0.00000000000E+00 0. -1.
         21   -1    0    0  501  503 -0.00000000000E+00 -0.00000000000E+00 -0.24077035699E+03  0.24077035699E+03  0.00000000000E+00 0. -1.
          5    1    1    2  501    0 -0.21601306898E+02 -0.93823349144E+01 -0.83889506004E+02  0.87132622397E+02  0.00000000000E+00 0. -1.
         -5    1    1    2    0  502  0.21601306898E+02  0.93823349144E+01 -0.15436619864E+03  0.15615238695E+03  0.00000000000E+00 0.  1.
<mgrwt>
<rscale>  2 0.23550895E+02</rscale>
<asrwt>0</asrwt>
<pdfrwt beam="1">  1       21 0.38686974E-03 0.23550895E+02</pdfrwt>
<pdfrwt beam="2">  1       21 0.37041579E-01 0.23550895E+02</pdfrwt>
<totfact> 0.83531627E+07</totfact>
</mgrwt>
</event>
<event>
 4    1  0.7151341E+004  0.3334413E+02  0.7546771E-02  0.1563817E+00
         21   -1    0    0  503  502  0.00000000000E+00  0.00000000000E+00  0.18980249021E+03  0.18980249021E+03  0.00000000000E+00 0. -1.
         21   -1    0    0  501  503 -0.00000000000E+00 -0.00000000000E+00 -0.60157014610E+01  0.60157014610E+01  0.00000000000E+00 0. -1.
          2    1    1    2  501    0  0.15427825806E+02  0.29560326362E+02  0.10775444105E+03  0.11279561282E+03  0.00000000000E+00 0. -1.
         -2    1    1    2    0  502 -0.15427825806E+02 -0.29560326362E+02  0.76032347699E+02  0.83022578859E+02  0.00000000000E+00 0.  1.
<mgrwt>
<rscale>  2 0.33344125E+02</rscale>
<asrwt>0</asrwt>
<pdfrwt beam="1">  1       21 0.29200379E-01 0.33344125E+02</pdfrwt>
<pdfrwt beam="2">  1       21 0.92549268E-03 0.33344125E+02</pdfrwt>
<totfact> 0.38171543E+07</totfact>
</mgrwt>
</event>
<event>
 4    1  0.7151341E+004  0.2018815E+02  0.7546771E-02  0.1741612E+00
         21   -1    0    0  503  502  0.00000000000E+00  0.00000000000E+00  0.98077683271E+02  0.98077683271E+02  0.00000000000E+00 0.  1.
         21   -1    0    0  501  503 -0.00000000000E+00 -0.00000000000E+00 -0.41796964308E+01  0.41796964308E+01  0.00000000000E+00 0.  1.
          3    1    1    2  501    0 -0.19891468820E+02 -0.34483096976E+01  0.43058467456E+02  0.47556208756E+02  0.00000000000E+00 0.  1.
         -3    1    1    2    0  502  0.19891468820E+02  0.34483096976E+01  0.50839519385E+02  0.54701170946E+02  0.00000000000E+00 0. -1.
<mgrwt>
<rscale>  2 0.20188149E+02</rscale>
<asrwt>0</asrwt>
<pdfrwt beam="1">  1       21 0.15088873E-01 0.20188149E+02</pdfrwt>
<pdfrwt beam="2">  1       21 0.64303030E-03 0.20188149E+02</pdfrwt>
<totfact> 0.18591091E+08</totfact>
</mgrwt>
</event>
<event>
 4    1  0.7151341E+004  0.2978258E+02  0.7546771E-02  0.1600504E+00
         21   -1    0    0  501  502  0.00000000000E+00  0.00000000000E+00  0.62233803300E+03  0.62233803300E+03  0.00000000000E+00 0. -1.
         21   -1    0    0  502  503 -0.00000000000E+00 -0.00000000000E+00 -0.15040101304E+01  0.15040101304E+01  0.00000000000E+00 0. -1.
          5    1    1    2  501    0  0.41390243721E+01  0.29493568324E+02  0.38178555593E+03  0.38294544365E+03  0.00000000000E+00 0.  1.
         -5    1    1    2    0  503 -0.41390243721E+01 -0.29493568324E+02  0.23904846694E+03  0.24089659948E+03  0.00000000000E+00 0. -1.
<mgrwt>
<rscale>  2 0.29782580E+02</rscale>
<asrwt>0</asrwt>
<pdfrwt beam="1">  1       21 0.95744107E-01 0.29782580E+02</pdfrwt>
<pdfrwt beam="2">  1       21 0.23138667E-03 0.29782580E+02</pdfrwt>
<totfact> 0.27476089E+07</totfact>
</mgrwt>
</event>
<event>
 4    1  0.7151341E+004  0.2533348E+02  0.7546771E-02  0.1656258E+00
         21   -1    0    0  503  502  0.00000000000E+00  0.00000000000E+00  0.15489600804E+02  0.15489600804E+02  0.00000000000E+00 0. -1.
         21   -1    0    0  501  503 -0.00000000000E+00 -0.00000000000E+00 -0.45933521391E+02  0.45933521391E+02  0.00000000000E+00 0. -1.
          1    1    1    2  501    0  0.25196009788E+02 -0.26356184537E+01 -0.24834841998E+02  0.35476115500E+02  0.00000000000E+00 0.  1.
         -1    1    1    2    0  502 -0.25196009788E+02  0.26356184537E+01 -0.56090785878E+01  0.25947006696E+02  0.00000000000E+00 0. -1.
<mgrwt>
<rscale>  2 0.25333484E+02</rscale>
<asrwt>0</asrwt>
<pdfrwt beam="1">  1       21 0.23830155E-02 0.25333484E+02</pdfrwt>
<pdfrwt beam="2">  1       21 0.70666956E-02 0.25333484E+02</pdfrwt>
<totfact> 0.96520534E+07</totfact>
</mgrwt>
</event>
<event>
 4    1  0.7151341E+004  0.3835602E+02  0.7546771E-02  0.1520670E+00
         21   -1    0    0  503  502  0.00000000000E+00  0.00000000000E+00  0.13327876002E+02  0.13327876002E+02  0.00000000000E+00 0.  1.
         21   -1    0    0  501  503 -0.00000000000E+00 -0.00000000000E+00 -0.12792450011E+03  0.12792450011E+03  0.00000000000E+00 0.  1.
          1    1    1    2  501    0 -0.37500028438E+02  0.80580709359E+01 -0.83450590968E+02  0.91843267434E+02  0.00000000000E+00 0.  1.
         -1    1    1    2    0  502  0.37500028438E+02 -0.80580709359E+01 -0.31146033142E+02  0.49409108680E+02  0.00000000000E+00 0. -1.
<mgrwt>
<rscale>  2 0.38356025E+02</rscale>
<asrwt>0</asrwt>
<pdfrwt beam="1">  1       21 0.20504425E-02 0.38356025E+02</pdfrwt>
<pdfrwt beam="2">  1       21 0.19680692E-01 0.38356025E+02</pdfrwt>
<totfact> 0.23474263E+07</totfact>
</mgrwt>
</event>
<event>
 4    1  0.7151341E+004  0.2490663E+02  0.7546771E-02  0.1662347E+00
         21   -1    0    0  503  502  0.00000000000E+00  0.00000000000E+00  0.38669633338E+02  0.38669633338E+02  0.00000000000E+00 0. -1.
         21   -1    0    0  501  503 -0.00000000000E+00 -0.00000000000E+00 -0.21366606092E+02  0.21366606092E+02  0.00000000000E+00 0. -1.
          1    1    1    2  501    0 -0.19324579209E+02  0.15713084267E+02 -0.63335026602E+01  0.25699292495E+02  0.00000000000E+00 0.  1.
         -1    1    1    2    0  502  0.19324579209E+02 -0.15713084267E+02  0.23636529906E+02  0.34336946935E+02  0.00000000000E+00 0. -1.
<mgrwt>
<rscale>  2 0.24906633E+02</rscale>
<asrwt>0</asrwt>
<pdfrwt beam="1">  1       21 0.59491743E-02 0.24906633E+02</pdfrwt>
<pdfrwt beam="2">  1       21 0.32871702E-02 0.24906633E+02</pdfrwt>
<totfact> 0.76917108E+07</totfact>
</mgrwt>
</event>
<event>
 4    1  0.7151341E+004  0.2203767E+02  0.7546771E-02  0.1707601E+00
         21   -1    0    0  503  502  0.00000000000E+00  0.00000000000E+00  0.17937145617E+02  0.17937145617E+02  0.00000000000E+00 0. -1.
         21   -1    0    0  501  503 -0.00000000000E+00 -0.00000000000E+00 -0.27456904848E+02  0.27456904848E+02  0.00000000000E+00 0. -1.
          5    1    1    2  501    0  0.10538262619E+02  0.19354682542E+02 -0.74346574382E+01  0.23257963078E+02  0.00000000000E+00 0.  1.
         -5    1    1    2    0  502 -0.10538262619E+02 -0.19354682542E+02 -0.20851017931E+01  0.22136087387E+02  0.00000000000E+00 0. -1.
<mgrwt>
<rscale>  2 0.22037666E+02</rscale>
<asrwt>0</asrwt>
<pdfrwt beam="1">  1       21 0.27595608E-02 0.22037666E+02</pdfrwt>
<pdfrwt beam="2">  1       21 0.42241392E-02 0.22037666E+02</pdfrwt>
<totfact> 0.16827761E+08</totfact>
</mgrwt>
</event>
<event>
 4    1  0.7151341E+004  0.6070099E+02  0.7546771E-02  0.1394913E+00
         21   -1    0    0  501  502  0.00000000000E+00  0.00000000000E+00  0.23085262045E+03  0.23085262045E+03  0.00000000000E+00 0.  1.
         21   -1    0    0  502  503 -0.00000000000E+00 -0.00000000000E+00 -0.17694619656E+02  0.17694619656E+02  0.00000000000E+00 0.  1.
          1    1    1    2  501    0  0.15454264823E+02 -0.58700730183E+02  0.14547910677E+03  0.15763495974E+03  0.00000000000E+00 0.  1.
         -1    1    1    2    0  503 -0.15454264823E+02  0.58700730183E+02  0.67678894024E+02  0.90912280367E+02  0.00000000000E+00 0. -1.
<mgrwt>
<rscale>  2 0.60700989E+02</rscale>
<asrwt>0</asrwt>
<pdfrwt beam="1">  1       21 0.35515786E-01 0.60700989E+02</pdfrwt>
<pdfrwt beam="2">  1       21 0.27222493E-02 0.60700989E+02</pdfrwt>
<totfact> 0.53290673E+06</totfact>
</mgrwt>
</event>
<event>
 4    1  0.7151341E+004  0.2185887E+02  0.7546771E-02  0.1710704E+00
         21   -1    0    0  503  502  0.00000000000E+00  0.00000000000E+00  0.24559455361E+02  0.24559455361E+02  0.00000000000E+00 0. -1.
         21   -1    0    0  501  503 -0.00000000000E+00 -0.00000000000E+00 -0.25999095681E+02  0.25999095681E+02  0.00000000000E+00 0. -1.
          2    1    1    2  501    0 -0.21674605707E+02 -0.28322810595E+01  0.11962596598E+02  0.24918147321E+02  0.00000000000E+00 0. -1.
         -2    1    1    2    0  502  0.21674605707E+02  0.28322810595E+01 -0.13402236919E+02  0.25640403721E+02  0.00000000000E+00 0.  1.
<mgrwt>
<rscale>  2 0.21858873E+02</rscale>
<asrwt>0</asrwt>
<pdfrwt beam="1">  1       21 0.37783777E-02 0.21858873E+02</pdfrwt>
<pdfrwt beam="2">  1       21 0.39998609E-02 0.21858873E+02</pdfrwt>
<totfact> 0.11207336E+08</totfact>
</mgrwt>
</event>
<event>
 4    1  0.7151341E+004  0.3230177E+02  0.7546771E-02  0.1573956E+00
         21   -1    0    0  503  502  0.00000000000E+00  0.00000000000E+00  0.20012920564E+03  0.20012920564E+03  0.00000000000E+00 0.  1.
         21   -1    0    0  501  503 -0.00000000000E+00 -0.00000000000E+00 -0.72459440006E+01  0.72459440006E+01  0.00000000000E+00 0.  1.
          1    1    1    2  501    0 -0.31425604889E+02 -0.74723189319E+01  0.41529006599E+02  0.52612380501E+02  0.00000000000E+00 0. -1.
         -1    1    1    2    0  502  0.31425604889E+02  0.74723189319E+01  0.15135425504E+03  0.15476276914E+03  0.00000000000E+00 0.  1.
<mgrwt>
<rscale>  2 0.32301768E+02</rscale>
<asrwt>0</asrwt>
<pdfrwt beam="1">  1       21 0.30789104E-01 0.32301768E+02</pdfrwt>
<pdfrwt beam="2">  1       21 0.11147608E-02 0.32301768E+02</pdfrwt>
<totfact> 0.25931205E+07</totfact>
</mgrwt>
</event>
<event>
 4    1  0.7151341E+004  0.4533696E+02  0.7546771E-02  0.1472249E+00
         21   -1    0    0  503  502  0.00000000000E+00  0.00000000000E+00  0.19459385841E+03  0.19459385841E+03  0.00000000000E+00 0.  1.
         21   -1    0    0  501  503 -0.00000000000E+00 -0.00000000000E+00 -0.10571133444E+02  0.10571133444E+02  0.00000000000E+00 0.  1.
          5    1    1    2  501    0  0.78384148322E+01 -0.44654221535E+02  0.89117186975E+02  0.99986565409E+02  0.00000000000E+00 0.  1.
         -5    1    1    2    0  502 -0.78384148322E+01  0.44654221535E+02  0.94905537992E+02  0.10517842645E+03  0.00000000000E+00 0. -1.
<mgrwt>
<rscale>  2 0.45336963E+02</rscale>
<asrwt>0</asrwt>
<pdfrwt beam="1">  1       21 0.29937514E-01 0.45336963E+02</pdfrwt>
<pdfrwt beam="2">  1       21 0.16263284E-02 0.45336963E+02</pdfrwt>
<totfact> 0.16103272E+07</totfact>
</mgrwt>
</event>
<event>
 4    1  0.7151341E+004  0.3065991E+02  0.7546771E-02  0.1590907E+00
         21   -1    0    0  501  502  0.00000000000E+00  0.00000000000E+00  0.43043586914E+02  0.43043586914E+02  0.00000000000E+00 0.  1.
         21   -1    0    0  502  503 -0.00000000000E+00 -0.00000000000E+00 -0.24684967649E+02  0.24684967649E+02  0.00000000000E+00 0.  1.
          4    1    1    2  501    0  0.20969112036E+02  0.22367977107E+02  0.20677736968E+02  0.36981060903E+02  0.00000000000E+00 0. -1.
         -4    1    1    2    0  503 -0.20969112036E+02 -0.22367977107E+02 -0.23191177030E+01  0.30747493660E+02  0.00000000000E+00 0.  1.
<mgrwt>
<rscale>  2 0.30659910E+02</rscale>
<asrwt>0</asrwt>
<pdfrwt beam="1">  1       21 0.66220903E-02 0.30659910E+02</pdfrwt>
<pdfrwt beam="2">  1       21 0.37976873E-02 0.30659910E+02</pdfrwt>
<totfact> 0.54128904E+07</totfact>
</mgrwt>
</event>
<event>
 4    1  0.7151341E+004  0.2936651E+02  0.7546771E-02  0.1605199E+00
         21   -1    0    0  503  502  0.00000000000E+00  0.00000000000E+00  0.46579934372E+01  0.46579934372E+01  0.00000000000E+00 0.  1.
         21   -1    0    0  501  503 -0.00000000000E+00 -0.00000000000E+00 -0.20408552371E+03  0.20408552371E+03  0.00000000000E+00 0.  1.
          3    1    1    2  501    0 -0.21517505318E+02  0.19984708710E+02 -0.67915469163E+02  0.73992584554E+02  0.00000000000E+00 0. -1.
         -3    1    1    2    0  502  0.21517505318E+02 -0.19984708710E+02 -0.13151206111E+03  0.13475093259E+03  0.00000000000E+00 0.  1.
<mgrwt>
<rscale>  2 0.29366505E+02</rscale>
<asrwt>0</asrwt>
<pdfrwt beam="1">  1       21 0.71661442E-03 0.29366505E+02</pdfrwt>
<pdfrwt beam="2">  1       21 0.31397771E-01 0.29366505E+02</pdfrwt>
<totfact> 0.47894940E+07</totfact>
</mgrwt>
</event>
<event>
 4    1  0.7151341E+004  0.2551805E+02  0.7546771E-02  0.1653671E+00
         21   -1    0    0  501  502  0.00000000000E+00  0.00000000000E+00  0.70343315985E+03  0.70343315985E+03  0.00000000000E+00 0.  1.
         21   -1    0    0  502  503 -0.00000000000E+00 -0.00000000000E+00 -0.94911055202E+00  0.94911055202E+00  0.00000000000E+00 0.  1.
          4    1    1    2  501    0  0.25051965302E+02  0.48548784658E+01  0.40655025824E+03  0.40735032010E+03  0.00000000000E+00 0.  1.
         -4    1    1    2    0  503 -0.25051965302E+02 -0.48548784658E+01  0.29593379105E+03  0.29703195030E+03  0.00000000000E+00 0. -1.
<mgrwt>
<rscale>  2 0.25518049E+02</rscale>
<asrwt>0</asrwt>
<pdfrwt beam="1">  1       21 0.10822007E+00 0.25518049E+02</pdfrwt>
<pdfrwt beam="2">  1       21 0.14601757E-03 0.25518049E+02</pdfrwt>
<totfact> 0.39694982E+07</totfact>
</mgrwt>
</event>
<event>
 4    1  0.7151341E+004  0.4338374E+02  0.7546771E-02  0.1484691E+00
         21   -1    0    0  501  502  0.00000000000E+00  0.00000000000E+00  0.33060283014E+02  0.33060283014E+02  0.00000000000E+00 0. -1.
         21   -1    0    0  502  503 -0.00000000000E+00 -0.00000000000E+00 -0.57755760982E+02  0.57755760982E+02  0.00000000000E+00 0. -1.
          2    1    1    2  501    0 -0.36528825543E+02  0.23404998772E+02 -0.69209112431E+01  0.43932312431E+02  0.00000000000E+00 0.  1.
         -2    1    1    2    0  503  0.36528825543E+02 -0.23404998772E+02 -0.17774566725E+02  0.46883731564E+02  0.00000000000E+00 0. -1.
<mgrwt>
<rscale>  2 0.43383742E+02</rscale>
<asrwt>0</asrwt>
<pdfrwt beam="1">  1       21 0.50861975E-02 0.43383742E+02</pdfrwt>
<pdfrwt beam="2">  1       21 0.88855016E-02 0.43383742E+02</pdfrwt>
<totfact> 0.22193137E+07</totfact>
</mgrwt>
</event>
<event>
 4    1  0.7151341E+004  0.2025779E+02  0.7546771E-02  0.1740250E+00
         21   -1    0    0  501  502  0.00000000000E+00  0.00000000000E+00  0.66207401049E+02  0.66207401049E+02  0.00000000000E+00 0. -1.
         21   -1    0    0  502  503 -0.00000000000E+00 -0.00000000000E+00 -0.62386960631E+01  0.62386960631E+01  0.00000000000E+00 0. -1.
          2    1    1    2  501    0  0.20236177018E+02 -0.93557981578E+00  0.27072196664E+02  0.33812453358E+02  0.00000000000E+00 0.  1.
         -2    1    1    2    0  503 -0.20236177018E+02  0.93557981578E+00  0.32896508322E+02  0.38633643753E+02  0.00000000000E+00 0. -1.
<mgrwt>
<rscale>  2 0.20257793E+02</rscale>
<asrwt>0</asrwt>
<pdfrwt beam="1">  1       21 0.10185754E-01 0.20257793E+02</pdfrwt>
<pdfrwt beam="2">  1       21 0.95979944E-03 0.20257793E+02</pdfrwt>
<totfact> 0.19786818E+08</totfact>
</mgrwt>
</event>
<event>
 4    1  0.7151341E+004  0.3055632E+02  0.7546771E-02  0.1592019E+00
         21   -1    0    0  501  502  0.00000000000E+00  0.00000000000E+00  0.33296530857E+02  0.33296530857E+02  0.00000000000E+00 0.  1.
         21   -1    0    0  502  503 -0.00000000000E+00 -0.00000000000E+00 -0.31107363722E+02  0.31107363722E+02  0.00000000000E+00 0.  1.
          4    1    1    2  501    0 -0.30556010490E+02  0.13809586570E+00 -0.90146462113E+01  0.31858322207E+02  0.00000000000E+00 0.  1.
         -4    1    1    2    0  503  0.30556010490E+02 -0.13809586570E+00  0.11203813346E+02  0.32545572372E+02  0.00000000000E+00 0. -1.
<mgrwt>
<rscale>  2 0.30556323E+02</rscale>
<asrwt>0</asrwt>
<pdfrwt beam="1">  1       21 0.51225432E-02 0.30556323E+02</pdfrwt>
<pdfrwt beam="2">  1       21 0.47857483E-02 0.30556323E+02</pdfrwt>
<totfact> 0.56690138E+07</totfact>
</mgrwt>
</event>
<event>
 4    1  0.7151341E+004  0.2624919E+02  0.7546771E-02  0.1643682E+00
         21   -1    0    0  503  502  0.00000000000E+00  0.00000000000E+00  0.22736125434E+02  0.22736125434E+02  0.00000000000E+00 0.  1.
         21   -1    0    0  501  503 -0.00000000000E+00 -0.00000000000E+00 -0.33577489105E+02  0.33577489105E+02  0.00000000000E+00 0.  1.
          2    1    1    2  501    0  0.18397028963E+02  0.18723489528E+02  0.33694251771E+01  0.26464556690E+02  0.00000000000E+00 0. -1.
         -2    1    1    2    0  502 -0.18397028963E+02 -0.18723489528E+02 -0.14210788848E+02  0.29849057849E+02  0.00000000000E+00 0.  1.
<mgrwt>
<rscale>  2 0.26249185E+02</rscale>
<asrwt>0</asrwt>
<pdfrwt beam="1">  1       21 0.34978655E-02 0.26249185E+02</pdfrwt>
<pdfrwt beam="2">  1       21 0.51657675E-02 0.26249185E+02</pdfrwt>
<totfact> 0.88719767E+07</totfact>
</mgrwt>
</event>
<event>
 4    1  0.7151341E+004  0.4073915E+02  0.7546771E-02  0.1502841E+00
         21   -1    0    0  501  502  0.00000000000E+00  0.00000000000E+00  0.99139459509E+03  0.99139459509E+03  0.00000000000E+00 0. -1.
         21   -1    0    0  502  503 -0.00000000000E+00 -0.00000000000E+00 -0.16750186533E+01  0.16750186533E+01  0.00000000000E+00 0. -1.
          5    1    1    2  501    0 -0.40620831646E+02 -0.31026419407E+01  0.50658560073E+03  0.50822106334E+03  0.00000000000E+00 0. -1.
         -5    1    1    2    0  503  0.40620831646E+02  0.31026419407E+01  0.48313397571E+03  0.48484855041E+03  0.00000000000E+00 0.  1.
<mgrwt>
<rscale>  2 0.40739150E+02</rscale>
<asrwt>0</asrwt>
<pdfrwt beam="1">  1       21 0.15252178E+00 0.40739150E+02</pdfrwt>
<pdfrwt beam="2">  1       21 0.25769597E-03 0.40739150E+02</pdfrwt>
<totfact> 0.82940577E+06</totfact>
</mgrwt>
</event>
<event>
 4    1  0.7151341E+004  0.2141587E+02  0.7546771E-02  0.1718554E+00
         21   -1    0    0  503  502  0.00000000000E+00  0.00000000000E+00  0.31618558787E+03  0.31618558787E+03  0.00000000000E+00 0.  1.
         21   -1    0    0  501  503 -0.00000000000E+00 -0.00000000000E+00 -0.25035200493E+01  0.25035200493E+01  0.00000000000E+00 0.  1.
          3    1    1    2  501    0 -0.21255315516E+02  0.26174740671E+01  0.26018185604E+03  0.26106175097E+03  0.00000000000E+00 0.  1.
         -3    1    1    2    0  502  0.21255315516E+02 -0.26174740671E+01  0.53500211785E+02  0.57627356952E+02  0.00000000000E+00 0. -1.
<mgrwt>
<rscale>  2 0.21415873E+02</rscale>
<asrwt>0</asrwt>
<pdfrwt beam="1">  1       21 0.48643905E-01 0.21415873E+02</pdfrwt>
<pdfrwt beam="2">  1       21 0.38515718E-03 0.21415873E+02</pdfrwt>
<totfact> 0.48953509E+07</totfact>
</mgrwt>
</event>
<event>
 4    1  0.7151341E+004  0.2067869E+02  0.7546771E-02  0.1732159E+00
         21   -1    0    0  501  502  0.00000000000E+00  0.00000000000E+00  0.37466066963E+02  0.37466066963E+02  0.00000000000E+00 0. -1.
         21   -1    0    0  502  503 -0.00000000000E+00 -0.00000000000E+00 -0.13836547411E+02  0.13836547411E+02  0.00000000000E+00 0. -1.
          3    1    1    2  501    0  0.39099709512E+01  0.20305671906E+02  0.22549767268E+02  0.30595754415E+02  0.00000000000E+00 0.  1.
         -3    1    1    2    0  503 -0.39099709512E+01 -0.20305671906E+02  0.10797522843E+01  0.20706859959E+02  0.00000000000E+00 0. -1.
<mgrwt>
<rscale>  2 0.20678689E+02</rscale>
<asrwt>0</asrwt>
<pdfrwt beam="1">  1       21 0.57640103E-02 0.20678689E+02</pdfrwt>
<pdfrwt beam="2">  1       21 0.21286996E-02 0.20678689E+02</pdfrwt>
<totfact> 0.15029503E+08</totfact>
</mgrwt>
</event>
<event>
 4    1  0.7151341E+004  0.2725274E+02  0.7546771E-02  0.1630605E+00
         21   -1    0    0  503  502  0.00000000000E+00  0.00000000000E+00  0.27462661937E+02  0.27462661937E+02  0.00000000000E+00 0. -1.
         21   -1    0    0  501  503 -0.00000000000E+00 -0.00000000000E+00 -0.39578917663E+02  0.39578917663E+02  0.00000000000E+00 0. -1.
          2    1    1    2  501    0 -0.21247289230E+02  0.17066469925E+02  0.12805959362E+02  0.30111530856E+02  0.00000000000E+00 0. -1.
         -2    1    1    2    0  502  0.21247289230E+02 -0.17066469925E+02 -0.24922215088E+02  0.36930048744E+02  0.00000000000E+00 0.  1.
<mgrwt>
<rscale>  2 0.27252737E+02</rscale>
<asrwt>0</asrwt>
<pdfrwt beam="1">  1       21 0.42250249E-02 0.27252737E+02</pdfrwt>
<pdfrwt beam="2">  1       21 0.60890643E-02 0.27252737E+02</pdfrwt>
<totfact> 0.50966412E+07</totfact>
</mgrwt>
</event>
<event>
 4    1  0.7151341E+004  0.2992602E+02  0.7546771E-02  0.1598908E+00
         21   -1    0    0  501  502  0.00000000000E+00  0.00000000000E+00  0.10304009203E+02  0.10304009203E+02  0.00000000000E+00 0.  1.
         21   -1    0    0  502  503 -0.00000000000E+00 -0.00000000000E+00 -0.95857584550E+02  0.95857584550E+02  0.00000000000E+00 0.  1.
          2    1    1    2  501    0  0.10531874866E+02 -0.28011538524E+02 -0.58990054224E+02  0.66146754841E+02  0.00000000000E+00 0. -1.
         -2    1    1    2    0  503 -0.10531874866E+02  0.28011538524E+02 -0.26563521123E+02  0.40014838912E+02  0.00000000000E+00 0.  1.
<mgrwt>
<rscale>  2 0.29926020E+02</rscale>
<asrwt>0</asrwt>
<pdfrwt beam="1">  1       21 0.15852323E-02 0.29926020E+02</pdfrwt>
<pdfrwt beam="2">  1       21 0.14747320E-01 0.29926020E+02</pdfrwt>
<totfact> 0.55216237E+07</totfact>
</mgrwt>
</event>
<event>
 4    1  0.7151341E+004  0.3012381E+02  0.7546771E-02  0.1596724E+00
         21   -1    0    0  503  502  0.00000000000E+00  0.00000000000E+00  0.65159364034E+02  0.65159364034E+02  0.00000000000E+00 0. -1.
         21   -1    0    0  501  503 -0.00000000000E+00 -0.00000000000E+00 -0.17288867704E+02  0.17288867704E+02  0.00000000000E+00 0. -1.
          3    1    1    2  501    0  0.29450968561E+02  0.63312415045E+01  0.57554769857E+01  0.30668708540E+02  0.00000000000E+00 0.  1.
         -3    1    1    2    0  502 -0.29450968561E+02 -0.63312415045E+01  0.42115019345E+02  0.51779523198E+02  0.00000000000E+00 0. -1.
<mgrwt>
<rscale>  2 0.30123814E+02</rscale>
<asrwt>0</asrwt>
<pdfrwt beam="1">  1       21 0.10024517E-01 0.30123814E+02</pdfrwt>
<pdfrwt beam="2">  1       21 0.26598258E-02 0.30123814E+02</pdfrwt>
<totfact> 0.47671156E+07</totfact>
</mgrwt>
</event>
<event>
 4    1  0.7151341E+004  0.2380919E+02  0.7546771E-02  0.1678720E+00
         21   -1    0    0  501  502  0.00000000000E+00  0.00000000000E+00  0.65156137378E+02  0.65156137378E+02  0.00000000000E+00 0.  1.
         21   -1    0    0  502  503 -0.00000000000E+00 -0.00000000000E+00 -0.87005478798E+01  0.87005478798E+01  0.00000000000E+00 0.  1.
          4    1    1    2  501    0 -0.22169829393E+02 -0.86819351077E+01  0.28027000742E+02  0.36774856943E+02  0.00000000000E+00 0.  1.
         -4    1    1    2    0  503  0.22169829393E+02  0.86819351077E+01  0.28428588755E+02  0.37081828315E+02  0.00000000000E+00 0. -1.
<mgrwt>
<rscale>  2 0.23809186E+02</rscale>
<asrwt>0</asrwt>
<pdfrwt beam="1">  1       21 0.10024021E-01 0.23809186E+02</pdfrwt>
<pdfrwt beam="2">  1       21 0.13385459E-02 0.23809186E+02</pdfrwt>
<totfact> 0.12938252E+08</totfact>
</mgrwt>
</event>
<event>
 4    1  0.7151341E+004  0.2367798E+02  0.7546771E-02  0.1680750E+00
         21   -1    0    0  501  502  0.00000000000E+00  0.00000000000E+00  0.69547616783E+02  0.69547616783E+02  0.00000000000E+00 0. -1.
         21   -1    0    0  502  503 -0.00000000000E+00 -0.00000000000E+00 -0.10679007117E+02  0.10679007117E+02  0.00000000000E+00 0. -1.
          5    1    1    2  501    0  0.18008577625E+02 -0.15373289080E+02  0.95742514839E+01  0.25540422406E+02  0.00000000000E+00 0. -1.
         -5    1    1    2    0  503 -0.18008577625E+02  0.15373289080E+02  0.49294358183E+02  0.54686201494E+02  0.00000000000E+00 0.  1.
<mgrwt>
<rscale>  2 0.23677983E+02</rscale>
<asrwt>0</asrwt>
<pdfrwt beam="1">  1       21 0.10699633E-01 0.23677983E+02</pdfrwt>
<pdfrwt beam="2">  1       21 0.16429242E-02 0.23677983E+02</pdfrwt>
<totfact> 0.84877663E+07</totfact>
</mgrwt>
</event>
<event>
 4    1  0.7151341E+004  0.2198021E+02  0.7546771E-02  0.1708594E+00
         21   -1    0    0  501  502  0.00000000000E+00  0.00000000000E+00  0.17364837566E+03  0.17364837566E+03  0.00000000000E+00 0. -1.
         21   -1    0    0  502  503 -0.00000000000E+00 -0.00000000000E+00 -0.30568609906E+01  0.30568609906E+01  0.00000000000E+00 0. -1.
          2    1    1    2  501    0  0.17024217172E+01 -0.21914181880E+02  0.11177812836E+03  0.11391874116E+03  0.00000000000E+00 0.  1.
         -2    1    1    2    0  503 -0.17024217172E+01  0.21914181880E+02  0.58813386307E+02  0.62786495491E+02  0.00000000000E+00 0. -1.
<mgrwt>
<rscale>  2 0.21980209E+02</rscale>
<asrwt>0</asrwt>
<pdfrwt beam="1">  1       21 0.26715127E-01 0.21980209E+02</pdfrwt>
<pdfrwt beam="2">  1       21 0.47028644E-03 0.21980209E+02</pdfrwt>
<totfact> 0.11189295E+08</totfact>
</mgrwt>
</event>
<event>
 4    1  0.7151341E+004  0.3980190E+02  0.7546771E-02  0.1509674E+00
         21   -1    0    0  501  502  0.00000000000E+00  0.00000000000E+00  0.81121775369E+02  0.81121775369E+02  0.00000000000E+00 0.  1.
         21   -1    0    0  502  503 -0.00000000000E+00 -0.00000000000E+00 -0.19532831975E+02  0.19532831975E+02  0.00000000000E+00 0.  1.
          5    1    1    2  501    0  0.20836590750E+00  0.39801349712E+02  0.30049546742E+02  0.49871496014E+02  0.00000000000E+00 0. -1.
         -5    1    1    2    0  503 -0.20836590750E+00 -0.39801349712E+02  0.31539396653E+02  0.50783111331E+02  0.00000000000E+00 0.  1.
<mgrwt>
<rscale>  2 0.39801895E+02</rscale>
<asrwt>0</asrwt>
<pdfrwt beam="1">  1       21 0.12480273E-01 0.39801895E+02</pdfrwt>
<pdfrwt beam="2">  1       21 0.30050511E-02 0.39801895E+02</pdfrwt>
<totfact> 0.28643857E+07</totfact>
</mgrwt>
</event>
<event>
 4    1  0.7151341E+004  0.2185658E+02  0.7546771E-02  0.1710744E+00
         21   -1    0    0  501  502  0.00000000000E+00  0.00000000000E+00  0.24981688361E+01  0.24981688361E+01  0.00000000000E+00 0. -1.
         21   -1    0    0  502  503 -0.00000000000E+00 -0.00000000000E+00 -0.20586742768E+03  0.20586742768E+03  0.00000000000E+00 0. -1.
          2    1    1    2  501    0  0.16862572480E+02  0.13905526431E+02 -0.12947040432E+03  0.13130230619E+03  0.00000000000E+00 0.  1.
         -2    1    1    2    0  503 -0.16862572480E+02 -0.13905526431E+02 -0.73898854530E+02  0.77063290332E+02  0.00000000000E+00 0. -1.
<mgrwt>
<rscale>  2 0.21856578E+02</rscale>
<asrwt>0</asrwt>
<pdfrwt beam="1">  1       21 0.38433362E-03 0.21856578E+02</pdfrwt>
<pdfrwt beam="2">  1       21 0.31671916E-01 0.21856578E+02</pdfrwt>
<totfact> 0.11040024E+08</totfact>
</mgrwt>
</event>
<event>
 4    1  0.7151341E+004  0.2062184E+02  0.7546771E-02  0.1733237E+00
         21   -1    0    0  503  502  0.00000000000E+00  0.00000000000E+00  0.17592408867E+03  0.17592408867E+03  0.00000000000E+00 0. -1.
         21   -1    0    0  501  503 -0.00000000000E+00 -0.00000000000E+00 -0.24500214406E+01  0.24500214406E+01  0.00000000000E+00 0. -1.
          2    1    1    2  501    0  0.13441772196E+01  0.20577984933E+02  0.76429098295E+02  0.79162284849E+02  0.00000000000E+00 0. -1.
         -2    1    1    2    0  502 -0.13441772196E+01 -0.20577984933E+02  0.97044968931E+02  0.99211825259E+02  0.00000000000E+00 0.  1.
<mgrwt>
<rscale>  2 0.20621840E+02</rscale>
<asrwt>0</asrwt>
<pdfrwt beam="1">  1       21 0.27065235E-01 0.20621840E+02</pdfrwt>
<pdfrwt beam="2">  1       21 0.37692651E-03 0.20621840E+02</pdfrwt>
<totfact> 0.14843046E+08</totfact>
</mgrwt>
</event>
<event>
 4    1  0.7151341E+004  0.2991133E+02  0.7546771E-02  0.1599071E+00
         21   -1    0    0  501  502  0.00000000000E+00  0.00000000000E+00  0.92614381821E+02  0.92614381821E+02  0.00000000000E+00 0.  1.
         21   -1    0    0  502  503 -0.00000000000E+00 -0.00000000000E+00 -0.11195046960E+02  0.11195046960E+02  0.00000000000E+00 0.  1.
          4    1    1    2  501    0 -0.27711429834E+02  0.11258977656E+02  0.59927494425E+02  0.66977552279E+02  0.00000000000E+00 0. -1.
         -4    1    1    2    0  503  0.27711429834E+02 -0.11258977656E+02  0.21491840436E+02  0.36831876502E+02  0.00000000000E+00 0.  1.
<mgrwt>
<rscale>  2 0.29911334E+02</rscale>
<asrwt>0</asrwt>
<pdfrwt beam="1">  1       21 0.14248366E-01 0.29911334E+02</pdfrwt>
<pdfrwt beam="2">  1       21 0.17223150E-02 0.29911334E+02</pdfrwt>
<totfact> 0.51552299E+07</totfact>
</mgrwt>
</event>
<event>
 4    1  0.7151341E+004  0.2018509E+02  0.7546771E-02  0.1741672E+00
         21   -1    0    0  503  502  0.00000000000E+00  0.00000000000E+00  0.24425396449E+03  0.24425396449E+03  0.00000000000E+00 0. -1.
         21   -1    0    0  501  503 -0.00000000000E+00 -0.00000000000E+00 -0.18903692932E+01  0.18903692932E+01  0.00000000000E+00 0. -1.
          4    1    1    2  501    0 -0.15971919099E+02 -0.12342425744E+02  0.16338405814E+03  0.16462620730E+03  0.00000000000E+00 0. -1.
         -4    1    1    2    0  502  0.15971919099E+02  0.12342425744E+02  0.78979537053E+02  0.81518126488E+02  0.00000000000E+00 0.  1.
<mgrwt>
<rscale>  2 0.20185085E+02</rscale>
<asrwt>0</asrwt>
<pdfrwt beam="1">  1       21 0.37577508E-01 0.20185085E+02</pdfrwt>
<pdfrwt beam="2">  1       21 0.29082624E-03 0.20185085E+02</pdfrwt>
<totfact> 0.11826753E+08</totfact>
</mgrwt>
</event>
<event>
 4    1  0.7151341E+004  0.2794940E+02  0.7546771E-02  0.1621928E+00
         21   -1    0    0  503  502  0.00000000000E+00  0.00000000000E+00  0.14885935825E+03  0.14885935825E+03  0.00000000000E+00 0.  1.
         21   -1    0    0  501  503 -0.00000000000E+00 -0.00000000000E+00 -0.63569331685E+01  0.63569331685E+01  0.00000000000E+00 0.  1.
          5    1    1    2  501    0  0.27177833490E+02 -0.65218542834E+01  0.10366986492E+03  0.10737136541E+03  0.00000000000E+00 0. -1.
         -5    1    1    2    0  502 -0.27177833490E+02  0.65218542834E+01  0.38832560163E+02  0.47844926014E+02  0.00000000000E+00 0.  1.
<mgrwt>
<rscale>  2 0.27949405E+02</rscale>
<asrwt>0</asrwt>
<pdfrwt beam="1">  1       21 0.22901437E-01 0.27949405E+02</pdfrwt>
<pdfrwt beam="2">  1       21 0.97798983E-03 0.27949405E+02</pdfrwt>
<totfact> 0.52564472E+07</totfact>
</mgrwt>
</event>
<event>
 4    1  0.7151341E+004  0.2044664E+02  0.7546771E-02  0.1736589E+00
         21   -1    0    0  501  502  0.00000000000E+00  0.00000000000E+00  0.81067233654E+01  0.81067233654E+01  0.00000000000E+00 0. -1.
         21   -1    0    0  502  503 -0.00000000000E+00 -0.00000000000E+00 -0.62256965973E+02  0.62256965973E+02  0.00000000000E+00 0. -1.
          1    1    1    2  501    0  0.60571808309E+01 -0.19528840614E+02 -0.12498780727E+02  0.23964235331E+02  0.00000000000E+00 0. -1.
         -1    1    1    2    0  503 -0.60571808309E+01  0.19528840614E+02 -0.41651461881E+02  0.46399454007E+02  0.00000000000E+00 0.  1.
<mgrwt>
<rscale>  2 0.20446639E+02</rscale>
<asrwt>0</asrwt>
<pdfrwt beam="1">  1       21 0.12471882E-02 0.20446639E+02</pdfrwt>
<pdfrwt beam="2">  1       21 0.95779949E-02 0.20446639E+02</pdfrwt>
<totfact> 0.14826737E+08</totfact>
</mgrwt>
</event>
<event>
 4    1  0.7151341E+004  0.3312903E+02  0.7546771E-02  0.1565872E+00
         21   -1    0    0  501  502  0.00000000000E+00  0.00000000000E+00  0.24974357193E+01  0.24974357193E+01  0.00000000000E+00 0.  1.
         21   -1    0    0  502  503 -0.00000000000E+00 -0.00000000000E+00 -0.45694960383E+03  0.45694960383E+03  0.00000000000E+00 0.  1.
          5    1    1    2  501    0 -0.33081063800E+02  0.17820357934E+01 -0.18228796458E+03  0.18527394438E+03  0.00000000000E+00 0. -1.
         -5    1    1    2    0  503  0.33081063800E+02 -0.17820357934E+01 -0.27216420353E+03  0.27417309518E+03  0.00000000000E+00 0.  1.
<mgrwt>
<rscale>  2 0.33129027E+02</rscale>
<asrwt>0</asrwt>
<pdfrwt beam="1">  1       21 0.38422088E-03 0.33129027E+02</pdfrwt>
<pdfrwt beam="2">  1       21 0.70299939E-01 0.33129027E+02</pdfrwt>
<totfact> 0.25655152E+07</totfact>
</mgrwt>
</event>
<event>
 4    1  0.7151341E+004  0.4230847E+02  0.7546771E-02  0.1491880E+00
         21   -1    0    0  503  502  0.00000000000E+00  0.00000000000E+00  0.25845621045E+02  0.25845621045E+02  0.00000000000E+00 0.  1.
         21   -1    0    0  501  503 -0.00000000000E+00 -0.00000000000E+00 -0.71815506472E+02  0.71815506472E+02  0.00000000000E+00 0.  1.
          4    1    1    2  501    0  0.42302164551E+02 -0.73016478695E+00 -0.32200530543E+02  0.53168415751E+02  0.00000000000E+00 0.  1.
         -4    1    1    2    0  502 -0.42302164551E+02  0.73016478695E+00 -0.13769354885E+02  0.44492711765E+02  0.00000000000E+00 0. -1.
<mgrwt>
<rscale>  2 0.42308466E+02</rscale>
<asrwt>0</asrwt>
<pdfrwt beam="1">  1       21 0.39762495E-02 0.42308466E+02</pdfrwt>
<pdfrwt beam="2">  1       21 0.11048539E-01 0.42308466E+02</pdfrwt>
<totfact> 0.22778814E+07</totfact>
</mgrwt>
</event>
<event>
 4    1  0.7151341E+004  0.2081339E+02  0.7546771E-02  0.1729620E+00
         21   -1    0    0  503  502  0.00000000000E+00  0.00000000000E+00  0.99392331025E+02  0.99392331025E+02  0.00000000000E+00 0.  1.
         21   -1    0    0  501  503 -0.00000000000E+00 -0.00000000000E+00 -0.45949665284E+01  0.45949665284E+01  0.00000000000E+00 0.  1.
          3    1    1    2  501    0 -0.16485010934E+02  0.12705964998E+02  0.35602700898E+02  0.41240143589E+02  0.00000000000E+00 0. -1.
         -3    1    1    2    0  502  0.16485010934E+02 -0.12705964998E+02  0.59194663598E+02  0.62747153964E+02  0.00000000000E+00 0.  1.
<mgrwt>
<rscale>  2 0.20813388E+02</rscale>
<asrwt>0</asrwt>
<pdfrwt beam="1">  1       21 0.15291126E-01 0.20813388E+02</pdfrwt>
<pdfrwt beam="2">  1       21 0.70691800E-03 0.20813388E+02</pdfrwt>
<totfact> 0.15948125E+08</totfact>
</mgrwt>
</event>
<event>
 4    1  0.7151341E+004  0.2171500E+02  0.7546771E-02  0.1713228E+00
         21   -1    0    0  503  502  0.00000000000E+00  0.00000000000E+00  0.20414165595E+02  0.20414165595E+02  0.00000000000E+00 0. -1.
         21   -1    0    0  501  503 -0.00000000000E+00 -0.00000000000E+00 -0.42768562482E+02  0.42768562482E+02  0.00000000000E+00 0. -1.
          3    1    1    2  501    0 -0.21712898053E+02 -0.30231118084E+00 -0.32601484747E+02  0.39171394430E+02  0.00000000000E+00 0. -1.
         -3    1    1    2    0  502  0.21712898053E+02  0.30231118084E+00  0.10247087860E+02  0.24011333647E+02  0.00000000000E+00 0.  1.
<mgrwt>
<rscale>  2 0.21715003E+02</rscale>
<asrwt>0</asrwt>
<pdfrwt beam="1">  1       21 0.31406409E-02 0.21715003E+02</pdfrwt>
<pdfrwt beam="2">  1       21 0.65797788E-02 0.21715003E+02</pdfrwt>
<totfact> 0.67650753E+07</totfact>
</mgrwt>
</event>
<event>
 4    1  0.7151341E+004  0.2231318E+02  0.7546771E-02  0.1702891E+00
         21   -1    0    0  503  502  0.00000000000E+00  0.00000000000E+00  0.18961952702E+02  0.18961952702E+02  0.00000000000E+00 0. -1.
         21   -1    0    0  501  503 -0.00000000000E+00 -0.00000000000E+00 -0.43658205816E+02  0.43658205816E+02  0.00000000000E+00 0. -1.
          3    1    1    2  501    0  0.20669704684E+02 -0.84048369422E+01 -0.32115312896E+02  0.39105898509E+02  0.00000000000E+00 0.  1.
         -3    1    1    2    0  502 -0.20669704684E+02  0.84048369422E+01  0.74190597818E+01  0.23514260010E+02  0.00000000000E+00 0. -1.
<mgrwt>
<rscale>  2 0.22313179E+02</rscale>
<asrwt>0</asrwt>
<pdfrwt beam="1">  1       21 0.29172235E-02 0.22313179E+02</pdfrwt>
<pdfrwt beam="2">  1       21 0.67166470E-02 0.22313179E+02</pdfrwt>
<totfact> 0.73954926E+07</totfact>
</mgrwt>
</event>
<event>
 4    1  0.7151341E+004  0.2930543E+02  0.7546771E-02  0.1605896E+00
         21   -1    0    0  503  502  0.00000000000E+00  0.00000000000E+00  0.19457304740E+03  0.19457304740E+03  0.00000000000E+00 0. -1.
         21   -1    0    0  501  503 -0.00000000000E+00 -0.00000000000E+00 -0.46265054571E+01  0.46265054571E+01  0.00000000000E+00 0. -1.
          3    1    1    2  501    0  0.26306112345E+02 -0.12914974076E+02  0.11632892229E+03  0.11996343719E+03  0.00000000000E+00 0. -1.
         -3    1    1    2    0  502 -0.26306112345E+02  0.12914974076E+02  0.73617619655E+02  0.79236115665E+02  0.00000000000E+00 0.  1.
<mgrwt>
<rscale>  2 0.29305428E+02</rscale>
<asrwt>0</asrwt>
<pdfrwt beam="1">  1       21 0.29934309E-01 0.29305428E+02</pdfrwt>
<pdfrwt beam="2">  1       21 0.71177022E-03 0.29305428E+02</pdfrwt>
<totfact> 0.52808096E+07</totfact>
</mgrwt>
</event>
<event>
 4    1  0.7151341E+004  0.2272257E+02  0.7546771E-02  0.1696047E+00
         21   -1    0    0  503  502  0.00000000000E+00  0.00000000000E+00  0.42117779947E+03  0.42117779947E+03  0.00000000000E+00 0. -1.
         21   -1    0    0  501  503 -0.00000000000E+00 -0.00000000000E+00 -0.13218396550E+01  0.13218396550E+01  0.00000000000E+00 0. -1.
          3    1    1    2  501    0 -0.50841563765E+01 -0.22146481842E+02  0.26684488626E+03  0.26781058348E+03  0.00000000000E+00 0. -1.
         -3    1    1    2    0  502  0.50841563765E+01  0.22146481842E+02  0.15301107356E+03  0.15468905565E+03  0.00000000000E+00 0.  1.
<mgrwt>
<rscale>  2 0.22722573E+02</rscale>
<asrwt>0</asrwt>
<pdfrwt beam="1">  1       21 0.64796478E-01 0.22722573E+02</pdfrwt>
<pdfrwt beam="2">  1       21 0.20336028E-03 0.22722573E+02</pdfrwt>
<totfact> 0.71295933E+07</totfact>
</mgrwt>
</event>
<event>
 4    1  0.7151341E+004  0.2239040E+02  0.7546771E-02  0.1701586E+00
         21   -1    0    0  503  502  0.00000000000E+00  0.00000000000E+00  0.32057375694E+02  0.32057375694E+02  0.00000000000E+00 0.  1.
         21   -1    0    0  501  503 -0.00000000000E+00 -0.00000000000E+00 -0.15640693164E+02  0.15640693164E+02  0.00000000000E+00 0.  1.
          3    1    1    2  501    0 -0.92227929229E+01  0.20402701861E+02  0.79277108724E+01  0.23752447289E+02  0.00000000000E+00 0.  1.
         -3    1    1    2    0  502  0.92227929229E+01 -0.20402701861E+02  0.84889716584E+01  0.23945621569E+02  0.00000000000E+00 0. -1.
<mgrwt>
<rscale>  2 0.22390403E+02</rscale>
<asrwt>0</asrwt>
<pdfrwt beam="1">  1       21 0.49319039E-02 0.22390403E+02</pdfrwt>
<pdfrwt beam="2">  1       21 0.24062605E-02 0.22390403E+02</pdfrwt>
<totfact> 0.16355120E+08</totfact>
</mgrwt>
</event>
<event>
 4    1  0.7151341E+004  0.2178465E+02  0.7546771E-02  0.1712003E+00
         21   -1    0    0  503  502  0.00000000000E+00  0.00000000000E+00  0.34975492968E+01  0.34975492968E+01  0.00000000000E+00 0. -1.
         21   -1    0    0  501  503 -0.00000000000E+00 -0.00000000000E+00 -0.14060762620E+03  0.14060762620E+03  0.00000000000E+00 0. -1.
          2    1    1    2  501    0  0.21716550001E+02  0.17211934326E+01 -0.55075750601E+02  0.59227606359E+02  0.00000000000E+00 0. -1.
         -2    1    1    2    0  502 -0.21716550001E+02 -0.17211934326E+01 -0.82034326298E+02  0.84877569133E+02  0.00000000000E+00 0.  1.
<mgrwt>
<rscale>  2 0.21784652E+02</rscale>
<asrwt>0</asrwt>
<pdfrwt beam="1">  1       21 0.53808455E-03 0.21784652E+02</pdfrwt>
<pdfrwt beam="2">  1       21 0.21631941E-01 0.21784652E+02</pdfrwt>
<totfact> 0.13304781E+08</totfact>
</mgrwt>
</event>
<event>
 4    1  0.7151341E+004  0.2468685E+02  0.7546771E-02  0.1665541E+00
         21   -1    0    0  501  502  0.00000000000E+00  0.00000000000E+00  0.63852010452E+02  0.63852010452E+02  0.00000000000E+00 0. -1.
         21   -1    0    0  502  503 -0.00000000000E+00 -0.00000000000E+00 -0.98582286871E+01  0.98582286871E+01  0.00000000000E+00 0. -1.
          5    1    1    2  501    0 -0.24244324215E+02 -0.46533360195E+01  0.20423063972E+02  0.32039699355E+02  0.00000000000E+00 0.  1.
         -5    1    1    2    0  503  0.24244324215E+02  0.46533360195E+01  0.33570717793E+02  0.41670539784E+02  0.00000000000E+00 0. -1.
<mgrwt>
<rscale>  2 0.24686855E+02</rscale>
<asrwt>0</asrwt>
<pdfrwt beam="1">  1       21 0.98233860E-02 0.24686855E+02</pdfrwt>
<pdfrwt beam="2">  1       21 0.15166506E-02 0.24686855E+02</pdfrwt>
<totfact> 0.11178640E+08</totfact>
</mgrwt>
</event>
<event>
 4    1  0.7151341E+004  0.2408259E+02  0.7546771E-02  0.1674540E+00
         21   -1    0    0  501  502  0.00000000000E+00  0.00000000000E+00  0.13465237434E+02  0.13465237434E+02  0.00000000000E+00 0.  1.
         21   -1    0    0  502  503 -0.00000000000E+00 -0.00000000000E+00 -0.46163190462E+02  0.46163190462E+02  0.00000000000E+00 0.  1.
          3    1    1    2  501    0 -0.13121949575E+02  0.20193700105E+02 -0.86335980639E+01  0.25583395007E+02  0.00000000000E+00 0.  1.
         -3    1    1    2    0  503  0.13121949575E+02 -0.20193700105E+02 -0.24064354964E+02  0.34045032889E+02  0.00000000000E+00 0. -1.
<mgrwt>
<rscale>  2 0.24082589E+02</rscale>
<asrwt>0</asrwt>
<pdfrwt beam="1">  1       21 0.20715750E-02 0.24082589E+02</pdfrwt>
<pdfrwt beam="2">  1       21 0.71020294E-02 0.24082589E+02</pdfrwt>
<totfact> 0.11722560E+08</totfact>
</mgrwt>
</event>
<event>
 4    1  0.7151341E+004  0.2098619E+02  0.7546771E-02  0.1726399E+00
         21   -1    0    0  503  502  0.00000000000E+00  0.00000000000E+00  0.18290512440E+01  0.18290512440E+01  0.00000000000E+00 0.  1.
         21   -1    0    0  501  503 -0.00000000000E+00 -0.00000000000E+00 -0.24529825149E+03  0.24529825149E+03  0.00000000000E+00 0.  1.
          1    1    1    2  501    0  0.18666477775E+01  0.20903005665E+02 -0.10498615102E+03  0.10706312123E+03  0.00000000000E+00 0. -1.
         -1    1    1    2    0  502 -0.18666477775E+01 -0.20903005665E+02 -0.13848304922E+03  0.14006418151E+03  0.00000000000E+00 0.  1.
<mgrwt>
<rscale>  2 0.20986186E+02</rscale>
<asrwt>0</asrwt>
<pdfrwt beam="1">  1       21 0.28139250E-03 0.20986186E+02</pdfrwt>
<pdfrwt beam="2">  1       21 0.37738193E-01 0.20986186E+02</pdfrwt>
<totfact> 0.12444026E+08</totfact>
</mgrwt>
</event>
<event>
 4    1  0.7151341E+004  0.2029077E+02  0.7546771E-02  0.1739607E+00
         21   -1    0    0  501  502  0.00000000000E+00  0.00000000000E+00  0.75413692246E+02  0.75413692246E+02  0.00000000000E+00 0. -1.
         21   -1    0    0  502  503 -0.00000000000E+00 -0.00000000000E+00 -0.54634750184E+01  0.54634750184E+01  0.00000000000E+00 0. -1.
          2    1    1    2  501    0 -0.16983572049E+02  0.11102857196E+02  0.33873670664E+02  0.39485956006E+02  0.00000000000E+00 0.  1.
         -2    1    1    2    0  503  0.16983572049E+02 -0.11102857196E+02  0.36076546563E+02  0.41391211258E+02  0.00000000000E+00 0. -1.
<mgrwt>
<rscale>  2 0.20290765E+02</rscale>
<asrwt>0</asrwt>
<pdfrwt beam="1">  1       21 0.11602106E-01 0.20290765E+02</pdfrwt>
<pdfrwt beam="2">  1       21 0.84053467E-03 0.20290765E+02</pdfrwt>
<totfact> 0.19451633E+08</totfact>
</mgrwt>
</event>
<event>
 4    1  0.7151341E+004  0.2079317E+02  0.7546771E-02  0.1730000E+00
         21   -1    0    0  503  502  0.00000000000E+00  0.00000000000E+00  0.13066723611E+03  0.13066723611E+03  0.00000000000E+00 0. -1.
         21   -1    0    0  501  503 -0.00000000000E+00 -0.00000000000E+00 -0.52536955194E+01  0.52536955194E+01  0.00000000000E+00 0. -1.
          2    1    1    2  501    0  0.20649450860E+02  0.24405097781E+01  0.21357439781E+02  0.29807652420E+02  0.00000000000E+00 0. -1.
         -2    1    1    2    0  502 -0.20649450860E+02 -0.24405097781E+01  0.10405610081E+03  0.10611327921E+03  0.00000000000E+00 0.  1.
<mgrwt>
<rscale>  2 0.20793170E+02</rscale>
<asrwt>0</asrwt>
<pdfrwt beam="1">  1       21 0.20102649E-01 0.20793170E+02</pdfrwt>
<pdfrwt beam="2">  1       21 0.80826094E-03 0.20793170E+02</pdfrwt>
<totfact> 0.81685085E+07</totfact>
</mgrwt>
</event>
<event>
 4    1  0.7151341E+004  0.3065765E+02  0.7546771E-02  0.1590931E+00
         21   -1    0    0  503  502  0.00000000000E+00  0.00000000000E+00  0.31716712876E+03  0.31716712876E+03  0.00000000000E+00 0. -1.
         21   -1    0    0  501  503 -0.00000000000E+00 -0.00000000000E+00 -0.30610358311E+01  0.30610358311E+01  0.00000000000E+00 0. -1.
          4    1    1    2  501    0 -0.74319254811E+01  0.29743203187E+02  0.18564934848E+03  0.18816368471E+03  0.00000000000E+00 0. -1.
         -4    1    1    2    0  502  0.74319254811E+01 -0.29743203187E+02  0.12845674445E+03  0.13206447988E+03  0.00000000000E+00 0.  1.
<mgrwt>
<rscale>  2 0.30657652E+02</rscale>
<asrwt>0</asrwt>
<pdfrwt beam="1">  1       21 0.48794917E-01 0.30657652E+02</pdfrwt>
<pdfrwt beam="2">  1       21 0.47092884E-03 0.30657652E+02</pdfrwt>
<totfact> 0.39108423E+07</totfact>
</mgrwt>
</event>
<event>
 4    1  0.7151341E+004  0.3350395E+02  0.7546771E-02  0.1562302E+00
         21   -1    0    0  501  502  0.00000000000E+00  0.00000000000E+00  0.41940894177E+03  0.41940894177E+03  0.00000000000E+00 0. -1.
         21   -1    0    0  502  503 -0.00000000000E+00 -0.00000000000E+00 -0.28983772645E+01  0.28983772645E+01  0.00000000000E+00 0. -1.
          4    1    1    2  501    0  0.24852737150E+02 -0.22468997098E+02  0.14982256487E+03  0.15352301235E+03  0.00000000000E+00 0. -1.
         -4    1    1    2    0  503 -0.24852737150E+02  0.22468997098E+02  0.26668799963E+03  0.26878430669E+03  0.00000000000E+00 0.  1.
<mgrwt>
<rscale>  2 0.33503946E+02</rscale>
<asrwt>0</asrwt>
<pdfrwt beam="1">  1       21 0.64524405E-01 0.33503946E+02</pdfrwt>
<pdfrwt beam="2">  1       21 0.44590453E-03 0.33503946E+02</pdfrwt>
<totfact> 0.24601260E+07</totfact>
</mgrwt>
</event>
<event>
 4    1  0.7151341E+004  0.2287355E+02  0.7546771E-02  0.1693568E+00
         21   -1    0    0  501  502  0.00000000000E+00  0.00000000000E+00  0.38559130335E+01  0.38559130335E+01  0.00000000000E+00 0. -1.
         21   -1    0    0  502  503 -0.00000000000E+00 -0.00000000000E+00 -0.14364778379E+03  0.14364778379E+03  0.00000000000E+00 0. -1.
          4    1    1    2  501    0 -0.22033850150E+02 -0.61407307310E+01 -0.52534395633E+02  0.57298009135E+02  0.00000000000E+00 0. -1.
         -4    1    1    2    0  503  0.22033850150E+02  0.61407307310E+01 -0.87257475124E+02  0.90205687688E+02  0.00000000000E+00 0.  1.
<mgrwt>
<rscale>  2 0.22873546E+02</rscale>
<asrwt>0</asrwt>
<pdfrwt beam="1">  1       21 0.59321728E-03 0.22873546E+02</pdfrwt>
<pdfrwt beam="2">  1       21 0.22099663E-01 0.22873546E+02</pdfrwt>
<totfact> 0.11248519E+08</totfact>
</mgrwt>
</event>
<event>
 4    1  0.7151341E+004  0.2162318E+02  0.7546771E-02  0.1714852E+00
         21   -1    0    0  503  502  0.00000000000E+00  0.00000000000E+00  0.10883268047E+02  0.10883268047E+02  0.00000000000E+00 0. -1.
         21   -1    0    0  501  503 -0.00000000000E+00 -0.00000000000E+00 -0.43384055530E+02  0.43384055530E+02  0.00000000000E+00 0. -1.
          1    1    1    2  501    0  0.16766362740E+02  0.13654706716E+02 -0.13572670790E+02  0.25529969201E+02  0.00000000000E+00 0.  1.
         -1    1    1    2    0  502 -0.16766362740E+02 -0.13654706716E+02 -0.18928116693E+02  0.28737354377E+02  0.00000000000E+00 0. -1.
<mgrwt>
<rscale>  2 0.21623181E+02</rscale>
<asrwt>0</asrwt>
<pdfrwt beam="1">  1       21 0.16743489E-02 0.21623181E+02</pdfrwt>
<pdfrwt beam="2">  1       21 0.66744702E-02 0.21623181E+02</pdfrwt>
<totfact> 0.17378736E+08</totfact>
</mgrwt>
</event>
<event>
 4    1  0.7151341E+004  0.2078367E+02  0.7546771E-02  0.1730178E+00
         21   -1    0    0  501  502  0.00000000000E+00  0.00000000000E+00  0.38341026480E+03  0.38341026480E+03  0.00000000000E+00 0.  1.
         21   -1    0    0  502  503 -0.00000000000E+00 -0.00000000000E+00 -0.11336218601E+01  0.11336218601E+01  0.00000000000E+00 0.  1.
          2    1    1    2  501    0  0.19067581344E+02  0.82697269966E+01  0.17603697286E+03  0.17725963121E+03  0.00000000000E+00 0. -1.
         -2    1    1    2    0  503 -0.19067581344E+02 -0.82697269966E+01  0.20623967008E+03  0.20728425545E+03  0.00000000000E+00 0.  1.
<mgrwt>
<rscale>  2 0.20783673E+02</rscale>
<asrwt>0</asrwt>
<pdfrwt beam="1">  1       21 0.58986091E-01 0.20783673E+02</pdfrwt>
<pdfrwt beam="2">  1       21 0.17440367E-03 0.20783673E+02</pdfrwt>
<totfact> 0.10493855E+08</totfact>
</mgrwt>
</event>
<event>
 4    1  0.7151341E+004  0.2395549E+02  0.7546771E-02  0.1676474E+00
         21   -1    0    0  501  502  0.00000000000E+00  0.00000000000E+00  0.41085161548E+01  0.41085161548E+01  0.00000000000E+00 0. -1.
         21   -1    0    0  502  503 -0.00000000000E+00 -0.00000000000E+00 -0.14825226687E+03  0.14825226687E+03  0.00000000000E+00 0. -1.
          1    1    1    2  501    0 -0.22865928395E+02 -0.71424504604E+01 -0.90393582038E+02  0.93513982663E+02  0.00000000000E+00 0.  1.
         -1    1    1    2    0  503  0.22865928395E+02  0.71424504604E+01 -0.53750168680E+02  0.58846800364E+02  0.00000000000E+00 0. -1.
<mgrwt>
<rscale>  2 0.23955485E+02</rscale>
<asrwt>0</asrwt>
<pdfrwt beam="1">  1       21 0.63207933E-03 0.23955485E+02</pdfrwt>
<pdfrwt beam="2">  1       21 0.22808044E-01 0.23955485E+02</pdfrwt>
<totfact> 0.98073305E+07</totfact>
</mgrwt>
</event>
<event>
 4    1  0.7151341E+004  0.2581997E+02  0.7546771E-02  0.1649496E+00
         21   -1    0    0  503  502  0.00000000000E+00  0.00000000000E+00  0.35226722706E+01  0.35226722706E+01  0.00000000000E+00 0. -1.
         21   -1    0    0  501  503 -0.00000000000E+00 -0.00000000000E+00 -0.35407958072E+03  0.35407958072E+03  0.00000000000E+00 0. -1.
          4    1    1    2  501    0 -0.49057013854E+01 -0.25349654723E+02 -0.53285302471E+02  0.59211437747E+02  0.00000000000E+00 0.  1.
         -4    1    1    2    0  502  0.49057013854E+01  0.25349654723E+02 -0.29727160597E+03  0.29839081524E+03  0.00000000000E+00 0. -1.
<mgrwt>
<rscale>  2 0.25819971E+02</rscale>
<asrwt>0</asrwt>
<pdfrwt beam="1">  1       21 0.54194946E-03 0.25819971E+02</pdfrwt>
<pdfrwt beam="2">  1       21 0.54473794E-01 0.25819971E+02</pdfrwt>
<totfact> 0.24721773E+07</totfact>
</mgrwt>
</event>
<event>
 4    1  0.7151341E+004  0.2783606E+02  0.7546771E-02  0.1623318E+00
         21   -1    0    0  503  502  0.00000000000E+00  0.00000000000E+00  0.23857825625E+02  0.23857825625E+02  0.00000000000E+00 0. -1.
         21   -1    0    0  501  503 -0.00000000000E+00 -0.00000000000E+00 -0.37412131133E+02  0.37412131133E+02  0.00000000000E+00 0. -1.
          2    1    1    2  501    0  0.23766150415E+02 -0.14491944564E+02 -0.17902962654E+02  0.33096260130E+02  0.00000000000E+00 0.  1.
         -2    1    1    2    0  502 -0.23766150415E+02  0.14491944564E+02  0.43486571463E+01  0.28173696629E+02  0.00000000000E+00 0. -1.
<mgrwt>
<rscale>  2 0.27836062E+02</rscale>
<asrwt>0</asrwt>
<pdfrwt beam="1">  1       21 0.36704347E-02 0.27836062E+02</pdfrwt>
<pdfrwt beam="2">  1       21 0.57557125E-02 0.27836062E+02</pdfrwt>
<totfact> 0.70134411E+07</totfact>
</mgrwt>
</event>
<event>
 4    1  0.7151341E+004  0.2185954E+02  0.7546771E-02  0.1710693E+00
         21   -1    0    0  501  502  0.00000000000E+00  0.00000000000E+00  0.30289329664E+01  0.30289329664E+01  0.00000000000E+00 0.  1.
         21   -1    0    0  502  503 -0.00000000000E+00 -0.00000000000E+00 -0.15920579148E+03  0.15920579148E+03  0.00000000000E+00 0.  1.
          4    1    1    2  501    0  0.70197375589E+01  0.20701760234E+02 -0.85822866086E+02  0.88562994165E+02  0.00000000000E+00 0.  1.
         -4    1    1    2    0  503 -0.70197375589E+01 -0.20701760234E+02 -0.70353992428E+02  0.73671730282E+02  0.00000000000E+00 0. -1.
<mgrwt>
<rscale>  2 0.21859542E+02</rscale>
<asrwt>0</asrwt>
<pdfrwt beam="1">  1       21 0.46598966E-03 0.21859542E+02</pdfrwt>
<pdfrwt beam="2">  1       21 0.24493200E-01 0.21859542E+02</pdfrwt>
<totfact> 0.13220235E+08</totfact>
</mgrwt>
</event>
<event>
 4    1  0.7151341E+004  0.2021647E+02  0.7546771E-02  0.1741057E+00
         21   -1    0    0  503  502  0.00000000000E+00  0.00000000000E+00  0.18036194366E+02  0.18036194366E+02  0.00000000000E+00 0. -1.
         21   -1    0    0  501  503 -0.00000000000E+00 -0.00000000000E+00 -0.24308925569E+02  0.24308925569E+02  0.00000000000E+00 0. -1.
          5    1    1    2  501    0  0.12528967682E+02 -0.15866024866E+02  0.23774220552E+01  0.20355783254E+02  0.00000000000E+00 0.  1.
         -5    1    1    2    0  502 -0.12528967682E+02  0.15866024866E+02 -0.86501532583E+01  0.21989336680E+02  0.00000000000E+00 0. -1.
<mgrwt>
<rscale>  2 0.20216473E+02</rscale>
<asrwt>0</asrwt>
<pdfrwt beam="1">  1       21 0.27747991E-02 0.20216473E+02</pdfrwt>
<pdfrwt beam="2">  1       21 0.37398347E-02 0.20216473E+02</pdfrwt>
<totfact> 0.19654012E+08</totfact>
</mgrwt>
</event>
<event>
 4    1  0.7151341E+004  0.2214438E+02  0.7546771E-02  0.1705767E+00
         21   -1    0    0  503  502  0.00000000000E+00  0.00000000000E+00  0.58752201536E+01  0.58752201536E+01  0.00000000000E+00 0.  1.
         21   -1    0    0  501  503 -0.00000000000E+00 -0.00000000000E+00 -0.92756944948E+02  0.92756944948E+02  0.00000000000E+00 0.  1.
          3    1    1    2  501    0  0.14325692173E+02 -0.16886334327E+02 -0.59049847301E+02  0.63065507288E+02  0.00000000000E+00 0.  1.
         -3    1    1    2    0  502 -0.14325692173E+02  0.16886334327E+02 -0.27831877493E+02  0.35566657814E+02  0.00000000000E+00 0. -1.
<mgrwt>
<rscale>  2 0.22144384E+02</rscale>
<asrwt>0</asrwt>
<pdfrwt beam="1">  1       21 0.90388003E-03 0.22144384E+02</pdfrwt>
<pdfrwt beam="2">  1       21 0.14270299E-01 0.22144384E+02</pdfrwt>
<totfact> 0.12666470E+08</totfact>
</mgrwt>
</event>
<event>
 4    1  0.7151341E+004  0.2348929E+02  0.7546771E-02  0.1683700E+00
         21   -1    0    0  501  502  0.00000000000E+00  0.00000000000E+00  0.50551328068E+03  0.50551328068E+03  0.00000000000E+00 0. -1.
         21   -1    0    0  502  503 -0.00000000000E+00 -0.00000000000E+00 -0.14615715154E+01  0.14615715154E+01  0.00000000000E+00 0. -1.
          4    1    1    2  501    0 -0.19954489983E+02  0.12392132369E+02  0.12446608045E+03  0.12666314301E+03  0.00000000000E+00 0.  1.
         -4    1    1    2    0  503  0.19954489983E+02 -0.12392132369E+02  0.37958562872E+03  0.38031170918E+03  0.00000000000E+00 0. -1.
<mgrwt>
<rscale>  2 0.23489287E+02</rscale>
<asrwt>0</asrwt>
<pdfrwt beam="1">  1       21 0.77771135E-01 0.23489287E+02</pdfrwt>
<pdfrwt beam="2">  1       21 0.22485756E-03 0.23489287E+02</pdfrwt>
<totfact> 0.42690318E+07</totfact>
</mgrwt>
</event>
<event>
 4    1  0.7151341E+004  0.2743379E+02  0.7546771E-02  0.1628320E+00
         21   -1    0    0  503  502  0.00000000000E+00  0.00000000000E+00  0.14987572778E+02  0.14987572778E+02  0.00000000000E+00 0.  1.
         21   -1    0    0  501  503 -0.00000000000E+00 -0.00000000000E+00 -0.64353278373E+02  0.64353278373E+02  0.00000000000E+00 0.  1.
          2    1    1    2  501    0  0.25586771062E+02 -0.98959532233E+01 -0.60890715586E+01  0.28101415196E+02  0.00000000000E+00 0.  1.
         -2    1    1    2    0  502 -0.25586771062E+02  0.98959532233E+01 -0.43276634036E+02  0.51239435956E+02  0.00000000000E+00 0. -1.
<mgrwt>
<rscale>  2 0.27433788E+02</rscale>
<asrwt>0</asrwt>
<pdfrwt beam="1">  1       21 0.23057804E-02 0.27433788E+02</pdfrwt>
<pdfrwt beam="2">  1       21 0.99005045E-02 0.27433788E+02</pdfrwt>
<totfact> 0.59509700E+07</totfact>
</mgrwt>
</event>
<event>
 4    1  0.7151341E+004  0.2597686E+02  0.7546771E-02  0.1647355E+00
         21   -1    0    0  501  502  0.00000000000E+00  0.00000000000E+00  0.71791443606E+01  0.71791443606E+01  0.00000000000E+00 0. -1.
         21   -1    0    0  502  503 -0.00000000000E+00 -0.00000000000E+00 -0.11753383640E+03  0.11753383640E+03  0.00000000000E+00 0. -1.
          5    1    1    2  501    0  0.23594859429E+02 -0.10866452295E+02 -0.83083568456E+02  0.87049850801E+02  0.00000000000E+00 0.  1.
         -5    1    1    2    0  503 -0.23594859429E+02  0.10866452295E+02 -0.27271123586E+02  0.37663129963E+02  0.00000000000E+00 0. -1.
<mgrwt>
<rscale>  2 0.25976858E+02</rscale>
<asrwt>0</asrwt>
<pdfrwt beam="1">  1       21 0.11044838E-02 0.25976858E+02</pdfrwt>
<pdfrwt beam="2">  1       21 0.18082127E-01 0.25976858E+02</pdfrwt>
<totfact> 0.65154655E+07</totfact>
</mgrwt>
</event>
<event>
 4    1  0.7151341E+004  0.2305997E+02  0.7546771E-02  0.1690540E+00
         21   -1    0    0  503  502  0.00000000000E+00  0.00000000000E+00  0.19250456224E+04  0.19250456224E+04  0.00000000000E+00 0.  1.
         21   -1    0    0  501  503 -0.00000000000E+00 -0.00000000000E+00 -0.28483006385E+00  0.28483006385E+00  0.00000000000E+00 0.  1.
          5    1    1    2  501    0  0.22762541684E+02 -0.36917507106E+01  0.11296209911E+04  0.11298563386E+04  0.00000000000E+00 0. -1.
         -5    1    1    2    0  502 -0.22762541684E+02  0.36917507106E+01  0.79513980128E+03  0.79547411391E+03  0.00000000000E+00 0.  1.
<mgrwt>
<rscale>  2 0.23059972E+02</rscale>
<asrwt>0</asrwt>
<pdfrwt beam="1">  1       21 0.29615045E+00 0.23059972E+02</pdfrwt>
<pdfrwt beam="2">  1       21 0.43821551E-04 0.23059972E+02</pdfrwt>
<totfact> 0.16296217E+07</totfact>
</mgrwt>
</event>
<event>
 4    1  0.7151341E+004  0.2255505E+02  0.7546771E-02  0.1698826E+00
         21   -1    0    0  501  502  0.00000000000E+00  0.00000000000E+00  0.16256969625E+03  0.16256969625E+03  0.00000000000E+00 0.  1.
         21   -1    0    0  502  503 -0.00000000000E+00 -0.00000000000E+00 -0.31643898630E+01  0.31643898630E+01  0.00000000000E+00 0.  1.
          5    1    1    2  501    0 -0.20334697996E+02  0.97586136754E+01  0.70977269086E+02  0.74474849516E+02  0.00000000000E+00 0. -1.
         -5    1    1    2    0  503  0.20334697996E+02 -0.97586136754E+01  0.88428037301E+02  0.91259236597E+02  0.00000000000E+00 0.  1.
<mgrwt>
<rscale>  2 0.22555054E+02</rscale>
<asrwt>0</asrwt>
<pdfrwt beam="1">  1       21 0.25010716E-01 0.22555054E+02</pdfrwt>
<pdfrwt beam="2">  1       21 0.48682934E-03 0.22555054E+02</pdfrwt>
<totfact> 0.12050113E+08</totfact>
</mgrwt>
</event>
<event>
 4    1  0.7151341E+004  0.2578536E+02  0.7546771E-02  0.1649971E+00
         21   -1    0    0  501  502  0.00000000000E+00  0.00000000000E+00  0.60798882471E+01  0.60798882471E+01  0.00000000000E+00 0.  1.
         21   -1    0    0  502  503 -0.00000000000E+00 -0.00000000000E+00 -0.11639955846E+03  0.11639955846E+03  0.00000000000E+00 0.  1.
          5    1    1    2  501    0 -0.92756332807E+01 -0.24059245108E+02 -0.70222117539E+02  0.74806620292E+02  0.00000000000E+00 0. -1.
         -5    1    1    2    0  503  0.92756332807E+01  0.24059245108E+02 -0.40097552672E+02  0.47672826413E+02  0.00000000000E+00 0.  1.
<mgrwt>
<rscale>  2 0.25785357E+02</rscale>
<asrwt>0</asrwt>
<pdfrwt beam="1">  1       21 0.93536742E-03 0.25785357E+02</pdfrwt>
<pdfrwt beam="2">  1       21 0.17907624E-01 0.25785357E+02</pdfrwt>
<totfact> 0.84991399E+07</totfact>
</mgrwt>
</event>
<event>
 4    1  0.7151341E+004  0.2108490E+02  0.7546771E-02  0.1724576E+00
         21   -1    0    0  503  502  0.00000000000E+00  0.00000000000E+00  0.70438439059E+00  0.70438439059E+00  0.00000000000E+00 0.  1.
         21   -1    0    0  501  503 -0.00000000000E+00 -0.00000000000E+00 -0.63594442387E+03  0.63594442387E+03  0.00000000000E+00 0.  1.
          1    1    1    2  501    0  0.20149760529E+02 -0.62096959289E+01 -0.28998457099E+03  0.29075010676E+03  0.00000000000E+00 0. -1.
         -1    1    1    2    0  502 -0.20149760529E+02  0.62096959289E+01 -0.34525546849E+03  0.34589870150E+03  0.00000000000E+00 0.  1.
<mgrwt>
<rscale>  2 0.21084904E+02</rscale>
<asrwt>0</asrwt>
<pdfrwt beam="1">  1       21 0.10836654E-03 0.21084904E+02</pdfrwt>
<pdfrwt beam="2">  1       21 0.97837864E-01 0.21084904E+02</pdfrwt>
<totfact> 0.72837384E+07</totfact>
</mgrwt>
</event>
<event>
 4    1  0.7151341E+004  0.2040836E+02  0.7546771E-02  0.1737327E+00
         21   -1    0    0  503  502  0.00000000000E+00  0.00000000000E+00  0.17840219394E+01  0.17840219394E+01  0.00000000000E+00 0.  1.
         21   -1    0    0  501  503 -0.00000000000E+00 -0.00000000000E+00 -0.26066450421E+03  0.26066450421E+03  0.00000000000E+00 0.  1.
          4    1    1    2  501    0  0.16653101358E+02  0.11797262535E+02 -0.87048791054E+02  0.89409133830E+02  0.00000000000E+00 0.  1.
         -4    1    1    2    0  502 -0.16653101358E+02 -0.11797262535E+02 -0.17183169122E+03  0.17303939232E+03  0.00000000000E+00 0. -1.
<mgrwt>
<rscale>  2 0.20408361E+02</rscale>
<asrwt>0</asrwt>
<pdfrwt beam="1">  1       21 0.27446495E-03 0.20408361E+02</pdfrwt>
<pdfrwt beam="2">  1       21 0.40102226E-01 0.20408361E+02</pdfrwt>
<totfact> 0.11427454E+08</totfact>
</mgrwt>
</event>
<event>
 4    1  0.7151341E+004  0.2326849E+02  0.7546771E-02  0.1687195E+00
         21   -1    0    0  501  502  0.00000000000E+00  0.00000000000E+00  0.89409598741E+03  0.89409598741E+03  0.00000000000E+00 0. -1.
         21   -1    0    0  502  503 -0.00000000000E+00 -0.00000000000E+00 -0.10116098868E+01  0.10116098868E+01  0.00000000000E+00 0. -1.
          2    1    1    2  501    0  0.21213288442E+02  0.95613402691E+01  0.73009369579E+03  0.73046439165E+03  0.00000000000E+00 0.  1.
         -2    1    1    2    0  503 -0.21213288442E+02 -0.95613402691E+01  0.16299068174E+03  0.16464320565E+03  0.00000000000E+00 0. -1.
<mgrwt>
<rscale>  2 0.23268494E+02</rscale>
<asrwt>0</asrwt>
<pdfrwt beam="1">  1       21 0.13755260E+00 0.23268494E+02</pdfrwt>
<pdfrwt beam="2">  1       21 0.15563301E-03 0.23268494E+02</pdfrwt>
<totfact> 0.20615965E+07</totfact>
</mgrwt>
</event>
<event>
 4    1  0.7151341E+004  0.2475255E+02  0.7546771E-02  0.1664582E+00
         21   -1    0    0  503  502  0.00000000000E+00  0.00000000000E+00  0.48257814450E+03  0.48257814450E+03  0.00000000000E+00 0.  1.
         21   -1    0    0  501  503 -0.00000000000E+00 -0.00000000000E+00 -0.13870828912E+01  0.13870828912E+01  0.00000000000E+00 0.  1.
          5    1    1    2  501    0 -0.52612090917E+01 -0.24186944752E+02  0.17017619837E+03  0.17196693609E+03  0.00000000000E+00 0.  1.
         -5    1    1    2    0  502  0.52612090917E+01  0.24186944752E+02  0.31101486324E+03  0.31199829130E+03  0.00000000000E+00 0. -1.
<mgrwt>
<rscale>  2 0.24752548E+02</rscale>
<asrwt>0</asrwt>
<pdfrwt beam="1">  1       21 0.74242657E-01 0.24752548E+02</pdfrwt>
<pdfrwt beam="2">  1       21 0.21339775E-03 0.24752548E+02</pdfrwt>
<totfact> 0.51312116E+07</totfact>
</mgrwt>
</event>
<event>
 4    1  0.7151341E+004  0.2203273E+02  0.7546771E-02  0.1707686E+00
         21   -1    0    0  501  502  0.00000000000E+00  0.00000000000E+00  0.60753246883E+02  0.60753246883E+02  0.00000000000E+00 0. -1.
         21   -1    0    0  502  503 -0.00000000000E+00 -0.00000000000E+00 -0.89220813716E+01  0.89220813716E+01  0.00000000000E+00 0. -1.
          1    1    1    2  501    0  0.21513641924E+02  0.47544277754E+01  0.14657747064E+02  0.26463010435E+02  0.00000000000E+00 0. -1.
         -1    1    1    2    0  503 -0.21513641924E+02 -0.47544277754E+01  0.37173418447E+02  0.43212317819E+02  0.00000000000E+00 0.  1.
<mgrwt>
<rscale>  2 0.22032734E+02</rscale>
<asrwt>0</asrwt>
<pdfrwt beam="1">  1       21 0.93466531E-02 0.22032734E+02</pdfrwt>
<pdfrwt beam="2">  1       21 0.13726279E-02 0.22032734E+02</pdfrwt>
<totfact> 0.13662222E+08</totfact>
</mgrwt>
</event>
<event>
 4    1  0.7151341E+004  0.2095464E+02  0.7546771E-02  0.1726984E+00
         21   -1    0    0  501  502  0.00000000000E+00  0.00000000000E+00  0.80736010630E+01  0.80736010630E+01  0.00000000000E+00 0.  1.
         21   -1    0    0  502  503 -0.00000000000E+00 -0.00000000000E+00 -0.54530509375E+02  0.54530509375E+02  0.00000000000E+00 0.  1.
          3    1    1    2  501    0  0.23576070679E+01 -0.20821591360E+02 -0.24835620509E+02  0.32494692242E+02  0.00000000000E+00 0. -1.
         -3    1    1    2    0  503 -0.23576070679E+01  0.20821591360E+02 -0.21621287803E+02  0.30109418196E+02  0.00000000000E+00 0.  1.
<mgrwt>
<rscale>  2 0.20954641E+02</rscale>
<asrwt>0</asrwt>
<pdfrwt beam="1">  1       21 0.12420925E-02 0.20954641E+02</pdfrwt>
<pdfrwt beam="2">  1       21 0.83893092E-02 0.20954641E+02</pdfrwt>
<totfact> 0.18670913E+08</totfact>
</mgrwt>
</event>
<event>
 4    1  0.7151341E+004  0.2871536E+02  0.7546771E-02  0.1612739E+00
         21   -1    0    0  503  502  0.00000000000E+00  0.00000000000E+00  0.91057115525E+00  0.91057115525E+00  0.00000000000E+00 0.  1.
         21   -1    0    0  501  503 -0.00000000000E+00 -0.00000000000E+00 -0.93171808448E+03  0.93171808448E+03  0.00000000000E+00 0.  1.
          1    1    1    2  501    0  0.28636556876E+02  0.21259379578E+01 -0.54354554458E+03  0.54430352841E+03  0.00000000000E+00 0. -1.
         -1    1    1    2    0  502 -0.28636556876E+02 -0.21259379578E+01 -0.38726196874E+03  0.38832512722E+03  0.00000000000E+00 0.  1.
<mgrwt>
<rscale>  2 0.28715362E+02</rscale>
<asrwt>0</asrwt>
<pdfrwt beam="1">  1       21 0.14008744E-03 0.28715362E+02</pdfrwt>
<pdfrwt beam="2">  1       21 0.14334168E+00 0.28715362E+02</pdfrwt>
<totfact> 0.22523153E+07</totfact>
</mgrwt>
</event>
<event>
 4    1  0.7151341E+004  0.2446051E+02  0.7546771E-02  0.1668874E+00
         21   -1    0    0  501  502  0.00000000000E+00  0.00000000000E+00  0.29272412735E+03  0.29272412735E+03  0.00000000000E+00 0.  1.
         21   -1    0    0  502  503 -0.00000000000E+00 -0.00000000000E+00 -0.21916671139E+01  0.21916671139E+01  0.00000000000E+00 0.  1.
          2    1    1    2  501    0 -0.38332502857E+01  0.24158284954E+02  0.18354701050E+03  0.18516971027E+03  0.00000000000E+00 0.  1.
         -2    1    1    2    0  503  0.38332502857E+01 -0.24158284954E+02  0.10698544974E+03  0.10974608419E+03  0.00000000000E+00 0. -1.
<mgrwt>
<rscale>  2 0.24460510E+02</rscale>
<asrwt>0</asrwt>
<pdfrwt beam="1">  1       21 0.45034450E-01 0.24460510E+02</pdfrwt>
<pdfrwt beam="2">  1       21 0.33717979E-03 0.24460510E+02</pdfrwt>
<totfact> 0.71254786E+07</totfact>
</mgrwt>
</event>
<event>
 4    1  0.7151341E+004  0.2108541E+02  0.7546771E-02  0.1724567E+00
         21   -1    0    0  501  502  0.00000000000E+00  0.00000000000E+00  0.49955074669E+02  0.49955074669E+02  0.00000000000E+00 0. -1.
         21   -1    0    0  502  503 -0.00000000000E+00 -0.00000000000E+00 -0.93946226588E+01  0.93946226588E+01  0.00000000000E+00 0. -1.
          2    1    1    2  501    0  0.17168047403E+02  0.12241429315E+02  0.13470398367E+02  0.25020912763E+02  0.00000000000E+00 0.  1.
         -2    1    1    2    0  503 -0.17168047403E+02 -0.12241429315E+02  0.27090053644E+02  0.34328784566E+02  0.00000000000E+00 0. -1.
<mgrwt>
<rscale>  2 0.21085408E+02</rscale>
<asrwt>0</asrwt>
<pdfrwt beam="1">  1       21 0.76853959E-02 0.21085408E+02</pdfrwt>
<pdfrwt beam="2">  1       21 0.14453266E-02 0.21085408E+02</pdfrwt>
<totfact> 0.17160625E+08</totfact>
</mgrwt>
</event>
<event>
 4    1  0.7151341E+004  0.3438753E+02  0.7546771E-02  0.1554108E+00
         21   -1    0    0  501  502  0.00000000000E+00  0.00000000000E+00  0.24117448320E+01  0.24117448320E+01  0.00000000000E+00 0. -1.
         21   -1    0    0  502  503 -0.00000000000E+00 -0.00000000000E+00 -0.68130984708E+03  0.68130984708E+03  0.00000000000E+00 0. -1.
          4    1    1    2  501    0 -0.34263696221E+02  0.29157069422E+01 -0.15844276536E+03  0.16213146555E+03  0.00000000000E+00 0.  1.
         -4    1    1    2    0  503  0.34263696221E+02 -0.29157069422E+01 -0.52045533689E+03  0.52159012637E+03  0.00000000000E+00 0. -1.
<mgrwt>
<rscale>  2 0.34387530E+02</rscale>
<asrwt>0</asrwt>
<pdfrwt beam="1">  1       21 0.37103747E-03 0.34387530E+02</pdfrwt>
<pdfrwt beam="2">  1       21 0.10481695E+00 0.34387530E+02</pdfrwt>
<totfact> 0.11454479E+07</totfact>
</mgrwt>
</event>
<event>
 4    1  0.7151341E+004  0.2873055E+02  0.7546771E-02  0.1612560E+00
         21   -1    0    0  501  502  0.00000000000E+00  0.00000000000E+00  0.55965609247E+03  0.55965609247E+03  0.00000000000E+00 0.  1.
         21   -1    0    0  502  503 -0.00000000000E+00 -0.00000000000E+00 -0.15846821734E+01  0.15846821734E+01  0.00000000000E+00 0.  1.
          4    1    1    2  501    0  0.24210950566E+01 -0.28628354959E+02  0.20517948987E+03  0.20718124306E+03  0.00000000000E+00 0.  1.
         -4    1    1    2    0  503 -0.24210950566E+01  0.28628354959E+02  0.35289192042E+03  0.35405953159E+03  0.00000000000E+00 0. -1.
<mgrwt>
<rscale>  2 0.28730548E+02</rscale>
<asrwt>0</asrwt>
<pdfrwt beam="1">  1       21 0.86100780E-01 0.28730548E+02</pdfrwt>
<pdfrwt beam="2">  1       21 0.24379770E-03 0.28730548E+02</pdfrwt>
<totfact> 0.31845902E+07</totfact>
</mgrwt>
</event>
<event>
 4    1  0.7151341E+004  0.2393485E+02  0.7546771E-02  0.1676790E+00
         21   -1    0    0  501  502  0.00000000000E+00  0.00000000000E+00  0.48254781170E+03  0.48254781170E+03  0.00000000000E+00 0.  1.
         21   -1    0    0  502  503 -0.00000000000E+00 -0.00000000000E+00 -0.15446727508E+01  0.15446727508E+01  0.00000000000E+00 0.  1.
          5    1    1    2  501    0  0.90060899244E+01 -0.22175826279E+02  0.12406044228E+03  0.12634821038E+03  0.00000000000E+00 0.  1.
         -5    1    1    2    0  503 -0.90060899244E+01  0.22175826279E+02  0.35694269667E+03  0.35774427407E+03  0.00000000000E+00 0. -1.
<mgrwt>
<rscale>  2 0.23934848E+02</rscale>
<asrwt>0</asrwt>
<pdfrwt beam="1">  1       21 0.74238005E-01 0.23934848E+02</pdfrwt>
<pdfrwt beam="2">  1       21 0.23764235E-03 0.23934848E+02</pdfrwt>
<totfact> 0.43583876E+07</totfact>
</mgrwt>
</event>
<event>
 4    1  0.7151341E+004  0.2103640E+02  0.7546771E-02  0.1725470E+00
         21   -1    0    0  503  502  0.00000000000E+00  0.00000000000E+00  0.31727215354E+01  0.31727215354E+01  0.00000000000E+00 0. -1.
         21   -1    0    0  501  503 -0.00000000000E+00 -0.00000000000E+00 -0.15330326741E+03  0.15330326741E+03  0.00000000000E+00 0. -1.
          3    1    1    2  501    0  0.21035960177E+02 -0.13589060657E+00 -0.51571494496E+02  0.55696940054E+02  0.00000000000E+00 0.  1.
         -3    1    1    2    0  502 -0.21035960177E+02  0.13589060657E+00 -0.98559051377E+02  0.10077904889E+03  0.00000000000E+00 0. -1.
<mgrwt>
<rscale>  2 0.21036399E+02</rscale>
<asrwt>0</asrwt>
<pdfrwt beam="1">  1       21 0.48811110E-03 0.21036399E+02</pdfrwt>
<pdfrwt beam="2">  1       21 0.23585113E-01 0.21036399E+02</pdfrwt>
<totfact> 0.13058045E+08</totfact>
</mgrwt>
</event>
<event>
 4    1  0.7151341E+004  0.2282359E+02  0.7546771E-02  0.1694386E+00
         21   -1    0    0  503  502  0.00000000000E+00  0.00000000000E+00  0.41526269974E+03  0.41526269974E+03  0.00000000000E+00 0.  1.
         21   -1    0    0  501  503 -0.00000000000E+00 -0.00000000000E+00 -0.16290185534E+01  0.16290185534E+01  0.00000000000E+00 0.  1.
          5    1    1    2  501    0 -0.13008569419E+02  0.18753492184E+02  0.30677305469E+03  0.30762090864E+03  0.00000000000E+00 0.  1.
         -5    1    1    2    0  502  0.13008569419E+02 -0.18753492184E+02  0.10686062649E+03  0.10927080965E+03  0.00000000000E+00 0. -1.
<mgrwt>
<rscale>  2 0.22823592E+02</rscale>
<asrwt>0</asrwt>
<pdfrwt beam="1">  1       21 0.63886485E-01 0.22823592E+02</pdfrwt>
<pdfrwt beam="2">  1       21 0.25061857E-03 0.22823592E+02</pdfrwt>
<totfact> 0.54275071E+07</totfact>
</mgrwt>
</event>
<event>
 4    1  0.7151341E+004  0.7148437E+02  0.7546771E-02  0.1355117E+00
         21   -1    0    0  503  502  0.00000000000E+00  0.00000000000E+00  0.69583074656E+02  0.69583074656E+02  0.00000000000E+00 0. -1.
         21   -1    0    0  501  503 -0.00000000000E+00 -0.00000000000E+00 -0.13814350134E+03  0.13814350134E+03  0.00000000000E+00 0. -1.
          1    1    1    2  501    0 -0.38738090909E+00 -0.71483320934E+02 -0.10536370026E+03  0.12732448535E+03  0.00000000000E+00 0. -1.
         -1    1    1    2    0  502  0.38738090909E+00  0.71483320934E+02  0.36803273574E+02  0.80402090653E+02  0.00000000000E+00 0.  1.
<mgrwt>
<rscale>  2 0.71484371E+02</rscale>
<asrwt>0</asrwt>
<pdfrwt beam="1">  1       21 0.10705088E-01 0.71484371E+02</pdfrwt>
<pdfrwt beam="2">  1       21 0.21252846E-01 0.71484371E+02</pdfrwt>
<totfact> 0.14527893E+06</totfact>
</mgrwt>
</event>
<event>
 4    1  0.7151341E+004  0.2086912E+02  0.7546771E-02  0.1728577E+00
         21   -1    0    0  501  502  0.00000000000E+00  0.00000000000E+00  0.11638899157E+02  0.11638899157E+02  0.00000000000E+00 0.  1.
         21   -1    0    0  502  503 -0.00000000000E+00 -0.00000000000E+00 -0.37576342893E+02  0.37576342893E+02  0.00000000000E+00 0.  1.
          2    1    1    2  501    0  0.15989800680E+02  0.13410679838E+02 -0.11378161374E+02  0.23769362965E+02  0.00000000000E+00 0. -1.
         -2    1    1    2    0  503 -0.15989800680E+02 -0.13410679838E+02 -0.14559282363E+02  0.25445879086E+02  0.00000000000E+00 0.  1.
<mgrwt>
<rscale>  2 0.20869117E+02</rscale>
<asrwt>0</asrwt>
<pdfrwt beam="1">  1       21 0.17905999E-02 0.20869117E+02</pdfrwt>
<pdfrwt beam="2">  1       21 0.57809758E-02 0.20869117E+02</pdfrwt>
<totfact> 0.19537907E+08</totfact>
</mgrwt>
</event>
<event>
 4    1  0.7151341E+004  0.2454717E+02  0.7546771E-02  0.1667592E+00
         21   -1    0    0  503  502  0.00000000000E+00  0.00000000000E+00  0.39170665509E+01  0.39170665509E+01  0.00000000000E+00 0. -1.
         21   -1    0    0  501  503 -0.00000000000E+00 -0.00000000000E+00 -0.20661388217E+03  0.20661388217E+03  0.00000000000E+00 0. -1.
          4    1    1    2  501    0 -0.11490605076E+02  0.21691697150E+02 -0.15455377135E+03  0.15649099645E+03  0.00000000000E+00 0. -1.
         -4    1    1    2    0  502  0.11490605076E+02 -0.21691697150E+02 -0.48143044263E+02  0.54039952269E+02  0.00000000000E+00 0.  1.
<mgrwt>
<rscale>  2 0.24547174E+02</rscale>
<asrwt>0</asrwt>
<pdfrwt beam="1">  1       21 0.60262566E-03 0.24547174E+02</pdfrwt>
<pdfrwt beam="2">  1       21 0.31786749E-01 0.24547174E+02</pdfrwt>
<totfact> 0.58249066E+07</totfact>
</mgrwt>
</event>
<event>
 4    1  0.7151341E+004  0.3883732E+02  0.7546771E-02  0.1516946E+00
         21   -1    0    0  503  502  0.00000000000E+00  0.00000000000E+00  0.25812437334E+03  0.25812437334E+03  0.00000000000E+00 0.  1.
         21   -1    0    0  501  503 -0.00000000000E+00 -0.00000000000E+00 -0.64793844610E+01  0.64793844610E+01  0.00000000000E+00 0.  1.
          5    1    1    2  501    0 -0.38320535425E+02 -0.63145842966E+01  0.16727059201E+03  0.17172008723E+03  0.00000000000E+00 0.  1.
         -5    1    1    2    0  502  0.38320535425E+02  0.63145842966E+01  0.84374396877E+02  0.92883670570E+02  0.00000000000E+00 0. -1.
<mgrwt>
<rscale>  2 0.38837320E+02</rscale>
<asrwt>0</asrwt>
<pdfrwt beam="1">  1       21 0.39711434E-01 0.38837320E+02</pdfrwt>
<pdfrwt beam="2">  1       21 0.99682858E-03 0.38837320E+02</pdfrwt>
<totfact> 0.19626865E+07</totfact>
</mgrwt>
</event>
<event>
 4    1  0.7151341E+004  0.2138998E+02  0.7546771E-02  0.1719021E+00
         21   -1    0    0  501  502  0.00000000000E+00  0.00000000000E+00  0.19278476469E+01  0.19278476469E+01  0.00000000000E+00 0. -1.
         21   -1    0    0  502  503 -0.00000000000E+00 -0.00000000000E+00 -0.23946600633E+03  0.23946600633E+03  0.00000000000E+00 0. -1.
          4    1    1    2  501    0 -0.19438833954E+02  0.89254213315E+01 -0.13017477287E+03  0.13192044157E+03  0.00000000000E+00 0. -1.
         -4    1    1    2    0  503  0.19438833954E+02 -0.89254213315E+01 -0.10736338581E+03  0.10947341241E+03  0.00000000000E+00 0.  1.
<mgrwt>
<rscale>  2 0.21389984E+02</rscale>
<asrwt>0</asrwt>
<pdfrwt beam="1">  1       21 0.29659184E-03 0.21389984E+02</pdfrwt>
<pdfrwt beam="2">  1       21 0.36840938E-01 0.21389984E+02</pdfrwt>
<totfact> 0.12121210E+08</totfact>
</mgrwt>
</event>
<event>
 4    1  0.7151341E+004  0.2954211E+02  0.7546771E-02  0.1603206E+00
         21   -1    0    0  501  502  0.00000000000E+00  0.00000000000E+00  0.68199737450E+01  0.68199737450E+01  0.00000000000E+00 0. -1.
         21   -1    0    0  502  503 -0.00000000000E+00 -0.00000000000E+00 -0.12886001376E+03  0.12886001376E+03  0.00000000000E+00 0. -1.
          4    1    1    2  501    0  0.29485935462E+02 -0.18209461233E+01 -0.66665355622E+02  0.72917802182E+02  0.00000000000E+00 0.  1.
         -4    1    1    2    0  503 -0.29485935462E+02  0.18209461233E+01 -0.55374684393E+02  0.62762185323E+02  0.00000000000E+00 0. -1.
<mgrwt>
<rscale>  2 0.29542110E+02</rscale>
<asrwt>0</asrwt>
<pdfrwt beam="1">  1       21 0.10492267E-02 0.29542110E+02</pdfrwt>
<pdfrwt beam="2">  1       21 0.19824617E-01 0.29542110E+02</pdfrwt>
<totfact> 0.61796753E+07</totfact>
</mgrwt>
</event>
<event>
 4    1  0.7151341E+004  0.2175953E+02  0.7546771E-02  0.1712444E+00
         21   -1    0    0  503  502  0.00000000000E+00  0.00000000000E+00  0.96755246945E+00  0.96755246945E+00  0.00000000000E+00 0.  1.
         21   -1    0    0  501  503 -0.00000000000E+00 -0.00000000000E+00 -0.49569077153E+03  0.49569077153E+03  0.00000000000E+00 0.  1.
          1    1    1    2  501    0  0.89272388699E+00 -0.21741211122E+02 -0.21928778546E+03  0.22036472057E+03  0.00000000000E+00 0.  1.
         -1    1    1    2    0  502 -0.89272388699E+00  0.21741211122E+02 -0.27543543360E+03  0.27629360343E+03  0.00000000000E+00 0. -1.
<mgrwt>
<rscale>  2 0.21759532E+02</rscale>
<asrwt>0</asrwt>
<pdfrwt beam="1">  1       21 0.14885443E-03 0.21759532E+02</pdfrwt>
<pdfrwt beam="2">  1       21 0.76260013E-01 0.21759532E+02</pdfrwt>
<totfact> 0.79133238E+07</totfact>
</mgrwt>
</event>
<event>
 4    1  0.7151341E+004  0.2250503E+02  0.7546771E-02  0.1699661E+00
         21   -1    0    0  503  502  0.00000000000E+00  0.00000000000E+00  0.53603273205E+02  0.53603273205E+02  0.00000000000E+00 0.  1.
         21   -1    0    0  501  503 -0.00000000000E+00 -0.00000000000E+00 -0.97713018906E+01  0.97713018906E+01  0.00000000000E+00 0.  1.
          5    1    1    2  501    0 -0.11502854667E+02 -0.19343228627E+02  0.27674443468E+02  0.35670029163E+02  0.00000000000E+00 0. -1.
         -5    1    1    2    0  502  0.11502854667E+02  0.19343228627E+02  0.16157527846E+02  0.27704545933E+02  0.00000000000E+00 0.  1.
<mgrwt>
<rscale>  2 0.22505025E+02</rscale>
<asrwt>0</asrwt>
<pdfrwt beam="1">  1       21 0.82466573E-02 0.22505025E+02</pdfrwt>
<pdfrwt beam="2">  1       21 0.15032772E-02 0.22505025E+02</pdfrwt>
<totfact> 0.14706819E+08</totfact>
</mgrwt>
</event>
<event>
 4    1  0.7151341E+004  0.2145406E+02  0.7546771E-02  0.1717868E+00
         21   -1    0    0  503  502  0.00000000000E+00  0.00000000000E+00  0.69967526349E+02  0.69967526349E+02  0.00000000000E+00 0. -1.
         21   -1    0    0  501  503 -0.00000000000E+00 -0.00000000000E+00 -0.10281350435E+02  0.10281350435E+02  0.00000000000E+00 0. -1.
          5    1    1    2  501    0  0.56927695762E+01  0.20684996063E+02  0.57631204135E+01  0.22214640318E+02  0.00000000000E+00 0.  1.
         -5    1    1    2    0  502 -0.56927695762E+01 -0.20684996063E+02  0.53923055500E+02  0.58034236465E+02  0.00000000000E+00 0. -1.
<mgrwt>
<rscale>  2 0.21454060E+02</rscale>
<asrwt>0</asrwt>
<pdfrwt beam="1">  1       21 0.10764235E-01 0.21454060E+02</pdfrwt>
<pdfrwt beam="2">  1       21 0.15817463E-02 0.21454060E+02</pdfrwt>
<totfact> 0.86607492E+07</totfact>
</mgrwt>
</event>
<event>
 4    1  0.7151341E+004  0.2416131E+02  0.7546771E-02  0.1673349E+00
         21   -1    0    0  503  502  0.00000000000E+00  0.00000000000E+00  0.16323654207E+03  0.16323654207E+03  0.00000000000E+00 0. -1.
         21   -1    0    0  501  503 -0.00000000000E+00 -0.00000000000E+00 -0.40338076075E+01  0.40338076075E+01  0.00000000000E+00 0. -1.
          1    1    1    2  501    0  0.22879608661E+02  0.77648231834E+01  0.10777033126E+03  0.11044552173E+03  0.00000000000E+00 0. -1.
         -1    1    1    2    0  502 -0.22879608661E+02 -0.77648231834E+01  0.51432403211E+02  0.56824827950E+02  0.00000000000E+00 0.  1.
<mgrwt>
<rscale>  2 0.24161311E+02</rscale>
<asrwt>0</asrwt>
<pdfrwt beam="1">  1       21 0.25113309E-01 0.24161311E+02</pdfrwt>
<pdfrwt beam="2">  1       21 0.62058591E-03 0.24161311E+02</pdfrwt>
<totfact> 0.85115895E+07</totfact>
</mgrwt>
</event>
<event>
 4    1  0.7151341E+004  0.2142726E+02  0.7546771E-02  0.1718350E+00
         21   -1    0    0  503  502  0.00000000000E+00  0.00000000000E+00  0.64952072084E+01  0.64952072084E+01  0.00000000000E+00 0.  1.
         21   -1    0    0  501  503 -0.00000000000E+00 -0.00000000000E+00 -0.70879612128E+02  0.70879612128E+02  0.00000000000E+00 0.  1.
          5    1    1    2  501    0 -0.15887072426E+02 -0.14378054369E+02 -0.34208297025E+02  0.40365023263E+02  0.00000000000E+00 0.  1.
         -5    1    1    2    0  502  0.15887072426E+02  0.14378054369E+02 -0.30176107895E+02  0.37009796073E+02  0.00000000000E+00 0. -1.
<mgrwt>
<rscale>  2 0.21427261E+02</rscale>
<asrwt>0</asrwt>
<pdfrwt beam="1">  1       21 0.99926264E-03 0.21427261E+02</pdfrwt>
<pdfrwt beam="2">  1       21 0.10904556E-01 0.21427261E+02</pdfrwt>
<totfact> 0.16938777E+08</totfact>
</mgrwt>
</event>
<event>
 4    1  0.7151341E+004  0.2355907E+02  0.7546771E-02  0.1682605E+00
         21   -1    0    0  503  502  0.00000000000E+00  0.00000000000E+00  0.53327580536E+01  0.53327580536E+01  0.00000000000E+00 0. -1.
         21   -1    0    0  501  503 -0.00000000000E+00 -0.00000000000E+00 -0.10623126386E+03  0.10623126386E+03  0.00000000000E+00 0. -1.
          4    1    1    2  501    0  0.28794529248E+01  0.23382437132E+02 -0.58388650628E+02  0.62962402571E+02  0.00000000000E+00 0.  1.
         -4    1    1    2    0  502 -0.28794529248E+01 -0.23382437132E+02 -0.42509855178E+02  0.48601619342E+02  0.00000000000E+00 0. -1.
<mgrwt>
<rscale>  2 0.23559067E+02</rscale>
<asrwt>0</asrwt>
<pdfrwt beam="1">  1       21 0.82042440E-03 0.23559067E+02</pdfrwt>
<pdfrwt beam="2">  1       21 0.16343270E-01 0.23559067E+02</pdfrwt>
<totfact> 0.11827685E+08</totfact>
</mgrwt>
</event>
<event>
 4    1  0.7151341E+004  0.2621521E+02  0.7546771E-02  0.1644137E+00
         21   -1    0    0  501  502  0.00000000000E+00  0.00000000000E+00  0.69998488620E+01  0.69998488620E+01  0.00000000000E+00 0.  1.
         21   -1    0    0  502  503 -0.00000000000E+00 -0.00000000000E+00 -0.99108868152E+02  0.99108868152E+02  0.00000000000E+00 0.  1.
          5    1    1    2  501    0 -0.25384998454E+02 -0.65451747007E+01 -0.51193750246E+02  0.57515541575E+02  0.00000000000E+00 0. -1.
         -5    1    1    2    0  503  0.25384998454E+02  0.65451747007E+01 -0.40915269043E+02  0.48593175439E+02  0.00000000000E+00 0.  1.
<mgrwt>
<rscale>  2 0.26215214E+02</rscale>
<asrwt>0</asrwt>
<pdfrwt beam="1">  1       21 0.10768998E-02 0.26215214E+02</pdfrwt>
<pdfrwt beam="2">  1       21 0.15247518E-01 0.26215214E+02</pdfrwt>
<totfact> 0.91059371E+07</totfact>
</mgrwt>
</event>
<event>
 4    1  0.7151341E+004  0.3332637E+02  0.7546771E-02  0.1563986E+00
         21   -1    0    0  501  502  0.00000000000E+00  0.00000000000E+00  0.31722118165E+01  0.31722118165E+01  0.00000000000E+00 0. -1.
         21   -1    0    0  502  503 -0.00000000000E+00 -0.00000000000E+00 -0.37214001508E+03  0.37214001508E+03  0.00000000000E+00 0. -1.
          1    1    1    2  501    0  0.33311903149E+02 -0.98181850658E+00 -0.13883366571E+03  0.14277756684E+03  0.00000000000E+00 0.  1.
         -1    1    1    2    0  503 -0.33311903149E+02  0.98181850658E+00 -0.23013413755E+03  0.23253466005E+03  0.00000000000E+00 0. -1.
<mgrwt>
<rscale>  2 0.33326369E+02</rscale>
<asrwt>0</asrwt>
<pdfrwt beam="1">  1       21 0.48803259E-03 0.33326369E+02</pdfrwt>
<pdfrwt beam="2">  1       21 0.57252309E-01 0.33326369E+02</pdfrwt>
<totfact> 0.27404186E+07</totfact>
</mgrwt>
</event>
<event>
 4    1  0.7151341E+004  0.2462211E+02  0.7546771E-02  0.1666490E+00
         21   -1    0    0  501  502  0.00000000000E+00  0.00000000000E+00  0.14361540294E+02  0.14361540294E+02  0.00000000000E+00 0. -1.
         21   -1    0    0  502  503 -0.00000000000E+00 -0.00000000000E+00 -0.44510390829E+02  0.44510390829E+02  0.00000000000E+00 0. -1.
          3    1    1    2  501    0 -0.23073247222E+02 -0.85949684933E+01 -0.21761486061E+02  0.32860470118E+02  0.00000000000E+00 0. -1.
         -3    1    1    2    0  503  0.23073247222E+02  0.85949684933E+01 -0.83873644736E+01  0.26011461005E+02  0.00000000000E+00 0.  1.
<mgrwt>
<rscale>  2 0.24622108E+02</rscale>
<asrwt>0</asrwt>
<pdfrwt beam="1">  1       21 0.22094678E-02 0.24622108E+02</pdfrwt>
<pdfrwt beam="2">  1       21 0.68477523E-02 0.24622108E+02</pdfrwt>
<totfact> 0.11332044E+08</totfact>
</mgrwt>
</event>
<event>
 4    1  0.7151341E+004  0.2715924E+02  0.7546771E-02  0.1631794E+00
         21   -1    0    0  501  502  0.00000000000E+00  0.00000000000E+00  0.15501628202E+02  0.15501628202E+02  0.00000000000E+00 0. -1.
         21   -1    0    0  502  503 -0.00000000000E+00 -0.00000000000E+00 -0.68946344842E+02  0.68946344842E+02  0.00000000000E+00 0. -1.
          5    1    1    2  501    0  0.19284919111E+02  0.19123705662E+02 -0.50225802916E+02  0.57098647111E+02  0.00000000000E+00 0. -1.
         -5    1    1    2    0  503 -0.19284919111E+02 -0.19123705662E+02 -0.32189137238E+01  0.27349325932E+02  0.00000000000E+00 0.  1.
<mgrwt>
<rscale>  2 0.27159238E+02</rscale>
<asrwt>0</asrwt>
<pdfrwt beam="1">  1       21 0.23848659E-02 0.27159238E+02</pdfrwt>
<pdfrwt beam="2">  1       21 0.10607130E-01 0.27159238E+02</pdfrwt>
<totfact> 0.50217964E+07</totfact>
</mgrwt>
</event>
<event>
 4    1  0.7151341E+004  0.2241685E+02  0.7546771E-02  0.1701141E+00
         21   -1    0    0  503  502  0.00000000000E+00  0.00000000000E+00  0.11215683961E+03  0.11215683961E+03  0.00000000000E+00 0. -1.
         21   -1    0    0  501  503 -0.00000000000E+00 -0.00000000000E+00 -0.61138647182E+01  0.61138647182E+01  0.00000000000E+00 0. -1.
          4    1    1    2  501    0 -0.94981438510E+01 -0.20305182352E+02  0.83587238499E+02  0.86540982238E+02  0.00000000000E+00 0. -1.
         -4    1    1    2    0  502  0.94981438510E+01  0.20305182352E+02  0.22455736396E+02  0.31729722092E+02  0.00000000000E+00 0.  1.
<mgrwt>
<rscale>  2 0.22416850E+02</rscale>
<asrwt>0</asrwt>
<pdfrwt beam="1">  1       21 0.17254897E-01 0.22416850E+02</pdfrwt>
<pdfrwt beam="2">  1       21 0.94059466E-03 0.22416850E+02</pdfrwt>
<totfact> 0.86602984E+07</totfact>
</mgrwt>
</event>
<event>
 4    1  0.7151341E+004  0.2287056E+02  0.7546771E-02  0.1693617E+00
         21   -1    0    0  503  502  0.00000000000E+00  0.00000000000E+00  0.49803016172E+03  0.49803016172E+03  0.00000000000E+00 0. -1.
         21   -1    0    0  501  503 -0.00000000000E+00 -0.00000000000E+00 -0.15735995930E+01  0.15735995930E+01  0.00000000000E+00 0. -1.
          2    1    1    2  501    0  0.22851172206E+02 -0.94140828315E+00  0.10416960688E+03  0.10665068832E+03  0.00000000000E+00 0. -1.
         -2    1    1    2    0  502 -0.22851172206E+02  0.94140828315E+00  0.39228695525E+03  0.39295307300E+03  0.00000000000E+00 0.  1.
<mgrwt>
<rscale>  2 0.22870556E+02</rscale>
<asrwt>0</asrwt>
<pdfrwt beam="1">  1       21 0.76619899E-01 0.22870556E+02</pdfrwt>
<pdfrwt beam="2">  1       21 0.24209264E-03 0.22870556E+02</pdfrwt>
<totfact> 0.39338579E+07</totfact>
</mgrwt>
</event>
<event>
 4    1  0.7151341E+004  0.2134118E+02  0.7546771E-02  0.1719901E+00
         21   -1    0    0  501  502  0.00000000000E+00  0.00000000000E+00  0.27930065283E+00  0.27930065283E+00  0.00000000000E+00 0.  1.
         21   -1    0    0  502  503 -0.00000000000E+00 -0.00000000000E+00 -0.17259975475E+04  0.17259975475E+04  0.00000000000E+00 0.  1.
          4    1    1    2  501    0  0.16432068605E+02 -0.13617386528E+02 -0.10657107774E+04  0.10659244378E+04  0.00000000000E+00 0. -1.
         -4    1    1    2    0  503 -0.16432068605E+02  0.13617386528E+02 -0.66000746945E+03  0.66035241033E+03  0.00000000000E+00 0.  1.
<mgrwt>
<rscale>  2 0.21341183E+02</rscale>
<asrwt>0</asrwt>
<pdfrwt beam="1">  1       21 0.42969468E-04 0.21341183E+02</pdfrwt>
<pdfrwt beam="2">  1       21 0.26553724E+00 0.21341183E+02</pdfrwt>
<totfact> 0.23397007E+07</totfact>
</mgrwt>
</event>
<event>
 4    1  0.7151341E+004  0.2391190E+02  0.7546771E-02  0.1677141E+00
         21   -1    0    0  501  502  0.00000000000E+00  0.00000000000E+00  0.47672192206E+03  0.47672192206E+03  0.00000000000E+00 0.  1.
         21   -1    0    0  502  503 -0.00000000000E+00 -0.00000000000E+00 -0.12593554233E+01  0.12593554233E+01  0.00000000000E+00 0.  1.
          2    1    1    2  501    0  0.20388076625E+02  0.12494216416E+02  0.28987833857E+03  0.29086290634E+03  0.00000000000E+00 0.  1.
         -2    1    1    2    0  503 -0.20388076625E+02 -0.12494216416E+02  0.18558422808E+03  0.18711837115E+03  0.00000000000E+00 0. -1.
<mgrwt>
<rscale>  2 0.23911903E+02</rscale>
<asrwt>0</asrwt>
<pdfrwt beam="1">  1       21 0.73341690E-01 0.23911903E+02</pdfrwt>
<pdfrwt beam="2">  1       21 0.19374737E-03 0.23911903E+02</pdfrwt>
<totfact> 0.60059362E+07</totfact>
</mgrwt>
</event>
<event>
 4    1  0.7151341E+004  0.2684929E+02  0.7546771E-02  0.1635778E+00
         21   -1    0    0  503  502  0.00000000000E+00  0.00000000000E+00  0.26574830619E+03  0.26574830619E+03  0.00000000000E+00 0.  1.
         21   -1    0    0  501  503 -0.00000000000E+00 -0.00000000000E+00 -0.32736431393E+01  0.32736431393E+01  0.00000000000E+00 0.  1.
          2    1    1    2  501    0  0.90529747401E+00 -0.26834018489E+02  0.75554929820E+02  0.80183736081E+02  0.00000000000E+00 0.  1.
         -2    1    1    2    0  502 -0.90529747401E+00  0.26834018489E+02  0.18691973323E+03  0.18883821325E+03  0.00000000000E+00 0. -1.
<mgrwt>
<rscale>  2 0.26849285E+02</rscale>
<asrwt>0</asrwt>
<pdfrwt beam="1">  1       21 0.40884338E-01 0.26849285E+02</pdfrwt>
<pdfrwt beam="2">  1       21 0.50363761E-03 0.26849285E+02</pdfrwt>
<totfact> 0.48470941E+07</totfact>
</mgrwt>
</event>
<event>
 4    1  0.7151341E+004  0.2180334E+02  0.7546771E-02  0.1711676E+00
         21   -1    0    0  501  502  0.00000000000E+00  0.00000000000E+00  0.93697917344E+03  0.93697917344E+03  0.00000000000E+00 0.  1.
         21   -1    0    0  502  503 -0.00000000000E+00 -0.00000000000E+00 -0.51021922339E+00  0.51021922339E+00  0.00000000000E+00 0.  1.
          1    1    1    2  501    0  0.11745115779E+02 -0.18369477054E+02  0.50332647240E+03  0.50379849469E+03  0.00000000000E+00 0.  1.
         -1    1    1    2    0  503 -0.11745115779E+02  0.18369477054E+02  0.43314248182E+03  0.43369089798E+03  0.00000000000E+00 0. -1.
<mgrwt>
<rscale>  2 0.21803335E+02</rscale>
<asrwt>0</asrwt>
<pdfrwt beam="1">  1       21 0.14414927E+00 0.21803335E+02</pdfrwt>
<pdfrwt beam="2">  1       21 0.78496015E-04 0.21803335E+02</pdfrwt>
<totfact> 0.48417836E+07</totfact>
</mgrwt>
</event>
<event>
 4    1  0.7151341E+004  0.2970232E+02  0.7546771E-02  0.1601403E+00
         21   -1    0    0  503  502  0.00000000000E+00  0.00000000000E+00  0.24280318900E+02  0.24280318900E+02  0.00000000000E+00 0.  1.
         21   -1    0    0  501  503 -0.00000000000E+00 -0.00000000000E+00 -0.48387955010E+02  0.48387955010E+02  0.00000000000E+00 0.  1.
          2    1    1    2  501    0 -0.15693002266E+02  0.25218201042E+02 -0.30187711343E+02  0.42350040142E+02  0.00000000000E+00 0. -1.
         -2    1    1    2    0  502  0.15693002266E+02 -0.25218201042E+02  0.60800752338E+01  0.30318233767E+02  0.00000000000E+00 0.  1.
<mgrwt>
<rscale>  2 0.29702323E+02</rscale>
<asrwt>0</asrwt>
<pdfrwt beam="1">  1       21 0.37354337E-02 0.29702323E+02</pdfrwt>
<pdfrwt beam="2">  1       21 0.74443007E-02 0.29702323E+02</pdfrwt>
<totfact> 0.45566288E+07</totfact>
</mgrwt>
</event>
<event>
 4    1  0.7151341E+004  0.2181591E+02  0.7546771E-02  0.1711455E+00
         21   -1    0    0  503  502  0.00000000000E+00  0.00000000000E+00  0.27931471234E+02  0.27931471234E+02  0.00000000000E+00 0.  1.
         21   -1    0    0  501  503 -0.00000000000E+00 -0.00000000000E+00 -0.18644143121E+02  0.18644143121E+02  0.00000000000E+00 0.  1.
          2    1    1    2  501    0  0.62737210395E+01  0.20894359480E+02 -0.21886570457E+01  0.21925420256E+02  0.00000000000E+00 0. -1.
         -2    1    1    2    0  502 -0.62737210395E+01 -0.20894359480E+02  0.11475985158E+02  0.24650194099E+02  0.00000000000E+00 0.  1.
<mgrwt>
<rscale>  2 0.21815908E+02</rscale>
<asrwt>0</asrwt>
<pdfrwt beam="1">  1       21 0.42971494E-02 0.21815908E+02</pdfrwt>
<pdfrwt beam="2">  1       21 0.28683297E-02 0.21815908E+02</pdfrwt>
<totfact> 0.15377837E+08</totfact>
</mgrwt>
</event>
<event>
 4    1  0.7151341E+004  0.2324838E+02  0.7546771E-02  0.1687515E+00
         21   -1    0    0  501  502  0.00000000000E+00  0.00000000000E+00  0.18361664516E+02  0.18361664516E+02  0.00000000000E+00 0. -1.
         21   -1    0    0  502  503 -0.00000000000E+00 -0.00000000000E+00 -0.45539027215E+02  0.45539027215E+02  0.00000000000E+00 0. -1.
          3    1    1    2  501    0 -0.20710891203E+02  0.10561551500E+02 -0.32588186042E+02  0.40030953699E+02  0.00000000000E+00 0. -1.
         -3    1    1    2    0  503  0.20710891203E+02 -0.10561551500E+02  0.54108233425E+01  0.23869738033E+02  0.00000000000E+00 0.  1.
<mgrwt>
<rscale>  2 0.23248385E+02</rscale>
<asrwt>0</asrwt>
<pdfrwt beam="1">  1       21 0.28248715E-02 0.23248385E+02</pdfrwt>
<pdfrwt beam="2">  1       21 0.70060041E-02 0.23248385E+02</pdfrwt>
<totfact> 0.73448641E+07</totfact>
</mgrwt>
</event>
<event>
 4    1  0.7151341E+004  0.3133122E+02  0.7546771E-02  0.1583823E+00
         21   -1    0    0  501  502  0.00000000000E+00  0.00000000000E+00  0.51486498098E+03  0.51486498098E+03  0.00000000000E+00 0. -1.
         21   -1    0    0  502  503 -0.00000000000E+00 -0.00000000000E+00 -0.19348609670E+01  0.19348609670E+01  0.00000000000E+00 0. -1.
          2    1    1    2  501    0  0.55655069097E+01  0.30832942717E+02  0.22523976787E+03  0.22740843928E+03  0.00000000000E+00 0.  1.
         -2    1    1    2    0  503 -0.55655069097E+01 -0.30832942717E+02  0.28769035214E+03  0.28939140267E+03  0.00000000000E+00 0. -1.
<mgrwt>
<rscale>  2 0.31331218E+02</rscale>
<asrwt>0</asrwt>
<pdfrwt beam="1">  1       21 0.79209888E-01 0.31331218E+02</pdfrwt>
<pdfrwt beam="2">  1       21 0.29767133E-03 0.31331218E+02</pdfrwt>
<totfact> 0.28830705E+07</totfact>
</mgrwt>
</event>
<event>
 4    1  0.7151341E+004  0.2017296E+02  0.7546771E-02  0.1741910E+00
         21   -1    0    0  501  502  0.00000000000E+00  0.00000000000E+00  0.61104407067E+01  0.61104407067E+01  0.00000000000E+00 0. -1.
         21   -1    0    0  502  503 -0.00000000000E+00 -0.00000000000E+00 -0.66928289540E+02  0.66928289540E+02  0.00000000000E+00 0. -1.
          2    1    1    2  501    0  0.19772016118E+02  0.40019561212E+01 -0.27846732852E+02  0.34385880892E+02  0.00000000000E+00 0. -1.
         -2    1    1    2    0  503 -0.19772016118E+02 -0.40019561212E+01 -0.32971115981E+02  0.38652849354E+02  0.00000000000E+00 0.  1.
<mgrwt>
<rscale>  2 0.20172959E+02</rscale>
<asrwt>0</asrwt>
<pdfrwt beam="1">  1       21 0.94006784E-03 0.20172959E+02</pdfrwt>
<pdfrwt beam="2">  1       21 0.10296659E-01 0.20172959E+02</pdfrwt>
<totfact> 0.20021085E+08</totfact>
</mgrwt>
</event>
<event>
 4    1  0.7151341E+004  0.2126467E+02  0.7546771E-02  0.1721288E+00
         21   -1    0    0  501  502  0.00000000000E+00  0.00000000000E+00  0.24026526783E+02  0.24026526783E+02  0.00000000000E+00 0. -1.
         21   -1    0    0  502  503 -0.00000000000E+00 -0.00000000000E+00 -0.20374282243E+02  0.20374282243E+02  0.00000000000E+00 0. -1.
          2    1    1    2  501    0  0.18859176484E+02 -0.98243369132E+01 -0.43050645472E+01  0.21696076009E+02  0.00000000000E+00 0. -1.
         -2    1    1    2    0  503 -0.18859176484E+02  0.98243369132E+01  0.79573090877E+01  0.22704733017E+02  0.00000000000E+00 0.  1.
<mgrwt>
<rscale>  2 0.21264669E+02</rscale>
<asrwt>0</asrwt>
<pdfrwt beam="1">  1       21 0.36963887E-02 0.21264669E+02</pdfrwt>
<pdfrwt beam="2">  1       21 0.31345050E-02 0.21264669E+02</pdfrwt>
<totfact> 0.16840162E+08</totfact>
</mgrwt>
</event>
<event>
 4    1  0.7151341E+004  0.2712595E+02  0.7546771E-02  0.1632219E+00
         21   -1    0    0  501  502  0.00000000000E+00  0.00000000000E+00  0.54619885065E+00  0.54619885065E+00  0.00000000000E+00 0.  1.
         21   -1    0    0  502  503 -0.00000000000E+00 -0.00000000000E+00 -0.13520141307E+04  0.13520141307E+04  0.00000000000E+00 0.  1.
          3    1    1    2  501    0 -0.21065087740E+02 -0.17090319765E+02 -0.71625828444E+03  0.71677175375E+03  0.00000000000E+00 0. -1.
         -3    1    1    2    0  503  0.21065087740E+02  0.17090319765E+02 -0.63520964742E+03  0.63578857580E+03  0.00000000000E+00 0.  1.
<mgrwt>
<rscale>  2 0.27125946E+02</rscale>
<asrwt>0</asrwt>
<pdfrwt beam="1">  1       21 0.84031467E-04 0.27125946E+02</pdfrwt>
<pdfrwt beam="2">  1       21 0.20800001E+00 0.27125946E+02</pdfrwt>
<totfact> 0.18349228E+07</totfact>
</mgrwt>
</event>
<event>
 4    1  0.7151341E+004  0.2225832E+02  0.7546771E-02  0.1703822E+00
         21   -1    0    0  503  502  0.00000000000E+00  0.00000000000E+00  0.28262403142E+02  0.28262403142E+02  0.00000000000E+00 0. -1.
         21   -1    0    0  501  503 -0.00000000000E+00 -0.00000000000E+00 -0.20047138390E+02  0.20047138390E+02  0.00000000000E+00 0. -1.
          4    1    1    2  501    0  0.21240313256E+02 -0.66544750931E+01  0.12667195137E+02  0.25610364672E+02  0.00000000000E+00 0.  1.
         -4    1    1    2    0  502 -0.21240313256E+02  0.66544750931E+01 -0.44519303856E+01  0.22699176860E+02  0.00000000000E+00 0. -1.
<mgrwt>
<rscale>  2 0.22258323E+02</rscale>
<asrwt>0</asrwt>
<pdfrwt beam="1">  1       21 0.43480621E-02 0.22258323E+02</pdfrwt>
<pdfrwt beam="2">  1       21 0.30841751E-02 0.22258323E+02</pdfrwt>
<totfact> 0.13567888E+08</totfact>
</mgrwt>
</event>
<event>
 4    1  0.7151341E+004  0.2076715E+02  0.7546771E-02  0.1730489E+00
         21   -1    0    0  503  502  0.00000000000E+00  0.00000000000E+00  0.15892634465E+03  0.15892634465E+03  0.00000000000E+00 0.  1.
         21   -1    0    0  501  503 -0.00000000000E+00 -0.00000000000E+00 -0.57985598699E+01  0.57985598699E+01  0.00000000000E+00 0.  1.
          2    1    1    2  501    0 -0.10645203606E+02  0.17831272883E+02  0.16489610807E+02  0.26517577510E+02  0.00000000000E+00 0. -1.
         -2    1    1    2    0  502  0.10645203606E+02 -0.17831272883E+02  0.13663817397E+03  0.13820732701E+03  0.00000000000E+00 0.  1.
<mgrwt>
<rscale>  2 0.20767153E+02</rscale>
<asrwt>0</asrwt>
<pdfrwt beam="1">  1       21 0.24450204E-01 0.20767153E+02</pdfrwt>
<pdfrwt beam="2">  1       21 0.89208625E-03 0.20767153E+02</pdfrwt>
<totfact> 0.50003648E+07</totfact>
</mgrwt>
</event>
<event>
 4    1  0.7151341E+004  0.2402615E+02  0.7546771E-02  0.1675397E+00
         21   -1    0    0  501  502  0.00000000000E+00  0.00000000000E+00  0.40609839604E+02  0.40609839604E+02  0.00000000000E+00 0.  1.
         21   -1    0    0  502  503 -0.00000000000E+00 -0.00000000000E+00 -0.14230394407E+02  0.14230394407E+02  0.00000000000E+00 0.  1.
          3    1    1    2  501    0  0.22272829621E+02  0.90098368631E+01  0.14100753949E+02  0.27858344559E+02  0.00000000000E+00 0. -1.
         -3    1    1    2    0  503 -0.22272829621E+02 -0.90098368631E+01  0.12278691247E+02  0.26981889451E+02  0.00000000000E+00 0.  1.
<mgrwt>
<rscale>  2 0.24026154E+02</rscale>
<asrwt>0</asrwt>
<pdfrwt beam="1">  1       21 0.62476676E-02 0.24026154E+02</pdfrwt>
<pdfrwt beam="2">  1       21 0.21892915E-02 0.24026154E+02</pdfrwt>
<totfact> 0.13238172E+08</totfact>
</mgrwt>
</event>
<event>
 4    1  0.7151341E+004  0.4638483E+02  0.7546771E-02  0.1465877E+00
         21   -1    0    0  503  502  0.00000000000E+00  0.00000000000E+00  0.12327715878E+02  0.12327715878E+02  0.00000000000E+00 0.  1.
         21   -1    0    0  501  503 -0.00000000000E+00 -0.00000000000E+00 -0.17689341543E+03  0.17689341543E+03  0.00000000000E+00 0.  1.
          5    1    1    2  501    0  0.42836614664E+02  0.17792612240E+02 -0.71346282961E+02  0.85099028775E+02  0.00000000000E+00 0. -1.
         -5    1    1    2    0  502 -0.42836614664E+02 -0.17792612240E+02 -0.93219416596E+02  0.10412210254E+03  0.00000000000E+00 0.  1.
<mgrwt>
<rscale>  2 0.46384832E+02</rscale>
<asrwt>0</asrwt>
<pdfrwt beam="1">  1       21 0.18965718E-02 0.46384832E+02</pdfrwt>
<pdfrwt beam="2">  1       21 0.27214369E-01 0.46384832E+02</pdfrwt>
<totfact> 0.15165278E+07</totfact>
</mgrwt>
</event>
<event>
 4    1  0.7151341E+004  0.2201688E+02  0.7546771E-02  0.1707960E+00
         21   -1    0    0  503  502  0.00000000000E+00  0.00000000000E+00  0.67168153352E+01  0.67168153352E+01  0.00000000000E+00 0.  1.
         21   -1    0    0  501  503 -0.00000000000E+00 -0.00000000000E+00 -0.72668163918E+02  0.72668163918E+02  0.00000000000E+00 0.  1.
          1    1    1    2  501    0 -0.16169906698E+02  0.14942465849E+02 -0.36266699355E+02  0.42426603097E+02  0.00000000000E+00 0. -1.
         -1    1    1    2    0  502  0.16169906698E+02 -0.14942465849E+02 -0.29684649228E+02  0.36958376156E+02  0.00000000000E+00 0.  1.
<mgrwt>
<rscale>  2 0.22016884E+02</rscale>
<asrwt>0</asrwt>
<pdfrwt beam="1">  1       21 0.10333562E-02 0.22016884E+02</pdfrwt>
<pdfrwt beam="2">  1       21 0.11179718E-01 0.22016884E+02</pdfrwt>
<totfact> 0.15583168E+08</totfact>
</mgrwt>
</event>
<event>
 4    1  0.7151341E+004  0.2249306E+02  0.7546771E-02  0.1699862E+00
         21   -1    0    0  501  502  0.00000000000E+00  0.00000000000E+00  0.14299351637E+02  0.14299351637E+02  0.00000000000E+00 0. -1.
         21   -1    0    0  502  503 -0.00000000000E+00 -0.00000000000E+00 -0.35659474502E+02  0.35659474502E+02  0.00000000000E+00 0. -1.
          3    1    1    2  501    0 -0.12227866300E+01  0.22459803268E+02 -0.12883996292E+02  0.25921715422E+02  0.00000000000E+00 0. -1.
         -3    1    1    2    0  503  0.12227866300E+01 -0.22459803268E+02 -0.84761265724E+01  0.24037110717E+02  0.00000000000E+00 0.  1.
<mgrwt>
<rscale>  2 0.22493065E+02</rscale>
<asrwt>0</asrwt>
<pdfrwt beam="1">  1       21 0.21999003E-02 0.22493065E+02</pdfrwt>
<pdfrwt beam="2">  1       21 0.54860729E-02 0.22493065E+02</pdfrwt>
<totfact> 0.15869518E+08</totfact>
</mgrwt>
</event>
<event>
 4    1  0.7151341E+004  0.3562909E+02  0.7546771E-02  0.1543084E+00
         21   -1    0    0  503  502  0.00000000000E+00  0.00000000000E+00  0.13189994404E+02  0.13189994404E+02  0.00000000000E+00 0. -1.
         21   -1    0    0  501  503 -0.00000000000E+00 -0.00000000000E+00 -0.97156060689E+02  0.97156060689E+02  0.00000000000E+00 0. -1.
          2    1    1    2  501    0  0.79408505091E+01  0.34732911527E+02 -0.36631665099E+02  0.51100989598E+02  0.00000000000E+00 0.  1.
         -2    1    1    2    0  502 -0.79408505091E+01 -0.34732911527E+02 -0.47334401186E+02  0.59245065495E+02  0.00000000000E+00 0. -1.
<mgrwt>
<rscale>  2 0.35629093E+02</rscale>
<asrwt>0</asrwt>
<pdfrwt beam="1">  1       21 0.20292298E-02 0.35629093E+02</pdfrwt>
<pdfrwt beam="2">  1       21 0.14947087E-01 0.35629093E+02</pdfrwt>
<totfact> 0.38164479E+07</totfact>
</mgrwt>
</event>
<event>
 4    1  0.7151341E+004  0.2092895E+02  0.7546771E-02  0.1727462E+00
         21   -1    0    0  501  502  0.00000000000E+00  0.00000000000E+00  0.10419310226E+03  0.10419310226E+03  0.00000000000E+00 0. -1.
         21   -1    0    0  502  503 -0.00000000000E+00 -0.00000000000E+00 -0.42689083676E+01  0.42689083676E+01  0.00000000000E+00 0. -1.
          1    1    1    2  501    0 -0.11781098330E+01  0.20895764574E+02  0.43271568250E+02  0.48067135745E+02  0.00000000000E+00 0. -1.
         -1    1    1    2    0  503  0.11781098330E+01 -0.20895764574E+02  0.56652625644E+02  0.60394874884E+02  0.00000000000E+00 0.  1.
<mgrwt>
<rscale>  2 0.20928949E+02</rscale>
<asrwt>0</asrwt>
<pdfrwt beam="1">  1       21 0.16029706E-01 0.20928949E+02</pdfrwt>
<pdfrwt beam="2">  1       21 0.65675521E-03 0.20928949E+02</pdfrwt>
<totfact> 0.16441609E+08</totfact>
</mgrwt>
</event>
<event>
 4    1  0.7151341E+004  0.2259809E+02  0.7546771E-02  0.1698109E+00
         21   -1    0    0  501  502  0.00000000000E+00  0.00000000000E+00  0.61481999335E+02  0.61481999335E+02  0.00000000000E+00 0. -1.
         21   -1    0    0  502  503 -0.00000000000E+00 -0.00000000000E+00 -0.97767072082E+01  0.97767072082E+01  0.00000000000E+00 0. -1.
          5    1    1    2  501    0  0.18711343526E+02  0.12671201463E+02  0.39671262774E+02  0.45656136643E+02  0.00000000000E+00 0. -1.
         -5    1    1    2    0  503 -0.18711343526E+02 -0.12671201463E+02  0.12034029352E+02  0.25602569900E+02  0.00000000000E+00 0.  1.
<mgrwt>
<rscale>  2 0.22598091E+02</rscale>
<asrwt>0</asrwt>
<pdfrwt beam="1">  1       21 0.94587689E-02 0.22598091E+02</pdfrwt>
<pdfrwt beam="2">  1       21 0.15041088E-02 0.22598091E+02</pdfrwt>
<totfact> 0.11749358E+08</totfact>
</mgrwt>
</event>
<event>
 4    1  0.7151341E+004  0.2159574E+02  0.7546771E-02  0.1715339E+00
         21   -1    0    0  503  502  0.00000000000E+00  0.00000000000E+00  0.23108019906E+02  0.23108019906E+02  0.00000000000E+00 0. -1.
         21   -1    0    0  501  503 -0.00000000000E+00 -0.00000000000E+00 -0.20866252138E+02  0.20866252138E+02  0.00000000000E+00 0. -1.
          2    1    1    2  501    0 -0.17052965496E+02  0.13250371562E+02 -0.28594383079E+01  0.21784222873E+02  0.00000000000E+00 0.  1.
         -2    1    1    2    0  502  0.17052965496E+02 -0.13250371562E+02  0.51012060764E+01  0.22190049170E+02  0.00000000000E+00 0. -1.
<mgrwt>
<rscale>  2 0.21595740E+02</rscale>
<asrwt>0</asrwt>
<pdfrwt beam="1">  1       21 0.35550800E-02 0.21595740E+02</pdfrwt>
<pdfrwt beam="2">  1       21 0.32101926E-02 0.21595740E+02</pdfrwt>
<totfact> 0.17330677E+08</totfact>
</mgrwt>
</event>
<event>
 4    1  0.7151341E+004  0.2617590E+02  0.7546771E-02  0.1644665E+00
         21   -1    0    0  501  502  0.00000000000E+00  0.00000000000E+00  0.94677121488E+00  0.94677121488E+00  0.00000000000E+00 0. -1.
         21   -1    0    0  502  503 -0.00000000000E+00 -0.00000000000E+00 -0.77675833375E+03  0.77675833375E+03  0.00000000000E+00 0. -1.
          3    1    1    2  501    0 -0.12680056642E+02  0.22899647683E+02 -0.48953568415E+03  0.49023500871E+03  0.00000000000E+00 0.  1.
         -3    1    1    2    0  503  0.12680056642E+02 -0.22899647683E+02 -0.28627587838E+03  0.28747009626E+03  0.00000000000E+00 0. -1.
<mgrwt>
<rscale>  2 0.26175899E+02</rscale>
<asrwt>0</asrwt>
<pdfrwt beam="1">  1       21 0.14565637E-03 0.26175899E+02</pdfrwt>
<pdfrwt beam="2">  1       21 0.11950189E+00 0.26175899E+02</pdfrwt>
<totfact> 0.32018983E+07</totfact>
</mgrwt>
</event>
<event>
 4    1  0.7151341E+004  0.2337807E+02  0.7546771E-02  0.1685454E+00
         21   -1    0    0  503  502  0.00000000000E+00  0.00000000000E+00  0.28765915891E+01  0.28765915891E+01  0.00000000000E+00 0.  1.
         21   -1    0    0  501  503 -0.00000000000E+00 -0.00000000000E+00 -0.19178359899E+03  0.19178359899E+03  0.00000000000E+00 0.  1.
          3    1    1    2  501    0 -0.16061824344E+02 -0.16986819095E+02 -0.85050686231E+02  0.88205178150E+02  0.00000000000E+00 0. -1.
         -3    1    1    2    0  502  0.16061824344E+02  0.16986819095E+02 -0.10385632117E+03  0.10645501243E+03  0.00000000000E+00 0.  1.
<mgrwt>
<rscale>  2 0.23378071E+02</rscale>
<asrwt>0</asrwt>
<pdfrwt beam="1">  1       21 0.44255247E-03 0.23378071E+02</pdfrwt>
<pdfrwt beam="2">  1       21 0.29505175E-01 0.23378071E+02</pdfrwt>
<totfact> 0.10402379E+08</totfact>
</mgrwt>
</event>
<event>
 4    1  0.7151341E+004  0.2728435E+02  0.7546771E-02  0.1630205E+00
         21   -1    0    0  503  502  0.00000000000E+00  0.00000000000E+00  0.55214060081E+02  0.55214060081E+02  0.00000000000E+00 0.  1.
         21   -1    0    0  501  503 -0.00000000000E+00 -0.00000000000E+00 -0.13766822155E+02  0.13766822155E+02  0.00000000000E+00 0.  1.
          5    1    1    2  501    0 -0.18772744837E+02 -0.19799488990E+02  0.15768898577E+02  0.31513391999E+02  0.00000000000E+00 0. -1.
         -5    1    1    2    0  502  0.18772744837E+02  0.19799488990E+02  0.25678339349E+02  0.37467490237E+02  0.00000000000E+00 0.  1.
<mgrwt>
<rscale>  2 0.27284349E+02</rscale>
<asrwt>0</asrwt>
<pdfrwt beam="1">  1       21 0.84944707E-02 0.27284349E+02</pdfrwt>
<pdfrwt beam="2">  1       21 0.21179727E-02 0.27284349E+02</pdfrwt>
<totfact> 0.87374019E+07</totfact>
</mgrwt>
</event>
<event>
 4    1  0.7151341E+004  0.2037237E+02  0.7546771E-02  0.1738023E+00
         21   -1    0    0  503  502  0.00000000000E+00  0.00000000000E+00  0.13321083140E+04  0.13321083140E+04  0.00000000000E+00 0.  1.
         21   -1    0    0  501  503 -0.00000000000E+00 -0.00000000000E+00 -0.32213237167E+00  0.32213237167E+00  0.00000000000E+00 0.  1.
          1    1    1    2  501    0  0.18818704869E+02 -0.78031854609E+01  0.54520691674E+03  0.54558740401E+03  0.00000000000E+00 0.  1.
         -1    1    1    2    0  502 -0.18818704869E+02  0.78031854609E+01  0.78657926489E+03  0.78684304237E+03  0.00000000000E+00 0. -1.
<mgrwt>
<rscale>  2 0.20372367E+02</rscale>
<asrwt>0</asrwt>
<pdfrwt beam="1">  1       21 0.20493533E+00 0.20372367E+02</pdfrwt>
<pdfrwt beam="2">  1       21 0.49559893E-04 0.20372367E+02</pdfrwt>
<totfact> 0.38631122E+07</totfact>
</mgrwt>
</event>
<event>
 4    1  0.7151341E+004  0.2126273E+02  0.7546771E-02  0.1721324E+00
         21   -1    0    0  501  502  0.00000000000E+00  0.00000000000E+00  0.49723162121E+01  0.49723162121E+01  0.00000000000E+00 0. -1.
         21   -1    0    0  502  503 -0.00000000000E+00 -0.00000000000E+00 -0.10039221597E+03  0.10039221597E+03  0.00000000000E+00 0. -1.
          2    1    1    2  501    0  0.11853411004E+02  0.17652204734E+02 -0.31531206311E+02  0.38030522687E+02  0.00000000000E+00 0.  1.
         -2    1    1    2    0  503 -0.11853411004E+02 -0.17652204734E+02 -0.63888693447E+02  0.67334009496E+02  0.00000000000E+00 0. -1.
<mgrwt>
<rscale>  2 0.21262730E+02</rscale>
<asrwt>0</asrwt>
<pdfrwt beam="1">  1       21 0.76497171E-03 0.21262730E+02</pdfrwt>
<pdfrwt beam="2">  1       21 0.15444957E-01 0.21262730E+02</pdfrwt>
<totfact> 0.14035221E+08</totfact>
</mgrwt>
</event>
<event>
 4    1  0.7151341E+004  0.2044253E+02  0.7546771E-02  0.1736668E+00
         21   -1    0    0  501  502  0.00000000000E+00  0.00000000000E+00  0.26343171128E+02  0.26343171128E+02  0.00000000000E+00 0.  1.
         21   -1    0    0  502  503 -0.00000000000E+00 -0.00000000000E+00 -0.20655253627E+02  0.20655253627E+02  0.00000000000E+00 0.  1.
          4    1    1    2  501    0  0.20355381293E+02  0.18856012210E+01 -0.84743514255E+01  0.22129429989E+02  0.00000000000E+00 0. -1.
         -4    1    1    2    0  503 -0.20355381293E+02 -0.18856012210E+01  0.14162268926E+02  0.24868994767E+02  0.00000000000E+00 0.  1.
<mgrwt>
<rscale>  2 0.20442530E+02</rscale>
<asrwt>0</asrwt>
<pdfrwt beam="1">  1       21 0.40527955E-02 0.20442530E+02</pdfrwt>
<pdfrwt beam="2">  1       21 0.31777313E-02 0.20442530E+02</pdfrwt>
<totfact> 0.14096275E+08</totfact>
</mgrwt>
</event>
<event>
 4    1  0.7151341E+004  0.2437212E+02  0.7546771E-02  0.1670188E+00
         21   -1    0    0  501  502  0.00000000000E+00  0.00000000000E+00  0.24733634951E+04  0.24733634951E+04  0.00000000000E+00 0.  1.
         21   -1    0    0  502  503 -0.00000000000E+00 -0.00000000000E+00 -0.25648807620E+00  0.25648807620E+00  0.00000000000E+00 0.  1.
          5    1    1    2  501    0  0.18037307800E+02 -0.16390716950E+02  0.15486238537E+04  0.15488156251E+04  0.00000000000E+00 0.  1.
         -5    1    1    2    0  503 -0.18037307800E+02  0.16390716950E+02  0.92448315326E+03  0.92480435808E+03  0.00000000000E+00 0. -1.
<mgrwt>
<rscale>  2 0.24372117E+02</rscale>
<asrwt>0</asrwt>
<pdfrwt beam="1">  1       21 0.38049836E+00 0.24372117E+02</pdfrwt>
<pdfrwt beam="2">  1       21 0.39461685E-04 0.24372117E+02</pdfrwt>
<totfact> 0.71634622E+06</totfact>
</mgrwt>
</event>
<event>
 4    1  0.7151341E+004  0.4690063E+02  0.7546771E-02  0.1462814E+00
         21   -1    0    0  503  502  0.00000000000E+00  0.00000000000E+00  0.36056224773E+02  0.36056224773E+02  0.00000000000E+00 0.  1.
         21   -1    0    0  501  503 -0.00000000000E+00 -0.00000000000E+00 -0.64122532446E+02  0.64122532446E+02  0.00000000000E+00 0.  1.
          5    1    1    2  501    0  0.45563750016E+02 -0.11118171798E+02 -0.25074745075E+02  0.53182815836E+02  0.00000000000E+00 0. -1.
         -5    1    1    2    0  502 -0.45563750016E+02  0.11118171798E+02 -0.29915625973E+01  0.46995941383E+02  0.00000000000E+00 0.  1.
<mgrwt>
<rscale>  2 0.46900630E+02</rscale>
<asrwt>0</asrwt>
<pdfrwt beam="1">  1       21 0.55471116E-02 0.46900630E+02</pdfrwt>
<pdfrwt beam="2">  1       21 0.98650049E-02 0.46900630E+02</pdfrwt>
<totfact> 0.16323100E+07</totfact>
</mgrwt>
</event>
<event>
 4    1  0.7151341E+004  0.2158961E+02  0.7546771E-02  0.1715448E+00
         21   -1    0    0  503  502  0.00000000000E+00  0.00000000000E+00  0.19906851170E+03  0.19906851170E+03  0.00000000000E+00 0. -1.
         21   -1    0    0  501  503 -0.00000000000E+00 -0.00000000000E+00 -0.26643545411E+01  0.26643545411E+01  0.00000000000E+00 0. -1.
          2    1    1    2  501    0 -0.10228038370E+02 -0.19013109150E+02  0.63088057581E+02  0.66679937746E+02  0.00000000000E+00 0. -1.
         -2    1    1    2    0  502  0.10228038370E+02  0.19013109150E+02  0.13331609958E+03  0.13505292849E+03  0.00000000000E+00 0.  1.
<mgrwt>
<rscale>  2 0.21589606E+02</rscale>
<asrwt>0</asrwt>
<pdfrwt beam="1">  1       21 0.30625913E-01 0.21589606E+02</pdfrwt>
<pdfrwt beam="2">  1       21 0.40990085E-03 0.21589606E+02</pdfrwt>
<totfact> 0.10644614E+08</totfact>
</mgrwt>
</event>
<event>
 4    1  0.7151341E+004  0.2352733E+02  0.7546771E-02  0.1683102E+00
         21   -1    0    0  501  502  0.00000000000E+00  0.00000000000E+00  0.25179223647E+01  0.25179223647E+01  0.00000000000E+00 0.  1.
         21   -1    0    0  502  503 -0.00000000000E+00 -0.00000000000E+00 -0.22656029406E+03  0.22656029406E+03  0.00000000000E+00 0.  1.
          4    1    1    2  501    0 -0.21555935999E+02  0.94274644863E+01 -0.13175063324E+03  0.13383484159E+03  0.00000000000E+00 0. -1.
         -4    1    1    2    0  503  0.21555935999E+02 -0.94274644863E+01 -0.92291738451E+02  0.95243374833E+02  0.00000000000E+00 0.  1.
<mgrwt>
<rscale>  2 0.23527334E+02</rscale>
<asrwt>0</asrwt>
<pdfrwt beam="1">  1       21 0.38737270E-03 0.23527334E+02</pdfrwt>
<pdfrwt beam="2">  1       21 0.34855427E-01 0.23527334E+02</pdfrwt>
<totfact> 0.93336565E+07</totfact>
</mgrwt>
</event>
<event>
 4    1  0.7151341E+004  0.2726226E+02  0.7546771E-02  0.1630485E+00
         21   -1    0    0  503  502  0.00000000000E+00  0.00000000000E+00  0.10879463316E+03  0.10879463316E+03  0.00000000000E+00 0.  1.
         21   -1    0    0  501  503 -0.00000000000E+00 -0.00000000000E+00 -0.87518469733E+01  0.87518469733E+01  0.00000000000E+00 0.  1.
          5    1    1    2  501    0  0.15543130607E+02  0.22397361871E+02  0.22490555198E+02  0.35341983546E+02  0.00000000000E+00 0.  1.
         -5    1    1    2    0  502 -0.15543130607E+02 -0.22397361871E+02  0.77552230989E+02  0.82204496588E+02  0.00000000000E+00 0. -1.
<mgrwt>
<rscale>  2 0.27262258E+02</rscale>
<asrwt>0</asrwt>
<pdfrwt beam="1">  1       21 0.16737635E-01 0.27262258E+02</pdfrwt>
<pdfrwt beam="2">  1       21 0.13464381E-02 0.27262258E+02</pdfrwt>
<totfact> 0.55780737E+07</totfact>
</mgrwt>
</event>
<event>
 4    1  0.7151341E+004  0.3504697E+02  0.7546771E-02  0.1548184E+00
         21   -1    0    0  503  502  0.00000000000E+00  0.00000000000E+00  0.55218721360E+02  0.55218721360E+02  0.00000000000E+00 0. -1.
         21   -1    0    0  501  503 -0.00000000000E+00 -0.00000000000E+00 -0.30468404192E+02  0.30468404192E+02  0.00000000000E+00 0. -1.
          4    1    1    2  501    0 -0.14371164645E+02  0.31964980754E+02 -0.98840897414E+01  0.36414085157E+02  0.00000000000E+00 0. -1.
         -4    1    1    2    0  502  0.14371164645E+02 -0.31964980754E+02  0.34634406909E+02  0.49273040395E+02  0.00000000000E+00 0.  1.
<mgrwt>
<rscale>  2 0.35046974E+02</rscale>
<asrwt>0</asrwt>
<pdfrwt beam="1">  1       21 0.84951879E-02 0.35046974E+02</pdfrwt>
<pdfrwt beam="2">  1       21 0.46874468E-02 0.35046974E+02</pdfrwt>
<totfact> 0.26340852E+07</totfact>
</mgrwt>
</event>
<event>
 4    1  0.7151341E+004  0.2057287E+02  0.7546771E-02  0.1734170E+00
         21   -1    0    0  503  502  0.00000000000E+00  0.00000000000E+00  0.42483049702E+01  0.42483049702E+01  0.00000000000E+00 0.  1.
         21   -1    0    0  501  503 -0.00000000000E+00 -0.00000000000E+00 -0.11075197119E+03  0.11075197119E+03  0.00000000000E+00 0.  1.
          1    1    1    2  501    0 -0.60541990074E+01 -0.19661881397E+02 -0.71476360069E+02  0.74378175256E+02  0.00000000000E+00 0. -1.
         -1    1    1    2    0  502  0.60541990074E+01  0.19661881397E+02 -0.35027306151E+02  0.40622100904E+02  0.00000000000E+00 0.  1.
<mgrwt>
<rscale>  2 0.20572868E+02</rscale>
<asrwt>0</asrwt>
<pdfrwt beam="1">  1       21 0.65358535E-03 0.20572868E+02</pdfrwt>
<pdfrwt beam="2">  1       21 0.17038766E-01 0.20572868E+02</pdfrwt>
<totfact> 0.14842630E+08</totfact>
</mgrwt>
</event>
<event>
 4    1  0.7151341E+004  0.2189513E+02  0.7546771E-02  0.1710072E+00
         21   -1    0    0  503  502  0.00000000000E+00  0.00000000000E+00  0.67646513059E+00  0.67646513059E+00  0.00000000000E+00 0.  1.
         21   -1    0    0  501  503 -0.00000000000E+00 -0.00000000000E+00 -0.71090214804E+03  0.71090214804E+03  0.00000000000E+00 0.  1.
          2    1    1    2  501    0  0.19469367580E+01  0.21808393487E+02 -0.37500941924E+03  0.37564805485E+03  0.00000000000E+00 0.  1.
         -2    1    1    2    0  502 -0.19469367580E+01 -0.21808393487E+02 -0.33521626366E+03  0.33593055832E+03  0.00000000000E+00 0. -1.
<mgrwt>
<rscale>  2 0.21895127E+02</rscale>
<asrwt>0</asrwt>
<pdfrwt beam="1">  1       21 0.10407154E-03 0.21895127E+02</pdfrwt>
<pdfrwt beam="2">  1       21 0.10936958E+00 0.21895127E+02</pdfrwt>
<totfact> 0.60940003E+07</totfact>
</mgrwt>
</event>
<event>
 4    1  0.7151341E+004  0.2041061E+02  0.7546771E-02  0.1737284E+00
         21   -1    0    0  503  502  0.00000000000E+00  0.00000000000E+00  0.53974097638E+01  0.53974097638E+01  0.00000000000E+00 0.  1.
         21   -1    0    0  501  503 -0.00000000000E+00 -0.00000000000E+00 -0.84985778488E+02  0.84985778488E+02  0.00000000000E+00 0.  1.
          2    1    1    2  501    0 -0.15986490005E+02 -0.12689564022E+02 -0.53486766335E+02  0.57248817199E+02  0.00000000000E+00 0. -1.
         -2    1    1    2    0  502  0.15986490005E+02  0.12689564022E+02 -0.26101602389E+02  0.33134371053E+02  0.00000000000E+00 0.  1.
<mgrwt>
<rscale>  2 0.20410607E+02</rscale>
<asrwt>0</asrwt>
<pdfrwt beam="1">  1       21 0.83037070E-03 0.20410607E+02</pdfrwt>
<pdfrwt beam="2">  1       21 0.13074736E-01 0.20410607E+02</pdfrwt>
<totfact> 0.16256074E+08</totfact>
</mgrwt>
</event>
<event>
 4    1  0.7151341E+004  0.2633854E+02  0.7546771E-02  0.1642488E+00
         21   -1    0    0  503  502  0.00000000000E+00  0.00000000000E+00  0.19154004810E+01  0.19154004810E+01  0.00000000000E+00 0.  1.
         21   -1    0    0  501  503 -0.00000000000E+00 -0.00000000000E+00 -0.37524254218E+03  0.37524254218E+03  0.00000000000E+00 0.  1.
          4    1    1    2  501    0 -0.13509957432E+02  0.22609725947E+02 -0.15147832973E+03  0.15375110743E+03  0.00000000000E+00 0.  1.
         -4    1    1    2    0  502  0.13509957432E+02 -0.22609725947E+02 -0.22184881197E+03  0.22340683523E+03  0.00000000000E+00 0. -1.
<mgrwt>
<rscale>  2 0.26338539E+02</rscale>
<asrwt>0</asrwt>
<pdfrwt beam="1">  1       21 0.29467703E-03 0.26338539E+02</pdfrwt>
<pdfrwt beam="2">  1       21 0.57729616E-01 0.26338539E+02</pdfrwt>
<totfact> 0.54265366E+07</totfact>
</mgrwt>
</event>
<event>
 4    1  0.7151341E+004  0.2527807E+03  0.7546771E-02  0.1111560E+00
         21   -1    0    0  501  502  0.00000000000E+00  0.00000000000E+00  0.68624224720E+02  0.68624224720E+02  0.00000000000E+00 0.  1.
         21   -1    0    0  502  503 -0.00000000000E+00 -0.00000000000E+00 -0.11587275701E+04  0.11587275701E+04  0.00000000000E+00 0.  1.
          4    1    1    2  501    0 -0.24625126165E+03  0.57082360352E+02 -0.27307470206E+03  0.37211271496E+03  0.00000000000E+00 0. -1.
         -4    1    1    2    0  503  0.24625126165E+03 -0.57082360352E+02 -0.81702864336E+03  0.85523907990E+03  0.00000000000E+00 0.  1.
<mgrwt>
<rscale>  2 0.25278069E+03</rscale>
<asrwt>0</asrwt>
<pdfrwt beam="1">  1       21 0.10557573E-01 0.25278069E+03</pdfrwt>
<pdfrwt beam="2">  1       21 0.17826578E+00 0.25278069E+03</pdfrwt>
<totfact> 0.13224742E+04</totfact>
</mgrwt>
</event>
<event>
 4    1  0.7151341E+004  0.2001086E+02  0.7546771E-02  0.1745112E+00
         21   -1    0    0  503  502  0.00000000000E+00  0.00000000000E+00  0.21288025363E+03  0.21288025363E+03  0.00000000000E+00 0.  1.
         21   -1    0    0  501  503 -0.00000000000E+00 -0.00000000000E+00 -0.19200045655E+01  0.19200045655E+01  0.00000000000E+00 0.  1.
          1    1    1    2  501    0  0.18438243934E+02  0.77759759921E+01  0.90178721080E+02  0.92372270610E+02  0.00000000000E+00 0.  1.
         -1    1    1    2    0  502 -0.18438243934E+02 -0.77759759921E+01  0.12078152798E+03  0.12242798759E+03  0.00000000000E+00 0. -1.
<mgrwt>
<rscale>  2 0.20010863E+02</rscale>
<asrwt>0</asrwt>
<pdfrwt beam="1">  1       21 0.32750790E-01 0.20010863E+02</pdfrwt>
<pdfrwt beam="2">  1       21 0.29538549E-03 0.20010863E+02</pdfrwt>
<totfact> 0.14856293E+08</totfact>
</mgrwt>
</event>
<event>
 4    1  0.7151341E+004  0.2536644E+02  0.7546771E-02  0.1655794E+00
         21   -1    0    0  501  502  0.00000000000E+00  0.00000000000E+00  0.41558785665E+03  0.41558785665E+03  0.00000000000E+00 0. -1.
         21   -1    0    0  502  503 -0.00000000000E+00 -0.00000000000E+00 -0.15859795900E+01  0.15859795900E+01  0.00000000000E+00 0. -1.
          5    1    1    2  501    0  0.21858521974E+02 -0.12870954555E+02  0.23914988395E+03  0.24049142074E+03  0.00000000000E+00 0. -1.
         -5    1    1    2    0  503 -0.21858521974E+02  0.12870954555E+02  0.17485199311E+03  0.17668241550E+03  0.00000000000E+00 0.  1.
<mgrwt>
<rscale>  2 0.25366443E+02</rscale>
<asrwt>0</asrwt>
<pdfrwt beam="1">  1       21 0.63936506E-01 0.25366443E+02</pdfrwt>
<pdfrwt beam="2">  1       21 0.24399719E-03 0.25366443E+02</pdfrwt>
<totfact> 0.57709521E+07</totfact>
</mgrwt>
</event>
<event>
 4    1  0.7151341E+004  0.2105822E+02  0.7546771E-02  0.1725068E+00
         21   -1    0    0  501  502  0.00000000000E+00  0.00000000000E+00  0.55449482017E+01  0.55449482017E+01  0.00000000000E+00 0. -1.
         21   -1    0    0  502  503 -0.00000000000E+00 -0.00000000000E+00 -0.80236809315E+02  0.80236809315E+02  0.00000000000E+00 0. -1.
          5    1    1    2  501    0  0.12918210230E+02  0.16630342479E+02 -0.34888502022E+02  0.40751147467E+02  0.00000000000E+00 0.  1.
         -5    1    1    2    0  503 -0.12918210230E+02 -0.16630342479E+02 -0.39803359091E+02  0.45030610050E+02  0.00000000000E+00 0. -1.
<mgrwt>
<rscale>  2 0.21058216E+02</rscale>
<asrwt>0</asrwt>
<pdfrwt beam="1">  1       21 0.85306903E-03 0.21058216E+02</pdfrwt>
<pdfrwt beam="2">  1       21 0.12344123E-01 0.21058216E+02</pdfrwt>
<totfact> 0.17360136E+08</totfact>
</mgrwt>
</event>
<event>
 4    1  0.7151341E+004  0.2246405E+02  0.7546771E-02  0.1700348E+00
         21   -1    0    0  501  502  0.00000000000E+00  0.00000000000E+00  0.69362907136E+00  0.69362907136E+00  0.00000000000E+00 0.  1.
         21   -1    0    0  502  503 -0.00000000000E+00 -0.00000000000E+00 -0.77687989590E+03  0.77687989590E+03  0.00000000000E+00 0.  1.
          1    1    1    2  501    0 -0.31875168698E+01 -0.22236758318E+02 -0.48608546102E+03  0.48660426334E+03  0.00000000000E+00 0.  1.
         -1    1    1    2    0  503  0.31875168698E+01  0.22236758318E+02 -0.29010080581E+03  0.29096926163E+03  0.00000000000E+00 0. -1.
<mgrwt>
<rscale>  2 0.22464053E+02</rscale>
<asrwt>0</asrwt>
<pdfrwt beam="1">  1       21 0.10671285E-03 0.22464053E+02</pdfrwt>
<pdfrwt beam="2">  1       21 0.11951922E+00 0.22464053E+02</pdfrwt>
<totfact> 0.48493627E+07</totfact>
</mgrwt>
</event>
<event>
 4    1  0.7151341E+004  0.2210471E+02  0.7546771E-02  0.1706447E+00
         21   -1    0    0  501  502  0.00000000000E+00  0.00000000000E+00  0.27911968340E+00  0.27911968340E+00  0.00000000000E+00 0.  1.
         21   -1    0    0  502  503 -0.00000000000E+00 -0.00000000000E+00 -0.18458504746E+04  0.18458504746E+04  0.00000000000E+00 0.  1.
          5    1    1    2  501    0 -0.21590719567E+02 -0.47390923491E+01 -0.71306610708E+03  0.71340864253E+03  0.00000000000E+00 0.  1.
         -5    1    1    2    0  503  0.21590719567E+02  0.47390923491E+01 -0.11325052479E+04  0.11327209518E+04  0.00000000000E+00 0. -1.
<mgrwt>
<rscale>  2 0.22104709E+02</rscale>
<asrwt>0</asrwt>
<pdfrwt beam="1">  1       21 0.42941298E-04 0.22104709E+02</pdfrwt>
<pdfrwt beam="2">  1       21 0.28397826E+00 0.22104709E+02</pdfrwt>
<totfact> 0.19142931E+07</totfact>
</mgrwt>
</event>
<event>
 4    1  0.7151341E+004  0.3042387E+02  0.7546771E-02  0.1593450E+00
         21   -1    0    0  503  502  0.00000000000E+00  0.00000000000E+00  0.27097342326E+03  0.27097342326E+03  0.00000000000E+00 0.  1.
         21   -1    0    0  501  503 -0.00000000000E+00 -0.00000000000E+00 -0.34431423003E+01  0.34431423003E+01  0.00000000000E+00 0.  1.
          5    1    1    2  501    0 -0.16368147604E+01 -0.30379806641E+02  0.14597498246E+03  0.14911172764E+03  0.00000000000E+00 0.  1.
         -5    1    1    2    0  502  0.16368147604E+01  0.30379806641E+02  0.12155529850E+03  0.12530483793E+03  0.00000000000E+00 0. -1.
<mgrwt>
<rscale>  2 0.30423869E+02</rscale>
<asrwt>0</asrwt>
<pdfrwt beam="1">  1       21 0.41688202E-01 0.30423869E+02</pdfrwt>
<pdfrwt beam="2">  1       21 0.52971441E-03 0.30423869E+02</pdfrwt>
<totfact> 0.44472585E+07</totfact>
</mgrwt>
</event>
<event>
 4    1  0.7151341E+004  0.2320130E+02  0.7546771E-02  0.1688268E+00
         21   -1    0    0  501  502  0.00000000000E+00  0.00000000000E+00  0.10423611149E+02  0.10423611149E+02  0.00000000000E+00 0. -1.
         21   -1    0    0  502  503 -0.00000000000E+00 -0.00000000000E+00 -0.56675514050E+02  0.56675514050E+02  0.00000000000E+00 0. -1.
          3    1    1    2  501    0 -0.21083905312E+02  0.96834565352E+01 -0.13128090053E+02  0.26657965828E+02  0.00000000000E+00 0. -1.
         -3    1    1    2    0  503  0.21083905312E+02 -0.96834565352E+01 -0.33123812849E+02  0.40441159371E+02  0.00000000000E+00 0.  1.
<mgrwt>
<rscale>  2 0.23201302E+02</rscale>
<asrwt>0</asrwt>
<pdfrwt beam="1">  1       21 0.16036325E-02 0.23201302E+02</pdfrwt>
<pdfrwt beam="2">  1       21 0.87193100E-02 0.23201302E+02</pdfrwt>
<totfact> 0.12278416E+08</totfact>
</mgrwt>
</event>
<event>
 4    1  0.7151341E+004  0.2054934E+02  0.7546771E-02  0.1734619E+00
         21   -1    0    0  501  502  0.00000000000E+00  0.00000000000E+00  0.21404080003E+03  0.21404080003E+03  0.00000000000E+00 0.  1.
         21   -1    0    0  502  503 -0.00000000000E+00 -0.00000000000E+00 -0.21217410326E+01  0.21217410326E+01  0.00000000000E+00 0.  1.
          2    1    1    2  501    0  0.19174163796E+02  0.73909943441E+01  0.77330626333E+02  0.80014380731E+02  0.00000000000E+00 0. -1.
         -2    1    1    2    0  503 -0.19174163796E+02 -0.73909943441E+01  0.13458843266E+03  0.13614816033E+03  0.00000000000E+00 0.  1.
<mgrwt>
<rscale>  2 0.20549340E+02</rscale>
<asrwt>0</asrwt>
<pdfrwt beam="1">  1       21 0.32929337E-01 0.20549340E+02</pdfrwt>
<pdfrwt beam="2">  1       21 0.32642186E-03 0.20549340E+02</pdfrwt>
<totfact> 0.12823247E+08</totfact>
</mgrwt>
</event>
<event>
 4    1  0.7151341E+004  0.2781649E+02  0.7546771E-02  0.1623559E+00
         21   -1    0    0  501  502  0.00000000000E+00  0.00000000000E+00  0.81980507724E+03  0.81980507724E+03  0.00000000000E+00 0.  1.
         21   -1    0    0  502  503 -0.00000000000E+00 -0.00000000000E+00 -0.13082378189E+01  0.13082378189E+01  0.00000000000E+00 0.  1.
          1    1    1    2  501    0  0.94844164710E+00  0.27800315724E+02  0.62593062702E+03  0.62654840749E+03  0.00000000000E+00 0.  1.
         -1    1    1    2    0  503 -0.94844164710E+00 -0.27800315724E+02  0.19256621240E+03  0.19456490756E+03  0.00000000000E+00 0. -1.
<mgrwt>
<rscale>  2 0.27816490E+02</rscale>
<asrwt>0</asrwt>
<pdfrwt beam="1">  1       21 0.12612345E+00 0.27816490E+02</pdfrwt>
<pdfrwt beam="2">  1       21 0.20126801E-03 0.27816490E+02</pdfrwt>
<totfact> 0.17900280E+07</totfact>
</mgrwt>
</event>
<event>
 4    1  0.7151341E+004  0.2350244E+02  0.7546771E-02  0.1683493E+00
         21   -1    0    0  501  502  0.00000000000E+00  0.00000000000E+00  0.40854086108E+02  0.40854086108E+02  0.00000000000E+00 0. -1.
         21   -1    0    0  502  503 -0.00000000000E+00 -0.00000000000E+00 -0.14171697326E+02  0.14171697326E+02  0.00000000000E+00 0. -1.
          2    1    1    2  501    0  0.22640395291E+02  0.63069133618E+01  0.74431745948E+01  0.24652900502E+02  0.00000000000E+00 0.  1.
         -2    1    1    2    0  503 -0.22640395291E+02 -0.63069133618E+01  0.19239214188E+02  0.30372882933E+02  0.00000000000E+00 0. -1.
<mgrwt>
<rscale>  2 0.23502439E+02</rscale>
<asrwt>0</asrwt>
<pdfrwt beam="1">  1       21 0.62852440E-02 0.23502439E+02</pdfrwt>
<pdfrwt beam="2">  1       21 0.21802611E-02 0.23502439E+02</pdfrwt>
<totfact> 0.13108632E+08</totfact>
</mgrwt>
</event>
<event>
 4    1  0.7151341E+004  0.2211299E+02  0.7546771E-02  0.1706305E+00
         21   -1    0    0  503  502  0.00000000000E+00  0.00000000000E+00  0.82133135121E+01  0.82133135121E+01  0.00000000000E+00 0. -1.
         21   -1    0    0  501  503 -0.00000000000E+00 -0.00000000000E+00 -0.60245473565E+02  0.60245473565E+02  0.00000000000E+00 0. -1.
          2    1    1    2  501    0 -0.21198573398E+02 -0.62932336611E+01 -0.22300414786E+02  0.31405298974E+02  0.00000000000E+00 0. -1.
         -2    1    1    2    0  502  0.21198573398E+02  0.62932336611E+01 -0.29731745266E+02  0.37053488103E+02  0.00000000000E+00 0.  1.
<mgrwt>
<rscale>  2 0.22112989E+02</rscale>
<asrwt>0</asrwt>
<pdfrwt beam="1">  1       21 0.12635867E-02 0.22112989E+02</pdfrwt>
<pdfrwt beam="2">  1       21 0.92685343E-02 0.22112989E+02</pdfrwt>
<totfact> 0.15715624E+08</totfact>
</mgrwt>
</event>
<event>
 4    1  0.7151341E+004  0.2005762E+02  0.7546771E-02  0.1744185E+00
         21   -1    0    0  501  502  0.00000000000E+00  0.00000000000E+00  0.43696132678E+01  0.43696132678E+01  0.00000000000E+00 0.  1.
         21   -1    0    0  502  503 -0.00000000000E+00 -0.00000000000E+00 -0.10646351865E+03  0.10646351865E+03  0.00000000000E+00 0.  1.
          3    1    1    2  501    0  0.15966922588E+02  0.12139421952E+02 -0.71423470997E+02  0.74186389530E+02  0.00000000000E+00 0.  1.
         -3    1    1    2    0  503 -0.15966922588E+02 -0.12139421952E+02 -0.30670434386E+02  0.36646742388E+02  0.00000000000E+00 0. -1.
<mgrwt>
<rscale>  2 0.20057622E+02</rscale>
<asrwt>0</asrwt>
<pdfrwt beam="1">  1       21 0.67224825E-03 0.20057622E+02</pdfrwt>
<pdfrwt beam="2">  1       21 0.16379002E-01 0.20057622E+02</pdfrwt>
<totfact> 0.15112220E+08</totfact>
</mgrwt>
</event>
<event>
 4    1  0.7151341E+004  0.2063881E+02  0.7546771E-02  0.1732915E+00
         21   -1    0    0  503  502  0.00000000000E+00  0.00000000000E+00  0.10917605282E+03  0.10917605282E+03  0.00000000000E+00 0. -1.
         21   -1    0    0  501  503 -0.00000000000E+00 -0.00000000000E+00 -0.39300260406E+01  0.39300260406E+01  0.00000000000E+00 0. -1.
          5    1    1    2  501    0  0.19915919371E+02  0.54144912332E+01  0.47812766663E+02  0.52077069961E+02  0.00000000000E+00 0. -1.
         -5    1    1    2    0  502 -0.19915919371E+02 -0.54144912332E+01  0.57433260116E+02  0.61029008899E+02  0.00000000000E+00 0.  1.
<mgrwt>
<rscale>  2 0.20638812E+02</rscale>
<asrwt>0</asrwt>
<pdfrwt beam="1">  1       21 0.16796314E-01 0.20638812E+02</pdfrwt>
<pdfrwt beam="2">  1       21 0.60461947E-03 0.20638812E+02</pdfrwt>
<totfact> 0.17082613E+08</totfact>
</mgrwt>
</event>
<event>
 4    1  0.7151341E+004  0.2217626E+02  0.7546771E-02  0.1705221E+00
         21   -1    0    0  501  502  0.00000000000E+00  0.00000000000E+00  0.17994804765E+01  0.17994804765E+01  0.00000000000E+00 0. -1.
         21   -1    0    0  502  503 -0.00000000000E+00 -0.00000000000E+00 -0.59621046796E+03  0.59621046796E+03  0.00000000000E+00 0. -1.
          1    1    1    2  501    0  0.87633364858E+01  0.20371316836E+02 -0.77154194898E+02  0.80277994533E+02  0.00000000000E+00 0. -1.
         -1    1    1    2    0  503 -0.87633364858E+01 -0.20371316836E+02 -0.51725679259E+03  0.51773195390E+03  0.00000000000E+00 0.  1.
<mgrwt>
<rscale>  2 0.22176262E+02</rscale>
<asrwt>0</asrwt>
<pdfrwt beam="1">  1       21 0.27684310E-03 0.22176262E+02</pdfrwt>
<pdfrwt beam="2">  1       21 0.91724705E-01 0.22176262E+02</pdfrwt>
<totfact> 0.21997891E+07</totfact>
</mgrwt>
</event>
<event>
 4    1  0.7151341E+004  0.2770546E+02  0.7546771E-02  0.1624931E+00
         21   -1    0    0  501  502  0.00000000000E+00  0.00000000000E+00  0.52353982464E+02  0.52353982464E+02  0.00000000000E+00 0.  1.
         21   -1    0    0  502  503 -0.00000000000E+00 -0.00000000000E+00 -0.15025666594E+02  0.15025666594E+02  0.00000000000E+00 0.  1.
          4    1    1    2  501    0 -0.12166121839E+02  0.24891321467E+02  0.23908376334E+02  0.36595120767E+02  0.00000000000E+00 0. -1.
         -4    1    1    2    0  503  0.12166121839E+02 -0.24891321467E+02  0.13419939536E+02  0.30784528292E+02  0.00000000000E+00 0.  1.
<mgrwt>
<rscale>  2 0.27705458E+02</rscale>
<asrwt>0</asrwt>
<pdfrwt beam="1">  1       21 0.80544588E-02 0.27705458E+02</pdfrwt>
<pdfrwt beam="2">  1       21 0.23116410E-02 0.27705458E+02</pdfrwt>
<totfact> 0.83600873E+07</totfact>
</mgrwt>
</event>
<event>
 4    1  0.7151341E+004  0.2677610E+02  0.7546771E-02  0.1636728E+00
         21   -1    0    0  501  502  0.00000000000E+00  0.00000000000E+00  0.12945024496E+02  0.12945024496E+02  0.00000000000E+00 0. -1.
         21   -1    0    0  502  503 -0.00000000000E+00 -0.00000000000E+00 -0.58456760130E+02  0.58456760130E+02  0.00000000000E+00 0. -1.
          3    1    1    2  501    0 -0.20517158205E+02 -0.17204822701E+02 -0.30939723327E+02  0.40917309107E+02  0.00000000000E+00 0.  1.
         -3    1    1    2    0  503  0.20517158205E+02  0.17204822701E+02 -0.14572012307E+02  0.30484475519E+02  0.00000000000E+00 0. -1.
<mgrwt>
<rscale>  2 0.26776103E+02</rscale>
<asrwt>0</asrwt>
<pdfrwt beam="1">  1       21 0.19915422E-02 0.26776103E+02</pdfrwt>
<pdfrwt beam="2">  1       21 0.89933478E-02 0.26776103E+02</pdfrwt>
<totfact> 0.87031578E+07</totfact>
</mgrwt>
</event>
<event>
 4    1  0.7151341E+004  0.2669770E+02  0.7546771E-02  0.1637750E+00
         21   -1    0    0  503  502  0.00000000000E+00  0.00000000000E+00  0.36094460640E+02  0.36094460640E+02  0.00000000000E+00 0.  1.
         21   -1    0    0  501  503 -0.00000000000E+00 -0.00000000000E+00 -0.20706639770E+02  0.20706639770E+02  0.00000000000E+00 0.  1.
          3    1    1    2  501    0  0.26500265567E+02  0.32408783017E+01  0.15807889558E+01  0.26744462249E+02  0.00000000000E+00 0.  1.
         -3    1    1    2    0  502 -0.26500265567E+02 -0.32408783017E+01  0.13807031914E+02  0.30056638161E+02  0.00000000000E+00 0. -1.
<mgrwt>
<rscale>  2 0.26697703E+02</rscale>
<asrwt>0</asrwt>
<pdfrwt beam="1">  1       21 0.55529939E-02 0.26697703E+02</pdfrwt>
<pdfrwt beam="2">  1       21 0.31856369E-02 0.26697703E+02</pdfrwt>
<totfact> 0.91909474E+07</totfact>
</mgrwt>
</event>
<event>
 4    1  0.7151341E+004  0.2462267E+02  0.7546771E-02  0.1666482E+00
         21   -1    0    0  503  502  0.00000000000E+00  0.00000000000E+00  0.58221448792E+01  0.58221448792E+01  0.00000000000E+00 0. -1.
         21   -1    0    0  501  503 -0.00000000000E+00 -0.00000000000E+00 -0.13125794779E+03  0.13125794779E+03  0.00000000000E+00 0. -1.
          3    1    1    2  501    0 -0.80717135011E+01 -0.23262053361E+02 -0.93875818681E+02  0.97051249443E+02  0.00000000000E+00 0.  1.
         -3    1    1    2    0  502  0.80717135011E+01  0.23262053361E+02 -0.31559984226E+02  0.40028843223E+02  0.00000000000E+00 0. -1.
<mgrwt>
<rscale>  2 0.24622666E+02</rscale>
<asrwt>0</asrwt>
<pdfrwt beam="1">  1       21 0.89571468E-03 0.24622666E+02</pdfrwt>
<pdfrwt beam="2">  1       21 0.20193528E-01 0.24622666E+02</pdfrwt>
<totfact> 0.72728028E+07</totfact>
</mgrwt>
</event>
<event>
 4    1  0.7151341E+004  0.3270511E+02  0.7546771E-02  0.1569978E+00
         21   -1    0    0  501  502  0.00000000000E+00  0.00000000000E+00  0.28217860794E+03  0.28217860794E+03  0.00000000000E+00 0. -1.
         21   -1    0    0  502  503 -0.00000000000E+00 -0.00000000000E+00 -0.43756977126E+01  0.43756977126E+01  0.00000000000E+00 0. -1.
          2    1    1    2  501    0  0.17482813337E+02 -0.27640107993E+02  0.19129405918E+03  0.19406968184E+03  0.00000000000E+00 0.  1.
         -2    1    1    2    0  503 -0.17482813337E+02  0.27640107993E+02  0.86508851040E+02  0.92484623805E+02  0.00000000000E+00 0. -1.
<mgrwt>
<rscale>  2 0.32705112E+02</rscale>
<asrwt>0</asrwt>
<pdfrwt beam="1">  1       21 0.43412079E-01 0.32705112E+02</pdfrwt>
<pdfrwt beam="2">  1       21 0.67318448E-03 0.32705112E+02</pdfrwt>
<totfact> 0.29127234E+07</totfact>
</mgrwt>
</event>
<event>
 4    1  0.7151341E+004  0.2234862E+02  0.7546771E-02  0.1702292E+00
         21   -1    0    0  501  502  0.00000000000E+00  0.00000000000E+00  0.10295056502E+01  0.10295056502E+01  0.00000000000E+00 0.  1.
         21   -1    0    0  502  503 -0.00000000000E+00 -0.00000000000E+00 -0.50914008245E+03  0.50914008245E+03  0.00000000000E+00 0.  1.
          4    1    1    2  501    0 -0.13218478140E+02 -0.18020341693E+02 -0.30943046072E+03  0.31023647577E+03  0.00000000000E+00 0. -1.
         -4    1    1    2    0  503  0.13218478140E+02  0.18020341693E+02 -0.19868011608E+03  0.19993311233E+03  0.00000000000E+00 0.  1.
<mgrwt>
<rscale>  2 0.22348621E+02</rscale>
<asrwt>0</asrwt>
<pdfrwt beam="1">  1       21 0.15838539E-03 0.22348621E+02</pdfrwt>
<pdfrwt beam="2">  1       21 0.78329288E-01 0.22348621E+02</pdfrwt>
<totfact> 0.68919241E+07</totfact>
</mgrwt>
</event>
<event>
 4    1  0.7151341E+004  0.2216988E+02  0.7546771E-02  0.1705330E+00
         21   -1    0    0  503  502  0.00000000000E+00  0.00000000000E+00  0.25671191380E+02  0.25671191380E+02  0.00000000000E+00 0. -1.
         21   -1    0    0  501  503 -0.00000000000E+00 -0.00000000000E+00 -0.20225992133E+02  0.20225992133E+02  0.00000000000E+00 0. -1.
          1    1    1    2  501    0  0.20529216789E+02 -0.83698850371E+01  0.80251797152E+01  0.23577684937E+02  0.00000000000E+00 0.  1.
         -1    1    1    2    0  502 -0.20529216789E+02  0.83698850371E+01 -0.25799804686E+01  0.22319498577E+02  0.00000000000E+00 0. -1.
<mgrwt>
<rscale>  2 0.22169883E+02</rscale>
<asrwt>0</asrwt>
<pdfrwt beam="1">  1       21 0.39494141E-02 0.22169883E+02</pdfrwt>
<pdfrwt beam="2">  1       21 0.31116911E-02 0.22169883E+02</pdfrwt>
<totfact> 0.15552441E+08</totfact>
</mgrwt>
</event>
<event>
 4    1  0.7151341E+004  0.2200264E+02  0.7546771E-02  0.1708206E+00
         21   -1    0    0  503  502  0.00000000000E+00  0.00000000000E+00  0.71101626559E+01  0.71101626559E+01  0.00000000000E+00 0.  1.
         21   -1    0    0  501  503 -0.00000000000E+00 -0.00000000000E+00 -0.93835487839E+02  0.93835487839E+02  0.00000000000E+00 0.  1.
          5    1    1    2  501    0  0.16855268003E+02  0.14142699860E+02 -0.69801500436E+02  0.73187194795E+02  0.00000000000E+00 0. -1.
         -5    1    1    2    0  502 -0.16855268003E+02 -0.14142699860E+02 -0.16923824747E+02  0.27758455701E+02  0.00000000000E+00 0.  1.
<mgrwt>
<rscale>  2 0.22002637E+02</rscale>
<asrwt>0</asrwt>
<pdfrwt beam="1">  1       21 0.10938712E-02 0.22002637E+02</pdfrwt>
<pdfrwt beam="2">  1       21 0.14436228E-01 0.22002637E+02</pdfrwt>
<totfact> 0.93133947E+07</totfact>
</mgrwt>
</event>
<event>
 4    1  0.7151341E+004  0.2150206E+02  0.7546771E-02  0.1717009E+00
         21   -1    0    0  501  502  0.00000000000E+00  0.00000000000E+00  0.15369810272E+03  0.15369810272E+03  0.00000000000E+00 0. -1.
         21   -1    0    0  502  503 -0.00000000000E+00 -0.00000000000E+00 -0.32445193860E+01  0.32445193860E+01  0.00000000000E+00 0. -1.
          3    1    1    2  501    0 -0.21077879615E+02  0.42498927904E+01  0.96409487908E+02  0.98778175507E+02  0.00000000000E+00 0. -1.
         -3    1    1    2    0  503  0.21077879615E+02 -0.42498927904E+01  0.54044095427E+02  0.58164446600E+02  0.00000000000E+00 0.  1.
<mgrwt>
<rscale>  2 0.21502060E+02</rscale>
<asrwt>0</asrwt>
<pdfrwt beam="1">  1       21 0.23645856E-01 0.21502060E+02</pdfrwt>
<pdfrwt beam="2">  1       21 0.49915695E-03 0.21502060E+02</pdfrwt>
<totfact> 0.12657756E+08</totfact>
</mgrwt>
</event>
<event>
 4    1  0.7151341E+004  0.2209977E+02  0.7546771E-02  0.1706532E+00
         21   -1    0    0  501  502  0.00000000000E+00  0.00000000000E+00  0.60066011395E+01  0.60066011395E+01  0.00000000000E+00 0.  1.
         21   -1    0    0  502  503 -0.00000000000E+00 -0.00000000000E+00 -0.20819001520E+03  0.20819001520E+03  0.00000000000E+00 0.  1.
          3    1    1    2  501    0  0.66226549104E+01  0.21084124127E+02 -0.18469981333E+03  0.18601725966E+03  0.00000000000E+00 0. -1.
         -3    1    1    2    0  503 -0.66226549104E+01 -0.21084124127E+02 -0.17483600733E+02  0.28179356679E+02  0.00000000000E+00 0.  1.
<mgrwt>
<rscale>  2 0.22099770E+02</rscale>
<asrwt>0</asrwt>
<pdfrwt beam="1">  1       21 0.92409266E-03 0.22099770E+02</pdfrwt>
<pdfrwt beam="2">  1       21 0.32029227E-01 0.22099770E+02</pdfrwt>
<totfact> 0.29625391E+07</totfact>
</mgrwt>
</event>
<event>
 4    1  0.7151341E+004  0.3217610E+02  0.7546771E-02  0.1575210E+00
         21   -1    0    0  503  502  0.00000000000E+00  0.00000000000E+00  0.33184970578E+03  0.33184970578E+03  0.00000000000E+00 0. -1.
         21   -1    0    0  501  503 -0.00000000000E+00 -0.00000000000E+00 -0.31233035295E+01  0.31233035295E+01  0.00000000000E+00 0. -1.
          3    1    1    2  501    0 -0.11078798811E+02  0.30208635028E+02  0.16998067222E+03  0.17299922064E+03  0.00000000000E+00 0.  1.
         -3    1    1    2    0  502  0.11078798811E+02 -0.30208635028E+02  0.15874573004E+03  0.16197378868E+03  0.00000000000E+00 0. -1.
<mgrwt>
<rscale>  2 0.32176100E+02</rscale>
<asrwt>0</asrwt>
<pdfrwt beam="1">  1       21 0.51053773E-01 0.32176100E+02</pdfrwt>
<pdfrwt beam="2">  1       21 0.48050850E-03 0.32176100E+02</pdfrwt>
<totfact> 0.35032923E+07</totfact>
</mgrwt>
</event>
<event>
 4    1  0.7151341E+004  0.2670044E+02  0.7546771E-02  0.1637714E+00
         21   -1    0    0  501  502  0.00000000000E+00  0.00000000000E+00  0.23902109167E+03  0.23902109167E+03  0.00000000000E+00 0.  1.
         21   -1    0    0  502  503 -0.00000000000E+00 -0.00000000000E+00 -0.41510608329E+01  0.41510608329E+01  0.00000000000E+00 0.  1.
          5    1    1    2  501    0 -0.26699431178E+02 -0.23178986554E+00  0.18194164373E+03  0.18389038876E+03  0.00000000000E+00 0.  1.
         -5    1    1    2    0  503  0.26699431178E+02  0.23178986554E+00  0.52928387105E+02  0.59281763750E+02  0.00000000000E+00 0. -1.
<mgrwt>
<rscale>  2 0.26700437E+02</rscale>
<asrwt>0</asrwt>
<pdfrwt beam="1">  1       21 0.36772465E-01 0.26700437E+02</pdfrwt>
<pdfrwt beam="2">  1       21 0.63862493E-03 0.26700437E+02</pdfrwt>
<totfact> 0.41547468E+07</totfact>
</mgrwt>
</event>
<event>
 4    1  0.7151341E+004  0.2390327E+02  0.7546771E-02  0.1677273E+00
         21   -1    0    0  501  502  0.00000000000E+00  0.00000000000E+00  0.17820177438E+03  0.17820177438E+03  0.00000000000E+00 0.  1.
         21   -1    0    0  502  503 -0.00000000000E+00 -0.00000000000E+00 -0.53207712444E+01  0.53207712444E+01  0.00000000000E+00 0.  1.
          2    1    1    2  501    0 -0.20901311890E+02  0.11597482190E+02  0.28594395211E+02  0.37269369049E+02  0.00000000000E+00 0.  1.
         -2    1    1    2    0  503  0.20901311890E+02 -0.11597482190E+02  0.14428660793E+03  0.14625317658E+03  0.00000000000E+00 0. -1.
<mgrwt>
<rscale>  2 0.23903272E+02</rscale>
<asrwt>0</asrwt>
<pdfrwt beam="1">  1       21 0.27415653E-01 0.23903272E+02</pdfrwt>
<pdfrwt beam="2">  1       21 0.81858033E-03 0.23903272E+02</pdfrwt>
<totfact> 0.47994480E+07</totfact>
</mgrwt>
</event>
<event>
 4    1  0.7151341E+004  0.3451406E+02  0.7546771E-02  0.1552959E+00
         21   -1    0    0  501  502  0.00000000000E+00  0.00000000000E+00  0.65867100500E+02  0.65867100500E+02  0.00000000000E+00 0. -1.
         21   -1    0    0  502  503 -0.00000000000E+00 -0.00000000000E+00 -0.22108507490E+02  0.22108507490E+02  0.00000000000E+00 0. -1.
          3    1    1    2  501    0  0.31948129263E+02 -0.13058990479E+02  0.40644088897E+02  0.53321310542E+02  0.00000000000E+00 0. -1.
         -3    1    1    2    0  503 -0.31948129263E+02  0.13058990479E+02  0.31145041134E+01  0.34654297447E+02  0.00000000000E+00 0.  1.
<mgrwt>
<rscale>  2 0.34514058E+02</rscale>
<asrwt>0</asrwt>
<pdfrwt beam="1">  1       21 0.10133400E-01 0.34514058E+02</pdfrwt>
<pdfrwt beam="2">  1       21 0.34013089E-02 0.34514058E+02</pdfrwt>
<totfact> 0.32664744E+07</totfact>
</mgrwt>
</event>
<event>
 4    1  0.7151341E+004  0.2062947E+02  0.7546771E-02  0.1733092E+00
         21   -1    0    0  503  502  0.00000000000E+00  0.00000000000E+00  0.31202501038E+02  0.31202501038E+02  0.00000000000E+00 0. -1.
         21   -1    0    0  501  503 -0.00000000000E+00 -0.00000000000E+00 -0.14121459420E+02  0.14121459420E+02  0.00000000000E+00 0. -1.
          2    1    1    2  501    0 -0.17844895732E+01 -0.20552145119E+02  0.12728730722E+02  0.24240372477E+02  0.00000000000E+00 0. -1.
         -2    1    1    2    0  502  0.17844895732E+01  0.20552145119E+02  0.43523108959E+01  0.21083587981E+02  0.00000000000E+00 0.  1.
<mgrwt>
<rscale>  2 0.20629471E+02</rscale>
<asrwt>0</asrwt>
<pdfrwt beam="1">  1       21 0.48003848E-02 0.20629471E+02</pdfrwt>
<pdfrwt beam="2">  1       21 0.21725322E-02 0.20629471E+02</pdfrwt>
<totfact> 0.19466563E+08</totfact>
</mgrwt>
</event>
<event>
 4    1  0.7151341E+004  0.2411459E+02  0.7546771E-02  0.1674055E+00
         21   -1    0    0  503  502  0.00000000000E+00  0.00000000000E+00  0.71471290709E+02  0.71471290709E+02  0.00000000000E+00 0. -1.
         21   -1    0    0  501  503 -0.00000000000E+00 -0.00000000000E+00 -0.15282926209E+02  0.15282926209E+02  0.00000000000E+00 0. -1.
          3    1    1    2  501    0 -0.21189883324E+02  0.11510967435E+02 -0.15682778267E+01  0.24165533760E+02  0.00000000000E+00 0. -1.
         -3    1    1    2    0  502  0.21189883324E+02 -0.11510967435E+02  0.57756642327E+02  0.62588683158E+02  0.00000000000E+00 0.  1.
<mgrwt>
<rscale>  2 0.24114592E+02</rscale>
<asrwt>0</asrwt>
<pdfrwt beam="1">  1       21 0.10995583E-01 0.24114592E+02</pdfrwt>
<pdfrwt beam="2">  1       21 0.23512195E-02 0.24114592E+02</pdfrwt>
<totfact> 0.46999027E+07</totfact>
</mgrwt>
</event>
<event>
 4    1  0.7151341E+004  0.3754303E+02  0.7546771E-02  0.1527112E+00
         21   -1    0    0  503  502  0.00000000000E+00  0.00000000000E+00  0.27479022942E+01  0.27479022942E+01  0.00000000000E+00 0.  1.
         21   -1    0    0  501  503 -0.00000000000E+00 -0.00000000000E+00 -0.60171895874E+03  0.60171895874E+03  0.00000000000E+00 0.  1.
          1    1    1    2  501    0  0.12881124487E+02 -0.35264085246E+02 -0.41558421642E+03  0.41727655100E+03  0.00000000000E+00 0. -1.
         -1    1    1    2    0  502 -0.12881124487E+02  0.35264085246E+02 -0.18338684002E+03  0.18719031003E+03  0.00000000000E+00 0.  1.
<mgrwt>
<rscale>  2 0.37543030E+02</rscale>
<asrwt>0</asrwt>
<pdfrwt beam="1">  1       21 0.42275328E-03 0.37543030E+02</pdfrwt>
<pdfrwt beam="2">  1       21 0.92572349E-01 0.37543030E+02</pdfrwt>
<totfact> 0.12576778E+07</totfact>
</mgrwt>
</event>
<event>
 4    1  0.7151341E+004  0.3592466E+02  0.7546771E-02  0.1540539E+00
         21   -1    0    0  501  502  0.00000000000E+00  0.00000000000E+00  0.32800184596E+03  0.32800184596E+03  0.00000000000E+00 0. -1.
         21   -1    0    0  502  503 -0.00000000000E+00 -0.00000000000E+00 -0.41170535669E+01  0.41170535669E+01  0.00000000000E+00 0. -1.
          2    1    1    2  501    0  0.35872472275E+02  0.19357258744E+01  0.12699177355E+03  0.13197534562E+03  0.00000000000E+00 0.  1.
         -2    1    1    2    0  503 -0.35872472275E+02 -0.19357258744E+01  0.19689301885E+03  0.20014355391E+03  0.00000000000E+00 0. -1.
<mgrwt>
<rscale>  2 0.35924661E+02</rscale>
<asrwt>0</asrwt>
<pdfrwt beam="1">  1       21 0.50461802E-01 0.35924661E+02</pdfrwt>
<pdfrwt beam="2">  1       21 0.63339311E-03 0.35924661E+02</pdfrwt>
<totfact> 0.24164122E+07</totfact>
</mgrwt>
</event>
<event>
 4    1  0.7151341E+004  0.3531344E+02  0.7546771E-02  0.1545835E+00
         21   -1    0    0  503  502  0.00000000000E+00  0.00000000000E+00  0.10483057827E+02  0.10483057827E+02  0.00000000000E+00 0.  1.
         21   -1    0    0  501  503 -0.00000000000E+00 -0.00000000000E+00 -0.11928574186E+03  0.11928574186E+03  0.00000000000E+00 0.  1.
          2    1    1    2  501    0  0.34410121915E+02 -0.79361514579E+01 -0.50998022707E+02  0.62030938330E+02  0.00000000000E+00 0.  1.
         -2    1    1    2    0  502 -0.34410121915E+02  0.79361514579E+01 -0.57804661322E+02  0.67737861353E+02  0.00000000000E+00 0. -1.
<mgrwt>
<rscale>  2 0.35313439E+02</rscale>
<asrwt>0</asrwt>
<pdfrwt beam="1">  1       21 0.16127782E-02 0.35313439E+02</pdfrwt>
<pdfrwt beam="2">  1       21 0.18351652E-01 0.35313439E+02</pdfrwt>
<totfact> 0.38031083E+07</totfact>
</mgrwt>
</event>
<event>
 4    1  0.7151341E+004  0.2005288E+02  0.7546771E-02  0.1744278E+00
         21   -1    0    0  501  502  0.00000000000E+00  0.00000000000E+00  0.95724096803E+00  0.95724096803E+00  0.00000000000E+00 0.  1.
         21   -1    0    0  502  503 -0.00000000000E+00 -0.00000000000E+00 -0.43677127193E+03  0.43677127193E+03  0.00000000000E+00 0.  1.
          2    1    1    2  501    0 -0.10310597391E+02 -0.17199118614E+02 -0.26069169268E+03  0.26146180741E+03  0.00000000000E+00 0.  1.
         -2    1    1    2    0  503  0.10310597391E+02  0.17199118614E+02 -0.17512233827E+03  0.17626670548E+03  0.00000000000E+00 0. -1.
<mgrwt>
<rscale>  2 0.20052883E+02</rscale>
<asrwt>0</asrwt>
<pdfrwt beam="1">  1       21 0.14726774E-03 0.20052883E+02</pdfrwt>
<pdfrwt beam="2">  1       21 0.67195625E-01 0.20052883E+02</pdfrwt>
<totfact> 0.10196241E+08</totfact>
</mgrwt>
</event>
<event>
 4    1  0.7151341E+004  0.3533499E+02  0.7546771E-02  0.1545646E+00
         21   -1    0    0  501  502  0.00000000000E+00  0.00000000000E+00  0.60817914740E+02  0.60817914740E+02  0.00000000000E+00 0. -1.
         21   -1    0    0  502  503 -0.00000000000E+00 -0.00000000000E+00 -0.20806881102E+02  0.20806881102E+02  0.00000000000E+00 0. -1.
          5    1    1    2  501    0 -0.32611829749E+02 -0.13602566589E+02  0.24717770270E+02  0.43122261356E+02  0.00000000000E+00 0. -1.
         -5    1    1    2    0  503  0.32611829749E+02  0.13602566589E+02  0.15293263369E+02  0.38502534486E+02  0.00000000000E+00 0.  1.
<mgrwt>
<rscale>  2 0.35334986E+02</rscale>
<asrwt>0</asrwt>
<pdfrwt beam="1">  1       21 0.93566022E-02 0.35334986E+02</pdfrwt>
<pdfrwt beam="2">  1       21 0.32010586E-02 0.35334986E+02</pdfrwt>
<totfact> 0.41312056E+07</totfact>
</mgrwt>
</event>
<event>
 4    1  0.7151341E+004  0.3141001E+02  0.7546771E-02  0.1583006E+00
         21   -1    0    0  503  502  0.00000000000E+00  0.00000000000E+00  0.19712029200E+04  0.19712029200E+04  0.00000000000E+00 0.  1.
         21   -1    0    0  501  503 -0.00000000000E+00 -0.00000000000E+00 -0.52550217598E+00  0.52550217598E+00  0.00000000000E+00 0.  1.
          1    1    1    2  501    0  0.30751701659E+02 -0.63969988444E+01  0.77030264125E+03  0.77094276562E+03  0.00000000000E+00 0.  1.
         -1    1    1    2    0  502 -0.30751701659E+02  0.63969988444E+01  0.12003747766E+04  0.12007856565E+04  0.00000000000E+00 0. -1.
<mgrwt>
<rscale>  2 0.31410010E+02</rscale>
<asrwt>0</asrwt>
<pdfrwt beam="1">  1       21 0.30325607E+00 0.31410010E+02</pdfrwt>
<pdfrwt beam="2">  1       21 0.80848067E-04 0.31410010E+02</pdfrwt>
<totfact> 0.63462781E+06</totfact>
</mgrwt>
</event>
<event>
 4    1  0.7151341E+004  0.2044667E+02  0.7546771E-02  0.1736589E+00
         21   -1    0    0  501  502  0.00000000000E+00  0.00000000000E+00  0.66116117286E+01  0.66116117286E+01  0.00000000000E+00 0.  1.
         21   -1    0    0  502  503 -0.00000000000E+00 -0.00000000000E+00 -0.63833917331E+02  0.63833917331E+02  0.00000000000E+00 0.  1.
          2    1    1    2  501    0 -0.77039512542E+00 -0.20432151530E+02 -0.32031084556E+02  0.38000746080E+02  0.00000000000E+00 0.  1.
         -2    1    1    2    0  503  0.77039512542E+00  0.20432151530E+02 -0.25191221047E+02  0.32444782980E+02  0.00000000000E+00 0. -1.
<mgrwt>
<rscale>  2 0.20446670E+02</rscale>
<asrwt>0</asrwt>
<pdfrwt beam="1">  1       21 0.10171711E-02 0.20446670E+02</pdfrwt>
<pdfrwt beam="2">  1       21 0.98206020E-02 0.20446670E+02</pdfrwt>
<totfact> 0.19322269E+08</totfact>
</mgrwt>
</event>
<event>
 4    1  0.7151341E+004  0.2560463E+02  0.7546771E-02  0.1652466E+00
         21   -1    0    0  501  502  0.00000000000E+00  0.00000000000E+00  0.88973010960E+03  0.88973010960E+03  0.00000000000E+00 0.  1.
         21   -1    0    0  502  503 -0.00000000000E+00 -0.00000000000E+00 -0.73700598232E+00  0.73700598232E+00  0.00000000000E+00 0.  1.
          4    1    1    2  501    0 -0.17258194489E+02 -0.18914333475E+02  0.43801130122E+03  0.43875904240E+03  0.00000000000E+00 0.  1.
         -4    1    1    2    0  503  0.17258194489E+02  0.18914333475E+02  0.45098180240E+03  0.45170807318E+03  0.00000000000E+00 0. -1.
<mgrwt>
<rscale>  2 0.25604634E+02</rscale>
<asrwt>0</asrwt>
<pdfrwt beam="1">  1       21 0.13688070E+00 0.25604634E+02</pdfrwt>
<pdfrwt beam="2">  1       21 0.11338625E-03 0.25604634E+02</pdfrwt>
<totfact> 0.33401562E+07</totfact>
</mgrwt>
</event>
<event>
 4    1  0.7151341E+004  0.3197991E+02  0.7546771E-02  0.1577181E+00
         21   -1    0    0  503  502  0.00000000000E+00  0.00000000000E+00  0.14023689787E+01  0.14023689787E+01  0.00000000000E+00 0. -1.
         21   -1    0    0  501  503 -0.00000000000E+00 -0.00000000000E+00 -0.72928455763E+03  0.72928455763E+03  0.00000000000E+00 0. -1.
          2    1    1    2  501    0  0.24738067055E+02  0.20266789024E+02 -0.36515771158E+03  0.36655541058E+03  0.00000000000E+00 0.  1.
         -2    1    1    2    0  502 -0.24738067055E+02 -0.20266789024E+02 -0.36272447708E+03  0.36413151603E+03  0.00000000000E+00 0. -1.
<mgrwt>
<rscale>  2 0.31979911E+02</rscale>
<asrwt>0</asrwt>
<pdfrwt beam="1">  1       21 0.21574904E-03 0.31979911E+02</pdfrwt>
<pdfrwt beam="2">  1       21 0.11219764E+00 0.31979911E+02</pdfrwt>
<totfact> 0.21599136E+07</totfact>
</mgrwt>
</event>
<event>
 4    1  0.7151341E+004  0.2017489E+02  0.7546771E-02  0.1741872E+00
         21   -1    0    0  501  502  0.00000000000E+00  0.00000000000E+00  0.52074858461E+01  0.52074858461E+01  0.00000000000E+00 0. -1.
         21   -1    0    0  502  503 -0.00000000000E+00 -0.00000000000E+00 -0.79840252360E+02  0.79840252360E+02  0.00000000000E+00 0. -1.
          5    1    1    2  501    0 -0.20170618263E+02 -0.41498785233E+00 -0.31150624247E+02  0.37113170803E+02  0.00000000000E+00 0.  1.
         -5    1    1    2    0  503  0.20170618263E+02  0.41498785233E+00 -0.43482142266E+02  0.47934567403E+02  0.00000000000E+00 0. -1.
<mgrwt>
<rscale>  2 0.20174887E+02</rscale>
<asrwt>0</asrwt>
<pdfrwt beam="1">  1       21 0.80115166E-03 0.20174887E+02</pdfrwt>
<pdfrwt beam="2">  1       21 0.12283116E-01 0.20174887E+02</pdfrwt>
<totfact> 0.18962744E+08</totfact>
</mgrwt>
</event>
<event>
 4    1  0.7151341E+004  0.2317635E+02  0.7546771E-02  0.1688667E+00
         21   -1    0    0  501  502  0.00000000000E+00  0.00000000000E+00  0.71470616948E+01  0.71470616948E+01  0.00000000000E+00 0.  1.
         21   -1    0    0  502  503 -0.00000000000E+00 -0.00000000000E+00 -0.75356708300E+02  0.75356708300E+02  0.00000000000E+00 0.  1.
          5    1    1    2  501    0  0.22358044768E+02 -0.61041911538E+01 -0.36234703287E+02  0.43012754362E+02  0.00000000000E+00 0.  1.
         -5    1    1    2    0  503 -0.22358044768E+02  0.61041911538E+01 -0.31974943318E+02  0.39491015633E+02  0.00000000000E+00 0. -1.
<mgrwt>
<rscale>  2 0.23176353E+02</rscale>
<asrwt>0</asrwt>
<pdfrwt beam="1">  1       21 0.10995480E-02 0.23176353E+02</pdfrwt>
<pdfrwt beam="2">  1       21 0.11593340E-01 0.23176353E+02</pdfrwt>
<totfact> 0.13566116E+08</totfact>
</mgrwt>
</event>
<event>
 4    1  0.7151341E+004  0.2029518E+02  0.7546771E-02  0.1739521E+00
         21   -1    0    0  503  502  0.00000000000E+00  0.00000000000E+00  0.50938102742E+02  0.50938102742E+02  0.00000000000E+00 0. -1.
         21   -1    0    0  501  503 -0.00000000000E+00 -0.00000000000E+00 -0.11126091541E+02  0.11126091541E+02  0.00000000000E+00 0. -1.
          3    1    1    2  501    0  0.20284343769E+02 -0.66305825957E+00  0.36852577732E+01  0.20627054401E+02  0.00000000000E+00 0.  1.
         -3    1    1    2    0  502 -0.20284343769E+02  0.66305825957E+00  0.36126753428E+02  0.41437139883E+02  0.00000000000E+00 0. -1.
<mgrwt>
<rscale>  2 0.20295178E+02</rscale>
<asrwt>0</asrwt>
<pdfrwt beam="1">  1       21 0.78366311E-02 0.20295178E+02</pdfrwt>
<pdfrwt beam="2">  1       21 0.17117064E-02 0.20295178E+02</pdfrwt>
<totfact> 0.12714674E+08</totfact>
</mgrwt>
</event>
<event>
 4    1  0.7151341E+004  0.2352821E+02  0.7546771E-02  0.1683088E+00
         21   -1    0    0  503  502  0.00000000000E+00  0.00000000000E+00  0.96182575489E+02  0.96182575489E+02  0.00000000000E+00 0. -1.
         21   -1    0    0  501  503 -0.00000000000E+00 -0.00000000000E+00 -0.88345444000E+01  0.88345444000E+01  0.00000000000E+00 0. -1.
          5    1    1    2  501    0  0.20617830803E+02 -0.11334969687E+02  0.74673017534E+02  0.78291992135E+02  0.00000000000E+00 0. -1.
         -5    1    1    2    0  502 -0.20617830803E+02  0.11334969687E+02  0.12675013555E+02  0.26725127753E+02  0.00000000000E+00 0.  1.
<mgrwt>
<rscale>  2 0.23528206E+02</rscale>
<asrwt>0</asrwt>
<pdfrwt beam="1">  1       21 0.14797319E-01 0.23528206E+02</pdfrwt>
<pdfrwt beam="2">  1       21 0.13591607E-02 0.23528206E+02</pdfrwt>
<totfact> 0.65528800E+07</totfact>
</mgrwt>
</event>
<event>
 4    1  0.7151341E+004  0.2351211E+02  0.7546771E-02  0.1683341E+00
         21   -1    0    0  503  502  0.00000000000E+00  0.00000000000E+00  0.99783843100E+01  0.99783843100E+01  0.00000000000E+00 0. -1.
         21   -1    0    0  501  503 -0.00000000000E+00 -0.00000000000E+00 -0.57059735184E+02  0.57059735184E+02  0.00000000000E+00 0. -1.
          4    1    1    2  501    0  0.41099947681E+01 -0.23150098585E+02 -0.17826833957E+02  0.29506188002E+02  0.00000000000E+00 0. -1.
         -4    1    1    2    0  502 -0.41099947681E+01  0.23150098585E+02 -0.29254516917E+02  0.37531931492E+02  0.00000000000E+00 0.  1.
<mgrwt>
<rscale>  2 0.23512106E+02</rscale>
<asrwt>0</asrwt>
<pdfrwt beam="1">  1       21 0.15351361E-02 0.23512106E+02</pdfrwt>
<pdfrwt beam="2">  1       21 0.87784207E-02 0.23512106E+02</pdfrwt>
<totfact> 0.13028637E+08</totfact>
</mgrwt>
</event>
<event>
 4    1  0.7151341E+004  0.3846289E+02  0.7546771E-02  0.1519837E+00
         21   -1    0    0  503  502  0.00000000000E+00  0.00000000000E+00  0.11362440338E+02  0.11362440338E+02  0.00000000000E+00 0. -1.
         21   -1    0    0  501  503 -0.00000000000E+00 -0.00000000000E+00 -0.13736586850E+03  0.13736586850E+03  0.00000000000E+00 0. -1.
          5    1    1    2  501    0  0.14623216205E+02  0.35574646700E+02 -0.79986005002E+02  0.88753337606E+02  0.00000000000E+00 0.  1.
         -5    1    1    2    0  502 -0.14623216205E+02 -0.35574646700E+02 -0.46017423162E+02  0.59974971234E+02  0.00000000000E+00 0. -1.
<mgrwt>
<rscale>  2 0.38462890E+02</rscale>
<asrwt>0</asrwt>
<pdfrwt beam="1">  1       21 0.17480676E-02 0.38462890E+02</pdfrwt>
<pdfrwt beam="2">  1       21 0.21133212E-01 0.38462890E+02</pdfrwt>
<totfact> 0.26522491E+07</totfact>
</mgrwt>
</event>
<event>
 4    1  0.7151341E+004  0.2053570E+02  0.7546771E-02  0.1734880E+00
         21   -1    0    0  501  502  0.00000000000E+00  0.00000000000E+00  0.16993349185E+01  0.16993349185E+01  0.00000000000E+00 0. -1.
         21   -1    0    0  502  503 -0.00000000000E+00 -0.00000000000E+00 -0.25239336423E+03  0.25239336423E+03  0.00000000000E+00 0. -1.
          3    1    1    2  501    0  0.16004080535E+02 -0.12867964314E+02 -0.10890253947E+03  0.11082183089E+03  0.00000000000E+00 0. -1.
         -3    1    1    2    0  503 -0.16004080535E+02  0.12867964314E+02 -0.14179148985E+03  0.14327086826E+03  0.00000000000E+00 0.  1.
<mgrwt>
<rscale>  2 0.20535703E+02</rscale>
<asrwt>0</asrwt>
<pdfrwt beam="1">  1       21 0.26143626E-03 0.20535703E+02</pdfrwt>
<pdfrwt beam="2">  1       21 0.38829731E-01 0.20535703E+02</pdfrwt>
<totfact> 0.13046354E+08</totfact>
</mgrwt>
</event>
<event>
 4    1  0.7151341E+004  0.2033790E+02  0.7546771E-02  0.1738691E+00
         21   -1    0    0  501  502  0.00000000000E+00  0.00000000000E+00  0.10771199730E+01  0.10771199730E+01  0.00000000000E+00 0. -1.
         21   -1    0    0  502  503 -0.00000000000E+00 -0.00000000000E+00 -0.38800674599E+03  0.38800674599E+03  0.00000000000E+00 0. -1.
          2    1    1    2  501    0  0.19939343541E+02  0.40065778487E+01 -0.21319731179E+03  0.21416517887E+03  0.00000000000E+00 0. -1.
         -2    1    1    2    0  503 -0.19939343541E+02 -0.40065778487E+01 -0.17373231423E+03  0.17491868709E+03  0.00000000000E+00 0.  1.
<mgrwt>
<rscale>  2 0.20337898E+02</rscale>
<asrwt>0</asrwt>
<pdfrwt beam="1">  1       21 0.16571084E-03 0.20337898E+02</pdfrwt>
<pdfrwt beam="2">  1       21 0.59693319E-01 0.20337898E+02</pdfrwt>
<totfact> 0.10963288E+08</totfact>
</mgrwt>
</event>
<event>
 4    1  0.7151341E+004  0.2317482E+02  0.7546771E-02  0.1688692E+00
         21   -1    0    0  501  502  0.00000000000E+00  0.00000000000E+00  0.89721039934E+00  0.89721039934E+00  0.00000000000E+00 0. -1.
         21   -1    0    0  502  503 -0.00000000000E+00 -0.00000000000E+00 -0.61255739309E+03  0.61255739309E+03  0.00000000000E+00 0. -1.
          5    1    1    2  501    0  0.22535842064E+02 -0.54044677950E+01 -0.35212585257E+03  0.35288764288E+03  0.00000000000E+00 0. -1.
         -5    1    1    2    0  503 -0.22535842064E+02  0.54044677950E+01 -0.25953433013E+03  0.26056696061E+03  0.00000000000E+00 0.  1.
<mgrwt>
<rscale>  2 0.23174824E+02</rscale>
<asrwt>0</asrwt>
<pdfrwt beam="1">  1       21 0.13803239E-03 0.23174824E+02</pdfrwt>
<pdfrwt beam="2">  1       21 0.94239581E-01 0.23174824E+02</pdfrwt>
<totfact> 0.57166574E+07</totfact>
</mgrwt>
</event>
<event>
 4    1  0.7151341E+004  0.2989547E+02  0.7546771E-02  0.1599247E+00
         21   -1    0    0  501  502  0.00000000000E+00  0.00000000000E+00  0.38529701240E+02  0.38529701240E+02  0.00000000000E+00 0.  1.
         21   -1    0    0  502  503 -0.00000000000E+00 -0.00000000000E+00 -0.28051408655E+02  0.28051408655E+02  0.00000000000E+00 0.  1.
          5    1    1    2  501    0 -0.19499179561E+02  0.22661004727E+02  0.19089208664E+02  0.35470227321E+02  0.00000000000E+00 0. -1.
         -5    1    1    2    0  503  0.19499179561E+02 -0.22661004727E+02 -0.86109160791E+01  0.31110882574E+02  0.00000000000E+00 0.  1.
<mgrwt>
<rscale>  2 0.29895470E+02</rscale>
<asrwt>0</asrwt>
<pdfrwt beam="1">  1       21 0.59276463E-02 0.29895470E+02</pdfrwt>
<pdfrwt beam="2">  1       21 0.43156013E-02 0.29895470E+02</pdfrwt>
<totfact> 0.52587216E+07</totfact>
</mgrwt>
</event>
<event>
 4    1  0.7151341E+004  0.2160417E+02  0.7546771E-02  0.1715189E+00
         21   -1    0    0  503  502  0.00000000000E+00  0.00000000000E+00  0.22369585440E+02  0.22369585440E+02  0.00000000000E+00 0. -1.
         21   -1    0    0  501  503 -0.00000000000E+00 -0.00000000000E+00 -0.22329350962E+02  0.22329350962E+02  0.00000000000E+00 0. -1.
          5    1    1    2  501    0 -0.92489110321E+01 -0.19524292473E+02  0.57435776295E+01  0.22354620011E+02  0.00000000000E+00 0.  1.
         -5    1    1    2    0  502  0.92489110321E+01  0.19524292473E+02 -0.57033431512E+01  0.22344316391E+02  0.00000000000E+00 0. -1.
<mgrwt>
<rscale>  2 0.21604174E+02</rscale>
<asrwt>0</asrwt>
<pdfrwt beam="1">  1       21 0.34414747E-02 0.21604174E+02</pdfrwt>
<pdfrwt beam="2">  1       21 0.34352848E-02 0.21604174E+02</pdfrwt>
<totfact> 0.16406209E+08</totfact>
</mgrwt>
</event>
<event>
 4    1  0.7151341E+004  0.2791527E+02  0.7546771E-02  0.1622346E+00
         21   -1    0    0  501  502  0.00000000000E+00  0.00000000000E+00  0.25365418985E+03  0.25365418985E+03  0.00000000000E+00 0.  1.
         21   -1    0    0  502  503 -0.00000000000E+00 -0.00000000000E+00 -0.30929197226E+01  0.30929197226E+01  0.00000000000E+00 0.  1.
          4    1    1    2  501    0 -0.18080713616E+02  0.21268520176E+02  0.11475929525E+03  0.11810570689E+03  0.00000000000E+00 0. -1.
         -4    1    1    2    0  503  0.18080713616E+02 -0.21268520176E+02  0.13580197488E+03  0.13864140268E+03  0.00000000000E+00 0.  1.
<mgrwt>
<rscale>  2 0.27915267E+02</rscale>
<asrwt>0</asrwt>
<pdfrwt beam="1">  1       21 0.39023705E-01 0.27915267E+02</pdfrwt>
<pdfrwt beam="2">  1       21 0.47583400E-03 0.27915267E+02</pdfrwt>
<totfact> 0.58096341E+07</totfact>
</mgrwt>
</event>
<event>
 4    1  0.7151341E+004  0.2279939E+02  0.7546771E-02  0.1694783E+00
         21   -1    0    0  501  502  0.00000000000E+00  0.00000000000E+00  0.37787506228E+02  0.37787506228E+02  0.00000000000E+00 0.  1.
         21   -1    0    0  502  503 -0.00000000000E+00 -0.00000000000E+00 -0.14628980769E+02  0.14628980769E+02  0.00000000000E+00 0.  1.
          2    1    1    2  501    0  0.91725191264E+00 -0.22780926837E+02  0.51776875134E+01  0.23379915026E+02  0.00000000000E+00 0.  1.
         -2    1    1    2    0  503 -0.91725191264E+00  0.22780926837E+02  0.17980837946E+02  0.29036571972E+02  0.00000000000E+00 0. -1.
<mgrwt>
<rscale>  2 0.22799385E+02</rscale>
<asrwt>0</asrwt>
<pdfrwt beam="1">  1       21 0.58134625E-02 0.22799385E+02</pdfrwt>
<pdfrwt beam="2">  1       21 0.22506124E-02 0.22799385E+02</pdfrwt>
<totfact> 0.14022746E+08</totfact>
</mgrwt>
</event>
<event>
 4    1  0.7151341E+004  0.2746317E+02  0.7546771E-02  0.1627951E+00
         21   -1    0    0  503  502  0.00000000000E+00  0.00000000000E+00  0.34695928230E+01  0.34695928230E+01  0.00000000000E+00 0.  1.
         21   -1    0    0  501  503 -0.00000000000E+00 -0.00000000000E+00 -0.21759798908E+03  0.21759798908E+03  0.00000000000E+00 0.  1.
          4    1    1    2  501    0  0.22960246406E+00  0.27462213675E+02 -0.10357913487E+03  0.10715812185E+03  0.00000000000E+00 0.  1.
         -4    1    1    2    0  502 -0.22960246406E+00 -0.27462213675E+02 -0.11054926138E+03  0.11390946005E+03  0.00000000000E+00 0. -1.
<mgrwt>
<rscale>  2 0.27463173E+02</rscale>
<asrwt>0</asrwt>
<pdfrwt beam="1">  1       21 0.53378336E-03 0.27463173E+02</pdfrwt>
<pdfrwt beam="2">  1       21 0.33476623E-01 0.27463173E+02</pdfrwt>
<totfact> 0.65054286E+07</totfact>
</mgrwt>
</event>
<event>
 4    1  0.7151341E+004  0.3363302E+02  0.7546771E-02  0.1561086E+00
         21   -1    0    0  501  502  0.00000000000E+00  0.00000000000E+00  0.86457229750E+02  0.86457229750E+02  0.00000000000E+00 0. -1.
         21   -1    0    0  502  503 -0.00000000000E+00 -0.00000000000E+00 -0.13134360459E+02  0.13134360459E+02  0.00000000000E+00 0. -1.
          2    1    1    2  501    0  0.32363187003E+02 -0.91544492486E+01  0.39754254549E+02  0.52072839070E+02  0.00000000000E+00 0. -1.
         -2    1    1    2    0  503 -0.32363187003E+02  0.91544492486E+01  0.33568614742E+02  0.47518751139E+02  0.00000000000E+00 0.  1.
<mgrwt>
<rscale>  2 0.33633017E+02</rscale>
<asrwt>0</asrwt>
<pdfrwt beam="1">  1       21 0.13301112E-01 0.33633017E+02</pdfrwt>
<pdfrwt beam="2">  1       21 0.20206709E-02 0.33633017E+02</pdfrwt>
<totfact> 0.46423588E+07</totfact>
</mgrwt>
</event>
<event>
 4    1  0.7151341E+004  0.2454815E+02  0.7546771E-02  0.1667578E+00
         21   -1    0    0  501  502  0.00000000000E+00  0.00000000000E+00  0.37130519682E+01  0.37130519682E+01  0.00000000000E+00 0.  1.
         21   -1    0    0  502  503 -0.00000000000E+00 -0.00000000000E+00 -0.17195520275E+03  0.17195520275E+03  0.00000000000E+00 0.  1.
          3    1    1    2  501    0  0.24382000046E+02  0.28512491523E+01 -0.63303124371E+02  0.67896223040E+02  0.00000000000E+00 0. -1.
         -3    1    1    2    0  503 -0.24382000046E+02 -0.28512491523E+01 -0.10493902641E+03  0.10777203168E+03  0.00000000000E+00 0.  1.
<mgrwt>
<rscale>  2 0.24548148E+02</rscale>
<asrwt>0</asrwt>
<pdfrwt beam="1">  1       21 0.57123883E-03 0.24548148E+02</pdfrwt>
<pdfrwt beam="2">  1       21 0.26454643E-01 0.24548148E+02</pdfrwt>
<totfact> 0.88041095E+07</totfact>
</mgrwt>
</event>
<event>
 4    1  0.7151341E+004  0.5515692E+02  0.7546771E-02  0.1419358E+00
         21   -1    0    0  501  502  0.00000000000E+00  0.00000000000E+00  0.36749821151E+01  0.36749821151E+01  0.00000000000E+00 0. -1.
         21   -1    0    0  502  503 -0.00000000000E+00 -0.00000000000E+00 -0.86200567873E+03  0.86200567873E+03  0.00000000000E+00 0. -1.
          5    1    1    2  501    0  0.17562129669E+02 -0.52286299612E+02 -0.34298904464E+03  0.34739569696E+03  0.00000000000E+00 0.  1.
         -5    1    1    2    0  503 -0.17562129669E+02  0.52286299612E+02 -0.51534165198E+03  0.51828496389E+03  0.00000000000E+00 0. -1.
<mgrwt>
<rscale>  2 0.55156917E+02</rscale>
<asrwt>0</asrwt>
<pdfrwt beam="1">  1       21 0.56538120E-03 0.55156917E+02</pdfrwt>
<pdfrwt beam="2">  1       21 0.13261641E+00 0.55156917E+02</pdfrwt>
<totfact> 0.36716528E+06</totfact>
</mgrwt>
</event>
<event>
 4    1  0.7151341E+004  0.2304743E+02  0.7546771E-02  0.1690742E+00
         21   -1    0    0  503  502  0.00000000000E+00  0.00000000000E+00  0.44907350871E+01  0.44907350871E+01  0.00000000000E+00 0. -1.
         21   -1    0    0  501  503 -0.00000000000E+00 -0.00000000000E+00 -0.16145750952E+03  0.16145750952E+03  0.00000000000E+00 0. -1.
          1    1    1    2  501    0  0.70652800838E+01  0.21937771444E+02 -0.12138959217E+03  0.12355815265E+03  0.00000000000E+00 0. -1.
         -1    1    1    2    0  502 -0.70652800838E+01 -0.21937771444E+02 -0.35577182266E+02  0.42390091962E+02  0.00000000000E+00 0.  1.
<mgrwt>
<rscale>  2 0.23047429E+02</rscale>
<asrwt>0</asrwt>
<pdfrwt beam="1">  1       21 0.69088250E-03 0.23047429E+02</pdfrwt>
<pdfrwt beam="2">  1       21 0.24839611E-01 0.23047429E+02</pdfrwt>
<totfact> 0.73089532E+07</totfact>
</mgrwt>
</event>
<event>
 4    1  0.7151341E+004  0.2339945E+02  0.7546771E-02  0.1685116E+00
         21   -1    0    0  503  502  0.00000000000E+00  0.00000000000E+00  0.23886991944E+03  0.23886991944E+03  0.00000000000E+00 0. -1.
         21   -1    0    0  501  503 -0.00000000000E+00 -0.00000000000E+00 -0.25898674583E+01  0.25898674583E+01  0.00000000000E+00 0. -1.
          2    1    1    2  501    0  0.77163059700E+01  0.22090556312E+02  0.77208999137E+02  0.80676908740E+02  0.00000000000E+00 0.  1.
         -2    1    1    2    0  502 -0.77163059700E+01 -0.22090556312E+02  0.15907105284E+03  0.16078287816E+03  0.00000000000E+00 0. -1.
<mgrwt>
<rscale>  2 0.23399446E+02</rscale>
<asrwt>0</asrwt>
<pdfrwt beam="1">  1       21 0.36749201E-01 0.23399446E+02</pdfrwt>
<pdfrwt beam="2">  1       21 0.39844134E-03 0.23399446E+02</pdfrwt>
<totfact> 0.81053498E+07</totfact>
</mgrwt>
</event>
<event>
 4    1  0.7151341E+004  0.2050578E+02  0.7546771E-02  0.1735453E+00
         21   -1    0    0  501  502  0.00000000000E+00  0.00000000000E+00  0.21580017789E+04  0.21580017789E+04  0.00000000000E+00 0. -1.
         21   -1    0    0  502  503 -0.00000000000E+00 -0.00000000000E+00 -0.21079288990E+00  0.21079288990E+00  0.00000000000E+00 0. -1.
          5    1    1    2  501    0 -0.18986315405E+02 -0.77463957518E+01  0.13756645889E+04  0.13758174108E+04  0.00000000000E+00 0. -1.
         -5    1    1    2    0  503  0.18986315405E+02  0.77463957518E+01  0.78212639708E+03  0.78239516092E+03  0.00000000000E+00 0.  1.
<mgrwt>
<rscale>  2 0.20505775E+02</rscale>
<asrwt>0</asrwt>
<pdfrwt beam="1">  1       21 0.33198258E+00 0.20505775E+02</pdfrwt>
<pdfrwt beam="2">  1       21 0.32431404E-04 0.20505775E+02</pdfrwt>
<totfact> 0.16613163E+07</totfact>
</mgrwt>
</event>
<event>
 4    1  0.7151341E+004  0.2095011E+02  0.7546771E-02  0.1727068E+00
         21   -1    0    0  501  502  0.00000000000E+00  0.00000000000E+00  0.10779226806E+04  0.10779226806E+04  0.00000000000E+00 0.  1.
         21   -1    0    0  502  503 -0.00000000000E+00 -0.00000000000E+00 -0.43495770188E+00  0.43495770188E+00  0.00000000000E+00 0.  1.
          5    1    1    2  501    0 -0.15661496376E+02  0.13914901235E+02  0.40248361912E+03  0.40302849851E+03  0.00000000000E+00 0. -1.
         -5    1    1    2    0  503  0.15661496376E+02 -0.13914901235E+02  0.67500410378E+03  0.67532913980E+03  0.00000000000E+00 0.  1.
<mgrwt>
<rscale>  2 0.20950106E+02</rscale>
<asrwt>0</asrwt>
<pdfrwt beam="1">  1       21 0.16583212E+00 0.20950106E+02</pdfrwt>
<pdfrwt beam="2">  1       21 0.66917432E-04 0.20950106E+02</pdfrwt>
<totfact> 0.43123030E+07</totfact>
</mgrwt>
</event>
<event>
 4    1  0.7151341E+004  0.2131756E+02  0.7546771E-02  0.1720329E+00
         21   -1    0    0  503  502  0.00000000000E+00  0.00000000000E+00  0.12141838633E+04  0.12141838633E+04  0.00000000000E+00 0. -1.
         21   -1    0    0  501  503 -0.00000000000E+00 -0.00000000000E+00 -0.41671047867E+00  0.41671047867E+00  0.00000000000E+00 0. -1.
          1    1    1    2  501    0  0.94069040069E+00  0.21296795167E+02  0.41308435882E+03  0.41363404826E+03  0.00000000000E+00 0. -1.
         -1    1    1    2    0  502 -0.94069040069E+00 -0.21296795167E+02  0.80068279396E+03  0.80096652547E+03  0.00000000000E+00 0.  1.
<mgrwt>
<rscale>  2 0.21317560E+02</rscale>
<asrwt>0</asrwt>
<pdfrwt beam="1">  1       21 0.18679469E+00 0.21317560E+02</pdfrwt>
<pdfrwt beam="2">  1       21 0.64110276E-04 0.21317560E+02</pdfrwt>
<totfact> 0.34302436E+07</totfact>
</mgrwt>
</event>
<event>
 4    1  0.7151341E+004  0.2027777E+02  0.7546771E-02  0.1739860E+00
         21   -1    0    0  501  502  0.00000000000E+00  0.00000000000E+00  0.12934122868E+02  0.12934122868E+02  0.00000000000E+00 0. -1.
         21   -1    0    0  502  503 -0.00000000000E+00 -0.00000000000E+00 -0.35835534251E+02  0.35835534251E+02  0.00000000000E+00 0. -1.
          5    1    1    2  501    0 -0.13021634922E+02 -0.15544286159E+02 -0.19642909074E+02  0.28231749594E+02  0.00000000000E+00 0.  1.
         -5    1    1    2    0  503  0.13021634922E+02  0.15544286159E+02 -0.32585023089E+01  0.20537907526E+02  0.00000000000E+00 0. -1.
<mgrwt>
<rscale>  2 0.20277766E+02</rscale>
<asrwt>0</asrwt>
<pdfrwt beam="1">  1       21 0.19898651E-02 0.20277766E+02</pdfrwt>
<pdfrwt beam="2">  1       21 0.55131590E-02 0.20277766E+02</pdfrwt>
<totfact> 0.17776926E+08</totfact>
</mgrwt>
</event>
<event>
 4    1  0.7151341E+004  0.2291790E+02  0.7546771E-02  0.1692844E+00
         21   -1    0    0  501  502  0.00000000000E+00  0.00000000000E+00  0.15922716945E+03  0.15922716945E+03  0.00000000000E+00 0.  1.
         21   -1    0    0  502  503 -0.00000000000E+00 -0.00000000000E+00 -0.33426749946E+01  0.33426749946E+01  0.00000000000E+00 0.  1.
          5    1    1    2  501    0  0.39857632644E+01  0.22568647407E+02  0.87273789091E+02  0.90232723648E+02  0.00000000000E+00 0. -1.
         -5    1    1    2    0  503 -0.39857632644E+01 -0.22568647407E+02  0.68610705368E+02  0.72337120801E+02  0.00000000000E+00 0.  1.
<mgrwt>
<rscale>  2 0.22917900E+02</rscale>
<asrwt>0</asrwt>
<pdfrwt beam="1">  1       21 0.24496482E-01 0.22917900E+02</pdfrwt>
<pdfrwt beam="2">  1       21 0.51425782E-03 0.22917900E+02</pdfrwt>
<totfact> 0.11584917E+08</totfact>
</mgrwt>
</event>
<event>
 4    1  0.7151341E+004  0.2734746E+02  0.7546771E-02  0.1629407E+00
         21   -1    0    0  501  502  0.00000000000E+00  0.00000000000E+00  0.15081437582E+02  0.15081437582E+02  0.00000000000E+00 0.  1.
         21   -1    0    0  502  503 -0.00000000000E+00 -0.00000000000E+00 -0.50811302390E+02  0.50811302390E+02  0.00000000000E+00 0.  1.
          1    1    1    2  501    0 -0.26701763983E+02 -0.59075646287E+01 -0.12756383009E+02  0.30176295782E+02  0.00000000000E+00 0.  1.
         -1    1    1    2    0  503  0.26701763983E+02  0.59075646287E+01 -0.22973481799E+02  0.35716444190E+02  0.00000000000E+00 0. -1.
<mgrwt>
<rscale>  2 0.27347459E+02</rscale>
<asrwt>0</asrwt>
<pdfrwt beam="1">  1       21 0.23202212E-02 0.27347459E+02</pdfrwt>
<pdfrwt beam="2">  1       21 0.78171232E-02 0.27347459E+02</pdfrwt>
<totfact> 0.87018662E+07</totfact>
</mgrwt>
</event>
<event>
 4    1  0.7151341E+004  0.2379484E+02  0.7546771E-02  0.1678941E+00
         21   -1    0    0  501  502  0.00000000000E+00  0.00000000000E+00  0.29940312962E+01  0.29940312962E+01  0.00000000000E+00 0. -1.
         21   -1    0    0  502  503 -0.00000000000E+00 -0.00000000000E+00 -0.19855560268E+03  0.19855560268E+03  0.00000000000E+00 0. -1.
          2    1    1    2  501    0 -0.23133929201E+02  0.55691822653E+01 -0.11976332654E+03  0.12210425404E+03  0.00000000000E+00 0.  1.
         -2    1    1    2    0  503  0.23133929201E+02 -0.55691822653E+01 -0.75798244842E+02  0.79445379932E+02  0.00000000000E+00 0. -1.
<mgrwt>
<rscale>  2 0.23794841E+02</rscale>
<asrwt>0</asrwt>
<pdfrwt beam="1">  1       21 0.46062037E-03 0.23794841E+02</pdfrwt>
<pdfrwt beam="2">  1       21 0.30547005E-01 0.23794841E+02</pdfrwt>
<totfact> 0.92500835E+07</totfact>
</mgrwt>
</event>
<event>
 4    1  0.7151341E+004  0.4493314E+02  0.7546771E-02  0.1474759E+00
         21   -1    0    0  501  502  0.00000000000E+00  0.00000000000E+00  0.97959901273E+02  0.97959901273E+02  0.00000000000E+00 0.  1.
         21   -1    0    0  502  503 -0.00000000000E+00 -0.00000000000E+00 -0.20615647395E+02  0.20615647395E+02  0.00000000000E+00 0.  1.
          3    1    1    2  501    0 -0.41058621198E+02  0.18253138535E+02  0.39622883628E+02  0.59907932264E+02  0.00000000000E+00 0.  1.
         -3    1    1    2    0  503  0.41058621198E+02 -0.18253138535E+02  0.37721370250E+02  0.58667616405E+02  0.00000000000E+00 0. -1.
<mgrwt>
<rscale>  2 0.44933144E+02</rscale>
<asrwt>0</asrwt>
<pdfrwt beam="1">  1       21 0.15070754E-01 0.44933144E+02</pdfrwt>
<pdfrwt beam="2">  1       21 0.31716381E-02 0.44933144E+02</pdfrwt>
<totfact> 0.19334921E+07</totfact>
</mgrwt>
</event>
<event>
 4    1  0.7151341E+004  0.2980568E+02  0.7546771E-02  0.1600247E+00
         21   -1    0    0  501  502  0.00000000000E+00  0.00000000000E+00  0.11958543677E+03  0.11958543677E+03  0.00000000000E+00 0.  1.
         21   -1    0    0  502  503 -0.00000000000E+00 -0.00000000000E+00 -0.90222931574E+01  0.90222931574E+01  0.00000000000E+00 0.  1.
          5    1    1    2  501    0  0.18132377905E+02 -0.23655773797E+02  0.28257493119E+02  0.41071458214E+02  0.00000000000E+00 0.  1.
         -5    1    1    2    0  503 -0.18132377905E+02  0.23655773797E+02  0.82305650492E+02  0.87536271712E+02  0.00000000000E+00 0. -1.
<mgrwt>
<rscale>  2 0.29805683E+02</rscale>
<asrwt>0</asrwt>
<pdfrwt beam="1">  1       21 0.18397758E-01 0.29805683E+02</pdfrwt>
<pdfrwt beam="2">  1       21 0.13880452E-02 0.29805683E+02</pdfrwt>
<totfact> 0.46090310E+07</totfact>
</mgrwt>
</event>
<event>
 4    1  0.7151341E+004  0.2578318E+02  0.7546771E-02  0.1650001E+00
         21   -1    0    0  503  502  0.00000000000E+00  0.00000000000E+00  0.11216591168E+02  0.11216591168E+02  0.00000000000E+00 0. -1.
         21   -1    0    0  501  503 -0.00000000000E+00 -0.00000000000E+00 -0.77103963650E+02  0.77103963650E+02  0.00000000000E+00 0. -1.
          2    1    1    2  501    0 -0.21150555823E+02  0.14745377189E+02 -0.54183738715E+02  0.60005413932E+02  0.00000000000E+00 0. -1.
         -2    1    1    2    0  502  0.21150555823E+02 -0.14745377189E+02 -0.11703633767E+02  0.28315140886E+02  0.00000000000E+00 0.  1.
<mgrwt>
<rscale>  2 0.25783176E+02</rscale>
<asrwt>0</asrwt>
<pdfrwt beam="1">  1       21 0.17256294E-02 0.25783176E+02</pdfrwt>
<pdfrwt beam="2">  1       21 0.11862148E-01 0.25783176E+02</pdfrwt>
<totfact> 0.67740600E+07</totfact>
</mgrwt>
</event>
<event>
 4    1  0.7151341E+004  0.2260761E+02  0.7546771E-02  0.1697951E+00
         21   -1    0    0  503  502  0.00000000000E+00  0.00000000000E+00  0.97770519309E+02  0.97770519309E+02  0.00000000000E+00 0.  1.
         21   -1    0    0  501  503 -0.00000000000E+00 -0.00000000000E+00 -0.52375408130E+01  0.52375408130E+01  0.00000000000E+00 0.  1.
          5    1    1    2  501    0  0.11886922404E+02 -0.19230313456E+02  0.48511796497E+02  0.53521007831E+02  0.00000000000E+00 0.  1.
         -5    1    1    2    0  502 -0.11886922404E+02  0.19230313456E+02  0.44021182000E+02  0.49487052292E+02  0.00000000000E+00 0. -1.
<mgrwt>
<rscale>  2 0.22607607E+02</rscale>
<asrwt>0</asrwt>
<pdfrwt beam="1">  1       21 0.15041617E-01 0.22607607E+02</pdfrwt>
<pdfrwt beam="2">  1       21 0.80577558E-03 0.22607607E+02</pdfrwt>
<totfact> 0.13836249E+08</totfact>
</mgrwt>
</event>
<event>
 4    1  0.7151341E+004  0.2266976E+02  0.7546771E-02  0.1696920E+00
         21   -1    0    0  501  502  0.00000000000E+00  0.00000000000E+00  0.14249532171E+02  0.14249532171E+02  0.00000000000E+00 0. -1.
         21   -1    0    0  502  503 -0.00000000000E+00 -0.00000000000E+00 -0.42698385005E+02  0.42698385005E+02  0.00000000000E+00 0. -1.
          2    1    1    2  501    0 -0.13782969418E+02  0.17998543804E+02 -0.25446944661E+02  0.34080270211E+02  0.00000000000E+00 0.  1.
         -2    1    1    2    0  503  0.13782969418E+02 -0.17998543804E+02 -0.30019081735E+01  0.22867646965E+02  0.00000000000E+00 0. -1.
<mgrwt>
<rscale>  2 0.22669756E+02</rscale>
<asrwt>0</asrwt>
<pdfrwt beam="1">  1       21 0.21922357E-02 0.22669756E+02</pdfrwt>
<pdfrwt beam="2">  1       21 0.65689822E-02 0.22669756E+02</pdfrwt>
<totfact> 0.11976655E+08</totfact>
</mgrwt>
</event>
<event>
 4    1  0.7151341E+004  0.5865361E+02  0.7546771E-02  0.1403570E+00
         21   -1    0    0  501  502  0.00000000000E+00  0.00000000000E+00  0.76703278261E+02  0.76703278261E+02  0.00000000000E+00 0. -1.
         21   -1    0    0  502  503 -0.00000000000E+00 -0.00000000000E+00 -0.49320061247E+02  0.49320061247E+02  0.00000000000E+00 0. -1.
          5    1    1    2  501    0  0.41897333146E+02  0.41047035969E+02 -0.52754621973E+01  0.58890374324E+02  0.00000000000E+00 0. -1.
         -5    1    1    2    0  503 -0.41897333146E+02 -0.41047035969E+02  0.32658679212E+02  0.67132965184E+02  0.00000000000E+00 0.  1.
<mgrwt>
<rscale>  2 0.58653608E+02</rscale>
<asrwt>0</asrwt>
<pdfrwt beam="1">  1       21 0.11800504E-01 0.58653608E+02</pdfrwt>
<pdfrwt beam="2">  1       21 0.75877017E-02 0.58653608E+02</pdfrwt>
<totfact> 0.73299784E+06</totfact>
</mgrwt>
</event>
<event>
 4    1  0.7151341E+004  0.4167882E+02  0.7546771E-02  0.1496208E+00
         21   -1    0    0  501  502  0.00000000000E+00  0.00000000000E+00  0.54569001692E+01  0.54569001692E+01  0.00000000000E+00 0.  1.
         21   -1    0    0  502  503 -0.00000000000E+00 -0.00000000000E+00 -0.52384681625E+03  0.52384681625E+03  0.00000000000E+00 0.  1.
          2    1    1    2  501    0  0.31940364746E+02  0.26775677217E+02 -0.42495922076E+03  0.42699820035E+03  0.00000000000E+00 0.  1.
         -2    1    1    2    0  503 -0.31940364746E+02 -0.26775677217E+02 -0.93430695313E+02  0.10230551606E+03  0.00000000000E+00 0. -1.
<mgrwt>
<rscale>  2 0.41678817E+02</rscale>
<asrwt>0</asrwt>
<pdfrwt beam="1">  1       21 0.83952292E-03 0.41678817E+02</pdfrwt>
<pdfrwt beam="2">  1       21 0.80591836E-01 0.41678817E+02</pdfrwt>
<totfact> 0.61184444E+06</totfact>
</mgrwt>
</event>
<event>
 4    1  0.7151341E+004  0.2395168E+02  0.7546771E-02  0.1676532E+00
         21   -1    0    0  501  502  0.00000000000E+00  0.00000000000E+00  0.59161988897E+02  0.59161988897E+02  0.00000000000E+00 0. -1.
         21   -1    0    0  502  503 -0.00000000000E+00 -0.00000000000E+00 -0.10561053959E+02  0.10561053959E+02  0.00000000000E+00 0. -1.
          3    1    1    2  501    0  0.20896258701E+02 -0.11705948664E+02  0.34273095577E+02  0.41813011638E+02  0.00000000000E+00 0. -1.
         -3    1    1    2    0  503 -0.20896258701E+02  0.11705948664E+02  0.14327839361E+02  0.27910031218E+02  0.00000000000E+00 0.  1.
<mgrwt>
<rscale>  2 0.23951678E+02</rscale>
<asrwt>0</asrwt>
<pdfrwt beam="1">  1       21 0.91018443E-02 0.23951678E+02</pdfrwt>
<pdfrwt beam="2">  1       21 0.16247776E-02 0.23951678E+02</pdfrwt>
<totfact> 0.11319557E+08</totfact>
</mgrwt>
</event>
<event>
 4    1  0.7151341E+004  0.3901194E+02  0.7546771E-02  0.1515611E+00
         21   -1    0    0  503  502  0.00000000000E+00  0.00000000000E+00  0.48525670730E+03  0.48525670730E+03  0.00000000000E+00 0. -1.
         21   -1    0    0  501  503 -0.00000000000E+00 -0.00000000000E+00 -0.31393411429E+01  0.31393411429E+01  0.00000000000E+00 0. -1.
          2    1    1    2  501    0  0.16092971802E+02 -0.35537972047E+02  0.24860596576E+03  0.25164828116E+03  0.00000000000E+00 0. -1.
         -2    1    1    2    0  502 -0.16092971802E+02  0.35537972047E+02  0.23351140039E+03  0.23674776728E+03  0.00000000000E+00 0.  1.
<mgrwt>
<rscale>  2 0.39011937E+02</rscale>
<asrwt>0</asrwt>
<pdfrwt beam="1">  1       21 0.74654819E-01 0.39011937E+02</pdfrwt>
<pdfrwt beam="2">  1       21 0.48297595E-03 0.39011937E+02</pdfrwt>
<totfact> 0.16477862E+07</totfact>
</mgrwt>
</event>
<event>
 4    1  0.7151341E+004  0.2033927E+02  0.7546771E-02  0.1738664E+00
         21   -1    0    0  503  502  0.00000000000E+00  0.00000000000E+00  0.47441457552E+02  0.47441457552E+02  0.00000000000E+00 0. -1.
         21   -1    0    0  501  503 -0.00000000000E+00 -0.00000000000E+00 -0.88176327409E+01  0.88176327409E+01  0.00000000000E+00 0. -1.
          2    1    1    2  501    0  0.64747300896E+01  0.19281174943E+02  0.22273036248E+02  0.30162459791E+02  0.00000000000E+00 0. -1.
         -2    1    1    2    0  502 -0.64747300896E+01 -0.19281174943E+02  0.16350788563E+02  0.26096630502E+02  0.00000000000E+00 0.  1.
<mgrwt>
<rscale>  2 0.20339268E+02</rscale>
<asrwt>0</asrwt>
<pdfrwt beam="1">  1       21 0.72986856E-02 0.20339268E+02</pdfrwt>
<pdfrwt beam="2">  1       21 0.13565589E-02 0.20339268E+02</pdfrwt>
<totfact> 0.20298045E+08</totfact>
</mgrwt>
</event>
<event>
 4    1  0.7151341E+004  0.1043256E+03  0.7546771E-02  0.1271454E+00
         21   -1    0    0  503  502  0.00000000000E+00  0.00000000000E+00  0.14226545934E+02  0.14226545934E+02  0.00000000000E+00 0. -1.
         21   -1    0    0  501  503 -0.00000000000E+00 -0.00000000000E+00 -0.92318308946E+03  0.92318308946E+03  0.00000000000E+00 0. -1.
          5    1    1    2  501    0 -0.49754343972E+02 -0.91697020511E+02 -0.64847049113E+03  0.65680881250E+03  0.00000000000E+00 0.  1.
         -5    1    1    2    0  502  0.49754343972E+02  0.91697020511E+02 -0.26048605239E+03  0.28060082289E+03  0.00000000000E+00 0. -1.
<mgrwt>
<rscale>  2 0.10432564E+03</rscale>
<asrwt>0</asrwt>
<pdfrwt beam="1">  1       21 0.21886992E-02 0.10432564E+03</pdfrwt>
<pdfrwt beam="2">  1       21 0.14202818E+00 0.10432564E+03</pdfrwt>
<totfact> 0.37604152E+05</totfact>
</mgrwt>
</event>
<event>
 4    1  0.7151341E+004  0.2083943E+02  0.7546771E-02  0.1729132E+00
         21   -1    0    0  501  502  0.00000000000E+00  0.00000000000E+00  0.53074090330E+01  0.53074090330E+01  0.00000000000E+00 0. -1.
         21   -1    0    0  502  503 -0.00000000000E+00 -0.00000000000E+00 -0.11247001362E+03  0.11247001362E+03  0.00000000000E+00 0. -1.
          1    1    1    2  501    0  0.66178278318E+00 -0.20828922787E+02 -0.22842335576E+02  0.30920127352E+02  0.00000000000E+00 0.  1.
         -1    1    1    2    0  503 -0.66178278318E+00  0.20828922787E+02 -0.84320269011E+02  0.86857295301E+02  0.00000000000E+00 0. -1.
<mgrwt>
<rscale>  2 0.20839433E+02</rscale>
<asrwt>0</asrwt>
<pdfrwt beam="1">  1       21 0.81652454E-03 0.20839433E+02</pdfrwt>
<pdfrwt beam="2">  1       21 0.17303078E-01 0.20839433E+02</pdfrwt>
<totfact> 0.10429816E+08</totfact>
</mgrwt>
</event>
<event>
 4    1  0.7151341E+004  0.2311252E+02  0.7546771E-02  0.1689693E+00
         21   -1    0    0  501  502  0.00000000000E+00  0.00000000000E+00  0.13828578183E+02  0.13828578183E+02  0.00000000000E+00 0.  1.
         21   -1    0    0  502  503 -0.00000000000E+00 -0.00000000000E+00 -0.42515786599E+02  0.42515786599E+02  0.00000000000E+00 0.  1.
          1    1    1    2  501    0 -0.18247170731E+02  0.14185536913E+02 -0.22861304312E+02  0.32508890046E+02  0.00000000000E+00 0.  1.
         -1    1    1    2    0  503  0.18247170731E+02 -0.14185536913E+02 -0.58259041042E+01  0.23835474735E+02  0.00000000000E+00 0. -1.
<mgrwt>
<rscale>  2 0.23112523E+02</rscale>
<asrwt>0</asrwt>
<pdfrwt beam="1">  1       21 0.21274736E-02 0.23112523E+02</pdfrwt>
<pdfrwt beam="2">  1       21 0.65408903E-02 0.23112523E+02</pdfrwt>
<totfact> 0.12701581E+08</totfact>
</mgrwt>
</event>
<event>
 4    1  0.7151341E+004  0.2061802E+02  0.7546771E-02  0.1733310E+00
         21   -1    0    0  501  502  0.00000000000E+00  0.00000000000E+00  0.83612893749E+02  0.83612893749E+02  0.00000000000E+00 0. -1.
         21   -1    0    0  502  503 -0.00000000000E+00 -0.00000000000E+00 -0.50939093324E+01  0.50939093324E+01  0.00000000000E+00 0. -1.
          5    1    1    2  501    0  0.14638740931E+02 -0.14519302271E+02  0.41198041834E+02  0.46069312188E+02  0.00000000000E+00 0.  1.
         -5    1    1    2    0  503 -0.14638740931E+02  0.14519302271E+02  0.37320942582E+02  0.42637490893E+02  0.00000000000E+00 0. -1.
<mgrwt>
<rscale>  2 0.20618023E+02</rscale>
<asrwt>0</asrwt>
<pdfrwt beam="1">  1       21 0.12863521E-01 0.20618023E+02</pdfrwt>
<pdfrwt beam="2">  1       21 0.78367842E-03 0.20618023E+02</pdfrwt>
<totfact> 0.18264277E+08</totfact>
</mgrwt>
</event>
<event>
 4    1  0.7151341E+004  0.3365010E+02  0.7546771E-02  0.1560925E+00
         21   -1    0    0  503  502  0.00000000000E+00  0.00000000000E+00  0.49739159590E+01  0.49739159590E+01  0.00000000000E+00 0. -1.
         21   -1    0    0  501  503 -0.00000000000E+00 -0.00000000000E+00 -0.25967568194E+03  0.25967568194E+03  0.00000000000E+00 0. -1.
          3    1    1    2  501    0 -0.28986452717E+02  0.17091358600E+02 -0.80883137308E+02  0.87603714994E+02  0.00000000000E+00 0.  1.
         -3    1    1    2    0  502  0.28986452717E+02 -0.17091358600E+02 -0.17381862867E+03  0.17704588290E+03  0.00000000000E+00 0. -1.
<mgrwt>
<rscale>  2 0.33650096E+02</rscale>
<asrwt>0</asrwt>
<pdfrwt beam="1">  1       21 0.76521772E-03 0.33650096E+02</pdfrwt>
<pdfrwt beam="2">  1       21 0.39950111E-01 0.33650096E+02</pdfrwt>
<totfact> 0.28319748E+07</totfact>
</mgrwt>
</event>
<event>
 4    1  0.7151341E+004  0.2117920E+02  0.7546771E-02  0.1722846E+00
         21   -1    0    0  503  502  0.00000000000E+00  0.00000000000E+00  0.11412421266E+03  0.11412421266E+03  0.00000000000E+00 0.  1.
         21   -1    0    0  501  503 -0.00000000000E+00 -0.00000000000E+00 -0.42515665997E+01  0.42515665997E+01  0.00000000000E+00 0.  1.
          3    1    1    2  501    0 -0.15764278662E+02 -0.14143769868E+02  0.71202837476E+02  0.74285952727E+02  0.00000000000E+00 0.  1.
         -3    1    1    2    0  502  0.15764278662E+02  0.14143769868E+02  0.38669808588E+02  0.44089826537E+02  0.00000000000E+00 0. -1.
<mgrwt>
<rscale>  2 0.21179205E+02</rscale>
<asrwt>0</asrwt>
<pdfrwt beam="1">  1       21 0.17557569E-01 0.21179205E+02</pdfrwt>
<pdfrwt beam="2">  1       21 0.65408726E-03 0.21179205E+02</pdfrwt>
<totfact> 0.14205116E+08</totfact>
</mgrwt>
</event>
<event>
 4    1  0.7151341E+004  0.2009758E+02  0.7546771E-02  0.1743395E+00
         21   -1    0    0  503  502  0.00000000000E+00  0.00000000000E+00  0.11918012193E+01  0.11918012193E+01  0.00000000000E+00 0. -1.
         21   -1    0    0  501  503 -0.00000000000E+00 -0.00000000000E+00 -0.34504246558E+03  0.34504246558E+03  0.00000000000E+00 0. -1.
          2    1    1    2  501    0 -0.23773681739E+01 -0.19956471178E+02 -0.14884494855E+03  0.15019564351E+03  0.00000000000E+00 0. -1.
         -2    1    1    2    0  502  0.23773681739E+01  0.19956471178E+02 -0.19500571581E+03  0.19603862328E+03  0.00000000000E+00 0.  1.
<mgrwt>
<rscale>  2 0.20097577E+02</rscale>
<asrwt>0</asrwt>
<pdfrwt beam="1">  1       21 0.18335391E-03 0.20097577E+02</pdfrwt>
<pdfrwt beam="2">  1       21 0.53083492E-01 0.20097577E+02</pdfrwt>
<totfact> 0.11907033E+08</totfact>
</mgrwt>
</event>
<event>
 4    1  0.7151341E+004  0.2484344E+02  0.7546771E-02  0.1663261E+00
         21   -1    0    0  501  502  0.00000000000E+00  0.00000000000E+00  0.58442854546E+02  0.58442854546E+02  0.00000000000E+00 0. -1.
         21   -1    0    0  502  503 -0.00000000000E+00 -0.00000000000E+00 -0.10630073712E+02  0.10630073712E+02  0.00000000000E+00 0. -1.
          3    1    1    2  501    0 -0.31767490647E+01  0.24639496421E+02  0.26696731550E+02  0.36467958456E+02  0.00000000000E+00 0.  1.
         -3    1    1    2    0  503  0.31767490647E+01 -0.24639496421E+02  0.21116049284E+02  0.32604969803E+02  0.00000000000E+00 0. -1.
<mgrwt>
<rscale>  2 0.24843440E+02</rscale>
<asrwt>0</asrwt>
<pdfrwt beam="1">  1       21 0.89912082E-02 0.24843440E+02</pdfrwt>
<pdfrwt beam="2">  1       21 0.16353960E-02 0.24843440E+02</pdfrwt>
<totfact> 0.11552943E+08</totfact>
</mgrwt>
</event>
<event>
 4    1  0.7151341E+004  0.2685390E+02  0.7546771E-02  0.1635718E+00
         21   -1    0    0  501  502  0.00000000000E+00  0.00000000000E+00  0.57104918132E+02  0.57104918132E+02  0.00000000000E+00 0.  1.
         21   -1    0    0  502  503 -0.00000000000E+00 -0.00000000000E+00 -0.17487621444E+02  0.17487621444E+02  0.00000000000E+00 0.  1.
          2    1    1    2  501    0 -0.25094796765E+02 -0.95594527571E+01  0.39469059451E+02  0.47738230127E+02  0.00000000000E+00 0. -1.
         -2    1    1    2    0  503  0.25094796765E+02  0.95594527571E+01  0.14823723660E+00  0.26854309449E+02  0.00000000000E+00 0.  1.
<mgrwt>
<rscale>  2 0.26853900E+02</rscale>
<asrwt>0</asrwt>
<pdfrwt beam="1">  1       21 0.87853719E-02 0.26853900E+02</pdfrwt>
<pdfrwt beam="2">  1       21 0.26904033E-02 0.26853900E+02</pdfrwt>
<totfact> 0.56776485E+07</totfact>
</mgrwt>
</event>
<event>
 4    1  0.7151341E+004  0.2653116E+02  0.7546771E-02  0.1639936E+00
         21   -1    0    0  503  502  0.00000000000E+00  0.00000000000E+00  0.70754284682E+02  0.70754284682E+02  0.00000000000E+00 0. -1.
         21   -1    0    0  501  503 -0.00000000000E+00 -0.00000000000E+00 -0.11711524843E+02  0.11711524843E+02  0.00000000000E+00 0. -1.
          4    1    1    2  501    0  0.96959023207E+01  0.24695992303E+02  0.45519178845E+02  0.52686793415E+02  0.00000000000E+00 0. -1.
         -4    1    1    2    0  502 -0.96959023207E+01 -0.24695992303E+02  0.13523580994E+02  0.29779016111E+02  0.00000000000E+00 0.  1.
<mgrwt>
<rscale>  2 0.26531162E+02</rscale>
<asrwt>0</asrwt>
<pdfrwt beam="1">  1       21 0.10885274E-01 0.26531162E+02</pdfrwt>
<pdfrwt beam="2">  1       21 0.18017731E-02 0.26531162E+02</pdfrwt>
<totfact> 0.73744459E+07</totfact>
</mgrwt>
</event>
<event>
 4    1  0.7151341E+004  0.2194732E+02  0.7546771E-02  0.1709165E+00
         21   -1    0    0  501  502  0.00000000000E+00  0.00000000000E+00  0.28113302062E+02  0.28113302062E+02  0.00000000000E+00 0. -1.
         21   -1    0    0  502  503 -0.00000000000E+00 -0.00000000000E+00 -0.17143313323E+02  0.17143313323E+02  0.00000000000E+00 0. -1.
          2    1    1    2  501    0 -0.21636754708E+02 -0.36790889947E+01  0.60208752863E+01  0.22758202683E+02  0.00000000000E+00 0.  1.
         -2    1    1    2    0  503  0.21636754708E+02  0.36790889947E+01  0.49491134521E+01  0.22498412702E+02  0.00000000000E+00 0. -1.
<mgrwt>
<rscale>  2 0.21947320E+02</rscale>
<asrwt>0</asrwt>
<pdfrwt beam="1">  1       21 0.43251234E-02 0.21947320E+02</pdfrwt>
<pdfrwt beam="2">  1       21 0.26374328E-02 0.21947320E+02</pdfrwt>
<totfact> 0.17366605E+08</totfact>
</mgrwt>
</event>
<event>
 4    1  0.7151341E+004  0.2267312E+02  0.7546771E-02  0.1696864E+00
         21   -1    0    0  503  502  0.00000000000E+00  0.00000000000E+00  0.49730135640E+02  0.49730135640E+02  0.00000000000E+00 0.  1.
         21   -1    0    0  501  503 -0.00000000000E+00 -0.00000000000E+00 -0.12696517065E+02  0.12696517065E+02  0.00000000000E+00 0.  1.
          1    1    1    2  501    0  0.12385521940E+02  0.18991289213E+02  0.50615781209E+01  0.23231224521E+02  0.00000000000E+00 0.  1.
         -1    1    1    2    0  502 -0.12385521940E+02 -0.18991289213E+02  0.31972040454E+02  0.39195428183E+02  0.00000000000E+00 0. -1.
<mgrwt>
<rscale>  2 0.22673117E+02</rscale>
<asrwt>0</asrwt>
<pdfrwt beam="1">  1       21 0.76507900E-02 0.22673117E+02</pdfrwt>
<pdfrwt beam="2">  1       21 0.19533103E-02 0.22673117E+02</pdfrwt>
<totfact> 0.11170220E+08</totfact>
</mgrwt>
</event>
<event>
 4    1  0.7151341E+004  0.2190992E+02  0.7546771E-02  0.1709815E+00
         21   -1    0    0  501  502  0.00000000000E+00  0.00000000000E+00  0.17960012861E+01  0.17960012861E+01  0.00000000000E+00 0.  1.
         21   -1    0    0  502  503 -0.00000000000E+00 -0.00000000000E+00 -0.30273867530E+03  0.30273867530E+03  0.00000000000E+00 0.  1.
          2    1    1    2  501    0  0.15965331403E+02  0.15005088671E+02 -0.98363571670E+02  0.10077418680E+03  0.00000000000E+00 0.  1.
         -2    1    1    2    0  503 -0.15965331403E+02 -0.15005088671E+02 -0.20257910235E+03  0.20376048979E+03  0.00000000000E+00 0. -1.
<mgrwt>
<rscale>  2 0.21909918E+02</rscale>
<asrwt>0</asrwt>
<pdfrwt beam="1">  1       21 0.27630773E-03 0.21909918E+02</pdfrwt>
<pdfrwt beam="2">  1       21 0.46575207E-01 0.21909918E+02</pdfrwt>
<totfact> 0.86848954E+07</totfact>
</mgrwt>
</event>
<event>
 4    1  0.7151341E+004  0.2292552E+02  0.7546771E-02  0.1692720E+00
         21   -1    0    0  503  502  0.00000000000E+00  0.00000000000E+00  0.48320862214E+02  0.48320862214E+02  0.00000000000E+00 0.  1.
         21   -1    0    0  501  503 -0.00000000000E+00 -0.00000000000E+00 -0.11642994608E+02  0.11642994608E+02  0.00000000000E+00 0.  1.
          4    1    1    2  501    0  0.49763667895E+01 -0.22378900727E+02  0.10648005668E+02  0.25277647218E+02  0.00000000000E+00 0.  1.
         -4    1    1    2    0  502 -0.49763667895E+01  0.22378900727E+02  0.26029861939E+02  0.34686209604E+02  0.00000000000E+00 0. -1.
<mgrwt>
<rscale>  2 0.22925519E+02</rscale>
<asrwt>0</asrwt>
<pdfrwt beam="1">  1       21 0.74339787E-02 0.22925519E+02</pdfrwt>
<pdfrwt beam="2">  1       21 0.17912300E-02 0.22925519E+02</pdfrwt>
<totfact> 0.13407480E+08</totfact>
</mgrwt>
</event>
<event>
 4    1  0.7151341E+004  0.3324281E+02  0.7546771E-02  0.1564782E+00
         21   -1    0    0  503  502  0.00000000000E+00  0.00000000000E+00  0.15012689866E+03  0.15012689866E+03  0.00000000000E+00 0. -1.
         21   -1    0    0  501  503 -0.00000000000E+00 -0.00000000000E+00 -0.81397060537E+01  0.81397060537E+01  0.00000000000E+00 0. -1.
          3    1    1    2  501    0  0.15119070133E+02  0.29605709447E+02  0.46517547538E+02  0.57174876847E+02  0.00000000000E+00 0.  1.
         -3    1    1    2    0  502 -0.15119070133E+02 -0.29605709447E+02  0.95469645066E+02  0.10109172786E+03  0.00000000000E+00 0. -1.
<mgrwt>
<rscale>  2 0.33242808E+02</rscale>
<asrwt>0</asrwt>
<pdfrwt beam="1">  1       21 0.23096444E-01 0.33242808E+02</pdfrwt>
<pdfrwt beam="2">  1       21 0.12522626E-02 0.33242808E+02</pdfrwt>
<totfact> 0.36852763E+07</totfact>
</mgrwt>
</event>
<event>
 4    1  0.7151341E+004  0.2339068E+02  0.7546771E-02  0.1685254E+00
         21   -1    0    0  501  502  0.00000000000E+00  0.00000000000E+00  0.48783823663E+01  0.48783823663E+01  0.00000000000E+00 0.  1.
         21   -1    0    0  502  503 -0.00000000000E+00 -0.00000000000E+00 -0.11239701029E+03  0.11239701029E+03  0.00000000000E+00 0.  1.
          3    1    1    2  501    0 -0.11306103315E+02 -0.20476721171E+02 -0.51025867224E+02  0.56131659588E+02  0.00000000000E+00 0. -1.
         -3    1    1    2    0  503  0.11306103315E+02  0.20476721171E+02 -0.56492760700E+02  0.61143733069E+02  0.00000000000E+00 0.  1.
<mgrwt>
<rscale>  2 0.23390684E+02</rscale>
<asrwt>0</asrwt>
<pdfrwt beam="1">  1       21 0.75052043E-03 0.23390684E+02</pdfrwt>
<pdfrwt beam="2">  1       21 0.17291846E-01 0.23390684E+02</pdfrwt>
<totfact> 0.12235518E+08</totfact>
</mgrwt>
</event>
<event>
 4    1  0.7151341E+004  0.2371180E+02  0.7546771E-02  0.1680225E+00
         21   -1    0    0  503  502  0.00000000000E+00  0.00000000000E+00  0.24241375020E+00  0.24241375020E+00  0.00000000000E+00 0.  1.
         21   -1    0    0  501  503 -0.00000000000E+00 -0.00000000000E+00 -0.23205230474E+04  0.23205230474E+04  0.00000000000E+00 0.  1.
          2    1    1    2  501    0  0.22977128103E+02  0.58567282551E+01 -0.11858904491E+04  0.11861274835E+04  0.00000000000E+00 0.  1.
         -2    1    1    2    0  502 -0.22977128103E+02 -0.58567282551E+01 -0.11343901845E+04  0.11346379777E+04  0.00000000000E+00 0. -1.
<mgrwt>
<rscale>  2 0.23711805E+02</rscale>
<asrwt>0</asrwt>
<pdfrwt beam="1">  1       21 0.37294648E-04 0.23711805E+02</pdfrwt>
<pdfrwt beam="2">  1       21 0.35700140E+00 0.23711805E+02</pdfrwt>
<totfact> 0.10275317E+07</totfact>
</mgrwt>
</event>
<event>
 4    1  0.7151341E+004  0.2142710E+02  0.7546771E-02  0.1718352E+00
         21   -1    0    0  503  502  0.00000000000E+00  0.00000000000E+00  0.61418434498E+00  0.61418434498E+00  0.00000000000E+00 0.  1.
         21   -1    0    0  501  503 -0.00000000000E+00 -0.00000000000E+00 -0.80272086438E+03  0.80272086438E+03  0.00000000000E+00 0.  1.
          4    1    1    2  501    0  0.18093325819E+02 -0.11478341641E+02 -0.29573088545E+03  0.29650611693E+03  0.00000000000E+00 0. -1.
         -4    1    1    2    0  502 -0.18093325819E+02  0.11478341641E+02 -0.50637579459E+03  0.50682893180E+03  0.00000000000E+00 0.  1.
<mgrwt>
<rscale>  2 0.21427104E+02</rscale>
<asrwt>0</asrwt>
<pdfrwt beam="1">  1       21 0.94490014E-04 0.21427104E+02</pdfrwt>
<pdfrwt beam="2">  1       21 0.12349537E+00 0.21427104E+02</pdfrwt>
<totfact> 0.52975179E+07</totfact>
</mgrwt>
</event>
<event>
 4    1  0.7151341E+004  0.2447460E+02  0.7546771E-02  0.1668665E+00
         21   -1    0    0  501  502  0.00000000000E+00  0.00000000000E+00  0.20156448824E+03  0.20156448824E+03  0.00000000000E+00 0. -1.
         21   -1    0    0  502  503 -0.00000000000E+00 -0.00000000000E+00 -0.34674281272E+01  0.34674281272E+01  0.00000000000E+00 0. -1.
          3    1    1    2  501    0 -0.13798155670E+02  0.20214276423E+02  0.13780755404E+03  0.13996402403E+03  0.00000000000E+00 0.  1.
         -3    1    1    2    0  503  0.13798155670E+02 -0.20214276423E+02  0.60289506073E+02  0.65067892341E+02  0.00000000000E+00 0. -1.
<mgrwt>
<rscale>  2 0.24474601E+02</rscale>
<asrwt>0</asrwt>
<pdfrwt beam="1">  1       21 0.31009912E-01 0.24474601E+02</pdfrwt>
<pdfrwt beam="2">  1       21 0.53345064E-03 0.24474601E+02</pdfrwt>
<totfact> 0.72979026E+07</totfact>
</mgrwt>
</event>
<event>
 4    1  0.7151341E+004  0.2014784E+02  0.7546771E-02  0.1742404E+00
         21   -1    0    0  503  502  0.00000000000E+00  0.00000000000E+00  0.87373555733E+01  0.87373555733E+01  0.00000000000E+00 0. -1.
         21   -1    0    0  501  503 -0.00000000000E+00 -0.00000000000E+00 -0.28157853744E+03  0.28157853744E+03  0.00000000000E+00 0. -1.
          3    1    1    2  501    0 -0.94026551354E+01 -0.17819250321E+02 -0.37774853180E+01  0.20498902433E+02  0.00000000000E+00 0.  1.
         -3    1    1    2    0  502  0.94026551354E+01  0.17819250321E+02 -0.26906369655E+03  0.26981699058E+03  0.00000000000E+00 0. -1.
<mgrwt>
<rscale>  2 0.20147844E+02</rscale>
<asrwt>0</asrwt>
<pdfrwt beam="1">  1       21 0.13442087E-02 0.20147844E+02</pdfrwt>
<pdfrwt beam="2">  1       21 0.43319772E-01 0.20147844E+02</pdfrwt>
<totfact> 0.94375259E+06</totfact>
</mgrwt>
</event>
<event>
 4    1  0.7151341E+004  0.2021152E+02  0.7546771E-02  0.1741154E+00
         21   -1    0    0  503  502  0.00000000000E+00  0.00000000000E+00  0.40863733138E+02  0.40863733138E+02  0.00000000000E+00 0. -1.
         21   -1    0    0  501  503 -0.00000000000E+00 -0.00000000000E+00 -0.10040505768E+02  0.10040505768E+02  0.00000000000E+00 0. -1.
          4    1    1    2  501    0  0.15067059254E+02  0.13471801889E+02  0.13731964985E+02  0.24435068714E+02  0.00000000000E+00 0.  1.
         -4    1    1    2    0  502 -0.15067059254E+02 -0.13471801889E+02  0.17091262385E+02  0.26469170191E+02  0.00000000000E+00 0. -1.
<mgrwt>
<rscale>  2 0.20211524E+02</rscale>
<asrwt>0</asrwt>
<pdfrwt beam="1">  1       21 0.62867281E-02 0.20211524E+02</pdfrwt>
<pdfrwt beam="2">  1       21 0.15446932E-02 0.20211524E+02</pdfrwt>
<totfact> 0.21162439E+08</totfact>
</mgrwt>
</event>
<event>
 4    1  0.7151341E+004  0.6384944E+02  0.7546771E-02  0.1382352E+00
         21   -1    0    0  501  502  0.00000000000E+00  0.00000000000E+00  0.12779282349E+03  0.12779282349E+03  0.00000000000E+00 0. -1.
         21   -1    0    0  502  503 -0.00000000000E+00 -0.00000000000E+00 -0.32154161344E+02  0.32154161344E+02  0.00000000000E+00 0. -1.
          5    1    1    2  501    0 -0.24621943342E+02  0.58911040620E+02  0.40726629501E+02  0.75732484122E+02  0.00000000000E+00 0. -1.
         -5    1    1    2    0  503  0.24621943342E+02 -0.58911040620E+02  0.54912032642E+02  0.84214500709E+02  0.00000000000E+00 0.  1.
<mgrwt>
<rscale>  2 0.63849439E+02</rscale>
<asrwt>0</asrwt>
<pdfrwt beam="1">  1       21 0.19660434E-01 0.63849439E+02</pdfrwt>
<pdfrwt beam="2">  1       21 0.49467941E-02 0.63849439E+02</pdfrwt>
<totfact> 0.61073112E+06</totfact>
</mgrwt>
</event>
<event>
 4    1  0.7151341E+004  0.2802548E+02  0.7546771E-02  0.1620999E+00
         21   -1    0    0  503  502  0.00000000000E+00  0.00000000000E+00  0.19738082993E+02  0.19738082993E+02  0.00000000000E+00 0.  1.
         21   -1    0    0  501  503 -0.00000000000E+00 -0.00000000000E+00 -0.78185432210E+02  0.78185432210E+02  0.00000000000E+00 0.  1.
          2    1    1    2  501    0  0.10332283826E+02  0.26051320551E+02  0.50862527810E+01  0.28483282094E+02  0.00000000000E+00 0.  1.
         -2    1    1    2    0  502 -0.10332283826E+02 -0.26051320551E+02 -0.63533601998E+02  0.69440233110E+02  0.00000000000E+00 0. -1.
<mgrwt>
<rscale>  2 0.28025478E+02</rscale>
<asrwt>0</asrwt>
<pdfrwt beam="1">  1       21 0.30366282E-02 0.28025478E+02</pdfrwt>
<pdfrwt beam="2">  1       21 0.12028528E-01 0.28025478E+02</pdfrwt>
<totfact> 0.28076013E+07</totfact>
</mgrwt>
</event>
<event>
 4    1  0.7151341E+004  0.2203639E+02  0.7546771E-02  0.1707623E+00
         21   -1    0    0  501  502  0.00000000000E+00  0.00000000000E+00  0.15042459380E+02  0.15042459380E+02  0.00000000000E+00 0.  1.
         21   -1    0    0  502  503 -0.00000000000E+00 -0.00000000000E+00 -0.32764693608E+02  0.32764693608E+02  0.00000000000E+00 0.  1.
          1    1    1    2  501    0 -0.12545006071E+01 -0.22000649868E+02 -0.11762098725E+02  0.24978977817E+02  0.00000000000E+00 0. -1.
         -1    1    1    2    0  503  0.12545006071E+01  0.22000649868E+02 -0.59601355033E+01  0.22828175170E+02  0.00000000000E+00 0.  1.
<mgrwt>
<rscale>  2 0.22036387E+02</rscale>
<asrwt>0</asrwt>
<pdfrwt beam="1">  1       21 0.23142246E-02 0.22036387E+02</pdfrwt>
<pdfrwt beam="2">  1       21 0.50407220E-02 0.22036387E+02</pdfrwt>
<totfact> 0.16693475E+08</totfact>
</mgrwt>
</event>
<event>
 4    1  0.7151341E+004  0.2796611E+02  0.7546771E-02  0.1621724E+00
         21   -1    0    0  503  502  0.00000000000E+00  0.00000000000E+00  0.80019327481E+02  0.80019327481E+02  0.00000000000E+00 0.  1.
         21   -1    0    0  501  503 -0.00000000000E+00 -0.00000000000E+00 -0.10932293216E+02  0.10932293216E+02  0.00000000000E+00 0.  1.
          2    1    1    2  501    0  0.12611728069E+01  0.27937654504E+02  0.49346446964E+02  0.56720145663E+02  0.00000000000E+00 0. -1.
         -2    1    1    2    0  502 -0.12611728069E+01 -0.27937654504E+02  0.19740587301E+02  0.34231475035E+02  0.00000000000E+00 0.  1.
<mgrwt>
<rscale>  2 0.27966106E+02</rscale>
<asrwt>0</asrwt>
<pdfrwt beam="1">  1       21 0.12310665E-01 0.27966106E+02</pdfrwt>
<pdfrwt beam="2">  1       21 0.16818913E-02 0.27966106E+02</pdfrwt>
<totfact> 0.67516811E+07</totfact>
</mgrwt>
</event>
<event>
 4    1  0.7151341E+004  0.3964339E+02  0.7546771E-02  0.1510852E+00
         21   -1    0    0  503  502  0.00000000000E+00  0.00000000000E+00  0.12354484511E+03  0.12354484511E+03  0.00000000000E+00 0.  1.
         21   -1    0    0  501  503 -0.00000000000E+00 -0.00000000000E+00 -0.12945312271E+02  0.12945312271E+02  0.00000000000E+00 0.  1.
          1    1    1    2  501    0  0.22664331929E+02  0.32525785628E+02  0.64285663896E+02  0.75526454008E+02  0.00000000000E+00 0. -1.
         -1    1    1    2    0  502 -0.22664331929E+02 -0.32525785628E+02  0.46313868943E+02  0.60963703373E+02  0.00000000000E+00 0.  1.
<mgrwt>
<rscale>  2 0.39643394E+02</rscale>
<asrwt>0</asrwt>
<pdfrwt beam="1">  1       21 0.19006898E-01 0.39643394E+02</pdfrwt>
<pdfrwt beam="2">  1       21 0.19915866E-02 0.39643394E+02</pdfrwt>
<totfact> 0.26279260E+07</totfact>
</mgrwt>
</event>
<event>
 4    1  0.7151341E+004  0.2015117E+02  0.7546771E-02  0.1742338E+00
         21   -1    0    0  501  502  0.00000000000E+00  0.00000000000E+00  0.40780364836E+01  0.40780364836E+01  0.00000000000E+00 0.  1.
         21   -1    0    0  502  503 -0.00000000000E+00 -0.00000000000E+00 -0.10722912580E+03  0.10722912580E+03  0.00000000000E+00 0.  1.
          5    1    1    2  501    0  0.17315640227E+02  0.10307202861E+02 -0.66444795603E+02  0.69433282293E+02  0.00000000000E+00 0. -1.
         -5    1    1    2    0  503 -0.17315640227E+02 -0.10307202861E+02 -0.36706293714E+02  0.41873879991E+02  0.00000000000E+00 0.  1.
<mgrwt>
<rscale>  2 0.20151174E+02</rscale>
<asrwt>0</asrwt>
<pdfrwt beam="1">  1       21 0.62739023E-03 0.20151174E+02</pdfrwt>
<pdfrwt beam="2">  1       21 0.16496789E-01 0.20151174E+02</pdfrwt>
<totfact> 0.16557202E+08</totfact>
</mgrwt>
</event>
<event>
 4    1  0.7151341E+004  0.2100450E+02  0.7546771E-02  0.1726060E+00
         21   -1    0    0  503  502  0.00000000000E+00  0.00000000000E+00  0.85654089947E+00  0.85654089947E+00  0.00000000000E+00 0. -1.
         21   -1    0    0  501  503 -0.00000000000E+00 -0.00000000000E+00 -0.55018156710E+03  0.55018156710E+03  0.00000000000E+00 0. -1.
          2    1    1    2  501    0 -0.17066482053E+02 -0.12244349391E+02 -0.34425282186E+03  0.34489301858E+03  0.00000000000E+00 0. -1.
         -2    1    1    2    0  502  0.17066482053E+02  0.12244349391E+02 -0.20507220433E+03  0.20614508942E+03  0.00000000000E+00 0.  1.
<mgrwt>
<rscale>  2 0.21004497E+02</rscale>
<asrwt>0</asrwt>
<pdfrwt beam="1">  1       21 0.13177549E-03 0.21004497E+02</pdfrwt>
<pdfrwt beam="2">  1       21 0.84643339E-01 0.21004497E+02</pdfrwt>
<totfact> 0.75066518E+07</totfact>
</mgrwt>
</event>
<event>
 4    1  0.7151341E+004  0.2789424E+02  0.7546771E-02  0.1622604E+00
         21   -1    0    0  503  502  0.00000000000E+00  0.00000000000E+00  0.30989505239E+02  0.30989505239E+02  0.00000000000E+00 0.  1.
         21   -1    0    0  501  503 -0.00000000000E+00 -0.00000000000E+00 -0.25551648611E+02  0.25551648611E+02  0.00000000000E+00 0.  1.
          1    1    1    2  501    0  0.25366534717E+02  0.11602920692E+02 -0.10056403327E+01  0.27912365801E+02  0.00000000000E+00 0.  1.
         -1    1    1    2    0  502 -0.25366534717E+02 -0.11602920692E+02  0.64434969607E+01  0.28628788050E+02  0.00000000000E+00 0. -1.
<mgrwt>
<rscale>  2 0.27894244E+02</rscale>
<asrwt>0</asrwt>
<pdfrwt beam="1">  1       21 0.47676162E-02 0.27894244E+02</pdfrwt>
<pdfrwt beam="2">  1       21 0.39310229E-02 0.27894244E+02</pdfrwt>
<totfact> 0.85205239E+07</totfact>
</mgrwt>
</event>
<event>
 4    1  0.7151341E+004  0.2441233E+02  0.7546771E-02  0.1669589E+00
         21   -1    0    0  501  502  0.00000000000E+00  0.00000000000E+00  0.11338813479E+04  0.11338813479E+04  0.00000000000E+00 0. -1.
         21   -1    0    0  502  503 -0.00000000000E+00 -0.00000000000E+00 -0.52590416785E+00  0.52590416785E+00  0.00000000000E+00 0. -1.
          2    1    1    2  501    0 -0.24148026779E+02 -0.35825283074E+01  0.58044321217E+03  0.58095635315E+03  0.00000000000E+00 0. -1.
         -2    1    1    2    0  503  0.24148026779E+02  0.35825283074E+01  0.55291223152E+03  0.55345089888E+03  0.00000000000E+00 0.  1.
<mgrwt>
<rscale>  2 0.24412327E+02</rscale>
<asrwt>0</asrwt>
<pdfrwt beam="1">  1       21 0.17444133E+00 0.24412327E+02</pdfrwt>
<pdfrwt beam="2">  1       21 0.80909241E-04 0.24412327E+02</pdfrwt>
<totfact> 0.29935194E+07</totfact>
</mgrwt>
</event>
<event>
 4    1  0.7151341E+004  0.2363575E+02  0.7546771E-02  0.1681407E+00
         21   -1    0    0  503  502  0.00000000000E+00  0.00000000000E+00  0.17165225530E+02  0.17165225530E+02  0.00000000000E+00 0.  1.
         21   -1    0    0  501  503 -0.00000000000E+00 -0.00000000000E+00 -0.33189376357E+02  0.33189376357E+02  0.00000000000E+00 0.  1.
          1    1    1    2  501    0  0.81654451389E+01  0.22180493528E+02 -0.11519201130E+02  0.26293360039E+02  0.00000000000E+00 0.  1.
         -1    1    1    2    0  502 -0.81654451389E+01 -0.22180493528E+02 -0.45049496976E+01  0.24061241848E+02  0.00000000000E+00 0. -1.
<mgrwt>
<rscale>  2 0.23635752E+02</rscale>
<asrwt>0</asrwt>
<pdfrwt beam="1">  1       21 0.26408039E-02 0.23635752E+02</pdfrwt>
<pdfrwt beam="2">  1       21 0.51060579E-02 0.23635752E+02</pdfrwt>
<totfact> 0.13624381E+08</totfact>
</mgrwt>
</event>
<event>
 4    1  0.7151341E+004  0.2216927E+02  0.7546771E-02  0.1705341E+00
         21   -1    0    0  501  502  0.00000000000E+00  0.00000000000E+00  0.79723337431E+02  0.79723337431E+02  0.00000000000E+00 0. -1.
         21   -1    0    0  502  503 -0.00000000000E+00 -0.00000000000E+00 -0.76796232757E+01  0.76796232757E+01  0.00000000000E+00 0. -1.
          1    1    1    2  501    0  0.19377897791E+02 -0.10769113264E+02  0.16612540439E+02  0.27702946109E+02  0.00000000000E+00 0.  1.
         -1    1    1    2    0  503 -0.19377897791E+02  0.10769113264E+02  0.55431173716E+02  0.59700014597E+02  0.00000000000E+00 0. -1.
<mgrwt>
<rscale>  2 0.22169274E+02</rscale>
<asrwt>0</asrwt>
<pdfrwt beam="1">  1       21 0.12265128E-01 0.22169274E+02</pdfrwt>
<pdfrwt beam="2">  1       21 0.11814806E-02 0.22169274E+02</pdfrwt>
<totfact> 0.10936788E+08</totfact>
</mgrwt>
</event>
<event>
 4    1  0.7151341E+004  0.2587529E+02  0.7546771E-02  0.1648739E+00
         21   -1    0    0  501  502  0.00000000000E+00  0.00000000000E+00  0.32718354955E+03  0.32718354955E+03  0.00000000000E+00 0. -1.
         21   -1    0    0  502  503 -0.00000000000E+00 -0.00000000000E+00 -0.24731963796E+01  0.24731963796E+01  0.00000000000E+00 0. -1.
          3    1    1    2  501    0 -0.24929613201E+02 -0.69314388852E+01  0.23083158212E+03  0.23227731220E+03  0.00000000000E+00 0.  1.
         -3    1    1    2    0  503  0.24929613201E+02  0.69314388852E+01  0.93878771052E+02  0.97379433730E+02  0.00000000000E+00 0. -1.
<mgrwt>
<rscale>  2 0.25875287E+02</rscale>
<asrwt>0</asrwt>
<pdfrwt beam="1">  1       21 0.50335896E-01 0.25875287E+02</pdfrwt>
<pdfrwt beam="2">  1       21 0.38049201E-03 0.25875287E+02</pdfrwt>
<totfact> 0.48714807E+07</totfact>
</mgrwt>
</event>
<event>
 4    1  0.7151341E+004  0.3406603E+02  0.7546771E-02  0.1557054E+00
         21   -1    0    0  503  502  0.00000000000E+00  0.00000000000E+00  0.24886391753E+02  0.24886391753E+02  0.00000000000E+00 0.  1.
         21   -1    0    0  501  503 -0.00000000000E+00 -0.00000000000E+00 -0.47244626302E+02  0.47244626302E+02  0.00000000000E+00 0.  1.
          5    1    1    2  501    0 -0.31641160841E+02 -0.12622647308E+02 -0.15287081716E+02  0.37338842400E+02  0.00000000000E+00 0. -1.
         -5    1    1    2    0  502  0.31641160841E+02  0.12622647308E+02 -0.70711528334E+01  0.34792175655E+02  0.00000000000E+00 0.  1.
<mgrwt>
<rscale>  2 0.34066028E+02</rscale>
<asrwt>0</asrwt>
<pdfrwt beam="1">  1       21 0.38286757E-02 0.34066028E+02</pdfrwt>
<pdfrwt beam="2">  1       21 0.72684040E-02 0.34066028E+02</pdfrwt>
<totfact> 0.46910440E+07</totfact>
</mgrwt>
</event>
<event>
 4    1  0.7151341E+004  0.2263550E+02  0.7546771E-02  0.1697488E+00
         21   -1    0    0  501  502  0.00000000000E+00  0.00000000000E+00  0.83281787706E+02  0.83281787706E+02  0.00000000000E+00 0. -1.
         21   -1    0    0  502  503 -0.00000000000E+00 -0.00000000000E+00 -0.62749020090E+01  0.62749020090E+01  0.00000000000E+00 0. -1.
          4    1    1    2  501    0  0.44875403102E+01  0.22186203546E+02  0.32241595457E+02  0.39393985879E+02  0.00000000000E+00 0.  1.
         -4    1    1    2    0  503 -0.44875403102E+01 -0.22186203546E+02  0.44765290240E+02  0.50162703836E+02  0.00000000000E+00 0. -1.
<mgrwt>
<rscale>  2 0.22635495E+02</rscale>
<asrwt>0</asrwt>
<pdfrwt beam="1">  1       21 0.12812582E-01 0.22635495E+02</pdfrwt>
<pdfrwt beam="2">  1       21 0.96536960E-03 0.22635495E+02</pdfrwt>
<totfact> 0.13854988E+08</totfact>
</mgrwt>
</event>
<event>
 4    1  0.7151341E+004  0.4604344E+02  0.7546771E-02  0.1467931E+00
         21   -1    0    0  501  502  0.00000000000E+00  0.00000000000E+00  0.70070090125E+01  0.70070090125E+01  0.00000000000E+00 0.  1.
         21   -1    0    0  502  503 -0.00000000000E+00 -0.00000000000E+00 -0.30395170335E+03  0.30395170335E+03  0.00000000000E+00 0.  1.
          1    1    1    2  501    0 -0.34469123963E+02  0.30526668270E+02 -0.13792867868E+03  0.14541086061E+03  0.00000000000E+00 0.  1.
         -1    1    1    2    0  503  0.34469123963E+02 -0.30526668270E+02 -0.15901601566E+03  0.16554785175E+03  0.00000000000E+00 0. -1.
<mgrwt>
<rscale>  2 0.46043436E+02</rscale>
<asrwt>0</asrwt>
<pdfrwt beam="1">  1       21 0.10780016E-02 0.46043436E+02</pdfrwt>
<pdfrwt beam="2">  1       21 0.46761790E-01 0.46043436E+02</pdfrwt>
<totfact> 0.12954970E+07</totfact>
</mgrwt>
</event>
<event>
 4    1  0.7151341E+004  0.2192743E+02  0.7546771E-02  0.1709510E+00
         21   -1    0    0  501  502  0.00000000000E+00  0.00000000000E+00  0.79117282933E+01  0.79117282933E+01  0.00000000000E+00 0.  1.
         21   -1    0    0  502  503 -0.00000000000E+00 -0.00000000000E+00 -0.62334069957E+02  0.62334069957E+02  0.00000000000E+00 0.  1.
          1    1    1    2  501    0 -0.95943671290E+01 -0.19717002774E+02 -0.32771091456E+02  0.39430400889E+02  0.00000000000E+00 0.  1.
         -1    1    1    2    0  503  0.95943671290E+01  0.19717002774E+02 -0.21651250207E+02  0.30815397361E+02  0.00000000000E+00 0. -1.
<mgrwt>
<rscale>  2 0.21927428E+02</rscale>
<asrwt>0</asrwt>
<pdfrwt beam="1">  1       21 0.12171889E-02 0.21927428E+02</pdfrwt>
<pdfrwt beam="2">  1       21 0.95898571E-02 0.21927428E+02</pdfrwt>
<totfact> 0.15681310E+08</totfact>
</mgrwt>
</event>
<event>
 4    1  0.7151341E+004  0.2038557E+02  0.7546771E-02  0.1737768E+00
         21   -1    0    0  503  502  0.00000000000E+00  0.00000000000E+00  0.20202107683E+03  0.20202107683E+03  0.00000000000E+00 0.  1.
         21   -1    0    0  501  503 -0.00000000000E+00 -0.00000000000E+00 -0.24005262814E+01  0.24005262814E+01  0.00000000000E+00 0.  1.
          3    1    1    2  501    0 -0.96065825214E+01 -0.17980123453E+02  0.61148658540E+02  0.64457192837E+02  0.00000000000E+00 0. -1.
         -3    1    1    2    0  502  0.96065825214E+01  0.17980123453E+02  0.13847189201E+03  0.13996441028E+03  0.00000000000E+00 0.  1.
<mgrwt>
<rscale>  2 0.20385565E+02</rscale>
<asrwt>0</asrwt>
<pdfrwt beam="1">  1       21 0.31080152E-01 0.20385565E+02</pdfrwt>
<pdfrwt beam="2">  1       21 0.36931189E-03 0.20385565E+02</pdfrwt>
<totfact> 0.11876583E+08</totfact>
</mgrwt>
</event>
<event>
 4    1  0.7151341E+004  0.2167787E+02  0.7546771E-02  0.1713883E+00
         21   -1    0    0  503  502  0.00000000000E+00  0.00000000000E+00  0.21880331559E+02  0.21880331559E+02  0.00000000000E+00 0.  1.
         21   -1    0    0  501  503 -0.00000000000E+00 -0.00000000000E+00 -0.21477970391E+02  0.21477970391E+02  0.00000000000E+00 0.  1.
          1    1    1    2  501    0  0.12256038401E+02 -0.17880701219E+02  0.32431173862E+00  0.21680293621E+02  0.00000000000E+00 0. -1.
         -1    1    1    2    0  502 -0.12256038401E+02  0.17880701219E+02  0.78049429827E-01  0.21678008329E+02  0.00000000000E+00 0.  1.
<mgrwt>
<rscale>  2 0.21677868E+02</rscale>
<asrwt>0</asrwt>
<pdfrwt beam="1">  1       21 0.33662049E-02 0.21677868E+02</pdfrwt>
<pdfrwt beam="2">  1       21 0.33043031E-02 0.21677868E+02</pdfrwt>
<totfact> 0.18064207E+08</totfact>
</mgrwt>
</event>
<event>
 4    1  0.7151341E+004  0.7269105E+02  0.7546771E-02  0.1351174E+00
         21   -1    0    0  501  502  0.00000000000E+00  0.00000000000E+00  0.92953916495E+02  0.92953916495E+02  0.00000000000E+00 0. -1.
         21   -1    0    0  502  503 -0.00000000000E+00 -0.00000000000E+00 -0.56985232984E+02  0.56985232984E+02  0.00000000000E+00 0. -1.
          4    1    1    2  501    0 -0.71272503823E+02 -0.14290541523E+02  0.21699941112E+02  0.75860904440E+02  0.00000000000E+00 0. -1.
         -4    1    1    2    0  503  0.71272503823E+02  0.14290541523E+02  0.14268742399E+02  0.74078245038E+02  0.00000000000E+00 0.  1.
<mgrwt>
<rscale>  2 0.72691054E+02</rscale>
<asrwt>0</asrwt>
<pdfrwt beam="1">  1       21 0.14300603E-01 0.72691054E+02</pdfrwt>
<pdfrwt beam="2">  1       21 0.87669589E-02 0.72691054E+02</pdfrwt>
<totfact> 0.41760796E+06</totfact>
</mgrwt>
</event>
<event>
 4    1  0.7151341E+004  0.2286087E+02  0.7546771E-02  0.1693775E+00
         21   -1    0    0  503  502  0.00000000000E+00  0.00000000000E+00  0.81864705711E+02  0.81864705711E+02  0.00000000000E+00 0.  1.
         21   -1    0    0  501  503 -0.00000000000E+00 -0.00000000000E+00 -0.79059160550E+01  0.79059160550E+01  0.00000000000E+00 0.  1.
          2    1    1    2  501    0  0.21315251690E+02  0.82631438414E+01  0.56673298944E+02  0.61110410848E+02  0.00000000000E+00 0.  1.
         -2    1    1    2    0  502 -0.21315251690E+02 -0.82631438414E+01  0.17285490711E+02  0.28660210918E+02  0.00000000000E+00 0. -1.
<mgrwt>
<rscale>  2 0.22860873E+02</rscale>
<asrwt>0</asrwt>
<pdfrwt beam="1">  1       21 0.12594570E-01 0.22860873E+02</pdfrwt>
<pdfrwt beam="2">  1       21 0.12162948E-02 0.22860873E+02</pdfrwt>
<totfact> 0.10101209E+08</totfact>
</mgrwt>
</event>
<event>
 4    1  0.7151341E+004  0.3818438E+02  0.7546771E-02  0.1522014E+00
         21   -1    0    0  503  502  0.00000000000E+00  0.00000000000E+00  0.12043117811E+02  0.12043117811E+02  0.00000000000E+00 0. -1.
         21   -1    0    0  501  503 -0.00000000000E+00 -0.00000000000E+00 -0.16347172310E+03  0.16347172310E+03  0.00000000000E+00 0. -1.
          3    1    1    2  501    0 -0.82993258241E+01 -0.37271543458E+02 -0.31019190879E+02  0.49195903932E+02  0.00000000000E+00 0.  1.
         -3    1    1    2    0  502  0.82993258241E+01  0.37271543458E+02 -0.12040941441E+03  0.12631893698E+03  0.00000000000E+00 0. -1.
<mgrwt>
<rscale>  2 0.38184378E+02</rscale>
<asrwt>0</asrwt>
<pdfrwt beam="1">  1       21 0.18527874E-02 0.38184378E+02</pdfrwt>
<pdfrwt beam="2">  1       21 0.25149495E-01 0.38184378E+02</pdfrwt>
<totfact> 0.17677160E+07</totfact>
</mgrwt>
</event>
<event>
 4    1  0.7151341E+004  0.2318806E+02  0.7546771E-02  0.1688480E+00
         21   -1    0    0  503  502  0.00000000000E+00  0.00000000000E+00  0.56344066485E+01  0.56344066485E+01  0.00000000000E+00 0. -1.
         21   -1    0    0  501  503 -0.00000000000E+00 -0.00000000000E+00 -0.13193480823E+03  0.13193480823E+03  0.00000000000E+00 0. -1.
          2    1    1    2  501    0 -0.16560969624E+02 -0.16230238009E+02 -0.26968250484E+02  0.35566457160E+02  0.00000000000E+00 0. -1.
         -2    1    1    2    0  502  0.16560969624E+02  0.16230238009E+02 -0.99332151102E+02  0.10200275772E+03  0.00000000000E+00 0.  1.
<mgrwt>
<rscale>  2 0.23188065E+02</rscale>
<asrwt>0</asrwt>
<pdfrwt beam="1">  1       21 0.86683182E-03 0.23188065E+02</pdfrwt>
<pdfrwt beam="2">  1       21 0.20297662E-01 0.23188065E+02</pdfrwt>
<totfact> 0.74527603E+07</totfact>
</mgrwt>
</event>
<event>
 4    1  0.7151341E+004  0.2048662E+02  0.7546771E-02  0.1735821E+00
         21   -1    0    0  501  502  0.00000000000E+00  0.00000000000E+00  0.16052653755E+02  0.16052653755E+02  0.00000000000E+00 0. -1.
         21   -1    0    0  502  503 -0.00000000000E+00 -0.00000000000E+00 -0.52316481258E+02  0.52316481258E+02  0.00000000000E+00 0. -1.
          4    1    1    2  501    0 -0.20413294323E+02 -0.17317335039E+01 -0.42310030467E+02  0.47008937067E+02  0.00000000000E+00 0. -1.
         -4    1    1    2    0  503  0.20413294323E+02  0.17317335039E+01  0.60462029629E+01  0.21360197946E+02  0.00000000000E+00 0.  1.
<mgrwt>
<rscale>  2 0.20486617E+02</rscale>
<asrwt>0</asrwt>
<pdfrwt beam="1">  1       21 0.24696391E-02 0.20486617E+02</pdfrwt>
<pdfrwt beam="2">  1       21 0.80486893E-02 0.20486617E+02</pdfrwt>
<totfact> 0.69706489E+07</totfact>
</mgrwt>
</event>
<event>
 4    1  0.7151341E+004  0.2443681E+02  0.7546771E-02  0.1669225E+00
         21   -1    0    0  503  502  0.00000000000E+00  0.00000000000E+00  0.49014575534E+01  0.49014575534E+01  0.00000000000E+00 0.  1.
         21   -1    0    0  501  503 -0.00000000000E+00 -0.00000000000E+00 -0.12230419305E+03  0.12230419305E+03  0.00000000000E+00 0.  1.
          2    1    1    2  501    0 -0.49902427277E+01  0.23921859985E+02 -0.62650339144E+02  0.67247475064E+02  0.00000000000E+00 0. -1.
         -2    1    1    2    0  502  0.49902427277E+01 -0.23921859985E+02 -0.54752396352E+02  0.59958175539E+02  0.00000000000E+00 0.  1.
<mgrwt>
<rscale>  2 0.24436815E+02</rscale>
<asrwt>0</asrwt>
<pdfrwt beam="1">  1       21 0.75407048E-03 0.24436815E+02</pdfrwt>
<pdfrwt beam="2">  1       21 0.18816028E-01 0.24436815E+02</pdfrwt>
<totfact> 0.10625730E+08</totfact>
</mgrwt>
</event>
<event>
 4    1  0.7151341E+004  0.2419841E+02  0.7546771E-02  0.1672790E+00
         21   -1    0    0  501  502  0.00000000000E+00  0.00000000000E+00  0.59117068308E+01  0.59117068308E+01  0.00000000000E+00 0.  1.
         21   -1    0    0  502  503 -0.00000000000E+00 -0.00000000000E+00 -0.15036589124E+03  0.15036589124E+03  0.00000000000E+00 0.  1.
          2    1    1    2  501    0 -0.24026284264E+02 -0.28810836081E+01 -0.11787406473E+03  0.12033228210E+03  0.00000000000E+00 0. -1.
         -2    1    1    2    0  503  0.24026284264E+02  0.28810836081E+01 -0.26580119673E+02  0.35945315969E+02  0.00000000000E+00 0.  1.
<mgrwt>
<rscale>  2 0.24198409E+02</rscale>
<asrwt>0</asrwt>
<pdfrwt beam="1">  1       21 0.90949334E-03 0.24198409E+02</pdfrwt>
<pdfrwt beam="2">  1       21 0.23133215E-01 0.24198409E+02</pdfrwt>
<totfact> 0.55701182E+07</totfact>
</mgrwt>
</event>
<event>
 4    1  0.7151341E+004  0.7235308E+02  0.7546771E-02  0.1352269E+00
         21   -1    0    0  503  502  0.00000000000E+00  0.00000000000E+00  0.12905681159E+03  0.12905681159E+03  0.00000000000E+00 0.  1.
         21   -1    0    0  501  503 -0.00000000000E+00 -0.00000000000E+00 -0.42815605370E+02  0.42815605370E+02  0.00000000000E+00 0.  1.
          2    1    1    2  501    0  0.62447618300E+02 -0.36541246647E+02  0.62830783275E+02  0.95826275440E+02  0.00000000000E+00 0. -1.
         -2    1    1    2    0  502 -0.62447618300E+02  0.36541246647E+02  0.23410422949E+02  0.76046141523E+02  0.00000000000E+00 0.  1.
<mgrwt>
<rscale>  2 0.72353077E+02</rscale>
<asrwt>0</asrwt>
<pdfrwt beam="1">  1       21 0.19854894E-01 0.72353077E+02</pdfrwt>
<pdfrwt beam="2">  1       21 0.65870163E-02 0.72353077E+02</pdfrwt>
<totfact> 0.37624531E+06</totfact>
</mgrwt>
</event>
<event>
 4    1  0.7151341E+004  0.3409935E+02  0.7546771E-02  0.1556747E+00
         21   -1    0    0  501  502  0.00000000000E+00  0.00000000000E+00  0.80060215488E+03  0.80060215488E+03  0.00000000000E+00 0. -1.
         21   -1    0    0  502  503 -0.00000000000E+00 -0.00000000000E+00 -0.15082193404E+01  0.15082193404E+01  0.00000000000E+00 0. -1.
          3    1    1    2  501    0 -0.24850669155E+02 -0.23349728193E+02  0.47672703092E+03  0.47794500476E+03  0.00000000000E+00 0. -1.
         -3    1    1    2    0  503  0.24850669155E+02  0.23349728193E+02  0.32236690462E+03  0.32416536946E+03  0.00000000000E+00 0.  1.
<mgrwt>
<rscale>  2 0.34099348E+02</rscale>
<asrwt>0</asrwt>
<pdfrwt beam="1">  1       21 0.12316922E+00 0.34099348E+02</pdfrwt>
<pdfrwt beam="2">  1       21 0.23203438E-03 0.34099348E+02</pdfrwt>
<totfact> 0.15816937E+07</totfact>
</mgrwt>
</event>
<event>
 4    1  0.7151341E+004  0.2757765E+02  0.7546771E-02  0.1626519E+00
         21   -1    0    0  501  502  0.00000000000E+00  0.00000000000E+00  0.99943511786E+01  0.99943511786E+01  0.00000000000E+00 0.  1.
         21   -1    0    0  502  503 -0.00000000000E+00 -0.00000000000E+00 -0.76432666763E+02  0.76432666763E+02  0.00000000000E+00 0.  1.
          2    1    1    2  501    0 -0.42310379967E+01  0.27251145292E+02 -0.36088674842E+02  0.45419368711E+02  0.00000000000E+00 0.  1.
         -2    1    1    2    0  503  0.42310379967E+01 -0.27251145292E+02 -0.30349640742E+02  0.41007649230E+02  0.00000000000E+00 0. -1.
<mgrwt>
<rscale>  2 0.27577647E+02</rscale>
<asrwt>0</asrwt>
<pdfrwt beam="1">  1       21 0.15375926E-02 0.27577647E+02</pdfrwt>
<pdfrwt beam="2">  1       21 0.11758871E-01 0.27577647E+02</pdfrwt>
<totfact> 0.83420138E+07</totfact>
</mgrwt>
</event>
<event>
 4    1  0.7151341E+004  0.2584804E+02  0.7546771E-02  0.1649112E+00
         21   -1    0    0  503  502  0.00000000000E+00  0.00000000000E+00  0.18077022474E+02  0.18077022474E+02  0.00000000000E+00 0. -1.
         21   -1    0    0  501  503 -0.00000000000E+00 -0.00000000000E+00 -0.36971440661E+02  0.36971440661E+02  0.00000000000E+00 0. -1.
          4    1    1    2  501    0 -0.17185234504E+02  0.19307745037E+02 -0.99377248791E+01  0.27692592496E+02  0.00000000000E+00 0.  1.
         -4    1    1    2    0  502  0.17185234504E+02 -0.19307745037E+02 -0.89566933077E+01  0.27355870639E+02  0.00000000000E+00 0. -1.
<mgrwt>
<rscale>  2 0.25848043E+02</rscale>
<asrwt>0</asrwt>
<pdfrwt beam="1">  1       21 0.27810804E-02 0.25848043E+02</pdfrwt>
<pdfrwt beam="2">  1       21 0.56879139E-02 0.25848043E+02</pdfrwt>
<totfact> 0.10843411E+08</totfact>
</mgrwt>
</event>
<event>
 4    1  0.7151341E+004  0.2119950E+02  0.7546771E-02  0.1722476E+00
         21   -1    0    0  501  502  0.00000000000E+00  0.00000000000E+00  0.75770814535E+03  0.75770814535E+03  0.00000000000E+00 0. -1.
         21   -1    0    0  502  503 -0.00000000000E+00 -0.00000000000E+00 -0.76194963032E+00  0.76194963032E+00  0.00000000000E+00 0. -1.
          5    1    1    2  501    0  0.20991808536E+02 -0.29601885285E+01  0.55698121932E+03  0.55738451487E+03  0.00000000000E+00 0. -1.
         -5    1    1    2    0  503 -0.20991808536E+02  0.29601885285E+01  0.19996497640E+03  0.20108558011E+03  0.00000000000E+00 0.  1.
<mgrwt>
<rscale>  2 0.21199499E+02</rscale>
<asrwt>0</asrwt>
<pdfrwt beam="1">  1       21 0.11656988E+00 0.21199499E+02</pdfrwt>
<pdfrwt beam="2">  1       21 0.11722363E-03 0.21199499E+02</pdfrwt>
<totfact> 0.44313043E+07</totfact>
</mgrwt>
</event>
<event>
 4    1  0.7151341E+004  0.4042153E+02  0.7546771E-02  0.1505132E+00
         21   -1    0    0  503  502  0.00000000000E+00  0.00000000000E+00  0.27904575235E+01  0.27904575235E+01  0.00000000000E+00 0. -1.
         21   -1    0    0  501  503 -0.00000000000E+00 -0.00000000000E+00 -0.15749930739E+04  0.15749930739E+04  0.00000000000E+00 0. -1.
          3    1    1    2  501    0 -0.27933244053E+02 -0.29217019996E+02 -0.14113857124E+04  0.14119644222E+04  0.00000000000E+00 0. -1.
         -3    1    1    2    0  502  0.27933244053E+02  0.29217019996E+02 -0.16081690401E+03  0.16581910926E+03  0.00000000000E+00 0.  1.
<mgrwt>
<rscale>  2 0.40421534E+02</rscale>
<asrwt>0</asrwt>
<pdfrwt beam="1">  1       21 0.42930139E-03 0.40421534E+02</pdfrwt>
<pdfrwt beam="2">  1       21 0.24230649E+00 0.40421534E+02</pdfrwt>
<totfact> 0.11281435E+06</totfact>
</mgrwt>
</event>
<event>
 4    1  0.7151341E+004  0.2110056E+02  0.7546771E-02  0.1724288E+00
         21   -1    0    0  501  502  0.00000000000E+00  0.00000000000E+00  0.23345126831E+02  0.23345126831E+02  0.00000000000E+00 0.  1.
         21   -1    0    0  502  503 -0.00000000000E+00 -0.00000000000E+00 -0.19662993805E+02  0.19662993805E+02  0.00000000000E+00 0.  1.
          2    1    1    2  501    0 -0.18923722897E+02 -0.93341475974E+01  0.55697921773E+01  0.21823294539E+02  0.00000000000E+00 0.  1.
         -2    1    1    2    0  503  0.18923722897E+02  0.93341475974E+01 -0.18876591516E+01  0.21184826096E+02  0.00000000000E+00 0. -1.
<mgrwt>
<rscale>  2 0.21100559E+02</rscale>
<asrwt>0</asrwt>
<pdfrwt beam="1">  1       21 0.35915580E-02 0.21100559E+02</pdfrwt>
<pdfrwt beam="2">  1       21 0.30250760E-02 0.21100559E+02</pdfrwt>
<totfact> 0.18569946E+08</totfact>
</mgrwt>
</event>
<event>
 4    1  0.7151341E+004  0.6892864E+02  0.7546771E-02  0.1363775E+00
         21   -1    0    0  503  502  0.00000000000E+00  0.00000000000E+00  0.41841090050E+01  0.41841090050E+01  0.00000000000E+00 0. -1.
         21   -1    0    0  501  503 -0.00000000000E+00 -0.00000000000E+00 -0.11356554209E+04  0.11356554209E+04  0.00000000000E+00 0. -1.
          1    1    1    2  501    0  0.68182411382E+02  0.10115135635E+02 -0.57186097275E+03  0.57600011228E+03  0.00000000000E+00 0.  1.
         -1    1    1    2    0  502 -0.68182411382E+02 -0.10115135635E+02 -0.55961033913E+03  0.56383941761E+03  0.00000000000E+00 0. -1.
<mgrwt>
<rscale>  2 0.68928638E+02</rscale>
<asrwt>0</asrwt>
<pdfrwt beam="1">  1       21 0.64370856E-03 0.68928638E+02</pdfrwt>
<pdfrwt beam="2">  1       21 0.17471636E+00 0.68928638E+02</pdfrwt>
<totfact> 0.15130388E+06</totfact>
</mgrwt>
</event>
<event>
 4    1  0.7151341E+004  0.2233374E+02  0.7546771E-02  0.1702543E+00
         21   -1    0    0  501  502  0.00000000000E+00  0.00000000000E+00  0.19177851779E+03  0.19177851779E+03  0.00000000000E+00 0.  1.
         21   -1    0    0  502  503 -0.00000000000E+00 -0.00000000000E+00 -0.26410828113E+01  0.26410828113E+01  0.00000000000E+00 0.  1.
          2    1    1    2  501    0 -0.12230068628E+02  0.18687463838E+02  0.82577493005E+02  0.85544364130E+02  0.00000000000E+00 0. -1.
         -2    1    1    2    0  503  0.12230068628E+02 -0.18687463838E+02  0.10655994197E+03  0.10887523647E+03  0.00000000000E+00 0.  1.
<mgrwt>
<rscale>  2 0.22333739E+02</rscale>
<asrwt>0</asrwt>
<pdfrwt beam="1">  1       21 0.29504376E-01 0.22333739E+02</pdfrwt>
<pdfrwt beam="2">  1       21 0.40632058E-03 0.22333739E+02</pdfrwt>
<totfact> 0.11646783E+08</totfact>
</mgrwt>
</event>
<event>
 4    1  0.7151341E+004  0.3052373E+02  0.7546771E-02  0.1592371E+00
         21   -1    0    0  501  502  0.00000000000E+00  0.00000000000E+00  0.70917968441E+00  0.70917968441E+00  0.00000000000E+00 0.  1.
         21   -1    0    0  502  503 -0.00000000000E+00 -0.00000000000E+00 -0.13322141938E+04  0.13322141938E+04  0.00000000000E+00 0.  1.
          3    1    1    2  501    0  0.20855923792E+02 -0.22287413535E+02 -0.58733220075E+03  0.58812482722E+03  0.00000000000E+00 0.  1.
         -3    1    1    2    0  503 -0.20855923792E+02  0.22287413535E+02 -0.74417281334E+03  0.74479854623E+03  0.00000000000E+00 0. -1.
<mgrwt>
<rscale>  2 0.30523734E+02</rscale>
<asrwt>0</asrwt>
<pdfrwt beam="1">  1       21 0.10910523E-03 0.30523734E+02</pdfrwt>
<pdfrwt beam="2">  1       21 0.20495478E+00 0.30523734E+02</pdfrwt>
<totfact> 0.13288416E+07</totfact>
</mgrwt>
</event>
<event>
 4    1  0.7151341E+004  0.2020297E+02  0.7546771E-02  0.1741322E+00
         21   -1    0    0  503  502  0.00000000000E+00  0.00000000000E+00  0.32418534932E+02  0.32418534932E+02  0.00000000000E+00 0. -1.
         21   -1    0    0  501  503 -0.00000000000E+00 -0.00000000000E+00 -0.18985134889E+02  0.18985134889E+02  0.00000000000E+00 0. -1.
          5    1    1    2  501    0  0.13658898899E+02 -0.14886045558E+02  0.21633344032E+02  0.29600024417E+02  0.00000000000E+00 0.  1.
         -5    1    1    2    0  502 -0.13658898899E+02  0.14886045558E+02 -0.81999439890E+01  0.21803645404E+02  0.00000000000E+00 0. -1.
<mgrwt>
<rscale>  2 0.20202967E+02</rscale>
<asrwt>0</asrwt>
<pdfrwt beam="1">  1       21 0.49874669E-02 0.20202967E+02</pdfrwt>
<pdfrwt beam="2">  1       21 0.29207900E-02 0.20202967E+02</pdfrwt>
<totfact> 0.11541101E+08</totfact>
</mgrwt>
</event>
<event>
 4    1  0.7151341E+004  0.2819726E+02  0.7546771E-02  0.1618915E+00
         21   -1    0    0  501  502  0.00000000000E+00  0.00000000000E+00  0.35905878216E+02  0.35905878216E+02  0.00000000000E+00 0. -1.
         21   -1    0    0  502  503 -0.00000000000E+00 -0.00000000000E+00 -0.22400790666E+02  0.22400790666E+02  0.00000000000E+00 0. -1.
          4    1    1    2  501    0  0.23361059943E+02 -0.15790712621E+02  0.98762961118E+01  0.29876863149E+02  0.00000000000E+00 0. -1.
         -4    1    1    2    0  503 -0.23361059943E+02  0.15790712621E+02  0.36287914376E+01  0.28429805733E+02  0.00000000000E+00 0.  1.
<mgrwt>
<rscale>  2 0.28197265E+02</rscale>
<asrwt>0</asrwt>
<pdfrwt beam="1">  1       21 0.55239813E-02 0.28197265E+02</pdfrwt>
<pdfrwt beam="2">  1       21 0.34462755E-02 0.28197265E+02</pdfrwt>
<totfact> 0.83054452E+07</totfact>
</mgrwt>
</event>
<event>
 4    1  0.7151341E+004  0.4261823E+02  0.7546771E-02  0.1489783E+00
         21   -1    0    0  503  502  0.00000000000E+00  0.00000000000E+00  0.22528309061E+03  0.22528309061E+03  0.00000000000E+00 0.  1.
         21   -1    0    0  501  503 -0.00000000000E+00 -0.00000000000E+00 -0.81452668151E+01  0.81452668151E+01  0.00000000000E+00 0.  1.
          4    1    1    2  501    0 -0.31869050743E+02  0.28296233856E+02  0.12034409368E+03  0.12766759232E+03  0.00000000000E+00 0.  1.
         -4    1    1    2    0  502  0.31869050743E+02 -0.28296233856E+02  0.96793730119E+02  0.10576076511E+03  0.00000000000E+00 0. -1.
<mgrwt>
<rscale>  2 0.42618227E+02</rscale>
<asrwt>0</asrwt>
<pdfrwt beam="1">  1       21 0.34658932E-01 0.42618227E+02</pdfrwt>
<pdfrwt beam="2">  1       21 0.12531181E-02 0.42618227E+02</pdfrwt>
<totfact> 0.18160119E+07</totfact>
</mgrwt>
</event>
<event>
 4    1  0.7151341E+004  0.3752172E+02  0.7546771E-02  0.1527283E+00
         21   -1    0    0  501  502  0.00000000000E+00  0.00000000000E+00  0.17822504340E+02  0.17822504340E+02  0.00000000000E+00 0. -1.
         21   -1    0    0  502  503 -0.00000000000E+00 -0.00000000000E+00 -0.80902077028E+02  0.80902077028E+02  0.00000000000E+00 0. -1.
          1    1    1    2  501    0  0.34385913438E+02  0.15016263278E+02 -0.39119633151E+02  0.54205395521E+02  0.00000000000E+00 0.  1.
         -1    1    1    2    0  503 -0.34385913438E+02 -0.15016263278E+02 -0.23959939537E+02  0.44519185846E+02  0.00000000000E+00 0. -1.
<mgrwt>
<rscale>  2 0.37521716E+02</rscale>
<asrwt>0</asrwt>
<pdfrwt beam="1">  1       21 0.27419238E-02 0.37521716E+02</pdfrwt>
<pdfrwt beam="2">  1       21 0.12446473E-01 0.37521716E+02</pdfrwt>
<totfact> 0.32926917E+07</totfact>
</mgrwt>
</event>
<event>
 4    1  0.7151341E+004  0.2267320E+02  0.7546771E-02  0.1696863E+00
         21   -1    0    0  501  502  0.00000000000E+00  0.00000000000E+00  0.15773735864E+03  0.15773735864E+03  0.00000000000E+00 0.  1.
         21   -1    0    0  502  503 -0.00000000000E+00 -0.00000000000E+00 -0.43704273768E+01  0.43704273768E+01  0.00000000000E+00 0.  1.
          3    1    1    2  501    0  0.83874210176E+01 -0.21064785931E+02  0.11755703624E+03  0.11972355995E+03  0.00000000000E+00 0. -1.
         -3    1    1    2    0  503 -0.83874210176E+01  0.21064785931E+02  0.35809895023E+02  0.42384226066E+02  0.00000000000E+00 0.  1.
<mgrwt>
<rscale>  2 0.22673201E+02</rscale>
<asrwt>0</asrwt>
<pdfrwt beam="1">  1       21 0.24267282E-01 0.22673201E+02</pdfrwt>
<pdfrwt beam="2">  1       21 0.67237356E-03 0.22673201E+02</pdfrwt>
<totfact> 0.78979897E+07</totfact>
</mgrwt>
</event>
<event>
 4    1  0.7151341E+004  0.2018427E+02  0.7546771E-02  0.1741688E+00
         21   -1    0    0  501  502  0.00000000000E+00  0.00000000000E+00  0.66836387146E+00  0.66836387146E+00  0.00000000000E+00 0. -1.
         21   -1    0    0  502  503 -0.00000000000E+00 -0.00000000000E+00 -0.61674141650E+03  0.61674141650E+03  0.00000000000E+00 0. -1.
          5    1    1    2  501    0  0.99495994158E+00  0.20159729877E+02 -0.34135944058E+03  0.34195565842E+03  0.00000000000E+00 0. -1.
         -5    1    1    2    0  503 -0.99495994158E+00 -0.20159729877E+02 -0.27471361205E+03  0.27545412195E+03  0.00000000000E+00 0.  1.
<mgrwt>
<rscale>  2 0.20184267E+02</rscale>
<asrwt>0</asrwt>
<pdfrwt beam="1">  1       21 0.10282555E-03 0.20184267E+02</pdfrwt>
<pdfrwt beam="2">  1       21 0.94882982E-01 0.20184267E+02</pdfrwt>
<totfact> 0.82939145E+07</totfact>
</mgrwt>
</event>
<event>
 4    1  0.7151341E+004  0.2133315E+02  0.7546771E-02  0.1720047E+00
         21   -1    0    0  501  502  0.00000000000E+00  0.00000000000E+00  0.55107537470E+03  0.55107537470E+03  0.00000000000E+00 0.  1.
         21   -1    0    0  502  503 -0.00000000000E+00 -0.00000000000E+00 -0.85460900887E+00  0.85460900887E+00  0.00000000000E+00 0.  1.
          5    1    1    2  501    0 -0.10287732931E+02 -0.18688651035E+02  0.32573841902E+03  0.32643624301E+03  0.00000000000E+00 0. -1.
         -5    1    1    2    0  503  0.10287732931E+02  0.18688651035E+02  0.22448234668E+03  0.22549374070E+03  0.00000000000E+00 0.  1.
<mgrwt>
<rscale>  2 0.21333146E+02</rscale>
<asrwt>0</asrwt>
<pdfrwt beam="1">  1       21 0.84780543E-01 0.21333146E+02</pdfrwt>
<pdfrwt beam="2">  1       21 0.13147875E-03 0.21333146E+02</pdfrwt>
<totfact> 0.75339795E+07</totfact>
</mgrwt>
</event>
<event>
 4    1  0.7151341E+004  0.2706352E+02  0.7546771E-02  0.1633017E+00
         21   -1    0    0  501  502  0.00000000000E+00  0.00000000000E+00  0.40323843183E+03  0.40323843183E+03  0.00000000000E+00 0. -1.
         21   -1    0    0  502  503 -0.00000000000E+00 -0.00000000000E+00 -0.29579932174E+01  0.29579932174E+01  0.00000000000E+00 0. -1.
          5    1    1    2  501    0  0.22250206501E+02 -0.15406568306E+02  0.32631341310E+03  0.32743377590E+03  0.00000000000E+00 0.  1.
         -5    1    1    2    0  503 -0.22250206501E+02  0.15406568306E+02  0.73967025514E+02  0.78762649140E+02  0.00000000000E+00 0. -1.
<mgrwt>
<rscale>  2 0.27063519E+02</rscale>
<asrwt>0</asrwt>
<pdfrwt beam="1">  1       21 0.62036638E-01 0.27063519E+02</pdfrwt>
<pdfrwt beam="2">  1       21 0.45507620E-03 0.27063519E+02</pdfrwt>
<totfact> 0.24911583E+07</totfact>
</mgrwt>
</event>
<event>
 4    1  0.7151341E+004  0.2660351E+02  0.7546771E-02  0.1638984E+00
         21   -1    0    0  501  502  0.00000000000E+00  0.00000000000E+00  0.17777480650E+03  0.17777480650E+03  0.00000000000E+00 0. -1.
         21   -1    0    0  502  503 -0.00000000000E+00 -0.00000000000E+00 -0.40428681500E+01  0.40428681500E+01  0.00000000000E+00 0. -1.
          5    1    1    2  501    0  0.26225596764E+02 -0.44681923538E+01  0.98099014104E+02  0.10164232995E+03  0.00000000000E+00 0. -1.
         -5    1    1    2    0  503 -0.26225596764E+02  0.44681923538E+01  0.75632924244E+02  0.80175344703E+02  0.00000000000E+00 0.  1.
<mgrwt>
<rscale>  2 0.26603509E+02</rscale>
<asrwt>0</asrwt>
<pdfrwt beam="1">  1       21 0.27349964E-01 0.26603509E+02</pdfrwt>
<pdfrwt beam="2">  1       21 0.62197986E-03 0.26603509E+02</pdfrwt>
<totfact> 0.74503091E+07</totfact>
</mgrwt>
</event>
<event>
 4    1  0.7151341E+004  0.2348292E+02  0.7546771E-02  0.1683800E+00
         21   -1    0    0  501  502  0.00000000000E+00  0.00000000000E+00  0.12519045084E+02  0.12519045084E+02  0.00000000000E+00 0. -1.
         21   -1    0    0  502  503 -0.00000000000E+00 -0.00000000000E+00 -0.44476548211E+02  0.44476548211E+02  0.00000000000E+00 0. -1.
          2    1    1    2  501    0  0.55155785615E+01 -0.22825994579E+02 -0.13183688232E+02  0.26930601010E+02  0.00000000000E+00 0. -1.
         -2    1    1    2    0  503 -0.55155785615E+01  0.22825994579E+02 -0.18773814895E+02  0.30064992285E+02  0.00000000000E+00 0.  1.
<mgrwt>
<rscale>  2 0.23482922E+02</rscale>
<asrwt>0</asrwt>
<pdfrwt beam="1">  1       21 0.19260069E-02 0.23482922E+02</pdfrwt>
<pdfrwt beam="2">  1       21 0.68425459E-02 0.23482922E+02</pdfrwt>
<totfact> 0.13823383E+08</totfact>
</mgrwt>
</event>
<event>
 4    1  0.7151341E+004  0.4154004E+02  0.7546771E-02  0.1497175E+00
         21   -1    0    0  501  502  0.00000000000E+00  0.00000000000E+00  0.56253768216E+01  0.56253768216E+01  0.00000000000E+00 0. -1.
         21   -1    0    0  502  503 -0.00000000000E+00 -0.00000000000E+00 -0.30677045215E+03  0.30677045215E+03  0.00000000000E+00 0. -1.
          2    1    1    2  501    0  0.36101438335E+02  0.20548986365E+02 -0.14924475507E+03  0.15491795121E+03  0.00000000000E+00 0.  1.
         -2    1    1    2    0  503 -0.36101438335E+02 -0.20548986365E+02 -0.15190032026E+03  0.15747787777E+03  0.00000000000E+00 0. -1.
<mgrwt>
<rscale>  2 0.41540037E+02</rscale>
<asrwt>0</asrwt>
<pdfrwt beam="1">  1       21 0.86544275E-03 0.41540037E+02</pdfrwt>
<pdfrwt beam="2">  1       21 0.47195445E-01 0.41540037E+02</pdfrwt>
<totfact> 0.17569481E+07</totfact>
</mgrwt>
</event>
<event>
 4    1  0.7151341E+004  0.2035302E+02  0.7546771E-02  0.1738398E+00
         21   -1    0    0  501  502  0.00000000000E+00  0.00000000000E+00  0.17999115564E+03  0.17999115564E+03  0.00000000000E+00 0.  1.
         21   -1    0    0  502  503 -0.00000000000E+00 -0.00000000000E+00 -0.36958488322E+01  0.36958488322E+01  0.00000000000E+00 0.  1.
          2    1    1    2  501    0  0.39905628471E+01  0.19957978311E+02  0.14456084228E+03  0.14598658366E+03  0.00000000000E+00 0. -1.
         -2    1    1    2    0  503 -0.39905628471E+01 -0.19957978311E+02  0.31734464535E+02  0.37700420812E+02  0.00000000000E+00 0.  1.
<mgrwt>
<rscale>  2 0.20353022E+02</rscale>
<asrwt>0</asrwt>
<pdfrwt beam="1">  1       21 0.27690940E-01 0.20353022E+02</pdfrwt>
<pdfrwt beam="2">  1       21 0.56859227E-03 0.20353022E+02</pdfrwt>
<totfact> 0.77685927E+07</totfact>
</mgrwt>
</event>
<event>
 4    1  0.7151341E+004  0.2865164E+02  0.7546771E-02  0.1613490E+00
         21   -1    0    0  503  502  0.00000000000E+00  0.00000000000E+00  0.38196374555E+02  0.38196374555E+02  0.00000000000E+00 0.  1.
         21   -1    0    0  501  503 -0.00000000000E+00 -0.00000000000E+00 -0.29224524649E+02  0.29224524649E+02  0.00000000000E+00 0.  1.
          2    1    1    2  501    0  0.23948056955E+02 -0.15729182039E+02  0.21826016538E+02  0.36017934386E+02  0.00000000000E+00 0. -1.
         -2    1    1    2    0  502 -0.23948056955E+02  0.15729182039E+02 -0.12854166631E+02  0.31402964817E+02  0.00000000000E+00 0.  1.
<mgrwt>
<rscale>  2 0.28651642E+02</rscale>
<asrwt>0</asrwt>
<pdfrwt beam="1">  1       21 0.58763653E-02 0.28651642E+02</pdfrwt>
<pdfrwt beam="2">  1       21 0.44960807E-02 0.28651642E+02</pdfrwt>
<totfact> 0.49470841E+07</totfact>
</mgrwt>
</event>
<event>
 4    1  0.7151341E+004  0.4831077E+02  0.7546771E-02  0.1454672E+00
         21   -1    0    0  503  502  0.00000000000E+00  0.00000000000E+00  0.23552060022E+02  0.23552060022E+02  0.00000000000E+00 0. -1.
         21   -1    0    0  501  503 -0.00000000000E+00 -0.00000000000E+00 -0.11580397079E+03  0.11580397079E+03  0.00000000000E+00 0. -1.
          5    1    1    2  501    0 -0.43358643870E+02 -0.21306304933E+02 -0.19660020278E+02  0.52157904727E+02  0.00000000000E+00 0. -1.
         -5    1    1    2    0  502  0.43358643870E+02  0.21306304933E+02 -0.72591890492E+02  0.87198126088E+02  0.00000000000E+00 0.  1.
<mgrwt>
<rscale>  2 0.48310771E+02</rscale>
<asrwt>0</asrwt>
<pdfrwt beam="1">  1       21 0.36233939E-02 0.48310771E+02</pdfrwt>
<pdfrwt beam="2">  1       21 0.17815995E-01 0.48310771E+02</pdfrwt>
<totfact> 0.11744771E+07</totfact>
</mgrwt>
</event>
<event>
 4    1  0.7151341E+004  0.2706639E+02  0.7546771E-02  0.1632981E+00
         21   -1    0    0  501  502  0.00000000000E+00  0.00000000000E+00  0.10265660175E+02  0.10265660175E+02  0.00000000000E+00 0. -1.
         21   -1    0    0  502  503 -0.00000000000E+00 -0.00000000000E+00 -0.77991906560E+02  0.77991906560E+02  0.00000000000E+00 0. -1.
          3    1    1    2  501    0 -0.20497258138E+02 -0.17676304089E+02 -0.20997971536E+02  0.34256446489E+02  0.00000000000E+00 0. -1.
         -3    1    1    2    0  503  0.20497258138E+02  0.17676304089E+02 -0.46728274849E+02  0.54001120246E+02  0.00000000000E+00 0.  1.
<mgrwt>
<rscale>  2 0.27066387E+02</rscale>
<asrwt>0</asrwt>
<pdfrwt beam="1">  1       21 0.15793324E-02 0.27066387E+02</pdfrwt>
<pdfrwt beam="2">  1       21 0.11998755E-01 0.27066387E+02</pdfrwt>
<totfact> 0.77028646E+07</totfact>
</mgrwt>
</event>
<event>
 4    1  0.7151341E+004  0.2796482E+02  0.7546771E-02  0.1621739E+00
         21   -1    0    0  501  502  0.00000000000E+00  0.00000000000E+00  0.39052271035E+02  0.39052271035E+02  0.00000000000E+00 0.  1.
         21   -1    0    0  502  503 -0.00000000000E+00 -0.00000000000E+00 -0.26352779241E+02  0.26352779241E+02  0.00000000000E+00 0.  1.
          5    1    1    2  501    0 -0.20859611931E+02 -0.18625460798E+02  0.22374280014E+02  0.35813958256E+02  0.00000000000E+00 0.  1.
         -5    1    1    2    0  503  0.20859611931E+02  0.18625460798E+02 -0.96747882194E+01  0.29591092020E+02  0.00000000000E+00 0. -1.
<mgrwt>
<rscale>  2 0.27964821E+02</rscale>
<asrwt>0</asrwt>
<pdfrwt beam="1">  1       21 0.60080417E-02 0.27964821E+02</pdfrwt>
<pdfrwt beam="2">  1       21 0.40542737E-02 0.27964821E+02</pdfrwt>
<totfact> 0.55954731E+07</totfact>
</mgrwt>
</event>
<event>
 4    1  0.7151341E+004  0.2240067E+02  0.7546771E-02  0.1701413E+00
         21   -1    0    0  501  502  0.00000000000E+00  0.00000000000E+00  0.35325095111E+02  0.35325095111E+02  0.00000000000E+00 0. -1.
         21   -1    0    0  502  503 -0.00000000000E+00 -0.00000000000E+00 -0.14516831853E+02  0.14516831853E+02  0.00000000000E+00 0. -1.
          3    1    1    2  501    0  0.21427483374E+02 -0.65309105617E+01  0.67511202577E+01  0.23395885562E+02  0.00000000000E+00 0. -1.
         -3    1    1    2    0  503 -0.21427483374E+02  0.65309105617E+01  0.14057143000E+02  0.26446041402E+02  0.00000000000E+00 0.  1.
<mgrwt>
<rscale>  2 0.22400666E+02</rscale>
<asrwt>0</asrwt>
<pdfrwt beam="1">  1       21 0.54346300E-02 0.22400666E+02</pdfrwt>
<pdfrwt beam="2">  1       21 0.22333588E-02 0.22400666E+02</pdfrwt>
<totfact> 0.15720393E+08</totfact>
</mgrwt>
</event>
<event>
 4    1  0.7151341E+004  0.3074820E+02  0.7546771E-02  0.1589963E+00
         21   -1    0    0  503  502  0.00000000000E+00  0.00000000000E+00  0.42626295642E+02  0.42626295642E+02  0.00000000000E+00 0.  1.
         21   -1    0    0  501  503 -0.00000000000E+00 -0.00000000000E+00 -0.22434291750E+02  0.22434291750E+02  0.00000000000E+00 0.  1.
          1    1    1    2  501    0 -0.29597102908E+02  0.83344717444E+01  0.13559255318E+02  0.33605138366E+02  0.00000000000E+00 0.  1.
         -1    1    1    2    0  502  0.29597102908E+02 -0.83344717444E+01  0.66327485744E+01  0.31455449026E+02  0.00000000000E+00 0. -1.
<mgrwt>
<rscale>  2 0.30748202E+02</rscale>
<asrwt>0</asrwt>
<pdfrwt beam="1">  1       21 0.65578917E-02 0.30748202E+02</pdfrwt>
<pdfrwt beam="2">  1       21 0.34514295E-02 0.30748202E+02</pdfrwt>
<totfact> 0.64042112E+07</totfact>
</mgrwt>
</event>
<event>
 4    1  0.7151341E+004  0.4161572E+02  0.7546771E-02  0.1496647E+00
         21   -1    0    0  503  502  0.00000000000E+00  0.00000000000E+00  0.14203543514E+03  0.14203543514E+03  0.00000000000E+00 0.  1.
         21   -1    0    0  501  503 -0.00000000000E+00 -0.00000000000E+00 -0.13945161392E+02  0.13945161392E+02  0.00000000000E+00 0.  1.
          5    1    1    2  501    0 -0.27039943409E+02  0.31633989962E+02  0.91688435108E+02  0.10069079895E+03  0.00000000000E+00 0. -1.
         -5    1    1    2    0  502  0.27039943409E+02 -0.31633989962E+02  0.36401838645E+02  0.55289797587E+02  0.00000000000E+00 0.  1.
<mgrwt>
<rscale>  2 0.41615717E+02</rscale>
<asrwt>0</asrwt>
<pdfrwt beam="1">  1       21 0.21851604E-01 0.41615717E+02</pdfrwt>
<pdfrwt beam="2">  1       21 0.21454096E-02 0.41615717E+02</pdfrwt>
<totfact> 0.18369959E+07</totfact>
</mgrwt>
</event>
<event>
 4    1  0.7151341E+004  0.2078274E+02  0.7546771E-02  0.1730196E+00
         21   -1    0    0  503  502  0.00000000000E+00  0.00000000000E+00  0.73093704118E+00  0.73093704118E+00  0.00000000000E+00 0. -1.
         21   -1    0    0  501  503 -0.00000000000E+00 -0.00000000000E+00 -0.69662910496E+03  0.69662910496E+03  0.00000000000E+00 0. -1.
          2    1    1    2  501    0  0.41956160050E+01 -0.20354831939E+02 -0.21212064343E+03  0.21313631728E+03  0.00000000000E+00 0. -1.
         -2    1    1    2    0  502 -0.41956160050E+01  0.20354831939E+02 -0.48377752449E+03  0.48422372472E+03  0.00000000000E+00 0.  1.
<mgrwt>
<rscale>  2 0.20782742E+02</rscale>
<asrwt>0</asrwt>
<pdfrwt beam="1">  1       21 0.11245154E-03 0.20782742E+02</pdfrwt>
<pdfrwt beam="2">  1       21 0.10717401E+00 0.20782742E+02</pdfrwt>
<totfact> 0.56407210E+07</totfact>
</mgrwt>
</event>
<event>
 4    1  0.7151341E+004  0.2432018E+02  0.7546771E-02  0.1670963E+00
         21   -1    0    0  501  502  0.00000000000E+00  0.00000000000E+00  0.51433343063E+02  0.51433343063E+02  0.00000000000E+00 0. -1.
         21   -1    0    0  502  503 -0.00000000000E+00 -0.00000000000E+00 -0.11590971361E+02  0.11590971361E+02  0.00000000000E+00 0. -1.
          3    1    1    2  501    0  0.23271350206E+02  0.70650910734E+01  0.17125839075E+02  0.29745009940E+02  0.00000000000E+00 0. -1.
         -3    1    1    2    0  503 -0.23271350206E+02 -0.70650910734E+01  0.22716532627E+02  0.33279304484E+02  0.00000000000E+00 0.  1.
<mgrwt>
<rscale>  2 0.24320182E+02</rscale>
<asrwt>0</asrwt>
<pdfrwt beam="1">  1       21 0.79128219E-02 0.24320182E+02</pdfrwt>
<pdfrwt beam="2">  1       21 0.17832264E-02 0.24320182E+02</pdfrwt>
<totfact> 0.12408244E+08</totfact>
</mgrwt>
</event>
<event>
 4    1  0.7151341E+004  0.2262693E+02  0.7546771E-02  0.1697630E+00
         21   -1    0    0  501  502  0.00000000000E+00  0.00000000000E+00  0.43451323790E+02  0.43451323790E+02  0.00000000000E+00 0.  1.
         21   -1    0    0  502  503 -0.00000000000E+00 -0.00000000000E+00 -0.12264703659E+02  0.12264703659E+02  0.00000000000E+00 0.  1.
          5    1    1    2  501    0  0.19429891482E+02 -0.11595579839E+02  0.10071228716E+02  0.24767070934E+02  0.00000000000E+00 0.  1.
         -5    1    1    2    0  503 -0.19429891482E+02  0.11595579839E+02  0.21115391414E+02  0.30948956515E+02  0.00000000000E+00 0. -1.
<mgrwt>
<rscale>  2 0.22626934E+02</rscale>
<asrwt>0</asrwt>
<pdfrwt beam="1">  1       21 0.66848189E-02 0.22626934E+02</pdfrwt>
<pdfrwt beam="2">  1       21 0.18868775E-02 0.22626934E+02</pdfrwt>
<totfact> 0.14648538E+08</totfact>
</mgrwt>
</event>
<event>
 4    1  0.7151341E+004  0.4567729E+02  0.7546771E-02  0.1470157E+00
         21   -1    0    0  503  502  0.00000000000E+00  0.00000000000E+00  0.35768138256E+03  0.35768138256E+03  0.00000000000E+00 0.  1.
         21   -1    0    0  501  503 -0.00000000000E+00 -0.00000000000E+00 -0.67969899531E+01  0.67969899531E+01  0.00000000000E+00 0.  1.
          5    1    1    2  501    0 -0.36642301895E+02  0.27271897216E+02  0.10681718236E+03  0.11617368511E+03  0.00000000000E+00 0. -1.
         -5    1    1    2    0  502  0.36642301895E+02 -0.27271897216E+02  0.24406721025E+03  0.24830468740E+03  0.00000000000E+00 0.  1.
<mgrwt>
<rscale>  2 0.45677288E+02</rscale>
<asrwt>0</asrwt>
<pdfrwt beam="1">  1       21 0.55027891E-01 0.45677288E+02</pdfrwt>
<pdfrwt beam="2">  1       21 0.10456910E-02 0.45677288E+02</pdfrwt>
<totfact> 0.97917835E+06</totfact>
</mgrwt>
</event>
<event>
 4    1  0.7151341E+004  0.5342596E+02  0.7546771E-02  0.1427693E+00
         21   -1    0    0  503  502  0.00000000000E+00  0.00000000000E+00  0.85319278894E+02  0.85319278894E+02  0.00000000000E+00 0. -1.
         21   -1    0    0  501  503 -0.00000000000E+00 -0.00000000000E+00 -0.33561877223E+02  0.33561877223E+02  0.00000000000E+00 0. -1.
          2    1    1    2  501    0  0.34945001079E+02  0.40412619792E+02  0.29237331475E+02  0.60902828265E+02  0.00000000000E+00 0. -1.
         -2    1    1    2    0  502 -0.34945001079E+02 -0.40412619792E+02  0.22520070196E+02  0.57978327852E+02  0.00000000000E+00 0.  1.
<mgrwt>
<rscale>  2 0.53425958E+02</rscale>
<asrwt>0</asrwt>
<pdfrwt beam="1">  1       21 0.13126043E-01 0.53425958E+02</pdfrwt>
<pdfrwt beam="2">  1       21 0.51633658E-02 0.53425958E+02</pdfrwt>
<totfact> 0.11435990E+07</totfact>
</mgrwt>
</event>
<event>
 4    1  0.7151341E+004  0.2856056E+02  0.7546771E-02  0.1614567E+00
         21   -1    0    0  503  502  0.00000000000E+00  0.00000000000E+00  0.11859959681E+03  0.11859959681E+03  0.00000000000E+00 0.  1.
         21   -1    0    0  501  503 -0.00000000000E+00 -0.00000000000E+00 -0.69251577659E+01  0.69251577659E+01  0.00000000000E+00 0.  1.
          2    1    1    2  501    0  0.19176648533E+02  0.21165109101E+02  0.61026732354E+02  0.67379282825E+02  0.00000000000E+00 0.  1.
         -2    1    1    2    0  502 -0.19176648533E+02 -0.21165109101E+02  0.50647706692E+02  0.58145471752E+02  0.00000000000E+00 0. -1.
<mgrwt>
<rscale>  2 0.28560562E+02</rscale>
<asrwt>0</asrwt>
<pdfrwt beam="1">  1       21 0.18246090E-01 0.28560562E+02</pdfrwt>
<pdfrwt beam="2">  1       21 0.10654090E-02 0.28560562E+02</pdfrwt>
<totfact> 0.69287862E+07</totfact>
</mgrwt>
</event>
<event>
 4    1  0.7151341E+004  0.3281036E+02  0.7546771E-02  0.1568952E+00
         21   -1    0    0  501  502  0.00000000000E+00  0.00000000000E+00  0.11464246935E+03  0.11464246935E+03  0.00000000000E+00 0. -1.
         21   -1    0    0  502  503 -0.00000000000E+00 -0.00000000000E+00 -0.10536081412E+02  0.10536081412E+02  0.00000000000E+00 0. -1.
          4    1    1    2  501    0  0.15521405967E+02  0.28906846705E+02  0.31412542450E+02  0.45423206104E+02  0.00000000000E+00 0. -1.
         -4    1    1    2    0  503 -0.15521405967E+02 -0.28906846705E+02  0.72693845491E+02  0.79755344660E+02  0.00000000000E+00 0.  1.
<mgrwt>
<rscale>  2 0.32810362E+02</rscale>
<asrwt>0</asrwt>
<pdfrwt beam="1">  1       21 0.17637302E-01 0.32810362E+02</pdfrwt>
<pdfrwt beam="2">  1       21 0.16209357E-02 0.32810362E+02</pdfrwt>
<totfact> 0.39875713E+07</totfact>
</mgrwt>
</event>
<event>
 4    1  0.7151341E+004  0.2184851E+02  0.7546771E-02  0.1710885E+00
         21   -1    0    0  503  502  0.00000000000E+00  0.00000000000E+00  0.79759482007E+02  0.79759482007E+02  0.00000000000E+00 0. -1.
         21   -1    0    0  501  503 -0.00000000000E+00 -0.00000000000E+00 -0.60179827319E+01  0.60179827319E+01  0.00000000000E+00 0. -1.
          2    1    1    2  501    0  0.14547302209E+02  0.16301333310E+02  0.40047704646E+02  0.45619909214E+02  0.00000000000E+00 0. -1.
         -2    1    1    2    0  502 -0.14547302209E+02 -0.16301333310E+02  0.33693794629E+02  0.40157555525E+02  0.00000000000E+00 0.  1.
<mgrwt>
<rscale>  2 0.21848512E+02</rscale>
<asrwt>0</asrwt>
<pdfrwt beam="1">  1       21 0.12270689E-01 0.21848512E+02</pdfrwt>
<pdfrwt beam="2">  1       21 0.92584355E-03 0.21848512E+02</pdfrwt>
<totfact> 0.15692220E+08</totfact>
</mgrwt>
</event>
<event>
 4    1  0.7151341E+004  0.2376976E+02  0.7546771E-02  0.1679328E+00
         21   -1    0    0  501  502  0.00000000000E+00  0.00000000000E+00  0.54988758214E+00  0.54988758214E+00  0.00000000000E+00 0. -1.
         21   -1    0    0  502  503 -0.00000000000E+00 -0.00000000000E+00 -0.12105787740E+04  0.12105787740E+04  0.00000000000E+00 0. -1.
          5    1    1    2  501    0  0.23683452626E+02 -0.20237559662E+01 -0.36950953875E+03  0.37027327847E+03  0.00000000000E+00 0. -1.
         -5    1    1    2    0  503 -0.23683452626E+02  0.20237559662E+01 -0.84051934770E+03  0.84085538315E+03  0.00000000000E+00 0.  1.
<mgrwt>
<rscale>  2 0.23769761E+02</rscale>
<asrwt>0</asrwt>
<pdfrwt beam="1">  1       21 0.84598433E-04 0.23769761E+02</pdfrwt>
<pdfrwt beam="2">  1       21 0.18624213E+00 0.23769761E+02</pdfrwt>
<totfact> 0.23757003E+07</totfact>
</mgrwt>
</event>
<event>
 4    1  0.7151341E+004  0.4346732E+02  0.7546771E-02  0.1484143E+00
         21   -1    0    0  501  502  0.00000000000E+00  0.00000000000E+00  0.91763342426E+01  0.91763342426E+01  0.00000000000E+00 0.  1.
         21   -1    0    0  502  503 -0.00000000000E+00 -0.00000000000E+00 -0.21594909922E+03  0.21594909922E+03  0.00000000000E+00 0.  1.
          2    1    1    2  501    0  0.20824533939E+01  0.43417403145E+02 -0.12766823171E+03  0.13486506181E+03  0.00000000000E+00 0. -1.
         -2    1    1    2    0  503 -0.20824533939E+01 -0.43417403145E+02 -0.79104533264E+02  0.90260371653E+02  0.00000000000E+00 0.  1.
<mgrwt>
<rscale>  2 0.43467315E+02</rscale>
<asrwt>0</asrwt>
<pdfrwt beam="1">  1       21 0.14117438E-02 0.43467315E+02</pdfrwt>
<pdfrwt beam="2">  1       21 0.33222937E-01 0.43467315E+02</pdfrwt>
<totfact> 0.16408054E+07</totfact>
</mgrwt>
</event>
<event>
 4    1  0.7151341E+004  0.2282277E+02  0.7546771E-02  0.1694399E+00
         21   -1    0    0  503  502  0.00000000000E+00  0.00000000000E+00  0.11385994733E+01  0.11385994733E+01  0.00000000000E+00 0. -1.
         21   -1    0    0  501  503 -0.00000000000E+00 -0.00000000000E+00 -0.45904794594E+03  0.45904794594E+03  0.00000000000E+00 0. -1.
          2    1    1    2  501    0  0.22630724368E+02  0.29544874004E+01 -0.24243150536E+03  0.24350341573E+03  0.00000000000E+00 0. -1.
         -2    1    1    2    0  502 -0.22630724368E+02 -0.29544874004E+01 -0.21547784110E+03  0.21668312968E+03  0.00000000000E+00 0.  1.
<mgrwt>
<rscale>  2 0.22822767E+02</rscale>
<asrwt>0</asrwt>
<pdfrwt beam="1">  1       21 0.17516922E-03 0.22822767E+02</pdfrwt>
<pdfrwt beam="2">  1       21 0.70622733E-01 0.22822767E+02</pdfrwt>
<totfact> 0.74260318E+07</totfact>
</mgrwt>
</event>
<event>
 4    1  0.7151341E+004  0.2026309E+02  0.7546771E-02  0.1740146E+00
         21   -1    0    0  503  502  0.00000000000E+00  0.00000000000E+00  0.10923853787E+02  0.10923853787E+02  0.00000000000E+00 0.  1.
         21   -1    0    0  501  503 -0.00000000000E+00 -0.00000000000E+00 -0.37898533885E+02  0.37898533885E+02  0.00000000000E+00 0.  1.
          2    1    1    2  501    0 -0.60767727142E+01 -0.19330438029E+02 -0.15701204897E+02  0.25634368263E+02  0.00000000000E+00 0. -1.
         -2    1    1    2    0  502  0.60767727142E+01  0.19330438029E+02 -0.11273475201E+02  0.23188019410E+02  0.00000000000E+00 0.  1.
<mgrwt>
<rscale>  2 0.20263095E+02</rscale>
<asrwt>0</asrwt>
<pdfrwt beam="1">  1       21 0.16805929E-02 0.20263095E+02</pdfrwt>
<pdfrwt beam="2">  1       21 0.58305437E-02 0.20263095E+02</pdfrwt>
<totfact> 0.21023719E+08</totfact>
</mgrwt>
</event>
<event>
 4    1  0.7151341E+004  0.2078435E+02  0.7546771E-02  0.1730166E+00
         21   -1    0    0  501  502  0.00000000000E+00  0.00000000000E+00  0.62842747218E+03  0.62842747218E+03  0.00000000000E+00 0. -1.
         21   -1    0    0  502  503 -0.00000000000E+00 -0.00000000000E+00 -0.73662123612E+00  0.73662123612E+00  0.00000000000E+00 0. -1.
          4    1    1    2  501    0  0.17901821691E+02  0.10560024361E+02  0.39515278723E+03  0.39569902020E+03  0.00000000000E+00 0. -1.
         -4    1    1    2    0  503 -0.17901821691E+02 -0.10560024361E+02  0.23253806371E+03  0.23346507321E+03  0.00000000000E+00 0.  1.
<mgrwt>
<rscale>  2 0.20784353E+02</rscale>
<asrwt>0</asrwt>
<pdfrwt beam="1">  1       21 0.96680721E-01 0.20784353E+02</pdfrwt>
<pdfrwt beam="2">  1       21 0.11332685E-03 0.20784353E+02</pdfrwt>
<totfact> 0.69883862E+07</totfact>
</mgrwt>
</event>
<event>
 4    1  0.7151341E+004  0.2579082E+02  0.7546771E-02  0.1649896E+00
         21   -1    0    0  501  502  0.00000000000E+00  0.00000000000E+00  0.25902290409E+01  0.25902290409E+01  0.00000000000E+00 0.  1.
         21   -1    0    0  502  503 -0.00000000000E+00 -0.00000000000E+00 -0.25680579235E+03  0.25680579235E+03  0.00000000000E+00 0.  1.
          2    1    1    2  501    0 -0.17144489226E+02  0.19267410123E+02 -0.12641065666E+03  0.12901480815E+03  0.00000000000E+00 0. -1.
         -2    1    1    2    0  503  0.17144489226E+02 -0.19267410123E+02 -0.12780490664E+03  0.13038121324E+03  0.00000000000E+00 0.  1.
<mgrwt>
<rscale>  2 0.25790824E+02</rscale>
<asrwt>0</asrwt>
<pdfrwt beam="1">  1       21 0.39849668E-03 0.25790824E+02</pdfrwt>
<pdfrwt beam="2">  1       21 0.39508593E-01 0.25790824E+02</pdfrwt>
<totfact> 0.72442107E+07</totfact>
</mgrwt>
</event>
<event>
 4    1  0.7151341E+004  0.3492730E+02  0.7546771E-02  0.1549247E+00
         21   -1    0    0  503  502  0.00000000000E+00  0.00000000000E+00  0.39825646097E+02  0.39825646097E+02  0.00000000000E+00 0.  1.
         21   -1    0    0  501  503 -0.00000000000E+00 -0.00000000000E+00 -0.35133981660E+02  0.35133981660E+02  0.00000000000E+00 0.  1.
          2    1    1    2  501    0  0.34603152395E+02 -0.47474703589E+01 -0.11071399596E+02  0.36640039840E+02  0.00000000000E+00 0. -1.
         -2    1    1    2    0  502 -0.34603152395E+02  0.47474703589E+01  0.15763064033E+02  0.38319587918E+02  0.00000000000E+00 0.  1.
<mgrwt>
<rscale>  2 0.34927305E+02</rscale>
<asrwt>0</asrwt>
<pdfrwt beam="1">  1       21 0.61270225E-02 0.34927305E+02</pdfrwt>
<pdfrwt beam="2">  1       21 0.54052279E-02 0.34927305E+02</pdfrwt>
<totfact> 0.35827717E+07</totfact>
</mgrwt>
</event>
<event>
 4    1  0.7151341E+004  0.2354559E+02  0.7546771E-02  0.1682816E+00
         21   -1    0    0  501  502  0.00000000000E+00  0.00000000000E+00  0.22261000923E+02  0.22261000923E+02  0.00000000000E+00 0.  1.
         21   -1    0    0  502  503 -0.00000000000E+00 -0.00000000000E+00 -0.64863917522E+02  0.64863917522E+02  0.00000000000E+00 0.  1.
          3    1    1    2  501    0 -0.59145020468E+01  0.22790647703E+02  0.12890296213E+02  0.26843149846E+02  0.00000000000E+00 0. -1.
         -3    1    1    2    0  503  0.59145020468E+01 -0.22790647703E+02 -0.55493212812E+02  0.60281768599E+02  0.00000000000E+00 0.  1.
<mgrwt>
<rscale>  2 0.23545593E+02</rscale>
<asrwt>0</asrwt>
<pdfrwt beam="1">  1       21 0.34247695E-02 0.23545593E+02</pdfrwt>
<pdfrwt beam="2">  1       21 0.99790640E-02 0.23545593E+02</pdfrwt>
<totfact> 0.30574531E+07</totfact>
</mgrwt>
</event>
<event>
 4    1  0.7151341E+004  0.4993133E+02  0.7546771E-02  0.1445712E+00
         21   -1    0    0  503  502  0.00000000000E+00  0.00000000000E+00  0.94312124110E+01  0.94312124110E+01  0.00000000000E+00 0.  1.
         21   -1    0    0  501  503 -0.00000000000E+00 -0.00000000000E+00 -0.35591147414E+03  0.35591147414E+03  0.00000000000E+00 0.  1.
          1    1    1    2  501    0 -0.30732593605E+02 -0.39352835060E+02 -0.26589251227E+03  0.27054013754E+03  0.00000000000E+00 0.  1.
         -1    1    1    2    0  502  0.30732593605E+02  0.39352835060E+02 -0.80587749463E+02  0.94802549019E+02  0.00000000000E+00 0. -1.
<mgrwt>
<rscale>  2 0.49931332E+02</rscale>
<asrwt>0</asrwt>
<pdfrwt beam="1">  1       21 0.14509556E-02 0.49931332E+02</pdfrwt>
<pdfrwt beam="2">  1       21 0.54755619E-01 0.49931332E+02</pdfrwt>
<totfact> 0.60144570E+06</totfact>
</mgrwt>
</event>
<event>
 4    1  0.7151341E+004  0.3119997E+02  0.7546771E-02  0.1585191E+00
         21   -1    0    0  503  502  0.00000000000E+00  0.00000000000E+00  0.66457489824E+01  0.66457489824E+01  0.00000000000E+00 0.  1.
         21   -1    0    0  501  503 -0.00000000000E+00 -0.00000000000E+00 -0.16560590788E+03  0.16560590788E+03  0.00000000000E+00 0.  1.
          4    1    1    2  501    0 -0.14370045982E+02 -0.27693682778E+02 -0.50207599084E+02  0.59112107838E+02  0.00000000000E+00 0. -1.
         -4    1    1    2    0  502  0.14370045982E+02  0.27693682778E+02 -0.10875255981E+03  0.11313954902E+03  0.00000000000E+00 0.  1.
<mgrwt>
<rscale>  2 0.31199973E+02</rscale>
<asrwt>0</asrwt>
<pdfrwt beam="1">  1       21 0.10224229E-02 0.31199973E+02</pdfrwt>
<pdfrwt beam="2">  1       21 0.25477832E-01 0.31199973E+02</pdfrwt>
<totfact> 0.41543837E+07</totfact>
</mgrwt>
</event>
<event>
 4    1  0.7151341E+004  0.2592198E+02  0.7546771E-02  0.1648102E+00
         21   -1    0    0  501  502  0.00000000000E+00  0.00000000000E+00  0.12280665453E+02  0.12280665453E+02  0.00000000000E+00 0.  1.
         21   -1    0    0  502  503 -0.00000000000E+00 -0.00000000000E+00 -0.65964502826E+02  0.65964502826E+02  0.00000000000E+00 0.  1.
          3    1    1    2  501    0 -0.22310429424E+02 -0.13198247135E+02 -0.42997388567E+02  0.50206816391E+02  0.00000000000E+00 0.  1.
         -3    1    1    2    0  503  0.22310429424E+02  0.13198247135E+02 -0.10686448806E+02  0.28038351888E+02  0.00000000000E+00 0. -1.
<mgrwt>
<rscale>  2 0.25921979E+02</rscale>
<asrwt>0</asrwt>
<pdfrwt beam="1">  1       21 0.18893332E-02 0.25921979E+02</pdfrwt>
<pdfrwt beam="2">  1       21 0.10148385E-01 0.25921979E+02</pdfrwt>
<totfact> 0.76614793E+07</totfact>
</mgrwt>
</event>
<event>
 4    1  0.7151341E+004  0.3035452E+02  0.7546771E-02  0.1594203E+00
         21   -1    0    0  503  502  0.00000000000E+00  0.00000000000E+00  0.37542962278E+02  0.37542962278E+02  0.00000000000E+00 0. -1.
         21   -1    0    0  501  503 -0.00000000000E+00 -0.00000000000E+00 -0.49958135988E+02  0.49958135988E+02  0.00000000000E+00 0. -1.
          1    1    1    2  501    0 -0.16809446256E+01  0.30307941082E+02 -0.37413089229E+02  0.48178170504E+02  0.00000000000E+00 0.  1.
         -1    1    1    2    0  502  0.16809446256E+01 -0.30307941082E+02  0.24997915520E+02  0.39322927762E+02  0.00000000000E+00 0. -1.
<mgrwt>
<rscale>  2 0.30354520E+02</rscale>
<asrwt>0</asrwt>
<pdfrwt beam="1">  1       21 0.57758403E-02 0.30354520E+02</pdfrwt>
<pdfrwt beam="2">  1       21 0.76858671E-02 0.30354520E+02</pdfrwt>
<totfact> 0.21595099E+07</totfact>
</mgrwt>
</event>
<event>
 4    1  0.7151341E+004  0.2068443E+02  0.7546771E-02  0.1732050E+00
         21   -1    0    0  501  502  0.00000000000E+00  0.00000000000E+00  0.12967453186E+02  0.12967453186E+02  0.00000000000E+00 0.  1.
         21   -1    0    0  502  503 -0.00000000000E+00 -0.00000000000E+00 -0.44116666381E+02  0.44116666381E+02  0.00000000000E+00 0.  1.
          2    1    1    2  501    0 -0.79459658886E+01  0.19097308247E+02 -0.12430841388E+01  0.20721747377E+02  0.00000000000E+00 0. -1.
         -2    1    1    2    0  503  0.79459658886E+01 -0.19097308247E+02 -0.29906129056E+02  0.36362372190E+02  0.00000000000E+00 0.  1.
<mgrwt>
<rscale>  2 0.20684428E+02</rscale>
<asrwt>0</asrwt>
<pdfrwt beam="1">  1       21 0.19949928E-02 0.20684428E+02</pdfrwt>
<pdfrwt beam="2">  1       21 0.67871794E-02 0.20684428E+02</pdfrwt>
<totfact> 0.12774340E+08</totfact>
</mgrwt>
</event>
<event>
 4    1  0.7151341E+004  0.3188364E+02  0.7546771E-02  0.1578154E+00
         21   -1    0    0  503  502  0.00000000000E+00  0.00000000000E+00  0.15489530511E+02  0.15489530511E+02  0.00000000000E+00 0. -1.
         21   -1    0    0  501  503 -0.00000000000E+00 -0.00000000000E+00 -0.70744936742E+02  0.70744936742E+02  0.00000000000E+00 0. -1.
          2    1    1    2  501    0 -0.25727991729E+02 -0.18831813487E+02 -0.39222251670E+02  0.50546530877E+02  0.00000000000E+00 0. -1.
         -2    1    1    2    0  502  0.25727991729E+02  0.18831813487E+02 -0.16033154560E+02  0.35687936376E+02  0.00000000000E+00 0.  1.
<mgrwt>
<rscale>  2 0.31883644E+02</rscale>
<asrwt>0</asrwt>
<pdfrwt beam="1">  1       21 0.23830047E-02 0.31883644E+02</pdfrwt>
<pdfrwt beam="2">  1       21 0.10883836E-01 0.31883644E+02</pdfrwt>
<totfact> 0.49908132E+07</totfact>
</mgrwt>
</event>
<event>
 4    1  0.7151341E+004  0.2248185E+02  0.7546771E-02  0.1700049E+00
         21   -1    0    0  501  502  0.00000000000E+00  0.00000000000E+00  0.41832984044E+00  0.41832984044E+00  0.00000000000E+00 0. -1.
         21   -1    0    0  502  503 -0.00000000000E+00 -0.00000000000E+00 -0.12092956593E+04  0.12092956593E+04  0.00000000000E+00 0. -1.
          5    1    1    2  501    0  0.50224042939E+01  0.21913674793E+02 -0.58638332442E+03  0.58681414165E+03  0.00000000000E+00 0.  1.
         -5    1    1    2    0  503 -0.50224042939E+01 -0.21913674793E+02 -0.62249400505E+03  0.62289984750E+03  0.00000000000E+00 0. -1.
<mgrwt>
<rscale>  2 0.22481852E+02</rscale>
<asrwt>0</asrwt>
<pdfrwt beam="1">  1       21 0.64359444E-04 0.22481852E+02</pdfrwt>
<pdfrwt beam="2">  1       21 0.18604257E+00 0.22481852E+02</pdfrwt>
<totfact> 0.34781380E+07</totfact>
</mgrwt>
</event>
<event>
 4    1  0.7151341E+004  0.2358532E+02  0.7546771E-02  0.1682194E+00
         21   -1    0    0  503  502  0.00000000000E+00  0.00000000000E+00  0.22344824555E+03  0.22344824555E+03  0.00000000000E+00 0.  1.
         21   -1    0    0  501  503 -0.00000000000E+00 -0.00000000000E+00 -0.35495983341E+01  0.35495983341E+01  0.00000000000E+00 0.  1.
          3    1    1    2  501    0  0.17253766409E+02 -0.16080265190E+02  0.17197644762E+03  0.17358619162E+03  0.00000000000E+00 0. -1.
         -3    1    1    2    0  502 -0.17253766409E+02  0.16080265190E+02  0.47922199595E+02  0.53411652267E+02  0.00000000000E+00 0.  1.
<mgrwt>
<rscale>  2 0.23585321E+02</rscale>
<asrwt>0</asrwt>
<pdfrwt beam="1">  1       21 0.34376642E-01 0.23585321E+02</pdfrwt>
<pdfrwt beam="2">  1       21 0.54609223E-03 0.23585321E+02</pdfrwt>
<totfact> 0.57777111E+07</totfact>
</mgrwt>
</event>
<event>
 4    1  0.7151341E+004  0.2087790E+02  0.7546771E-02  0.1728413E+00
         21   -1    0    0  501  502  0.00000000000E+00  0.00000000000E+00  0.11572030383E+02  0.11572030383E+02  0.00000000000E+00 0. -1.
         21   -1    0    0  502  503 -0.00000000000E+00 -0.00000000000E+00 -0.38964179132E+02  0.38964179132E+02  0.00000000000E+00 0. -1.
          2    1    1    2  501    0  0.11865999651E+02  0.17178027067E+02 -0.90861051786E+01  0.22769362506E+02  0.00000000000E+00 0. -1.
         -2    1    1    2    0  503 -0.11865999651E+02 -0.17178027067E+02 -0.18306043570E+02  0.27766847009E+02  0.00000000000E+00 0.  1.
<mgrwt>
<rscale>  2 0.20877896E+02</rscale>
<asrwt>0</asrwt>
<pdfrwt beam="1">  1       21 0.17803124E-02 0.20877896E+02</pdfrwt>
<pdfrwt beam="2">  1       21 0.59944891E-02 0.20877896E+02</pdfrwt>
<totfact> 0.18602579E+08</totfact>
</mgrwt>
</event>
<event>
 4    1  0.7151341E+004  0.2037974E+02  0.7546771E-02  0.1737880E+00
         21   -1    0    0  503  502  0.00000000000E+00  0.00000000000E+00  0.79573934530E+01  0.79573934530E+01  0.00000000000E+00 0.  1.
         21   -1    0    0  501  503 -0.00000000000E+00 -0.00000000000E+00 -0.68139809163E+02  0.68139809163E+02  0.00000000000E+00 0.  1.
          5    1    1    2  501    0  0.15110849411E+02 -0.13674642633E+02 -0.11685512343E+02  0.23492228923E+02  0.00000000000E+00 0. -1.
         -5    1    1    2    0  502 -0.15110849411E+02  0.13674642633E+02 -0.48496903367E+02  0.52604973693E+02  0.00000000000E+00 0.  1.
<mgrwt>
<rscale>  2 0.20379736E+02</rscale>
<asrwt>0</asrwt>
<pdfrwt beam="1">  1       21 0.12242144E-02 0.20379736E+02</pdfrwt>
<pdfrwt beam="2">  1       21 0.10483047E-01 0.20379736E+02</pdfrwt>
<totfact> 0.13128412E+08</totfact>
</mgrwt>
</event>
<event>
 4    1  0.7151341E+004  0.2095094E+02  0.7546771E-02  0.1727053E+00
         21   -1    0    0  503  502  0.00000000000E+00  0.00000000000E+00  0.64670147359E+02  0.64670147359E+02  0.00000000000E+00 0.  1.
         21   -1    0    0  501  503 -0.00000000000E+00 -0.00000000000E+00 -0.67884420828E+01  0.67884420828E+01  0.00000000000E+00 0.  1.
          3    1    1    2  501    0 -0.16467396591E+02  0.12952483583E+02  0.28497592028E+02  0.35370252090E+02  0.00000000000E+00 0. -1.
         -3    1    1    2    0  502  0.16467396591E+02 -0.12952483583E+02  0.29384113248E+02  0.36088337353E+02  0.00000000000E+00 0.  1.
<mgrwt>
<rscale>  2 0.20950942E+02</rscale>
<asrwt>0</asrwt>
<pdfrwt beam="1">  1       21 0.99492530E-02 0.20950942E+02</pdfrwt>
<pdfrwt beam="2">  1       21 0.10443757E-02 0.20950942E+02</pdfrwt>
<totfact> 0.18319978E+08</totfact>
</mgrwt>
</event>
<event>
 4    1  0.7151341E+004  0.8289097E+02  0.7546771E-02  0.1321042E+00
         21   -1    0    0  503  502  0.00000000000E+00  0.00000000000E+00  0.18291648737E+03  0.18291648737E+03  0.00000000000E+00 0. -1.
         21   -1    0    0  501  503 -0.00000000000E+00 -0.00000000000E+00 -0.38027261389E+02  0.38027261389E+02  0.00000000000E+00 0. -1.
          4    1    1    2  501    0  0.47987727505E+02  0.67587648977E+02  0.84649496630E+02  0.11847552306E+03  0.00000000000E+00 0.  1.
         -4    1    1    2    0  502 -0.47987727505E+02 -0.67587648977E+02  0.60239729355E+02  0.10246822570E+03  0.00000000000E+00 0. -1.
<mgrwt>
<rscale>  2 0.82890966E+02</rscale>
<asrwt>0</asrwt>
<pdfrwt beam="1">  1       21 0.28140998E-01 0.82890966E+02</pdfrwt>
<pdfrwt beam="2">  1       21 0.58503480E-02 0.82890966E+02</pdfrwt>
<totfact> 0.24237298E+06</totfact>
</mgrwt>
</event>
<event>
 4    1  0.7151341E+004  0.2275165E+02  0.7546771E-02  0.1695568E+00
         21   -1    0    0  503  502  0.00000000000E+00  0.00000000000E+00  0.32978041128E+01  0.32978041128E+01  0.00000000000E+00 0.  1.
         21   -1    0    0  501  503 -0.00000000000E+00 -0.00000000000E+00 -0.16362724305E+03  0.16362724305E+03  0.00000000000E+00 0.  1.
          2    1    1    2  501    0  0.20849943483E+02  0.91059041706E+01 -0.63322645474E+02  0.67285920250E+02  0.00000000000E+00 0.  1.
         -2    1    1    2    0  502 -0.20849943483E+02 -0.91059041706E+01 -0.97006793459E+02  0.99639126909E+02  0.00000000000E+00 0. -1.
<mgrwt>
<rscale>  2 0.22751651E+02</rscale>
<asrwt>0</asrwt>
<pdfrwt beam="1">  1       21 0.50735441E-03 0.22751651E+02</pdfrwt>
<pdfrwt beam="2">  1       21 0.25173425E-01 0.22751651E+02</pdfrwt>
<totfact> 0.11235399E+08</totfact>
</mgrwt>
</event>
<event>
 4    1  0.7151341E+004  0.2055518E+02  0.7546771E-02  0.1734508E+00
         21   -1    0    0  501  502  0.00000000000E+00  0.00000000000E+00  0.13978349997E+01  0.13978349997E+01  0.00000000000E+00 0.  1.
         21   -1    0    0  502  503 -0.00000000000E+00 -0.00000000000E+00 -0.30539367391E+03  0.30539367391E+03  0.00000000000E+00 0.  1.
          2    1    1    2  501    0  0.18614958177E+02  0.87177198481E+01 -0.13646949262E+03  0.13800883205E+03  0.00000000000E+00 0.  1.
         -2    1    1    2    0  503 -0.18614958177E+02 -0.87177198481E+01 -0.16752634630E+03  0.16878267687E+03  0.00000000000E+00 0. -1.
<mgrwt>
<rscale>  2 0.20555177E+02</rscale>
<asrwt>0</asrwt>
<pdfrwt beam="1">  1       21 0.21505186E-03 0.20555177E+02</pdfrwt>
<pdfrwt beam="2">  1       21 0.46983573E-01 0.20555177E+02</pdfrwt>
<totfact> 0.12063202E+08</totfact>
</mgrwt>
</event>
<event>
 4    1  0.7151341E+004  0.2759703E+02  0.7546771E-02  0.1626278E+00
         21   -1    0    0  503  502  0.00000000000E+00  0.00000000000E+00  0.77107735366E+03  0.77107735366E+03  0.00000000000E+00 0. -1.
         21   -1    0    0  501  503 -0.00000000000E+00 -0.00000000000E+00 -0.13088846797E+01  0.13088846797E+01  0.00000000000E+00 0. -1.
          3    1    1    2  501    0  0.81209681213E+01 -0.26375096539E+02  0.57619034813E+03  0.57685085864E+03  0.00000000000E+00 0.  1.
         -3    1    1    2    0  502 -0.81209681213E+01  0.26375096539E+02  0.19357812085E+03  0.19553537970E+03  0.00000000000E+00 0. -1.
<mgrwt>
<rscale>  2 0.27597026E+02</rscale>
<asrwt>0</asrwt>
<pdfrwt beam="1">  1       21 0.11862692E+00 0.27597026E+02</pdfrwt>
<pdfrwt beam="2">  1       21 0.20136749E-03 0.27597026E+02</pdfrwt>
<totfact> 0.20568108E+07</totfact>
</mgrwt>
</event>
<event>
 4    1  0.7151341E+004  0.3120404E+02  0.7546771E-02  0.1585149E+00
         21   -1    0    0  503  502  0.00000000000E+00  0.00000000000E+00  0.39955503889E+03  0.39955503889E+03  0.00000000000E+00 0. -1.
         21   -1    0    0  501  503 -0.00000000000E+00 -0.00000000000E+00 -0.28141778195E+01  0.28141778195E+01  0.00000000000E+00 0. -1.
          3    1    1    2  501    0  0.23382987025E+02  0.20662234922E+02  0.27202947027E+03  0.27381330269E+03  0.00000000000E+00 0. -1.
         -3    1    1    2    0  502 -0.23382987025E+02 -0.20662234922E+02  0.12471139080E+03  0.12855591402E+03  0.00000000000E+00 0.  1.
<mgrwt>
<rscale>  2 0.31204039E+02</rscale>
<asrwt>0</asrwt>
<pdfrwt beam="1">  1       21 0.61469961E-01 0.31204039E+02</pdfrwt>
<pdfrwt beam="2">  1       21 0.43295075E-03 0.31204039E+02</pdfrwt>
<totfact> 0.28040759E+07</totfact>
</mgrwt>
</event>
<event>
 4    1  0.7151341E+004  0.3931613E+02  0.7546771E-02  0.1513305E+00
         21   -1    0    0  501  502  0.00000000000E+00  0.00000000000E+00  0.33629573240E+02  0.33629573240E+02  0.00000000000E+00 0. -1.
         21   -1    0    0  502  503 -0.00000000000E+00 -0.00000000000E+00 -0.49454629656E+02  0.49454629656E+02  0.00000000000E+00 0. -1.
          5    1    1    2  501    0  0.21497292754E+01  0.39257317377E+02 -0.18948763840E+02  0.43644174350E+02  0.00000000000E+00 0. -1.
         -5    1    1    2    0  503 -0.21497292754E+01 -0.39257317377E+02  0.31237074241E+01  0.39440028546E+02  0.00000000000E+00 0.  1.
<mgrwt>
<rscale>  2 0.39316133E+02</rscale>
<asrwt>0</asrwt>
<pdfrwt beam="1">  1       21 0.51737805E-02 0.39316133E+02</pdfrwt>
<pdfrwt beam="2">  1       21 0.76084045E-02 0.39316133E+02</pdfrwt>
<totfact> 0.27514496E+07</totfact>
</mgrwt>
</event>
<event>
 4    1  0.7151341E+004  0.3755788E+02  0.7546771E-02  0.1526992E+00
         21   -1    0    0  501  502  0.00000000000E+00  0.00000000000E+00  0.17148315126E+02  0.17148315126E+02  0.00000000000E+00 0.  1.
         21   -1    0    0  502  503 -0.00000000000E+00 -0.00000000000E+00 -0.82304127048E+02  0.82304127048E+02  0.00000000000E+00 0.  1.
          3    1    1    2  501    0 -0.37504924711E+02  0.19936507913E+01 -0.33749207126E+02  0.50493593680E+02  0.00000000000E+00 0. -1.
         -3    1    1    2    0  503  0.37504924711E+02 -0.19936507913E+01 -0.31406604796E+02  0.48958848494E+02  0.00000000000E+00 0.  1.
<mgrwt>
<rscale>  2 0.37557876E+02</rscale>
<asrwt>0</asrwt>
<pdfrwt beam="1">  1       21 0.26382023E-02 0.37557876E+02</pdfrwt>
<pdfrwt beam="2">  1       21 0.12662173E-01 0.37557876E+02</pdfrwt>
<totfact> 0.33983804E+07</totfact>
</mgrwt>
</event>
<event>
 4    1  0.7151341E+004  0.2063496E+02  0.7546771E-02  0.1732988E+00
         21   -1    0    0  501  502  0.00000000000E+00  0.00000000000E+00  0.99903133988E+01  0.99903133988E+01  0.00000000000E+00 0. -1.
         21   -1    0    0  502  503 -0.00000000000E+00 -0.00000000000E+00 -0.49929299274E+02  0.49929299274E+02  0.00000000000E+00 0. -1.
          5    1    1    2  501    0 -0.20413056291E+02  0.30180487559E+01 -0.85075953018E+01  0.22319961094E+02  0.00000000000E+00 0.  1.
         -5    1    1    2    0  503  0.20413056291E+02 -0.30180487559E+01 -0.31431390573E+02  0.37599651578E+02  0.00000000000E+00 0. -1.
<mgrwt>
<rscale>  2 0.20634958E+02</rscale>
<asrwt>0</asrwt>
<pdfrwt beam="1">  1       21 0.15369713E-02 0.20634958E+02</pdfrwt>
<pdfrwt beam="2">  1       21 0.76814307E-02 0.20634958E+02</pdfrwt>
<totfact> 0.15543382E+08</totfact>
</mgrwt>
</event>
<event>
 4    1  0.7151341E+004  0.2355508E+02  0.7546771E-02  0.1682667E+00
         21   -1    0    0  503  502  0.00000000000E+00  0.00000000000E+00  0.35238092319E+02  0.35238092319E+02  0.00000000000E+00 0. -1.
         21   -1    0    0  501  503 -0.00000000000E+00 -0.00000000000E+00 -0.24985401124E+02  0.24985401124E+02  0.00000000000E+00 0. -1.
          5    1    1    2  501    0  0.11440640353E+02  0.20590132029E+02  0.23437940699E+02  0.33229186762E+02  0.00000000000E+00 0.  1.
         -5    1    1    2    0  502 -0.11440640353E+02 -0.20590132029E+02 -0.13185249505E+02  0.26994306680E+02  0.00000000000E+00 0. -1.
<mgrwt>
<rscale>  2 0.23555080E+02</rscale>
<asrwt>0</asrwt>
<pdfrwt beam="1">  1       21 0.54212450E-02 0.23555080E+02</pdfrwt>
<pdfrwt beam="2">  1       21 0.38439078E-02 0.23555080E+02</pdfrwt>
<totfact> 0.68797347E+07</totfact>
</mgrwt>
</event>
<event>
 4    1  0.7151341E+004  0.2143677E+02  0.7546771E-02  0.1718179E+00
         21   -1    0    0  503  502  0.00000000000E+00  0.00000000000E+00  0.32284296283E+03  0.32284296283E+03  0.00000000000E+00 0. -1.
         21   -1    0    0  501  503 -0.00000000000E+00 -0.00000000000E+00 -0.14322412286E+01  0.14322412286E+01  0.00000000000E+00 0. -1.
          3    1    1    2  501    0  0.21342191613E+02 -0.20114573341E+01  0.14796741956E+03  0.14951218129E+03  0.00000000000E+00 0.  1.
         -3    1    1    2    0  502 -0.21342191613E+02  0.20114573341E+01  0.17344330204E+03  0.17476302277E+03  0.00000000000E+00 0. -1.
<mgrwt>
<rscale>  2 0.21436770E+02</rscale>
<asrwt>0</asrwt>
<pdfrwt beam="1">  1       21 0.49668090E-01 0.21436770E+02</pdfrwt>
<pdfrwt beam="2">  1       21 0.22034506E-03 0.21436770E+02</pdfrwt>
<totfact> 0.10586016E+08</totfact>
</mgrwt>
</event>
<event>
 4    1  0.7151341E+004  0.2251853E+02  0.7546771E-02  0.1699436E+00
         21   -1    0    0  503  502  0.00000000000E+00  0.00000000000E+00  0.36005817291E+03  0.36005817291E+03  0.00000000000E+00 0.  1.
         21   -1    0    0  501  503 -0.00000000000E+00 -0.00000000000E+00 -0.55033611938E+01  0.55033611938E+01  0.00000000000E+00 0.  1.
          2    1    1    2  501    0 -0.39184281237E+00 -0.22515123407E+02  0.19609040695E+02  0.29859651702E+02  0.00000000000E+00 0.  1.
         -2    1    1    2    0  502  0.39184281237E+00  0.22515123407E+02  0.33494577102E+03  0.33570188240E+03  0.00000000000E+00 0. -1.
<mgrwt>
<rscale>  2 0.22518533E+02</rscale>
<asrwt>0</asrwt>
<pdfrwt beam="1">  1       21 0.55393547E-01 0.22518533E+02</pdfrwt>
<pdfrwt beam="2">  1       21 0.84667123E-03 0.22518533E+02</pdfrwt>
<totfact> 0.11993244E+07</totfact>
</mgrwt>
</event>
<event>
 4    1  0.7151341E+004  0.2830129E+02  0.7546771E-02  0.1617662E+00
         21   -1    0    0  501  502  0.00000000000E+00  0.00000000000E+00  0.37372387643E+03  0.37372387643E+03  0.00000000000E+00 0.  1.
         21   -1    0    0  502  503 -0.00000000000E+00 -0.00000000000E+00 -0.31186048888E+01  0.31186048888E+01  0.00000000000E+00 0.  1.
          2    1    1    2  501    0 -0.28300170885E+02 -0.25191505348E+00  0.29067901318E+03  0.29205350852E+03  0.00000000000E+00 0.  1.
         -2    1    1    2    0  503  0.28300170885E+02  0.25191505348E+00  0.79926258363E+02  0.84788972805E+02  0.00000000000E+00 0. -1.
<mgrwt>
<rscale>  2 0.28301292E+02</rscale>
<asrwt>0</asrwt>
<pdfrwt beam="1">  1       21 0.57495945E-01 0.28301292E+02</pdfrwt>
<pdfrwt beam="2">  1       21 0.47978566E-03 0.28301292E+02</pdfrwt>
<totfact> 0.27071233E+07</totfact>
</mgrwt>
</event>
<event>
 4    1  0.7151341E+004  0.3437916E+02  0.7546771E-02  0.1554184E+00
         21   -1    0    0  503  502  0.00000000000E+00  0.00000000000E+00  0.65968055635E+00  0.65968055635E+00  0.00000000000E+00 0.  1.
         21   -1    0    0  501  503 -0.00000000000E+00 -0.00000000000E+00 -0.18324037824E+04  0.18324037824E+04  0.00000000000E+00 0.  1.
          5    1    1    2  501    0 -0.27988315379E+02  0.19964496761E+02 -0.77921312875E+03  0.77997117059E+03  0.00000000000E+00 0. -1.
         -5    1    1    2    0  502  0.27988315379E+02 -0.19964496761E+02 -0.10525309730E+04  0.10530922923E+04  0.00000000000E+00 0.  1.
<mgrwt>
<rscale>  2 0.34379164E+02</rscale>
<asrwt>0</asrwt>
<pdfrwt beam="1">  1       21 0.10148925E-03 0.34379164E+02</pdfrwt>
<pdfrwt beam="2">  1       21 0.28190845E+00 0.34379164E+02</pdfrwt>
<totfact> 0.58565757E+06</totfact>
</mgrwt>
</event>
<event>
 4    1  0.7151341E+004  0.2615560E+02  0.7546771E-02  0.1644938E+00
         21   -1    0    0  501  502  0.00000000000E+00  0.00000000000E+00  0.24630987809E+02  0.24630987809E+02  0.00000000000E+00 0.  1.
         21   -1    0    0  502  503 -0.00000000000E+00 -0.00000000000E+00 -0.29516580645E+02  0.29516580645E+02  0.00000000000E+00 0.  1.
          4    1    1    2  501    0  0.21567401678E+02 -0.14797382993E+02 -0.90199806885E+01  0.27667226283E+02  0.00000000000E+00 0. -1.
         -4    1    1    2    0  503 -0.21567401678E+02  0.14797382993E+02  0.41343878533E+01  0.26480342171E+02  0.00000000000E+00 0.  1.
<mgrwt>
<rscale>  2 0.26155599E+02</rscale>
<asrwt>0</asrwt>
<pdfrwt beam="1">  1       21 0.37893827E-02 0.26155599E+02</pdfrwt>
<pdfrwt beam="2">  1       21 0.45410124E-02 0.26155599E+02</pdfrwt>
<totfact> 0.95989315E+07</totfact>
</mgrwt>
</event>
<event>
 4    1  0.7151341E+004  0.3583816E+02  0.7546771E-02  0.1541281E+00
         21   -1    0    0  503  502  0.00000000000E+00  0.00000000000E+00  0.68213003880E+03  0.68213003880E+03  0.00000000000E+00 0.  1.
         21   -1    0    0  501  503 -0.00000000000E+00 -0.00000000000E+00 -0.23885892402E+01  0.23885892402E+01  0.00000000000E+00 0.  1.
          1    1    1    2  501    0 -0.30789651497E+02  0.18340414570E+02  0.49735318483E+03  0.49864272171E+03  0.00000000000E+00 0. -1.
         -1    1    1    2    0  502  0.30789651497E+02 -0.18340414570E+02  0.18238826473E+03  0.18587590634E+03  0.00000000000E+00 0.  1.
<mgrwt>
<rscale>  2 0.35838156E+02</rscale>
<asrwt>0</asrwt>
<pdfrwt beam="1">  1       21 0.10494293E+00 0.35838156E+02</pdfrwt>
<pdfrwt beam="2">  1       21 0.36747581E-03 0.35838156E+02</pdfrwt>
<totfact> 0.11648656E+07</totfact>
</mgrwt>
</event>
<event>
 4    1  0.7151341E+004  0.2744693E+02  0.7546771E-02  0.1628155E+00
         21   -1    0    0  503  502  0.00000000000E+00  0.00000000000E+00  0.61836485765E+02  0.61836485765E+02  0.00000000000E+00 0.  1.
         21   -1    0    0  501  503 -0.00000000000E+00 -0.00000000000E+00 -0.12292916608E+02  0.12292916608E+02  0.00000000000E+00 0.  1.
          4    1    1    2  501    0  0.23980075724E+02  0.13352533909E+02  0.28281675040E+02  0.39410497797E+02  0.00000000000E+00 0. -1.
         -4    1    1    2    0  502 -0.23980075724E+02 -0.13352533909E+02  0.21261894117E+02  0.34718904576E+02  0.00000000000E+00 0.  1.
<mgrwt>
<rscale>  2 0.27446934E+02</rscale>
<asrwt>0</asrwt>
<pdfrwt beam="1">  1       21 0.95133054E-02 0.27446934E+02</pdfrwt>
<pdfrwt beam="2">  1       21 0.18912180E-02 0.27446934E+02</pdfrwt>
<totfact> 0.86412101E+07</totfact>
</mgrwt>
</event>
<event>
 4    1  0.7151341E+004  0.2765946E+02  0.7546771E-02  0.1625501E+00
         21   -1    0    0  503  502  0.00000000000E+00  0.00000000000E+00  0.33754561204E+01  0.33754561204E+01  0.00000000000E+00 0. -1.
         21   -1    0    0  501  503 -0.00000000000E+00 -0.00000000000E+00 -0.23859442346E+03  0.23859442346E+03  0.00000000000E+00 0. -1.
          3    1    1    2  501    0  0.24207235608E+02 -0.13381161147E+02 -0.90539293577E+02  0.94670002698E+02  0.00000000000E+00 0.  1.
         -3    1    1    2    0  502 -0.24207235608E+02  0.13381161147E+02 -0.14467967376E+03  0.14729987688E+03  0.00000000000E+00 0. -1.
<mgrwt>
<rscale>  2 0.27659460E+02</rscale>
<asrwt>0</asrwt>
<pdfrwt beam="1">  1       21 0.51930092E-03 0.27659460E+02</pdfrwt>
<pdfrwt beam="2">  1       21 0.36706836E-01 0.27659460E+02</pdfrwt>
<totfact> 0.57153122E+07</totfact>
</mgrwt>
</event>
<event>
 4    1  0.7151341E+004  0.2816244E+02  0.7546771E-02  0.1619336E+00
         21   -1    0    0  503  502  0.00000000000E+00  0.00000000000E+00  0.53146134524E+01  0.53146134524E+01  0.00000000000E+00 0.  1.
         21   -1    0    0  501  503 -0.00000000000E+00 -0.00000000000E+00 -0.15259213591E+03  0.15259213591E+03  0.00000000000E+00 0.  1.
          5    1    1    2  501    0 -0.11523460489E+02  0.25696947744E+02 -0.85350637824E+02  0.89876886028E+02  0.00000000000E+00 0. -1.
         -5    1    1    2    0  502  0.11523460489E+02 -0.25696947744E+02 -0.61926884637E+02  0.68029863339E+02  0.00000000000E+00 0.  1.
<mgrwt>
<rscale>  2 0.28162444E+02</rscale>
<asrwt>0</asrwt>
<pdfrwt beam="1">  1       21 0.81763281E-03 0.28162444E+02</pdfrwt>
<pdfrwt beam="2">  1       21 0.23475714E-01 0.28162444E+02</pdfrwt>
<totfact> 0.65993277E+07</totfact>
</mgrwt>
</event>
<event>
 4    1  0.7151341E+004  0.2734809E+02  0.7546771E-02  0.1629399E+00
         21   -1    0    0  503  502  0.00000000000E+00  0.00000000000E+00  0.96246172771E+02  0.96246172771E+02  0.00000000000E+00 0. -1.
         21   -1    0    0  501  503 -0.00000000000E+00 -0.00000000000E+00 -0.78311282268E+01  0.78311282268E+01  0.00000000000E+00 0. -1.
          3    1    1    2  501    0  0.22121580673E+02  0.16079610977E+02  0.48771646648E+02  0.55915934557E+02  0.00000000000E+00 0. -1.
         -3    1    1    2    0  502 -0.22121580673E+02 -0.16079610977E+02  0.39643397897E+02  0.48161366441E+02  0.00000000000E+00 0.  1.
<mgrwt>
<rscale>  2 0.27348094E+02</rscale>
<asrwt>0</asrwt>
<pdfrwt beam="1">  1       21 0.14807103E-01 0.27348094E+02</pdfrwt>
<pdfrwt beam="2">  1       21 0.12047890E-02 0.27348094E+02</pdfrwt>
<totfact> 0.81636361E+07</totfact>
</mgrwt>
</event>
<event>
 4    1  0.7151341E+004  0.2634862E+02  0.7546771E-02  0.1642354E+00
         21   -1    0    0  501  502  0.00000000000E+00  0.00000000000E+00  0.47242833872E+02  0.47242833872E+02  0.00000000000E+00 0. -1.
         21   -1    0    0  502  503 -0.00000000000E+00 -0.00000000000E+00 -0.15036466778E+02  0.15036466778E+02  0.00000000000E+00 0. -1.
          3    1    1    2  501    0  0.10711100912E+02 -0.24073266780E+02  0.11412954803E+02  0.28714201949E+02  0.00000000000E+00 0.  1.
         -3    1    1    2    0  503 -0.10711100912E+02  0.24073266780E+02  0.20793412290E+02  0.33565098702E+02  0.00000000000E+00 0. -1.
<mgrwt>
<rscale>  2 0.26348622E+02</rscale>
<asrwt>0</asrwt>
<pdfrwt beam="1">  1       21 0.72681282E-02 0.26348622E+02</pdfrwt>
<pdfrwt beam="2">  1       21 0.23133026E-02 0.26348622E+02</pdfrwt>
<totfact> 0.97541947E+07</totfact>
</mgrwt>
</event>
<event>
 4    1  0.7151341E+004  0.3260027E+02  0.7546771E-02  0.1571005E+00
         21   -1    0    0  501  502  0.00000000000E+00  0.00000000000E+00  0.97484876466E+00  0.97484876466E+00  0.00000000000E+00 0.  1.
         21   -1    0    0  502  503 -0.00000000000E+00 -0.00000000000E+00 -0.11689995817E+04  0.11689995817E+04  0.00000000000E+00 0.  1.
          1    1    1    2  501    0  0.23940818969E+02  0.22127243023E+02 -0.43212977029E+03  0.43335772298E+03  0.00000000000E+00 0.  1.
         -1    1    1    2    0  503 -0.23940818969E+02 -0.22127243023E+02 -0.73589496264E+03  0.73661670747E+03  0.00000000000E+00 0. -1.
<mgrwt>
<rscale>  2 0.32600271E+02</rscale>
<asrwt>0</asrwt>
<pdfrwt beam="1">  1       21 0.14997681E-03 0.32600271E+02</pdfrwt>
<pdfrwt beam="2">  1       21 0.17984600E+00 0.32600271E+02</pdfrwt>
<totfact> 0.11871712E+07</totfact>
</mgrwt>
</event>
<event>
 4    1  0.7151341E+004  0.3715889E+02  0.7546771E-02  0.1530224E+00
         21   -1    0    0  501  502  0.00000000000E+00  0.00000000000E+00  0.38792179306E+01  0.38792179306E+01  0.00000000000E+00 0. -1.
         21   -1    0    0  502  503 -0.00000000000E+00 -0.00000000000E+00 -0.38316775554E+03  0.38316775554E+03  0.00000000000E+00 0. -1.
          4    1    1    2  501    0  0.27209765979E+01 -0.37059131082E+02 -0.13806013109E+03  0.14297336363E+03  0.00000000000E+00 0. -1.
         -4    1    1    2    0  503 -0.27209765979E+01  0.37059131082E+02 -0.24122840652E+03  0.24407360984E+03  0.00000000000E+00 0.  1.
<mgrwt>
<rscale>  2 0.37158887E+02</rscale>
<asrwt>0</asrwt>
<pdfrwt beam="1">  1       21 0.59680292E-03 0.37158887E+02</pdfrwt>
<pdfrwt beam="2">  1       21 0.58948870E-01 0.37158887E+02</pdfrwt>
<totfact> 0.19444634E+07</totfact>
</mgrwt>
</event>
<event>
 4    1  0.7151341E+004  0.2135232E+02  0.7546771E-02  0.1719700E+00
         21   -1    0    0  503  502  0.00000000000E+00  0.00000000000E+00  0.40137513635E+01  0.40137513635E+01  0.00000000000E+00 0.  1.
         21   -1    0    0  501  503 -0.00000000000E+00 -0.00000000000E+00 -0.11661400885E+03  0.11661400885E+03  0.00000000000E+00 0.  1.
          3    1    1    2  501    0  0.57281872726E+01  0.20569628350E+02 -0.46587463987E+02  0.51247571071E+02  0.00000000000E+00 0. -1.
         -3    1    1    2    0  502 -0.57281872726E+01 -0.20569628350E+02 -0.66012793502E+02  0.69380189146E+02  0.00000000000E+00 0.  1.
<mgrwt>
<rscale>  2 0.21352324E+02</rscale>
<asrwt>0</asrwt>
<pdfrwt beam="1">  1       21 0.61750023E-03 0.21352324E+02</pdfrwt>
<pdfrwt beam="2">  1       21 0.17940616E-01 0.21352324E+02</pdfrwt>
<totfact> 0.14940377E+08</totfact>
</mgrwt>
</event>
<event>
 4    1  0.7151341E+004  0.2674826E+02  0.7546771E-02  0.1637090E+00
         21   -1    0    0  503  502  0.00000000000E+00  0.00000000000E+00  0.27580766680E+02  0.27580766680E+02  0.00000000000E+00 0. -1.
         21   -1    0    0  501  503 -0.00000000000E+00 -0.00000000000E+00 -0.31205495569E+02  0.31205495569E+02  0.00000000000E+00 0. -1.
          1    1    1    2  501    0 -0.11231413651E+01 -0.26724665837E+02  0.10260598386E+02  0.28648718817E+02  0.00000000000E+00 0. -1.
         -1    1    1    2    0  502  0.11231413651E+01  0.26724665837E+02 -0.13885327275E+02  0.30137543432E+02  0.00000000000E+00 0.  1.
<mgrwt>
<rscale>  2 0.26748256E+02</rscale>
<asrwt>0</asrwt>
<pdfrwt beam="1">  1       21 0.42431949E-02 0.26748256E+02</pdfrwt>
<pdfrwt beam="2">  1       21 0.48008455E-02 0.26748256E+02</pdfrwt>
<totfact> 0.73847719E+07</totfact>
</mgrwt>
</event>
<event>
 4    1  0.7151341E+004  0.2080450E+02  0.7546771E-02  0.1729787E+00
         21   -1    0    0  501  502  0.00000000000E+00  0.00000000000E+00  0.20993141468E+02  0.20993141468E+02  0.00000000000E+00 0. -1.
         21   -1    0    0  502  503 -0.00000000000E+00 -0.00000000000E+00 -0.21146446833E+02  0.21146446833E+02  0.00000000000E+00 0. -1.
          4    1    1    2  501    0 -0.12437232530E+02 -0.16677608346E+02  0.32554823293E+01  0.21057671722E+02  0.00000000000E+00 0.  1.
         -4    1    1    2    0  503  0.12437232530E+02  0.16677608346E+02 -0.34087876942E+01  0.21081916580E+02  0.00000000000E+00 0. -1.
<mgrwt>
<rscale>  2 0.20804504E+02</rscale>
<asrwt>0</asrwt>
<pdfrwt beam="1">  1       21 0.32297141E-02 0.20804504E+02</pdfrwt>
<pdfrwt beam="2">  1       21 0.32532995E-02 0.20804504E+02</pdfrwt>
<totfact> 0.19483582E+08</totfact>
</mgrwt>
</event>
<event>
 4    1  0.7151341E+004  0.2094919E+02  0.7546771E-02  0.1727085E+00
         21   -1    0    0  501  502  0.00000000000E+00  0.00000000000E+00  0.61808076987E+02  0.61808076987E+02  0.00000000000E+00 0.  1.
         21   -1    0    0  502  503 -0.00000000000E+00 -0.00000000000E+00 -0.71267604602E+01  0.71267604602E+01  0.00000000000E+00 0.  1.
          5    1    1    2  501    0  0.10905530780E+02  0.17886808993E+02  0.29432724652E+02  0.36126912655E+02  0.00000000000E+00 0. -1.
         -5    1    1    2    0  503 -0.10905530780E+02 -0.17886808993E+02  0.25248591875E+02  0.32807924792E+02  0.00000000000E+00 0.  1.
<mgrwt>
<rscale>  2 0.20949189E+02</rscale>
<asrwt>0</asrwt>
<pdfrwt beam="1">  1       21 0.95089346E-02 0.20949189E+02</pdfrwt>
<pdfrwt beam="2">  1       21 0.10964247E-02 0.20949189E+02</pdfrwt>
<totfact> 0.18347207E+08</totfact>
</mgrwt>
</event>
<event>
 4    1  0.7151341E+004  0.2285655E+02  0.7546771E-02  0.1693846E+00
         21   -1    0    0  503  502  0.00000000000E+00  0.00000000000E+00  0.92116220824E+00  0.92116220824E+00  0.00000000000E+00 0.  1.
         21   -1    0    0  501  503 -0.00000000000E+00 -0.00000000000E+00 -0.57870190798E+03  0.57870190798E+03  0.00000000000E+00 0.  1.
          3    1    1    2  501    0  0.18759475005E+02  0.13057722383E+02 -0.32986581059E+03  0.33065673290E+03  0.00000000000E+00 0.  1.
         -3    1    1    2    0  502 -0.18759475005E+02 -0.13057722383E+02 -0.24791493518E+03  0.24896633728E+03  0.00000000000E+00 0. -1.
<mgrwt>
<rscale>  2 0.22856553E+02</rscale>
<asrwt>0</asrwt>
<pdfrwt beam="1">  1       21 0.14171712E-03 0.22856553E+02</pdfrwt>
<pdfrwt beam="2">  1       21 0.89031155E-01 0.22856553E+02</pdfrwt>
<totfact> 0.62007582E+07</totfact>
</mgrwt>
</event>
<event>
 4    1  0.7151341E+004  0.2158670E+02  0.7546771E-02  0.1715499E+00
         21   -1    0    0  503  502  0.00000000000E+00  0.00000000000E+00  0.89286887663E+02  0.89286887663E+02  0.00000000000E+00 0. -1.
         21   -1    0    0  501  503 -0.00000000000E+00 -0.00000000000E+00 -0.54446014571E+01  0.54446014571E+01  0.00000000000E+00 0. -1.
          2    1    1    2  501    0 -0.21123460306E+02 -0.44480156302E+01  0.32278791251E+02  0.38831762553E+02  0.00000000000E+00 0. -1.
         -2    1    1    2    0  502  0.21123460306E+02  0.44480156302E+01  0.51563494955E+02  0.55899726567E+02  0.00000000000E+00 0.  1.
<mgrwt>
<rscale>  2 0.21586695E+02</rscale>
<asrwt>0</asrwt>
<pdfrwt beam="1">  1       21 0.13736443E-01 0.21586695E+02</pdfrwt>
<pdfrwt beam="2">  1       21 0.83763106E-03 0.21586695E+02</pdfrwt>
<totfact> 0.15022040E+08</totfact>
</mgrwt>
</event>
<event>
 4    1  0.7151341E+004  0.2752683E+02  0.7546771E-02  0.1627154E+00
         21   -1    0    0  503  502  0.00000000000E+00  0.00000000000E+00  0.12536286743E+04  0.12536286743E+04  0.00000000000E+00 0. -1.
         21   -1    0    0  501  503 -0.00000000000E+00 -0.00000000000E+00 -0.62240372468E+00  0.62240372468E+00  0.00000000000E+00 0. -1.
          2    1    1    2  501    0  0.98683369613E+00  0.27509130464E+02  0.51992146176E+03  0.52064964467E+03  0.00000000000E+00 0.  1.
         -2    1    1    2    0  502 -0.98683369613E+00 -0.27509130464E+02  0.73308480880E+03  0.73360143333E+03  0.00000000000E+00 0. -1.
<mgrwt>
<rscale>  2 0.27526825E+02</rscale>
<asrwt>0</asrwt>
<pdfrwt beam="1">  1       21 0.19286393E+00 0.27526825E+02</pdfrwt>
<pdfrwt beam="2">  1       21 0.95755423E-04 0.27526825E+02</pdfrwt>
<totfact> 0.18583583E+07</totfact>
</mgrwt>
</event>
<event>
 4    1  0.7151341E+004  0.2138105E+02  0.7546771E-02  0.1719182E+00
         21   -1    0    0  503  502  0.00000000000E+00  0.00000000000E+00  0.30237737702E+01  0.30237737702E+01  0.00000000000E+00 0. -1.
         21   -1    0    0  501  503 -0.00000000000E+00 -0.00000000000E+00 -0.22788110377E+03  0.22788110377E+03  0.00000000000E+00 0. -1.
          1    1    1    2  501    0 -0.17258930897E+02 -0.12620566531E+02 -0.17940717118E+03  0.18067673471E+03  0.00000000000E+00 0. -1.
         -1    1    1    2    0  502  0.17258930897E+02  0.12620566531E+02 -0.45450158821E+02  0.50228142830E+02  0.00000000000E+00 0.  1.
<mgrwt>
<rscale>  2 0.21381052E+02</rscale>
<asrwt>0</asrwt>
<pdfrwt beam="1">  1       21 0.46519605E-03 0.21381052E+02</pdfrwt>
<pdfrwt beam="2">  1       21 0.35058625E-01 0.21381052E+02</pdfrwt>
<totfact> 0.68839833E+07</totfact>
</mgrwt>
</event>
<event>
 4    1  0.7151341E+004  0.2066811E+02  0.7546771E-02  0.1732359E+00
         21   -1    0    0  501  502  0.00000000000E+00  0.00000000000E+00  0.19033029488E+03  0.19033029488E+03  0.00000000000E+00 0. -1.
         21   -1    0    0  502  503 -0.00000000000E+00 -0.00000000000E+00 -0.24854591887E+01  0.24854591887E+01  0.00000000000E+00 0. -1.
          3    1    1    2  501    0  0.90353296650E+01  0.18588532823E+02  0.12394874296E+03  0.12566010352E+03  0.00000000000E+00 0. -1.
         -3    1    1    2    0  503 -0.90353296650E+01 -0.18588532823E+02  0.63896092733E+02  0.67155650553E+02  0.00000000000E+00 0.  1.
<mgrwt>
<rscale>  2 0.20668109E+02</rscale>
<asrwt>0</asrwt>
<pdfrwt beam="1">  1       21 0.29281572E-01 0.20668109E+02</pdfrwt>
<pdfrwt beam="2">  1       21 0.38237849E-03 0.20668109E+02</pdfrwt>
<totfact> 0.12625709E+08</totfact>
</mgrwt>
</event>
<event>
 4    1  0.7151341E+004  0.2135380E+02  0.7546771E-02  0.1719673E+00
         21   -1    0    0  503  502  0.00000000000E+00  0.00000000000E+00  0.22391033845E+02  0.22391033845E+02  0.00000000000E+00 0. -1.
         21   -1    0    0  501  503 -0.00000000000E+00 -0.00000000000E+00 -0.21500329840E+02  0.21500329840E+02  0.00000000000E+00 0. -1.
          5    1    1    2  501    0 -0.36839905510E+01 -0.21033618982E+02  0.54891775423E+01  0.22048038097E+02  0.00000000000E+00 0. -1.
         -5    1    1    2    0  502  0.36839905510E+01  0.21033618982E+02 -0.45984735374E+01  0.21843325587E+02  0.00000000000E+00 0.  1.
<mgrwt>
<rscale>  2 0.21353803E+02</rscale>
<asrwt>0</asrwt>
<pdfrwt beam="1">  1       21 0.34447744E-02 0.21353803E+02</pdfrwt>
<pdfrwt beam="2">  1       21 0.33077430E-02 0.21353803E+02</pdfrwt>
<totfact> 0.17314478E+08</totfact>
</mgrwt>
</event>
<event>
 4    1  0.7151341E+004  0.3000269E+02  0.7546771E-02  0.1598059E+00
         21   -1    0    0  503  502  0.00000000000E+00  0.00000000000E+00  0.12678059030E+02  0.12678059030E+02  0.00000000000E+00 0.  1.
         21   -1    0    0  501  503 -0.00000000000E+00 -0.00000000000E+00 -0.86705123367E+02  0.86705123367E+02  0.00000000000E+00 0.  1.
          4    1    1    2  501    0 -0.23686565166E+02  0.18414885057E+02 -0.58161093449E+02  0.65443671598E+02  0.00000000000E+00 0.  1.
         -4    1    1    2    0  502  0.23686565166E+02 -0.18414885057E+02 -0.15865970889E+02  0.33939510799E+02  0.00000000000E+00 0. -1.
<mgrwt>
<rscale>  2 0.30002689E+02</rscale>
<asrwt>0</asrwt>
<pdfrwt beam="1">  1       21 0.19504707E-02 0.30002689E+02</pdfrwt>
<pdfrwt beam="2">  1       21 0.13339249E-01 0.30002689E+02</pdfrwt>
<totfact> 0.47650169E+07</totfact>
</mgrwt>
</event>
<event>
 4    1  0.7151341E+004  0.3138847E+02  0.7546771E-02  0.1583229E+00
         21   -1    0    0  501  502  0.00000000000E+00  0.00000000000E+00  0.15305140277E+01  0.15305140277E+01  0.00000000000E+00 0.  1.
         21   -1    0    0  502  503 -0.00000000000E+00 -0.00000000000E+00 -0.65956109383E+03  0.65956109383E+03  0.00000000000E+00 0.  1.
          1    1    1    2  501    0  0.28343504457E+02  0.13486357571E+02 -0.38022766483E+03  0.38152105208E+03  0.00000000000E+00 0.  1.
         -1    1    1    2    0  503 -0.28343504457E+02 -0.13486357571E+02 -0.27780291498E+03  0.27957055578E+03  0.00000000000E+00 0. -1.
<mgrwt>
<rscale>  2 0.31388471E+02</rscale>
<asrwt>0</asrwt>
<pdfrwt beam="1">  1       21 0.23546408E-03 0.31388471E+02</pdfrwt>
<pdfrwt beam="2">  1       21 0.10147077E+00 0.31388471E+02</pdfrwt>
<totfact> 0.23759447E+07</totfact>
</mgrwt>
</event>
<event>
 4    1  0.7151341E+004  0.2201378E+02  0.7546771E-02  0.1708014E+00
         21   -1    0    0  501  502  0.00000000000E+00  0.00000000000E+00  0.56950940006E+01  0.56950940006E+01  0.00000000000E+00 0.  1.
         21   -1    0    0  502  503 -0.00000000000E+00 -0.00000000000E+00 -0.10582012570E+03  0.10582012570E+03  0.00000000000E+00 0.  1.
          3    1    1    2  501    0 -0.21991085615E+02  0.99931533642E+00 -0.25385031964E+02  0.33600689360E+02  0.00000000000E+00 0.  1.
         -3    1    1    2    0  503  0.21991085615E+02 -0.99931533642E+00 -0.74739999731E+02  0.77914530336E+02  0.00000000000E+00 0. -1.
<mgrwt>
<rscale>  2 0.22013779E+02</rscale>
<asrwt>0</asrwt>
<pdfrwt beam="1">  1       21 0.87616840E-03 0.22013779E+02</pdfrwt>
<pdfrwt beam="2">  1       21 0.16280018E-01 0.22013779E+02</pdfrwt>
<totfact> 0.10586444E+08</totfact>
</mgrwt>
</event>
<event>
 4    1  0.7151341E+004  0.2956993E+02  0.7546771E-02  0.1602892E+00
         21   -1    0    0  503  502  0.00000000000E+00  0.00000000000E+00  0.39250105146E+03  0.39250105146E+03  0.00000000000E+00 0.  1.
         21   -1    0    0  501  503 -0.00000000000E+00 -0.00000000000E+00 -0.23775230842E+01  0.23775230842E+01  0.00000000000E+00 0.  1.
          3    1    1    2  501    0  0.11858314334E+02 -0.27088023236E+02  0.24462256382E+03  0.24640328600E+03  0.00000000000E+00 0.  1.
         -3    1    1    2    0  502 -0.11858314334E+02  0.27088023236E+02  0.14550096456E+03  0.14847528855E+03  0.00000000000E+00 0. -1.
<mgrwt>
<rscale>  2 0.29569928E+02</rscale>
<asrwt>0</asrwt>
<pdfrwt beam="1">  1       21 0.60384726E-01 0.29569928E+02</pdfrwt>
<pdfrwt beam="2">  1       21 0.36577309E-03 0.29569928E+02</pdfrwt>
<totfact> 0.36951100E+07</totfact>
</mgrwt>
</event>
<event>
 4    1  0.7151341E+004  0.2053650E+02  0.7546771E-02  0.1734865E+00
         21   -1    0    0  503  502  0.00000000000E+00  0.00000000000E+00  0.33973248686E+02  0.33973248686E+02  0.00000000000E+00 0.  1.
         21   -1    0    0  501  503 -0.00000000000E+00 -0.00000000000E+00 -0.16114828974E+02  0.16114828974E+02  0.00000000000E+00 0.  1.
          1    1    1    2  501    0  0.50026374071E+01  0.19917872391E+02  0.20930665469E+02  0.29323041769E+02  0.00000000000E+00 0. -1.
         -1    1    1    2    0  502 -0.50026374071E+01 -0.19917872391E+02 -0.30722457568E+01  0.20765035892E+02  0.00000000000E+00 0.  1.
<mgrwt>
<rscale>  2 0.20536505E+02</rscale>
<asrwt>0</asrwt>
<pdfrwt beam="1">  1       21 0.52266536E-02 0.20536505E+02</pdfrwt>
<pdfrwt beam="2">  1       21 0.24792045E-02 0.20536505E+02</pdfrwt>
<totfact> 0.13868826E+08</totfact>
</mgrwt>
</event>
<event>
 4    1  0.7151341E+004  0.2061441E+02  0.7546771E-02  0.1733379E+00
         21   -1    0    0  503  502  0.00000000000E+00  0.00000000000E+00  0.72162518934E+02  0.72162518934E+02  0.00000000000E+00 0.  1.
         21   -1    0    0  501  503 -0.00000000000E+00 -0.00000000000E+00 -0.59349849931E+01  0.59349849931E+01  0.00000000000E+00 0.  1.
          5    1    1    2  501    0  0.20200110656E+01  0.20515204469E+02  0.36556671672E+02  0.41968372649E+02  0.00000000000E+00 0.  1.
         -5    1    1    2    0  502 -0.20200110656E+01 -0.20515204469E+02  0.29670862269E+02  0.36129131278E+02  0.00000000000E+00 0. -1.
<mgrwt>
<rscale>  2 0.20614414E+02</rscale>
<asrwt>0</asrwt>
<pdfrwt beam="1">  1       21 0.11101925E-01 0.20614414E+02</pdfrwt>
<pdfrwt beam="2">  1       21 0.91307467E-03 0.20614414E+02</pdfrwt>
<totfact> 0.18591503E+08</totfact>
</mgrwt>
</event>
<event>
 4    1  0.7151341E+004  0.3394404E+02  0.7546771E-02  0.1558183E+00
         21   -1    0    0  501  502  0.00000000000E+00  0.00000000000E+00  0.20889487481E+02  0.20889487481E+02  0.00000000000E+00 0.  1.
         21   -1    0    0  502  503 -0.00000000000E+00 -0.00000000000E+00 -0.63566930881E+02  0.63566930881E+02  0.00000000000E+00 0.  1.
          3    1    1    2  501    0  0.14539273723E+02 -0.30672588809E+02 -0.59788599991E+01  0.34466577311E+02  0.00000000000E+00 0.  1.
         -3    1    1    2    0  503 -0.14539273723E+02  0.30672588809E+02 -0.36698583401E+02  0.49989841050E+02  0.00000000000E+00 0. -1.
<mgrwt>
<rscale>  2 0.33944045E+02</rscale>
<asrwt>0</asrwt>
<pdfrwt beam="1">  1       21 0.32137673E-02 0.33944045E+02</pdfrwt>
<pdfrwt beam="2">  1       21 0.97795278E-02 0.33944045E+02</pdfrwt>
<totfact> 0.37812753E+07</totfact>
</mgrwt>
</event>
<event>
 4    1  0.7151341E+004  0.7169080E+02  0.7546771E-02  0.1354436E+00
         21   -1    0    0  501  502  0.00000000000E+00  0.00000000000E+00  0.13588804684E+02  0.13588804684E+02  0.00000000000E+00 0. -1.
         21   -1    0    0  502  503 -0.00000000000E+00 -0.00000000000E+00 -0.37908265377E+03  0.37908265377E+03  0.00000000000E+00 0. -1.
          2    1    1    2  501    0 -0.41852753827E+02 -0.58205817948E+02 -0.17338601048E+03  0.18762270352E+03  0.00000000000E+00 0.  1.
         -2    1    1    2    0  503  0.41852753827E+02  0.58205817948E+02 -0.19210783860E+03  0.20504875493E+03  0.00000000000E+00 0. -1.
<mgrwt>
<rscale>  2 0.71690796E+02</rscale>
<asrwt>0</asrwt>
<pdfrwt beam="1">  1       21 0.20905853E-02 0.71690796E+02</pdfrwt>
<pdfrwt beam="2">  1       21 0.58320410E-01 0.71690796E+02</pdfrwt>
<totfact> 0.30524373E+06</totfact>
</mgrwt>
</event>
<event>
 4    1  0.7151341E+004  0.2617025E+02  0.7546771E-02  0.1644741E+00
         21   -1    0    0  503  502  0.00000000000E+00  0.00000000000E+00  0.15656205361E+03  0.15656205361E+03  0.00000000000E+00 0.  1.
         21   -1    0    0  501  503 -0.00000000000E+00 -0.00000000000E+00 -0.57046748839E+01  0.57046748839E+01  0.00000000000E+00 0.  1.
          1    1    1    2  501    0  0.20240765791E+02 -0.16588959618E+02  0.36251176087E+02  0.44710512732E+02  0.00000000000E+00 0. -1.
         -1    1    1    2    0  502 -0.20240765791E+02  0.16588959618E+02  0.11460620263E+03  0.11755621576E+03  0.00000000000E+00 0.  1.
<mgrwt>
<rscale>  2 0.26170254E+02</rscale>
<asrwt>0</asrwt>
<pdfrwt beam="1">  1       21 0.24086466E-01 0.26170254E+02</pdfrwt>
<pdfrwt beam="2">  1       21 0.87764241E-03 0.26170254E+02</pdfrwt>
<totfact> 0.55708660E+07</totfact>
</mgrwt>
</event>
<event>
 4    1  0.7151341E+004  0.2666814E+02  0.7546771E-02  0.1638137E+00
         21   -1    0    0  501  502  0.00000000000E+00  0.00000000000E+00  0.17328289265E+01  0.17328289265E+01  0.00000000000E+00 0.  1.
         21   -1    0    0  502  503 -0.00000000000E+00 -0.00000000000E+00 -0.45751243233E+03  0.45751243233E+03  0.00000000000E+00 0.  1.
          5    1    1    2  501    0 -0.26569897571E+02 -0.22869199943E+01 -0.30155866647E+03  0.30273555917E+03  0.00000000000E+00 0. -1.
         -5    1    1    2    0  503  0.26569897571E+02  0.22869199943E+01 -0.15422093693E+03  0.15650970209E+03  0.00000000000E+00 0.  1.
<mgrwt>
<rscale>  2 0.26668136E+02</rscale>
<asrwt>0</asrwt>
<pdfrwt beam="1">  1       21 0.26658906E-03 0.26668136E+02</pdfrwt>
<pdfrwt beam="2">  1       21 0.70386530E-01 0.26668136E+02</pdfrwt>
<totfact> 0.42106567E+07</totfact>
</mgrwt>
</event>
<event>
 4    1  0.7151341E+004  0.2816860E+02  0.7546771E-02  0.1619262E+00
         21   -1    0    0  503  502  0.00000000000E+00  0.00000000000E+00  0.31691788760E+02  0.31691788760E+02  0.00000000000E+00 0. -1.
         21   -1    0    0  501  503 -0.00000000000E+00 -0.00000000000E+00 -0.25891981389E+02  0.25891981389E+02  0.00000000000E+00 0. -1.
          3    1    1    2  501    0 -0.17337594525E+02 -0.22200849836E+02  0.81316289900E+01  0.29318821725E+02  0.00000000000E+00 0.  1.
         -3    1    1    2    0  502  0.17337594525E+02  0.22200849836E+02 -0.23318216193E+01  0.28264948424E+02  0.00000000000E+00 0. -1.
<mgrwt>
<rscale>  2 0.28168598E+02</rscale>
<asrwt>0</asrwt>
<pdfrwt beam="1">  1       21 0.48756598E-02 0.28168598E+02</pdfrwt>
<pdfrwt beam="2">  1       21 0.39833818E-02 0.28168598E+02</pdfrwt>
<totfact> 0.80694260E+07</totfact>
</mgrwt>
</event>
<event>
 4    1  0.7151341E+004  0.2805101E+02  0.7546771E-02  0.1620688E+00
         21   -1    0    0  503  502  0.00000000000E+00  0.00000000000E+00  0.29786095163E+02  0.29786095163E+02  0.00000000000E+00 0. -1.
         21   -1    0    0  501  503 -0.00000000000E+00 -0.00000000000E+00 -0.26704306875E+02  0.26704306875E+02  0.00000000000E+00 0. -1.
          4    1    1    2  501    0  0.26327444525E+02  0.96811565222E+01  0.44706457957E+01  0.28405031256E+02  0.00000000000E+00 0.  1.
         -4    1    1    2    0  502 -0.26327444525E+02 -0.96811565222E+01 -0.13888575071E+01  0.28085370782E+02  0.00000000000E+00 0. -1.
<mgrwt>
<rscale>  2 0.28051009E+02</rscale>
<asrwt>0</asrwt>
<pdfrwt beam="1">  1       21 0.45824762E-02 0.28051009E+02</pdfrwt>
<pdfrwt beam="2">  1       21 0.41083549E-02 0.28051009E+02</pdfrwt>
<totfact> 0.84755014E+07</totfact>
</mgrwt>
</event>
<event>
 4    1  0.7151341E+004  0.2422048E+02  0.7546771E-02  0.1672458E+00
         21   -1    0    0  503  502  0.00000000000E+00  0.00000000000E+00  0.64460853709E+02  0.64460853709E+02  0.00000000000E+00 0. -1.
         21   -1    0    0  501  503 -0.00000000000E+00 -0.00000000000E+00 -0.99362759874E+01  0.99362759874E+01  0.00000000000E+00 0. -1.
          2    1    1    2  501    0 -0.24098059626E+02  0.24320889761E+01  0.16474386810E+02  0.29292267842E+02  0.00000000000E+00 0.  1.
         -2    1    1    2    0  502  0.24098059626E+02 -0.24320889761E+01  0.38050190912E+02  0.45104861855E+02  0.00000000000E+00 0. -1.
<mgrwt>
<rscale>  2 0.24220478E+02</rscale>
<asrwt>0</asrwt>
<pdfrwt beam="1">  1       21 0.99170541E-02 0.24220478E+02</pdfrwt>
<pdfrwt beam="2">  1       21 0.15286579E-02 0.24220478E+02</pdfrwt>
<totfact> 0.10815844E+08</totfact>
</mgrwt>
</event>
<event>
 4    1  0.7151341E+004  0.2428990E+02  0.7546771E-02  0.1671416E+00
         21   -1    0    0  503  502  0.00000000000E+00  0.00000000000E+00  0.31405857974E+02  0.31405857974E+02  0.00000000000E+00 0. -1.
         21   -1    0    0  501  503 -0.00000000000E+00 -0.00000000000E+00 -0.20116624184E+02  0.20116624184E+02  0.00000000000E+00 0. -1.
          2    1    1    2  501    0  0.19113184631E+02  0.14989513176E+02 -0.98015254218E+00  0.24309669496E+02  0.00000000000E+00 0. -1.
         -2    1    1    2    0  502 -0.19113184631E+02 -0.14989513176E+02  0.12269386332E+02  0.27212812662E+02  0.00000000000E+00 0.  1.
<mgrwt>
<rscale>  2 0.24289902E+02</rscale>
<asrwt>0</asrwt>
<pdfrwt beam="1">  1       21 0.48316705E-02 0.24289902E+02</pdfrwt>
<pdfrwt beam="2">  1       21 0.30948653E-02 0.24289902E+02</pdfrwt>
<totfact> 0.11716286E+08</totfact>
</mgrwt>
</event>
<event>
 4    1  0.7151341E+004  0.6954833E+02  0.7546771E-02  0.1361636E+00
         21   -1    0    0  501  502  0.00000000000E+00  0.00000000000E+00  0.13758169685E+03  0.13758169685E+03  0.00000000000E+00 0. -1.
         21   -1    0    0  502  503 -0.00000000000E+00 -0.00000000000E+00 -0.39234188412E+02  0.39234188412E+02  0.00000000000E+00 0. -1.
          1    1    1    2  501    0  0.69258392588E+02 -0.63438831763E+01  0.20674372695E+02  0.72556181570E+02  0.00000000000E+00 0. -1.
         -1    1    1    2    0  503 -0.69258392588E+02  0.63438831763E+01  0.77673135744E+02  0.10425970369E+03  0.00000000000E+00 0.  1.
<mgrwt>
<rscale>  2 0.69548327E+02</rscale>
<asrwt>0</asrwt>
<pdfrwt beam="1">  1       21 0.21166415E-01 0.69548327E+02</pdfrwt>
<pdfrwt beam="2">  1       21 0.60360290E-02 0.69548327E+02</pdfrwt>
<totfact> 0.38651166E+06</totfact>
</mgrwt>
</event>
<event>
 4    1  0.7151341E+004  0.2623901E+02  0.7546771E-02  0.1643818E+00
         21   -1    0    0  503  502  0.00000000000E+00  0.00000000000E+00  0.54804000675E+02  0.54804000675E+02  0.00000000000E+00 0. -1.
         21   -1    0    0  501  503 -0.00000000000E+00 -0.00000000000E+00 -0.31805432605E+02  0.31805432605E+02  0.00000000000E+00 0. -1.
          4    1    1    2  501    0 -0.20064800299E+02  0.16908266455E+02 -0.22184279410E+02  0.34360266857E+02  0.00000000000E+00 0. -1.
         -4    1    1    2    0  502  0.20064800299E+02 -0.16908266455E+02  0.45182847479E+02  0.52249166423E+02  0.00000000000E+00 0.  1.
<mgrwt>
<rscale>  2 0.26239011E+02</rscale>
<asrwt>0</asrwt>
<pdfrwt beam="1">  1       21 0.84313847E-02 0.26239011E+02</pdfrwt>
<pdfrwt beam="2">  1       21 0.48931435E-02 0.26239011E+02</pdfrwt>
<totfact> 0.23515571E+07</totfact>
</mgrwt>
</event>
<event>
 4    1  0.7151341E+004  0.2047016E+02  0.7546771E-02  0.1736137E+00
         21   -1    0    0  501  502  0.00000000000E+00  0.00000000000E+00  0.47469322462E+02  0.47469322462E+02  0.00000000000E+00 0. -1.
         21   -1    0    0  502  503 -0.00000000000E+00 -0.00000000000E+00 -0.88618012204E+01  0.88618012204E+01  0.00000000000E+00 0. -1.
          1    1    1    2  501    0 -0.17135011051E+02  0.11199053594E+02  0.21060396103E+02  0.29369502705E+02  0.00000000000E+00 0. -1.
         -1    1    1    2    0  503  0.17135011051E+02 -0.11199053594E+02  0.17547125138E+02  0.26961620977E+02  0.00000000000E+00 0.  1.
<mgrwt>
<rscale>  2 0.20470159E+02</rscale>
<asrwt>0</asrwt>
<pdfrwt beam="1">  1       21 0.73029725E-02 0.20470159E+02</pdfrwt>
<pdfrwt beam="2">  1       21 0.13633541E-02 0.20470159E+02</pdfrwt>
<totfact> 0.20168033E+08</totfact>
</mgrwt>
</event>
<event>
 4    1  0.7151341E+004  0.2009678E+02  0.7546771E-02  0.1743410E+00
         21   -1    0    0  501  502  0.00000000000E+00  0.00000000000E+00  0.14333319466E+02  0.14333319466E+02  0.00000000000E+00 0.  1.
         21   -1    0    0  502  503 -0.00000000000E+00 -0.00000000000E+00 -0.29362510426E+02  0.29362510426E+02  0.00000000000E+00 0.  1.
          5    1    1    2  501    0  0.20095745840E+02 -0.20433828052E+00 -0.11903214449E+02  0.23357381472E+02  0.00000000000E+00 0.  1.
         -5    1    1    2    0  503 -0.20095745840E+02  0.20433828052E+00 -0.31259765122E+01  0.20338448421E+02  0.00000000000E+00 0. -1.
<mgrwt>
<rscale>  2 0.20096785E+02</rscale>
<asrwt>0</asrwt>
<pdfrwt beam="1">  1       21 0.22051261E-02 0.20096785E+02</pdfrwt>
<pdfrwt beam="2">  1       21 0.45173093E-02 0.20096785E+02</pdfrwt>
<totfact> 0.20764580E+08</totfact>
</mgrwt>
</event>
<event>
 4    1  0.7151341E+004  0.2999176E+02  0.7546771E-02  0.1598180E+00
         21   -1    0    0  503  502  0.00000000000E+00  0.00000000000E+00  0.26660130003E+03  0.26660130003E+03  0.00000000000E+00 0.  1.
         21   -1    0    0  501  503 -0.00000000000E+00 -0.00000000000E+00 -0.33743025617E+01  0.33743025617E+01  0.00000000000E+00 0.  1.
          2    1    1    2  501    0 -0.95901936001E+01  0.28417140412E+02  0.13028016980E+03  0.13368780171E+03  0.00000000000E+00 0.  1.
         -2    1    1    2    0  502  0.95901936001E+01 -0.28417140412E+02  0.13294682766E+03  0.13628780088E+03  0.00000000000E+00 0. -1.
<mgrwt>
<rscale>  2 0.29991760E+02</rscale>
<asrwt>0</asrwt>
<pdfrwt beam="1">  1       21 0.41015568E-01 0.29991760E+02</pdfrwt>
<pdfrwt beam="2">  1       21 0.51912368E-03 0.29991760E+02</pdfrwt>
<totfact> 0.47147123E+07</totfact>
</mgrwt>
</event>
<event>
 4    1  0.7151341E+004  0.2271243E+02  0.7546771E-02  0.1696214E+00
         21   -1    0    0  501  502  0.00000000000E+00  0.00000000000E+00  0.81861179618E+01  0.81861179618E+01  0.00000000000E+00 0. -1.
         21   -1    0    0  502  503 -0.00000000000E+00 -0.00000000000E+00 -0.78836149931E+02  0.78836149931E+02  0.00000000000E+00 0. -1.
          4    1    1    2  501    0  0.20800794800E+02  0.91203943681E+01 -0.54816546089E+02  0.59335557491E+02  0.00000000000E+00 0.  1.
         -4    1    1    2    0  503 -0.20800794800E+02 -0.91203943681E+01 -0.15833485881E+02  0.27686710402E+02  0.00000000000E+00 0. -1.
<mgrwt>
<rscale>  2 0.22712434E+02</rscale>
<asrwt>0</asrwt>
<pdfrwt beam="1">  1       21 0.12594027E-02 0.22712434E+02</pdfrwt>
<pdfrwt beam="2">  1       21 0.12128639E-01 0.22712434E+02</pdfrwt>
<totfact> 0.10190082E+08</totfact>
</mgrwt>
</event>
<event>
 4    1  0.7151341E+004  0.2139279E+02  0.7546771E-02  0.1718970E+00
         21   -1    0    0  501  502  0.00000000000E+00  0.00000000000E+00  0.14674474742E+02  0.14674474742E+02  0.00000000000E+00 0.  1.
         21   -1    0    0  502  503 -0.00000000000E+00 -0.00000000000E+00 -0.32237896865E+02  0.32237896865E+02  0.00000000000E+00 0.  1.
          1    1    1    2  501    0  0.18648551538E+02 -0.10482514881E+02 -0.13016889436E+02  0.25041785146E+02  0.00000000000E+00 0. -1.
         -1    1    1    2    0  503 -0.18648551538E+02  0.10482514881E+02 -0.45465326875E+01  0.21870586462E+02  0.00000000000E+00 0.  1.
<mgrwt>
<rscale>  2 0.21392793E+02</rscale>
<asrwt>0</asrwt>
<pdfrwt beam="1">  1       21 0.22576115E-02 0.21392793E+02</pdfrwt>
<pdfrwt beam="2">  1       21 0.49596764E-02 0.21392793E+02</pdfrwt>
<totfact> 0.17629704E+08</totfact>
</mgrwt>
</event>
<event>
 4    1  0.7151341E+004  0.2002698E+02  0.7546771E-02  0.1744792E+00
         21   -1    0    0  503  502  0.00000000000E+00  0.00000000000E+00  0.27955613627E+03  0.27955613627E+03  0.00000000000E+00 0. -1.
         21   -1    0    0  501  503 -0.00000000000E+00 -0.00000000000E+00 -0.61378377370E+01  0.61378377370E+01  0.00000000000E+00 0. -1.
          3    1    1    2  501    0 -0.92287118665E+00  0.20005705037E+02  0.26175149441E+03  0.26251652281E+03  0.00000000000E+00 0. -1.
         -3    1    1    2    0  502  0.92287118665E+00 -0.20005705037E+02  0.11666804122E+02  0.23177451190E+02  0.00000000000E+00 0.  1.
<mgrwt>
<rscale>  2 0.20026980E+02</rscale>
<asrwt>0</asrwt>
<pdfrwt beam="1">  1       21 0.43008626E-01 0.20026980E+02</pdfrwt>
<pdfrwt beam="2">  1       21 0.94428295E-03 0.20026980E+02</pdfrwt>
<totfact> 0.16226319E+07</totfact>
</mgrwt>
</event>
<event>
 4    1  0.7151341E+004  0.2179731E+02  0.7546771E-02  0.1711781E+00
         21   -1    0    0  501  502  0.00000000000E+00  0.00000000000E+00  0.53682795411E+01  0.53682795411E+01  0.00000000000E+00 0. -1.
         21   -1    0    0  502  503 -0.00000000000E+00 -0.00000000000E+00 -0.88696870908E+02  0.88696870908E+02  0.00000000000E+00 0. -1.
          2    1    1    2  501    0  0.63082174692E+01 -0.20864545212E+02 -0.39480269163E+02  0.45097832627E+02  0.00000000000E+00 0. -1.
         -2    1    1    2    0  503 -0.63082174692E+01  0.20864545212E+02 -0.43848322205E+02  0.48967317822E+02  0.00000000000E+00 0.  1.
<mgrwt>
<rscale>  2 0.21797313E+02</rscale>
<asrwt>0</asrwt>
<pdfrwt beam="1">  1       21 0.82588918E-03 0.21797313E+02</pdfrwt>
<pdfrwt beam="2">  1       21 0.13645672E-01 0.21797313E+02</pdfrwt>
<totfact> 0.15559506E+08</totfact>
</mgrwt>
</event>
<event>
 4    1  0.7151341E+004  0.4490023E+02  0.7546771E-02  0.1474965E+00
         21   -1    0    0  501  502  0.00000000000E+00  0.00000000000E+00  0.10009293018E+03  0.10009293018E+03  0.00000000000E+00 0. -1.
         21   -1    0    0  502  503 -0.00000000000E+00 -0.00000000000E+00 -0.20922479245E+02  0.20922479245E+02  0.00000000000E+00 0. -1.
          5    1    1    2  501    0  0.20656365034E+02 -0.39866590351E+02  0.27895623786E+02  0.52860157671E+02  0.00000000000E+00 0. -1.
         -5    1    1    2    0  503 -0.20656365034E+02  0.39866590351E+02  0.51274827151E+02  0.68155251756E+02  0.00000000000E+00 0.  1.
<mgrwt>
<rscale>  2 0.44900228E+02</rscale>
<asrwt>0</asrwt>
<pdfrwt beam="1">  1       21 0.15398912E-01 0.44900228E+02</pdfrwt>
<pdfrwt beam="2">  1       21 0.32188430E-02 0.44900228E+02</pdfrwt>
<totfact> 0.18183727E+07</totfact>
</mgrwt>
</event>
<event>
 4    1  0.7151341E+004  0.2271627E+02  0.7546771E-02  0.1696151E+00
         21   -1    0    0  501  502  0.00000000000E+00  0.00000000000E+00  0.24833577808E+01  0.24833577808E+01  0.00000000000E+00 0. -1.
         21   -1    0    0  502  503 -0.00000000000E+00 -0.00000000000E+00 -0.23358787783E+03  0.23358787783E+03  0.00000000000E+00 0. -1.
          2    1    1    2  501    0 -0.22592090917E+02 -0.23719745740E+01 -0.76329377737E+02  0.79637947871E+02  0.00000000000E+00 0. -1.
         -2    1    1    2    0  503  0.22592090917E+02  0.23719745740E+01 -0.15477514231E+03  0.15643328774E+03  0.00000000000E+00 0.  1.
<mgrwt>
<rscale>  2 0.22716268E+02</rscale>
<asrwt>0</asrwt>
<pdfrwt beam="1">  1       21 0.38205479E-03 0.22716268E+02</pdfrwt>
<pdfrwt beam="2">  1       21 0.35936620E-01 0.22716268E+02</pdfrwt>
<totfact> 0.89173786E+07</totfact>
</mgrwt>
</event>
<event>
 4    1  0.7151341E+004  0.2861877E+02  0.7546771E-02  0.1613878E+00
         21   -1    0    0  501  502  0.00000000000E+00  0.00000000000E+00  0.59990981633E+02  0.59990981633E+02  0.00000000000E+00 0.  1.
         21   -1    0    0  502  503 -0.00000000000E+00 -0.00000000000E+00 -0.15035586776E+02  0.15035586776E+02  0.00000000000E+00 0.  1.
          3    1    1    2  501    0 -0.28110650088E+02  0.53689067715E+01  0.11100600192E+02  0.30696207142E+02  0.00000000000E+00 0. -1.
         -3    1    1    2    0  503  0.28110650088E+02 -0.53689067715E+01  0.33854794664E+02  0.44330361267E+02  0.00000000000E+00 0.  1.
<mgrwt>
<rscale>  2 0.28618767E+02</rscale>
<asrwt>0</asrwt>
<pdfrwt beam="1">  1       21 0.92293817E-02 0.28618767E+02</pdfrwt>
<pdfrwt beam="2">  1       21 0.23131672E-02 0.28618767E+02</pdfrwt>
<totfact> 0.67229280E+07</totfact>
</mgrwt>
</event>
<event>
 4    1  0.7151341E+004  0.2032180E+02  0.7546771E-02  0.1739003E+00
         21   -1    0    0  501  502  0.00000000000E+00  0.00000000000E+00  0.76933487342E+01  0.76933487342E+01  0.00000000000E+00 0. -1.
         21   -1    0    0  502  503 -0.00000000000E+00 -0.00000000000E+00 -0.69648921661E+02  0.69648921661E+02  0.00000000000E+00 0. -1.
          5    1    1    2  501    0  0.20319880226E+02 -0.27929849800E+00 -0.12460661278E+02  0.23837861052E+02  0.00000000000E+00 0.  1.
         -5    1    1    2    0  503 -0.20319880226E+02  0.27929849800E+00 -0.49494911649E+02  0.53504409343E+02  0.00000000000E+00 0. -1.
<mgrwt>
<rscale>  2 0.20321800E+02</rscale>
<asrwt>0</asrwt>
<pdfrwt beam="1">  1       21 0.11835921E-02 0.20321800E+02</pdfrwt>
<pdfrwt beam="2">  1       21 0.10715219E-01 0.20321800E+02</pdfrwt>
<totfact> 0.13309243E+08</totfact>
</mgrwt>
</event>
<event>
 4    1  0.7151341E+004  0.2436119E+02  0.7546771E-02  0.1670351E+00
         21   -1    0    0  501  502  0.00000000000E+00  0.00000000000E+00  0.47460529109E+01  0.47460529109E+01  0.00000000000E+00 0.  1.
         21   -1    0    0  502  503 -0.00000000000E+00 -0.00000000000E+00 -0.12509050849E+03  0.12509050849E+03  0.00000000000E+00 0.  1.
          1    1    1    2  501    0  0.21992679697E+02 -0.10478054231E+02 -0.58926552354E+02  0.63763674244E+02  0.00000000000E+00 0. -1.
         -1    1    1    2    0  503 -0.21992679697E+02  0.10478054231E+02 -0.61417903222E+02  0.66072887154E+02  0.00000000000E+00 0.  1.
<mgrwt>
<rscale>  2 0.24361190E+02</rscale>
<asrwt>0</asrwt>
<pdfrwt beam="1">  1       21 0.73016198E-03 0.24361190E+02</pdfrwt>
<pdfrwt beam="2">  1       21 0.19244694E-01 0.24361190E+02</pdfrwt>
<totfact> 0.10711310E+08</totfact>
</mgrwt>
</event>
<event>
 4    1  0.7151341E+004  0.6098887E+02  0.7546771E-02  0.1393728E+00
         21   -1    0    0  503  502  0.00000000000E+00  0.00000000000E+00  0.27003456003E+02  0.27003456003E+02  0.00000000000E+00 0. -1.
         21   -1    0    0  501  503 -0.00000000000E+00 -0.00000000000E+00 -0.16559073312E+03  0.16559073312E+03  0.00000000000E+00 0. -1.
          1    1    1    2  501    0 -0.56695391210E+02 -0.22478315244E+02 -0.10878115057E+03  0.12471159032E+03  0.00000000000E+00 0.  1.
         -1    1    1    2    0  502  0.56695391210E+02  0.22478315244E+02 -0.29806126549E+02  0.67882598805E+02  0.00000000000E+00 0. -1.
<mgrwt>
<rscale>  2 0.60988868E+02</rscale>
<asrwt>0</asrwt>
<pdfrwt beam="1">  1       21 0.41543778E-02 0.60988868E+02</pdfrwt>
<pdfrwt beam="2">  1       21 0.25475498E-01 0.60988868E+02</pdfrwt>
<totfact> 0.50408654E+06</totfact>
</mgrwt>
</event>
<event>
 4    1  0.7151341E+004  0.2029089E+02  0.7546771E-02  0.1739604E+00
         21   -1    0    0  503  502  0.00000000000E+00  0.00000000000E+00  0.64315235972E+02  0.64315235972E+02  0.00000000000E+00 0. -1.
         21   -1    0    0  501  503 -0.00000000000E+00 -0.00000000000E+00 -0.64888353767E+01  0.64888353767E+01  0.00000000000E+00 0. -1.
          4    1    1    2  501    0  0.11623277336E+01 -0.20257570713E+02  0.24808321154E+02  0.32049539395E+02  0.00000000000E+00 0.  1.
         -4    1    1    2    0  502 -0.11623277336E+01  0.20257570713E+02  0.33018079441E+02  0.38754531953E+02  0.00000000000E+00 0. -1.
<mgrwt>
<rscale>  2 0.20290889E+02</rscale>
<asrwt>0</asrwt>
<pdfrwt beam="1">  1       21 0.98946512E-02 0.20290889E+02</pdfrwt>
<pdfrwt beam="2">  1       21 0.99828241E-03 0.20290889E+02</pdfrwt>
<totfact> 0.19580116E+08</totfact>
</mgrwt>
</event>
<event>
 4    1  0.7151341E+004  0.2702945E+02  0.7546771E-02  0.1633454E+00
         21   -1    0    0  503  502  0.00000000000E+00  0.00000000000E+00  0.78511338663E+02  0.78511338663E+02  0.00000000000E+00 0.  1.
         21   -1    0    0  501  503 -0.00000000000E+00 -0.00000000000E+00 -0.95481740510E+01  0.95481740510E+01  0.00000000000E+00 0.  1.
          4    1    1    2  501    0  0.26998828658E+02 -0.12863466043E+01  0.27462986946E+02  0.38533194631E+02  0.00000000000E+00 0.  1.
         -4    1    1    2    0  502 -0.26998828658E+02  0.12863466043E+01  0.41500177666E+02  0.49526318083E+02  0.00000000000E+00 0. -1.
<mgrwt>
<rscale>  2 0.27029455E+02</rscale>
<asrwt>0</asrwt>
<pdfrwt beam="1">  1       21 0.12078667E-01 0.27029455E+02</pdfrwt>
<pdfrwt beam="2">  1       21 0.14689499E-02 0.27029455E+02</pdfrwt>
<totfact> 0.85069934E+07</totfact>
</mgrwt>
</event>
<event>
 4    1  0.7151341E+004  0.2034758E+02  0.7546771E-02  0.1738503E+00
         21   -1    0    0  501  502  0.00000000000E+00  0.00000000000E+00  0.29108965003E+02  0.29108965003E+02  0.00000000000E+00 0.  1.
         21   -1    0    0  502  503 -0.00000000000E+00 -0.00000000000E+00 -0.14294498411E+02  0.14294498411E+02  0.00000000000E+00 0.  1.
          1    1    1    2  501    0 -0.99252550340E+01 -0.17762696641E+02  0.58750939844E+01  0.21178782042E+02  0.00000000000E+00 0. -1.
         -1    1    1    2    0  503  0.99252550340E+01  0.17762696641E+02  0.89393726073E+01  0.22224681372E+02  0.00000000000E+00 0.  1.
<mgrwt>
<rscale>  2 0.20347582E+02</rscale>
<asrwt>0</asrwt>
<pdfrwt beam="1">  1       21 0.44783023E-02 0.20347582E+02</pdfrwt>
<pdfrwt beam="2">  1       21 0.21991536E-02 0.20347582E+02</pdfrwt>
<totfact> 0.21226509E+08</totfact>
</mgrwt>
</event>
<event>
 4    1  0.7151341E+004  0.2708901E+02  0.7546771E-02  0.1632691E+00
         21   -1    0    0  501  502  0.00000000000E+00  0.00000000000E+00  0.16868045794E+01  0.16868045794E+01  0.00000000000E+00 0.  1.
         21   -1    0    0  502  503 -0.00000000000E+00 -0.00000000000E+00 -0.48704016621E+03  0.48704016621E+03  0.00000000000E+00 0.  1.
          1    1    1    2  501    0 -0.27023933155E+02  0.18765662321E+01 -0.32252917184E+03  0.32366476662E+03  0.00000000000E+00 0.  1.
         -1    1    1    2    0  503  0.27023933155E+02 -0.18765662321E+01 -0.16282418979E+03  0.16506220417E+03  0.00000000000E+00 0. -1.
<mgrwt>
<rscale>  2 0.27089010E+02</rscale>
<asrwt>0</asrwt>
<pdfrwt beam="1">  1       21 0.25950825E-03 0.27089010E+02</pdfrwt>
<pdfrwt beam="2">  1       21 0.74929299E-01 0.27089010E+02</pdfrwt>
<totfact> 0.38580226E+07</totfact>
</mgrwt>
</event>
<event>
 4    1  0.7151341E+004  0.2419040E+02  0.7546771E-02  0.1672910E+00
         21   -1    0    0  503  502  0.00000000000E+00  0.00000000000E+00  0.15901483597E+02  0.15901483597E+02  0.00000000000E+00 0.  1.
         21   -1    0    0  501  503 -0.00000000000E+00 -0.00000000000E+00 -0.39956210689E+02  0.39956210689E+02  0.00000000000E+00 0.  1.
          4    1    1    2  501    0 -0.23998254370E+02 -0.30428987557E+01 -0.19876830773E+02  0.31309165547E+02  0.00000000000E+00 0.  1.
         -4    1    1    2    0  502  0.23998254370E+02  0.30428987557E+01 -0.41778963192E+01  0.24548528740E+02  0.00000000000E+00 0. -1.
<mgrwt>
<rscale>  2 0.24190400E+02</rscale>
<asrwt>0</asrwt>
<pdfrwt beam="1">  1       21 0.24463821E-02 0.24190400E+02</pdfrwt>
<pdfrwt beam="2">  1       21 0.61471092E-02 0.24190400E+02</pdfrwt>
<totfact> 0.11469865E+08</totfact>
</mgrwt>
</event>
<event>
 4    1  0.7151341E+004  0.2040207E+02  0.7546771E-02  0.1737449E+00
         21   -1    0    0  501  502  0.00000000000E+00  0.00000000000E+00  0.12219337416E+02  0.12219337416E+02  0.00000000000E+00 0. -1.
         21   -1    0    0  502  503 -0.00000000000E+00 -0.00000000000E+00 -0.34180818870E+02  0.34180818870E+02  0.00000000000E+00 0. -1.
          1    1    1    2  501    0  0.83919768916E+01  0.18596214068E+02 -0.12334686618E+02  0.23840909122E+02  0.00000000000E+00 0.  1.
         -1    1    1    2    0  503 -0.83919768916E+01 -0.18596214068E+02 -0.96267948356E+01  0.22559247164E+02  0.00000000000E+00 0. -1.
<mgrwt>
<rscale>  2 0.20402070E+02</rscale>
<asrwt>0</asrwt>
<pdfrwt beam="1">  1       21 0.18798981E-02 0.20402070E+02</pdfrwt>
<pdfrwt beam="2">  1       21 0.52585874E-02 0.20402070E+02</pdfrwt>
<totfact> 0.20941418E+08</totfact>
</mgrwt>
</event>
<event>
 4    1  0.7151341E+004  0.4082201E+02  0.7546771E-02  0.1502248E+00
         21   -1    0    0  503  502  0.00000000000E+00  0.00000000000E+00  0.29314930236E+02  0.29314930236E+02  0.00000000000E+00 0. -1.
         21   -1    0    0  501  503 -0.00000000000E+00 -0.00000000000E+00 -0.62685284435E+02  0.62685284435E+02  0.00000000000E+00 0. -1.
          5    1    1    2  501    0  0.18634486992E+00  0.40821588798E+02 -0.30724800676E+02  0.51092565144E+02  0.00000000000E+00 0. -1.
         -5    1    1    2    0  502 -0.18634486992E+00 -0.40821588798E+02 -0.26455535229E+01  0.40907649527E+02  0.00000000000E+00 0.  1.
<mgrwt>
<rscale>  2 0.40822014E+02</rscale>
<asrwt>0</asrwt>
<pdfrwt beam="1">  1       21 0.45099893E-02 0.40822014E+02</pdfrwt>
<pdfrwt beam="2">  1       21 0.96438899E-02 0.40822014E+02</pdfrwt>
<totfact> 0.23270042E+07</totfact>
</mgrwt>
</event>
<event>
 4    1  0.7151341E+004  0.2710249E+02  0.7546771E-02  0.1632519E+00
         21   -1    0    0  503  502  0.00000000000E+00  0.00000000000E+00  0.53546715529E+02  0.53546715529E+02  0.00000000000E+00 0. -1.
         21   -1    0    0  501  503 -0.00000000000E+00 -0.00000000000E+00 -0.14337267009E+02  0.14337267009E+02  0.00000000000E+00 0. -1.
          5    1    1    2  501    0  0.21564958388E+02  0.16416375210E+02  0.26659809772E+02  0.38016973346E+02  0.00000000000E+00 0. -1.
         -5    1    1    2    0  502 -0.21564958388E+02 -0.16416375210E+02  0.12549638748E+02  0.29867009191E+02  0.00000000000E+00 0.  1.
<mgrwt>
<rscale>  2 0.27102487E+02</rscale>
<asrwt>0</asrwt>
<pdfrwt beam="1">  1       21 0.82379561E-02 0.27102487E+02</pdfrwt>
<pdfrwt beam="2">  1       21 0.22057334E-02 0.27102487E+02</pdfrwt>
<totfact> 0.86154224E+07</totfact>
</mgrwt>
</event>
<event>
 4    1  0.7151341E+004  0.2343927E+02  0.7546771E-02  0.1684487E+00
         21   -1    0    0  503  502  0.00000000000E+00  0.00000000000E+00  0.18603895996E+04  0.18603895996E+04  0.00000000000E+00 0.  1.
         21   -1    0    0  501  503 -0.00000000000E+00 -0.00000000000E+00 -0.44146875989E+00  0.44146875989E+00  0.00000000000E+00 0.  1.
          4    1    1    2  501    0 -0.23279942841E+02  0.27283169662E+01  0.39462979307E+03  0.39532527497E+03  0.00000000000E+00 0.  1.
         -4    1    1    2    0  502  0.23279942841E+02 -0.27283169662E+01  0.14653183377E+04  0.14655057933E+04  0.00000000000E+00 0. -1.
<mgrwt>
<rscale>  2 0.23439272E+02</rscale>
<asrwt>0</asrwt>
<pdfrwt beam="1">  1       21 0.28620751E+00 0.23439272E+02</pdfrwt>
<pdfrwt beam="2">  1       21 0.67919760E-04 0.23439272E+02</pdfrwt>
<totfact> 0.98168437E+06</totfact>
</mgrwt>
</event>
<event>
 4    1  0.7151341E+004  0.3365686E+02  0.7546771E-02  0.1560862E+00
         21   -1    0    0  501  502  0.00000000000E+00  0.00000000000E+00  0.96189847244E+01  0.96189847244E+01  0.00000000000E+00 0. -1.
         21   -1    0    0  502  503 -0.00000000000E+00 -0.00000000000E+00 -0.14400080388E+03  0.14400080388E+03  0.00000000000E+00 0. -1.
          5    1    1    2  501    0 -0.28604036029E+02  0.17736782209E+02 -0.34405700884E+02  0.48130412149E+02  0.00000000000E+00 0.  1.
         -5    1    1    2    0  503  0.28604036029E+02 -0.17736782209E+02 -0.99976118267E+02  0.10548937645E+03  0.00000000000E+00 0. -1.
<mgrwt>
<rscale>  2 0.33656861E+02</rscale>
<asrwt>0</asrwt>
<pdfrwt beam="1">  1       21 0.14798438E-02 0.33656861E+02</pdfrwt>
<pdfrwt beam="2">  1       21 0.22153971E-01 0.33656861E+02</pdfrwt>
<totfact> 0.30804137E+07</totfact>
</mgrwt>
</event>
<event>
 4    1  0.7151341E+004  0.2319634E+02  0.7546771E-02  0.1688347E+00
         21   -1    0    0  503  502  0.00000000000E+00  0.00000000000E+00  0.11633576375E+02  0.11633576375E+02  0.00000000000E+00 0. -1.
         21   -1    0    0  501  503 -0.00000000000E+00 -0.00000000000E+00 -0.62973716986E+02  0.62973716986E+02  0.00000000000E+00 0. -1.
          4    1    1    2  501    0  0.39137811411E+01  0.22863782357E+02 -0.44892961103E+02  0.50531655258E+02  0.00000000000E+00 0. -1.
         -4    1    1    2    0  502 -0.39137811411E+01 -0.22863782357E+02 -0.64471795071E+01  0.24075638103E+02  0.00000000000E+00 0.  1.
<mgrwt>
<rscale>  2 0.23196341E+02</rscale>
<asrwt>0</asrwt>
<pdfrwt beam="1">  1       21 0.17897810E-02 0.23196341E+02</pdfrwt>
<pdfrwt beam="2">  1       21 0.96882642E-02 0.23196341E+02</pdfrwt>
<totfact> 0.87293988E+07</totfact>
</mgrwt>
</event>
<event>
 4    1  0.7151341E+004  0.2250459E+02  0.7546771E-02  0.1699669E+00
         21   -1    0    0  503  502  0.00000000000E+00  0.00000000000E+00  0.36671279693E+01  0.36671279693E+01  0.00000000000E+00 0.  1.
         21   -1    0    0  501  503 -0.00000000000E+00 -0.00000000000E+00 -0.14823825008E+03  0.14823825008E+03  0.00000000000E+00 0.  1.
          5    1    1    2  501    0  0.35421722623E+01 -0.22224073859E+02 -0.92141580520E+02  0.94850025324E+02  0.00000000000E+00 0. -1.
         -5    1    1    2    0  502 -0.35421722623E+01  0.22224073859E+02 -0.52429541592E+02  0.57055352727E+02  0.00000000000E+00 0.  1.
<mgrwt>
<rscale>  2 0.22504587E+02</rscale>
<asrwt>0</asrwt>
<pdfrwt beam="1">  1       21 0.56417370E-03 0.22504587E+02</pdfrwt>
<pdfrwt beam="2">  1       21 0.22805878E-01 0.22504587E+02</pdfrwt>
<totfact> 0.11410158E+08</totfact>
</mgrwt>
</event>
<event>
 4    1  0.7151341E+004  0.2169102E+02  0.7546771E-02  0.1713651E+00
         21   -1    0    0  503  502  0.00000000000E+00  0.00000000000E+00  0.46311673191E+00  0.46311673191E+00  0.00000000000E+00 0. -1.
         21   -1    0    0  501  503 -0.00000000000E+00 -0.00000000000E+00 -0.10866158104E+04  0.10866158104E+04  0.00000000000E+00 0. -1.
          2    1    1    2  501    0  0.21447797406E+02 -0.32391584899E+01 -0.40445838074E+03  0.40503960536E+03  0.00000000000E+00 0.  1.
         -2    1    1    2    0  502 -0.21447797406E+02  0.32391584899E+01 -0.68169431290E+03  0.68203932174E+03  0.00000000000E+00 0. -1.
<mgrwt>
<rscale>  2 0.21691016E+02</rscale>
<asrwt>0</asrwt>
<pdfrwt beam="1">  1       21 0.71248341E-04 0.21691016E+02</pdfrwt>
<pdfrwt beam="2">  1       21 0.16717257E+00 0.21691016E+02</pdfrwt>
<totfact> 0.38972076E+07</totfact>
</mgrwt>
</event>
<event>
 4    1  0.7151341E+004  0.2166667E+02  0.7546771E-02  0.1714081E+00
         21   -1    0    0  503  502  0.00000000000E+00  0.00000000000E+00  0.18734996563E+03  0.18734996563E+03  0.00000000000E+00 0. -1.
         21   -1    0    0  501  503 -0.00000000000E+00 -0.00000000000E+00 -0.25068096435E+01  0.25068096435E+01  0.00000000000E+00 0. -1.
          4    1    1    2  501    0  0.10850317040E+02  0.18754070828E+02  0.90432745244E+02  0.92992074742E+02  0.00000000000E+00 0.  1.
         -4    1    1    2    0  502 -0.10850317040E+02 -0.18754070828E+02  0.94410410744E+02  0.96864700533E+02  0.00000000000E+00 0. -1.
<mgrwt>
<rscale>  2 0.21666669E+02</rscale>
<asrwt>0</asrwt>
<pdfrwt beam="1">  1       21 0.28823061E-01 0.21666669E+02</pdfrwt>
<pdfrwt beam="2">  1       21 0.38566317E-03 0.21666669E+02</pdfrwt>
<totfact> 0.13003333E+08</totfact>
</mgrwt>
</event>
<event>
 4    1  0.7151341E+004  0.2442773E+02  0.7546771E-02  0.1669360E+00
         21   -1    0    0  503  502  0.00000000000E+00  0.00000000000E+00  0.56891014804E+02  0.56891014804E+02  0.00000000000E+00 0.  1.
         21   -1    0    0  501  503 -0.00000000000E+00 -0.00000000000E+00 -0.10536162775E+02  0.10536162775E+02  0.00000000000E+00 0.  1.
          3    1    1    2  501    0 -0.16354509157E+02  0.18145087344E+02  0.20915233793E+02  0.32158376344E+02  0.00000000000E+00 0. -1.
         -3    1    1    2    0  502  0.16354509157E+02 -0.18145087344E+02  0.25439618237E+02  0.35268801235E+02  0.00000000000E+00 0.  1.
<mgrwt>
<rscale>  2 0.24427734E+02</rscale>
<asrwt>0</asrwt>
<pdfrwt beam="1">  1       21 0.87524636E-02 0.24427734E+02</pdfrwt>
<pdfrwt beam="2">  1       21 0.16209482E-02 0.24427734E+02</pdfrwt>
<totfact> 0.12185352E+08</totfact>
</mgrwt>
</event>
<event>
 4    1  0.7151341E+004  0.2345990E+02  0.7546771E-02  0.1684162E+00
         21   -1    0    0  503  502  0.00000000000E+00  0.00000000000E+00  0.46709053596E+02  0.46709053596E+02  0.00000000000E+00 0.  1.
         21   -1    0    0  501  503 -0.00000000000E+00 -0.00000000000E+00 -0.11863760229E+02  0.11863760229E+02  0.00000000000E+00 0.  1.
          5    1    1    2  501    0  0.14830264602E+02  0.18177732412E+02  0.19840907235E+02  0.30725043591E+02  0.00000000000E+00 0.  1.
         -5    1    1    2    0  502 -0.14830264602E+02 -0.18177732412E+02  0.15004386133E+02  0.27847770234E+02  0.00000000000E+00 0. -1.
<mgrwt>
<rscale>  2 0.23459896E+02</rscale>
<asrwt>0</asrwt>
<pdfrwt beam="1">  1       21 0.71860082E-02 0.23459896E+02</pdfrwt>
<pdfrwt beam="2">  1       21 0.18251939E-02 0.23459896E+02</pdfrwt>
<totfact> 0.13860543E+08</totfact>
</mgrwt>
</event>
<event>
 4    1  0.7151341E+004  0.2061918E+02  0.7546771E-02  0.1733288E+00
         21   -1    0    0  503  502  0.00000000000E+00  0.00000000000E+00  0.17336432451E+02  0.17336432451E+02  0.00000000000E+00 0. -1.
         21   -1    0    0  501  503 -0.00000000000E+00 -0.00000000000E+00 -0.24659745783E+02  0.24659745783E+02  0.00000000000E+00 0. -1.
          4    1    1    2  501    0 -0.12489044485E+02  0.16406535417E+02 -0.21010674628E+01  0.20725952837E+02  0.00000000000E+00 0. -1.
         -4    1    1    2    0  502  0.12489044485E+02 -0.16406535417E+02 -0.52222458684E+01  0.21270225397E+02  0.00000000000E+00 0.  1.
<mgrwt>
<rscale>  2 0.20619181E+02</rscale>
<asrwt>0</asrwt>
<pdfrwt beam="1">  1       21 0.26671435E-02 0.20619181E+02</pdfrwt>
<pdfrwt beam="2">  1       21 0.37938070E-02 0.20619181E+02</pdfrwt>
<totfact> 0.20560507E+08</totfact>
</mgrwt>
</event>
<event>
 4    1  0.7151341E+004  0.2192342E+02  0.7546771E-02  0.1709580E+00
         21   -1    0    0  501  502  0.00000000000E+00  0.00000000000E+00  0.22294860829E+02  0.22294860829E+02  0.00000000000E+00 0. -1.
         21   -1    0    0  502  503 -0.00000000000E+00 -0.00000000000E+00 -0.82255920922E+02  0.82255920922E+02  0.00000000000E+00 0. -1.
          2    1    1    2  501    0 -0.20531852620E+02  0.76863022172E+01 -0.74886081473E+02  0.78029234343E+02  0.00000000000E+00 0.  1.
         -2    1    1    2    0  503  0.20531852620E+02 -0.76863022172E+01  0.14925021380E+02  0.26521547409E+02  0.00000000000E+00 0. -1.
<mgrwt>
<rscale>  2 0.21923417E+02</rscale>
<asrwt>0</asrwt>
<pdfrwt beam="1">  1       21 0.34299785E-02 0.21923417E+02</pdfrwt>
<pdfrwt beam="2">  1       21 0.12654757E-01 0.21923417E+02</pdfrwt>
<totfact> 0.20195091E+07</totfact>
</mgrwt>
</event>
<event>
 4    1  0.7151341E+004  0.2569590E+02  0.7546771E-02  0.1651203E+00
         21   -1    0    0  503  502  0.00000000000E+00  0.00000000000E+00  0.14196059349E+02  0.14196059349E+02  0.00000000000E+00 0. -1.
         21   -1    0    0  501  503 -0.00000000000E+00 -0.00000000000E+00 -0.56259223325E+02  0.56259223325E+02  0.00000000000E+00 0. -1.
          3    1    1    2  501    0 -0.23237439186E+02  0.10968176774E+02 -0.35695132271E+02  0.43982063952E+02  0.00000000000E+00 0.  1.
         -3    1    1    2    0  502  0.23237439186E+02 -0.10968176774E+02 -0.63680317058E+01  0.26473218722E+02  0.00000000000E+00 0. -1.
<mgrwt>
<rscale>  2 0.25695904E+02</rscale>
<asrwt>0</asrwt>
<pdfrwt beam="1">  1       21 0.21840091E-02 0.25695904E+02</pdfrwt>
<pdfrwt beam="2">  1       21 0.86552652E-02 0.25695904E+02</pdfrwt>
<totfact> 0.79562656E+07</totfact>
</mgrwt>
</event>
<event>
 4    1  0.7151341E+004  0.2169986E+02  0.7546771E-02  0.1713495E+00
         21   -1    0    0  503  502  0.00000000000E+00  0.00000000000E+00  0.66337592896E+03  0.66337592896E+03  0.00000000000E+00 0. -1.
         21   -1    0    0  501  503 -0.00000000000E+00 -0.00000000000E+00 -0.75132912516E+00  0.75132912516E+00  0.00000000000E+00 0. -1.
          2    1    1    2  501    0 -0.16810718244E+02  0.13721654934E+02  0.40935391510E+03  0.40992866681E+03  0.00000000000E+00 0.  1.
         -2    1    1    2    0  502  0.16810718244E+02 -0.13721654934E+02  0.25327068474E+03  0.25419859128E+03  0.00000000000E+00 0. -1.
<mgrwt>
<rscale>  2 0.21699863E+02</rscale>
<asrwt>0</asrwt>
<pdfrwt beam="1">  1       21 0.10205737E+00 0.21699863E+02</pdfrwt>
<pdfrwt beam="2">  1       21 0.11558963E-03 0.21699863E+02</pdfrwt>
<totfact> 0.61015085E+07</totfact>
</mgrwt>
</event>
<event>
 4    1  0.7151341E+004  0.2955170E+02  0.7546771E-02  0.1603098E+00
         21   -1    0    0  503  502  0.00000000000E+00  0.00000000000E+00  0.24388809699E+03  0.24388809699E+03  0.00000000000E+00 0. -1.
         21   -1    0    0  501  503 -0.00000000000E+00 -0.00000000000E+00 -0.47013803559E+01  0.47013803559E+01  0.00000000000E+00 0. -1.
          2    1    1    2  501    0 -0.25422476335E+02 -0.15066532074E+02  0.58909814619E+02  0.65906516751E+02  0.00000000000E+00 0.  1.
         -2    1    1    2    0  502  0.25422476335E+02  0.15066532074E+02  0.18027690201E+03  0.18268296059E+03  0.00000000000E+00 0. -1.
<mgrwt>
<rscale>  2 0.29551695E+02</rscale>
<asrwt>0</asrwt>
<pdfrwt beam="1">  1       21 0.37521236E-01 0.29551695E+02</pdfrwt>
<pdfrwt beam="2">  1       21 0.72328947E-03 0.29551695E+02</pdfrwt>
<totfact> 0.33909073E+07</totfact>
</mgrwt>
</event>
<event>
 4    1  0.7151341E+004  0.2390871E+02  0.7546771E-02  0.1677190E+00
         21   -1    0    0  501  502  0.00000000000E+00  0.00000000000E+00  0.69658101048E+03  0.69658101048E+03  0.00000000000E+00 0.  1.
         21   -1    0    0  502  503 -0.00000000000E+00 -0.00000000000E+00 -0.85436867377E+00  0.85436867377E+00  0.00000000000E+00 0.  1.
          2    1    1    2  501    0 -0.25443247521E+01 -0.23772946344E+02  0.27855334136E+03  0.27957752154E+03  0.00000000000E+00 0. -1.
         -2    1    1    2    0  503  0.25443247521E+01  0.23772946344E+02  0.41717330045E+03  0.41785785762E+03  0.00000000000E+00 0.  1.
<mgrwt>
<rscale>  2 0.23908713E+02</rscale>
<asrwt>0</asrwt>
<pdfrwt beam="1">  1       21 0.10716586E+00 0.23908713E+02</pdfrwt>
<pdfrwt beam="2">  1       21 0.13144189E-03 0.23908713E+02</pdfrwt>
<totfact> 0.46568857E+07</totfact>
</mgrwt>
</event>
<event>
 4    1  0.7151341E+004  0.2340376E+02  0.7546771E-02  0.1685048E+00
         21   -1    0    0  501  502  0.00000000000E+00  0.00000000000E+00  0.12104067631E+04  0.12104067631E+04  0.00000000000E+00 0.  1.
         21   -1    0    0  502  503 -0.00000000000E+00 -0.00000000000E+00 -0.48235742975E+00  0.48235742975E+00  0.00000000000E+00 0.  1.
          4    1    1    2  501    0 -0.19031633769E+02  0.13621040297E+02  0.75553802463E+03  0.75590041836E+03  0.00000000000E+00 0.  1.
         -4    1    1    2    0  503  0.19031633769E+02 -0.13621040297E+02  0.45438638109E+03  0.45498870221E+03  0.00000000000E+00 0. -1.
<mgrwt>
<rscale>  2 0.23403757E+02</rscale>
<asrwt>0</asrwt>
<pdfrwt beam="1">  1       21 0.18621399E+00 0.23403757E+02</pdfrwt>
<pdfrwt beam="2">  1       21 0.74209804E-04 0.23403757E+02</pdfrwt>
<totfact> 0.28555043E+07</totfact>
</mgrwt>
</event>
<event>
 4    1  0.7151341E+004  0.2326887E+02  0.7546771E-02  0.1687189E+00
         21   -1    0    0  501  502  0.00000000000E+00  0.00000000000E+00  0.11820836412E+04  0.11820836412E+04  0.00000000000E+00 0.  1.
         21   -1    0    0  502  503 -0.00000000000E+00 -0.00000000000E+00 -0.45804770527E+00  0.45804770527E+00  0.00000000000E+00 0.  1.
          1    1    1    2  501    0  0.11863369087E+02 -0.20017510533E+02  0.58821583015E+03  0.58867588969E+03  0.00000000000E+00 0.  1.
         -1    1    1    2    0  503 -0.11863369087E+02  0.20017510533E+02  0.59340976338E+03  0.59386579925E+03  0.00000000000E+00 0. -1.
<mgrwt>
<rscale>  2 0.23268869E+02</rscale>
<asrwt>0</asrwt>
<pdfrwt beam="1">  1       21 0.18185658E+00 0.23268869E+02</pdfrwt>
<pdfrwt beam="2">  1       21 0.70469824E-04 0.23268869E+02</pdfrwt>
<totfact> 0.32575979E+07</totfact>
</mgrwt>
</event>
<event>
 4    1  0.7151341E+004  0.4046622E+02  0.7546771E-02  0.1504808E+00
         21   -1    0    0  503  502  0.00000000000E+00  0.00000000000E+00  0.17160430421E+02  0.17160430421E+02  0.00000000000E+00 0. -1.
         21   -1    0    0  501  503 -0.00000000000E+00 -0.00000000000E+00 -0.11559077218E+03  0.11559077218E+03  0.00000000000E+00 0. -1.
          4    1    1    2  501    0 -0.16377979655E+02  0.37003742292E+02 -0.76939827815E+02  0.86932458066E+02  0.00000000000E+00 0.  1.
         -4    1    1    2    0  502  0.16377979655E+02 -0.37003742292E+02 -0.21490513943E+02  0.45818744535E+02  0.00000000000E+00 0. -1.
<mgrwt>
<rscale>  2 0.40466222E+02</rscale>
<asrwt>0</asrwt>
<pdfrwt beam="1">  1       21 0.26400663E-02 0.40466222E+02</pdfrwt>
<pdfrwt beam="2">  1       21 0.17783195E-01 0.40466222E+02</pdfrwt>
<totfact> 0.19046557E+07</totfact>
</mgrwt>
</event>
<event>
 4    1  0.7151341E+004  0.2438381E+02  0.7546771E-02  0.1670013E+00
         21   -1    0    0  503  502  0.00000000000E+00  0.00000000000E+00  0.51781564217E+02  0.51781564217E+02  0.00000000000E+00 0. -1.
         21   -1    0    0  501  503 -0.00000000000E+00 -0.00000000000E+00 -0.15578504516E+02  0.15578504516E+02  0.00000000000E+00 0. -1.
          3    1    1    2  501    0  0.16463102600E+02  0.17987116958E+02  0.83115267156E+00  0.24397969965E+02  0.00000000000E+00 0. -1.
         -3    1    1    2    0  502 -0.16463102600E+02 -0.17987116958E+02  0.35371907029E+02  0.42962098768E+02  0.00000000000E+00 0.  1.
<mgrwt>
<rscale>  2 0.24383809E+02</rscale>
<asrwt>0</asrwt>
<pdfrwt beam="1">  1       21 0.79663944E-02 0.24383809E+02</pdfrwt>
<pdfrwt beam="2">  1       21 0.23966930E-02 0.24383809E+02</pdfrwt>
<totfact> 0.77905863E+07</totfact>
</mgrwt>
</event>
<event>
 4    1  0.7151341E+004  0.2285325E+02  0.7546771E-02  0.1693900E+00
         21   -1    0    0  503  502  0.00000000000E+00  0.00000000000E+00  0.33538450770E+03  0.33538450770E+03  0.00000000000E+00 0. -1.
         21   -1    0    0  501  503 -0.00000000000E+00 -0.00000000000E+00 -0.18912601724E+01  0.18912601724E+01  0.00000000000E+00 0. -1.
          3    1    1    2  501    0  0.55521715251E+01  0.22168543478E+02  0.95875040013E+02  0.98561119241E+02  0.00000000000E+00 0. -1.
         -3    1    1    2    0  502 -0.55521715251E+01 -0.22168543478E+02  0.23761820751E+03  0.23871464863E+03  0.00000000000E+00 0.  1.
<mgrwt>
<rscale>  2 0.22853248E+02</rscale>
<asrwt>0</asrwt>
<pdfrwt beam="1">  1       21 0.51597569E-01 0.22853248E+02</pdfrwt>
<pdfrwt beam="2">  1       21 0.29096337E-03 0.22853248E+02</pdfrwt>
<totfact> 0.66783703E+07</totfact>
</mgrwt>
</event>
<event>
 4    1  0.7151341E+004  0.2717359E+02  0.7546771E-02  0.1631611E+00
         21   -1    0    0  503  502  0.00000000000E+00  0.00000000000E+00  0.62964406157E+00  0.62964406157E+00  0.00000000000E+00 0.  1.
         21   -1    0    0  501  503 -0.00000000000E+00 -0.00000000000E+00 -0.11880253066E+04  0.11880253066E+04  0.00000000000E+00 0.  1.
          5    1    1    2  501    0  0.24400614421E+02 -0.11958839283E+02 -0.66112917627E+03  0.66168738203E+03  0.00000000000E+00 0. -1.
         -5    1    1    2    0  502 -0.24400614421E+02  0.11958839283E+02 -0.52626648630E+03  0.52696756866E+03  0.00000000000E+00 0.  1.
<mgrwt>
<rscale>  2 0.27173587E+02</rscale>
<asrwt>0</asrwt>
<pdfrwt beam="1">  1       21 0.96868568E-04 0.27173587E+02</pdfrwt>
<pdfrwt beam="2">  1       21 0.18277265E+00 0.27173587E+02</pdfrwt>
<totfact> 0.20934772E+07</totfact>
</mgrwt>
</event>
<event>
 4    1  0.7151341E+004  0.2351045E+02  0.7546771E-02  0.1683367E+00
         21   -1    0    0  501  502  0.00000000000E+00  0.00000000000E+00  0.19668256075E+02  0.19668256075E+02  0.00000000000E+00 0. -1.
         21   -1    0    0  502  503 -0.00000000000E+00 -0.00000000000E+00 -0.28588067287E+02  0.28588067287E+02  0.00000000000E+00 0. -1.
          2    1    1    2  501    0 -0.21166843239E+02 -0.10232589262E+02 -0.13176704097E+01  0.23547343608E+02  0.00000000000E+00 0.  1.
         -2    1    1    2    0  503  0.21166843239E+02  0.10232589262E+02 -0.76021408019E+01  0.24708979754E+02  0.00000000000E+00 0. -1.
<mgrwt>
<rscale>  2 0.23510447E+02</rscale>
<asrwt>0</asrwt>
<pdfrwt beam="1">  1       21 0.30258856E-02 0.23510447E+02</pdfrwt>
<pdfrwt beam="2">  1       21 0.43981642E-02 0.23510447E+02</pdfrwt>
<totfact> 0.13954722E+08</totfact>
</mgrwt>
</event>
<event>
 4    1  0.7151341E+004  0.2019629E+02  0.7546771E-02  0.1741452E+00
         21   -1    0    0  501  502  0.00000000000E+00  0.00000000000E+00  0.20158771120E+01  0.20158771120E+01  0.00000000000E+00 0.  1.
         21   -1    0    0  502  503 -0.00000000000E+00 -0.00000000000E+00 -0.20237850092E+03  0.20237850092E+03  0.00000000000E+00 0.  1.
          3    1    1    2  501    0  0.22811705597E+01  0.20067050259E+02 -0.98750725009E+02  0.10079482097E+03  0.00000000000E+00 0. -1.
         -3    1    1    2    0  503 -0.22811705597E+01 -0.20067050259E+02 -0.10161189880E+03  0.10359955706E+03  0.00000000000E+00 0.  1.
<mgrwt>
<rscale>  2 0.20196293E+02</rscale>
<asrwt>0</asrwt>
<pdfrwt beam="1">  1       21 0.31013504E-03 0.20196293E+02</pdfrwt>
<pdfrwt beam="2">  1       21 0.31135144E-01 0.20196293E+02</pdfrwt>
<totfact> 0.15221397E+08</totfact>
</mgrwt>
</event>
<event>
 4    1  0.7151341E+004  0.2079856E+02  0.7546771E-02  0.1729899E+00
         21   -1    0    0  501  502  0.00000000000E+00  0.00000000000E+00  0.23618152182E+01  0.23618152182E+01  0.00000000000E+00 0.  1.
         21   -1    0    0  502  503 -0.00000000000E+00 -0.00000000000E+00 -0.19946568236E+03  0.19946568236E+03  0.00000000000E+00 0.  1.
          3    1    1    2  501    0  0.20342905840E+02  0.43296965015E+01 -0.12740832579E+03  0.12909477747E+03  0.00000000000E+00 0.  1.
         -3    1    1    2    0  503 -0.20342905840E+02 -0.43296965015E+01 -0.69695541350E+02  0.72732720105E+02  0.00000000000E+00 0. -1.
<mgrwt>
<rscale>  2 0.20798560E+02</rscale>
<asrwt>0</asrwt>
<pdfrwt beam="1">  1       21 0.36335614E-03 0.20798560E+02</pdfrwt>
<pdfrwt beam="2">  1       21 0.30687032E-01 0.20798560E+02</pdfrwt>
<totfact> 0.12517354E+08</totfact>
</mgrwt>
</event>
<event>
 4    1  0.7151341E+004  0.2100940E+02  0.7546771E-02  0.1725969E+00
         21   -1    0    0  503  502  0.00000000000E+00  0.00000000000E+00  0.12258122711E+02  0.12258122711E+02  0.00000000000E+00 0. -1.
         21   -1    0    0  501  503 -0.00000000000E+00 -0.00000000000E+00 -0.36650858690E+02  0.36650858690E+02  0.00000000000E+00 0. -1.
          2    1    1    2  501    0  0.69133780528E+01 -0.19839358697E+02 -0.89585593578E+01  0.22839674590E+02  0.00000000000E+00 0. -1.
         -2    1    1    2    0  502 -0.69133780528E+01  0.19839358697E+02 -0.15434176622E+02  0.26069306811E+02  0.00000000000E+00 0.  1.
<mgrwt>
<rscale>  2 0.21009401E+02</rscale>
<asrwt>0</asrwt>
<pdfrwt beam="1">  1       21 0.18858651E-02 0.21009401E+02</pdfrwt>
<pdfrwt beam="2">  1       21 0.56385936E-02 0.21009401E+02</pdfrwt>
<totfact> 0.18826559E+08</totfact>
</mgrwt>
</event>
<event>
 4    1  0.7151341E+004  0.3183932E+02  0.7546771E-02  0.1578604E+00
         21   -1    0    0  501  502  0.00000000000E+00  0.00000000000E+00  0.63606079973E+01  0.63606079973E+01  0.00000000000E+00 0. -1.
         21   -1    0    0  502  503 -0.00000000000E+00 -0.00000000000E+00 -0.19105771069E+03  0.19105771069E+03  0.00000000000E+00 0. -1.
          4    1    1    2  501    0 -0.47904114598E+01  0.31476887523E+02 -0.52154281300E+02  0.61104922453E+02  0.00000000000E+00 0. -1.
         -4    1    1    2    0  503  0.47904114598E+01 -0.31476887523E+02 -0.13254282140E+03  0.13631339624E+03  0.00000000000E+00 0.  1.
<mgrwt>
<rscale>  2 0.31839323E+02</rscale>
<asrwt>0</asrwt>
<pdfrwt beam="1">  1       21 0.97855501E-03 0.31839323E+02</pdfrwt>
<pdfrwt beam="2">  1       21 0.29393496E-01 0.31839323E+02</pdfrwt>
<totfact> 0.34347330E+07</totfact>
</mgrwt>
</event>
<event>
 4    1  0.7151341E+004  0.2078472E+02  0.7546771E-02  0.1730159E+00
         21   -1    0    0  503  502  0.00000000000E+00  0.00000000000E+00  0.88717077951E+01  0.88717077951E+01  0.00000000000E+00 0. -1.
         21   -1    0    0  501  503 -0.00000000000E+00 -0.00000000000E+00 -0.53079256500E+02  0.53079256500E+02  0.00000000000E+00 0. -1.
          4    1    1    2  501    0  0.64307687902E+01 -0.19764859515E+02 -0.31006486895E+02  0.37328363056E+02  0.00000000000E+00 0. -1.
         -4    1    1    2    0  502 -0.64307687902E+01  0.19764859515E+02 -0.13201061810E+02  0.24622601239E+02  0.00000000000E+00 0.  1.
<mgrwt>
<rscale>  2 0.20784717E+02</rscale>
<asrwt>0</asrwt>
<pdfrwt beam="1">  1       21 0.13648781E-02 0.20784717E+02</pdfrwt>
<pdfrwt beam="2">  1       21 0.81660393E-02 0.20784717E+02</pdfrwt>
<totfact> 0.16880735E+08</totfact>
</mgrwt>
</event>
<event>
 4    1  0.7151341E+004  0.2018031E+02  0.7546771E-02  0.1741766E+00
         21   -1    0    0  501  502  0.00000000000E+00  0.00000000000E+00  0.22027770085E+01  0.22027770085E+01  0.00000000000E+00 0. -1.
         21   -1    0    0  502  503 -0.00000000000E+00 -0.00000000000E+00 -0.20300968097E+03  0.20300968097E+03  0.00000000000E+00 0. -1.
          3    1    1    2  501    0  0.18381783772E+02 -0.83279655328E+01 -0.69739049048E+02  0.72600137374E+02  0.00000000000E+00 0. -1.
         -3    1    1    2    0  503 -0.18381783772E+02  0.83279655328E+01 -0.13106785491E+03  0.13261232061E+03  0.00000000000E+00 0.  1.
<mgrwt>
<rscale>  2 0.20180312E+02</rscale>
<asrwt>0</asrwt>
<pdfrwt beam="1">  1       21 0.33888882E-03 0.20180312E+02</pdfrwt>
<pdfrwt beam="2">  1       21 0.31232254E-01 0.20180312E+02</pdfrwt>
<totfact> 0.13302578E+08</totfact>
</mgrwt>
</event>
<event>
 4    1  0.7151341E+004  0.4094424E+02  0.7546771E-02  0.1501376E+00
         21   -1    0    0  501  502  0.00000000000E+00  0.00000000000E+00  0.73992189516E+02  0.73992189516E+02  0.00000000000E+00 0.  1.
         21   -1    0    0  502  503 -0.00000000000E+00 -0.00000000000E+00 -0.23513380201E+02  0.23513380201E+02  0.00000000000E+00 0.  1.
          3    1    1    2  501    0 -0.64675085314E+00 -0.40939135905E+02  0.15934559789E+02  0.43935649887E+02  0.00000000000E+00 0.  1.
         -3    1    1    2    0  503  0.64675085314E+00  0.40939135905E+02  0.34544249526E+02  0.53569919830E+02  0.00000000000E+00 0. -1.
<mgrwt>
<rscale>  2 0.40944244E+02</rscale>
<asrwt>0</asrwt>
<pdfrwt beam="1">  1       21 0.11383414E-01 0.40944244E+02</pdfrwt>
<pdfrwt beam="2">  1       21 0.36174431E-02 0.40944244E+02</pdfrwt>
<totfact> 0.25061234E+07</totfact>
</mgrwt>
</event>
<event>
 4    1  0.7151341E+004  0.2136706E+02  0.7546771E-02  0.1719434E+00
         21   -1    0    0  503  502  0.00000000000E+00  0.00000000000E+00  0.61219928001E+02  0.61219928001E+02  0.00000000000E+00 0. -1.
         21   -1    0    0  501  503 -0.00000000000E+00 -0.00000000000E+00 -0.91203830954E+01  0.91203830954E+01  0.00000000000E+00 0. -1.
          2    1    1    2  501    0  0.16712258900E+02 -0.13313582604E+02  0.11032494676E+02  0.24047183163E+02  0.00000000000E+00 0.  1.
         -2    1    1    2    0  502 -0.16712258900E+02  0.13313582604E+02  0.41067050229E+02  0.46293127933E+02  0.00000000000E+00 0. -1.
<mgrwt>
<rscale>  2 0.21367056E+02</rscale>
<asrwt>0</asrwt>
<pdfrwt beam="1">  1       21 0.94184502E-02 0.21367056E+02</pdfrwt>
<pdfrwt beam="2">  1       21 0.14031359E-02 0.21367056E+02</pdfrwt>
<totfact> 0.12930716E+08</totfact>
</mgrwt>
</event>
<event>
 4    1  0.7151341E+004  0.2140140E+02  0.7546771E-02  0.1718815E+00
         21   -1    0    0  503  502  0.00000000000E+00  0.00000000000E+00  0.27330421420E+00  0.27330421420E+00  0.00000000000E+00 0. -1.
         21   -1    0    0  501  503 -0.00000000000E+00 -0.00000000000E+00 -0.16915326853E+04  0.16915326853E+04  0.00000000000E+00 0. -1.
          3    1    1    2  501    0 -0.15688677271E+02 -0.14556282263E+02 -0.76420906060E+03  0.76450867114E+03  0.00000000000E+00 0.  1.
         -3    1    1    2    0  502  0.15688677271E+02  0.14556282263E+02 -0.92705032049E+03  0.92729731838E+03  0.00000000000E+00 0. -1.
<mgrwt>
<rscale>  2 0.21401401E+02</rscale>
<asrwt>0</asrwt>
<pdfrwt beam="1">  1       21 0.42046961E-04 0.21401401E+02</pdfrwt>
<pdfrwt beam="2">  1       21 0.26023482E+00 0.21401401E+02</pdfrwt>
<totfact> 0.25600053E+07</totfact>
</mgrwt>
</event>
<event>
 4    1  0.7151341E+004  0.2329104E+02  0.7546771E-02  0.1686835E+00
         21   -1    0    0  503  502  0.00000000000E+00  0.00000000000E+00  0.17680407355E+02  0.17680407355E+02  0.00000000000E+00 0.  1.
         21   -1    0    0  501  503 -0.00000000000E+00 -0.00000000000E+00 -0.31485974803E+02  0.31485974803E+02  0.00000000000E+00 0.  1.
          5    1    1    2  501    0 -0.61822569974E+01  0.22455558946E+02 -0.10830749919E+02  0.25686135812E+02  0.00000000000E+00 0.  1.
         -5    1    1    2    0  502  0.61822569974E+01 -0.22455558946E+02 -0.29748175287E+01  0.23480246346E+02  0.00000000000E+00 0. -1.
<mgrwt>
<rscale>  2 0.23291038E+02</rscale>
<asrwt>0</asrwt>
<pdfrwt beam="1">  1       21 0.27200627E-02 0.23291038E+02</pdfrwt>
<pdfrwt beam="2">  1       21 0.48439960E-02 0.23291038E+02</pdfrwt>
<totfact> 0.14090357E+08</totfact>
</mgrwt>
</event>
<event>
 4    1  0.7151341E+004  0.2285689E+02  0.7546771E-02  0.1693840E+00
         21   -1    0    0  501  502  0.00000000000E+00  0.00000000000E+00  0.28053024134E+02  0.28053024134E+02  0.00000000000E+00 0. -1.
         21   -1    0    0  502  503 -0.00000000000E+00 -0.00000000000E+00 -0.26077498509E+02  0.26077498509E+02  0.00000000000E+00 0. -1.
          5    1    1    2  501    0 -0.17620734304E+02 -0.14558407836E+02  0.15458218119E+02  0.27593369196E+02  0.00000000000E+00 0. -1.
         -5    1    1    2    0  503  0.17620734304E+02  0.14558407836E+02 -0.13482692495E+02  0.26537153447E+02  0.00000000000E+00 0.  1.
<mgrwt>
<rscale>  2 0.22856892E+02</rscale>
<asrwt>0</asrwt>
<pdfrwt beam="1">  1       21 0.43158499E-02 0.22856892E+02</pdfrwt>
<pdfrwt beam="2">  1       21 0.40119228E-02 0.22856892E+02</pdfrwt>
<totfact> 0.91649994E+07</totfact>
</mgrwt>
</event>
<event>
 4    1  0.7151341E+004  0.3019721E+02  0.7546771E-02  0.1595919E+00
         21   -1    0    0  501  502  0.00000000000E+00  0.00000000000E+00  0.25821530479E+02  0.25821530479E+02  0.00000000000E+00 0. -1.
         21   -1    0    0  502  503 -0.00000000000E+00 -0.00000000000E+00 -0.54244681170E+02  0.54244681170E+02  0.00000000000E+00 0. -1.
          4    1    1    2  501    0 -0.30169367904E+02  0.12965441700E+01  0.94377778419E+01  0.31637690136E+02  0.00000000000E+00 0.  1.
         -4    1    1    2    0  503  0.30169367904E+02 -0.12965441700E+01 -0.37860928533E+02  0.48428521513E+02  0.00000000000E+00 0. -1.
<mgrwt>
<rscale>  2 0.30197215E+02</rscale>
<asrwt>0</asrwt>
<pdfrwt beam="1">  1       21 0.39725432E-02 0.30197215E+02</pdfrwt>
<pdfrwt beam="2">  1       21 0.83453355E-02 0.30197215E+02</pdfrwt>
<totfact> 0.34350280E+07</totfact>
</mgrwt>
</event>
<event>
 4    1  0.7151341E+004  0.4197594E+02  0.7546771E-02  0.1494154E+00
         21   -1    0    0  503  502  0.00000000000E+00  0.00000000000E+00  0.11572766500E+03  0.11572766500E+03  0.00000000000E+00 0. -1.
         21   -1    0    0  501  503 -0.00000000000E+00 -0.00000000000E+00 -0.15227749579E+02  0.15227749579E+02  0.00000000000E+00 0. -1.
          3    1    1    2  501    0  0.88940148276E+01  0.41022869633E+02  0.49406290069E+02  0.64830246267E+02  0.00000000000E+00 0.  1.
         -3    1    1    2    0  502 -0.88940148276E+01 -0.41022869633E+02  0.51093625354E+02  0.66125168314E+02  0.00000000000E+00 0. -1.
<mgrwt>
<rscale>  2 0.41975938E+02</rscale>
<asrwt>0</asrwt>
<pdfrwt beam="1">  1       21 0.17804256E-01 0.41975938E+02</pdfrwt>
<pdfrwt beam="2">  1       21 0.23427308E-02 0.41975938E+02</pdfrwt>
<totfact> 0.23084371E+07</totfact>
</mgrwt>
</event>
<event>
 4    1  0.7151341E+004  0.2017554E+02  0.7546771E-02  0.1741860E+00
         21   -1    0    0  501  502  0.00000000000E+00  0.00000000000E+00  0.31986374758E+02  0.31986374758E+02  0.00000000000E+00 0. -1.
         21   -1    0    0  502  503 -0.00000000000E+00 -0.00000000000E+00 -0.13167356626E+02  0.13167356626E+02  0.00000000000E+00 0. -1.
          1    1    1    2  501    0 -0.39529940679E+01  0.19784493533E+02  0.52751763611E+01  0.20853772611E+02  0.00000000000E+00 0.  1.
         -1    1    1    2    0  503  0.39529940679E+01 -0.19784493533E+02  0.13543841771E+02  0.24299958773E+02  0.00000000000E+00 0. -1.
<mgrwt>
<rscale>  2 0.20175538E+02</rscale>
<asrwt>0</asrwt>
<pdfrwt beam="1">  1       21 0.49209807E-02 0.20175538E+02</pdfrwt>
<pdfrwt beam="2">  1       21 0.20257472E-02 0.20175538E+02</pdfrwt>
<totfact> 0.20681121E+08</totfact>
</mgrwt>
</event>
<event>
 4    1  0.7151341E+004  0.2061382E+02  0.7546771E-02  0.1733390E+00
         21   -1    0    0  501  502  0.00000000000E+00  0.00000000000E+00  0.55084058177E+01  0.55084058177E+01  0.00000000000E+00 0.  1.
         21   -1    0    0  502  503 -0.00000000000E+00 -0.00000000000E+00 -0.89833566261E+02  0.89833566261E+02  0.00000000000E+00 0.  1.
          3    1    1    2  501    0  0.56658577503E+01  0.19819881787E+02 -0.24244488600E+02  0.31823338693E+02  0.00000000000E+00 0. -1.
         -3    1    1    2    0  503 -0.56658577503E+01 -0.19819881787E+02 -0.60080671843E+02  0.63518633386E+02  0.00000000000E+00 0.  1.
<mgrwt>
<rscale>  2 0.20613822E+02</rscale>
<asrwt>0</asrwt>
<pdfrwt beam="1">  1       21 0.84744705E-03 0.20613822E+02</pdfrwt>
<pdfrwt beam="2">  1       21 0.13820549E-01 0.20613822E+02</pdfrwt>
<totfact> 0.14410798E+08</totfact>
</mgrwt>
</event>
<event>
 4    1  0.7151341E+004  0.2731187E+02  0.7546771E-02  0.1629856E+00
         21   -1    0    0  503  502  0.00000000000E+00  0.00000000000E+00  0.16692416183E+02  0.16692416183E+02  0.00000000000E+00 0. -1.
         21   -1    0    0  501  503 -0.00000000000E+00 -0.00000000000E+00 -0.46842435391E+02  0.46842435391E+02  0.00000000000E+00 0. -1.
          5    1    1    2  501    0  0.12152743170E+02  0.24459134479E+02 -0.21889024731E+02  0.35000968982E+02  0.00000000000E+00 0. -1.
         -5    1    1    2    0  502 -0.12152743170E+02 -0.24459134479E+02 -0.82609944775E+01  0.28533882592E+02  0.00000000000E+00 0.  1.
<mgrwt>
<rscale>  2 0.27311873E+02</rscale>
<asrwt>0</asrwt>
<pdfrwt beam="1">  1       21 0.25680641E-02 0.27311873E+02</pdfrwt>
<pdfrwt beam="2">  1       21 0.72065284E-02 0.27311873E+02</pdfrwt>
<totfact> 0.84868705E+07</totfact>
</mgrwt>
</event>
<event>
 4    1  0.7151341E+004  0.2255516E+02  0.7546771E-02  0.1698824E+00
         21   -1    0    0  503  502  0.00000000000E+00  0.00000000000E+00  0.52992517773E+02  0.52992517773E+02  0.00000000000E+00 0. -1.
         21   -1    0    0  501  503 -0.00000000000E+00 -0.00000000000E+00 -0.12212674401E+02  0.12212674401E+02  0.00000000000E+00 0. -1.
          1    1    1    2  501    0  0.30595116177E+01 -0.22346690217E+02  0.35469126962E+02  0.42033250439E+02  0.00000000000E+00 0. -1.
         -1    1    1    2    0  502 -0.30595116177E+01  0.22346690217E+02  0.53107164102E+01  0.23171941736E+02  0.00000000000E+00 0.  1.
<mgrwt>
<rscale>  2 0.22555159E+02</rscale>
<asrwt>0</asrwt>
<pdfrwt beam="1">  1       21 0.81526949E-02 0.22555159E+02</pdfrwt>
<pdfrwt beam="2">  1       21 0.18788730E-02 0.22555159E+02</pdfrwt>
<totfact> 0.10672783E+08</totfact>
</mgrwt>
</event>
<event>
 4    1  0.7151341E+004  0.2551146E+02  0.7546771E-02  0.1653762E+00
         21   -1    0    0  503  502  0.00000000000E+00  0.00000000000E+00  0.40155594158E+02  0.40155594158E+02  0.00000000000E+00 0. -1.
         21   -1    0    0  501  503 -0.00000000000E+00 -0.00000000000E+00 -0.16278900010E+02  0.16278900010E+02  0.00000000000E+00 0. -1.
          4    1    1    2  501    0 -0.37060426147E+01 -0.25240838047E+02  0.10073794186E+02  0.27428379217E+02  0.00000000000E+00 0. -1.
         -4    1    1    2    0  502  0.37060426147E+01  0.25240838047E+02  0.13802899962E+02  0.29006114951E+02  0.00000000000E+00 0.  1.
<mgrwt>
<rscale>  2 0.25511461E+02</rscale>
<asrwt>0</asrwt>
<pdfrwt beam="1">  1       21 0.61777837E-02 0.25511461E+02</pdfrwt>
<pdfrwt beam="2">  1       21 0.25044462E-02 0.25511461E+02</pdfrwt>
<totfact> 0.11132527E+08</totfact>
</mgrwt>
</event>
<event>
 4    1  0.7151341E+004  0.2040420E+02  0.7546771E-02  0.1737407E+00
         21   -1    0    0  501  502  0.00000000000E+00  0.00000000000E+00  0.11551085208E+02  0.11551085208E+02  0.00000000000E+00 0.  1.
         21   -1    0    0  502  503 -0.00000000000E+00 -0.00000000000E+00 -0.51484241410E+02  0.51484241410E+02  0.00000000000E+00 0.  1.
          1    1    1    2  501    0 -0.18867789553E+02 -0.77677467671E+01 -0.27056832975E+01  0.20582810658E+02  0.00000000000E+00 0.  1.
         -1    1    1    2    0  503  0.18867789553E+02  0.77677467671E+01 -0.37227472904E+02  0.42452515960E+02  0.00000000000E+00 0. -1.
<mgrwt>
<rscale>  2 0.20404200E+02</rscale>
<asrwt>0</asrwt>
<pdfrwt beam="1">  1       21 0.17770901E-02 0.20404200E+02</pdfrwt>
<pdfrwt beam="2">  1       21 0.79206524E-02 0.20404200E+02</pdfrwt>
<totfact> 0.11823464E+08</totfact>
</mgrwt>
</event>
<event>
 4    1  0.7151341E+004  0.3079710E+02  0.7546771E-02  0.1589441E+00
         21   -1    0    0  501  502  0.00000000000E+00  0.00000000000E+00  0.24786831839E+02  0.24786831839E+02  0.00000000000E+00 0. -1.
         21   -1    0    0  502  503 -0.00000000000E+00 -0.00000000000E+00 -0.49171227830E+02  0.49171227830E+02  0.00000000000E+00 0. -1.
          2    1    1    2  501    0 -0.29672956410E+02 -0.82448312731E+01 -0.29607961519E+02  0.42721106846E+02  0.00000000000E+00 0.  1.
         -2    1    1    2    0  503  0.29672956410E+02  0.82448312731E+01  0.52235655274E+01  0.31236952823E+02  0.00000000000E+00 0. -1.
<mgrwt>
<rscale>  2 0.30797104E+02</rscale>
<asrwt>0</asrwt>
<pdfrwt beam="1">  1       21 0.38133587E-02 0.30797104E+02</pdfrwt>
<pdfrwt beam="2">  1       21 0.75648043E-02 0.30797104E+02</pdfrwt>
<totfact> 0.43278168E+07</totfact>
</mgrwt>
</event>
<event>
 4    1  0.7151341E+004  0.2389191E+02  0.7546771E-02  0.1677448E+00
         21   -1    0    0  501  502  0.00000000000E+00  0.00000000000E+00  0.49469576626E+02  0.49469576626E+02  0.00000000000E+00 0.  1.
         21   -1    0    0  502  503 -0.00000000000E+00 -0.00000000000E+00 -0.12282028024E+02  0.12282028024E+02  0.00000000000E+00 0.  1.
          2    1    1    2  501    0  0.22038993131E+02 -0.92252865433E+01  0.10998855973E+02  0.26302052444E+02  0.00000000000E+00 0.  1.
         -2    1    1    2    0  503 -0.22038993131E+02  0.92252865433E+01  0.26188692628E+02  0.35449552206E+02  0.00000000000E+00 0. -1.
<mgrwt>
<rscale>  2 0.23891905E+02</rscale>
<asrwt>0</asrwt>
<pdfrwt beam="1">  1       21 0.76107040E-02 0.23891905E+02</pdfrwt>
<pdfrwt beam="2">  1       21 0.18895428E-02 0.23891905E+02</pdfrwt>
<totfact> 0.12036697E+08</totfact>
</mgrwt>
</event>
<event>
 4    1  0.7151341E+004  0.3167347E+02  0.7546771E-02  0.1580295E+00
         21   -1    0    0  501  502  0.00000000000E+00  0.00000000000E+00  0.12766490897E+02  0.12766490897E+02  0.00000000000E+00 0. -1.
         21   -1    0    0  502  503 -0.00000000000E+00 -0.00000000000E+00 -0.79157822358E+02  0.79157822358E+02  0.00000000000E+00 0. -1.
          3    1    1    2  501    0  0.25393314262E+02 -0.18931144466E+02 -0.29273495148E+02  0.43129411753E+02  0.00000000000E+00 0. -1.
         -3    1    1    2    0  503 -0.25393314262E+02  0.18931144466E+02 -0.37117836313E+02  0.48794901502E+02  0.00000000000E+00 0.  1.
<mgrwt>
<rscale>  2 0.31673469E+02</rscale>
<asrwt>0</asrwt>
<pdfrwt beam="1">  1       21 0.19640755E-02 0.31673469E+02</pdfrwt>
<pdfrwt beam="2">  1       21 0.12178126E-01 0.31673469E+02</pdfrwt>
<totfact> 0.55681953E+07</totfact>
</mgrwt>
</event>
<event>
 4    1  0.7151341E+004  0.2691099E+02  0.7546771E-02  0.1634979E+00
         21   -1    0    0  503  502  0.00000000000E+00  0.00000000000E+00  0.14335824029E+02  0.14335824029E+02  0.00000000000E+00 0.  1.
         21   -1    0    0  501  503 -0.00000000000E+00 -0.00000000000E+00 -0.51532643553E+02  0.51532643553E+02  0.00000000000E+00 0.  1.
          5    1    1    2  501    0 -0.26664893413E+02  0.36311156138E+01 -0.23222178641E+02  0.35545338966E+02  0.00000000000E+00 0.  1.
         -5    1    1    2    0  502  0.26664893413E+02 -0.36311156138E+01 -0.13974640882E+02  0.30323128617E+02  0.00000000000E+00 0. -1.
<mgrwt>
<rscale>  2 0.26910993E+02</rscale>
<asrwt>0</asrwt>
<pdfrwt beam="1">  1       21 0.22055114E-02 0.26910993E+02</pdfrwt>
<pdfrwt beam="2">  1       21 0.79280990E-02 0.26910993E+02</pdfrwt>
<totfact> 0.91603572E+07</totfact>
</mgrwt>
</event>
<event>
 4    1  0.7151341E+004  0.2014883E+02  0.7546771E-02  0.1742384E+00
         21   -1    0    0  501  502  0.00000000000E+00  0.00000000000E+00  0.12292949693E+03  0.12292949693E+03  0.00000000000E+00 0.  1.
         21   -1    0    0  502  503 -0.00000000000E+00 -0.00000000000E+00 -0.33212293715E+01  0.33212293715E+01  0.00000000000E+00 0.  1.
          3    1    1    2  501    0  0.59037875410E+01 -0.19264491597E+02  0.55064422429E+02  0.58635023333E+02  0.00000000000E+00 0. -1.
         -3    1    1    2    0  503 -0.59037875410E+01  0.19264491597E+02  0.64543845126E+02  0.67615702966E+02  0.00000000000E+00 0.  1.
<mgrwt>
<rscale>  2 0.20148830E+02</rscale>
<asrwt>0</asrwt>
<pdfrwt beam="1">  1       21 0.18912227E-01 0.20148830E+02</pdfrwt>
<pdfrwt beam="2">  1       21 0.51095846E-03 0.20148830E+02</pdfrwt>
<totfact> 0.17719349E+08</totfact>
</mgrwt>
</event>
<event>
 4    1  0.7151341E+004  0.2148676E+02  0.7546771E-02  0.1717282E+00
         21   -1    0    0  503  502  0.00000000000E+00  0.00000000000E+00  0.11874105546E+03  0.11874105546E+03  0.00000000000E+00 0. -1.
         21   -1    0    0  501  503 -0.00000000000E+00 -0.00000000000E+00 -0.39561576626E+01  0.39561576626E+01  0.00000000000E+00 0. -1.
          1    1    1    2  501    0  0.19798421040E+01 -0.21395350930E+02  0.65437086452E+02  0.68874473497E+02  0.00000000000E+00 0.  1.
         -1    1    1    2    0  502 -0.19798421040E+01  0.21395350930E+02  0.49347811342E+02  0.53822739622E+02  0.00000000000E+00 0. -1.
<mgrwt>
<rscale>  2 0.21486759E+02</rscale>
<asrwt>0</asrwt>
<pdfrwt beam="1">  1       21 0.18267852E-01 0.21486759E+02</pdfrwt>
<pdfrwt beam="2">  1       21 0.60863973E-03 0.21486759E+02</pdfrwt>
<totfact> 0.14822512E+08</totfact>
</mgrwt>
</event>
<event>
 4    1  0.7151341E+004  0.2580956E+02  0.7546771E-02  0.1649639E+00
         21   -1    0    0  503  502  0.00000000000E+00  0.00000000000E+00  0.83039915030E+03  0.83039915030E+03  0.00000000000E+00 0.  1.
         21   -1    0    0  501  503 -0.00000000000E+00 -0.00000000000E+00 -0.90257107106E+00  0.90257107106E+00  0.00000000000E+00 0.  1.
          4    1    1    2  501    0  0.25199893083E+02 -0.55766119507E+01  0.55336835164E+03  0.55396991417E+03  0.00000000000E+00 0. -1.
         -4    1    1    2    0  502 -0.25199893083E+02  0.55766119507E+01  0.27612822759E+03  0.27733180720E+03  0.00000000000E+00 0.  1.
<mgrwt>
<rscale>  2 0.25809557E+02</rscale>
<asrwt>0</asrwt>
<pdfrwt beam="1">  1       21 0.12775310E+00 0.25809557E+02</pdfrwt>
<pdfrwt beam="2">  1       21 0.13885775E-03 0.25809557E+02</pdfrwt>
<totfact> 0.29350570E+07</totfact>
</mgrwt>
</event>
<event>
 4    1  0.7151341E+004  0.2388737E+02  0.7546771E-02  0.1677517E+00
         21   -1    0    0  503  502  0.00000000000E+00  0.00000000000E+00  0.20510327000E+02  0.20510327000E+02  0.00000000000E+00 0. -1.
         21   -1    0    0  501  503 -0.00000000000E+00 -0.00000000000E+00 -0.27918219382E+02  0.27918219382E+02  0.00000000000E+00 0. -1.
          2    1    1    2  501    0 -0.37312392888E+01 -0.23594160744E+02 -0.51368748460E+01  0.24433461708E+02  0.00000000000E+00 0. -1.
         -2    1    1    2    0  502  0.37312392888E+01  0.23594160744E+02 -0.22710175364E+01  0.23995084674E+02  0.00000000000E+00 0.  1.
<mgrwt>
<rscale>  2 0.23887373E+02</rscale>
<asrwt>0</asrwt>
<pdfrwt beam="1">  1       21 0.31554349E-02 0.23887373E+02</pdfrwt>
<pdfrwt beam="2">  1       21 0.42951106E-02 0.23887373E+02</pdfrwt>
<totfact> 0.13635735E+08</totfact>
</mgrwt>
</event>
<event>
 4    1  0.7151341E+004  0.2258551E+02  0.7546771E-02  0.1698318E+00
         21   -1    0    0  501  502  0.00000000000E+00  0.00000000000E+00  0.52920339565E+03  0.52920339565E+03  0.00000000000E+00 0.  1.
         21   -1    0    0  502  503 -0.00000000000E+00 -0.00000000000E+00 -0.10472379142E+01  0.10472379142E+01  0.00000000000E+00 0.  1.
          5    1    1    2  501    0 -0.17816239628E+02  0.13881166497E+02  0.33886405548E+03  0.33961589079E+03  0.00000000000E+00 0.  1.
         -5    1    1    2    0  503  0.17816239628E+02 -0.13881166497E+02  0.18929210225E+03  0.19063474277E+03  0.00000000000E+00 0. -1.
<mgrwt>
<rscale>  2 0.22585508E+02</rscale>
<asrwt>0</asrwt>
<pdfrwt beam="1">  1       21 0.81415693E-01 0.22585508E+02</pdfrwt>
<pdfrwt beam="2">  1       21 0.16111395E-03 0.22585508E+02</pdfrwt>
<totfact> 0.62174734E+07</totfact>
</mgrwt>
</event>
<event>
 4    1  0.7151341E+004  0.2857233E+02  0.7546771E-02  0.1614428E+00
         21   -1    0    0  503  502  0.00000000000E+00  0.00000000000E+00  0.44004773569E+02  0.44004773569E+02  0.00000000000E+00 0. -1.
         21   -1    0    0  501  503 -0.00000000000E+00 -0.00000000000E+00 -0.18632861314E+02  0.18632861314E+02  0.00000000000E+00 0. -1.
          4    1    1    2  501    0  0.26437431924E+02  0.10836980796E+02  0.14748724719E+02  0.32154359585E+02  0.00000000000E+00 0. -1.
         -4    1    1    2    0  502 -0.26437431924E+02 -0.10836980796E+02  0.10623187536E+02  0.30483275298E+02  0.00000000000E+00 0.  1.
<mgrwt>
<rscale>  2 0.28572329E+02</rscale>
<asrwt>0</asrwt>
<pdfrwt beam="1">  1       21 0.67699651E-02 0.28572329E+02</pdfrwt>
<pdfrwt beam="2">  1       21 0.28665941E-02 0.28572329E+02</pdfrwt>
<totfact> 0.80052865E+07</totfact>
</mgrwt>
</event>
<event>
 4    1  0.7151341E+004  0.2396100E+02  0.7546771E-02  0.1676390E+00
         21   -1    0    0  503  502  0.00000000000E+00  0.00000000000E+00  0.39839083155E+02  0.39839083155E+02  0.00000000000E+00 0.  1.
         21   -1    0    0  501  503 -0.00000000000E+00 -0.00000000000E+00 -0.19858523600E+02  0.19858523600E+02  0.00000000000E+00 0.  1.
          1    1    1    2  501    0  0.18614269362E+02 -0.15087693583E+02 -0.56427986833E+01  0.24616472097E+02  0.00000000000E+00 0. -1.
         -1    1    1    2    0  502 -0.18614269362E+02  0.15087693583E+02  0.25623358238E+02  0.35081134658E+02  0.00000000000E+00 0.  1.
<mgrwt>
<rscale>  2 0.23961000E+02</rscale>
<asrwt>0</asrwt>
<pdfrwt beam="1">  1       21 0.61290897E-02 0.23961000E+02</pdfrwt>
<pdfrwt beam="2">  1       21 0.30551575E-02 0.23961000E+02</pdfrwt>
<totfact> 0.81362585E+07</totfact>
</mgrwt>
</event>
<event>
 4    1  0.7151341E+004  0.2159435E+02  0.7546771E-02  0.1715363E+00
         21   -1    0    0  501  502  0.00000000000E+00  0.00000000000E+00  0.26102861429E+01  0.26102861429E+01  0.00000000000E+00 0. -1.
         21   -1    0    0  502  503 -0.00000000000E+00 -0.00000000000E+00 -0.19395139360E+03  0.19395139360E+03  0.00000000000E+00 0. -1.
          3    1    1    2  501    0  0.18956407114E+02  0.10342656473E+02 -0.12327960809E+03  0.12515661263E+03  0.00000000000E+00 0.  1.
         -3    1    1    2    0  503 -0.18956407114E+02 -0.10342656473E+02 -0.68061499360E+02  0.71405067108E+02  0.00000000000E+00 0. -1.
<mgrwt>
<rscale>  2 0.21594349E+02</rscale>
<asrwt>0</asrwt>
<pdfrwt beam="1">  1       21 0.40158244E-03 0.21594349E+02</pdfrwt>
<pdfrwt beam="2">  1       21 0.29838679E-01 0.21594349E+02</pdfrwt>
<totfact> 0.11500768E+08</totfact>
</mgrwt>
</event>
<event>
 4    1  0.7151341E+004  0.4083931E+02  0.7546771E-02  0.1502124E+00
         21   -1    0    0  501  502  0.00000000000E+00  0.00000000000E+00  0.10086172496E+03  0.10086172496E+03  0.00000000000E+00 0.  1.
         21   -1    0    0  502  503 -0.00000000000E+00 -0.00000000000E+00 -0.18456148024E+02  0.18456148024E+02  0.00000000000E+00 0.  1.
          5    1    1    2  501    0 -0.84605386890E+01  0.39953333205E+02  0.60445765288E+02  0.72948886834E+02  0.00000000000E+00 0.  1.
         -5    1    1    2    0  503  0.84605386890E+01 -0.39953333205E+02  0.21959811650E+02  0.46368986152E+02  0.00000000000E+00 0. -1.
<mgrwt>
<rscale>  2 0.40839314E+02</rscale>
<asrwt>0</asrwt>
<pdfrwt beam="1">  1       21 0.15517188E-01 0.40839314E+02</pdfrwt>
<pdfrwt beam="2">  1       21 0.28394074E-02 0.40839314E+02</pdfrwt>
<totfact> 0.21593102E+07</totfact>
</mgrwt>
</event>
<event>
 4    1  0.7151341E+004  0.2488835E+02  0.7546771E-02  0.1662611E+00
         21   -1    0    0  501  502  0.00000000000E+00  0.00000000000E+00  0.22271635476E+02  0.22271635476E+02  0.00000000000E+00 0. -1.
         21   -1    0    0  502  503 -0.00000000000E+00 -0.00000000000E+00 -0.27880389934E+02  0.27880389934E+02  0.00000000000E+00 0. -1.
          1    1    1    2  501    0  0.23830100461E+02 -0.71802709345E+01 -0.40417340370E+01  0.25214392570E+02  0.00000000000E+00 0. -1.
         -1    1    1    2    0  503 -0.23830100461E+02  0.71802709345E+01 -0.15670204208E+01  0.24937632840E+02  0.00000000000E+00 0.  1.
<mgrwt>
<rscale>  2 0.24888350E+02</rscale>
<asrwt>0</asrwt>
<pdfrwt beam="1">  1       21 0.34264055E-02 0.24888350E+02</pdfrwt>
<pdfrwt beam="2">  1       21 0.42892907E-02 0.24888350E+02</pdfrwt>
<totfact> 0.12152861E+08</totfact>
</mgrwt>
</event>
<event>
 4    1  0.7151341E+004  0.4873714E+02  0.7546771E-02  0.1452275E+00
         21   -1    0    0  501  502  0.00000000000E+00  0.00000000000E+00  0.42384812559E+03  0.42384812559E+03  0.00000000000E+00 0.  1.
         21   -1    0    0  502  503 -0.00000000000E+00 -0.00000000000E+00 -0.71579871759E+01  0.71579871759E+01  0.00000000000E+00 0.  1.
          3    1    1    2  501    0 -0.14438248117E+01 -0.48715746228E+02  0.10793882990E+03  0.11843183508E+03  0.00000000000E+00 0.  1.
         -3    1    1    2    0  503  0.14438248117E+01  0.48715746228E+02  0.30875130851E+03  0.31257427768E+03  0.00000000000E+00 0. -1.
<mgrwt>
<rscale>  2 0.48737137E+02</rscale>
<asrwt>0</asrwt>
<pdfrwt beam="1">  1       21 0.65207384E-01 0.48737137E+02</pdfrwt>
<pdfrwt beam="2">  1       21 0.11012291E-02 0.48737137E+02</pdfrwt>
<totfact> 0.64208652E+06</totfact>
</mgrwt>
</event>
<event>
 4    1  0.7151341E+004  0.2189851E+02  0.7546771E-02  0.1710013E+00
         21   -1    0    0  503  502  0.00000000000E+00  0.00000000000E+00  0.25475177598E+02  0.25475177598E+02  0.00000000000E+00 0. -1.
         21   -1    0    0  501  503 -0.00000000000E+00 -0.00000000000E+00 -0.25043696810E+02  0.25043696810E+02  0.00000000000E+00 0. -1.
          2    1    1    2  501    0 -0.21635866801E+02  0.33814358727E+01  0.12803803887E+02  0.25366951625E+02  0.00000000000E+00 0.  1.
         -2    1    1    2    0  502  0.21635866801E+02 -0.33814358727E+01 -0.12372323099E+02  0.25151922782E+02  0.00000000000E+00 0. -1.
<mgrwt>
<rscale>  2 0.21898512E+02</rscale>
<asrwt>0</asrwt>
<pdfrwt beam="1">  1       21 0.39192581E-02 0.21898512E+02</pdfrwt>
<pdfrwt beam="2">  1       21 0.38528764E-02 0.21898512E+02</pdfrwt>
<totfact> 0.11228566E+08</totfact>
</mgrwt>
</event>
<event>
 4    1  0.7151341E+004  0.3417631E+02  0.7546771E-02  0.1556039E+00
         21   -1    0    0  501  502  0.00000000000E+00  0.00000000000E+00  0.53554770519E+03  0.53554770519E+03  0.00000000000E+00 0.  1.
         21   -1    0    0  502  503 -0.00000000000E+00 -0.00000000000E+00 -0.21862995201E+01  0.21862995201E+01  0.00000000000E+00 0.  1.
          1    1    1    2  501    0 -0.20025742032E+02  0.27694577829E+02  0.27994032516E+03  0.28201880369E+03  0.00000000000E+00 0.  1.
         -1    1    1    2    0  503  0.20025742032E+02 -0.27694577829E+02  0.25342108050E+03  0.25571520101E+03  0.00000000000E+00 0. -1.
<mgrwt>
<rscale>  2 0.34176307E+02</rscale>
<asrwt>0</asrwt>
<pdfrwt beam="1">  1       21 0.82391850E-01 0.34176307E+02</pdfrwt>
<pdfrwt beam="2">  1       21 0.33635420E-03 0.34176307E+02</pdfrwt>
<totfact> 0.22450549E+07</totfact>
</mgrwt>
</event>
<event>
 4    1  0.7151341E+004  0.2372926E+02  0.7546771E-02  0.1679955E+00
         21   -1    0    0  503  502  0.00000000000E+00  0.00000000000E+00  0.22262795599E+01  0.22262795599E+01  0.00000000000E+00 0. -1.
         21   -1    0    0  501  503 -0.00000000000E+00 -0.00000000000E+00 -0.33063478758E+03  0.33063478758E+03  0.00000000000E+00 0. -1.
          3    1    1    2  501    0 -0.11388912670E+02 -0.20817546728E+02 -0.24489093154E+03  0.24603789532E+03  0.00000000000E+00 0.  1.
         -3    1    1    2    0  502  0.11388912670E+02  0.20817546728E+02 -0.83517576481E+02  0.86823171820E+02  0.00000000000E+00 0. -1.
<mgrwt>
<rscale>  2 0.23729256E+02</rscale>
<asrwt>0</asrwt>
<pdfrwt beam="1">  1       21 0.34250470E-03 0.23729256E+02</pdfrwt>
<pdfrwt beam="2">  1       21 0.50866868E-01 0.23729256E+02</pdfrwt>
<totfact> 0.54616562E+07</totfact>
</mgrwt>
</event>
<event>
 4    1  0.7151341E+004  0.4393041E+02  0.7546771E-02  0.1481131E+00
         21   -1    0    0  501  502  0.00000000000E+00  0.00000000000E+00  0.15879954065E+03  0.15879954065E+03  0.00000000000E+00 0. -1.
         21   -1    0    0  502  503 -0.00000000000E+00 -0.00000000000E+00 -0.12904873578E+02  0.12904873578E+02  0.00000000000E+00 0. -1.
          4    1    1    2  501    0  0.39738920428E+02  0.18726967878E+02  0.52223760771E+02  0.68243697963E+02  0.00000000000E+00 0. -1.
         -4    1    1    2    0  503 -0.39738920428E+02 -0.18726967878E+02  0.93670906299E+02  0.10346071626E+03  0.00000000000E+00 0.  1.
<mgrwt>
<rscale>  2 0.43930412E+02</rscale>
<asrwt>0</asrwt>
<pdfrwt beam="1">  1       21 0.24430697E-01 0.43930412E+02</pdfrwt>
<pdfrwt beam="2">  1       21 0.19853653E-02 0.43930412E+02</pdfrwt>
<totfact> 0.17082616E+07</totfact>
</mgrwt>
</event>
<event>
 4    1  0.7151341E+004  0.2831616E+02  0.7546771E-02  0.1617484E+00
         21   -1    0    0  503  502  0.00000000000E+00  0.00000000000E+00  0.38103857967E+01  0.38103857967E+01  0.00000000000E+00 0. -1.
         21   -1    0    0  501  503 -0.00000000000E+00 -0.00000000000E+00 -0.26049283330E+03  0.26049283330E+03  0.00000000000E+00 0. -1.
          2    1    1    2  501    0  0.15881887579E+02  0.23442916959E+02 -0.70405145047E+02  0.75886027421E+02  0.00000000000E+00 0. -1.
         -2    1    1    2    0  502 -0.15881887579E+02 -0.23442916959E+02 -0.18627730246E+03  0.18841719168E+03  0.00000000000E+00 0.  1.
<mgrwt>
<rscale>  2 0.28316156E+02</rscale>
<asrwt>0</asrwt>
<pdfrwt beam="1">  1       21 0.58621318E-03 0.28316156E+02</pdfrwt>
<pdfrwt beam="2">  1       21 0.40075822E-01 0.28316156E+02</pdfrwt>
<totfact> 0.40631125E+07</totfact>
</mgrwt>
</event>
<event>
 4    1  0.7151341E+004  0.2707512E+02  0.7546771E-02  0.1632869E+00
         21   -1    0    0  503  502  0.00000000000E+00  0.00000000000E+00  0.11020291434E+03  0.11020291434E+03  0.00000000000E+00 0.  1.
         21   -1    0    0  501  503 -0.00000000000E+00 -0.00000000000E+00 -0.72242074467E+01  0.72242074467E+01  0.00000000000E+00 0.  1.
          1    1    1    2  501    0  0.25595071946E+02  0.88291736869E+01  0.68014557261E+02  0.73205478042E+02  0.00000000000E+00 0.  1.
         -1    1    1    2    0  502 -0.25595071946E+02 -0.88291736869E+01  0.34964149630E+02  0.44221643742E+02  0.00000000000E+00 0. -1.
<mgrwt>
<rscale>  2 0.27075118E+02</rscale>
<asrwt>0</asrwt>
<pdfrwt beam="1">  1       21 0.16954293E-01 0.27075118E+02</pdfrwt>
<pdfrwt beam="2">  1       21 0.11114166E-02 0.27075118E+02</pdfrwt>
<totfact> 0.72894034E+07</totfact>
</mgrwt>
</event>
<event>
 4    1  0.7151341E+004  0.2467553E+02  0.7546771E-02  0.1665707E+00
         21   -1    0    0  503  502  0.00000000000E+00  0.00000000000E+00  0.24833588677E+03  0.24833588677E+03  0.00000000000E+00 0.  1.
         21   -1    0    0  501  503 -0.00000000000E+00 -0.00000000000E+00 -0.25015557715E+01  0.25015557715E+01  0.00000000000E+00 0.  1.
          3    1    1    2  501    0  0.41238667926E+00  0.24672084167E+02  0.10523765427E+03  0.10809183908E+03  0.00000000000E+00 0. -1.
         -3    1    1    2    0  502 -0.41238667926E+00 -0.24672084167E+02  0.14059667673E+03  0.14274560346E+03  0.00000000000E+00 0.  1.
<mgrwt>
<rscale>  2 0.24675530E+02</rscale>
<asrwt>0</asrwt>
<pdfrwt beam="1">  1       21 0.38205502E-01 0.24675530E+02</pdfrwt>
<pdfrwt beam="2">  1       21 0.38485493E-03 0.24675530E+02</pdfrwt>
<totfact> 0.80375723E+07</totfact>
</mgrwt>
</event>
<event>
 4    1  0.7151341E+004  0.2267791E+02  0.7546771E-02  0.1696785E+00
         21   -1    0    0  501  502  0.00000000000E+00  0.00000000000E+00  0.16522853299E+02  0.16522853299E+02  0.00000000000E+00 0. -1.
         21   -1    0    0  502  503 -0.00000000000E+00 -0.00000000000E+00 -0.32267265508E+02  0.32267265508E+02  0.00000000000E+00 0. -1.
          5    1    1    2  501    0  0.29209707137E+01  0.22489011577E+02 -0.32839852474E+01  0.22914455497E+02  0.00000000000E+00 0. -1.
         -5    1    1    2    0  503 -0.29209707137E+01 -0.22489011577E+02 -0.12460426962E+02  0.25875663309E+02  0.00000000000E+00 0.  1.
<mgrwt>
<rscale>  2 0.22677912E+02</rscale>
<asrwt>0</asrwt>
<pdfrwt beam="1">  1       21 0.25419775E-02 0.22677912E+02</pdfrwt>
<pdfrwt beam="2">  1       21 0.49641946E-02 0.22677912E+02</pdfrwt>
<totfact> 0.14929343E+08</totfact>
</mgrwt>
</event>
<event>
 4    1  0.7151341E+004  0.2471485E+02  0.7546771E-02  0.1665132E+00
         21   -1    0    0  501  502  0.00000000000E+00  0.00000000000E+00  0.53126200800E+01  0.53126200800E+01  0.00000000000E+00 0. -1.
         21   -1    0    0  502  503 -0.00000000000E+00 -0.00000000000E+00 -0.13283348388E+03  0.13283348388E+03  0.00000000000E+00 0. -1.
          4    1    1    2  501    0 -0.15440483846E+02 -0.19298058665E+02 -0.38434499254E+02  0.45695014417E+02  0.00000000000E+00 0. -1.
         -4    1    1    2    0  503  0.15440483846E+02  0.19298058665E+02 -0.89086364544E+02  0.92451089541E+02  0.00000000000E+00 0.  1.
<mgrwt>
<rscale>  2 0.24714846E+02</rscale>
<asrwt>0</asrwt>
<pdfrwt beam="1">  1       21 0.81732624E-03 0.24714846E+02</pdfrwt>
<pdfrwt beam="2">  1       21 0.20435919E-01 0.24714846E+02</pdfrwt>
<totfact> 0.81779660E+07</totfact>
</mgrwt>
</event>
<event>
 4    1  0.7151341E+004  0.3034740E+02  0.7546771E-02  0.1594280E+00
         21   -1    0    0  501  502  0.00000000000E+00  0.00000000000E+00  0.36473041285E+01  0.36473041285E+01  0.00000000000E+00 0.  1.
         21   -1    0    0  502  503 -0.00000000000E+00 -0.00000000000E+00 -0.27319565112E+03  0.27319565112E+03  0.00000000000E+00 0.  1.
          5    1    1    2  501    0 -0.17646590237E+01  0.30296052550E+02 -0.17286733974E+03  0.17551091696E+03  0.00000000000E+00 0. -1.
         -5    1    1    2    0  503  0.17646590237E+01 -0.30296052550E+02 -0.96681007254E+02  0.10133203830E+03  0.00000000000E+00 0.  1.
<mgrwt>
<rscale>  2 0.30347402E+02</rscale>
<asrwt>0</asrwt>
<pdfrwt beam="1">  1       21 0.56112375E-03 0.30347402E+02</pdfrwt>
<pdfrwt beam="2">  1       21 0.42030097E-01 0.30347402E+02</pdfrwt>
<totfact> 0.40157003E+07</totfact>
</mgrwt>
</event>
<event>
 4    1  0.7151341E+004  0.2836767E+02  0.7546771E-02  0.1616866E+00
         21   -1    0    0  503  502  0.00000000000E+00  0.00000000000E+00  0.10967462152E+02  0.10967462152E+02  0.00000000000E+00 0. -1.
         21   -1    0    0  501  503 -0.00000000000E+00 -0.00000000000E+00 -0.74090686373E+02  0.74090686373E+02  0.00000000000E+00 0. -1.
          4    1    1    2  501    0  0.11353256390E+02  0.25996699589E+02 -0.27378331758E+02  0.39424584589E+02  0.00000000000E+00 0. -1.
         -4    1    1    2    0  502 -0.11353256390E+02 -0.25996699589E+02 -0.35744892464E+02  0.45633563936E+02  0.00000000000E+00 0.  1.
<mgrwt>
<rscale>  2 0.28367672E+02</rscale>
<asrwt>0</asrwt>
<pdfrwt beam="1">  1       21 0.16873019E-02 0.28367672E+02</pdfrwt>
<pdfrwt beam="2">  1       21 0.11398567E-01 0.28367672E+02</pdfrwt>
<totfact> 0.76766404E+07</totfact>
</mgrwt>
</event>
<event>
 4    1  0.7151341E+004  0.3546563E+02  0.7546771E-02  0.1544504E+00
         21   -1    0    0  503  502  0.00000000000E+00  0.00000000000E+00  0.52276536730E+02  0.52276536730E+02  0.00000000000E+00 0.  1.
         21   -1    0    0  501  503 -0.00000000000E+00 -0.00000000000E+00 -0.25031107049E+02  0.25031107049E+02  0.00000000000E+00 0.  1.
          2    1    1    2  501    0  0.27130370725E+02 -0.22841937904E+02  0.21233417932E+02  0.41336051819E+02  0.00000000000E+00 0.  1.
         -2    1    1    2    0  502 -0.27130370725E+02  0.22841937904E+02  0.60120117492E+01  0.35971591960E+02  0.00000000000E+00 0. -1.
<mgrwt>
<rscale>  2 0.35465633E+02</rscale>
<asrwt>0</asrwt>
<pdfrwt beam="1">  1       21 0.80425441E-02 0.35465633E+02</pdfrwt>
<pdfrwt beam="2">  1       21 0.38509396E-02 0.35465633E+02</pdfrwt>
<totfact> 0.39644260E+07</totfact>
</mgrwt>
</event>
<event>
 4    1  0.7151341E+004  0.2223696E+02  0.7546771E-02  0.1704186E+00
         21   -1    0    0  501  502  0.00000000000E+00  0.00000000000E+00  0.14922710581E+01  0.14922710581E+01  0.00000000000E+00 0.  1.
         21   -1    0    0  502  503 -0.00000000000E+00 -0.00000000000E+00 -0.33188731524E+03  0.33188731524E+03  0.00000000000E+00 0.  1.
          2    1    1    2  501    0  0.23475359932E+01  0.22112698622E+02 -0.17182732887E+03  0.17326024735E+03  0.00000000000E+00 0.  1.
         -2    1    1    2    0  503 -0.23475359932E+01 -0.22112698622E+02 -0.15856771531E+03  0.16011933894E+03  0.00000000000E+00 0. -1.
<mgrwt>
<rscale>  2 0.22236959E+02</rscale>
<asrwt>0</asrwt>
<pdfrwt beam="1">  1       21 0.22957997E-03 0.22236959E+02</pdfrwt>
<pdfrwt beam="2">  1       21 0.51059630E-01 0.22236959E+02</pdfrwt>
<totfact> 0.95471913E+07</totfact>
</mgrwt>
</event>
<event>
 4    1  0.7151341E+004  0.3618484E+02  0.7546771E-02  0.1538324E+00
         21   -1    0    0  501  502  0.00000000000E+00  0.00000000000E+00  0.77258889148E+02  0.77258889148E+02  0.00000000000E+00 0. -1.
         21   -1    0    0  502  503 -0.00000000000E+00 -0.00000000000E+00 -0.16974910204E+02  0.16974910204E+02  0.00000000000E+00 0. -1.
          4    1    1    2  501    0 -0.33431081529E+02  0.13845785372E+02  0.28247736033E+02  0.45905093135E+02  0.00000000000E+00 0. -1.
         -4    1    1    2    0  503  0.33431081529E+02 -0.13845785372E+02  0.32036242910E+02  0.48328706217E+02  0.00000000000E+00 0.  1.
<mgrwt>
<rscale>  2 0.36184845E+02</rscale>
<asrwt>0</asrwt>
<pdfrwt beam="1">  1       21 0.11885983E-01 0.36184845E+02</pdfrwt>
<pdfrwt beam="2">  1       21 0.26115247E-02 0.36184845E+02</pdfrwt>
<totfact> 0.38212251E+07</totfact>
</mgrwt>
</event>
<event>
 4    1  0.7151341E+004  0.2316254E+02  0.7546771E-02  0.1688889E+00
         21   -1    0    0  503  502  0.00000000000E+00  0.00000000000E+00  0.56307601198E+03  0.56307601198E+03  0.00000000000E+00 0.  1.
         21   -1    0    0  501  503 -0.00000000000E+00 -0.00000000000E+00 -0.10875847560E+01  0.10875847560E+01  0.00000000000E+00 0.  1.
          4    1    1    2  501    0  0.69167134447E+01  0.22105707270E+02  0.18169373945E+03  0.18316418366E+03  0.00000000000E+00 0.  1.
         -4    1    1    2    0  502 -0.69167134447E+01 -0.22105707270E+02  0.38029468777E+03  0.38099941307E+03  0.00000000000E+00 0. -1.
<mgrwt>
<rscale>  2 0.23162539E+02</rscale>
<asrwt>0</asrwt>
<pdfrwt beam="1">  1       21 0.86626846E-01 0.23162539E+02</pdfrwt>
<pdfrwt beam="2">  1       21 0.16732118E-03 0.23162539E+02</pdfrwt>
<totfact> 0.51944187E+07</totfact>
</mgrwt>
</event>
<event>
 4    1  0.7151341E+004  0.2023973E+02  0.7546771E-02  0.1740602E+00
         21   -1    0    0  503  502  0.00000000000E+00  0.00000000000E+00  0.34568480554E+03  0.34568480554E+03  0.00000000000E+00 0. -1.
         21   -1    0    0  501  503 -0.00000000000E+00 -0.00000000000E+00 -0.14649502138E+01  0.14649502138E+01  0.00000000000E+00 0. -1.
          4    1    1    2  501    0 -0.12967513899E+02 -0.15539954022E+02  0.24798396409E+03  0.24880854694E+03  0.00000000000E+00 0.  1.
         -4    1    1    2    0  502  0.12967513899E+02  0.15539954022E+02  0.96235891240E+02  0.98341208811E+02  0.00000000000E+00 0. -1.
<mgrwt>
<rscale>  2 0.20239728E+02</rscale>
<asrwt>0</asrwt>
<pdfrwt beam="1">  1       21 0.53182213E-01 0.20239728E+02</pdfrwt>
<pdfrwt beam="2">  1       21 0.22537723E-03 0.20239728E+02</pdfrwt>
<totfact> 0.88353865E+07</totfact>
</mgrwt>
</event>
<event>
 4    1  0.7151341E+004  0.3146403E+02  0.7546771E-02  0.1582448E+00
         21   -1    0    0  503  502  0.00000000000E+00  0.00000000000E+00  0.20771488283E+02  0.20771488283E+02  0.00000000000E+00 0. -1.
         21   -1    0    0  501  503 -0.00000000000E+00 -0.00000000000E+00 -0.47738015198E+02  0.47738015198E+02  0.00000000000E+00 0. -1.
          1    1    1    2  501    0  0.38196316068E+01 -0.31231320003E+02 -0.14861266632E+02  0.34797157652E+02  0.00000000000E+00 0. -1.
         -1    1    1    2    0  502 -0.38196316068E+01  0.31231320003E+02 -0.12105260283E+02  0.33712345829E+02  0.00000000000E+00 0.  1.
<mgrwt>
<rscale>  2 0.31464026E+02</rscale>
<asrwt>0</asrwt>
<pdfrwt beam="1">  1       21 0.31956136E-02 0.31464026E+02</pdfrwt>
<pdfrwt beam="2">  1       21 0.73443099E-02 0.31464026E+02</pdfrwt>
<totfact> 0.60396192E+07</totfact>
</mgrwt>
</event>
<event>
 4    1  0.7151341E+004  0.2387374E+02  0.7546771E-02  0.1677726E+00
         21   -1    0    0  501  502  0.00000000000E+00  0.00000000000E+00  0.17752476712E+03  0.17752476712E+03  0.00000000000E+00 0.  1.
         21   -1    0    0  502  503 -0.00000000000E+00 -0.00000000000E+00 -0.62858052643E+01  0.62858052643E+01  0.00000000000E+00 0.  1.
          5    1    1    2  501    0 -0.17716900727E+02  0.16002092850E+02  0.14990294344E+03  0.15179212100E+03  0.00000000000E+00 0.  1.
         -5    1    1    2    0  503  0.17716900727E+02 -0.16002092850E+02  0.21336018414E+02  0.32018451379E+02  0.00000000000E+00 0. -1.
<mgrwt>
<rscale>  2 0.23873742E+02</rscale>
<asrwt>0</asrwt>
<pdfrwt beam="1">  1       21 0.27311499E-01 0.23873742E+02</pdfrwt>
<pdfrwt beam="2">  1       21 0.96704710E-03 0.23873742E+02</pdfrwt>
<totfact> 0.37630220E+07</totfact>
</mgrwt>
</event>
<event>
 4    1  0.7151341E+004  0.2048287E+02  0.7546771E-02  0.1735893E+00
         21   -1    0    0  501  502  0.00000000000E+00  0.00000000000E+00  0.14894892009E+04  0.14894892009E+04  0.00000000000E+00 0.  1.
         21   -1    0    0  502  503 -0.00000000000E+00 -0.00000000000E+00 -0.28282082433E+00  0.28282082433E+00  0.00000000000E+00 0.  1.
          2    1    1    2  501    0 -0.73817172061E+01 -0.19106492086E+02  0.69713399378E+03  0.69743483787E+03  0.00000000000E+00 0.  1.
         -2    1    1    2    0  503  0.73817172061E+01  0.19106492086E+02  0.79207238624E+03  0.79233718380E+03  0.00000000000E+00 0. -1.
<mgrwt>
<rscale>  2 0.20482866E+02</rscale>
<asrwt>0</asrwt>
<pdfrwt beam="1">  1       21 0.22914590E+00 0.20482866E+02</pdfrwt>
<pdfrwt beam="2">  1       21 0.43512089E-04 0.20482866E+02</pdfrwt>
<totfact> 0.34610885E+07</totfact>
</mgrwt>
</event>
<event>
 4    1  0.7151341E+004  0.4025560E+02  0.7546771E-02  0.1506339E+00
         21   -1    0    0  501  502  0.00000000000E+00  0.00000000000E+00  0.41312927911E+02  0.41312927911E+02  0.00000000000E+00 0.  1.
         21   -1    0    0  502  503 -0.00000000000E+00 -0.00000000000E+00 -0.48128640894E+02  0.48128640894E+02  0.00000000000E+00 0.  1.
          5    1    1    2  501    0  0.26732224370E+02 -0.30098200227E+02 -0.22642459966E+02  0.46186518271E+02  0.00000000000E+00 0.  1.
         -5    1    1    2    0  503 -0.26732224370E+02  0.30098200227E+02  0.15826746983E+02  0.43255050534E+02  0.00000000000E+00 0. -1.
<mgrwt>
<rscale>  2 0.40255602E+02</rscale>
<asrwt>0</asrwt>
<pdfrwt beam="1">  1       21 0.63558351E-02 0.40255602E+02</pdfrwt>
<pdfrwt beam="2">  1       21 0.74044062E-02 0.40255602E+02</pdfrwt>
<totfact> 0.20641428E+07</totfact>
</mgrwt>
</event>
<event>
 4    1  0.7151341E+004  0.2173122E+02  0.7546771E-02  0.1712942E+00
         21   -1    0    0  501  502  0.00000000000E+00  0.00000000000E+00  0.70827988655E+02  0.70827988655E+02  0.00000000000E+00 0. -1.
         21   -1    0    0  502  503 -0.00000000000E+00 -0.00000000000E+00 -0.85934012346E+01  0.85934012346E+01  0.00000000000E+00 0. -1.
          2    1    1    2  501    0 -0.10504892538E+02  0.19023486286E+02  0.12317994668E+02  0.24979567457E+02  0.00000000000E+00 0.  1.
         -2    1    1    2    0  503  0.10504892538E+02 -0.19023486286E+02  0.49916592752E+02  0.54441822432E+02  0.00000000000E+00 0. -1.
<mgrwt>
<rscale>  2 0.21731217E+02</rscale>
<asrwt>0</asrwt>
<pdfrwt beam="1">  1       21 0.10896613E-01 0.21731217E+02</pdfrwt>
<pdfrwt beam="2">  1       21 0.13220618E-02 0.21731217E+02</pdfrwt>
<totfact> 0.11177328E+08</totfact>
</mgrwt>
</event>
<event>
 4    1  0.7151341E+004  0.2205307E+02  0.7546771E-02  0.1707336E+00
         21   -1    0    0  503  502  0.00000000000E+00  0.00000000000E+00  0.47871923145E+01  0.47871923145E+01  0.00000000000E+00 0.  1.
         21   -1    0    0  501  503 -0.00000000000E+00 -0.00000000000E+00 -0.13953453618E+03  0.13953453618E+03  0.00000000000E+00 0.  1.
          4    1    1    2  501    0  0.11106813535E+02 -0.19051941355E+02 -0.29744277074E+02  0.37027824605E+02  0.00000000000E+00 0. -1.
         -4    1    1    2    0  502 -0.11106813535E+02  0.19051941355E+02 -0.10500306679E+03  0.10729390388E+03  0.00000000000E+00 0.  1.
<mgrwt>
<rscale>  2 0.22053067E+02</rscale>
<asrwt>0</asrwt>
<pdfrwt beam="1">  1       21 0.73649119E-03 0.22053067E+02</pdfrwt>
<pdfrwt beam="2">  1       21 0.21466850E-01 0.22053067E+02</pdfrwt>
<totfact> 0.85006245E+07</totfact>
</mgrwt>
</event>
<event>
 4    1  0.7151341E+004  0.2485462E+02  0.7546771E-02  0.1663099E+00
         21   -1    0    0  503  502  0.00000000000E+00  0.00000000000E+00  0.75922889990E+02  0.75922889990E+02  0.00000000000E+00 0. -1.
         21   -1    0    0  501  503 -0.00000000000E+00 -0.00000000000E+00 -0.15420421964E+02  0.15420421964E+02  0.00000000000E+00 0. -1.
          4    1    1    2  501    0  0.19318567377E+02  0.15637940429E+02  0.61640348238E+02  0.66462656863E+02  0.00000000000E+00 0.  1.
         -4    1    1    2    0  502 -0.19318567377E+02 -0.15637940429E+02 -0.11378802125E+01  0.24880655090E+02  0.00000000000E+00 0. -1.
<mgrwt>
<rscale>  2 0.24854622E+02</rscale>
<asrwt>0</asrwt>
<pdfrwt beam="1">  1       21 0.11680444E-01 0.24854622E+02</pdfrwt>
<pdfrwt beam="2">  1       21 0.23723726E-02 0.24854622E+02</pdfrwt>
<totfact> 0.42204122E+07</totfact>
</mgrwt>
</event>
<event>
 4    1  0.7151341E+004  0.3142413E+02  0.7546771E-02  0.1582860E+00
         21   -1    0    0  503  502  0.00000000000E+00  0.00000000000E+00  0.59524728662E+03  0.59524728662E+03  0.00000000000E+00 0.  1.
         21   -1    0    0  501  503 -0.00000000000E+00 -0.00000000000E+00 -0.16773810453E+01  0.16773810453E+01  0.00000000000E+00 0.  1.
          3    1    1    2  501    0  0.14698877267E+02  0.27774431264E+02  0.32808433977E+03  0.32958581588E+03  0.00000000000E+00 0. -1.
         -3    1    1    2    0  502 -0.14698877267E+02 -0.27774431264E+02  0.26548556580E+03  0.26733885178E+03  0.00000000000E+00 0.  1.
<mgrwt>
<rscale>  2 0.31424131E+02</rscale>
<asrwt>0</asrwt>
<pdfrwt beam="1">  1       21 0.91576337E-01 0.31424131E+02</pdfrwt>
<pdfrwt beam="2">  1       21 0.25805910E-03 0.31424131E+02</pdfrwt>
<totfact> 0.26044490E+07</totfact>
</mgrwt>
</event>
<event>
 4    1  0.7151341E+004  0.2349289E+02  0.7546771E-02  0.1683643E+00
         21   -1    0    0  501  502  0.00000000000E+00  0.00000000000E+00  0.27424156918E+03  0.27424156918E+03  0.00000000000E+00 0.  1.
         21   -1    0    0  502  503 -0.00000000000E+00 -0.00000000000E+00 -0.20135737527E+01  0.20135737527E+01  0.00000000000E+00 0.  1.
          1    1    1    2  501    0 -0.80516372122E+01 -0.22070049263E+02  0.13927770448E+03  0.14124515886E+03  0.00000000000E+00 0.  1.
         -1    1    1    2    0  503  0.80516372122E+01  0.22070049263E+02  0.13295029095E+03  0.13500998408E+03  0.00000000000E+00 0. -1.
<mgrwt>
<rscale>  2 0.23492891E+02</rscale>
<asrwt>0</asrwt>
<pdfrwt beam="1">  1       21 0.42190981E-01 0.23492891E+02</pdfrwt>
<pdfrwt beam="2">  1       21 0.30978079E-03 0.23492891E+02</pdfrwt>
<totfact> 0.90430720E+07</totfact>
</mgrwt>
</event>
<event>
 4    1  0.7151341E+004  0.2580829E+02  0.7546771E-02  0.1649656E+00
         21   -1    0    0  501  502  0.00000000000E+00  0.00000000000E+00  0.22835919888E+02  0.22835919888E+02  0.00000000000E+00 0. -1.
         21   -1    0    0  502  503 -0.00000000000E+00 -0.00000000000E+00 -0.30275757583E+02  0.30275757583E+02  0.00000000000E+00 0. -1.
          2    1    1    2  501    0 -0.25692349860E+02 -0.24435939704E+01 -0.88005974008E+01  0.27267535779E+02  0.00000000000E+00 0.  1.
         -2    1    1    2    0  503  0.25692349860E+02  0.24435939704E+01  0.13607597057E+01  0.25844141692E+02  0.00000000000E+00 0. -1.
<mgrwt>
<rscale>  2 0.25808293E+02</rscale>
<asrwt>0</asrwt>
<pdfrwt beam="1">  1       21 0.35132185E-02 0.25808293E+02</pdfrwt>
<pdfrwt beam="2">  1       21 0.46578088E-02 0.25808293E+02</pdfrwt>
<totfact> 0.10349983E+08</totfact>
</mgrwt>
</event>
<event>
 4    1  0.7151341E+004  0.2365425E+02  0.7546771E-02  0.1681119E+00
         21   -1    0    0  501  502  0.00000000000E+00  0.00000000000E+00  0.44737097445E+02  0.44737097445E+02  0.00000000000E+00 0.  1.
         21   -1    0    0  502  503 -0.00000000000E+00 -0.00000000000E+00 -0.13040056979E+02  0.13040056979E+02  0.00000000000E+00 0.  1.
          1    1    1    2  501    0  0.23653516877E+02 -0.18566340321E+00  0.10007274007E+02  0.25684019635E+02  0.00000000000E+00 0. -1.
         -1    1    1    2    0  503 -0.23653516877E+02  0.18566340321E+00  0.21689766459E+02  0.32093134789E+02  0.00000000000E+00 0.  1.
<mgrwt>
<rscale>  2 0.23654246E+02</rscale>
<asrwt>0</asrwt>
<pdfrwt beam="1">  1       21 0.68826303E-02 0.23654246E+02</pdfrwt>
<pdfrwt beam="2">  1       21 0.20061626E-02 0.23654246E+02</pdfrwt>
<totfact> 0.12890395E+08</totfact>
</mgrwt>
</event>
<event>
 4    1  0.7151341E+004  0.3319996E+02  0.7546771E-02  0.1565192E+00
         21   -1    0    0  503  502  0.00000000000E+00  0.00000000000E+00  0.12891840404E+02  0.12891840404E+02  0.00000000000E+00 0.  1.
         21   -1    0    0  501  503 -0.00000000000E+00 -0.00000000000E+00 -0.13499289714E+03  0.13499289714E+03  0.00000000000E+00 0.  1.
          4    1    1    2  501    0 -0.33088322265E+02  0.27203050759E+01 -0.10582335566E+03  0.11090906065E+03  0.00000000000E+00 0.  1.
         -4    1    1    2    0  502  0.33088322265E+02 -0.27203050759E+01 -0.16277701079E+02  0.36975676903E+02  0.00000000000E+00 0. -1.
<mgrwt>
<rscale>  2 0.33199957E+02</rscale>
<asrwt>0</asrwt>
<pdfrwt beam="1">  1       21 0.19833600E-02 0.33199957E+02</pdfrwt>
<pdfrwt beam="2">  1       21 0.20768138E-01 0.33199957E+02</pdfrwt>
<totfact> 0.21920896E+07</totfact>
</mgrwt>
</event>
<event>
 4    1  0.7151341E+004  0.2062838E+02  0.7546771E-02  0.1733113E+00
         21   -1    0    0  501  502  0.00000000000E+00  0.00000000000E+00  0.85938643509E+02  0.85938643509E+02  0.00000000000E+00 0. -1.
         21   -1    0    0  502  503 -0.00000000000E+00 -0.00000000000E+00 -0.55317236176E+01  0.55317236176E+01  0.00000000000E+00 0. -1.
          3    1    1    2  501    0 -0.50907487658E+01  0.19990351219E+02  0.55014908915E+02  0.58755170562E+02  0.00000000000E+00 0. -1.
         -3    1    1    2    0  503  0.50907487658E+01 -0.19990351219E+02  0.25392010977E+02  0.32715196565E+02  0.00000000000E+00 0.  1.
<mgrwt>
<rscale>  2 0.20628375E+02</rscale>
<asrwt>0</asrwt>
<pdfrwt beam="1">  1       21 0.13221329E-01 0.20628375E+02</pdfrwt>
<pdfrwt beam="2">  1       21 0.85103446E-03 0.20628375E+02</pdfrwt>
<totfact> 0.15431711E+08</totfact>
</mgrwt>
</event>
<event>
 4    1  0.7151341E+004  0.2781254E+02  0.7546771E-02  0.1623608E+00
         21   -1    0    0  501  502  0.00000000000E+00  0.00000000000E+00  0.16672363528E+01  0.16672363528E+01  0.00000000000E+00 0. -1.
         21   -1    0    0  502  503 -0.00000000000E+00 -0.00000000000E+00 -0.49405084645E+03  0.49405084645E+03  0.00000000000E+00 0. -1.
          4    1    1    2  501    0  0.14819569565E+02  0.23535455005E+02 -0.18502597873E+03  0.18710465010E+03  0.00000000000E+00 0. -1.
         -4    1    1    2    0  503 -0.14819569565E+02 -0.23535455005E+02 -0.30735763137E+03  0.30861343271E+03  0.00000000000E+00 0.  1.
<mgrwt>
<rscale>  2 0.27812538E+02</rscale>
<asrwt>0</asrwt>
<pdfrwt beam="1">  1       21 0.25649799E-03 0.27812538E+02</pdfrwt>
<pdfrwt beam="2">  1       21 0.76007795E-01 0.27812538E+02</pdfrwt>
<totfact> 0.38284179E+07</totfact>
</mgrwt>
</event>
<event>
 4    1  0.7151341E+004  0.2939348E+02  0.7546771E-02  0.1604891E+00
         21   -1    0    0  501  502  0.00000000000E+00  0.00000000000E+00  0.63860708088E+02  0.63860708088E+02  0.00000000000E+00 0.  1.
         21   -1    0    0  502  503 -0.00000000000E+00 -0.00000000000E+00 -0.14544894545E+02  0.14544894545E+02  0.00000000000E+00 0.  1.
          1    1    1    2  501    0 -0.30634585765E+01 -0.29233406859E+02  0.14297703694E+02  0.32686406746E+02  0.00000000000E+00 0.  1.
         -1    1    1    2    0  503  0.30634585765E+01  0.29233406859E+02  0.35018109849E+02  0.45719195886E+02  0.00000000000E+00 0. -1.
<mgrwt>
<rscale>  2 0.29393483E+02</rscale>
<asrwt>0</asrwt>
<pdfrwt beam="1">  1       21 0.98247242E-02 0.29393483E+02</pdfrwt>
<pdfrwt beam="2">  1       21 0.22376761E-02 0.29393483E+02</pdfrwt>
<totfact> 0.64205641E+07</totfact>
</mgrwt>
</event>
<event>
 4    1  0.7151341E+004  0.4181246E+02  0.7546771E-02  0.1495282E+00
         21   -1    0    0  501  502  0.00000000000E+00  0.00000000000E+00  0.44302542939E+01  0.44302542939E+01  0.00000000000E+00 0.  1.
         21   -1    0    0  502  503 -0.00000000000E+00 -0.00000000000E+00 -0.41971003673E+03  0.41971003673E+03  0.00000000000E+00 0.  1.
          4    1    1    2  501    0  0.28015228764E+02 -0.31039143112E+02 -0.15579246760E+03  0.16130584121E+03  0.00000000000E+00 0.  1.
         -4    1    1    2    0  503 -0.28015228764E+02  0.31039143112E+02 -0.25948731483E+03  0.26283444981E+03  0.00000000000E+00 0. -1.
<mgrwt>
<rscale>  2 0.41812456E+02</rscale>
<asrwt>0</asrwt>
<pdfrwt beam="1">  1       21 0.68157743E-03 0.41812456E+02</pdfrwt>
<pdfrwt beam="2">  1       21 0.64570790E-01 0.41812456E+02</pdfrwt>
<totfact> 0.13414972E+07</totfact>
</mgrwt>
</event>
<event>
 4    1  0.7151341E+004  0.2570163E+02  0.7546771E-02  0.1651124E+00
         21   -1    0    0  501  502  0.00000000000E+00  0.00000000000E+00  0.33467323579E+03  0.33467323579E+03  0.00000000000E+00 0. -1.
         21   -1    0    0  502  503 -0.00000000000E+00 -0.00000000000E+00 -0.22894143667E+01  0.22894143667E+01  0.00000000000E+00 0. -1.
          1    1    1    2  501    0 -0.86204869667E+01  0.24212825079E+02  0.10363477301E+03  0.10677424723E+03  0.00000000000E+00 0.  1.
         -1    1    1    2    0  503  0.86204869667E+01 -0.24212825079E+02  0.22874904841E+03  0.23018840293E+03  0.00000000000E+00 0. -1.
<mgrwt>
<rscale>  2 0.25701628E+02</rscale>
<asrwt>0</asrwt>
<pdfrwt beam="1">  1       21 0.51488151E-01 0.25701628E+02</pdfrwt>
<pdfrwt beam="2">  1       21 0.35221786E-03 0.25701628E+02</pdfrwt>
<totfact> 0.52125495E+07</totfact>
</mgrwt>
</event>
<event>
 4    1  0.7151341E+004  0.2619249E+02  0.7546771E-02  0.1644442E+00
         21   -1    0    0  501  502  0.00000000000E+00  0.00000000000E+00  0.17244521139E+03  0.17244521139E+03  0.00000000000E+00 0.  1.
         21   -1    0    0  502  503 -0.00000000000E+00 -0.00000000000E+00 -0.42861989637E+01  0.42861989637E+01  0.00000000000E+00 0.  1.
          1    1    1    2  501    0 -0.20416977283E+02  0.16407117019E+02  0.60397398915E+02  0.65832303969E+02  0.00000000000E+00 0.  1.
         -1    1    1    2    0  503  0.20416977283E+02 -0.16407117019E+02  0.10776161352E+03  0.11089910639E+03  0.00000000000E+00 0. -1.
<mgrwt>
<rscale>  2 0.26192488E+02</rscale>
<asrwt>0</asrwt>
<pdfrwt beam="1">  1       21 0.26530027E-01 0.26192488E+02</pdfrwt>
<pdfrwt beam="2">  1       21 0.65941536E-03 0.26192488E+02</pdfrwt>
<totfact> 0.71880391E+07</totfact>
</mgrwt>
</event>
<event>
 4    1  0.7151341E+004  0.3996273E+02  0.7546771E-02  0.1508486E+00
         21   -1    0    0  503  502  0.00000000000E+00  0.00000000000E+00  0.11545357722E+03  0.11545357722E+03  0.00000000000E+00 0.  1.
         21   -1    0    0  501  503 -0.00000000000E+00 -0.00000000000E+00 -0.14337734226E+02  0.14337734226E+02  0.00000000000E+00 0.  1.
          1    1    1    2  501    0  0.71670161234E+01  0.39314797755E+02  0.62739191571E+02  0.74385654542E+02  0.00000000000E+00 0.  1.
         -1    1    1    2    0  502 -0.71670161234E+01 -0.39314797755E+02  0.38376651423E+02  0.55405656905E+02  0.00000000000E+00 0. -1.
<mgrwt>
<rscale>  2 0.39962726E+02</rscale>
<asrwt>0</asrwt>
<pdfrwt beam="1">  1       21 0.17762088E-01 0.39962726E+02</pdfrwt>
<pdfrwt beam="2">  1       21 0.22058053E-02 0.39962726E+02</pdfrwt>
<totfact> 0.25278332E+07</totfact>
</mgrwt>
</event>
<event>
 4    1  0.7151341E+004  0.3956504E+02  0.7546771E-02  0.1511437E+00
         21   -1    0    0  503  502  0.00000000000E+00  0.00000000000E+00  0.24877659407E+03  0.24877659407E+03  0.00000000000E+00 0. -1.
         21   -1    0    0  501  503 -0.00000000000E+00 -0.00000000000E+00 -0.29519607980E+02  0.29519607980E+02  0.00000000000E+00 0. -1.
          4    1    1    2  501    0 -0.31110124580E+02 -0.24444889550E+02 -0.13801540547E+02  0.41903162147E+02  0.00000000000E+00 0. -1.
         -4    1    1    2    0  502  0.31110124580E+02  0.24444889550E+02  0.23305852664E+03  0.23639303990E+03  0.00000000000E+00 0.  1.
<mgrwt>
<rscale>  2 0.39565041E+02</rscale>
<asrwt>0</asrwt>
<pdfrwt beam="1">  1       21 0.38273321E-01 0.39565041E+02</pdfrwt>
<pdfrwt beam="2">  1       21 0.45414783E-02 0.39565041E+02</pdfrwt>
<totfact> 0.19580617E+06</totfact>
</mgrwt>
</event>
<event>
 4    1  0.7151341E+004  0.2591271E+02  0.7546771E-02  0.1648228E+00
         21   -1    0    0  501  502  0.00000000000E+00  0.00000000000E+00  0.13876038505E+03  0.13876038505E+03  0.00000000000E+00 0.  1.
         21   -1    0    0  502  503 -0.00000000000E+00 -0.00000000000E+00 -0.49599736870E+01  0.49599736870E+01  0.00000000000E+00 0.  1.
          3    1    1    2  501    0 -0.66598195894E+01  0.25042266629E+02  0.55679867765E+02  0.61414297922E+02  0.00000000000E+00 0. -1.
         -3    1    1    2    0  503  0.66598195894E+01 -0.25042266629E+02  0.78120543598E+02  0.82306060816E+02  0.00000000000E+00 0.  1.
<mgrwt>
<rscale>  2 0.25912706E+02</rscale>
<asrwt>0</asrwt>
<pdfrwt beam="1">  1       21 0.21347749E-01 0.25912706E+02</pdfrwt>
<pdfrwt beam="2">  1       21 0.76307298E-03 0.25912706E+02</pdfrwt>
<totfact> 0.84931843E+07</totfact>
</mgrwt>
</event>
<event>
 4    1  0.7151341E+004  0.3731421E+02  0.7546771E-02  0.1528960E+00
         21   -1    0    0  501  502  0.00000000000E+00  0.00000000000E+00  0.70321955745E+00  0.70321955745E+00  0.00000000000E+00 0. -1.
         21   -1    0    0  502  503 -0.00000000000E+00 -0.00000000000E+00 -0.19830100970E+04  0.19830100970E+04  0.00000000000E+00 0. -1.
          5    1    1    2  501    0 -0.36932506889E+02  0.53235629702E+01 -0.10300184640E+04  0.10306941286E+04  0.00000000000E+00 0.  1.
         -5    1    1    2    0  503  0.36932506889E+02 -0.53235629702E+01 -0.95228841342E+03  0.95301918801E+03  0.00000000000E+00 0. -1.
<mgrwt>
<rscale>  2 0.37314212E+02</rscale>
<asrwt>0</asrwt>
<pdfrwt beam="1">  1       21 0.10819106E-03 0.37314212E+02</pdfrwt>
<pdfrwt beam="2">  1       21 0.30506879E+00 0.37314212E+02</pdfrwt>
<totfact> 0.40711408E+06</totfact>
</mgrwt>
</event>
<event>
 4    1  0.7151341E+004  0.2227237E+02  0.7546771E-02  0.1703584E+00
         21   -1    0    0  501  502  0.00000000000E+00  0.00000000000E+00  0.89235121359E+02  0.89235121359E+02  0.00000000000E+00 0. -1.
         21   -1    0    0  502  503 -0.00000000000E+00 -0.00000000000E+00 -0.62003245343E+01  0.62003245343E+01  0.00000000000E+00 0. -1.
          2    1    1    2  501    0 -0.21097081488E+02 -0.71394291558E+01  0.56863937679E+02  0.61070170332E+02  0.00000000000E+00 0. -1.
         -2    1    1    2    0  503  0.21097081488E+02  0.71394291558E+01  0.26170859145E+02  0.34365275561E+02  0.00000000000E+00 0.  1.
<mgrwt>
<rscale>  2 0.22272366E+02</rscale>
<asrwt>0</asrwt>
<pdfrwt beam="1">  1       21 0.13728479E-01 0.22272366E+02</pdfrwt>
<pdfrwt beam="2">  1       21 0.95389615E-03 0.22272366E+02</pdfrwt>
<totfact> 0.12496866E+08</totfact>
</mgrwt>
</event>
<event>
 4    1  0.7151341E+004  0.2026232E+02  0.7546771E-02  0.1740161E+00
         21   -1    0    0  503  502  0.00000000000E+00  0.00000000000E+00  0.15048870801E+02  0.15048870801E+02  0.00000000000E+00 0.  1.
         21   -1    0    0  501  503 -0.00000000000E+00 -0.00000000000E+00 -0.27805541723E+02  0.27805541723E+02  0.00000000000E+00 0.  1.
          1    1    1    2  501    0 -0.68889260550E+01  0.19055296347E+02 -0.93188382776E+01  0.22302519318E+02  0.00000000000E+00 0.  1.
         -1    1    1    2    0  502  0.68889260550E+01 -0.19055296347E+02 -0.34378326436E+01  0.20551893206E+02  0.00000000000E+00 0. -1.
<mgrwt>
<rscale>  2 0.20262320E+02</rscale>
<asrwt>0</asrwt>
<pdfrwt beam="1">  1       21 0.23152109E-02 0.20262320E+02</pdfrwt>
<pdfrwt beam="2">  1       21 0.42777756E-02 0.20262320E+02</pdfrwt>
<totfact> 0.21055050E+08</totfact>
</mgrwt>
</event>
<event>
 4    1  0.7151341E+004  0.2779442E+02  0.7546771E-02  0.1623831E+00
         21   -1    0    0  503  502  0.00000000000E+00  0.00000000000E+00  0.89255612097E+01  0.89255612097E+01  0.00000000000E+00 0.  1.
         21   -1    0    0  501  503 -0.00000000000E+00 -0.00000000000E+00 -0.91963208385E+02  0.91963208385E+02  0.00000000000E+00 0.  1.
          4    1    1    2  501    0  0.11017120219E+02 -0.25517692555E+02 -0.53754645021E+02  0.60515216537E+02  0.00000000000E+00 0. -1.
         -4    1    1    2    0  502 -0.11017120219E+02  0.25517692555E+02 -0.29283002155E+02  0.40373553057E+02  0.00000000000E+00 0.  1.
<mgrwt>
<rscale>  2 0.27794416E+02</rscale>
<asrwt>0</asrwt>
<pdfrwt beam="1">  1       21 0.13731633E-02 0.27794416E+02</pdfrwt>
<pdfrwt beam="2">  1       21 0.14148185E-01 0.27794416E+02</pdfrwt>
<totfact> 0.72599978E+07</totfact>
</mgrwt>
</event>
<event>
 4    1  0.7151341E+004  0.3758816E+02  0.7546771E-02  0.1526749E+00
         21   -1    0    0  501  502  0.00000000000E+00  0.00000000000E+00  0.14657413365E+01  0.14657413365E+01  0.00000000000E+00 0.  1.
         21   -1    0    0  502  503 -0.00000000000E+00 -0.00000000000E+00 -0.13344446725E+04  0.13344446725E+04  0.00000000000E+00 0.  1.
          4    1    1    2  501    0  0.31274221285E+02 -0.20851693454E+02 -0.31452358719E+03  0.31676167213E+03  0.00000000000E+00 0. -1.
         -4    1    1    2    0  503 -0.31274221285E+02  0.20851693454E+02 -0.10184553440E+04  0.10191487417E+04  0.00000000000E+00 0.  1.
<mgrwt>
<rscale>  2 0.37588164E+02</rscale>
<asrwt>0</asrwt>
<pdfrwt beam="1">  1       21 0.22549854E-03 0.37588164E+02</pdfrwt>
<pdfrwt beam="2">  1       21 0.20529930E+00 0.37588164E+02</pdfrwt>
<totfact> 0.46727274E+06</totfact>
</mgrwt>
</event>
<event>
 4    1  0.7151341E+004  0.2205867E+02  0.7546771E-02  0.1707239E+00
         21   -1    0    0  503  502  0.00000000000E+00  0.00000000000E+00  0.70350670960E+02  0.70350670960E+02  0.00000000000E+00 0. -1.
         21   -1    0    0  501  503 -0.00000000000E+00 -0.00000000000E+00 -0.71597628942E+01  0.71597628942E+01  0.00000000000E+00 0. -1.
          5    1    1    2  501    0  0.82661283667E+01 -0.20451314043E+02  0.38738098510E+02  0.44578306388E+02  0.00000000000E+00 0. -1.
         -5    1    1    2    0  502 -0.82661283667E+01  0.20451314043E+02  0.24452809556E+02  0.32932127466E+02  0.00000000000E+00 0.  1.
<mgrwt>
<rscale>  2 0.22058675E+02</rscale>
<asrwt>0</asrwt>
<pdfrwt beam="1">  1       21 0.10823180E-01 0.22058675E+02</pdfrwt>
<pdfrwt beam="2">  1       21 0.11015020E-02 0.22058675E+02</pdfrwt>
<totfact> 0.14949317E+08</totfact>
</mgrwt>
</event>
<event>
 4    1  0.7151341E+004  0.2237416E+02  0.7546771E-02  0.1701860E+00
         21   -1    0    0  503  502  0.00000000000E+00  0.00000000000E+00  0.33069162209E+03  0.33069162209E+03  0.00000000000E+00 0. -1.
         21   -1    0    0  501  503 -0.00000000000E+00 -0.00000000000E+00 -0.18066879702E+01  0.18066879702E+01  0.00000000000E+00 0. -1.
          1    1    1    2  501    0  0.22347543320E+02 -0.10910220264E+01  0.97505804493E+02  0.10003991669E+03  0.00000000000E+00 0. -1.
         -1    1    1    2    0  502 -0.22347543320E+02  0.10910220264E+01  0.23137912962E+03  0.23245839337E+03  0.00000000000E+00 0.  1.
<mgrwt>
<rscale>  2 0.22374160E+02</rscale>
<asrwt>0</asrwt>
<pdfrwt beam="1">  1       21 0.50875586E-01 0.22374160E+02</pdfrwt>
<pdfrwt beam="2">  1       21 0.27795226E-03 0.22374160E+02</pdfrwt>
<totfact> 0.72981452E+07</totfact>
</mgrwt>
</event>
<event>
 4    1  0.7151341E+004  0.2152993E+02  0.7546771E-02  0.1716511E+00
         21   -1    0    0  501  502  0.00000000000E+00  0.00000000000E+00  0.43339559662E+02  0.43339559662E+02  0.00000000000E+00 0. -1.
         21   -1    0    0  502  503 -0.00000000000E+00 -0.00000000000E+00 -0.11846257751E+02  0.11846257751E+02  0.00000000000E+00 0. -1.
          5    1    1    2  501    0 -0.28801427955E+01  0.21336413881E+02  0.71466016384E+01  0.22685054437E+02  0.00000000000E+00 0. -1.
         -5    1    1    2    0  503  0.28801427955E+01 -0.21336413881E+02  0.24346700272E+02  0.32500762975E+02  0.00000000000E+00 0.  1.
<mgrwt>
<rscale>  2 0.21529928E+02</rscale>
<asrwt>0</asrwt>
<pdfrwt beam="1">  1       21 0.66676245E-02 0.21529928E+02</pdfrwt>
<pdfrwt beam="2">  1       21 0.18225012E-02 0.21529928E+02</pdfrwt>
<totfact> 0.15277260E+08</totfact>
</mgrwt>
</event>
<event>
 4    1  0.7151341E+004  0.2832045E+02  0.7546771E-02  0.1617432E+00
         21   -1    0    0  503  502  0.00000000000E+00  0.00000000000E+00  0.59568579239E+01  0.59568579239E+01  0.00000000000E+00 0. -1.
         21   -1    0    0  501  503 -0.00000000000E+00 -0.00000000000E+00 -0.13496042042E+03  0.13496042042E+03  0.00000000000E+00 0. -1.
          1    1    1    2  501    0  0.25112860763E+02  0.13091691327E+02 -0.67919769987E+02  0.73587657338E+02  0.00000000000E+00 0.  1.
         -1    1    1    2    0  502 -0.25112860763E+02 -0.13091691327E+02 -0.61083792510E+02  0.67329621007E+02  0.00000000000E+00 0. -1.
<mgrwt>
<rscale>  2 0.28320455E+02</rscale>
<asrwt>0</asrwt>
<pdfrwt beam="1">  1       21 0.91643973E-03 0.28320455E+02</pdfrwt>
<pdfrwt beam="2">  1       21 0.20763141E-01 0.28320455E+02</pdfrwt>
<totfact> 0.69208896E+07</totfact>
</mgrwt>
</event>
<event>
 4    1  0.7151341E+004  0.3324963E+02  0.7546771E-02  0.1564717E+00
         21   -1    0    0  501  502  0.00000000000E+00  0.00000000000E+00  0.41855501722E+02  0.41855501722E+02  0.00000000000E+00 0.  1.
         21   -1    0    0  502  503 -0.00000000000E+00 -0.00000000000E+00 -0.26483440040E+02  0.26483440040E+02  0.00000000000E+00 0.  1.
          1    1    1    2  501    0 -0.33040422396E+02 -0.37239953853E+01  0.59262861610E+01  0.33773636485E+02  0.00000000000E+00 0. -1.
         -1    1    1    2    0  503  0.33040422396E+02  0.37239953853E+01  0.94457755205E+01  0.34565305277E+02  0.00000000000E+00 0.  1.
<mgrwt>
<rscale>  2 0.33249626E+02</rscale>
<asrwt>0</asrwt>
<pdfrwt beam="1">  1       21 0.64393080E-02 0.33249626E+02</pdfrwt>
<pdfrwt beam="2">  1       21 0.40743754E-02 0.33249626E+02</pdfrwt>
<totfact> 0.51549781E+07</totfact>
</mgrwt>
</event>
<event>
 4    1  0.7151341E+004  0.2720823E+02  0.7546771E-02  0.1631171E+00
         21   -1    0    0  501  502  0.00000000000E+00  0.00000000000E+00  0.36471924094E+02  0.36471924094E+02  0.00000000000E+00 0. -1.
         21   -1    0    0  502  503 -0.00000000000E+00 -0.00000000000E+00 -0.20883959025E+02  0.20883959025E+02  0.00000000000E+00 0. -1.
          2    1    1    2  501    0 -0.10882305543E+02 -0.24937182086E+02  0.12599864904E+02  0.29984066100E+02  0.00000000000E+00 0.  1.
         -2    1    1    2    0  503  0.10882305543E+02  0.24937182086E+02  0.29881001648E+01  0.27371817019E+02  0.00000000000E+00 0. -1.
<mgrwt>
<rscale>  2 0.27208227E+02</rscale>
<asrwt>0</asrwt>
<pdfrwt beam="1">  1       21 0.56110652E-02 0.27208227E+02</pdfrwt>
<pdfrwt beam="2">  1       21 0.32129168E-02 0.27208227E+02</pdfrwt>
<totfact> 0.89618466E+07</totfact>
</mgrwt>
</event>
<event>
 4    1  0.7151341E+004  0.2186578E+02  0.7546771E-02  0.1710584E+00
         21   -1    0    0  503  502  0.00000000000E+00  0.00000000000E+00  0.48860741112E+02  0.48860741112E+02  0.00000000000E+00 0. -1.
         21   -1    0    0  501  503 -0.00000000000E+00 -0.00000000000E+00 -0.11465836498E+02  0.11465836498E+02  0.00000000000E+00 0. -1.
          3    1    1    2  501    0  0.33045650962E+01 -0.21614628437E+02  0.30245596974E+02  0.37321688724E+02  0.00000000000E+00 0.  1.
         -3    1    1    2    0  502 -0.33045650962E+01  0.21614628437E+02  0.71493076404E+01  0.23004888886E+02  0.00000000000E+00 0. -1.
<mgrwt>
<rscale>  2 0.21865779E+02</rscale>
<asrwt>0</asrwt>
<pdfrwt beam="1">  1       21 0.75170370E-02 0.21865779E+02</pdfrwt>
<pdfrwt beam="2">  1       21 0.17639749E-02 0.21865779E+02</pdfrwt>
<totfact> 0.13289982E+08</totfact>
</mgrwt>
</event>
<event>
 4    1  0.7151341E+004  0.2292311E+02  0.7546771E-02  0.1692759E+00
         21   -1    0    0  503  502  0.00000000000E+00  0.00000000000E+00  0.49523625102E+00  0.49523625102E+00  0.00000000000E+00 0. -1.
         21   -1    0    0  501  503 -0.00000000000E+00 -0.00000000000E+00 -0.16265451785E+04  0.16265451785E+04  0.00000000000E+00 0. -1.
          4    1    1    2  501    0  0.20021663510E+02 -0.11162533477E+02 -0.33334596588E+03  0.33413321016E+03  0.00000000000E+00 0.  1.
         -4    1    1    2    0  502 -0.20021663510E+02  0.11162533477E+02 -0.12927039764E+04  0.12929072046E+04  0.00000000000E+00 0. -1.
<mgrwt>
<rscale>  2 0.22923114E+02</rscale>
<asrwt>0</asrwt>
<pdfrwt beam="1">  1       21 0.76189023E-04 0.22923114E+02</pdfrwt>
<pdfrwt beam="2">  1       21 0.25024156E+00 0.22923114E+02</pdfrwt>
<totfact> 0.12486895E+07</totfact>
</mgrwt>
</event>
<event>
 4    1  0.7151341E+004  0.2217987E+02  0.7546771E-02  0.1705160E+00
         21   -1    0    0  503  502  0.00000000000E+00  0.00000000000E+00  0.25608650282E+03  0.25608650282E+03  0.00000000000E+00 0.  1.
         21   -1    0    0  501  503 -0.00000000000E+00 -0.00000000000E+00 -0.19248725903E+01  0.19248725903E+01  0.00000000000E+00 0.  1.
          5    1    1    2  501    0 -0.90109099059E+01  0.20266975541E+02  0.12130791539E+03  0.12331892446E+03  0.00000000000E+00 0. -1.
         -5    1    1    2    0  502  0.90109099059E+01 -0.20266975541E+02  0.13285371484E+03  0.13469245094E+03  0.00000000000E+00 0.  1.
<mgrwt>
<rscale>  2 0.22179874E+02</rscale>
<asrwt>0</asrwt>
<pdfrwt beam="1">  1       21 0.39397896E-01 0.22179874E+02</pdfrwt>
<pdfrwt beam="2">  1       21 0.29613445E-03 0.22179874E+02</pdfrwt>
<totfact> 0.10824772E+08</totfact>
</mgrwt>
</event>
<event>
 4    1  0.7151341E+004  0.2585822E+02  0.7546771E-02  0.1648972E+00
         21   -1    0    0  503  502  0.00000000000E+00  0.00000000000E+00  0.17936550569E+03  0.17936550569E+03  0.00000000000E+00 0.  1.
         21   -1    0    0  501  503 -0.00000000000E+00 -0.00000000000E+00 -0.38644409367E+01  0.38644409367E+01  0.00000000000E+00 0.  1.
          4    1    1    2  501    0  0.17415244182E+02 -0.19114308223E+02  0.10497460161E+03  0.10811250849E+03  0.00000000000E+00 0. -1.
         -4    1    1    2    0  502 -0.17415244182E+02  0.19114308223E+02  0.70526463140E+02  0.75117438134E+02  0.00000000000E+00 0.  1.
<mgrwt>
<rscale>  2 0.25858219E+02</rscale>
<asrwt>0</asrwt>
<pdfrwt beam="1">  1       21 0.27594687E-01 0.25858219E+02</pdfrwt>
<pdfrwt beam="2">  1       21 0.59452951E-03 0.25858219E+02</pdfrwt>
<totfact> 0.77873062E+07</totfact>
</mgrwt>
</event>
<event>
 4    1  0.7151341E+004  0.2069769E+02  0.7546771E-02  0.1731799E+00
         21   -1    0    0  503  502  0.00000000000E+00  0.00000000000E+00  0.89785587692E+01  0.89785587692E+01  0.00000000000E+00 0. -1.
         21   -1    0    0  501  503 -0.00000000000E+00 -0.00000000000E+00 -0.55229962893E+02  0.55229962893E+02  0.00000000000E+00 0. -1.
          1    1    1    2  501    0 -0.18941707259E+02  0.83430225873E+01 -0.34969621816E+02  0.40635806252E+02  0.00000000000E+00 0.  1.
         -1    1    1    2    0  502  0.18941707259E+02 -0.83430225873E+01 -0.11281782308E+02  0.23572715410E+02  0.00000000000E+00 0. -1.
<mgrwt>
<rscale>  2 0.20697688E+02</rscale>
<asrwt>0</asrwt>
<pdfrwt beam="1">  1       21 0.13813168E-02 0.20697688E+02</pdfrwt>
<pdfrwt beam="2">  1       21 0.84969172E-02 0.20697688E+02</pdfrwt>
<totfact> 0.15519743E+08</totfact>
</mgrwt>
</event>
<event>
 4    1  0.7151341E+004  0.2769358E+02  0.7546771E-02  0.1625078E+00
         21   -1    0    0  501  502  0.00000000000E+00  0.00000000000E+00  0.14084461264E+03  0.14084461264E+03  0.00000000000E+00 0.  1.
         21   -1    0    0  502  503 -0.00000000000E+00 -0.00000000000E+00 -0.62996168955E+01  0.62996168955E+01  0.00000000000E+00 0.  1.
          2    1    1    2  501    0 -0.27544609812E+02 -0.28686373072E+01  0.40178224702E+02  0.48797790421E+02  0.00000000000E+00 0.  1.
         -2    1    1    2    0  503  0.27544609812E+02  0.28686373072E+01  0.94366771042E+02  0.98346439115E+02  0.00000000000E+00 0. -1.
<mgrwt>
<rscale>  2 0.27693584E+02</rscale>
<asrwt>0</asrwt>
<pdfrwt beam="1">  1       21 0.21668400E-01 0.27693584E+02</pdfrwt>
<pdfrwt beam="2">  1       21 0.96917194E-03 0.27693584E+02</pdfrwt>
<totfact> 0.58671196E+07</totfact>
</mgrwt>
</event>
<event>
 4    1  0.7151341E+004  0.2371600E+02  0.7546771E-02  0.1680160E+00
         21   -1    0    0  503  502  0.00000000000E+00  0.00000000000E+00  0.15206963874E+03  0.15206963874E+03  0.00000000000E+00 0.  1.
         21   -1    0    0  501  503 -0.00000000000E+00 -0.00000000000E+00 -0.40894989657E+01  0.40894989657E+01  0.00000000000E+00 0.  1.
          2    1    1    2  501    0 -0.12379665917E+02 -0.20228507238E+02  0.98129137304E+02  0.10095432740E+03  0.00000000000E+00 0.  1.
         -2    1    1    2    0  502  0.12379665917E+02  0.20228507238E+02  0.49851002470E+02  0.55204810303E+02  0.00000000000E+00 0. -1.
<mgrwt>
<rscale>  2 0.23716000E+02</rscale>
<asrwt>0</asrwt>
<pdfrwt beam="1">  1       21 0.23395325E-01 0.23716000E+02</pdfrwt>
<pdfrwt beam="2">  1       21 0.62915381E-03 0.23716000E+02</pdfrwt>
<totfact> 0.94146533E+07</totfact>
</mgrwt>
</event>
<event>
 4    1  0.7151341E+004  0.4136519E+02  0.7546771E-02  0.1498399E+00
         21   -1    0    0  503  502  0.00000000000E+00  0.00000000000E+00  0.17724302584E+02  0.17724302584E+02  0.00000000000E+00 0.  1.
         21   -1    0    0  501  503 -0.00000000000E+00 -0.00000000000E+00 -0.96569850167E+02  0.96569850167E+02  0.00000000000E+00 0.  1.
          1    1    1    2  501    0  0.40086775490E+02 -0.10204400181E+02 -0.38394754090E+02  0.56437899446E+02  0.00000000000E+00 0. -1.
         -1    1    1    2    0  502 -0.40086775490E+02  0.10204400181E+02 -0.40450793493E+02  0.57856253305E+02  0.00000000000E+00 0.  1.
<mgrwt>
<rscale>  2 0.41365195E+02</rscale>
<asrwt>0</asrwt>
<pdfrwt beam="1">  1       21 0.27268158E-02 0.41365195E+02</pdfrwt>
<pdfrwt beam="2">  1       21 0.14856900E-01 0.41365195E+02</pdfrwt>
<totfact> 0.24887606E+07</totfact>
</mgrwt>
</event>
<event>
 4    1  0.7151341E+004  0.2178340E+02  0.7546771E-02  0.1712025E+00
         21   -1    0    0  501  502  0.00000000000E+00  0.00000000000E+00  0.56903492085E+02  0.56903492085E+02  0.00000000000E+00 0. -1.
         21   -1    0    0  502  503 -0.00000000000E+00 -0.00000000000E+00 -0.86479176604E+01  0.86479176604E+01  0.00000000000E+00 0. -1.
          5    1    1    2  501    0 -0.55695376791E+01  0.21059358546E+02  0.17932792230E+02  0.28215268375E+02  0.00000000000E+00 0. -1.
         -5    1    1    2    0  503  0.55695376791E+01 -0.21059358546E+02  0.30322782195E+02  0.37336141370E+02  0.00000000000E+00 0.  1.
<mgrwt>
<rscale>  2 0.21783396E+02</rscale>
<asrwt>0</asrwt>
<pdfrwt beam="1">  1       21 0.87543832E-02 0.21783396E+02</pdfrwt>
<pdfrwt beam="2">  1       21 0.13304489E-02 0.21783396E+02</pdfrwt>
<totfact> 0.15891422E+08</totfact>
</mgrwt>
</event>
<event>
 4    1  0.7151341E+004  0.2135143E+02  0.7546771E-02  0.1719716E+00
         21   -1    0    0  501  502  0.00000000000E+00  0.00000000000E+00  0.28511234928E+03  0.28511234928E+03  0.00000000000E+00 0.  1.
         21   -1    0    0  502  503 -0.00000000000E+00 -0.00000000000E+00 -0.16038630697E+01  0.16038630697E+01  0.00000000000E+00 0.  1.
          1    1    1    2  501    0 -0.98026567297E+01 -0.18968170634E+02  0.14967963479E+03  0.15119483010E+03  0.00000000000E+00 0.  1.
         -1    1    1    2    0  503  0.98026567297E+01  0.18968170634E+02  0.13382885141E+03  0.13552138225E+03  0.00000000000E+00 0. -1.
<mgrwt>
<rscale>  2 0.21351430E+02</rscale>
<asrwt>0</asrwt>
<pdfrwt beam="1">  1       21 0.43863398E-01 0.21351430E+02</pdfrwt>
<pdfrwt beam="2">  1       21 0.24674839E-03 0.21351430E+02</pdfrwt>
<totfact> 0.11396683E+08</totfact>
</mgrwt>
</event>
<event>
 4    1  0.7151341E+004  0.3658311E+02  0.7546771E-02  0.1534975E+00
         21   -1    0    0  501  502  0.00000000000E+00  0.00000000000E+00  0.14388388617E+03  0.14388388617E+03  0.00000000000E+00 0. -1.
         21   -1    0    0  502  503 -0.00000000000E+00 -0.00000000000E+00 -0.10350110348E+02  0.10350110348E+02  0.00000000000E+00 0. -1.
          3    1    1    2  501    0 -0.10572598582E+02 -0.35022053438E+02  0.91314080010E+02  0.98369635944E+02  0.00000000000E+00 0.  1.
         -3    1    1    2    0  503  0.10572598582E+02  0.35022053438E+02  0.42219695810E+02  0.55864360571E+02  0.00000000000E+00 0. -1.
<mgrwt>
<rscale>  2 0.36583112E+02</rscale>
<asrwt>0</asrwt>
<pdfrwt beam="1">  1       21 0.22135981E-01 0.36583112E+02</pdfrwt>
<pdfrwt beam="2">  1       21 0.15923248E-02 0.36583112E+02</pdfrwt>
<totfact> 0.27970662E+07</totfact>
</mgrwt>
</event>
<event>
 4    1  0.7151341E+004  0.3509208E+02  0.7546771E-02  0.1547784E+00
         21   -1    0    0  501  502  0.00000000000E+00  0.00000000000E+00  0.73081949827E+01  0.73081949827E+01  0.00000000000E+00 0.  1.
         21   -1    0    0  502  503 -0.00000000000E+00 -0.00000000000E+00 -0.31130537842E+03  0.31130537842E+03  0.00000000000E+00 0.  1.
          5    1    1    2  501    0 -0.29044159463E+02 -0.19694946579E+02 -0.44101830810E+02  0.56359787087E+02  0.00000000000E+00 0. -1.
         -5    1    1    2    0  503  0.29044159463E+02  0.19694946579E+02 -0.25989535263E+03  0.26225378632E+03  0.00000000000E+00 0.  1.
<mgrwt>
<rscale>  2 0.35092081E+02</rscale>
<asrwt>0</asrwt>
<pdfrwt beam="1">  1       21 0.11243378E-02 0.35092081E+02</pdfrwt>
<pdfrwt beam="2">  1       21 0.47893132E-01 0.35092081E+02</pdfrwt>
<totfact> 0.11180998E+07</totfact>
</mgrwt>
</event>
<event>
 4    1  0.7151341E+004  0.2956493E+02  0.7546771E-02  0.1602948E+00
         21   -1    0    0  503  502  0.00000000000E+00  0.00000000000E+00  0.32695589783E+02  0.32695589783E+02  0.00000000000E+00 0.  1.
         21   -1    0    0  501  503 -0.00000000000E+00 -0.00000000000E+00 -0.30166149828E+02  0.30166149828E+02  0.00000000000E+00 0.  1.
          1    1    1    2  501    0  0.20589615486E+02  0.21216800155E+02 -0.93370331135E+01  0.31004274900E+02  0.00000000000E+00 0. -1.
         -1    1    1    2    0  502 -0.20589615486E+02 -0.21216800155E+02  0.11866473069E+02  0.31857464711E+02  0.00000000000E+00 0.  1.
<mgrwt>
<rscale>  2 0.29564926E+02</rscale>
<asrwt>0</asrwt>
<pdfrwt beam="1">  1       21 0.50300908E-02 0.29564926E+02</pdfrwt>
<pdfrwt beam="2">  1       21 0.46409461E-02 0.29564926E+02</pdfrwt>
<totfact> 0.60877306E+07</totfact>
</mgrwt>
</event>
<event>
 4    1  0.7151341E+004  0.2318552E+02  0.7546771E-02  0.1688520E+00
         21   -1    0    0  501  502  0.00000000000E+00  0.00000000000E+00  0.11027277283E+03  0.11027277283E+03  0.00000000000E+00 0. -1.
         21   -1    0    0  502  503 -0.00000000000E+00 -0.00000000000E+00 -0.50862327698E+01  0.50862327698E+01  0.00000000000E+00 0. -1.
          3    1    1    2  501    0 -0.40051224559E+01 -0.22836973514E+02  0.40835896662E+02  0.46958905666E+02  0.00000000000E+00 0.  1.
         -3    1    1    2    0  503  0.40051224559E+01  0.22836973514E+02  0.64350643394E+02  0.68400099930E+02  0.00000000000E+00 0. -1.
<mgrwt>
<rscale>  2 0.23185521E+02</rscale>
<asrwt>0</asrwt>
<pdfrwt beam="1">  1       21 0.16965040E-01 0.23185521E+02</pdfrwt>
<pdfrwt beam="2">  1       21 0.78249743E-03 0.23185521E+02</pdfrwt>
<totfact> 0.11851462E+08</totfact>
</mgrwt>
</event>
<event>
 4    1  0.7151341E+004  0.2094085E+02  0.7546771E-02  0.1727240E+00
         21   -1    0    0  503  502  0.00000000000E+00  0.00000000000E+00  0.99777146035E+01  0.99777146035E+01  0.00000000000E+00 0. -1.
         21   -1    0    0  501  503 -0.00000000000E+00 -0.00000000000E+00 -0.80790058681E+02  0.80790058681E+02  0.00000000000E+00 0. -1.
          1    1    1    2  501    0  0.10639759329E+02  0.18036479863E+02 -0.66052874398E+02  0.69292866159E+02  0.00000000000E+00 0.  1.
         -1    1    1    2    0  502 -0.10639759329E+02 -0.18036479863E+02 -0.47594696803E+01  0.21474907125E+02  0.00000000000E+00 0. -1.
<mgrwt>
<rscale>  2 0.20940847E+02</rscale>
<asrwt>0</asrwt>
<pdfrwt beam="1">  1       21 0.15350330E-02 0.20940847E+02</pdfrwt>
<pdfrwt beam="2">  1       21 0.12429240E-01 0.20940847E+02</pdfrwt>
<totfact> 0.70861868E+07</totfact>
</mgrwt>
</event>
<event>
 4    1  0.7151341E+004  0.2102303E+02  0.7546771E-02  0.1725717E+00
         21   -1    0    0  501  502  0.00000000000E+00  0.00000000000E+00  0.57862716315E+03  0.57862716315E+03  0.00000000000E+00 0. -1.
         21   -1    0    0  502  503 -0.00000000000E+00 -0.00000000000E+00 -0.78916563087E+00  0.78916563087E+00  0.00000000000E+00 0. -1.
          4    1    1    2  501    0 -0.44127714974E+01  0.20554684417E+02  0.34083715515E+03  0.34148489562E+03  0.00000000000E+00 0. -1.
         -4    1    1    2    0  503  0.44127714974E+01 -0.20554684417E+02  0.23700084237E+03  0.23793143316E+03  0.00000000000E+00 0.  1.
<mgrwt>
<rscale>  2 0.21023026E+02</rscale>
<asrwt>0</asrwt>
<pdfrwt beam="1">  1       21 0.89019225E-01 0.21023026E+02</pdfrwt>
<pdfrwt beam="2">  1       21 0.12141056E-03 0.21023026E+02</pdfrwt>
<totfact> 0.75837617E+07</totfact>
</mgrwt>
</event>
<event>
 4    1  0.7151341E+004  0.2198014E+02  0.7546771E-02  0.1708596E+00
         21   -1    0    0  501  502  0.00000000000E+00  0.00000000000E+00  0.86226631359E+03  0.86226631359E+03  0.00000000000E+00 0. -1.
         21   -1    0    0  502  503 -0.00000000000E+00 -0.00000000000E+00 -0.75595481128E+00  0.75595481128E+00  0.00000000000E+00 0. -1.
          5    1    1    2  501    0  0.23765535439E+01  0.21851287452E+02  0.21122678548E+03  0.21236732723E+03  0.00000000000E+00 0. -1.
         -5    1    1    2    0  503 -0.23765535439E+01 -0.21851287452E+02  0.65028357330E+03  0.65065494117E+03  0.00000000000E+00 0.  1.
<mgrwt>
<rscale>  2 0.21980145E+02</rscale>
<asrwt>0</asrwt>
<pdfrwt beam="1">  1       21 0.13265557E+00 0.21980145E+02</pdfrwt>
<pdfrwt beam="2">  1       21 0.11630143E-03 0.21980145E+02</pdfrwt>
<totfact> 0.33655199E+07</totfact>
</mgrwt>
</event>
<event>
 4    1  0.7151341E+004  0.2109697E+02  0.7546771E-02  0.1724354E+00
         21   -1    0    0  503  502  0.00000000000E+00  0.00000000000E+00  0.18377489394E+02  0.18377489394E+02  0.00000000000E+00 0.  1.
         21   -1    0    0  501  503 -0.00000000000E+00 -0.00000000000E+00 -0.27704858187E+02  0.27704858187E+02  0.00000000000E+00 0.  1.
          4    1    1    2  501    0 -0.21090143446E+02 -0.53654135185E+00  0.35094678222E+01  0.21386874282E+02  0.00000000000E+00 0. -1.
         -4    1    1    2    0  502  0.21090143446E+02  0.53654135185E+00 -0.12836836615E+02  0.24695473299E+02  0.00000000000E+00 0.  1.
<mgrwt>
<rscale>  2 0.21096967E+02</rscale>
<asrwt>0</asrwt>
<pdfrwt beam="1">  1       21 0.28273061E-02 0.21096967E+02</pdfrwt>
<pdfrwt beam="2">  1       21 0.42622858E-02 0.21096967E+02</pdfrwt>
<totfact> 0.15763511E+08</totfact>
</mgrwt>
</event>
<event>
 4    1  0.7151341E+004  0.2845516E+02  0.7546771E-02  0.1615821E+00
         21   -1    0    0  503  502  0.00000000000E+00  0.00000000000E+00  0.12877289989E+01  0.12877289989E+01  0.00000000000E+00 0.  1.
         21   -1    0    0  501  503 -0.00000000000E+00 -0.00000000000E+00 -0.63639607931E+03  0.63639607931E+03  0.00000000000E+00 0.  1.
          4    1    1    2  501    0 -0.16098782413E+02  0.23463275388E+02 -0.28267027487E+03  0.28409889190E+03  0.00000000000E+00 0.  1.
         -4    1    1    2    0  502  0.16098782413E+02 -0.23463275388E+02 -0.35243807544E+03  0.35358491641E+03  0.00000000000E+00 0. -1.
<mgrwt>
<rscale>  2 0.28455159E+02</rscale>
<asrwt>0</asrwt>
<pdfrwt beam="1">  1       21 0.19811250E-03 0.28455159E+02</pdfrwt>
<pdfrwt beam="2">  1       21 0.97906919E-01 0.28455159E+02</pdfrwt>
<totfact> 0.32540973E+07</totfact>
</mgrwt>
</event>
<event>
 4    1  0.7151341E+004  0.2579665E+02  0.7546771E-02  0.1649816E+00
         21   -1    0    0  501  502  0.00000000000E+00  0.00000000000E+00  0.54092424183E+02  0.54092424183E+02  0.00000000000E+00 0.  1.
         21   -1    0    0  502  503 -0.00000000000E+00 -0.00000000000E+00 -0.12408337853E+02  0.12408337853E+02  0.00000000000E+00 0.  1.
          2    1    1    2  501    0  0.20536148749E+02  0.15611967495E+02  0.23914276648E+02  0.35176122044E+02  0.00000000000E+00 0. -1.
         -2    1    1    2    0  503 -0.20536148749E+02 -0.15611967495E+02  0.17769809682E+02  0.31324639992E+02  0.00000000000E+00 0.  1.
<mgrwt>
<rscale>  2 0.25796646E+02</rscale>
<asrwt>0</asrwt>
<pdfrwt beam="1">  1       21 0.83219113E-02 0.25796646E+02</pdfrwt>
<pdfrwt beam="2">  1       21 0.19089751E-02 0.25796646E+02</pdfrwt>
<totfact> 0.10455182E+08</totfact>
</mgrwt>
</event>
<event>
 4    1  0.7151341E+004  0.2549853E+02  0.7546771E-02  0.1653943E+00
         21   -1    0    0  503  502  0.00000000000E+00  0.00000000000E+00  0.11057465000E+02  0.11057465000E+02  0.00000000000E+00 0. -1.
         21   -1    0    0  501  503 -0.00000000000E+00 -0.00000000000E+00 -0.59216335724E+02  0.59216335724E+02  0.00000000000E+00 0. -1.
          5    1    1    2  501    0 -0.21384904691E+01  0.25408699807E+02 -0.27026858532E+02  0.37156779321E+02  0.00000000000E+00 0.  1.
         -5    1    1    2    0  502  0.21384904691E+01 -0.25408699807E+02 -0.21132012192E+02  0.33117021404E+02  0.00000000000E+00 0. -1.
<mgrwt>
<rscale>  2 0.25498533E+02</rscale>
<asrwt>0</asrwt>
<pdfrwt beam="1">  1       21 0.17011485E-02 0.25498533E+02</pdfrwt>
<pdfrwt beam="2">  1       21 0.91102053E-02 0.25498533E+02</pdfrwt>
<totfact> 0.10717572E+08</totfact>
</mgrwt>
</event>
<event>
 4    1  0.7151341E+004  0.2001293E+02  0.7546771E-02  0.1745071E+00
         21   -1    0    0  503  502  0.00000000000E+00  0.00000000000E+00  0.15961031238E+03  0.15961031238E+03  0.00000000000E+00 0. -1.
         21   -1    0    0  501  503 -0.00000000000E+00 -0.00000000000E+00 -0.25539154475E+01  0.25539154475E+01  0.00000000000E+00 0. -1.
          4    1    1    2  501    0 -0.19999536644E+02 -0.73211270132E+00  0.89239488315E+02  0.91456020740E+02  0.00000000000E+00 0.  1.
         -4    1    1    2    0  502  0.19999536644E+02  0.73211270132E+00  0.67816908618E+02  0.70708207087E+02  0.00000000000E+00 0. -1.
<mgrwt>
<rscale>  2 0.20012932E+02</rscale>
<asrwt>0</asrwt>
<pdfrwt beam="1">  1       21 0.24555425E-01 0.20012932E+02</pdfrwt>
<pdfrwt beam="2">  1       21 0.39291019E-03 0.20012932E+02</pdfrwt>
<totfact> 0.16460244E+08</totfact>
</mgrwt>
</event>
<event>
 4    1  0.7151341E+004  0.5137036E+02  0.7546771E-02  0.1438087E+00
         21   -1    0    0  503  502  0.00000000000E+00  0.00000000000E+00  0.14466182532E+02  0.14466182532E+02  0.00000000000E+00 0. -1.
         21   -1    0    0  501  503 -0.00000000000E+00 -0.00000000000E+00 -0.18598593209E+03  0.18598593209E+03  0.00000000000E+00 0. -1.
          1    1    1    2  501    0  0.32179349649E+02 -0.40042520548E+02 -0.71880922311E+02  0.88350331002E+02  0.00000000000E+00 0. -1.
         -1    1    1    2    0  502 -0.32179349649E+02  0.40042520548E+02 -0.99638827250E+02  0.11210178362E+03  0.00000000000E+00 0.  1.
<mgrwt>
<rscale>  2 0.51370361E+02</rscale>
<asrwt>0</asrwt>
<pdfrwt beam="1">  1       21 0.22255667E-02 0.51370361E+02</pdfrwt>
<pdfrwt beam="2">  1       21 0.28613218E-01 0.51370361E+02</pdfrwt>
<totfact> 0.10879288E+07</totfact>
</mgrwt>
</event>
<event>
 4    1  0.7151341E+004  0.4121919E+02  0.7546771E-02  0.1499427E+00
         21   -1    0    0  503  502  0.00000000000E+00  0.00000000000E+00  0.40367778011E+03  0.40367778011E+03  0.00000000000E+00 0.  1.
         21   -1    0    0  501  503 -0.00000000000E+00 -0.00000000000E+00 -0.48557158652E+01  0.48557158652E+01  0.00000000000E+00 0.  1.
          3    1    1    2  501    0 -0.35443411940E+02  0.21042477832E+02  0.27396597022E+03  0.27704940743E+03  0.00000000000E+00 0. -1.
         -3    1    1    2    0  502  0.35443411940E+02 -0.21042477832E+02  0.12485609403E+03  0.13148408854E+03  0.00000000000E+00 0.  1.
<mgrwt>
<rscale>  2 0.41219186E+02</rscale>
<asrwt>0</asrwt>
<pdfrwt beam="1">  1       21 0.62104248E-01 0.41219186E+02</pdfrwt>
<pdfrwt beam="2">  1       21 0.74703352E-03 0.41219186E+02</pdfrwt>
<totfact> 0.12628074E+07</totfact>
</mgrwt>
</event>
<event>
 4    1  0.7151341E+004  0.2279755E+02  0.7546771E-02  0.1694813E+00
         21   -1    0    0  501  502  0.00000000000E+00  0.00000000000E+00  0.77443918456E+02  0.77443918456E+02  0.00000000000E+00 0. -1.
         21   -1    0    0  502  503 -0.00000000000E+00 -0.00000000000E+00 -0.85089561349E+01  0.85089561349E+01  0.00000000000E+00 0. -1.
          1    1    1    2  501    0 -0.22633145877E+02  0.27329786335E+01  0.54222533446E+02  0.58820163191E+02  0.00000000000E+00 0.  1.
         -1    1    1    2    0  503  0.22633145877E+02 -0.27329786335E+01  0.14712428875E+02  0.27132711400E+02  0.00000000000E+00 0. -1.
<mgrwt>
<rscale>  2 0.22797554E+02</rscale>
<asrwt>0</asrwt>
<pdfrwt beam="1">  1       21 0.11914449E-01 0.22797554E+02</pdfrwt>
<pdfrwt beam="2">  1       21 0.13090702E-02 0.22797554E+02</pdfrwt>
<totfact> 0.99126246E+07</totfact>
</mgrwt>
</event>
<event>
 4    1  0.7151341E+004  0.2624466E+02  0.7546771E-02  0.1643742E+00
         21   -1    0    0  501  502  0.00000000000E+00  0.00000000000E+00  0.86777636488E+02  0.86777636488E+02  0.00000000000E+00 0.  1.
         21   -1    0    0  502  503 -0.00000000000E+00 -0.00000000000E+00 -0.83023951321E+01  0.83023951321E+01  0.00000000000E+00 0.  1.
          2    1    1    2  501    0  0.20320671776E+02  0.16608807962E+02  0.49206502802E+02  0.55767930940E+02  0.00000000000E+00 0. -1.
         -2    1    1    2    0  503 -0.20320671776E+02 -0.16608807962E+02  0.29268738554E+02  0.39312100680E+02  0.00000000000E+00 0.  1.
<mgrwt>
<rscale>  2 0.26244660E+02</rscale>
<asrwt>0</asrwt>
<pdfrwt beam="1">  1       21 0.13350405E-01 0.26244660E+02</pdfrwt>
<pdfrwt beam="2">  1       21 0.12772916E-02 0.26244660E+02</pdfrwt>
<totfact> 0.88210043E+07</totfact>
</mgrwt>
</event>
<event>
 4    1  0.7151341E+004  0.2018079E+02  0.7546771E-02  0.1741757E+00
         21   -1    0    0  501  502  0.00000000000E+00  0.00000000000E+00  0.62850577475E+00  0.62850577475E+00  0.00000000000E+00 0.  1.
         21   -1    0    0  502  503 -0.00000000000E+00 -0.00000000000E+00 -0.87892032354E+03  0.87892032354E+03  0.00000000000E+00 0.  1.
          4    1    1    2  501    0 -0.91300454018E+01  0.17997399949E+02 -0.66456861921E+03  0.66487496101E+03  0.00000000000E+00 0. -1.
         -4    1    1    2    0  503  0.91300454018E+01 -0.17997399949E+02 -0.21372319855E+03  0.21467386831E+03  0.00000000000E+00 0.  1.
<mgrwt>
<rscale>  2 0.20180786E+02</rscale>
<asrwt>0</asrwt>
<pdfrwt beam="1">  1       21 0.96692913E-04 0.20180786E+02</pdfrwt>
<pdfrwt beam="2">  1       21 0.13521891E+00 0.20180786E+02</pdfrwt>
<totfact> 0.41131383E+07</totfact>
</mgrwt>
</event>
<event>
 4    1  0.7151341E+004  0.5520949E+02  0.7546771E-02  0.1419111E+00
         21   -1    0    0  503  502  0.00000000000E+00  0.00000000000E+00  0.70220102567E+02  0.70220102567E+02  0.00000000000E+00 0. -1.
         21   -1    0    0  501  503 -0.00000000000E+00 -0.00000000000E+00 -0.45023315101E+02  0.45023315101E+02  0.00000000000E+00 0. -1.
          4    1    1    2  501    0 -0.54886504450E+02  0.59631700778E+01  0.23513969401E+02  0.60008287137E+02  0.00000000000E+00 0.  1.
         -4    1    1    2    0  502  0.54886504450E+02 -0.59631700778E+01  0.16828180660E+01  0.55235130531E+02  0.00000000000E+00 0. -1.
<mgrwt>
<rscale>  2 0.55209490E+02</rscale>
<asrwt>0</asrwt>
<pdfrwt beam="1">  1       21 0.10803093E-01 0.55209490E+02</pdfrwt>
<pdfrwt beam="2">  1       21 0.69266638E-02 0.55209490E+02</pdfrwt>
<totfact> 0.98798009E+06</totfact>
</mgrwt>
</event>
<event>
 4    1  0.7151341E+004  0.2035853E+02  0.7546771E-02  0.1738291E+00
         21   -1    0    0  501  502  0.00000000000E+00  0.00000000000E+00  0.10669063567E+03  0.10669063567E+03  0.00000000000E+00 0. -1.
         21   -1    0    0  502  503 -0.00000000000E+00 -0.00000000000E+00 -0.43307290112E+01  0.43307290112E+01  0.00000000000E+00 0. -1.
          5    1    1    2  501    0 -0.19017613155E+02  0.72663662735E+01  0.68993011056E+02  0.71934034111E+02  0.00000000000E+00 0. -1.
         -5    1    1    2    0  503  0.19017613155E+02 -0.72663662735E+01  0.33366895606E+02  0.39087330574E+02  0.00000000000E+00 0.  1.
<mgrwt>
<rscale>  2 0.20358529E+02</rscale>
<asrwt>0</asrwt>
<pdfrwt beam="1">  1       21 0.16413942E-01 0.20358529E+02</pdfrwt>
<pdfrwt beam="2">  1       21 0.66626608E-03 0.20358529E+02</pdfrwt>
<totfact> 0.15329183E+08</totfact>
</mgrwt>
</event>
<event>
 4    1  0.7151341E+004  0.3038785E+02  0.7546771E-02  0.1593841E+00
         21   -1    0    0  501  502  0.00000000000E+00  0.00000000000E+00  0.51710699235E+02  0.51710699235E+02  0.00000000000E+00 0.  1.
         21   -1    0    0  502  503 -0.00000000000E+00 -0.00000000000E+00 -0.22481906947E+02  0.22481906947E+02  0.00000000000E+00 0.  1.
          3    1    1    2  501    0  0.15590564413E+02 -0.26083634763E+02  0.31438967063E+02  0.43724482286E+02  0.00000000000E+00 0.  1.
         -3    1    1    2    0  503 -0.15590564413E+02  0.26083634763E+02 -0.22101747749E+01  0.30468123896E+02  0.00000000000E+00 0. -1.
<mgrwt>
<rscale>  2 0.30387855E+02</rscale>
<asrwt>0</asrwt>
<pdfrwt beam="1">  1       21 0.79554922E-02 0.30387855E+02</pdfrwt>
<pdfrwt beam="2">  1       21 0.34587549E-02 0.30387855E+02</pdfrwt>
<totfact> 0.46371474E+07</totfact>
</mgrwt>
</event>
<event>
 4    1  0.7151341E+004  0.2637492E+02  0.7546771E-02  0.1642004E+00
         21   -1    0    0  503  502  0.00000000000E+00  0.00000000000E+00  0.13764291111E+03  0.13764291111E+03  0.00000000000E+00 0.  1.
         21   -1    0    0  501  503 -0.00000000000E+00 -0.00000000000E+00 -0.54281885078E+01  0.54281885078E+01  0.00000000000E+00 0.  1.
          1    1    1    2  501    0  0.79622957159E+01 -0.25144350337E+02  0.47323491629E+02  0.54177018808E+02  0.00000000000E+00 0. -1.
         -1    1    1    2    0  502 -0.79622957159E+01  0.25144350337E+02  0.84891230969E+02  0.88894080806E+02  0.00000000000E+00 0.  1.
<mgrwt>
<rscale>  2 0.26374922E+02</rscale>
<asrwt>0</asrwt>
<pdfrwt beam="1">  1       21 0.21175830E-01 0.26374922E+02</pdfrwt>
<pdfrwt beam="2">  1       21 0.83510603E-03 0.26374922E+02</pdfrwt>
<totfact> 0.75581819E+07</totfact>
</mgrwt>
</event>
<event>
 4    1  0.7151341E+004  0.2036070E+02  0.7546771E-02  0.1738249E+00
         21   -1    0    0  501  502  0.00000000000E+00  0.00000000000E+00  0.13930609672E+02  0.13930609672E+02  0.00000000000E+00 0. -1.
         21   -1    0    0  502  503 -0.00000000000E+00 -0.00000000000E+00 -0.32174694917E+02  0.32174694917E+02  0.00000000000E+00 0. -1.
          1    1    1    2  501    0  0.29607689784E+01 -0.20144276573E+02 -0.15438942048E+02  0.25552279021E+02  0.00000000000E+00 0. -1.
         -1    1    1    2    0  503 -0.29607689784E+01  0.20144276573E+02 -0.28051431962E+01  0.20553025567E+02  0.00000000000E+00 0.  1.
<mgrwt>
<rscale>  2 0.20360698E+02</rscale>
<asrwt>0</asrwt>
<pdfrwt beam="1">  1       21 0.21431707E-02 0.20360698E+02</pdfrwt>
<pdfrwt beam="2">  1       21 0.49499530E-02 0.20360698E+02</pdfrwt>
<totfact> 0.18854901E+08</totfact>
</mgrwt>
</event>
<event>
 4    1  0.7151341E+004  0.2098529E+02  0.7546771E-02  0.1726416E+00
         21   -1    0    0  501  502  0.00000000000E+00  0.00000000000E+00  0.53719426342E+02  0.53719426342E+02  0.00000000000E+00 0. -1.
         21   -1    0    0  502  503 -0.00000000000E+00 -0.00000000000E+00 -0.95942456892E+01  0.95942456892E+01  0.00000000000E+00 0. -1.
          2    1    1    2  501    0  0.18719034186E+02 -0.94857948939E+01  0.34139893471E+02  0.40073867692E+02  0.00000000000E+00 0.  1.
         -2    1    1    2    0  503 -0.18719034186E+02  0.94857948939E+01  0.99852871820E+01  0.23239804339E+02  0.00000000000E+00 0. -1.
<mgrwt>
<rscale>  2 0.20985294E+02</rscale>
<asrwt>0</asrwt>
<pdfrwt beam="1">  1       21 0.82645269E-02 0.20985294E+02</pdfrwt>
<pdfrwt beam="2">  1       21 0.14760378E-02 0.20985294E+02</pdfrwt>
<totfact> 0.14749985E+08</totfact>
</mgrwt>
</event>
<event>
 4    1  0.7151341E+004  0.2541052E+02  0.7546771E-02  0.1655175E+00
         21   -1    0    0  503  502  0.00000000000E+00  0.00000000000E+00  0.97104036865E+01  0.97104036865E+01  0.00000000000E+00 0.  1.
         21   -1    0    0  501  503 -0.00000000000E+00 -0.00000000000E+00 -0.74692952101E+02  0.74692952101E+02  0.00000000000E+00 0.  1.
          2    1    1    2  501    0  0.25085648820E+02 -0.40502772620E+01 -0.18510241856E+02  0.31437614034E+02  0.00000000000E+00 0. -1.
         -2    1    1    2    0  502 -0.25085648820E+02  0.40502772620E+01 -0.46472306559E+02  0.52965741753E+02  0.00000000000E+00 0.  1.
<mgrwt>
<rscale>  2 0.25410520E+02</rscale>
<asrwt>0</asrwt>
<pdfrwt beam="1">  1       21 0.14939082E-02 0.25410520E+02</pdfrwt>
<pdfrwt beam="2">  1       21 0.11491224E-01 0.25410520E+02</pdfrwt>
<totfact> 0.88753025E+07</totfact>
</mgrwt>
</event>
<event>
 4    1  0.7151341E+004  0.3752660E+02  0.7546771E-02  0.1527244E+00
         21   -1    0    0  501  502  0.00000000000E+00  0.00000000000E+00  0.33457316366E+02  0.33457316366E+02  0.00000000000E+00 0. -1.
         21   -1    0    0  502  503 -0.00000000000E+00 -0.00000000000E+00 -0.45586753383E+02  0.45586753383E+02  0.00000000000E+00 0. -1.
          4    1    1    2  501    0 -0.37040354452E+02  0.60214730231E+01  0.48799176102E+01  0.37842563221E+02  0.00000000000E+00 0.  1.
         -4    1    1    2    0  503  0.37040354452E+02 -0.60214730231E+01 -0.17009354627E+02  0.41201506527E+02  0.00000000000E+00 0. -1.
<mgrwt>
<rscale>  2 0.37526604E+02</rscale>
<asrwt>0</asrwt>
<pdfrwt beam="1">  1       21 0.51472795E-02 0.37526604E+02</pdfrwt>
<pdfrwt beam="2">  1       21 0.70133466E-02 0.37526604E+02</pdfrwt>
<totfact> 0.31488435E+07</totfact>
</mgrwt>
</event>
<event>
 4    1  0.7151341E+004  0.2293209E+02  0.7546771E-02  0.1692613E+00
         21   -1    0    0  503  502  0.00000000000E+00  0.00000000000E+00  0.42984765575E+03  0.42984765575E+03  0.00000000000E+00 0.  1.
         21   -1    0    0  501  503 -0.00000000000E+00 -0.00000000000E+00 -0.12250377810E+01  0.12250377810E+01  0.00000000000E+00 0.  1.
          3    1    1    2  501    0  0.89105284963E+01  0.21130149693E+02  0.20645916937E+03  0.20772883614E+03  0.00000000000E+00 0. -1.
         -3    1    1    2    0  502 -0.89105284963E+01 -0.21130149693E+02  0.22216344859E+03  0.22334385739E+03  0.00000000000E+00 0.  1.
<mgrwt>
<rscale>  2 0.22932090E+02</rscale>
<asrwt>0</asrwt>
<pdfrwt beam="1">  1       21 0.66130289E-01 0.22932090E+02</pdfrwt>
<pdfrwt beam="2">  1       21 0.18846769E-03 0.22932090E+02</pdfrwt>
<totfact> 0.76516365E+07</totfact>
</mgrwt>
</event>
<event>
 4    1  0.7151341E+004  0.2436212E+02  0.7546771E-02  0.1670337E+00
         21   -1    0    0  503  502  0.00000000000E+00  0.00000000000E+00  0.64337119804E+03  0.64337119804E+03  0.00000000000E+00 0. -1.
         21   -1    0    0  501  503 -0.00000000000E+00 -0.00000000000E+00 -0.99431319002E+00  0.99431319002E+00  0.00000000000E+00 0. -1.
          2    1    1    2  501    0  0.17650026362E+02  0.16792546979E+02  0.40777053321E+03  0.40849763869E+03  0.00000000000E+00 0. -1.
         -2    1    1    2    0  502 -0.17650026362E+02 -0.16792546979E+02  0.23460635164E+03  0.23586787254E+03  0.00000000000E+00 0.  1.
<mgrwt>
<rscale>  2 0.24362124E+02</rscale>
<asrwt>0</asrwt>
<pdfrwt beam="1">  1       21 0.98979851E-01 0.24362124E+02</pdfrwt>
<pdfrwt beam="2">  1       21 0.15297177E-03 0.24362124E+02</pdfrwt>
<totfact> 0.44815667E+07</totfact>
</mgrwt>
</event>
<event>
 4    1  0.7151341E+004  0.2406226E+02  0.7546771E-02  0.1674848E+00
         21   -1    0    0  503  502  0.00000000000E+00  0.00000000000E+00  0.15400361471E+04  0.15400361471E+04  0.00000000000E+00 0. -1.
         21   -1    0    0  501  503 -0.00000000000E+00 -0.00000000000E+00 -0.53085078931E+00  0.53085078931E+00  0.00000000000E+00 0. -1.
          4    1    1    2  501    0  0.56767409033E+01  0.23383047244E+02  0.11858326933E+04  0.11860767972E+04  0.00000000000E+00 0.  1.
         -4    1    1    2    0  502 -0.56767409033E+01 -0.23383047244E+02  0.35367260298E+03  0.35449020069E+03  0.00000000000E+00 0. -1.
<mgrwt>
<rscale>  2 0.24062259E+02</rscale>
<asrwt>0</asrwt>
<pdfrwt beam="1">  1       21 0.23692506E+00 0.24062259E+02</pdfrwt>
<pdfrwt beam="2">  1       21 0.81670585E-04 0.24062259E+02</pdfrwt>
<totfact> 0.13255886E+07</totfact>
</mgrwt>
</event>
<event>
 4    1  0.7151341E+004  0.2809600E+02  0.7546771E-02  0.1620142E+00
         21   -1    0    0  501  502  0.00000000000E+00  0.00000000000E+00  0.14652137642E+03  0.14652137642E+03  0.00000000000E+00 0. -1.
         21   -1    0    0  502  503 -0.00000000000E+00 -0.00000000000E+00 -0.59429073237E+01  0.59429073237E+01  0.00000000000E+00 0. -1.
          3    1    1    2  501    0 -0.20120494617E+02  0.19609965930E+02  0.93593819386E+02  0.97719947271E+02  0.00000000000E+00 0.  1.
         -3    1    1    2    0  503  0.20120494617E+02 -0.19609965930E+02  0.46984649707E+02  0.54744336469E+02  0.00000000000E+00 0. -1.
<mgrwt>
<rscale>  2 0.28095997E+02</rscale>
<asrwt>0</asrwt>
<pdfrwt beam="1">  1       21 0.22541748E-01 0.28095997E+02</pdfrwt>
<pdfrwt beam="2">  1       21 0.91429354E-03 0.28095997E+02</pdfrwt>
<totfact> 0.59925474E+07</totfact>
</mgrwt>
</event>
<event>
 4    1  0.7151341E+004  0.2478757E+02  0.7546771E-02  0.1664072E+00
         21   -1    0    0  503  502  0.00000000000E+00  0.00000000000E+00  0.13670754899E+01  0.13670754899E+01  0.00000000000E+00 0. -1.
         21   -1    0    0  501  503 -0.00000000000E+00 -0.00000000000E+00 -0.47237316658E+03  0.47237316658E+03  0.00000000000E+00 0. -1.
          4    1    1    2  501    0 -0.15069070423E+02 -0.19681130092E+02 -0.18331601592E+03  0.18498428435E+03  0.00000000000E+00 0.  1.
         -4    1    1    2    0  502  0.15069070423E+02  0.19681130092E+02 -0.28769007517E+03  0.28875595772E+03  0.00000000000E+00 0. -1.
<mgrwt>
<rscale>  2 0.24787573E+02</rscale>
<asrwt>0</asrwt>
<pdfrwt beam="1">  1       21 0.21031913E-03 0.24787573E+02</pdfrwt>
<pdfrwt beam="2">  1       21 0.72672854E-01 0.24787573E+02</pdfrwt>
<totfact> 0.54795588E+07</totfact>
</mgrwt>
</event>
<event>
 4    1  0.7151341E+004  0.2281064E+02  0.7546771E-02  0.1694598E+00
         21   -1    0    0  503  502  0.00000000000E+00  0.00000000000E+00  0.54254157478E+03  0.54254157478E+03  0.00000000000E+00 0.  1.
         21   -1    0    0  501  503 -0.00000000000E+00 -0.00000000000E+00 -0.22039977931E+01  0.22039977931E+01  0.00000000000E+00 0.  1.
          1    1    1    2  501    0  0.26925142692E+01 -0.22651170689E+02  0.47487616408E+03  0.47542370195E+03  0.00000000000E+00 0.  1.
         -1    1    1    2    0  502 -0.26925142692E+01  0.22651170689E+02  0.65461412913E+02  0.69321870627E+02  0.00000000000E+00 0. -1.
<mgrwt>
<rscale>  2 0.22810637E+02</rscale>
<asrwt>0</asrwt>
<pdfrwt beam="1">  1       21 0.83467828E-01 0.22810637E+02</pdfrwt>
<pdfrwt beam="2">  1       21 0.33907701E-03 0.22810637E+02</pdfrwt>
<totfact> 0.20123341E+07</totfact>
</mgrwt>
</event>
<event>
 4    1  0.7151341E+004  0.2036357E+02  0.7546771E-02  0.1738193E+00
         21   -1    0    0  503  502  0.00000000000E+00  0.00000000000E+00  0.20423364051E+02  0.20423364051E+02  0.00000000000E+00 0.  1.
         21   -1    0    0  501  503 -0.00000000000E+00 -0.00000000000E+00 -0.20311505816E+02  0.20311505816E+02  0.00000000000E+00 0.  1.
          1    1    1    2  501    0  0.12571011003E+01 -0.20324733023E+02 -0.33675808724E+00  0.20366356612E+02  0.00000000000E+00 0.  1.
         -1    1    1    2    0  502 -0.12571011003E+01  0.20324733023E+02  0.44861632187E+00  0.20368513255E+02  0.00000000000E+00 0. -1.
<mgrwt>
<rscale>  2 0.20363572E+02</rscale>
<asrwt>0</asrwt>
<pdfrwt beam="1">  1       21 0.31420560E-02 0.20363572E+02</pdfrwt>
<pdfrwt beam="2">  1       21 0.31248471E-02 0.20363572E+02</pdfrwt>
<totfact> 0.21499095E+08</totfact>
</mgrwt>
</event>
<event>
 4    1  0.7151341E+004  0.2581108E+02  0.7546771E-02  0.1649618E+00
         21   -1    0    0  503  502  0.00000000000E+00  0.00000000000E+00  0.14803377506E+02  0.14803377506E+02  0.00000000000E+00 0.  1.
         21   -1    0    0  501  503 -0.00000000000E+00 -0.00000000000E+00 -0.48390431565E+02  0.48390431565E+02  0.00000000000E+00 0.  1.
          3    1    1    2  501    0  0.56699645186E+01 -0.25180618358E+02 -0.84349506489E+01  0.27154381433E+02  0.00000000000E+00 0.  1.
         -3    1    1    2    0  502 -0.56699645186E+01  0.25180618358E+02 -0.25152103411E+02  0.36039427639E+02  0.00000000000E+00 0. -1.
<mgrwt>
<rscale>  2 0.25811084E+02</rscale>
<asrwt>0</asrwt>
<pdfrwt beam="1">  1       21 0.22774427E-02 0.25811084E+02</pdfrwt>
<pdfrwt beam="2">  1       21 0.74446817E-02 0.25811084E+02</pdfrwt>
<totfact> 0.95575588E+07</totfact>
</mgrwt>
</event>
<event>
 4    1  0.7151341E+004  0.5020071E+02  0.7546771E-02  0.1444262E+00
         21   -1    0    0  503  502  0.00000000000E+00  0.00000000000E+00  0.23465758778E+01  0.23465758778E+01  0.00000000000E+00 0.  1.
         21   -1    0    0  501  503 -0.00000000000E+00 -0.00000000000E+00 -0.10743011229E+04  0.10743011229E+04  0.00000000000E+00 0.  1.
          5    1    1    2  501    0  0.34530363860E+02  0.36438506868E+02 -0.54567604520E+03  0.54798034373E+03  0.00000000000E+00 0.  1.
         -5    1    1    2    0  502 -0.34530363860E+02 -0.36438506868E+02 -0.52627850179E+03  0.52866735501E+03  0.00000000000E+00 0. -1.
<mgrwt>
<rscale>  2 0.50200705E+02</rscale>
<asrwt>0</asrwt>
<pdfrwt beam="1">  1       21 0.36101273E-03 0.50200705E+02</pdfrwt>
<pdfrwt beam="2">  1       21 0.16527661E+00 0.50200705E+02</pdfrwt>
<totfact> 0.41648866E+06</totfact>
</mgrwt>
</event>
<event>
 4    1  0.7151341E+004  0.3742848E+02  0.7546771E-02  0.1528035E+00
         21   -1    0    0  503  502  0.00000000000E+00  0.00000000000E+00  0.83035614673E+01  0.83035614673E+01  0.00000000000E+00 0.  1.
         21   -1    0    0  501  503 -0.00000000000E+00 -0.00000000000E+00 -0.18360886458E+03  0.18360886458E+03  0.00000000000E+00 0.  1.
          5    1    1    2  501    0  0.37282650436E+02 -0.33007807617E+01 -0.11498692686E+03  0.12092511950E+03  0.00000000000E+00 0. -1.
         -5    1    1    2    0  502 -0.37282650436E+02  0.33007807617E+01 -0.60318376254E+02  0.70987306549E+02  0.00000000000E+00 0.  1.
<mgrwt>
<rscale>  2 0.37428481E+02</rscale>
<asrwt>0</asrwt>
<pdfrwt beam="1">  1       21 0.12774710E-02 0.37428481E+02</pdfrwt>
<pdfrwt beam="2">  1       21 0.28247518E-01 0.37428481E+02</pdfrwt>
<totfact> 0.25320198E+07</totfact>
</mgrwt>
</event>
<event>
 4    1  0.7151341E+004  0.3726656E+02  0.7546771E-02  0.1529347E+00
         21   -1    0    0  503  502  0.00000000000E+00  0.00000000000E+00  0.76361192965E+01  0.76361192965E+01  0.00000000000E+00 0.  1.
         21   -1    0    0  501  503 -0.00000000000E+00 -0.00000000000E+00 -0.33456045202E+03  0.33456045202E+03  0.00000000000E+00 0.  1.
          4    1    1    2  501    0 -0.25750016833E+02 -0.26939439335E+02 -0.47874534642E+02  0.60669331839E+02  0.00000000000E+00 0.  1.
         -4    1    1    2    0  502  0.25750016833E+02  0.26939439335E+02 -0.27904979808E+03  0.28152723948E+03  0.00000000000E+00 0. -1.
<mgrwt>
<rscale>  2 0.37266564E+02</rscale>
<asrwt>0</asrwt>
<pdfrwt beam="1">  1       21 0.11747878E-02 0.37266564E+02</pdfrwt>
<pdfrwt beam="2">  1       21 0.51470827E-01 0.37266564E+02</pdfrwt>
<totfact> 0.91385439E+06</totfact>
</mgrwt>
</event>
<event>
 4    1  0.7151341E+004  0.3060635E+02  0.7546771E-02  0.1591481E+00
         21   -1    0    0  501  502  0.00000000000E+00  0.00000000000E+00  0.14080941180E+01  0.14080941180E+01  0.00000000000E+00 0.  1.
         21   -1    0    0  502  503 -0.00000000000E+00 -0.00000000000E+00 -0.67158798053E+03  0.67158798053E+03  0.00000000000E+00 0.  1.
          5    1    1    2  501    0 -0.25579355809E+02 -0.16806107676E+02 -0.36775350216E+03  0.36902491386E+03  0.00000000000E+00 0. -1.
         -5    1    1    2    0  503  0.25579355809E+02  0.16806107676E+02 -0.30242638425E+03  0.30397116078E+03  0.00000000000E+00 0.  1.
<mgrwt>
<rscale>  2 0.30606351E+02</rscale>
<asrwt>0</asrwt>
<pdfrwt beam="1">  1       21 0.21662977E-03 0.30606351E+02</pdfrwt>
<pdfrwt beam="2">  1       21 0.10332127E+00 0.30606351E+02</pdfrwt>
<totfact> 0.25673125E+07</totfact>
</mgrwt>
</event>
<event>
 4    1  0.7151341E+004  0.2412999E+02  0.7546771E-02  0.1673822E+00
         21   -1    0    0  503  502  0.00000000000E+00  0.00000000000E+00  0.14133593944E+02  0.14133593944E+02  0.00000000000E+00 0.  1.
         21   -1    0    0  501  503 -0.00000000000E+00 -0.00000000000E+00 -0.46918651314E+02  0.46918651314E+02  0.00000000000E+00 0.  1.
          2    1    1    2  501    0  0.23119245670E+02  0.69106326324E+01 -0.57321207019E+01  0.24801483251E+02  0.00000000000E+00 0. -1.
         -2    1    1    2    0  502 -0.23119245670E+02 -0.69106326324E+01 -0.27052936668E+02  0.36250762007E+02  0.00000000000E+00 0.  1.
<mgrwt>
<rscale>  2 0.24129989E+02</rscale>
<asrwt>0</asrwt>
<pdfrwt beam="1">  1       21 0.21743991E-02 0.24129989E+02</pdfrwt>
<pdfrwt beam="2">  1       21 0.72182540E-02 0.24129989E+02</pdfrwt>
<totfact> 0.10602559E+08</totfact>
</mgrwt>
</event>
<event>
 4    1  0.7151341E+004  0.3149270E+02  0.7546771E-02  0.1582152E+00
         21   -1    0    0  501  502  0.00000000000E+00  0.00000000000E+00  0.45169154668E+03  0.45169154668E+03  0.00000000000E+00 0.  1.
         21   -1    0    0  502  503 -0.00000000000E+00 -0.00000000000E+00 -0.24946914107E+01  0.24946914107E+01  0.00000000000E+00 0.  1.
          2    1    1    2  501    0 -0.31492673730E+02 -0.37168830496E-01  0.30321382759E+03  0.30484490339E+03  0.00000000000E+00 0. -1.
         -2    1    1    2    0  503  0.31492673730E+02  0.37168830496E-01  0.14598302768E+03  0.14934133470E+03  0.00000000000E+00 0.  1.
<mgrwt>
<rscale>  2 0.31492696E+02</rscale>
<asrwt>0</asrwt>
<pdfrwt beam="1">  1       21 0.69490942E-01 0.31492696E+02</pdfrwt>
<pdfrwt beam="2">  1       21 0.38379904E-03 0.31492696E+02</pdfrwt>
<totfact> 0.26100837E+07</totfact>
</mgrwt>
</event>
<event>
 4    1  0.7151341E+004  0.2387318E+02  0.7546771E-02  0.1677735E+00
         21   -1    0    0  501  502  0.00000000000E+00  0.00000000000E+00  0.31733598408E+03  0.31733598408E+03  0.00000000000E+00 0. -1.
         21   -1    0    0  502  503 -0.00000000000E+00 -0.00000000000E+00 -0.22990893940E+01  0.22990893940E+01  0.00000000000E+00 0. -1.
          4    1    1    2  501    0  0.47811197006E+01  0.23389521680E+02  0.82756938496E+02  0.86131525583E+02  0.00000000000E+00 0. -1.
         -4    1    1    2    0  503 -0.47811197006E+01 -0.23389521680E+02  0.23227995619E+03  0.23350354789E+03  0.00000000000E+00 0.  1.
<mgrwt>
<rscale>  2 0.23873182E+02</rscale>
<asrwt>0</asrwt>
<pdfrwt beam="1">  1       21 0.48820886E-01 0.23873182E+02</pdfrwt>
<pdfrwt beam="2">  1       21 0.35370631E-03 0.23873182E+02</pdfrwt>
<totfact> 0.56516727E+07</totfact>
</mgrwt>
</event>
<event>
 4    1  0.7151341E+004  0.2108467E+02  0.7546771E-02  0.1724580E+00
         21   -1    0    0  501  502  0.00000000000E+00  0.00000000000E+00  0.12479520158E+02  0.12479520158E+02  0.00000000000E+00 0. -1.
         21   -1    0    0  502  503 -0.00000000000E+00 -0.00000000000E+00 -0.39429705123E+02  0.39429705123E+02  0.00000000000E+00 0. -1.
          2    1    1    2  501    0 -0.20672983307E+02 -0.41462020614E+01 -0.21539143229E+02  0.30141299265E+02  0.00000000000E+00 0. -1.
         -2    1    1    2    0  503  0.20672983307E+02  0.41462020614E+01 -0.54110417354E+01  0.21767926016E+02  0.00000000000E+00 0.  1.
<mgrwt>
<rscale>  2 0.21084668E+02</rscale>
<asrwt>0</asrwt>
<pdfrwt beam="1">  1       21 0.19199262E-02 0.21084668E+02</pdfrwt>
<pdfrwt beam="2">  1       21 0.60661086E-02 0.21084668E+02</pdfrwt>
<totfact> 0.16317900E+08</totfact>
</mgrwt>
</event>
<event>
 4    1  0.7151341E+004  0.2025734E+02  0.7546771E-02  0.1740258E+00
         21   -1    0    0  501  502  0.00000000000E+00  0.00000000000E+00  0.96826770672E+01  0.96826770672E+01  0.00000000000E+00 0. -1.
         21   -1    0    0  502  503 -0.00000000000E+00 -0.00000000000E+00 -0.42549276271E+02  0.42549276271E+02  0.00000000000E+00 0. -1.
          3    1    1    2  501    0  0.19971367986E+02 -0.33917847234E+01 -0.14790023371E+02  0.25081956346E+02  0.00000000000E+00 0. -1.
         -3    1    1    2    0  503 -0.19971367986E+02  0.33917847234E+01 -0.18076575832E+02  0.27149996992E+02  0.00000000000E+00 0.  1.
<mgrwt>
<rscale>  2 0.20257338E+02</rscale>
<asrwt>0</asrwt>
<pdfrwt beam="1">  1       21 0.14896426E-02 0.20257338E+02</pdfrwt>
<pdfrwt beam="2">  1       21 0.65460425E-02 0.20257338E+02</pdfrwt>
<totfact> 0.20969945E+08</totfact>
</mgrwt>
</event>
<event>
 4    1  0.7151341E+004  0.2486609E+02  0.7546771E-02  0.1662933E+00
         21   -1    0    0  503  502  0.00000000000E+00  0.00000000000E+00  0.13658369554E+02  0.13658369554E+02  0.00000000000E+00 0.  1.
         21   -1    0    0  501  503 -0.00000000000E+00 -0.00000000000E+00 -0.46416465890E+02  0.46416465890E+02  0.00000000000E+00 0.  1.
          4    1    1    2  501    0 -0.96937934324E+00 -0.24847187147E+02 -0.21098547643E+02  0.32610904895E+02  0.00000000000E+00 0.  1.
         -4    1    1    2    0  502  0.96937934324E+00  0.24847187147E+02 -0.11659548694E+02  0.27463930549E+02  0.00000000000E+00 0. -1.
<mgrwt>
<rscale>  2 0.24866089E+02</rscale>
<asrwt>0</asrwt>
<pdfrwt beam="1">  1       21 0.21012876E-02 0.24866089E+02</pdfrwt>
<pdfrwt beam="2">  1       21 0.71409948E-02 0.24866089E+02</pdfrwt>
<totfact> 0.11468814E+08</totfact>
</mgrwt>
</event>
<event>
 4    1  0.7151341E+004  0.3911220E+02  0.7546771E-02  0.1514848E+00
         21   -1    0    0  503  502  0.00000000000E+00  0.00000000000E+00  0.50909217545E+02  0.50909217545E+02  0.00000000000E+00 0. -1.
         21   -1    0    0  501  503 -0.00000000000E+00 -0.00000000000E+00 -0.51981557631E+02  0.51981557631E+02  0.00000000000E+00 0. -1.
          5    1    1    2  501    0  0.37867463409E+02 -0.97887428246E+01 -0.33953193414E+02  0.51793663842E+02  0.00000000000E+00 0.  1.
         -5    1    1    2    0  502 -0.37867463409E+02  0.97887428246E+01  0.32880853328E+02  0.51097111334E+02  0.00000000000E+00 0. -1.
<mgrwt>
<rscale>  2 0.39112201E+02</rscale>
<asrwt>0</asrwt>
<pdfrwt beam="1">  1       21 0.78321873E-02 0.39112201E+02</pdfrwt>
<pdfrwt beam="2">  1       21 0.79971627E-02 0.39112201E+02</pdfrwt>
<totfact> 0.12800249E+07</totfact>
</mgrwt>
</event>
<event>
 4    1  0.7151341E+004  0.3324867E+02  0.7546771E-02  0.1564726E+00
         21   -1    0    0  501  502  0.00000000000E+00  0.00000000000E+00  0.15378490603E+04  0.15378490603E+04  0.00000000000E+00 0.  1.
         21   -1    0    0  502  503 -0.00000000000E+00 -0.00000000000E+00 -0.78125711079E+00  0.78125711079E+00  0.00000000000E+00 0.  1.
          3    1    1    2  501    0 -0.33189426672E+02 -0.19839554926E+01  0.55109163653E+03  0.55209371122E+03  0.00000000000E+00 0. -1.
         -3    1    1    2    0  503  0.33189426672E+02  0.19839554926E+01  0.98597616664E+03  0.98653660616E+03  0.00000000000E+00 0.  1.
<mgrwt>
<rscale>  2 0.33248671E+02</rscale>
<asrwt>0</asrwt>
<pdfrwt beam="1">  1       21 0.23658974E+00 0.33248671E+02</pdfrwt>
<pdfrwt beam="2">  1       21 0.12019463E-03 0.33248671E+02</pdfrwt>
<totfact> 0.78303355E+06</totfact>
</mgrwt>
</event>
<event>
 4    1  0.7151341E+004  0.2498648E+02  0.7546771E-02  0.1661196E+00
         21   -1    0    0  503  502  0.00000000000E+00  0.00000000000E+00  0.36361747245E+02  0.36361747245E+02  0.00000000000E+00 0. -1.
         21   -1    0    0  501  503 -0.00000000000E+00 -0.00000000000E+00 -0.17839079372E+02  0.17839079372E+02  0.00000000000E+00 0. -1.
          1    1    1    2  501    0  0.18253737110E+02 -0.17062396591E+02  0.40121700640E+01  0.25306556552E+02  0.00000000000E+00 0.  1.
         -1    1    1    2    0  502 -0.18253737110E+02  0.17062396591E+02  0.14510497809E+02  0.28894270065E+02  0.00000000000E+00 0. -1.
<mgrwt>
<rscale>  2 0.24986482E+02</rscale>
<asrwt>0</asrwt>
<pdfrwt beam="1">  1       21 0.55941150E-02 0.24986482E+02</pdfrwt>
<pdfrwt beam="2">  1       21 0.27444738E-02 0.24986482E+02</pdfrwt>
<totfact> 0.11266374E+08</totfact>
</mgrwt>
</event>
<event>
 4    1  0.7151341E+004  0.3344534E+02  0.7546771E-02  0.1562856E+00
         21   -1    0    0  503  502  0.00000000000E+00  0.00000000000E+00  0.31326718023E+02  0.31326718023E+02  0.00000000000E+00 0.  1.
         21   -1    0    0  501  503 -0.00000000000E+00 -0.00000000000E+00 -0.36897389809E+02  0.36897389809E+02  0.00000000000E+00 0.  1.
          3    1    1    2  501    0 -0.18468121445E+02 -0.27884032550E+02  0.33411302140E+01  0.33611812389E+02  0.00000000000E+00 0.  1.
         -3    1    1    2    0  502  0.18468121445E+02  0.27884032550E+02 -0.89118019998E+01  0.34612295443E+02  0.00000000000E+00 0. -1.
<mgrwt>
<rscale>  2 0.33445340E+02</rscale>
<asrwt>0</asrwt>
<pdfrwt beam="1">  1       21 0.48194951E-02 0.33445340E+02</pdfrwt>
<pdfrwt beam="2">  1       21 0.56765215E-02 0.33445340E+02</pdfrwt>
<totfact> 0.48409398E+07</totfact>
</mgrwt>
</event>
<event>
 4    1  0.7151341E+004  0.2641552E+02  0.7546771E-02  0.1641465E+00
         21   -1    0    0  501  502  0.00000000000E+00  0.00000000000E+00  0.11792789076E+02  0.11792789076E+02  0.00000000000E+00 0.  1.
         21   -1    0    0  502  503 -0.00000000000E+00 -0.00000000000E+00 -0.89533054230E+02  0.89533054230E+02  0.00000000000E+00 0.  1.
          1    1    1    2  501    0 -0.26405900312E+02 -0.71285224548E+00 -0.68373461183E+02  0.73298771639E+02  0.00000000000E+00 0. -1.
         -1    1    1    2    0  503  0.26405900312E+02  0.71285224548E+00 -0.93668039712E+01  0.28027071667E+02  0.00000000000E+00 0.  1.
<mgrwt>
<rscale>  2 0.26415521E+02</rscale>
<asrwt>0</asrwt>
<pdfrwt beam="1">  1       21 0.18142752E-02 0.26415521E+02</pdfrwt>
<pdfrwt beam="2">  1       21 0.13774317E-01 0.26415521E+02</pdfrwt>
<totfact> 0.49002719E+07</totfact>
</mgrwt>
</event>
<event>
 4    1  0.7151341E+004  0.2092787E+02  0.7546771E-02  0.1727482E+00
         21   -1    0    0  503  502  0.00000000000E+00  0.00000000000E+00  0.19029249049E+01  0.19029249049E+01  0.00000000000E+00 0. -1.
         21   -1    0    0  501  503 -0.00000000000E+00 -0.00000000000E+00 -0.23025631567E+03  0.23025631567E+03  0.00000000000E+00 0. -1.
          4    1    1    2  501    0 -0.14525375703E+02  0.15066158646E+02 -0.11179276996E+03  0.11373477520E+03  0.00000000000E+00 0.  1.
         -4    1    1    2    0  502  0.14525375703E+02 -0.15066158646E+02 -0.11656062080E+03  0.11842446537E+03  0.00000000000E+00 0. -1.
<mgrwt>
<rscale>  2 0.20927868E+02</rscale>
<asrwt>0</asrwt>
<pdfrwt beam="1">  1       21 0.29275776E-03 0.20927868E+02</pdfrwt>
<pdfrwt beam="2">  1       21 0.35424039E-01 0.20927868E+02</pdfrwt>
<totfact> 0.13201952E+08</totfact>
</mgrwt>
</event>
<event>
 4    1  0.7151341E+004  0.3505933E+02  0.7546771E-02  0.1548074E+00
         21   -1    0    0  501  502  0.00000000000E+00  0.00000000000E+00  0.17381518623E+04  0.17381518623E+04  0.00000000000E+00 0. -1.
         21   -1    0    0  502  503 -0.00000000000E+00 -0.00000000000E+00 -0.12717216148E+01  0.12717216148E+01  0.00000000000E+00 0. -1.
          5    1    1    2  501    0 -0.10790259743E+02 -0.33357557866E+02  0.28896611553E+03  0.29108516331E+03  0.00000000000E+00 0. -1.
         -5    1    1    2    0  503  0.10790259743E+02  0.33357557866E+02  0.14479140251E+04  0.14483384206E+04  0.00000000000E+00 0.  1.
<mgrwt>
<rscale>  2 0.35059326E+02</rscale>
<asrwt>0</asrwt>
<pdfrwt beam="1">  1       21 0.26740608E+00 0.35059326E+02</pdfrwt>
<pdfrwt beam="2">  1       21 0.19565087E-03 0.35059326E+02</pdfrwt>
<totfact> 0.26751720E+06</totfact>
</mgrwt>
</event>
<event>
 4    1  0.7151341E+004  0.2011726E+02  0.7546771E-02  0.1743006E+00
         21   -1    0    0  503  502  0.00000000000E+00  0.00000000000E+00  0.12242489426E+04  0.12242489426E+04  0.00000000000E+00 0.  1.
         21   -1    0    0  501  503 -0.00000000000E+00 -0.00000000000E+00 -0.43965377157E+00  0.43965377157E+00  0.00000000000E+00 0.  1.
          4    1    1    2  501    0  0.20081448267E+02  0.11997437121E+01  0.91691450753E+03  0.91713516892E+03  0.00000000000E+00 0.  1.
         -4    1    1    2    0  502 -0.20081448267E+02 -0.11997437121E+01  0.30689478128E+03  0.30755342743E+03  0.00000000000E+00 0. -1.
<mgrwt>
<rscale>  2 0.20117255E+02</rscale>
<asrwt>0</asrwt>
<pdfrwt beam="1">  1       21 0.18834326E+00 0.20117255E+02</pdfrwt>
<pdfrwt beam="2">  1       21 0.67640022E-04 0.20117255E+02</pdfrwt>
<totfact> 0.30834807E+07</totfact>
</mgrwt>
</event>
<event>
 4    1  0.7151341E+004  0.2765839E+02  0.7546771E-02  0.1625515E+00
         21   -1    0    0  503  502  0.00000000000E+00  0.00000000000E+00  0.64406911670E+00  0.64406911670E+00  0.00000000000E+00 0.  1.
         21   -1    0    0  501  503 -0.00000000000E+00 -0.00000000000E+00 -0.20755918700E+04  0.20755918700E+04  0.00000000000E+00 0.  1.
          1    1    1    2  501    0 -0.27628611704E+02  0.12830261871E+01 -0.17164368931E+04  0.17166597200E+04  0.00000000000E+00 0.  1.
         -1    1    1    2    0  502  0.27628611704E+02 -0.12830261871E+01 -0.35851090773E+03  0.35957621904E+03  0.00000000000E+00 0. -1.
<mgrwt>
<rscale>  2 0.27658386E+02</rscale>
<asrwt>0</asrwt>
<pdfrwt beam="1">  1       21 0.99086196E-04 0.27658386E+02</pdfrwt>
<pdfrwt beam="2">  1       21 0.31932621E+00 0.27658386E+02</pdfrwt>
<totfact> 0.39541864E+06</totfact>
</mgrwt>
</event>
<event>
 4    1  0.7151341E+004  0.2476814E+02  0.7546771E-02  0.1664355E+00
         21   -1    0    0  501  502  0.00000000000E+00  0.00000000000E+00  0.89994806327E+00  0.89994806327E+00  0.00000000000E+00 0. -1.
         21   -1    0    0  502  503 -0.00000000000E+00 -0.00000000000E+00 -0.80041639076E+03  0.80041639076E+03  0.00000000000E+00 0. -1.
          4    1    1    2  501    0 -0.24704672888E+02  0.17719453024E+01 -0.55408465978E+03  0.55463796377E+03  0.00000000000E+00 0.  1.
         -4    1    1    2    0  503  0.24704672888E+02 -0.17719453024E+01 -0.24543178292E+03  0.24667837506E+03  0.00000000000E+00 0. -1.
<mgrwt>
<rscale>  2 0.24768138E+02</rscale>
<asrwt>0</asrwt>
<pdfrwt beam="1">  1       21 0.13845329E-03 0.24768138E+02</pdfrwt>
<pdfrwt beam="2">  1       21 0.12314121E+00 0.24768138E+02</pdfrwt>
<totfact> 0.31833996E+07</totfact>
</mgrwt>
</event>
<event>
 4    1  0.7151341E+004  0.3261752E+02  0.7546771E-02  0.1570836E+00
         21   -1    0    0  501  502  0.00000000000E+00  0.00000000000E+00  0.10241092556E+03  0.10241092556E+03  0.00000000000E+00 0.  1.
         21   -1    0    0  502  503 -0.00000000000E+00 -0.00000000000E+00 -0.11343084543E+02  0.11343084543E+02  0.00000000000E+00 0.  1.
          1    1    1    2  501    0  0.63762296931E+01 -0.31988220573E+02  0.29034695711E+02  0.43668250659E+02  0.00000000000E+00 0. -1.
         -1    1    1    2    0  503 -0.63762296931E+01  0.31988220573E+02  0.62033145309E+02  0.70085759449E+02  0.00000000000E+00 0.  1.
<mgrwt>
<rscale>  2 0.32617519E+02</rscale>
<asrwt>0</asrwt>
<pdfrwt beam="1">  1       21 0.15755526E-01 0.32617519E+02</pdfrwt>
<pdfrwt beam="2">  1       21 0.17450900E-02 0.32617519E+02</pdfrwt>
<totfact> 0.43254371E+07</totfact>
</mgrwt>
</event>
<event>
 4    1  0.7151341E+004  0.2266393E+02  0.7546771E-02  0.1697016E+00
         21   -1    0    0  503  502  0.00000000000E+00  0.00000000000E+00  0.24773519302E+01  0.24773519302E+01  0.00000000000E+00 0.  1.
         21   -1    0    0  501  503 -0.00000000000E+00 -0.00000000000E+00 -0.23453878903E+03  0.23453878903E+03  0.00000000000E+00 0.  1.
          4    1    1    2  501    0 -0.21619225527E+02 -0.68016826656E+01 -0.15638749778E+03  0.15802121143E+03  0.00000000000E+00 0.  1.
         -4    1    1    2    0  502  0.21619225527E+02  0.68016826656E+01 -0.75673939312E+02  0.78994929524E+02  0.00000000000E+00 0. -1.
<mgrwt>
<rscale>  2 0.22663932E+02</rscale>
<asrwt>0</asrwt>
<pdfrwt beam="1">  1       21 0.38113097E-03 0.22663932E+02</pdfrwt>
<pdfrwt beam="2">  1       21 0.36082900E-01 0.22663932E+02</pdfrwt>
<totfact> 0.88763919E+07</totfact>
</mgrwt>
</event>
<event>
 4    1  0.7151341E+004  0.2332657E+02  0.7546771E-02  0.1686271E+00
         21   -1    0    0  501  502  0.00000000000E+00  0.00000000000E+00  0.21613237429E+01  0.21613237429E+01  0.00000000000E+00 0. -1.
         21   -1    0    0  502  503 -0.00000000000E+00 -0.00000000000E+00 -0.25175749578E+03  0.25175749578E+03  0.00000000000E+00 0. -1.
          5    1    1    2  501    0 -0.75739026587E+01 -0.22062748914E+02 -0.12466906194E+03  0.12683258215E+03  0.00000000000E+00 0. -1.
         -5    1    1    2    0  503  0.75739026587E+01  0.22062748914E+02 -0.12492711010E+03  0.12708623737E+03  0.00000000000E+00 0.  1.
<mgrwt>
<rscale>  2 0.23326570E+02</rscale>
<asrwt>0</asrwt>
<pdfrwt beam="1">  1       21 0.33251155E-03 0.23326570E+02</pdfrwt>
<pdfrwt beam="2">  1       21 0.38731899E-01 0.23326570E+02</pdfrwt>
<totfact> 0.95668478E+07</totfact>
</mgrwt>
</event>
<event>
 4    1  0.7151341E+004  0.2305227E+02  0.7546771E-02  0.1690664E+00
         21   -1    0    0  503  502  0.00000000000E+00  0.00000000000E+00  0.58991867873E+01  0.58991867873E+01  0.00000000000E+00 0. -1.
         21   -1    0    0  501  503 -0.00000000000E+00 -0.00000000000E+00 -0.94050146700E+02  0.94050146700E+02  0.00000000000E+00 0. -1.
          1    1    1    2  501    0  0.21154336609E+02  0.91597511212E+01 -0.54341377390E+02  0.59028741259E+02  0.00000000000E+00 0. -1.
         -1    1    1    2    0  502 -0.21154336609E+02 -0.91597511212E+01 -0.33809582522E+02  0.40920592228E+02  0.00000000000E+00 0.  1.
<mgrwt>
<rscale>  2 0.23052267E+02</rscale>
<asrwt>0</asrwt>
<pdfrwt beam="1">  1       21 0.90756715E-03 0.23052267E+02</pdfrwt>
<pdfrwt beam="2">  1       21 0.14469254E-01 0.23052267E+02</pdfrwt>
<totfact> 0.12441650E+08</totfact>
</mgrwt>
</event>
<event>
 4    1  0.7151341E+004  0.2354682E+02  0.7546771E-02  0.1682797E+00
         21   -1    0    0  503  502  0.00000000000E+00  0.00000000000E+00  0.11039438620E+03  0.11039438620E+03  0.00000000000E+00 0. -1.
         21   -1    0    0  501  503 -0.00000000000E+00 -0.00000000000E+00 -0.58914670859E+01  0.58914670859E+01  0.00000000000E+00 0. -1.
          1    1    1    2  501    0  0.12593057237E+02  0.19896424146E+02  0.29921205680E+02  0.38075337605E+02  0.00000000000E+00 0. -1.
         -1    1    1    2    0  502 -0.12593057237E+02 -0.19896424146E+02  0.74581713435E+02  0.78210515682E+02  0.00000000000E+00 0.  1.
<mgrwt>
<rscale>  2 0.23546821E+02</rscale>
<asrwt>0</asrwt>
<pdfrwt beam="1">  1       21 0.16983750E-01 0.23546821E+02</pdfrwt>
<pdfrwt beam="2">  1       21 0.90637963E-03 0.23546821E+02</pdfrwt>
<totfact> 0.95359970E+07</totfact>
</mgrwt>
</event>
<event>
 4    1  0.7151341E+004  0.2024206E+02  0.7546771E-02  0.1740557E+00
         21   -1    0    0  503  502  0.00000000000E+00  0.00000000000E+00  0.43567488519E+01  0.43567488519E+01  0.00000000000E+00 0. -1.
         21   -1    0    0  501  503 -0.00000000000E+00 -0.00000000000E+00 -0.12358132272E+03  0.12358132272E+03  0.00000000000E+00 0. -1.
          2    1    1    2  501    0  0.20134862076E+02  0.20804765107E+01 -0.28340428126E+02  0.34827014223E+02  0.00000000000E+00 0.  1.
         -2    1    1    2    0  502 -0.20134862076E+02 -0.20804765107E+01 -0.90884145742E+02  0.93111057349E+02  0.00000000000E+00 0. -1.
<mgrwt>
<rscale>  2 0.20242061E+02</rscale>
<asrwt>0</asrwt>
<pdfrwt beam="1">  1       21 0.67026909E-03 0.20242061E+02</pdfrwt>
<pdfrwt beam="2">  1       21 0.19012510E-01 0.20242061E+02</pdfrwt>
<totfact> 0.11786690E+08</totfact>
</mgrwt>
</event>
<event>
 4    1  0.7151341E+004  0.2497894E+02  0.7546771E-02  0.1661305E+00
         21   -1    0    0  503  502  0.00000000000E+00  0.00000000000E+00  0.88824803294E+01  0.88824803294E+01  0.00000000000E+00 0.  1.
         21   -1    0    0  501  503 -0.00000000000E+00 -0.00000000000E+00 -0.90167420021E+02  0.90167420021E+02  0.00000000000E+00 0.  1.
          4    1    1    2  501    0 -0.18962764062E+02 -0.16259188970E+02 -0.63921932498E+02  0.68629156348E+02  0.00000000000E+00 0. -1.
         -4    1    1    2    0  502  0.18962764062E+02  0.16259188970E+02 -0.17363007194E+02  0.30420744002E+02  0.00000000000E+00 0.  1.
<mgrwt>
<rscale>  2 0.24978944E+02</rscale>
<asrwt>0</asrwt>
<pdfrwt beam="1">  1       21 0.13665354E-02 0.24978944E+02</pdfrwt>
<pdfrwt beam="2">  1       21 0.13871911E-01 0.24978944E+02</pdfrwt>
<totfact> 0.73669010E+07</totfact>
</mgrwt>
</event>
<event>
 4    1  0.7151341E+004  0.2067724E+02  0.7546771E-02  0.1732186E+00
         21   -1    0    0  501  502  0.00000000000E+00  0.00000000000E+00  0.17744916375E+03  0.17744916375E+03  0.00000000000E+00 0.  1.
         21   -1    0    0  502  503 -0.00000000000E+00 -0.00000000000E+00 -0.33492395184E+01  0.33492395184E+01  0.00000000000E+00 0.  1.
          3    1    1    2  501    0 -0.17377726887E+02  0.11205480450E+02  0.39163194942E+02  0.44286612220E+02  0.00000000000E+00 0.  1.
         -3    1    1    2    0  503  0.17377726887E+02 -0.11205480450E+02  0.13493672929E+03  0.13651179105E+03  0.00000000000E+00 0. -1.
<mgrwt>
<rscale>  2 0.20677238E+02</rscale>
<asrwt>0</asrwt>
<pdfrwt beam="1">  1       21 0.27299864E-01 0.20677238E+02</pdfrwt>
<pdfrwt beam="2">  1       21 0.51526775E-03 0.20677238E+02</pdfrwt>
<totfact> 0.92522346E+07</totfact>
</mgrwt>
</event>
<event>
 4    1  0.7151341E+004  0.2729028E+02  0.7546771E-02  0.1630130E+00
         21   -1    0    0  503  502  0.00000000000E+00  0.00000000000E+00  0.58334219645E+02  0.58334219645E+02  0.00000000000E+00 0.  1.
         21   -1    0    0  501  503 -0.00000000000E+00 -0.00000000000E+00 -0.14836880826E+02  0.14836880826E+02  0.00000000000E+00 0.  1.
          1    1    1    2  501    0 -0.12630539132E+02 -0.24191508229E+02  0.35413337125E+02  0.44708657277E+02  0.00000000000E+00 0. -1.
         -1    1    1    2    0  502  0.12630539132E+02  0.24191508229E+02  0.80840016941E+01  0.28462443194E+02  0.00000000000E+00 0.  1.
<mgrwt>
<rscale>  2 0.27290284E+02</rscale>
<asrwt>0</asrwt>
<pdfrwt beam="1">  1       21 0.89744952E-02 0.27290284E+02</pdfrwt>
<pdfrwt beam="2">  1       21 0.22825971E-02 0.27290284E+02</pdfrwt>
<totfact> 0.71059545E+07</totfact>
</mgrwt>
</event>
<event>
 4    1  0.7151341E+004  0.3497345E+02  0.7546771E-02  0.1548836E+00
         21   -1    0    0  503  502  0.00000000000E+00  0.00000000000E+00  0.15703469633E+04  0.15703469633E+04  0.00000000000E+00 0.  1.
         21   -1    0    0  501  503 -0.00000000000E+00 -0.00000000000E+00 -0.77914129347E+00  0.77914129347E+00  0.00000000000E+00 0.  1.
          2    1    1    2  501    0 -0.81245572884E+01 -0.34016667300E+02  0.79862951808E+03  0.79939492695E+03  0.00000000000E+00 0. -1.
         -2    1    1    2    0  502  0.81245572884E+01  0.34016667300E+02  0.77093830394E+03  0.77173117766E+03  0.00000000000E+00 0.  1.
<mgrwt>
<rscale>  2 0.34973448E+02</rscale>
<asrwt>0</asrwt>
<pdfrwt beam="1">  1       21 0.24158931E+00 0.34973448E+02</pdfrwt>
<pdfrwt beam="2">  1       21 0.11986915E-03 0.34973448E+02</pdfrwt>
<totfact> 0.74152639E+06</totfact>
</mgrwt>
</event>
<event>
 4    1  0.7151341E+004  0.2228101E+02  0.7546771E-02  0.1703437E+00
         21   -1    0    0  501  502  0.00000000000E+00  0.00000000000E+00  0.99476167012E+01  0.99476167012E+01  0.00000000000E+00 0. -1.
         21   -1    0    0  502  503 -0.00000000000E+00 -0.00000000000E+00 -0.50555010292E+02  0.50555010292E+02  0.00000000000E+00 0. -1.
          1    1    1    2  501    0  0.19651616218E+02  0.10500353902E+02 -0.23731891732E+02  0.32552206334E+02  0.00000000000E+00 0.  1.
         -1    1    1    2    0  503 -0.19651616218E+02 -0.10500353902E+02 -0.16875501859E+02  0.27950420659E+02  0.00000000000E+00 0. -1.
<mgrwt>
<rscale>  2 0.22281011E+02</rscale>
<asrwt>0</asrwt>
<pdfrwt beam="1">  1       21 0.15304025E-02 0.22281011E+02</pdfrwt>
<pdfrwt beam="2">  1       21 0.77776940E-02 0.22281011E+02</pdfrwt>
<totfact> 0.15698007E+08</totfact>
</mgrwt>
</event>
<event>
 4    1  0.7151341E+004  0.2168302E+02  0.7546771E-02  0.1713792E+00
         21   -1    0    0  501  502  0.00000000000E+00  0.00000000000E+00  0.33529425800E+01  0.33529425800E+01  0.00000000000E+00 0.  1.
         21   -1    0    0  502  503 -0.00000000000E+00 -0.00000000000E+00 -0.17058528445E+03  0.17058528445E+03  0.00000000000E+00 0.  1.
          5    1    1    2  501    0  0.79506127180E+01 -0.20172786305E+02 -0.12030843682E+03  0.12224677304E+03  0.00000000000E+00 0.  1.
         -5    1    1    2    0  503 -0.79506127180E+01  0.20172786305E+02 -0.46923905051E+02  0.51691453985E+02  0.00000000000E+00 0. -1.
<mgrwt>
<rscale>  2 0.21683024E+02</rscale>
<asrwt>0</asrwt>
<pdfrwt beam="1">  1       21 0.51583721E-03 0.21683024E+02</pdfrwt>
<pdfrwt beam="2">  1       21 0.26243896E-01 0.21683024E+02</pdfrwt>
<totfact> 0.10043847E+08</totfact>
</mgrwt>
</event>
<event>
 4    1  0.7151341E+004  0.2662507E+02  0.7546771E-02  0.1638701E+00
         21   -1    0    0  503  502  0.00000000000E+00  0.00000000000E+00  0.13922598113E+02  0.13922598113E+02  0.00000000000E+00 0. -1.
         21   -1    0    0  501  503 -0.00000000000E+00 -0.00000000000E+00 -0.56254869573E+02  0.56254869573E+02  0.00000000000E+00 0. -1.
          4    1    1    2  501    0 -0.24409169651E+02 -0.10634229014E+02 -0.10357297132E+02  0.28568654040E+02  0.00000000000E+00 0.  1.
         -4    1    1    2    0  502  0.24409169651E+02  0.10634229014E+02 -0.31974974327E+02  0.41608813646E+02  0.00000000000E+00 0. -1.
<mgrwt>
<rscale>  2 0.26625071E+02</rscale>
<asrwt>0</asrwt>
<pdfrwt beam="1">  1       21 0.21419382E-02 0.26625071E+02</pdfrwt>
<pdfrwt beam="2">  1       21 0.86545953E-02 0.26625071E+02</pdfrwt>
<totfact> 0.82745995E+07</totfact>
</mgrwt>
</event>
<event>
 4    1  0.7151341E+004  0.5649524E+02  0.7546771E-02  0.1413157E+00
         21   -1    0    0  503  502  0.00000000000E+00  0.00000000000E+00  0.64168768937E+03  0.64168768937E+03  0.00000000000E+00 0. -1.
         21   -1    0    0  501  503 -0.00000000000E+00 -0.00000000000E+00 -0.55344893264E+01  0.55344893264E+01  0.00000000000E+00 0. -1.
          3    1    1    2  501    0  0.44346944809E+02  0.35000864454E+02  0.21508685706E+03  0.22238270640E+03  0.00000000000E+00 0.  1.
         -3    1    1    2    0  502 -0.44346944809E+02 -0.35000864454E+02  0.42106634298E+03  0.42483947229E+03  0.00000000000E+00 0. -1.
<mgrwt>
<rscale>  2 0.56495239E+02</rscale>
<asrwt>0</asrwt>
<pdfrwt beam="1">  1       21 0.98721124E-01 0.56495239E+02</pdfrwt>
<pdfrwt beam="2">  1       21 0.85146040E-03 0.56495239E+02</pdfrwt>
<totfact> 0.39220184E+06</totfact>
</mgrwt>
</event>
<event>
 4    1  0.7151341E+004  0.2254004E+02  0.7546771E-02  0.1699076E+00
         21   -1    0    0  503  502  0.00000000000E+00  0.00000000000E+00  0.69171068668E+00  0.69171068668E+00  0.00000000000E+00 0. -1.
         21   -1    0    0  501  503 -0.00000000000E+00 -0.00000000000E+00 -0.82150682545E+03  0.82150682545E+03  0.00000000000E+00 0. -1.
          5    1    1    2  501    0 -0.22127037314E+02 -0.42950504571E+01 -0.27661018633E+03  0.27752702287E+03  0.00000000000E+00 0. -1.
         -5    1    1    2    0  502  0.22127037314E+02  0.42950504571E+01 -0.54420492844E+03  0.54467151327E+03  0.00000000000E+00 0.  1.
<mgrwt>
<rscale>  2 0.22540036E+02</rscale>
<asrwt>0</asrwt>
<pdfrwt beam="1">  1       21 0.10641745E-03 0.22540036E+02</pdfrwt>
<pdfrwt beam="2">  1       21 0.12638517E+00 0.22540036E+02</pdfrwt>
<totfact> 0.42902198E+07</totfact>
</mgrwt>
</event>
<event>
 4    1  0.7151341E+004  0.3458373E+02  0.7546771E-02  0.1552328E+00
         21   -1    0    0  501  502  0.00000000000E+00  0.00000000000E+00  0.31367264332E+03  0.31367264332E+03  0.00000000000E+00 0. -1.
         21   -1    0    0  502  503 -0.00000000000E+00 -0.00000000000E+00 -0.15172169663E+02  0.15172169663E+02  0.00000000000E+00 0. -1.
          4    1    1    2  501    0  0.29500667536E+02 -0.18048416421E+02  0.69811999816E+01  0.35281324714E+02  0.00000000000E+00 0.  1.
         -4    1    1    2    0  503 -0.29500667536E+02  0.18048416421E+02  0.29151927368E+03  0.29356348827E+03  0.00000000000E+00 0. -1.
<mgrwt>
<rscale>  2 0.34583735E+02</rscale>
<asrwt>0</asrwt>
<pdfrwt beam="1">  1       21 0.48257325E-01 0.34583735E+02</pdfrwt>
<pdfrwt beam="2">  1       21 0.23341802E-02 0.34583735E+02</pdfrwt>
<totfact> 0.35544435E+06</totfact>
</mgrwt>
</event>
<event>
 4    1  0.7151341E+004  0.2043338E+02  0.7546771E-02  0.1736845E+00
         21   -1    0    0  503  502  0.00000000000E+00  0.00000000000E+00  0.19247845373E+03  0.19247845373E+03  0.00000000000E+00 0.  1.
         21   -1    0    0  501  503 -0.00000000000E+00 -0.00000000000E+00 -0.34084268185E+01  0.34084268185E+01  0.00000000000E+00 0.  1.
          1    1    1    2  501    0 -0.56433818688E+01  0.19638612784E+02  0.15359251033E+03  0.15494573922E+03  0.00000000000E+00 0.  1.
         -1    1    1    2    0  502  0.56433818688E+01 -0.19638612784E+02  0.35477516580E+02  0.40941141333E+02  0.00000000000E+00 0. -1.
<mgrwt>
<rscale>  2 0.20433376E+02</rscale>
<asrwt>0</asrwt>
<pdfrwt beam="1">  1       21 0.29612061E-01 0.20433376E+02</pdfrwt>
<pdfrwt beam="2">  1       21 0.52437351E-03 0.20433376E+02</pdfrwt>
<totfact> 0.77646408E+07</totfact>
</mgrwt>
</event>
<event>
 4    1  0.7151341E+004  0.2788956E+02  0.7546771E-02  0.1622661E+00
         21   -1    0    0  503  502  0.00000000000E+00  0.00000000000E+00  0.55775516463E+02  0.55775516463E+02  0.00000000000E+00 0.  1.
         21   -1    0    0  501  503 -0.00000000000E+00 -0.00000000000E+00 -0.14284093990E+02  0.14284093990E+02  0.00000000000E+00 0.  1.
          4    1    1    2  501    0 -0.19309174939E+02  0.20124200023E+02  0.15353912177E+02  0.31836618579E+02  0.00000000000E+00 0. -1.
         -4    1    1    2    0  502  0.19309174939E+02 -0.20124200023E+02  0.26137510296E+02  0.38222991875E+02  0.00000000000E+00 0.  1.
<mgrwt>
<rscale>  2 0.27889562E+02</rscale>
<asrwt>0</asrwt>
<pdfrwt beam="1">  1       21 0.85808485E-02 0.27889562E+02</pdfrwt>
<pdfrwt beam="2">  1       21 0.21975530E-02 0.27889562E+02</pdfrwt>
<totfact> 0.81609385E+07</totfact>
</mgrwt>
</event>
<event>
 4    1  0.7151341E+004  0.2341099E+02  0.7546771E-02  0.1684933E+00
         21   -1    0    0  501  502  0.00000000000E+00  0.00000000000E+00  0.15807009821E+03  0.15807009821E+03  0.00000000000E+00 0. -1.
         21   -1    0    0  502  503 -0.00000000000E+00 -0.00000000000E+00 -0.48443165347E+01  0.48443165347E+01  0.00000000000E+00 0. -1.
          4    1    1    2  501    0 -0.72878930920E+01  0.22247718670E+02  0.12004239919E+03  0.12230393279E+03  0.00000000000E+00 0. -1.
         -4    1    1    2    0  503  0.72878930920E+01 -0.22247718670E+02  0.33183382485E+02  0.40610481958E+02  0.00000000000E+00 0.  1.
<mgrwt>
<rscale>  2 0.23410988E+02</rscale>
<asrwt>0</asrwt>
<pdfrwt beam="1">  1       21 0.24318473E-01 0.23410988E+02</pdfrwt>
<pdfrwt beam="2">  1       21 0.74527959E-03 0.23410988E+02</pdfrwt>
<totfact> 0.68078476E+07</totfact>
</mgrwt>
</event>
<event>
 4    1  0.7151341E+004  0.2133220E+02  0.7546771E-02  0.1720064E+00
         21   -1    0    0  501  502  0.00000000000E+00  0.00000000000E+00  0.61644486103E+02  0.61644486103E+02  0.00000000000E+00 0.  1.
         21   -1    0    0  502  503 -0.00000000000E+00 -0.00000000000E+00 -0.83728041392E+01  0.83728041392E+01  0.00000000000E+00 0.  1.
          3    1    1    2  501    0 -0.20016446531E+02  0.73759618924E+01  0.14593197320E+02  0.25846167097E+02  0.00000000000E+00 0.  1.
         -3    1    1    2    0  503  0.20016446531E+02 -0.73759618924E+01  0.38678484643E+02  0.44171123145E+02  0.00000000000E+00 0. -1.
<mgrwt>
<rscale>  2 0.21332204E+02</rscale>
<asrwt>0</asrwt>
<pdfrwt beam="1">  1       21 0.94837668E-02 0.21332204E+02</pdfrwt>
<pdfrwt beam="2">  1       21 0.12881238E-02 0.21332204E+02</pdfrwt>
<totfact> 0.14540848E+08</totfact>
</mgrwt>
</event>
<event>
 4    1  0.7151341E+004  0.2119634E+02  0.7546771E-02  0.1722533E+00
         21   -1    0    0  501  502  0.00000000000E+00  0.00000000000E+00  0.41609350010E+02  0.41609350010E+02  0.00000000000E+00 0.  1.
         21   -1    0    0  502  503 -0.00000000000E+00 -0.00000000000E+00 -0.10988640146E+02  0.10988640146E+02  0.00000000000E+00 0.  1.
          2    1    1    2  501    0 -0.13245022571E+01  0.21154921330E+02  0.18777111476E+02  0.28317219462E+02  0.00000000000E+00 0.  1.
         -2    1    1    2    0  503  0.13245022571E+01 -0.21154921330E+02  0.11843598388E+02  0.24280770693E+02  0.00000000000E+00 0. -1.
<mgrwt>
<rscale>  2 0.21196344E+02</rscale>
<asrwt>0</asrwt>
<pdfrwt beam="1">  1       21 0.64014384E-02 0.21196344E+02</pdfrwt>
<pdfrwt beam="2">  1       21 0.16905600E-02 0.21196344E+02</pdfrwt>
<totfact> 0.18201930E+08</totfact>
</mgrwt>
</event>
<event>
 4    1  0.7151341E+004  0.4421669E+02  0.7546771E-02  0.1479292E+00
         21   -1    0    0  503  502  0.00000000000E+00  0.00000000000E+00  0.18658934615E+03  0.18658934615E+03  0.00000000000E+00 0. -1.
         21   -1    0    0  501  503 -0.00000000000E+00 -0.00000000000E+00 -0.13750581481E+02  0.13750581481E+02  0.00000000000E+00 0. -1.
          1    1    1    2  501    0  0.39745656991E+02  0.19375209978E+02  0.13528580417E+03  0.14232836970E+03  0.00000000000E+00 0.  1.
         -1    1    1    2    0  502 -0.39745656991E+02 -0.19375209978E+02  0.37552960493E+02  0.58011557927E+02  0.00000000000E+00 0. -1.
<mgrwt>
<rscale>  2 0.44216694E+02</rscale>
<asrwt>0</asrwt>
<pdfrwt beam="1">  1       21 0.28706051E-01 0.44216694E+02</pdfrwt>
<pdfrwt beam="2">  1       21 0.21154742E-02 0.44216694E+02</pdfrwt>
<totfact> 0.11501878E+07</totfact>
</mgrwt>
</event>
<event>
 4    1  0.7151341E+004  0.2167019E+02  0.7546771E-02  0.1714019E+00
         21   -1    0    0  503  502  0.00000000000E+00  0.00000000000E+00  0.39310407586E+03  0.39310407586E+03  0.00000000000E+00 0. -1.
         21   -1    0    0  501  503 -0.00000000000E+00 -0.00000000000E+00 -0.12042968578E+01  0.12042968578E+01  0.00000000000E+00 0. -1.
          5    1    1    2  501    0 -0.14520823484E+02  0.16085483773E+02  0.17824713399E+03  0.17955956638E+03  0.00000000000E+00 0. -1.
         -5    1    1    2    0  502  0.14520823484E+02 -0.16085483773E+02  0.21365264501E+03  0.21474880633E+03  0.00000000000E+00 0.  1.
<mgrwt>
<rscale>  2 0.21670189E+02</rscale>
<asrwt>0</asrwt>
<pdfrwt beam="1">  1       21 0.60477448E-01 0.21670189E+02</pdfrwt>
<pdfrwt beam="2">  1       21 0.18527675E-03 0.21670189E+02</pdfrwt>
<totfact> 0.92553287E+07</totfact>
</mgrwt>
</event>
<event>
 4    1  0.7151341E+004  0.2189668E+02  0.7546771E-02  0.1710045E+00
         21   -1    0    0  503  502  0.00000000000E+00  0.00000000000E+00  0.33665887175E+02  0.33665887175E+02  0.00000000000E+00 0. -1.
         21   -1    0    0  501  503 -0.00000000000E+00 -0.00000000000E+00 -0.17073567020E+02  0.17073567020E+02  0.00000000000E+00 0. -1.
          2    1    1    2  501    0  0.12835373726E+02 -0.17740283637E+02 -0.20357035352E+01  0.21991102089E+02  0.00000000000E+00 0.  1.
         -2    1    1    2    0  502 -0.12835373726E+02  0.17740283637E+02  0.18628023689E+02  0.28748352106E+02  0.00000000000E+00 0. -1.
<mgrwt>
<rscale>  2 0.21896677E+02</rscale>
<asrwt>0</asrwt>
<pdfrwt beam="1">  1       21 0.51793672E-02 0.21896677E+02</pdfrwt>
<pdfrwt beam="2">  1       21 0.26267026E-02 0.21896677E+02</pdfrwt>
<totfact> 0.13124488E+08</totfact>
</mgrwt>
</event>
<event>
 4    1  0.7151341E+004  0.2281772E+02  0.7546771E-02  0.1694482E+00
         21   -1    0    0  503  502  0.00000000000E+00  0.00000000000E+00  0.90785128165E+03  0.90785128165E+03  0.00000000000E+00 0.  1.
         21   -1    0    0  501  503 -0.00000000000E+00 -0.00000000000E+00 -0.65289330340E+00  0.65289330340E+00  0.00000000000E+00 0.  1.
          4    1    1    2  501    0  0.87491612136E+01  0.21073697448E+02  0.29519002899E+03  0.29607060266E+03  0.00000000000E+00 0.  1.
         -4    1    1    2    0  502 -0.87491612136E+01 -0.21073697448E+02  0.61200835936E+03  0.61243357229E+03  0.00000000000E+00 0. -1.
<mgrwt>
<rscale>  2 0.22817724E+02</rscale>
<asrwt>0</asrwt>
<pdfrwt beam="1">  1       21 0.13966842E+00 0.22817724E+02</pdfrwt>
<pdfrwt beam="2">  1       21 0.10044585E-03 0.22817724E+02</pdfrwt>
<totfact> 0.37075426E+07</totfact>
</mgrwt>
</event>
<event>
 4    1  0.7151341E+004  0.2412971E+02  0.7546771E-02  0.1673826E+00
         21   -1    0    0  501  502  0.00000000000E+00  0.00000000000E+00  0.26823678636E+02  0.26823678636E+02  0.00000000000E+00 0. -1.
         21   -1    0    0  502  503 -0.00000000000E+00 -0.00000000000E+00 -0.23160127504E+02  0.23160127504E+02  0.00000000000E+00 0. -1.
          5    1    1    2  501    0 -0.23733183149E+02 -0.43565072395E+01 -0.44297982015E+01  0.24532962516E+02  0.00000000000E+00 0.  1.
         -5    1    1    2    0  503  0.23733183149E+02  0.43565072395E+01  0.80933493336E+01  0.25450843623E+02  0.00000000000E+00 0. -1.
<mgrwt>
<rscale>  2 0.24129715E+02</rscale>
<asrwt>0</asrwt>
<pdfrwt beam="1">  1       21 0.41267198E-02 0.24129715E+02</pdfrwt>
<pdfrwt beam="2">  1       21 0.35630966E-02 0.24129715E+02</pdfrwt>
<totfact> 0.12044177E+08</totfact>
</mgrwt>
</event>
<event>
 4    1  0.7151341E+004  0.2817753E+02  0.7546771E-02  0.1619154E+00
         21   -1    0    0  503  502  0.00000000000E+00  0.00000000000E+00  0.53139758745E+01  0.53139758745E+01  0.00000000000E+00 0. -1.
         21   -1    0    0  501  503 -0.00000000000E+00 -0.00000000000E+00 -0.16046777905E+03  0.16046777905E+03  0.00000000000E+00 0. -1.
          3    1    1    2  501    0  0.26893277502E+02 -0.84098129199E+01 -0.99334036652E+02  0.10325320414E+03  0.00000000000E+00 0. -1.
         -3    1    1    2    0  502 -0.26893277502E+02  0.84098129199E+01 -0.55819766522E+02  0.62528550781E+02  0.00000000000E+00 0.  1.
<mgrwt>
<rscale>  2 0.28177532E+02</rscale>
<asrwt>0</asrwt>
<pdfrwt beam="1">  1       21 0.81753480E-03 0.28177532E+02</pdfrwt>
<pdfrwt beam="2">  1       21 0.24687349E-01 0.28177532E+02</pdfrwt>
<totfact> 0.60323122E+07</totfact>
</mgrwt>
</event>
<event>
 4    1  0.7151341E+004  0.2913789E+02  0.7546771E-02  0.1607818E+00
         21   -1    0    0  501  502  0.00000000000E+00  0.00000000000E+00  0.19219995419E+02  0.19219995419E+02  0.00000000000E+00 0.  1.
         21   -1    0    0  502  503 -0.00000000000E+00 -0.00000000000E+00 -0.44654172042E+02  0.44654172042E+02  0.00000000000E+00 0.  1.
          1    1    1    2  501    0  0.26820794167E+02  0.11386896530E+02 -0.16030252459E+02  0.33256358885E+02  0.00000000000E+00 0. -1.
         -1    1    1    2    0  503 -0.26820794167E+02 -0.11386896530E+02 -0.94039241636E+01  0.30617808577E+02  0.00000000000E+00 0.  1.
<mgrwt>
<rscale>  2 0.29137886E+02</rscale>
<asrwt>0</asrwt>
<pdfrwt beam="1">  1       21 0.29569224E-02 0.29137886E+02</pdfrwt>
<pdfrwt beam="2">  1       21 0.68698726E-02 0.29137886E+02</pdfrwt>
<totfact> 0.74814636E+07</totfact>
</mgrwt>
</event>
<event>
 4    1  0.7151341E+004  0.2445255E+02  0.7546771E-02  0.1668992E+00
         21   -1    0    0  501  502  0.00000000000E+00  0.00000000000E+00  0.20047378533E+04  0.20047378533E+04  0.00000000000E+00 0.  1.
         21   -1    0    0  502  503 -0.00000000000E+00 -0.00000000000E+00 -0.61253957521E+00  0.61253957521E+00  0.00000000000E+00 0.  1.
          3    1    1    2  501    0 -0.93188325734E+01 -0.22607223340E+02  0.17202757463E+04  0.17204495257E+04  0.00000000000E+00 0.  1.
         -3    1    1    2    0  503  0.93188325734E+01  0.22607223340E+02  0.28384956748E+03  0.28490086723E+03  0.00000000000E+00 0. -1.
<mgrwt>
<rscale>  2 0.24452550E+02</rscale>
<asrwt>0</asrwt>
<pdfrwt beam="1">  1       21 0.30841596E+00 0.24452550E+02</pdfrwt>
<pdfrwt beam="2">  1       21 0.94238463E-04 0.24452550E+02</pdfrwt>
<totfact> 0.48133722E+06</totfact>
</mgrwt>
</event>
<event>
 4    1  0.7151341E+004  0.5832619E+02  0.7546771E-02  0.1404993E+00
         21   -1    0    0  501  502  0.00000000000E+00  0.00000000000E+00  0.15091011980E+03  0.15091011980E+03  0.00000000000E+00 0.  1.
         21   -1    0    0  502  503 -0.00000000000E+00 -0.00000000000E+00 -0.22792112939E+02  0.22792112939E+02  0.00000000000E+00 0.  1.
          5    1    1    2  501    0  0.54122803281E+02 -0.21740908269E+02  0.54976454750E+02  0.80152077354E+02  0.00000000000E+00 0.  1.
         -5    1    1    2    0  503 -0.54122803281E+02  0.21740908269E+02  0.73141552115E+02  0.93550155388E+02  0.00000000000E+00 0. -1.
<mgrwt>
<rscale>  2 0.58326194E+02</rscale>
<asrwt>0</asrwt>
<pdfrwt beam="1">  1       21 0.23216941E-01 0.58326194E+02</pdfrwt>
<pdfrwt beam="2">  1       21 0.35064790E-02 0.58326194E+02</pdfrwt>
<totfact> 0.78443600E+06</totfact>
</mgrwt>
</event>
<event>
 4    1  0.7151341E+004  0.4448845E+02  0.7546771E-02  0.1477561E+00
         21   -1    0    0  501  502  0.00000000000E+00  0.00000000000E+00  0.54706641343E+01  0.54706641343E+01  0.00000000000E+00 0. -1.
         21   -1    0    0  502  503 -0.00000000000E+00 -0.00000000000E+00 -0.50160316878E+03  0.50160316878E+03  0.00000000000E+00 0. -1.
          1    1    1    2  501    0 -0.16085130854E+02 -0.41478795653E+02 -0.38192225405E+03  0.38450465545E+03  0.00000000000E+00 0. -1.
         -1    1    1    2    0  503  0.16085130854E+02  0.41478795653E+02 -0.11421025060E+03  0.12256917747E+03  0.00000000000E+00 0.  1.
<mgrwt>
<rscale>  2 0.44488447E+02</rscale>
<asrwt>0</asrwt>
<pdfrwt beam="1">  1       21 0.84164056E-03 0.44488447E+02</pdfrwt>
<pdfrwt beam="2">  1       21 0.77169725E-01 0.44488447E+02</pdfrwt>
<totfact> 0.67336823E+06</totfact>
</mgrwt>
</event>
<event>
 4    1  0.7151341E+004  0.3898767E+02  0.7546771E-02  0.1515796E+00
         21   -1    0    0  501  502  0.00000000000E+00  0.00000000000E+00  0.42294564681E+02  0.42294564681E+02  0.00000000000E+00 0. -1.
         21   -1    0    0  502  503 -0.00000000000E+00 -0.00000000000E+00 -0.36779582633E+02  0.36779582633E+02  0.00000000000E+00 0. -1.
          1    1    1    2  501    0  0.38558685348E+02  0.57677164013E+01  0.87333908490E+01  0.39953859438E+02  0.00000000000E+00 0.  1.
         -1    1    1    2    0  503 -0.38558685348E+02 -0.57677164013E+01 -0.32184088001E+01  0.39120287876E+02  0.00000000000E+00 0. -1.
<mgrwt>
<rscale>  2 0.38987675E+02</rscale>
<asrwt>0</asrwt>
<pdfrwt beam="1">  1       21 0.65068561E-02 0.38987675E+02</pdfrwt>
<pdfrwt beam="2">  1       21 0.56583973E-02 0.38987675E+02</pdfrwt>
<totfact> 0.30747265E+07</totfact>
</mgrwt>
</event>
<event>
 4    1  0.7151341E+004  0.2030884E+02  0.7546771E-02  0.1739255E+00
         21   -1    0    0  501  502  0.00000000000E+00  0.00000000000E+00  0.95161673108E+02  0.95161673108E+02  0.00000000000E+00 0. -1.
         21   -1    0    0  502  503 -0.00000000000E+00 -0.00000000000E+00 -0.48818107743E+01  0.48818107743E+01  0.00000000000E+00 0. -1.
          3    1    1    2  501    0 -0.20045181541E+02 -0.32618236479E+01  0.61893533235E+02  0.65140296690E+02  0.00000000000E+00 0. -1.
         -3    1    1    2    0  503  0.20045181541E+02  0.32618236479E+01  0.28386329098E+02  0.34903187192E+02  0.00000000000E+00 0.  1.
<mgrwt>
<rscale>  2 0.20308835E+02</rscale>
<asrwt>0</asrwt>
<pdfrwt beam="1">  1       21 0.14640256E-01 0.20308835E+02</pdfrwt>
<pdfrwt beam="2">  1       21 0.75104788E-03 0.20308835E+02</pdfrwt>
<totfact> 0.15576114E+08</totfact>
</mgrwt>
</event>
<event>
 4    1  0.7151341E+004  0.2011270E+02  0.7546771E-02  0.1743096E+00
         21   -1    0    0  501  502  0.00000000000E+00  0.00000000000E+00  0.89904890657E+02  0.89904890657E+02  0.00000000000E+00 0.  1.
         21   -1    0    0  502  503 -0.00000000000E+00 -0.00000000000E+00 -0.56383794661E+01  0.56383794661E+01  0.00000000000E+00 0.  1.
          3    1    1    2  501    0  0.90559042679E+01 -0.17958602259E+02  0.63603901469E+02  0.66708148522E+02  0.00000000000E+00 0.  1.
         -3    1    1    2    0  503 -0.90559042679E+01  0.17958602259E+02  0.20662609722E+02  0.28835121601E+02  0.00000000000E+00 0. -1.
<mgrwt>
<rscale>  2 0.20112702E+02</rscale>
<asrwt>0</asrwt>
<pdfrwt beam="1">  1       21 0.13831521E-01 0.20112702E+02</pdfrwt>
<pdfrwt beam="2">  1       21 0.86744306E-03 0.20112702E+02</pdfrwt>
<totfact> 0.13795917E+08</totfact>
</mgrwt>
</event>
<event>
 4    1  0.7151341E+004  0.2057273E+02  0.7546771E-02  0.1734173E+00
         21   -1    0    0  503  502  0.00000000000E+00  0.00000000000E+00  0.69327706634E+02  0.69327706634E+02  0.00000000000E+00 0. -1.
         21   -1    0    0  501  503 -0.00000000000E+00 -0.00000000000E+00 -0.62942970641E+01  0.62942970641E+01  0.00000000000E+00 0. -1.
          2    1    1    2  501    0 -0.17753904283E+02  0.10394042786E+02  0.38075975496E+02  0.43278368184E+02  0.00000000000E+00 0. -1.
         -2    1    1    2    0  502  0.17753904283E+02 -0.10394042786E+02  0.24957434075E+02  0.32343635515E+02  0.00000000000E+00 0.  1.
<mgrwt>
<rscale>  2 0.20572731E+02</rscale>
<asrwt>0</asrwt>
<pdfrwt beam="1">  1       21 0.10665801E-01 0.20572731E+02</pdfrwt>
<pdfrwt beam="2">  1       21 0.96835344E-03 0.20572731E+02</pdfrwt>
<totfact> 0.18185723E+08</totfact>
</mgrwt>
</event>
<event>
 4    1  0.7151341E+004  0.2326492E+02  0.7546771E-02  0.1687252E+00
         21   -1    0    0  501  502  0.00000000000E+00  0.00000000000E+00  0.26593136211E+03  0.26593136211E+03  0.00000000000E+00 0.  1.
         21   -1    0    0  502  503 -0.00000000000E+00 -0.00000000000E+00 -0.22737145809E+01  0.22737145809E+01  0.00000000000E+00 0.  1.
          5    1    1    2  501    0  0.22528971322E+02  0.58053339301E+01  0.88406437808E+02  0.91416380899E+02  0.00000000000E+00 0.  1.
         -5    1    1    2    0  503 -0.22528971322E+02 -0.58053339301E+01  0.17525120972E+03  0.17678869579E+03  0.00000000000E+00 0. -1.
<mgrwt>
<rscale>  2 0.23264919E+02</rscale>
<asrwt>0</asrwt>
<pdfrwt beam="1">  1       21 0.40912493E-01 0.23264919E+02</pdfrwt>
<pdfrwt beam="2">  1       21 0.34980245E-03 0.23264919E+02</pdfrwt>
<totfact> 0.80068911E+07</totfact>
</mgrwt>
</event>
<event>
 4    1  0.7151341E+004  0.2986894E+02  0.7546771E-02  0.1599542E+00
         21   -1    0    0  501  502  0.00000000000E+00  0.00000000000E+00  0.21351786347E+02  0.21351786347E+02  0.00000000000E+00 0.  1.
         21   -1    0    0  502  503 -0.00000000000E+00 -0.00000000000E+00 -0.11011786165E+03  0.11011786165E+03  0.00000000000E+00 0.  1.
          2    1    1    2  501    0  0.56286624152E+01 -0.29333794498E+02  0.73998238268E+01  0.30771914677E+02  0.00000000000E+00 0. -1.
         -2    1    1    2    0  503 -0.56286624152E+01  0.29333794498E+02 -0.96165899130E+02  0.10069773332E+03  0.00000000000E+00 0.  1.
<mgrwt>
<rscale>  2 0.29868936E+02</rscale>
<asrwt>0</asrwt>
<pdfrwt beam="1">  1       21 0.32848903E-02 0.29868936E+02</pdfrwt>
<pdfrwt beam="2">  1       21 0.16941209E-01 0.29868936E+02</pdfrwt>
<totfact> 0.13972980E+07</totfact>
</mgrwt>
</event>
<event>
 4    1  0.7151341E+004  0.2061437E+02  0.7546771E-02  0.1733379E+00
         21   -1    0    0  503  502  0.00000000000E+00  0.00000000000E+00  0.10915042242E+02  0.10915042242E+02  0.00000000000E+00 0. -1.
         21   -1    0    0  501  503 -0.00000000000E+00 -0.00000000000E+00 -0.63511115344E+02  0.63511115344E+02  0.00000000000E+00 0. -1.
          1    1    1    2  501    0  0.15543327979E+02  0.13540949728E+02 -0.31482265975E+01  0.20853385694E+02  0.00000000000E+00 0.  1.
         -1    1    1    2    0  502 -0.15543327979E+02 -0.13540949728E+02 -0.49447846505E+02  0.53572771892E+02  0.00000000000E+00 0. -1.
<mgrwt>
<rscale>  2 0.20614373E+02</rscale>
<asrwt>0</asrwt>
<pdfrwt beam="1">  1       21 0.16792373E-02 0.20614373E+02</pdfrwt>
<pdfrwt beam="2">  1       21 0.97709408E-02 0.20614373E+02</pdfrwt>
<totfact> 0.91738193E+07</totfact>
</mgrwt>
</event>
<event>
 4    1  0.7151341E+004  0.3159955E+02  0.7546771E-02  0.1581052E+00
         21   -1    0    0  503  502  0.00000000000E+00  0.00000000000E+00  0.55841749851E+01  0.55841749851E+01  0.00000000000E+00 0.  1.
         21   -1    0    0  501  503 -0.00000000000E+00 -0.00000000000E+00 -0.19077338755E+03  0.19077338755E+03  0.00000000000E+00 0.  1.
          3    1    1    2  501    0 -0.12998180978E+02 -0.28802405283E+02 -0.11717590244E+03  0.12136195191E+03  0.00000000000E+00 0. -1.
         -3    1    1    2    0  502  0.12998180978E+02  0.28802405283E+02 -0.68013310121E+02  0.74995610621E+02  0.00000000000E+00 0.  1.
<mgrwt>
<rscale>  2 0.31599545E+02</rscale>
<asrwt>0</asrwt>
<pdfrwt beam="1">  1       21 0.85910389E-03 0.31599545E+02</pdfrwt>
<pdfrwt beam="2">  1       21 0.29349750E-01 0.31599545E+02</pdfrwt>
<totfact> 0.41886350E+07</totfact>
</mgrwt>
</event>
<event>
 4    1  0.7151341E+004  0.2438625E+02  0.7546771E-02  0.1669977E+00
         21   -1    0    0  503  502  0.00000000000E+00  0.00000000000E+00  0.55290840775E+01  0.55290840775E+01  0.00000000000E+00 0.  1.
         21   -1    0    0  501  503 -0.00000000000E+00 -0.00000000000E+00 -0.10918234592E+03  0.10918234592E+03  0.00000000000E+00 0.  1.
          3    1    1    2  501    0  0.24310541846E+02  0.19200664596E+01 -0.58825632797E+02  0.63680013930E+02  0.00000000000E+00 0. -1.
         -3    1    1    2    0  502 -0.24310541846E+02 -0.19200664596E+01 -0.44827629043E+02  0.51031416066E+02  0.00000000000E+00 0.  1.
<mgrwt>
<rscale>  2 0.24386248E+02</rscale>
<asrwt>0</asrwt>
<pdfrwt beam="1">  1       21 0.85062832E-03 0.24386248E+02</pdfrwt>
<pdfrwt beam="2">  1       21 0.16797284E-01 0.24386248E+02</pdfrwt>
<totfact> 0.10793166E+08</totfact>
</mgrwt>
</event>
<event>
 4    1  0.7151341E+004  0.2175997E+02  0.7546771E-02  0.1712436E+00
         21   -1    0    0  501  502  0.00000000000E+00  0.00000000000E+00  0.13148152821E+01  0.13148152821E+01  0.00000000000E+00 0. -1.
         21   -1    0    0  502  503 -0.00000000000E+00 -0.00000000000E+00 -0.53182827129E+03  0.53182827129E+03  0.00000000000E+00 0. -1.
          1    1    1    2  501    0 -0.12836948307E+02  0.17570122778E+02 -0.11378949047E+03  0.11585139014E+03  0.00000000000E+00 0.  1.
         -1    1    1    2    0  503  0.12836948307E+02 -0.17570122778E+02 -0.41672396554E+03  0.41729169643E+03  0.00000000000E+00 0. -1.
<mgrwt>
<rscale>  2 0.21759974E+02</rscale>
<asrwt>0</asrwt>
<pdfrwt beam="1">  1       21 0.20227920E-03 0.21759974E+02</pdfrwt>
<pdfrwt beam="2">  1       21 0.81819762E-01 0.21759974E+02</pdfrwt>
<totfact> 0.43972968E+07</totfact>
</mgrwt>
</event>
<event>
 4    1  0.7151341E+004  0.2888705E+02  0.7546771E-02  0.1610727E+00
         21   -1    0    0  501  502  0.00000000000E+00  0.00000000000E+00  0.67527111380E+02  0.67527111380E+02  0.00000000000E+00 0.  1.
         21   -1    0    0  502  503 -0.00000000000E+00 -0.00000000000E+00 -0.12661397220E+02  0.12661397220E+02  0.00000000000E+00 0.  1.
          2    1    1    2  501    0  0.28219351480E+02  0.61749169476E+01  0.33645213097E+02  0.44344805351E+02  0.00000000000E+00 0.  1.
         -2    1    1    2    0  503 -0.28219351480E+02 -0.61749169476E+01  0.21220501063E+02  0.35843703250E+02  0.00000000000E+00 0. -1.
<mgrwt>
<rscale>  2 0.28887045E+02</rscale>
<asrwt>0</asrwt>
<pdfrwt beam="1">  1       21 0.10388786E-01 0.28887045E+02</pdfrwt>
<pdfrwt beam="2">  1       21 0.19479073E-02 0.28887045E+02</pdfrwt>
<totfact> 0.72205898E+07</totfact>
</mgrwt>
</event>
<event>
 4    1  0.7151341E+004  0.3586610E+02  0.7546771E-02  0.1541041E+00
         21   -1    0    0  501  502  0.00000000000E+00  0.00000000000E+00  0.28964358698E+02  0.28964358698E+02  0.00000000000E+00 0.  1.
         21   -1    0    0  502  503 -0.00000000000E+00 -0.00000000000E+00 -0.45209563470E+02  0.45209563470E+02  0.00000000000E+00 0.  1.
          4    1    1    2  501    0  0.14228405934E+02  0.32923087587E+02 -0.13047244084E+02  0.38165531699E+02  0.00000000000E+00 0. -1.
         -4    1    1    2    0  503 -0.14228405934E+02 -0.32923087587E+02 -0.31979606873E+01  0.36008390470E+02  0.00000000000E+00 0.  1.
<mgrwt>
<rscale>  2 0.35866101E+02</rscale>
<asrwt>0</asrwt>
<pdfrwt beam="1">  1       21 0.44560552E-02 0.35866101E+02</pdfrwt>
<pdfrwt beam="2">  1       21 0.69553175E-02 0.35866101E+02</pdfrwt>
<totfact> 0.39968405E+07</totfact>
</mgrwt>
</event>
<event>
 4    1  0.7151341E+004  0.3024465E+02  0.7546771E-02  0.1595400E+00
         21   -1    0    0  503  502  0.00000000000E+00  0.00000000000E+00  0.76337061187E+01  0.76337061187E+01  0.00000000000E+00 0. -1.
         21   -1    0    0  501  503 -0.00000000000E+00 -0.00000000000E+00 -0.12001593373E+03  0.12001593373E+03  0.00000000000E+00 0. -1.
          3    1    1    2  501    0  0.13862704421E+02 -0.26880558591E+02 -0.58710354918E+02  0.66042749630E+02  0.00000000000E+00 0.  1.
         -3    1    1    2    0  502 -0.13862704421E+02  0.26880558591E+02 -0.53671872691E+02  0.61606890217E+02  0.00000000000E+00 0. -1.
<mgrwt>
<rscale>  2 0.30244652E+02</rscale>
<asrwt>0</asrwt>
<pdfrwt beam="1">  1       21 0.11744163E-02 0.30244652E+02</pdfrwt>
<pdfrwt beam="2">  1       21 0.18463990E-01 0.30244652E+02</pdfrwt>
<totfact> 0.59295262E+07</totfact>
</mgrwt>
</event>
<event>
 4    1  0.7151341E+004  0.2056639E+02  0.7546771E-02  0.1734294E+00
         21   -1    0    0  503  502  0.00000000000E+00  0.00000000000E+00  0.36523830850E+01  0.36523830850E+01  0.00000000000E+00 0.  1.
         21   -1    0    0  501  503 -0.00000000000E+00 -0.00000000000E+00 -0.12162361805E+03  0.12162361805E+03  0.00000000000E+00 0.  1.
          4    1    1    2  501    0 -0.13500115320E+02  0.15515262463E+02 -0.72682241932E+02  0.75535983314E+02  0.00000000000E+00 0. -1.
         -4    1    1    2    0  502  0.13500115320E+02 -0.15515262463E+02 -0.45288993036E+02  0.49740017824E+02  0.00000000000E+00 0.  1.
<mgrwt>
<rscale>  2 0.20566392E+02</rscale>
<asrwt>0</asrwt>
<pdfrwt beam="1">  1       21 0.56190519E-03 0.20566392E+02</pdfrwt>
<pdfrwt beam="2">  1       21 0.18711322E-01 0.20566392E+02</pdfrwt>
<totfact> 0.15793329E+08</totfact>
</mgrwt>
</event>
<event>
 4    1  0.7151341E+004  0.2595165E+02  0.7546771E-02  0.1647698E+00
         21   -1    0    0  501  502  0.00000000000E+00  0.00000000000E+00  0.25190174718E+02  0.25190174718E+02  0.00000000000E+00 0. -1.
         21   -1    0    0  502  503 -0.00000000000E+00 -0.00000000000E+00 -0.27244479638E+02  0.27244479638E+02  0.00000000000E+00 0. -1.
          2    1    1    2  501    0 -0.61167675771E+01 -0.25220491598E+02  0.25540268998E+01  0.26077022365E+02  0.00000000000E+00 0.  1.
         -2    1    1    2    0  503  0.61167675771E+01  0.25220491598E+02 -0.46083318203E+01  0.26357631991E+02  0.00000000000E+00 0. -1.
<mgrwt>
<rscale>  2 0.25951648E+02</rscale>
<asrwt>0</asrwt>
<pdfrwt beam="1">  1       21 0.38754115E-02 0.25951648E+02</pdfrwt>
<pdfrwt beam="2">  1       21 0.41914584E-02 0.25951648E+02</pdfrwt>
<totfact> 0.10500672E+08</totfact>
</mgrwt>
</event>
<event>
 4    1  0.7151341E+004  0.3147371E+02  0.7546771E-02  0.1582348E+00
         21   -1    0    0  501  502  0.00000000000E+00  0.00000000000E+00  0.14531496346E+02  0.14531496346E+02  0.00000000000E+00 0. -1.
         21   -1    0    0  502  503 -0.00000000000E+00 -0.00000000000E+00 -0.70853162110E+02  0.70853162110E+02  0.00000000000E+00 0. -1.
          4    1    1    2  501    0  0.24016990937E+02  0.20341550168E+02 -0.36470653008E+02  0.48173675879E+02  0.00000000000E+00 0. -1.
         -4    1    1    2    0  503 -0.24016990937E+02 -0.20341550168E+02 -0.19851012756E+02  0.37210982577E+02  0.00000000000E+00 0.  1.
<mgrwt>
<rscale>  2 0.31473712E+02</rscale>
<asrwt>0</asrwt>
<pdfrwt beam="1">  1       21 0.22356149E-02 0.31473712E+02</pdfrwt>
<pdfrwt beam="2">  1       21 0.10900486E-01 0.31473712E+02</pdfrwt>
<totfact> 0.54840471E+07</totfact>
</mgrwt>
</event>
<event>
 4    1  0.7151341E+004  0.2518128E+02  0.7546771E-02  0.1658412E+00
         21   -1    0    0  501  502  0.00000000000E+00  0.00000000000E+00  0.41848472854E+02  0.41848472854E+02  0.00000000000E+00 0. -1.
         21   -1    0    0  502  503 -0.00000000000E+00 -0.00000000000E+00 -0.15225435902E+02  0.15225435902E+02  0.00000000000E+00 0. -1.
          1    1    1    2  501    0  0.23967615831E+02  0.77233600187E+01  0.15290544907E+02  0.29460102888E+02  0.00000000000E+00 0. -1.
         -1    1    1    2    0  503 -0.23967615831E+02 -0.77233600187E+01  0.11332492044E+02  0.27613805868E+02  0.00000000000E+00 0.  1.
<mgrwt>
<rscale>  2 0.25181281E+02</rscale>
<asrwt>0</asrwt>
<pdfrwt beam="1">  1       21 0.64382265E-02 0.25181281E+02</pdfrwt>
<pdfrwt beam="2">  1       21 0.23423748E-02 0.25181281E+02</pdfrwt>
<totfact> 0.11511150E+08</totfact>
</mgrwt>
</event>
<event>
 4    1  0.7151341E+004  0.2413729E+02  0.7546771E-02  0.1673712E+00
         21   -1    0    0  503  502  0.00000000000E+00  0.00000000000E+00  0.22894957460E+03  0.22894957460E+03  0.00000000000E+00 0. -1.
         21   -1    0    0  501  503 -0.00000000000E+00 -0.00000000000E+00 -0.26647296265E+01  0.26647296265E+01  0.00000000000E+00 0. -1.
          4    1    1    2  501    0 -0.65733262185E+01  0.23224989180E+02  0.13772045124E+03  0.13981963893E+03  0.00000000000E+00 0.  1.
         -4    1    1    2    0  502  0.65733262185E+01 -0.23224989180E+02  0.88564393731E+02  0.91794665297E+02  0.00000000000E+00 0. -1.
<mgrwt>
<rscale>  2 0.24137289E+02</rscale>
<asrwt>0</asrwt>
<pdfrwt beam="1">  1       21 0.35222996E-01 0.24137289E+02</pdfrwt>
<pdfrwt beam="2">  1       21 0.40995859E-03 0.24137289E+02</pdfrwt>
<totfact> 0.84789809E+07</totfact>
</mgrwt>
</event>
<event>
 4    1  0.7151341E+004  0.2296035E+02  0.7546771E-02  0.1692154E+00
         21   -1    0    0  501  502  0.00000000000E+00  0.00000000000E+00  0.68371586269E+02  0.68371586269E+02  0.00000000000E+00 0. -1.
         21   -1    0    0  502  503 -0.00000000000E+00 -0.00000000000E+00 -0.87587843242E+01  0.87587843242E+01  0.00000000000E+00 0. -1.
          2    1    1    2  501    0 -0.18337025577E+02  0.13817785614E+02  0.43148289959E+02  0.48876913085E+02  0.00000000000E+00 0. -1.
         -2    1    1    2    0  503  0.18337025577E+02 -0.13817785614E+02  0.16464511986E+02  0.28253457509E+02  0.00000000000E+00 0.  1.
<mgrwt>
<rscale>  2 0.22960351E+02</rscale>
<asrwt>0</asrwt>
<pdfrwt beam="1">  1       21 0.10518705E-01 0.22960351E+02</pdfrwt>
<pdfrwt beam="2">  1       21 0.13475053E-02 0.22960351E+02</pdfrwt>
<totfact> 0.11700478E+08</totfact>
</mgrwt>
</event>
<event>
 4    1  0.7151341E+004  0.2039747E+02  0.7546771E-02  0.1737537E+00
         21   -1    0    0  501  502  0.00000000000E+00  0.00000000000E+00  0.40908510986E+02  0.40908510986E+02  0.00000000000E+00 0. -1.
         21   -1    0    0  502  503 -0.00000000000E+00 -0.00000000000E+00 -0.11350648023E+02  0.11350648023E+02  0.00000000000E+00 0. -1.
          5    1    1    2  501    0 -0.17054475328E+02  0.11189359894E+02  0.63532641062E+01  0.21364008715E+02  0.00000000000E+00 0. -1.
         -5    1    1    2    0  503  0.17054475328E+02 -0.11189359894E+02  0.23204598857E+02  0.30895150294E+02  0.00000000000E+00 0.  1.
<mgrwt>
<rscale>  2 0.20397473E+02</rscale>
<asrwt>0</asrwt>
<pdfrwt beam="1">  1       21 0.62936170E-02 0.20397473E+02</pdfrwt>
<pdfrwt beam="2">  1       21 0.17462536E-02 0.20397473E+02</pdfrwt>
<totfact> 0.17590191E+08</totfact>
</mgrwt>
</event>
<event>
 4    1  0.7151341E+004  0.2744563E+02  0.7546771E-02  0.1628171E+00
         21   -1    0    0  501  502  0.00000000000E+00  0.00000000000E+00  0.68603930185E+01  0.68603930185E+01  0.00000000000E+00 0. -1.
         21   -1    0    0  502  503 -0.00000000000E+00 -0.00000000000E+00 -0.12353618452E+03  0.12353618452E+03  0.00000000000E+00 0. -1.
          3    1    1    2  501    0  0.27411397015E+02  0.13704076643E+01 -0.80079502369E+02  0.84652167150E+02  0.00000000000E+00 0. -1.
         -3    1    1    2    0  503 -0.27411397015E+02 -0.13704076643E+01 -0.36596289130E+02  0.45744410386E+02  0.00000000000E+00 0.  1.
<mgrwt>
<rscale>  2 0.27445632E+02</rscale>
<asrwt>0</asrwt>
<pdfrwt beam="1">  1       21 0.10554452E-02 0.27445632E+02</pdfrwt>
<pdfrwt beam="2">  1       21 0.19005565E-01 0.27445632E+02</pdfrwt>
<totfact> 0.64830422E+07</totfact>
</mgrwt>
</event>
<event>
 4    1  0.7151341E+004  0.2721294E+02  0.7546771E-02  0.1631111E+00
         21   -1    0    0  503  502  0.00000000000E+00  0.00000000000E+00  0.68627183257E+01  0.68627183257E+01  0.00000000000E+00 0.  1.
         21   -1    0    0  501  503 -0.00000000000E+00 -0.00000000000E+00 -0.14208453330E+03  0.14208453330E+03  0.00000000000E+00 0.  1.
          4    1    1    2  501    0  0.42207312007E+01  0.26883624963E+02 -0.10413602051E+03  0.10763296257E+03  0.00000000000E+00 0. -1.
         -4    1    1    2    0  502 -0.42207312007E+01 -0.26883624963E+02 -0.31085794461E+02  0.41314289056E+02  0.00000000000E+00 0.  1.
<mgrwt>
<rscale>  2 0.27212936E+02</rscale>
<asrwt>0</asrwt>
<pdfrwt beam="1">  1       21 0.10558028E-02 0.27212936E+02</pdfrwt>
<pdfrwt beam="2">  1       21 0.21859159E-01 0.27212936E+02</pdfrwt>
<totfact> 0.50550869E+07</totfact>
</mgrwt>
</event>
<event>
 4    1  0.7151341E+004  0.2148286E+02  0.7546771E-02  0.1717352E+00
         21   -1    0    0  503  502  0.00000000000E+00  0.00000000000E+00  0.98415735199E+02  0.98415735199E+02  0.00000000000E+00 0. -1.
         21   -1    0    0  501  503 -0.00000000000E+00 -0.00000000000E+00 -0.70583425844E+01  0.70583425844E+01  0.00000000000E+00 0. -1.
          4    1    1    2  501    0 -0.18701037207E+02  0.10572825604E+02  0.76230660815E+02  0.79199918448E+02  0.00000000000E+00 0. -1.
         -4    1    1    2    0  502  0.18701037207E+02 -0.10572825604E+02  0.15126731799E+02  0.26274159335E+02  0.00000000000E+00 0.  1.
<mgrwt>
<rscale>  2 0.21482864E+02</rscale>
<asrwt>0</asrwt>
<pdfrwt beam="1">  1       21 0.15140881E-01 0.21482864E+02</pdfrwt>
<pdfrwt beam="2">  1       21 0.10858989E-02 0.21482864E+02</pdfrwt>
<totfact> 0.86269188E+07</totfact>
</mgrwt>
</event>
<event>
 4    1  0.7151341E+004  0.2470102E+02  0.7546771E-02  0.1665334E+00
         21   -1    0    0  503  502  0.00000000000E+00  0.00000000000E+00  0.13068281320E+03  0.13068281320E+03  0.00000000000E+00 0. -1.
         21   -1    0    0  501  503 -0.00000000000E+00 -0.00000000000E+00 -0.10374613337E+02  0.10374613337E+02  0.00000000000E+00 0. -1.
          2    1    1    2  501    0 -0.17306496693E+02 -0.17624572734E+02  0.78499301339E+01  0.25918367907E+02  0.00000000000E+00 0. -1.
         -2    1    1    2    0  502  0.17306496693E+02  0.17624572734E+02  0.11245826973E+03  0.11513905863E+03  0.00000000000E+00 0.  1.
<mgrwt>
<rscale>  2 0.24701020E+02</rscale>
<asrwt>0</asrwt>
<pdfrwt beam="1">  1       21 0.20105047E-01 0.24701020E+02</pdfrwt>
<pdfrwt beam="2">  1       21 0.15960945E-02 0.24701020E+02</pdfrwt>
<totfact> 0.30593249E+07</totfact>
</mgrwt>
</event>
<event>
 4    1  0.7151341E+004  0.2071103E+02  0.7546771E-02  0.1731547E+00
         21   -1    0    0  503  502  0.00000000000E+00  0.00000000000E+00  0.80711775190E+01  0.80711775190E+01  0.00000000000E+00 0. -1.
         21   -1    0    0  501  503 -0.00000000000E+00 -0.00000000000E+00 -0.94882927381E+02  0.94882927381E+02  0.00000000000E+00 0. -1.
          2    1    1    2  501    0  0.18857253206E+02 -0.85645140185E+01 -0.77547358248E+02  0.80265432598E+02  0.00000000000E+00 0. -1.
         -2    1    1    2    0  502 -0.18857253206E+02  0.85645140185E+01 -0.92643916138E+01  0.22688672302E+02  0.00000000000E+00 0.  1.
<mgrwt>
<rscale>  2 0.20711033E+02</rscale>
<asrwt>0</asrwt>
<pdfrwt beam="1">  1       21 0.12417196E-02 0.20711033E+02</pdfrwt>
<pdfrwt beam="2">  1       21 0.14597373E-01 0.20711033E+02</pdfrwt>
<totfact> 0.74265718E+07</totfact>
</mgrwt>
</event>
<event>
 4    1  0.7151341E+004  0.6038548E+02  0.7546771E-02  0.1396221E+00
         21   -1    0    0  503  502  0.00000000000E+00  0.00000000000E+00  0.28980682861E+02  0.28980682861E+02  0.00000000000E+00 0.  1.
         21   -1    0    0  501  503 -0.00000000000E+00 -0.00000000000E+00 -0.14248208044E+03  0.14248208044E+03  0.00000000000E+00 0.  1.
          3    1    1    2  501    0 -0.22531897129E+02 -0.56024283676E+02 -0.86066284396E+02  0.10513711076E+03  0.00000000000E+00 0.  1.
         -3    1    1    2    0  502  0.22531897129E+02  0.56024283676E+02 -0.27435113187E+02  0.66325652543E+02  0.00000000000E+00 0. -1.
<mgrwt>
<rscale>  2 0.60385485E+02</rscale>
<asrwt>0</asrwt>
<pdfrwt beam="1">  1       21 0.44585666E-02 0.60385485E+02</pdfrwt>
<pdfrwt beam="2">  1       21 0.21920320E-01 0.60385485E+02</pdfrwt>
<totfact> 0.59150549E+06</totfact>
</mgrwt>
</event>
<event>
 4    1  0.7151341E+004  0.2034556E+02  0.7546771E-02  0.1738542E+00
         21   -1    0    0  501  502  0.00000000000E+00  0.00000000000E+00  0.36759025600E+02  0.36759025600E+02  0.00000000000E+00 0. -1.
         21   -1    0    0  502  503 -0.00000000000E+00 -0.00000000000E+00 -0.12975142249E+02  0.12975142249E+02  0.00000000000E+00 0. -1.
          1    1    1    2  501    0  0.15852744809E+02 -0.12752738838E+02  0.20930464705E+02  0.29189488153E+02  0.00000000000E+00 0.  1.
         -1    1    1    2    0  503 -0.15852744809E+02  0.12752738838E+02  0.28534186462E+01  0.20544679697E+02  0.00000000000E+00 0. -1.
<mgrwt>
<rscale>  2 0.20345561E+02</rscale>
<asrwt>0</asrwt>
<pdfrwt beam="1">  1       21 0.56552347E-02 0.20345561E+02</pdfrwt>
<pdfrwt beam="2">  1       21 0.19961757E-02 0.20345561E+02</pdfrwt>
<totfact> 0.17006781E+08</totfact>
</mgrwt>
</event>
<event>
 4    1  0.7151341E+004  0.2357600E+02  0.7546771E-02  0.1682340E+00
         21   -1    0    0  501  502  0.00000000000E+00  0.00000000000E+00  0.11139397961E+02  0.11139397961E+02  0.00000000000E+00 0. -1.
         21   -1    0    0  502  503 -0.00000000000E+00 -0.00000000000E+00 -0.53576201528E+02  0.53576201528E+02  0.00000000000E+00 0. -1.
          2    1    1    2  501    0 -0.14410085339E+02  0.18659501116E+02 -0.12739427631E+02  0.26797771507E+02  0.00000000000E+00 0.  1.
         -2    1    1    2    0  503  0.14410085339E+02 -0.18659501116E+02 -0.29697375937E+02  0.37917827983E+02  0.00000000000E+00 0. -1.
<mgrwt>
<rscale>  2 0.23575995E+02</rscale>
<asrwt>0</asrwt>
<pdfrwt beam="1">  1       21 0.17137535E-02 0.23575995E+02</pdfrwt>
<pdfrwt beam="2">  1       21 0.82424926E-02 0.23575995E+02</pdfrwt>
<totfact> 0.12223110E+08</totfact>
</mgrwt>
</event>
<event>
 4    1  0.7151341E+004  0.2023179E+02  0.7546771E-02  0.1740758E+00
         21   -1    0    0  503  502  0.00000000000E+00  0.00000000000E+00  0.16226501512E+02  0.16226501512E+02  0.00000000000E+00 0.  1.
         21   -1    0    0  501  503 -0.00000000000E+00 -0.00000000000E+00 -0.25450789449E+02  0.25450789449E+02  0.00000000000E+00 0.  1.
          5    1    1    2  501    0 -0.12072584615E+02  0.16235083767E+02 -0.26525164298E+01  0.20404928023E+02  0.00000000000E+00 0.  1.
         -5    1    1    2    0  502  0.12072584615E+02 -0.16235083767E+02 -0.65717715067E+01  0.21272362938E+02  0.00000000000E+00 0. -1.
<mgrwt>
<rscale>  2 0.20231788E+02</rscale>
<asrwt>0</asrwt>
<pdfrwt beam="1">  1       21 0.24963849E-02 0.20231788E+02</pdfrwt>
<pdfrwt beam="2">  1       21 0.39155061E-02 0.20231788E+02</pdfrwt>
<totfact> 0.21536002E+08</totfact>
</mgrwt>
</event>
<event>
 4    1  0.7151341E+004  0.3205305E+02  0.7546771E-02  0.1576444E+00
         21   -1    0    0  501  502  0.00000000000E+00  0.00000000000E+00  0.39554480178E+02  0.39554480178E+02  0.00000000000E+00 0.  1.
         21   -1    0    0  502  503 -0.00000000000E+00 -0.00000000000E+00 -0.31933515297E+02  0.31933515297E+02  0.00000000000E+00 0.  1.
          4    1    1    2  501    0 -0.27460697902E+02  0.16532026116E+02 -0.11630546904E+02  0.34097909585E+02  0.00000000000E+00 0.  1.
         -4    1    1    2    0  503  0.27460697902E+02 -0.16532026116E+02  0.19251511785E+02  0.37390085889E+02  0.00000000000E+00 0. -1.
<mgrwt>
<rscale>  2 0.32053047E+02</rscale>
<asrwt>0</asrwt>
<pdfrwt beam="1">  1       21 0.60853047E-02 0.32053047E+02</pdfrwt>
<pdfrwt beam="2">  1       21 0.49128485E-02 0.32053047E+02</pdfrwt>
<totfact> 0.41545326E+07</totfact>
</mgrwt>
</event>
<event>
 4    1  0.7151341E+004  0.2862305E+02  0.7546771E-02  0.1613827E+00
         21   -1    0    0  503  502  0.00000000000E+00  0.00000000000E+00  0.34262148998E+02  0.34262148998E+02  0.00000000000E+00 0. -1.
         21   -1    0    0  501  503 -0.00000000000E+00 -0.00000000000E+00 -0.24330343793E+02  0.24330343793E+02  0.00000000000E+00 0. -1.
          5    1    1    2  501    0 -0.21488568636E+02  0.18908202851E+02  0.11246662136E+01  0.28645132068E+02  0.00000000000E+00 0. -1.
         -5    1    1    2    0  502  0.21488568636E+02 -0.18908202851E+02  0.88071389909E+01  0.29947360723E+02  0.00000000000E+00 0.  1.
<mgrwt>
<rscale>  2 0.28623045E+02</rscale>
<asrwt>0</asrwt>
<pdfrwt beam="1">  1       21 0.52710999E-02 0.28623045E+02</pdfrwt>
<pdfrwt beam="2">  1       21 0.37431298E-02 0.28623045E+02</pdfrwt>
<totfact> 0.78895201E+07</totfact>
</mgrwt>
</event>
<event>
 4    1  0.7151341E+004  0.2581484E+02  0.7546771E-02  0.1649567E+00
         21   -1    0    0  503  502  0.00000000000E+00  0.00000000000E+00  0.19642562448E+04  0.19642562448E+04  0.00000000000E+00 0. -1.
         21   -1    0    0  501  503 -0.00000000000E+00 -0.00000000000E+00 -0.33946785413E+00  0.33946785413E+00  0.00000000000E+00 0. -1.
          4    1    1    2  501    0  0.22758343638E+02  0.12184576861E+02  0.95802818149E+03  0.95837591927E+03  0.00000000000E+00 0. -1.
         -4    1    1    2    0  502 -0.22758343638E+02 -0.12184576861E+02  0.10058885955E+04  0.10062197934E+04  0.00000000000E+00 0.  1.
<mgrwt>
<rscale>  2 0.25814843E+02</rscale>
<asrwt>0</asrwt>
<pdfrwt beam="1">  1       21 0.30218417E+00 0.25814843E+02</pdfrwt>
<pdfrwt beam="2">  1       21 0.52227397E-04 0.25814843E+02</pdfrwt>
<totfact> 0.11943656E+07</totfact>
</mgrwt>
</event>
<event>
 4    1  0.7151341E+004  0.3335910E+02  0.7546771E-02  0.1563674E+00
         21   -1    0    0  503  502  0.00000000000E+00  0.00000000000E+00  0.78229889973E+00  0.78229889973E+00  0.00000000000E+00 0. -1.
         21   -1    0    0  501  503 -0.00000000000E+00 -0.00000000000E+00 -0.14406586162E+04  0.14406586162E+04  0.00000000000E+00 0. -1.
          5    1    1    2  501    0  0.32905625888E+02 -0.54817185096E+01 -0.63904981081E+03  0.63991990917E+03  0.00000000000E+00 0. -1.
         -5    1    1    2    0  502 -0.32905625888E+02  0.54817185096E+01 -0.80082650646E+03  0.80152100590E+03  0.00000000000E+00 0.  1.
<mgrwt>
<rscale>  2 0.33359099E+02</rscale>
<asrwt>0</asrwt>
<pdfrwt beam="1">  1       21 0.12035458E-03 0.33359099E+02</pdfrwt>
<pdfrwt beam="2">  1       21 0.22163813E+00 0.33359099E+02</pdfrwt>
<totfact> 0.93955536E+06</totfact>
</mgrwt>
</event>
<event>
 4    1  0.7151341E+004  0.2118920E+02  0.7546771E-02  0.1722664E+00
         21   -1    0    0  501  502  0.00000000000E+00  0.00000000000E+00  0.23157781641E+01  0.23157781641E+01  0.00000000000E+00 0.  1.
         21   -1    0    0  502  503 -0.00000000000E+00 -0.00000000000E+00 -0.24906948042E+03  0.24906948042E+03  0.00000000000E+00 0.  1.
          1    1    1    2  501    0  0.29444747354E+00 -0.21187153765E+02 -0.18254380524E+03  0.18376948336E+03  0.00000000000E+00 0. -1.
         -1    1    1    2    0  503 -0.29444747354E+00  0.21187153765E+02 -0.64209897020E+02  0.67615775226E+02  0.00000000000E+00 0.  1.
<mgrwt>
<rscale>  2 0.21189200E+02</rscale>
<asrwt>0</asrwt>
<pdfrwt beam="1">  1       21 0.35627353E-03 0.21189200E+02</pdfrwt>
<pdfrwt beam="2">  1       21 0.38318385E-01 0.21189200E+02</pdfrwt>
<totfact> 0.86039218E+07</totfact>
</mgrwt>
</event>
<event>
 4    1  0.7151341E+004  0.4010265E+02  0.7546771E-02  0.1507457E+00
         21   -1    0    0  503  502  0.00000000000E+00  0.00000000000E+00  0.31590644558E+01  0.31590644558E+01  0.00000000000E+00 0.  1.
         21   -1    0    0  501  503 -0.00000000000E+00 -0.00000000000E+00 -0.55724568147E+03  0.55724568147E+03  0.00000000000E+00 0.  1.
          1    1    1    2  501    0 -0.43510450427E+01 -0.39865916965E+02 -0.19466588950E+03  0.19875369547E+03  0.00000000000E+00 0.  1.
         -1    1    1    2    0  502  0.43510450427E+01  0.39865916965E+02 -0.35942072751E+03  0.36165105045E+03  0.00000000000E+00 0. -1.
<mgrwt>
<rscale>  2 0.40102655E+02</rscale>
<asrwt>0</asrwt>
<pdfrwt beam="1">  1       21 0.48601006E-03 0.40102655E+02</pdfrwt>
<pdfrwt beam="2">  1       21 0.85730079E-01 0.40102655E+02</pdfrwt>
<totfact> 0.12174515E+07</totfact>
</mgrwt>
</event>
<event>
 4    1  0.7151341E+004  0.2954676E+02  0.7546771E-02  0.1603153E+00
         21   -1    0    0  503  502  0.00000000000E+00  0.00000000000E+00  0.58582435487E+02  0.58582435487E+02  0.00000000000E+00 0. -1.
         21   -1    0    0  501  503 -0.00000000000E+00 -0.00000000000E+00 -0.15155678134E+02  0.15155678134E+02  0.00000000000E+00 0. -1.
          1    1    1    2  501    0  0.20271887021E+02  0.21495612999E+02  0.26480890445E+02  0.39676798514E+02  0.00000000000E+00 0. -1.
         -1    1    1    2    0  502 -0.20271887021E+02 -0.21495612999E+02  0.16945866908E+02  0.34061315108E+02  0.00000000000E+00 0.  1.
<mgrwt>
<rscale>  2 0.29546756E+02</rscale>
<asrwt>0</asrwt>
<pdfrwt beam="1">  1       21 0.90126822E-02 0.29546756E+02</pdfrwt>
<pdfrwt beam="2">  1       21 0.23316428E-02 0.29546756E+02</pdfrwt>
<totfact> 0.69609745E+07</totfact>
</mgrwt>
</event>
<event>
 4    1  0.7151341E+004  0.2022733E+02  0.7546771E-02  0.1740845E+00
         21   -1    0    0  503  502  0.00000000000E+00  0.00000000000E+00  0.25221258600E+03  0.25221258600E+03  0.00000000000E+00 0. -1.
         21   -1    0    0  501  503 -0.00000000000E+00 -0.00000000000E+00 -0.29872511471E+01  0.29872511471E+01  0.00000000000E+00 0. -1.
          3    1    1    2  501    0  0.17940208435E+02  0.93431161278E+01  0.21086789660E+03  0.21183582018E+03  0.00000000000E+00 0.  1.
         -3    1    1    2    0  502 -0.17940208435E+02 -0.93431161278E+01  0.38357438258E+02  0.43364016965E+02  0.00000000000E+00 0. -1.
<mgrwt>
<rscale>  2 0.20227330E+02</rscale>
<asrwt>0</asrwt>
<pdfrwt beam="1">  1       21 0.38801920E-01 0.20227330E+02</pdfrwt>
<pdfrwt beam="2">  1       21 0.45957730E-03 0.20227330E+02</pdfrwt>
<totfact> 0.57225919E+07</totfact>
</mgrwt>
</event>
<event>
 4    1  0.7151341E+004  0.2805320E+02  0.7546771E-02  0.1620662E+00
         21   -1    0    0  501  502  0.00000000000E+00  0.00000000000E+00  0.21761443403E+02  0.21761443403E+02  0.00000000000E+00 0.  1.
         21   -1    0    0  502  503 -0.00000000000E+00 -0.00000000000E+00 -0.36710560536E+02  0.36710560536E+02  0.00000000000E+00 0.  1.
          2    1    1    2  501    0 -0.16581507870E+02 -0.22628203714E+02 -0.11041699735E+02  0.30147987323E+02  0.00000000000E+00 0.  1.
         -2    1    1    2    0  503  0.16581507870E+02  0.22628203714E+02 -0.39074173985E+01  0.28324016617E+02  0.00000000000E+00 0. -1.
<mgrwt>
<rscale>  2 0.28053200E+02</rscale>
<asrwt>0</asrwt>
<pdfrwt beam="1">  1       21 0.33479144E-02 0.28053200E+02</pdfrwt>
<pdfrwt beam="2">  1       21 0.56477785E-02 0.28053200E+02</pdfrwt>
<totfact> 0.83772771E+07</totfact>
</mgrwt>
</event>
<event>
 4    1  0.7151341E+004  0.2065678E+02  0.7546771E-02  0.1732574E+00
         21   -1    0    0  503  502  0.00000000000E+00  0.00000000000E+00  0.17326257165E+01  0.17326257165E+01  0.00000000000E+00 0.  1.
         21   -1    0    0  501  503 -0.00000000000E+00 -0.00000000000E+00 -0.29566056799E+03  0.29566056799E+03  0.00000000000E+00 0.  1.
          2    1    1    2  501    0 -0.14199076212E+02  0.15002956334E+02 -0.20773606298E+03  0.20876056699E+03  0.00000000000E+00 0.  1.
         -2    1    1    2    0  502  0.14199076212E+02 -0.15002956334E+02 -0.86191879288E+02  0.88632626720E+02  0.00000000000E+00 0. -1.
<mgrwt>
<rscale>  2 0.20656778E+02</rscale>
<asrwt>0</asrwt>
<pdfrwt beam="1">  1       21 0.26655764E-03 0.20656778E+02</pdfrwt>
<pdfrwt beam="2">  1       21 0.45486269E-01 0.20656778E+02</pdfrwt>
<totfact> 0.94248923E+07</totfact>
</mgrwt>
</event>
<event>
 4    1  0.7151341E+004  0.2031348E+02  0.7546771E-02  0.1739165E+00
         21   -1    0    0  501  502  0.00000000000E+00  0.00000000000E+00  0.36404847430E+03  0.36404847430E+03  0.00000000000E+00 0.  1.
         21   -1    0    0  502  503 -0.00000000000E+00 -0.00000000000E+00 -0.13765260107E+01  0.13765260107E+01  0.00000000000E+00 0.  1.
          2    1    1    2  501    0  0.13843510910E+02  0.14865886267E+02  0.10455902686E+03  0.10651397780E+03  0.00000000000E+00 0. -1.
         -2    1    1    2    0  503 -0.13843510910E+02 -0.14865886267E+02  0.25811292143E+03  0.25891102251E+03  0.00000000000E+00 0.  1.
<mgrwt>
<rscale>  2 0.20313478E+02</rscale>
<asrwt>0</asrwt>
<pdfrwt beam="1">  1       21 0.56007381E-01 0.20313478E+02</pdfrwt>
<pdfrwt beam="2">  1       21 0.21177352E-03 0.20313478E+02</pdfrwt>
<totfact> 0.87413000E+07</totfact>
</mgrwt>
</event>
<event>
 4    1  0.7151341E+004  0.2181485E+02  0.7546771E-02  0.1711474E+00
         21   -1    0    0  503  502  0.00000000000E+00  0.00000000000E+00  0.11481100505E+01  0.11481100505E+01  0.00000000000E+00 0.  1.
         21   -1    0    0  501  503 -0.00000000000E+00 -0.00000000000E+00 -0.44869737725E+03  0.44869737725E+03  0.00000000000E+00 0.  1.
          3    1    1    2  501    0 -0.11005548159E+02 -0.18835225052E+02 -0.28587213827E+03  0.28670327385E+03  0.00000000000E+00 0. -1.
         -3    1    1    2    0  502  0.11005548159E+02  0.18835225052E+02 -0.16167712893E+03  0.16314221346E+03  0.00000000000E+00 0.  1.
<mgrwt>
<rscale>  2 0.21814853E+02</rscale>
<asrwt>0</asrwt>
<pdfrwt beam="1">  1       21 0.17663241E-03 0.21814853E+02</pdfrwt>
<pdfrwt beam="2">  1       21 0.69030328E-01 0.21814853E+02</pdfrwt>
<totfact> 0.76036215E+07</totfact>
</mgrwt>
</event>
<event>
 4    1  0.7151341E+004  0.2042354E+02  0.7546771E-02  0.1737034E+00
         21   -1    0    0  501  502  0.00000000000E+00  0.00000000000E+00  0.26966894937E+00  0.26966894937E+00  0.00000000000E+00 0.  1.
         21   -1    0    0  502  503 -0.00000000000E+00 -0.00000000000E+00 -0.16091691960E+04  0.16091691960E+04  0.00000000000E+00 0.  1.
          4    1    1    2  501    0  0.51515370635E+01  0.19763166759E+02 -0.64600958465E+03  0.64633234838E+03  0.00000000000E+00 0.  1.
         -4    1    1    2    0  503 -0.51515370635E+01 -0.19763166759E+02 -0.96288994235E+03  0.96310651653E+03  0.00000000000E+00 0. -1.
<mgrwt>
<rscale>  2 0.20423543E+02</rscale>
<asrwt>0</asrwt>
<pdfrwt beam="1">  1       21 0.41488178E-04 0.20423543E+02</pdfrwt>
<pdfrwt beam="2">  1       21 0.24756063E+00 0.20423543E+02</pdfrwt>
<totfact> 0.29914578E+07</totfact>
</mgrwt>
</event>
<event>
 4    1  0.7151341E+004  0.2237763E+02  0.7546771E-02  0.1701802E+00
         21   -1    0    0  503  502  0.00000000000E+00  0.00000000000E+00  0.18717141007E+02  0.18717141007E+02  0.00000000000E+00 0.  1.
         21   -1    0    0  501  503 -0.00000000000E+00 -0.00000000000E+00 -0.41009088162E+02  0.41009088162E+02  0.00000000000E+00 0.  1.
          3    1    1    2  501    0  0.14922873956E+02  0.16675312276E+02  0.64608149370E+01  0.23291636616E+02  0.00000000000E+00 0. -1.
         -3    1    1    2    0  502 -0.14922873956E+02 -0.16675312276E+02 -0.28752762092E+02  0.36434592553E+02  0.00000000000E+00 0.  1.
<mgrwt>
<rscale>  2 0.22377627E+02</rscale>
<asrwt>0</asrwt>
<pdfrwt beam="1">  1       21 0.28795601E-02 0.22377627E+02</pdfrwt>
<pdfrwt beam="2">  1       21 0.63090905E-02 0.22377627E+02</pdfrwt>
<totfact> 0.83539316E+07</totfact>
</mgrwt>
</event>
<event>
 4    1  0.7151341E+004  0.2091388E+02  0.7546771E-02  0.1727742E+00
         21   -1    0    0  503  502  0.00000000000E+00  0.00000000000E+00  0.76934349047E+02  0.76934349047E+02  0.00000000000E+00 0. -1.
         21   -1    0    0  501  503 -0.00000000000E+00 -0.00000000000E+00 -0.56874155286E+01  0.56874155286E+01  0.00000000000E+00 0. -1.
          1    1    1    2  501    0 -0.19816409571E+02 -0.66858378612E+01  0.36430755503E+02  0.42007028730E+02  0.00000000000E+00 0. -1.
         -1    1    1    2    0  502  0.19816409571E+02  0.66858378612E+01  0.34816178015E+02  0.40614735845E+02  0.00000000000E+00 0.  1.
<mgrwt>
<rscale>  2 0.20913883E+02</rscale>
<asrwt>0</asrwt>
<pdfrwt beam="1">  1       21 0.11836053E-01 0.20913883E+02</pdfrwt>
<pdfrwt beam="2">  1       21 0.87498706E-03 0.20913883E+02</pdfrwt>
<totfact> 0.17892067E+08</totfact>
</mgrwt>
</event>
<event>
 4    1  0.7151341E+004  0.2248580E+02  0.7546771E-02  0.1699983E+00
         21   -1    0    0  501  502  0.00000000000E+00  0.00000000000E+00  0.83102825251E+01  0.83102825251E+01  0.00000000000E+00 0.  1.
         21   -1    0    0  502  503 -0.00000000000E+00 -0.00000000000E+00 -0.60938566636E+02  0.60938566636E+02  0.00000000000E+00 0.  1.
          2    1    1    2  501    0  0.21489044378E+02 -0.66205779471E+01 -0.24933137975E+02  0.33574878256E+02  0.00000000000E+00 0. -1.
         -2    1    1    2    0  503 -0.21489044378E+02  0.66205779471E+01 -0.27695146136E+02  0.35673970905E+02  0.00000000000E+00 0.  1.
<mgrwt>
<rscale>  2 0.22485797E+02</rscale>
<asrwt>0</asrwt>
<pdfrwt beam="1">  1       21 0.12785050E-02 0.22485797E+02</pdfrwt>
<pdfrwt beam="2">  1       21 0.93751642E-02 0.22485797E+02</pdfrwt>
<totfact> 0.15228712E+08</totfact>
</mgrwt>
</event>
<event>
 4    1  0.7151341E+004  0.2059459E+02  0.7546771E-02  0.1733756E+00
         21   -1    0    0  501  502  0.00000000000E+00  0.00000000000E+00  0.28486343782E+02  0.28486343782E+02  0.00000000000E+00 0. -1.
         21   -1    0    0  502  503 -0.00000000000E+00 -0.00000000000E+00 -0.21139005875E+02  0.21139005875E+02  0.00000000000E+00 0. -1.
          4    1    1    2  501    0  0.19527539889E+02 -0.65430996766E+01  0.17165375569E+02  0.26810204884E+02  0.00000000000E+00 0.  1.
         -4    1    1    2    0  503 -0.19527539889E+02  0.65430996766E+01 -0.98180376620E+01  0.22815144774E+02  0.00000000000E+00 0. -1.
<mgrwt>
<rscale>  2 0.20594586E+02</rscale>
<asrwt>0</asrwt>
<pdfrwt beam="1">  1       21 0.43825144E-02 0.20594586E+02</pdfrwt>
<pdfrwt beam="2">  1       21 0.32521548E-02 0.20594586E+02</pdfrwt>
<totfact> 0.12051822E+08</totfact>
</mgrwt>
</event>
<event>
 4    1  0.7151341E+004  0.4180694E+02  0.7546771E-02  0.1495320E+00
         21   -1    0    0  501  502  0.00000000000E+00  0.00000000000E+00  0.62323369647E+02  0.62323369647E+02  0.00000000000E+00 0.  1.
         21   -1    0    0  502  503 -0.00000000000E+00 -0.00000000000E+00 -0.30512242141E+02  0.30512242141E+02  0.00000000000E+00 0.  1.
          3    1    1    2  501    0 -0.36195854802E+02 -0.20920812789E+02  0.27045305835E+01  0.41894328951E+02  0.00000000000E+00 0. -1.
         -3    1    1    2    0  503  0.36195854802E+02  0.20920812789E+02  0.29106596923E+02  0.50941282837E+02  0.00000000000E+00 0.  1.
<mgrwt>
<rscale>  2 0.41806941E+02</rscale>
<asrwt>0</asrwt>
<pdfrwt beam="1">  1       21 0.95882107E-02 0.41806941E+02</pdfrwt>
<pdfrwt beam="2">  1       21 0.46941911E-02 0.41806941E+02</pdfrwt>
<totfact> 0.22110242E+07</totfact>
</mgrwt>
</event>
<event>
 4    1  0.7151341E+004  0.2854477E+02  0.7546771E-02  0.1614755E+00
         21   -1    0    0  503  502  0.00000000000E+00  0.00000000000E+00  0.68620421599E+03  0.68620421599E+03  0.00000000000E+00 0.  1.
         21   -1    0    0  501  503 -0.00000000000E+00 -0.00000000000E+00 -0.12702439699E+01  0.12702439699E+01  0.00000000000E+00 0.  1.
          5    1    1    2  501    0 -0.21206562143E+02 -0.19107218542E+02  0.43024659030E+03  0.43119245418E+03  0.00000000000E+00 0. -1.
         -5    1    1    2    0  502  0.21206562143E+02  0.19107218542E+02  0.25468738172E+03  0.25628200578E+03  0.00000000000E+00 0.  1.
<mgrwt>
<rscale>  2 0.28544773E+02</rscale>
<asrwt>0</asrwt>
<pdfrwt beam="1">  1       21 0.10556958E+00 0.28544773E+02</pdfrwt>
<pdfrwt beam="2">  1       21 0.19542270E-03 0.28544773E+02</pdfrwt>
<totfact> 0.28098265E+07</totfact>
</mgrwt>
</event>
<event>
 4    1  0.7151341E+004  0.2037744E+02  0.7546771E-02  0.1737925E+00
         21   -1    0    0  503  502  0.00000000000E+00  0.00000000000E+00  0.51998628317E+01  0.51998628317E+01  0.00000000000E+00 0. -1.
         21   -1    0    0  501  503 -0.00000000000E+00 -0.00000000000E+00 -0.84750562948E+02  0.84750562948E+02  0.00000000000E+00 0. -1.
          3    1    1    2  501    0  0.88918489754E+01  0.18335078259E+02 -0.50583724202E+02  0.54533963978E+02  0.00000000000E+00 0. -1.
         -3    1    1    2    0  502 -0.88918489754E+01 -0.18335078259E+02 -0.28966975914E+02  0.35416461802E+02  0.00000000000E+00 0.  1.
<mgrwt>
<rscale>  2 0.20377440E+02</rscale>
<asrwt>0</asrwt>
<pdfrwt beam="1">  1       21 0.79997894E-03 0.20377440E+02</pdfrwt>
<pdfrwt beam="2">  1       21 0.13038547E-01 0.20377440E+02</pdfrwt>
<totfact> 0.17254246E+08</totfact>
</mgrwt>
</event>
<event>
 4    1  0.7151341E+004  0.2121884E+02  0.7546771E-02  0.1722123E+00
         21   -1    0    0  503  502  0.00000000000E+00  0.00000000000E+00  0.17589832406E+02  0.17589832406E+02  0.00000000000E+00 0. -1.
         21   -1    0    0  501  503 -0.00000000000E+00 -0.00000000000E+00 -0.25606997877E+02  0.25606997877E+02  0.00000000000E+00 0. -1.
          1    1    1    2  501    0  0.17190061306E+02 -0.12439488548E+02 -0.35723808026E+01  0.21517457741E+02  0.00000000000E+00 0. -1.
         -1    1    1    2    0  502 -0.17190061306E+02  0.12439488548E+02 -0.44447846682E+01  0.21679372542E+02  0.00000000000E+00 0.  1.
<mgrwt>
<rscale>  2 0.21218838E+02</rscale>
<asrwt>0</asrwt>
<pdfrwt beam="1">  1       21 0.27061281E-02 0.21218838E+02</pdfrwt>
<pdfrwt beam="2">  1       21 0.39395381E-02 0.21218838E+02</pdfrwt>
<totfact> 0.19126740E+08</totfact>
</mgrwt>
</event>
<event>
 4    1  0.7151341E+004  0.2431320E+02  0.7546771E-02  0.1671067E+00
         21   -1    0    0  501  502  0.00000000000E+00  0.00000000000E+00  0.11908610808E+03  0.11908610808E+03  0.00000000000E+00 0. -1.
         21   -1    0    0  502  503 -0.00000000000E+00 -0.00000000000E+00 -0.60043032100E+01  0.60043032100E+01  0.00000000000E+00 0. -1.
          4    1    1    2  501    0  0.38025777979E+01  0.24013998060E+02  0.82576242992E+02  0.86081168715E+02  0.00000000000E+00 0. -1.
         -4    1    1    2    0  503 -0.38025777979E+01 -0.24013998060E+02  0.30505561877E+02  0.39009242574E+02  0.00000000000E+00 0.  1.
<mgrwt>
<rscale>  2 0.24313200E+02</rscale>
<asrwt>0</asrwt>
<pdfrwt beam="1">  1       21 0.18320938E-01 0.24313200E+02</pdfrwt>
<pdfrwt beam="2">  1       21 0.92373904E-03 0.24313200E+02</pdfrwt>
<totfact> 0.82016745E+07</totfact>
</mgrwt>
</event>
<event>
 4    1  0.7151341E+004  0.3057239E+02  0.7546771E-02  0.1591846E+00
         21   -1    0    0  503  502  0.00000000000E+00  0.00000000000E+00  0.67131398090E+01  0.67131398090E+01  0.00000000000E+00 0. -1.
         21   -1    0    0  501  503 -0.00000000000E+00 -0.00000000000E+00 -0.13950482691E+03  0.13950482691E+03  0.00000000000E+00 0. -1.
          3    1    1    2  501    0 -0.29446902347E+02 -0.82189390088E+01 -0.63151403464E+02  0.70162459875E+02  0.00000000000E+00 0. -1.
         -3    1    1    2    0  502  0.29446902347E+02  0.82189390088E+01 -0.69640283637E+02  0.76055506844E+02  0.00000000000E+00 0.  1.
<mgrwt>
<rscale>  2 0.30572390E+02</rscale>
<asrwt>0</asrwt>
<pdfrwt beam="1">  1       21 0.10327907E-02 0.30572390E+02</pdfrwt>
<pdfrwt beam="2">  1       21 0.21462281E-01 0.30572390E+02</pdfrwt>
<totfact> 0.55408164E+07</totfact>
</mgrwt>
</event>
<event>
 4    1  0.7151341E+004  0.3646393E+02  0.7546771E-02  0.1535972E+00
         21   -1    0    0  503  502  0.00000000000E+00  0.00000000000E+00  0.10495368896E+03  0.10495368896E+03  0.00000000000E+00 0.  1.
         21   -1    0    0  501  503 -0.00000000000E+00 -0.00000000000E+00 -0.13015399440E+02  0.13015399440E+02  0.00000000000E+00 0.  1.
          4    1    1    2  501    0 -0.33166100950E+02 -0.15153480606E+02  0.55597169555E+02  0.66488070277E+02  0.00000000000E+00 0.  1.
         -4    1    1    2    0  502  0.33166100950E+02  0.15153480606E+02  0.36341119969E+02  0.51481018126E+02  0.00000000000E+00 0. -1.
<mgrwt>
<rscale>  2 0.36463930E+02</rscale>
<asrwt>0</asrwt>
<pdfrwt beam="1">  1       21 0.16146721E-01 0.36463930E+02</pdfrwt>
<pdfrwt beam="2">  1       21 0.20023692E-02 0.36463930E+02</pdfrwt>
<totfact> 0.34216524E+07</totfact>
</mgrwt>
</event>
<event>
 4    1  0.7151341E+004  0.2774656E+02  0.7546771E-02  0.1624422E+00
         21   -1    0    0  503  502  0.00000000000E+00  0.00000000000E+00  0.14455840322E+01  0.14455840322E+01  0.00000000000E+00 0. -1.
         21   -1    0    0  501  503 -0.00000000000E+00 -0.00000000000E+00 -0.55492096954E+03  0.55492096954E+03  0.00000000000E+00 0. -1.
          4    1    1    2  501    0  0.27198747243E+02 -0.54863102437E+01 -0.33256997528E+03  0.33372542592E+03  0.00000000000E+00 0. -1.
         -4    1    1    2    0  502 -0.27198747243E+02  0.54863102437E+01 -0.22090541023E+03  0.22264112764E+03  0.00000000000E+00 0.  1.
<mgrwt>
<rscale>  2 0.27746557E+02</rscale>
<asrwt>0</asrwt>
<pdfrwt beam="1">  1       21 0.22239711E-03 0.27746557E+02</pdfrwt>
<pdfrwt beam="2">  1       21 0.85372625E-01 0.27746557E+02</pdfrwt>
<totfact> 0.36840278E+07</totfact>
</mgrwt>
</event>
<event>
 4    1  0.7151341E+004  0.3134179E+02  0.7546771E-02  0.1583714E+00
         21   -1    0    0  501  502  0.00000000000E+00  0.00000000000E+00  0.18978787391E+01  0.18978787391E+01  0.00000000000E+00 0. -1.
         21   -1    0    0  502  503 -0.00000000000E+00 -0.00000000000E+00 -0.74758564622E+03  0.74758564622E+03  0.00000000000E+00 0. -1.
          1    1    1    2  501    0 -0.28216116310E+02 -0.13644000550E+02 -0.16498483757E+03  0.16793541794E+03  0.00000000000E+00 0.  1.
         -1    1    1    2    0  503  0.28216116310E+02  0.13644000550E+02 -0.58070292992E+03  0.58154810702E+03  0.00000000000E+00 0. -1.
<mgrwt>
<rscale>  2 0.31341793E+02</rscale>
<asrwt>0</asrwt>
<pdfrwt beam="1">  1       21 0.29198136E-03 0.31341793E+02</pdfrwt>
<pdfrwt beam="2">  1       21 0.11501317E+00 0.31341793E+02</pdfrwt>
<totfact> 0.13065105E+07</totfact>
</mgrwt>
</event>
<event>
 4    1  0.7151341E+004  0.2926927E+02  0.7546771E-02  0.1606309E+00
         21   -1    0    0  503  502  0.00000000000E+00  0.00000000000E+00  0.27420341038E+02  0.27420341038E+02  0.00000000000E+00 0. -1.
         21   -1    0    0  501  503 -0.00000000000E+00 -0.00000000000E+00 -0.31379691862E+02  0.31379691862E+02  0.00000000000E+00 0. -1.
          1    1    1    2  501    0  0.11811772222E+02 -0.26780069552E+02 -0.38322092221E-01  0.29269293753E+02  0.00000000000E+00 0.  1.
         -1    1    1    2    0  502 -0.11811772222E+02  0.26780069552E+02 -0.39210287319E+01  0.29530739146E+02  0.00000000000E+00 0. -1.
<mgrwt>
<rscale>  2 0.29269269E+02</rscale>
<asrwt>0</asrwt>
<pdfrwt beam="1">  1       21 0.42185140E-02 0.29269269E+02</pdfrwt>
<pdfrwt beam="2">  1       21 0.48276449E-02 0.29269269E+02</pdfrwt>
<totfact> 0.75559614E+07</totfact>
</mgrwt>
</event>
<event>
 4    1  0.7151341E+004  0.2384608E+02  0.7546771E-02  0.1678151E+00
         21   -1    0    0  503  502  0.00000000000E+00  0.00000000000E+00  0.55230907131E+02  0.55230907131E+02  0.00000000000E+00 0.  1.
         21   -1    0    0  501  503 -0.00000000000E+00 -0.00000000000E+00 -0.10468802681E+02  0.10468802681E+02  0.00000000000E+00 0.  1.
          3    1    1    2  501    0 -0.19108219652E+01  0.23769400044E+02  0.18155770861E+02  0.29971113336E+02  0.00000000000E+00 0. -1.
         -3    1    1    2    0  502  0.19108219652E+01 -0.23769400044E+02  0.26606333589E+02  0.35728596476E+02  0.00000000000E+00 0.  1.
<mgrwt>
<rscale>  2 0.23846082E+02</rscale>
<asrwt>0</asrwt>
<pdfrwt beam="1">  1       21 0.84970625E-02 0.23846082E+02</pdfrwt>
<pdfrwt beam="2">  1       21 0.16105851E-02 0.23846082E+02</pdfrwt>
<totfact> 0.12828014E+08</totfact>
</mgrwt>
</event>
<event>
 4    1  0.7151341E+004  0.2046965E+02  0.7546771E-02  0.1736147E+00
         21   -1    0    0  501  502  0.00000000000E+00  0.00000000000E+00  0.47074763108E+02  0.47074763108E+02  0.00000000000E+00 0. -1.
         21   -1    0    0  502  503 -0.00000000000E+00 -0.00000000000E+00 -0.13058077875E+02  0.13058077875E+02  0.00000000000E+00 0. -1.
          1    1    1    2  501    0  0.96343214355E+01  0.18060628076E+02  0.43772020015E-01  0.20469693501E+02  0.00000000000E+00 0. -1.
         -1    1    1    2    0  503 -0.96343214355E+01 -0.18060628076E+02  0.33972913213E+02  0.39663147482E+02  0.00000000000E+00 0.  1.
<mgrwt>
<rscale>  2 0.20469647E+02</rscale>
<asrwt>0</asrwt>
<pdfrwt beam="1">  1       21 0.72422712E-02 0.20469647E+02</pdfrwt>
<pdfrwt beam="2">  1       21 0.20089351E-02 0.20469647E+02</pdfrwt>
<totfact> 0.11347812E+08</totfact>
</mgrwt>
</event>
<event>
 4    1  0.7151341E+004  0.2749899E+02  0.7546771E-02  0.1627502E+00
         21   -1    0    0  501  502  0.00000000000E+00  0.00000000000E+00  0.77001274693E+03  0.77001274693E+03  0.00000000000E+00 0.  1.
         21   -1    0    0  502  503 -0.00000000000E+00 -0.00000000000E+00 -0.12144492716E+01  0.12144492716E+01  0.00000000000E+00 0.  1.
          5    1    1    2  501    0  0.27196212723E+02  0.40694884095E+01  0.55308378828E+03  0.55376698310E+03  0.00000000000E+00 0. -1.
         -5    1    1    2    0  503 -0.27196212723E+02 -0.40694884095E+01  0.21571450938E+03  0.21746021310E+03  0.00000000000E+00 0.  1.
<mgrwt>
<rscale>  2 0.27498995E+02</rscale>
<asrwt>0</asrwt>
<pdfrwt beam="1">  1       21 0.11846311E+00 0.27498995E+02</pdfrwt>
<pdfrwt beam="2">  1       21 0.18683896E-03 0.27498995E+02</pdfrwt>
<totfact> 0.22988484E+07</totfact>
</mgrwt>
</event>
<event>
 4    1  0.7151341E+004  0.2063426E+02  0.7546771E-02  0.1733002E+00
         21   -1    0    0  503  502  0.00000000000E+00  0.00000000000E+00  0.18760069154E+01  0.18760069154E+01  0.00000000000E+00 0. -1.
         21   -1    0    0  501  503 -0.00000000000E+00 -0.00000000000E+00 -0.24714858838E+03  0.24714858838E+03  0.00000000000E+00 0. -1.
          3    1    1    2  501    0  0.13902359129E+02  0.15247849440E+02 -0.87046886904E+02  0.89459113686E+02  0.00000000000E+00 0.  1.
         -3    1    1    2    0  502 -0.13902359129E+02 -0.15247849440E+02 -0.15822569456E+03  0.15956548161E+03  0.00000000000E+00 0. -1.
<mgrwt>
<rscale>  2 0.20634256E+02</rscale>
<asrwt>0</asrwt>
<pdfrwt beam="1">  1       21 0.28861654E-03 0.20634256E+02</pdfrwt>
<pdfrwt beam="2">  1       21 0.38022848E-01 0.20634256E+02</pdfrwt>
<totfact> 0.11772129E+08</totfact>
</mgrwt>
</event>
<event>
 4    1  0.7151341E+004  0.3187357E+02  0.7546771E-02  0.1578257E+00
         21   -1    0    0  503  502  0.00000000000E+00  0.00000000000E+00  0.18610791955E+03  0.18610791955E+03  0.00000000000E+00 0.  1.
         21   -1    0    0  501  503 -0.00000000000E+00 -0.00000000000E+00 -0.58299574081E+01  0.58299574081E+01  0.00000000000E+00 0.  1.
          5    1    1    2  501    0  0.26508202614E+01 -0.31763148954E+02  0.65924143095E+02  0.73225112648E+02  0.00000000000E+00 0. -1.
         -5    1    1    2    0  502 -0.26508202614E+01  0.31763148954E+02  0.11435381905E+03  0.11871276431E+03  0.00000000000E+00 0.  1.
<mgrwt>
<rscale>  2 0.31873570E+02</rscale>
<asrwt>0</asrwt>
<pdfrwt beam="1">  1       21 0.28631983E-01 0.31873570E+02</pdfrwt>
<pdfrwt beam="2">  1       21 0.89691667E-03 0.31873570E+02</pdfrwt>
<totfact> 0.41139707E+07</totfact>
</mgrwt>
</event>
<event>
 4    1  0.7151341E+004  0.2319247E+02  0.7546771E-02  0.1688409E+00
         21   -1    0    0  501  502  0.00000000000E+00  0.00000000000E+00  0.75730616506E+01  0.75730616506E+01  0.00000000000E+00 0.  1.
         21   -1    0    0  502  503 -0.00000000000E+00 -0.00000000000E+00 -0.82583857941E+02  0.82583857941E+02  0.00000000000E+00 0.  1.
          4    1    1    2  501    0  0.13115462550E+02  0.19127864925E+02 -0.20642021619E+02  0.31048085787E+02  0.00000000000E+00 0.  1.
         -4    1    1    2    0  503 -0.13115462550E+02 -0.19127864925E+02 -0.54368774671E+02  0.59108833805E+02  0.00000000000E+00 0. -1.
<mgrwt>
<rscale>  2 0.23192468E+02</rscale>
<asrwt>0</asrwt>
<pdfrwt beam="1">  1       21 0.11650864E-02 0.23192468E+02</pdfrwt>
<pdfrwt beam="2">  1       21 0.12705209E-01 0.23192468E+02</pdfrwt>
<totfact> 0.10665056E+08</totfact>
</mgrwt>
</event>
<event>
 4    1  0.7151341E+004  0.3272212E+02  0.7546771E-02  0.1569812E+00
         21   -1    0    0  503  502  0.00000000000E+00  0.00000000000E+00  0.16416713078E+01  0.16416713078E+01  0.00000000000E+00 0. -1.
         21   -1    0    0  501  503 -0.00000000000E+00 -0.00000000000E+00 -0.71001263625E+03  0.71001263625E+03  0.00000000000E+00 0. -1.
          1    1    1    2  501    0  0.31606963375E+02 -0.84697751263E+01 -0.25267106328E+03  0.25478108926E+03  0.00000000000E+00 0.  1.
         -1    1    1    2    0  502 -0.31606963375E+02  0.84697751263E+01 -0.45569990166E+03  0.45687321830E+03  0.00000000000E+00 0. -1.
<mgrwt>
<rscale>  2 0.32722121E+02</rscale>
<asrwt>0</asrwt>
<pdfrwt beam="1">  1       21 0.25256461E-03 0.32722121E+02</pdfrwt>
<pdfrwt beam="2">  1       21 0.10923280E+00 0.32722121E+02</pdfrwt>
<totfact> 0.18282270E+07</totfact>
</mgrwt>
</event>
<event>
 4    1  0.7151341E+004  0.5681414E+02  0.7546771E-02  0.1411709E+00
         21   -1    0    0  501  502  0.00000000000E+00  0.00000000000E+00  0.37240971420E+02  0.37240971420E+02  0.00000000000E+00 0.  1.
         21   -1    0    0  502  503 -0.00000000000E+00 -0.00000000000E+00 -0.10656395444E+03  0.10656395444E+03  0.00000000000E+00 0.  1.
          3    1    1    2  501    0 -0.29313170584E+02 -0.48668103928E+02 -0.65724888284E+02  0.86876966162E+02  0.00000000000E+00 0. -1.
         -3    1    1    2    0  503  0.29313170584E+02  0.48668103928E+02 -0.35980947346E+01  0.56927959697E+02  0.00000000000E+00 0.  1.
<mgrwt>
<rscale>  2 0.56814138E+02</rscale>
<asrwt>0</asrwt>
<pdfrwt beam="1">  1       21 0.57293803E-02 0.56814138E+02</pdfrwt>
<pdfrwt beam="2">  1       21 0.16394454E-01 0.56814138E+02</pdfrwt>
<totfact> 0.65631788E+06</totfact>
</mgrwt>
</event>
<event>
 4    1  0.7151341E+004  0.3429077E+02  0.7546771E-02  0.1554990E+00
         21   -1    0    0  503  502  0.00000000000E+00  0.00000000000E+00  0.10206834074E+03  0.10206834074E+03  0.00000000000E+00 0.  1.
         21   -1    0    0  501  503 -0.00000000000E+00 -0.00000000000E+00 -0.11532272137E+02  0.11532272137E+02  0.00000000000E+00 0.  1.
          5    1    1    2  501    0  0.17898155584E+01  0.34244025234E+02  0.47099052090E+02  0.58259569271E+02  0.00000000000E+00 0.  1.
         -5    1    1    2    0  502 -0.17898155584E+01 -0.34244025234E+02  0.43437016517E+02  0.55341043610E+02  0.00000000000E+00 0. -1.
<mgrwt>
<rscale>  2 0.34290767E+02</rscale>
<asrwt>0</asrwt>
<pdfrwt beam="1">  1       21 0.15702821E-01 0.34290767E+02</pdfrwt>
<pdfrwt beam="2">  1       21 0.17741958E-02 0.34290767E+02</pdfrwt>
<totfact> 0.42839667E+07</totfact>
</mgrwt>
</event>
<event>
 4    1  0.7151341E+004  0.2107958E+02  0.7546771E-02  0.1724674E+00
         21   -1    0    0  503  502  0.00000000000E+00  0.00000000000E+00  0.13389834859E+03  0.13389834859E+03  0.00000000000E+00 0.  1.
         21   -1    0    0  501  503 -0.00000000000E+00 -0.00000000000E+00 -0.37616980868E+01  0.37616980868E+01  0.00000000000E+00 0.  1.
          3    1    1    2  501    0  0.20738706138E+02 -0.37755629395E+01  0.88692615325E+02  0.91163198830E+02  0.00000000000E+00 0.  1.
         -3    1    1    2    0  502 -0.20738706138E+02  0.37755629395E+01  0.41444035178E+02  0.46496847846E+02  0.00000000000E+00 0. -1.
<mgrwt>
<rscale>  2 0.21079583E+02</rscale>
<asrwt>0</asrwt>
<pdfrwt beam="1">  1       21 0.20599742E-01 0.21079583E+02</pdfrwt>
<pdfrwt beam="2">  1       21 0.57872289E-03 0.21079583E+02</pdfrwt>
<totfact> 0.12892426E+08</totfact>
</mgrwt>
</event>
<event>
 4    1  0.7151341E+004  0.2090642E+02  0.7546771E-02  0.1727881E+00
         21   -1    0    0  501  502  0.00000000000E+00  0.00000000000E+00  0.25995814338E+01  0.25995814338E+01  0.00000000000E+00 0. -1.
         21   -1    0    0  502  503 -0.00000000000E+00 -0.00000000000E+00 -0.21343130019E+03  0.21343130019E+03  0.00000000000E+00 0. -1.
          5    1    1    2  501    0  0.48648319914E+01 -0.20332534081E+02 -0.15517719288E+03  0.15657918036E+03  0.00000000000E+00 0.  1.
         -5    1    1    2    0  503 -0.48648319914E+01  0.20332534081E+02 -0.55654525870E+02  0.59451701257E+02  0.00000000000E+00 0. -1.
<mgrwt>
<rscale>  2 0.20906423E+02</rscale>
<asrwt>0</asrwt>
<pdfrwt beam="1">  1       21 0.39993557E-03 0.20906423E+02</pdfrwt>
<pdfrwt beam="2">  1       21 0.32835588E-01 0.20906423E+02</pdfrwt>
<totfact> 0.96323378E+07</totfact>
</mgrwt>
</event>
<event>
 4    1  0.7151341E+004  0.2235071E+02  0.7546771E-02  0.1702256E+00
         21   -1    0    0  503  502  0.00000000000E+00  0.00000000000E+00  0.92709822800E+02  0.92709822800E+02  0.00000000000E+00 0. -1.
         21   -1    0    0  501  503 -0.00000000000E+00 -0.00000000000E+00 -0.55098639037E+01  0.55098639037E+01  0.00000000000E+00 0. -1.
          4    1    1    2  501    0 -0.14377810715E+02  0.17112354067E+02  0.50892696049E+02  0.55584355836E+02  0.00000000000E+00 0. -1.
         -4    1    1    2    0  502  0.14377810715E+02 -0.17112354067E+02  0.36307262848E+02  0.42635330867E+02  0.00000000000E+00 0.  1.
<mgrwt>
<rscale>  2 0.22350707E+02</rscale>
<asrwt>0</asrwt>
<pdfrwt beam="1">  1       21 0.14263049E-01 0.22350707E+02</pdfrwt>
<pdfrwt beam="2">  1       21 0.84767144E-03 0.22350707E+02</pdfrwt>
<totfact> 0.13992195E+08</totfact>
</mgrwt>
</event>
<event>
 4    1  0.7151341E+004  0.2311597E+02  0.7546771E-02  0.1689637E+00
         21   -1    0    0  503  502  0.00000000000E+00  0.00000000000E+00  0.77630880756E+02  0.77630880756E+02  0.00000000000E+00 0.  1.
         21   -1    0    0  501  503 -0.00000000000E+00 -0.00000000000E+00 -0.69038826692E+01  0.69038826692E+01  0.00000000000E+00 0.  1.
          1    1    1    2  501    0  0.14348857864E+02  0.18123414680E+02  0.33049321365E+02  0.40331197904E+02  0.00000000000E+00 0.  1.
         -1    1    1    2    0  502 -0.14348857864E+02 -0.18123414680E+02  0.37677676722E+02  0.44203565522E+02  0.00000000000E+00 0. -1.
<mgrwt>
<rscale>  2 0.23115966E+02</rscale>
<asrwt>0</asrwt>
<pdfrwt beam="1">  1       21 0.11943212E-01 0.23115966E+02</pdfrwt>
<pdfrwt beam="2">  1       21 0.10621359E-02 0.23115966E+02</pdfrwt>
<totfact> 0.13588178E+08</totfact>
</mgrwt>
</event>
<event>
 4    1  0.7151341E+004  0.2225197E+02  0.7546771E-02  0.1703930E+00
         21   -1    0    0  501  502  0.00000000000E+00  0.00000000000E+00  0.72782954035E+01  0.72782954035E+01  0.00000000000E+00 0.  1.
         21   -1    0    0  502  503 -0.00000000000E+00 -0.00000000000E+00 -0.74626935113E+02  0.74626935113E+02  0.00000000000E+00 0.  1.
          5    1    1    2  501    0 -0.17103326348E+02  0.14234694355E+02 -0.21499307854E+02  0.30941404844E+02  0.00000000000E+00 0.  1.
         -5    1    1    2    0  503  0.17103326348E+02 -0.14234694355E+02 -0.45849331855E+02  0.50963825672E+02  0.00000000000E+00 0. -1.
<mgrwt>
<rscale>  2 0.22251973E+02</rscale>
<asrwt>0</asrwt>
<pdfrwt beam="1">  1       21 0.11197377E-02 0.22251973E+02</pdfrwt>
<pdfrwt beam="2">  1       21 0.11481068E-01 0.22251973E+02</pdfrwt>
<totfact> 0.13255553E+08</totfact>
</mgrwt>
</event>
<event>
 4    1  0.7151341E+004  0.2097062E+02  0.7546771E-02  0.1726688E+00
         21   -1    0    0  503  502  0.00000000000E+00  0.00000000000E+00  0.15568553000E+02  0.15568553000E+02  0.00000000000E+00 0.  1.
         21   -1    0    0  501  503 -0.00000000000E+00 -0.00000000000E+00 -0.43385374521E+02  0.43385374521E+02  0.00000000000E+00 0.  1.
          2    1    1    2  501    0  0.20677824427E+02  0.34920741248E+01 -0.31320415267E+02  0.37692644073E+02  0.00000000000E+00 0. -1.
         -2    1    1    2    0  502 -0.20677824427E+02 -0.34920741248E+01  0.35035937461E+01  0.21261283448E+02  0.00000000000E+00 0.  1.
<mgrwt>
<rscale>  2 0.20970622E+02</rscale>
<asrwt>0</asrwt>
<pdfrwt beam="1">  1       21 0.23951620E-02 0.20970622E+02</pdfrwt>
<pdfrwt beam="2">  1       21 0.66746730E-02 0.20970622E+02</pdfrwt>
<totfact> 0.99554930E+07</totfact>
</mgrwt>
</event>
<event>
 4    1  0.7151341E+004  0.2320983E+02  0.7546771E-02  0.1688131E+00
         21   -1    0    0  503  502  0.00000000000E+00  0.00000000000E+00  0.25922317657E+02  0.25922317657E+02  0.00000000000E+00 0.  1.
         21   -1    0    0  501  503 -0.00000000000E+00 -0.00000000000E+00 -0.26302016511E+02  0.26302016511E+02  0.00000000000E+00 0.  1.
          5    1    1    2  501    0  0.21586107113E+02 -0.85285458730E+01 -0.12153154884E+02  0.26199146716E+02  0.00000000000E+00 0. -1.
         -5    1    1    2    0  502 -0.21586107113E+02  0.85285458730E+01  0.11773456030E+02  0.26025187452E+02  0.00000000000E+00 0.  1.
<mgrwt>
<rscale>  2 0.23209828E+02</rscale>
<asrwt>0</asrwt>
<pdfrwt beam="1">  1       21 0.39880489E-02 0.23209828E+02</pdfrwt>
<pdfrwt beam="2">  1       21 0.40464641E-02 0.23209828E+02</pdfrwt>
<totfact> 0.10287888E+08</totfact>
</mgrwt>
</event>
<event>
 4    1  0.7151341E+004  0.2226817E+02  0.7546771E-02  0.1703655E+00
         21   -1    0    0  503  502  0.00000000000E+00  0.00000000000E+00  0.13099435078E+02  0.13099435078E+02  0.00000000000E+00 0.  1.
         21   -1    0    0  501  503 -0.00000000000E+00 -0.00000000000E+00 -0.38045103561E+02  0.38045103561E+02  0.00000000000E+00 0.  1.
          2    1    1    2  501    0 -0.15581357011E+02  0.15908882417E+02 -0.14283347957E+02  0.26455344544E+02  0.00000000000E+00 0. -1.
         -2    1    1    2    0  502  0.15581357011E+02 -0.15908882417E+02 -0.10662320526E+02  0.24689194095E+02  0.00000000000E+00 0.  1.
<mgrwt>
<rscale>  2 0.22268166E+02</rscale>
<asrwt>0</asrwt>
<pdfrwt beam="1">  1       21 0.20152977E-02 0.22268166E+02</pdfrwt>
<pdfrwt beam="2">  1       21 0.58530928E-02 0.22268166E+02</pdfrwt>
<totfact> 0.16318401E+08</totfact>
</mgrwt>
</event>
<event>
 4    1  0.7151341E+004  0.2236715E+02  0.7546771E-02  0.1701979E+00
         21   -1    0    0  501  502  0.00000000000E+00  0.00000000000E+00  0.21700063924E+01  0.21700063924E+01  0.00000000000E+00 0.  1.
         21   -1    0    0  502  503 -0.00000000000E+00 -0.00000000000E+00 -0.24966803277E+03  0.24966803277E+03  0.00000000000E+00 0.  1.
          4    1    1    2  501    0 -0.21865212203E+02 -0.47118655084E+01 -0.15859572325E+03  0.16016520413E+03  0.00000000000E+00 0. -1.
         -4    1    1    2    0  503  0.21865212203E+02  0.47118655084E+01 -0.88902303129E+02  0.91672835032E+02  0.00000000000E+00 0.  1.
<mgrwt>
<rscale>  2 0.22367145E+02</rscale>
<asrwt>0</asrwt>
<pdfrwt beam="1">  1       21 0.33384714E-03 0.22367145E+02</pdfrwt>
<pdfrwt beam="2">  1       21 0.38410466E-01 0.22367145E+02</pdfrwt>
<totfact> 0.95543593E+07</totfact>
</mgrwt>
</event>
<event>
 4    1  0.7151341E+004  0.4073518E+02  0.7546771E-02  0.1502870E+00
         21   -1    0    0  503  502  0.00000000000E+00  0.00000000000E+00  0.22507151103E+02  0.22507151103E+02  0.00000000000E+00 0. -1.
         21   -1    0    0  501  503 -0.00000000000E+00 -0.00000000000E+00 -0.16649008522E+03  0.16649008522E+03  0.00000000000E+00 0. -1.
          1    1    1    2  501    0  0.11404259832E+02  0.39106231560E+02 -0.14252928284E+03  0.14823613243E+03  0.00000000000E+00 0.  1.
         -1    1    1    2    0  502 -0.11404259832E+02 -0.39106231560E+02 -0.14536512780E+01  0.40761103900E+02  0.00000000000E+00 0. -1.
<mgrwt>
<rscale>  2 0.40735175E+02</rscale>
<asrwt>0</asrwt>
<pdfrwt beam="1">  1       21 0.34626386E-02 0.40735175E+02</pdfrwt>
<pdfrwt beam="2">  1       21 0.25613859E-01 0.40735175E+02</pdfrwt>
<totfact> 0.64338685E+06</totfact>
</mgrwt>
</event>
<event>
 4    1  0.7151341E+004  0.2679034E+02  0.7546771E-02  0.1636543E+00
         21   -1    0    0  501  502  0.00000000000E+00  0.00000000000E+00  0.25079362817E+01  0.25079362817E+01  0.00000000000E+00 0. -1.
         21   -1    0    0  502  503 -0.00000000000E+00 -0.00000000000E+00 -0.38794416097E+03  0.38794416097E+03  0.00000000000E+00 0. -1.
          4    1    1    2  501    0  0.12116366521E+02  0.23893850166E+02 -0.29270649752E+03  0.29392995101E+03  0.00000000000E+00 0.  1.
         -4    1    1    2    0  503 -0.12116366521E+02 -0.23893850166E+02 -0.92729727175E+02  0.96522146244E+02  0.00000000000E+00 0. -1.
<mgrwt>
<rscale>  2 0.26790342E+02</rscale>
<asrwt>0</asrwt>
<pdfrwt beam="1">  1       21 0.38583643E-03 0.26790342E+02</pdfrwt>
<pdfrwt beam="2">  1       21 0.59683705E-01 0.26790342E+02</pdfrwt>
<totfact> 0.34295585E+07</totfact>
</mgrwt>
</event>
<event>
 4    1  0.7151341E+004  0.2101274E+02  0.7546771E-02  0.1725907E+00
         21   -1    0    0  501  502  0.00000000000E+00  0.00000000000E+00  0.64264125149E+01  0.64264125149E+01  0.00000000000E+00 0. -1.
         21   -1    0    0  502  503 -0.00000000000E+00 -0.00000000000E+00 -0.72841867395E+02  0.72841867395E+02  0.00000000000E+00 0. -1.
          3    1    1    2  501    0 -0.14176255573E+02  0.15510287499E+02 -0.23763972597E+02  0.31721627227E+02  0.00000000000E+00 0. -1.
         -3    1    1    2    0  503  0.14176255573E+02 -0.15510287499E+02 -0.42651482283E+02  0.47546652683E+02  0.00000000000E+00 0.  1.
<mgrwt>
<rscale>  2 0.21012740E+02</rscale>
<asrwt>0</asrwt>
<pdfrwt beam="1">  1       21 0.98867887E-03 0.21012740E+02</pdfrwt>
<pdfrwt beam="2">  1       21 0.11206441E-01 0.21012740E+02</pdfrwt>
<totfact> 0.16349952E+08</totfact>
</mgrwt>
</event>
<event>
 4    1  0.7151341E+004  0.2753116E+02  0.7546771E-02  0.1627100E+00
         21   -1    0    0  501  502  0.00000000000E+00  0.00000000000E+00  0.10162190416E+01  0.10162190416E+01  0.00000000000E+00 0.  1.
         21   -1    0    0  502  503 -0.00000000000E+00 -0.00000000000E+00 -0.74947644009E+03  0.74947644009E+03  0.00000000000E+00 0.  1.
          3    1    1    2  501    0  0.21478369766E+02  0.17223369882E+02 -0.34819122166E+03  0.34927795762E+03  0.00000000000E+00 0.  1.
         -3    1    1    2    0  503 -0.21478369766E+02 -0.17223369882E+02 -0.40026899939E+03  0.40121470151E+03  0.00000000000E+00 0. -1.
<mgrwt>
<rscale>  2 0.27531161E+02</rscale>
<asrwt>0</asrwt>
<pdfrwt beam="1">  1       21 0.15634109E-03 0.27531161E+02</pdfrwt>
<pdfrwt beam="2">  1       21 0.11530429E+00 0.27531161E+02</pdfrwt>
<totfact> 0.31637742E+07</totfact>
</mgrwt>
</event>
<event>
 4    1  0.7151341E+004  0.2566516E+02  0.7546771E-02  0.1651628E+00
         21   -1    0    0  503  502  0.00000000000E+00  0.00000000000E+00  0.22611132791E+02  0.22611132791E+02  0.00000000000E+00 0.  1.
         21   -1    0    0  501  503 -0.00000000000E+00 -0.00000000000E+00 -0.29482882858E+02  0.29482882858E+02  0.00000000000E+00 0.  1.
          3    1    1    2  501    0 -0.25563952126E+02  0.22769934576E+01 -0.59304970430E+00  0.25672009182E+02  0.00000000000E+00 0.  1.
         -3    1    1    2    0  502  0.25563952126E+02 -0.22769934576E+01 -0.62787003632E+01  0.26422006467E+02  0.00000000000E+00 0. -1.
<mgrwt>
<rscale>  2 0.25665158E+02</rscale>
<asrwt>0</asrwt>
<pdfrwt beam="1">  1       21 0.34786358E-02 0.25665158E+02</pdfrwt>
<pdfrwt beam="2">  1       21 0.45358281E-02 0.25665158E+02</pdfrwt>
<totfact> 0.10949929E+08</totfact>
</mgrwt>
</event>
<event>
 4    1  0.7151341E+004  0.5243477E+02  0.7546771E-02  0.1432635E+00
         21   -1    0    0  501  502  0.00000000000E+00  0.00000000000E+00  0.93426860598E+02  0.93426860598E+02  0.00000000000E+00 0. -1.
         21   -1    0    0  502  503 -0.00000000000E+00 -0.00000000000E+00 -0.32632778058E+02  0.32632778058E+02  0.00000000000E+00 0. -1.
          4    1    1    2  501    0  0.47091559324E+02 -0.23060581591E+02  0.50148046434E+02  0.72555027008E+02  0.00000000000E+00 0. -1.
         -4    1    1    2    0  503 -0.47091559324E+02  0.23060581591E+02  0.10646036106E+02  0.53504611648E+02  0.00000000000E+00 0.  1.
<mgrwt>
<rscale>  2 0.52434773E+02</rscale>
<asrwt>0</asrwt>
<pdfrwt beam="1">  1       21 0.14373363E-01 0.52434773E+02</pdfrwt>
<pdfrwt beam="2">  1       21 0.50204274E-02 0.52434773E+02</pdfrwt>
<totfact> 0.10199449E+07</totfact>
</mgrwt>
</event>
<event>
 4    1  0.7151341E+004  0.2624532E+02  0.7546771E-02  0.1643733E+00
         21   -1    0    0  501  502  0.00000000000E+00  0.00000000000E+00  0.92682837596E+02  0.92682837596E+02  0.00000000000E+00 0. -1.
         21   -1    0    0  502  503 -0.00000000000E+00 -0.00000000000E+00 -0.76460555049E+01  0.76460555049E+01  0.00000000000E+00 0. -1.
          5    1    1    2  501    0  0.84059346543E+01 -0.24862764470E+02  0.34124506557E+02  0.43049956356E+02  0.00000000000E+00 0. -1.
         -5    1    1    2    0  503 -0.84059346543E+01  0.24862764470E+02  0.50912275534E+02  0.57278936745E+02  0.00000000000E+00 0.  1.
<mgrwt>
<rscale>  2 0.26245319E+02</rscale>
<asrwt>0</asrwt>
<pdfrwt beam="1">  1       21 0.14258897E-01 0.26245319E+02</pdfrwt>
<pdfrwt beam="2">  1       21 0.11763163E-02 0.26245319E+02</pdfrwt>
<totfact> 0.89365020E+07</totfact>
</mgrwt>
</event>
<event>
 4    1  0.7151341E+004  0.2208059E+02  0.7546771E-02  0.1706862E+00
         21   -1    0    0  501  502  0.00000000000E+00  0.00000000000E+00  0.85599246087E+00  0.85599246087E+00  0.00000000000E+00 0.  1.
         21   -1    0    0  502  503 -0.00000000000E+00 -0.00000000000E+00 -0.57050331597E+03  0.57050331597E+03  0.00000000000E+00 0.  1.
          1    1    1    2  501    0 -0.16054750574E+02 -0.15159067013E+02 -0.27330286352E+03  0.27419337618E+03  0.00000000000E+00 0. -1.
         -1    1    1    2    0  503  0.16054750574E+02  0.15159067013E+02 -0.29634445998E+03  0.29716593225E+03  0.00000000000E+00 0.  1.
<mgrwt>
<rscale>  2 0.22080587E+02</rscale>
<asrwt>0</asrwt>
<pdfrwt beam="1">  1       21 0.13169098E-03 0.22080587E+02</pdfrwt>
<pdfrwt beam="2">  1       21 0.87769850E-01 0.22080587E+02</pdfrwt>
<totfact> 0.70428801E+07</totfact>
</mgrwt>
</event>
<event>
 4    1  0.7151341E+004  0.2124647E+02  0.7546771E-02  0.1721619E+00
         21   -1    0    0  501  502  0.00000000000E+00  0.00000000000E+00  0.20768730767E+02  0.20768730767E+02  0.00000000000E+00 0.  1.
         21   -1    0    0  502  503 -0.00000000000E+00 -0.00000000000E+00 -0.22463339616E+02  0.22463339616E+02  0.00000000000E+00 0.  1.
          5    1    1    2  501    0  0.12132758538E+02  0.17441572838E+02  0.30444858281E+01  0.21463484963E+02  0.00000000000E+00 0.  1.
         -5    1    1    2    0  503 -0.12132758538E+02 -0.17441572838E+02 -0.47390946775E+01  0.21768585420E+02  0.00000000000E+00 0. -1.
<mgrwt>
<rscale>  2 0.21246465E+02</rscale>
<asrwt>0</asrwt>
<pdfrwt beam="1">  1       21 0.31951894E-02 0.21246465E+02</pdfrwt>
<pdfrwt beam="2">  1       21 0.34558984E-02 0.21246465E+02</pdfrwt>
<totfact> 0.18153078E+08</totfact>
</mgrwt>
</event>
<event>
 4    1  0.7151341E+004  0.2355702E+02  0.7546771E-02  0.1682637E+00
         21   -1    0    0  501  502  0.00000000000E+00  0.00000000000E+00  0.45547897995E+03  0.45547897995E+03  0.00000000000E+00 0.  1.
         21   -1    0    0  502  503 -0.00000000000E+00 -0.00000000000E+00 -0.22658119689E+01  0.22658119689E+01  0.00000000000E+00 0.  1.
          3    1    1    2  501    0 -0.12766084253E+02 -0.19797984758E+02  0.70991933555E+02  0.74798313734E+02  0.00000000000E+00 0.  1.
         -3    1    1    2    0  503  0.12766084253E+02  0.19797984758E+02  0.38222123443E+03  0.38294647819E+03  0.00000000000E+00 0. -1.
<mgrwt>
<rscale>  2 0.23557018E+02</rscale>
<asrwt>0</asrwt>
<pdfrwt beam="1">  1       21 0.70073617E-01 0.23557018E+02</pdfrwt>
<pdfrwt beam="2">  1       21 0.34858682E-03 0.23557018E+02</pdfrwt>
<totfact> 0.27997659E+07</totfact>
</mgrwt>
</event>
<event>
 4    1  0.7151341E+004  0.2901657E+02  0.7546771E-02  0.1609221E+00
         21   -1    0    0  501  502  0.00000000000E+00  0.00000000000E+00  0.40214195004E+02  0.40214195004E+02  0.00000000000E+00 0.  1.
         21   -1    0    0  502  503 -0.00000000000E+00 -0.00000000000E+00 -0.21710876863E+02  0.21710876863E+02  0.00000000000E+00 0.  1.
          4    1    1    2  501    0  0.18293497387E+02 -0.22523523839E+02  0.34056741508E+01  0.29215745570E+02  0.00000000000E+00 0.  1.
         -4    1    1    2    0  503 -0.18293497387E+02  0.22523523839E+02  0.15097643990E+02  0.32709326297E+02  0.00000000000E+00 0. -1.
<mgrwt>
<rscale>  2 0.29016567E+02</rscale>
<asrwt>0</asrwt>
<pdfrwt beam="1">  1       21 0.61867992E-02 0.29016567E+02</pdfrwt>
<pdfrwt beam="2">  1       21 0.33401349E-02 0.29016567E+02</pdfrwt>
<totfact> 0.73164761E+07</totfact>
</mgrwt>
</event>
<event>
 4    1  0.7151341E+004  0.2153532E+02  0.7546771E-02  0.1716415E+00
         21   -1    0    0  503  502  0.00000000000E+00  0.00000000000E+00  0.98436137985E+02  0.98436137985E+02  0.00000000000E+00 0.  1.
         21   -1    0    0  501  503 -0.00000000000E+00 -0.00000000000E+00 -0.73069275391E+01  0.73069275391E+01  0.00000000000E+00 0.  1.
          3    1    1    2  501    0  0.20944598555E+02  0.50093561770E+01  0.14053099245E+02  0.25714965610E+02  0.00000000000E+00 0. -1.
         -3    1    1    2    0  502 -0.20944598555E+02 -0.50093561770E+01  0.77076111201E+02  0.80028099914E+02  0.00000000000E+00 0.  1.
<mgrwt>
<rscale>  2 0.21535317E+02</rscale>
<asrwt>0</asrwt>
<pdfrwt beam="1">  1       21 0.15144020E-01 0.21535317E+02</pdfrwt>
<pdfrwt beam="2">  1       21 0.11241428E-02 0.21535317E+02</pdfrwt>
<totfact> 0.81923929E+07</totfact>
</mgrwt>
</event>
<event>
 4    1  0.7151341E+004  0.5675301E+02  0.7546771E-02  0.1411986E+00
         21   -1    0    0  501  502  0.00000000000E+00  0.00000000000E+00  0.76396868765E+01  0.76396868765E+01  0.00000000000E+00 0.  1.
         21   -1    0    0  502  503 -0.00000000000E+00 -0.00000000000E+00 -0.42401243629E+03  0.42401243629E+03  0.00000000000E+00 0.  1.
          1    1    1    2  501    0  0.56676382732E+02  0.29482338594E+01 -0.22446042727E+03  0.23152405459E+03  0.00000000000E+00 0. -1.
         -1    1    1    2    0  503 -0.56676382732E+02 -0.29482338594E+01 -0.19191232214E+03  0.20012806858E+03  0.00000000000E+00 0.  1.
<mgrwt>
<rscale>  2 0.56753013E+02</rscale>
<asrwt>0</asrwt>
<pdfrwt beam="1">  1       21 0.11753363E-02 0.56753013E+02</pdfrwt>
<pdfrwt beam="2">  1       21 0.65232693E-01 0.56753013E+02</pdfrwt>
<totfact> 0.58791165E+06</totfact>
</mgrwt>
</event>
<event>
 4    1  0.7151341E+004  0.3257205E+02  0.7546771E-02  0.1571283E+00
         21   -1    0    0  501  502  0.00000000000E+00  0.00000000000E+00  0.25907144434E+02  0.25907144434E+02  0.00000000000E+00 0.  1.
         21   -1    0    0  502  503 -0.00000000000E+00 -0.00000000000E+00 -0.47873386514E+02  0.47873386514E+02  0.00000000000E+00 0.  1.
          5    1    1    2  501    0 -0.32562839451E+02  0.77456782894E+00 -0.25010433426E+02  0.41066534411E+02  0.00000000000E+00 0. -1.
         -5    1    1    2    0  503  0.32562839451E+02 -0.77456782894E+00  0.30441913459E+01  0.32713996536E+02  0.00000000000E+00 0.  1.
<mgrwt>
<rscale>  2 0.32572050E+02</rscale>
<asrwt>0</asrwt>
<pdfrwt beam="1">  1       21 0.39857146E-02 0.32572050E+02</pdfrwt>
<pdfrwt beam="2">  1       21 0.73651363E-02 0.32572050E+02</pdfrwt>
<totfact> 0.42647051E+07</totfact>
</mgrwt>
</event>
<event>
 4    1  0.7151341E+004  0.6564414E+02  0.7546771E-02  0.1375565E+00
         21   -1    0    0  501  502  0.00000000000E+00  0.00000000000E+00  0.17887577033E+03  0.17887577033E+03  0.00000000000E+00 0.  1.
         21   -1    0    0  502  503 -0.00000000000E+00 -0.00000000000E+00 -0.24372644220E+02  0.24372644220E+02  0.00000000000E+00 0.  1.
          1    1    1    2  501    0 -0.38857882704E+02 -0.52907640305E+02  0.88191393944E+02  0.10994032662E+03  0.00000000000E+00 0. -1.
         -1    1    1    2    0  503  0.38857882704E+02  0.52907640305E+02  0.66311732165E+02  0.93308087932E+02  0.00000000000E+00 0.  1.
<mgrwt>
<rscale>  2 0.65644143E+02</rscale>
<asrwt>0</asrwt>
<pdfrwt beam="1">  1       21 0.27519348E-01 0.65644143E+02</pdfrwt>
<pdfrwt beam="2">  1       21 0.37496377E-02 0.65644143E+02</pdfrwt>
<totfact> 0.51901245E+06</totfact>
</mgrwt>
</event>
<event>
 4    1  0.7151341E+004  0.2167677E+02  0.7546771E-02  0.1713903E+00
         21   -1    0    0  503  502  0.00000000000E+00  0.00000000000E+00  0.39744376579E+00  0.39744376579E+00  0.00000000000E+00 0. -1.
         21   -1    0    0  501  503 -0.00000000000E+00 -0.00000000000E+00 -0.12704807055E+04  0.12704807055E+04  0.00000000000E+00 0. -1.
          2    1    1    2  501    0  0.21191432868E+02  0.45613046613E+01 -0.46759658979E+03  0.46809876427E+03  0.00000000000E+00 0. -1.
         -2    1    1    2    0  502 -0.21191432868E+02 -0.45613046613E+01 -0.80248667191E+03  0.80277938497E+03  0.00000000000E+00 0.  1.
<mgrwt>
<rscale>  2 0.21676769E+02</rscale>
<asrwt>0</asrwt>
<pdfrwt beam="1">  1       21 0.61144135E-04 0.21676769E+02</pdfrwt>
<pdfrwt beam="2">  1       21 0.19546196E+00 0.21676769E+02</pdfrwt>
<totfact> 0.32801337E+07</totfact>
</mgrwt>
</event>
<event>
 4    1  0.7151341E+004  0.2132338E+02  0.7546771E-02  0.1720223E+00
         21   -1    0    0  501  502  0.00000000000E+00  0.00000000000E+00  0.16023719537E+03  0.16023719537E+03  0.00000000000E+00 0.  1.
         21   -1    0    0  502  503 -0.00000000000E+00 -0.00000000000E+00 -0.29116460340E+01  0.29116460340E+01  0.00000000000E+00 0.  1.
          4    1    1    2  501    0 -0.10302723083E+01 -0.21298475990E+02  0.91672910136E+02  0.94120183772E+02  0.00000000000E+00 0. -1.
         -4    1    1    2    0  503  0.10302723083E+01  0.21298475990E+02  0.65652639201E+02  0.69028657633E+02  0.00000000000E+00 0.  1.
<mgrwt>
<rscale>  2 0.21323380E+02</rscale>
<asrwt>0</asrwt>
<pdfrwt beam="1">  1       21 0.24651869E-01 0.21323380E+02</pdfrwt>
<pdfrwt beam="2">  1       21 0.44794567E-03 0.21323380E+02</pdfrwt>
<totfact> 0.13751143E+08</totfact>
</mgrwt>
</event>
<event>
 4    1  0.7151341E+004  0.6215359E+02  0.7546771E-02  0.1389010E+00
         21   -1    0    0  501  502  0.00000000000E+00  0.00000000000E+00  0.12311510460E+04  0.12311510460E+04  0.00000000000E+00 0.  1.
         21   -1    0    0  502  503 -0.00000000000E+00 -0.00000000000E+00 -0.32236829161E+01  0.32236829161E+01  0.00000000000E+00 0.  1.
          1    1    1    2  501    0  0.43626377040E+02  0.44269722303E+02  0.51320799989E+03  0.51695794823E+03  0.00000000000E+00 0.  1.
         -1    1    1    2    0  503 -0.43626377040E+02 -0.44269722303E+02  0.71471936318E+03  0.71741678067E+03  0.00000000000E+00 0. -1.
<mgrwt>
<rscale>  2 0.62153593E+02</rscale>
<asrwt>0</asrwt>
<pdfrwt beam="1">  1       21 0.18940748E+00 0.62153593E+02</pdfrwt>
<pdfrwt beam="2">  1       21 0.49595220E-03 0.62153593E+02</pdfrwt>
<totfact> 0.18135039E+06</totfact>
</mgrwt>
</event>
<event>
 4    1  0.7151341E+004  0.3417856E+02  0.7546771E-02  0.1556019E+00
         21   -1    0    0  501  502  0.00000000000E+00  0.00000000000E+00  0.82113120098E+01  0.82113120098E+01  0.00000000000E+00 0.  1.
         21   -1    0    0  502  503 -0.00000000000E+00 -0.00000000000E+00 -0.15157740750E+03  0.15157740750E+03  0.00000000000E+00 0.  1.
          3    1    1    2  501    0 -0.27766019120E+02 -0.19930431689E+02 -0.91487081573E+02  0.97662992069E+02  0.00000000000E+00 0. -1.
         -3    1    1    2    0  503  0.27766019120E+02  0.19930431689E+02 -0.51879013915E+02  0.62125727439E+02  0.00000000000E+00 0.  1.
<mgrwt>
<rscale>  2 0.34178559E+02</rscale>
<asrwt>0</asrwt>
<pdfrwt beam="1">  1       21 0.12632788E-02 0.34178559E+02</pdfrwt>
<pdfrwt beam="2">  1       21 0.23319600E-01 0.34178559E+02</pdfrwt>
<totfact> 0.35930839E+07</totfact>
</mgrwt>
</event>
<event>
 4    1  0.7151341E+004  0.2063861E+02  0.7546771E-02  0.1732919E+00
         21   -1    0    0  503  502  0.00000000000E+00  0.00000000000E+00  0.25971415822E+03  0.25971415822E+03  0.00000000000E+00 0.  1.
         21   -1    0    0  501  503 -0.00000000000E+00 -0.00000000000E+00 -0.25517905325E+01  0.25517905325E+01  0.00000000000E+00 0.  1.
          3    1    1    2  501    0 -0.52844328046E+01 -0.19950612841E+02  0.50198935565E+02  0.54276010489E+02  0.00000000000E+00 0. -1.
         -3    1    1    2    0  502  0.52844328046E+01  0.19950612841E+02  0.20696343212E+03  0.20798993826E+03  0.00000000000E+00 0.  1.
<mgrwt>
<rscale>  2 0.20638609E+02</rscale>
<asrwt>0</asrwt>
<pdfrwt beam="1">  1       21 0.39956004E-01 0.20638609E+02</pdfrwt>
<pdfrwt beam="2">  1       21 0.39258336E-03 0.20638609E+02</pdfrwt>
<totfact> 0.68572960E+07</totfact>
</mgrwt>
</event>
<event>
 4    1  0.7151341E+004  0.2383216E+02  0.7546771E-02  0.1678366E+00
         21   -1    0    0  501  502  0.00000000000E+00  0.00000000000E+00  0.17010529942E+03  0.17010529942E+03  0.00000000000E+00 0. -1.
         21   -1    0    0  502  503 -0.00000000000E+00 -0.00000000000E+00 -0.33663308581E+01  0.33663308581E+01  0.00000000000E+00 0. -1.
          2    1    1    2  501    0 -0.23786350575E+02 -0.14769430408E+01  0.75545966056E+02  0.79215937927E+02  0.00000000000E+00 0.  1.
         -2    1    1    2    0  503  0.23786350575E+02  0.14769430408E+01  0.91193002507E+02  0.94255692351E+02  0.00000000000E+00 0. -1.
<mgrwt>
<rscale>  2 0.23832160E+02</rscale>
<asrwt>0</asrwt>
<pdfrwt beam="1">  1       21 0.26170039E-01 0.23832160E+02</pdfrwt>
<pdfrwt beam="2">  1       21 0.51789719E-03 0.23832160E+02</pdfrwt>
<totfact> 0.10298107E+08</totfact>
</mgrwt>
</event>
<event>
 4    1  0.7151341E+004  0.2746677E+02  0.7546771E-02  0.1627906E+00
         21   -1    0    0  503  502  0.00000000000E+00  0.00000000000E+00  0.33703517846E+01  0.33703517846E+01  0.00000000000E+00 0.  1.
         21   -1    0    0  501  503 -0.00000000000E+00 -0.00000000000E+00 -0.23288892467E+03  0.23288892467E+03  0.00000000000E+00 0.  1.
          1    1    1    2  501    0 -0.21816060285E+02 -0.16687805939E+02 -0.91475381693E+02  0.95510045594E+02  0.00000000000E+00 0.  1.
         -1    1    1    2    0  502  0.21816060285E+02  0.16687805939E+02 -0.13804319120E+03  0.14074923086E+03  0.00000000000E+00 0. -1.
<mgrwt>
<rscale>  2 0.27466768E+02</rscale>
<asrwt>0</asrwt>
<pdfrwt beam="1">  1       21 0.51851549E-03 0.27466768E+02</pdfrwt>
<pdfrwt beam="2">  1       21 0.35829077E-01 0.27466768E+02</pdfrwt>
<totfact> 0.59846852E+07</totfact>
</mgrwt>
</event>
<event>
 4    1  0.7151341E+004  0.2853881E+02  0.7546771E-02  0.1614825E+00
         21   -1    0    0  501  502  0.00000000000E+00  0.00000000000E+00  0.20071222616E+01  0.20071222616E+01  0.00000000000E+00 0. -1.
         21   -1    0    0  502  503 -0.00000000000E+00 -0.00000000000E+00 -0.40779011406E+03  0.40779011406E+03  0.00000000000E+00 0. -1.
          4    1    1    2  501    0 -0.70921403093E+00  0.28529995735E+02 -0.21725298415E+03  0.21911942580E+03  0.00000000000E+00 0.  1.
         -4    1    1    2    0  503  0.70921403093E+00 -0.28529995735E+02 -0.18853000765E+03  0.19067781052E+03  0.00000000000E+00 0. -1.
<mgrwt>
<rscale>  2 0.28538809E+02</rscale>
<asrwt>0</asrwt>
<pdfrwt beam="1">  1       21 0.30878835E-03 0.28538809E+02</pdfrwt>
<pdfrwt beam="2">  1       21 0.62736878E-01 0.28538809E+02</pdfrwt>
<totfact> 0.43572416E+07</totfact>
</mgrwt>
</event>
<event>
 4    1  0.7151341E+004  0.2134540E+02  0.7546771E-02  0.1719825E+00
         21   -1    0    0  501  502  0.00000000000E+00  0.00000000000E+00  0.32141623321E+02  0.32141623321E+02  0.00000000000E+00 0. -1.
         21   -1    0    0  502  503 -0.00000000000E+00 -0.00000000000E+00 -0.20030964201E+02  0.20030964201E+02  0.00000000000E+00 0. -1.
          2    1    1    2  501    0  0.21138918702E+02 -0.29617706640E+01  0.20159234204E+02  0.29360188914E+02  0.00000000000E+00 0. -1.
         -2    1    1    2    0  503 -0.21138918702E+02  0.29617706640E+01 -0.80485750845E+01  0.22812398608E+02  0.00000000000E+00 0.  1.
<mgrwt>
<rscale>  2 0.21345397E+02</rscale>
<asrwt>0</asrwt>
<pdfrwt beam="1">  1       21 0.49448651E-02 0.21345397E+02</pdfrwt>
<pdfrwt beam="2">  1       21 0.30816868E-02 0.21345397E+02</pdfrwt>
<totfact> 0.10944223E+08</totfact>
</mgrwt>
</event>
<event>
 4    1  0.7151341E+004  0.2616150E+02  0.7546771E-02  0.1644858E+00
         21   -1    0    0  503  502  0.00000000000E+00  0.00000000000E+00  0.43735315152E+03  0.43735315152E+03  0.00000000000E+00 0.  1.
         21   -1    0    0  501  503 -0.00000000000E+00 -0.00000000000E+00 -0.16387748770E+01  0.16387748770E+01  0.00000000000E+00 0.  1.
          3    1    1    2  501    0 -0.20195660446E+02 -0.16630069076E+02  0.17126121574E+03  0.17324787997E+03  0.00000000000E+00 0.  1.
         -3    1    1    2    0  502  0.20195660446E+02  0.16630069076E+02  0.26445316091E+03  0.26574404643E+03  0.00000000000E+00 0. -1.
<mgrwt>
<rscale>  2 0.26161496E+02</rscale>
<asrwt>0</asrwt>
<pdfrwt beam="1">  1       21 0.67285007E-01 0.26161496E+02</pdfrwt>
<pdfrwt beam="2">  1       21 0.25211956E-03 0.26161496E+02</pdfrwt>
<totfact> 0.49915379E+07</totfact>
</mgrwt>
</event>
<event>
 4    1  0.7151341E+004  0.3120539E+02  0.7546771E-02  0.1585134E+00
         21   -1    0    0  503  502  0.00000000000E+00  0.00000000000E+00  0.78384159805E+01  0.78384159805E+01  0.00000000000E+00 0.  1.
         21   -1    0    0  501  503 -0.00000000000E+00 -0.00000000000E+00 -0.12589115961E+03  0.12589115961E+03  0.00000000000E+00 0.  1.
          1    1    1    2  501    0  0.24003465298E+02 -0.19940168689E+02 -0.51348613731E+02  0.60087076862E+02  0.00000000000E+00 0. -1.
         -1    1    1    2    0  502 -0.24003465298E+02  0.19940168689E+02 -0.66704129901E+02  0.73642498732E+02  0.00000000000E+00 0.  1.
<mgrwt>
<rscale>  2 0.31205395E+02</rscale>
<asrwt>0</asrwt>
<pdfrwt beam="1">  1       21 0.12059102E-02 0.31205395E+02</pdfrwt>
<pdfrwt beam="2">  1       21 0.19367870E-01 0.31205395E+02</pdfrwt>
<totfact> 0.52714503E+07</totfact>
</mgrwt>
</event>
<event>
 4    1  0.7151341E+004  0.2149605E+02  0.7546771E-02  0.1717116E+00
         21   -1    0    0  503  502  0.00000000000E+00  0.00000000000E+00  0.15743928589E+03  0.15743928589E+03  0.00000000000E+00 0.  1.
         21   -1    0    0  501  503 -0.00000000000E+00 -0.00000000000E+00 -0.30559141406E+01  0.30559141406E+01  0.00000000000E+00 0.  1.
          1    1    1    2  501    0 -0.12128273400E+02  0.17747822758E+02  0.93155862057E+02  0.95603843353E+02  0.00000000000E+00 0. -1.
         -1    1    1    2    0  502  0.12128273400E+02 -0.17747822758E+02  0.61227509692E+02  0.64891356677E+02  0.00000000000E+00 0.  1.
<mgrwt>
<rscale>  2 0.21496051E+02</rscale>
<asrwt>0</asrwt>
<pdfrwt beam="1">  1       21 0.24221422E-01 0.21496051E+02</pdfrwt>
<pdfrwt beam="2">  1       21 0.47014076E-03 0.21496051E+02</pdfrwt>
<totfact> 0.13245864E+08</totfact>
</mgrwt>
</event>
<event>
 4    1  0.7151341E+004  0.2085044E+02  0.7546771E-02  0.1728926E+00
         21   -1    0    0  501  502  0.00000000000E+00  0.00000000000E+00  0.39390931699E+01  0.39390931699E+01  0.00000000000E+00 0.  1.
         21   -1    0    0  502  503 -0.00000000000E+00 -0.00000000000E+00 -0.12225710008E+03  0.12225710008E+03  0.00000000000E+00 0.  1.
          5    1    1    2  501    0 -0.20764281112E+02  0.18935809573E+01 -0.78837620692E+02  0.81548215526E+02  0.00000000000E+00 0.  1.
         -5    1    1    2    0  503  0.20764281112E+02 -0.18935809573E+01 -0.39480386215E+02  0.44647977722E+02  0.00000000000E+00 0. -1.
<mgrwt>
<rscale>  2 0.20850444E+02</rscale>
<asrwt>0</asrwt>
<pdfrwt beam="1">  1       21 0.60601438E-03 0.20850444E+02</pdfrwt>
<pdfrwt beam="2">  1       21 0.18808783E-01 0.20850444E+02</pdfrwt>
<totfact> 0.14058746E+08</totfact>
</mgrwt>
</event>
<event>
 4    1  0.7151341E+004  0.2266743E+02  0.7546771E-02  0.1696958E+00
         21   -1    0    0  501  502  0.00000000000E+00  0.00000000000E+00  0.10827540724E+04  0.10827540724E+04  0.00000000000E+00 0.  1.
         21   -1    0    0  502  503 -0.00000000000E+00 -0.00000000000E+00 -0.59819957040E+00  0.59819957040E+00  0.00000000000E+00 0.  1.
          5    1    1    2  501    0  0.20157842304E+02  0.10366956751E+02  0.29479925394E+03  0.29566943116E+03  0.00000000000E+00 0.  1.
         -5    1    1    2    0  503 -0.20157842304E+02 -0.10366956751E+02  0.78735661885E+03  0.78768284077E+03  0.00000000000E+00 0. -1.
<mgrwt>
<rscale>  2 0.22667430E+02</rscale>
<asrwt>0</asrwt>
<pdfrwt beam="1">  1       21 0.16657598E+00 0.22667430E+02</pdfrwt>
<pdfrwt beam="2">  1       21 0.92031570E-04 0.22667430E+02</pdfrwt>
<totfact> 0.27572751E+07</totfact>
</mgrwt>
</event>
<event>
 4    1  0.7151341E+004  0.4045916E+02  0.7546771E-02  0.1504859E+00
         21   -1    0    0  503  502  0.00000000000E+00  0.00000000000E+00  0.52759351354E+03  0.52759351354E+03  0.00000000000E+00 0. -1.
         21   -1    0    0  501  503 -0.00000000000E+00 -0.00000000000E+00 -0.38715434444E+01  0.38715434444E+01  0.00000000000E+00 0. -1.
          5    1    1    2  501    0  0.38879880143E+02 -0.11193667648E+02  0.38028312767E+03  0.38242934048E+03  0.00000000000E+00 0.  1.
         -5    1    1    2    0  502 -0.38879880143E+02  0.11193667648E+02  0.14343884243E+03  0.14903571651E+03  0.00000000000E+00 0. -1.
<mgrwt>
<rscale>  2 0.40459156E+02</rscale>
<asrwt>0</asrwt>
<pdfrwt beam="1">  1       21 0.81168176E-01 0.40459156E+02</pdfrwt>
<pdfrwt beam="2">  1       21 0.59562249E-03 0.40459156E+02</pdfrwt>
<totfact> 0.10103415E+07</totfact>
</mgrwt>
</event>
<event>
 4    1  0.7151341E+004  0.5713248E+02  0.7546771E-02  0.1410275E+00
         21   -1    0    0  501  502  0.00000000000E+00  0.00000000000E+00  0.75453605864E+01  0.75453605864E+01  0.00000000000E+00 0.  1.
         21   -1    0    0  502  503 -0.00000000000E+00 -0.00000000000E+00 -0.52791044182E+03  0.52791044182E+03  0.00000000000E+00 0.  1.
          3    1    1    2  501    0 -0.14148071013E+02 -0.55352976776E+02 -0.37394125259E+03  0.37828055771E+03  0.00000000000E+00 0. -1.
         -3    1    1    2    0  503  0.14148071013E+02  0.55352976776E+02 -0.14642382864E+03  0.15717524470E+03  0.00000000000E+00 0.  1.
<mgrwt>
<rscale>  2 0.57132477E+02</rscale>
<asrwt>0</asrwt>
<pdfrwt beam="1">  1       21 0.11608248E-02 0.57132477E+02</pdfrwt>
<pdfrwt beam="2">  1       21 0.81216983E-01 0.57132477E+02</pdfrwt>
<totfact> 0.37521736E+06</totfact>
</mgrwt>
</event>
<event>
 4    1  0.7151341E+004  0.2161028E+02  0.7546771E-02  0.1715080E+00
         21   -1    0    0  501  502  0.00000000000E+00  0.00000000000E+00  0.26365794684E+02  0.26365794684E+02  0.00000000000E+00 0.  1.
         21   -1    0    0  502  503 -0.00000000000E+00 -0.00000000000E+00 -0.21574644081E+02  0.21574644081E+02  0.00000000000E+00 0.  1.
          2    1    1    2  501    0 -0.20499440997E+02  0.68393734946E+01  0.12537362251E+02  0.24983786006E+02  0.00000000000E+00 0.  1.
         -2    1    1    2    0  503  0.20499440997E+02 -0.68393734946E+01 -0.77462116484E+01  0.22956652759E+02  0.00000000000E+00 0. -1.
<mgrwt>
<rscale>  2 0.21610278E+02</rscale>
<asrwt>0</asrwt>
<pdfrwt beam="1">  1       21 0.40562761E-02 0.21610278E+02</pdfrwt>
<pdfrwt beam="2">  1       21 0.33191760E-02 0.21610278E+02</pdfrwt>
<totfact> 0.13380512E+08</totfact>
</mgrwt>
</event>
<event>
 4    1  0.7151341E+004  0.3195100E+02  0.7546771E-02  0.1577473E+00
         21   -1    0    0  501  502  0.00000000000E+00  0.00000000000E+00  0.55366330149E+03  0.55366330149E+03  0.00000000000E+00 0.  1.
         21   -1    0    0  502  503 -0.00000000000E+00 -0.00000000000E+00 -0.23302536940E+01  0.23302536940E+01  0.00000000000E+00 0.  1.
          3    1    1    2  501    0  0.31556602180E+02  0.50047162499E+01  0.40267749305E+03  0.40394310210E+03  0.00000000000E+00 0. -1.
         -3    1    1    2    0  503 -0.31556602180E+02 -0.50047162499E+01  0.14865555474E+03  0.15205045308E+03  0.00000000000E+00 0.  1.
<mgrwt>
<rscale>  2 0.31950999E+02</rscale>
<asrwt>0</asrwt>
<pdfrwt beam="1">  1       21 0.85178865E-01 0.31950999E+02</pdfrwt>
<pdfrwt beam="2">  1       21 0.35850101E-03 0.31950999E+02</pdfrwt>
<totfact> 0.18824329E+07</totfact>
</mgrwt>
</event>
<event>
 4    1  0.7151341E+004  0.2521084E+02  0.7546771E-02  0.1657992E+00
         21   -1    0    0  503  502  0.00000000000E+00  0.00000000000E+00  0.12089982253E+03  0.12089982253E+03  0.00000000000E+00 0. -1.
         21   -1    0    0  501  503 -0.00000000000E+00 -0.00000000000E+00 -0.55630690090E+01  0.55630690090E+01  0.00000000000E+00 0. -1.
          3    1    1    2  501    0 -0.20807897313E+02  0.14234393035E+02  0.72496652891E+02  0.76755138044E+02  0.00000000000E+00 0.  1.
         -3    1    1    2    0  502  0.20807897313E+02 -0.14234393035E+02  0.42840100634E+02  0.49707753500E+02  0.00000000000E+00 0. -1.
<mgrwt>
<rscale>  2 0.25210842E+02</rscale>
<asrwt>0</asrwt>
<pdfrwt beam="1">  1       21 0.18599971E-01 0.25210842E+02</pdfrwt>
<pdfrwt beam="2">  1       21 0.85585686E-03 0.25210842E+02</pdfrwt>
<totfact> 0.90417855E+07</totfact>
</mgrwt>
</event>
<event>
 4    1  0.7151341E+004  0.2901906E+02  0.7546771E-02  0.1609192E+00
         21   -1    0    0  503  502  0.00000000000E+00  0.00000000000E+00  0.42959655030E+03  0.42959655030E+03  0.00000000000E+00 0. -1.
         21   -1    0    0  501  503 -0.00000000000E+00 -0.00000000000E+00 -0.20424319572E+01  0.20424319572E+01  0.00000000000E+00 0. -1.
          1    1    1    2  501    0 -0.85963854436E+01 -0.27716565583E+02  0.25707541885E+03  0.25870809192E+03  0.00000000000E+00 0.  1.
         -1    1    1    2    0  502  0.85963854436E+01  0.27716565583E+02  0.17047869949E+03  0.17293089033E+03  0.00000000000E+00 0. -1.
<mgrwt>
<rscale>  2 0.29019060E+02</rscale>
<asrwt>0</asrwt>
<pdfrwt beam="1">  1       21 0.66091705E-01 0.29019060E+02</pdfrwt>
<pdfrwt beam="2">  1       21 0.31422064E-03 0.29019060E+02</pdfrwt>
<totfact> 0.38311603E+07</totfact>
</mgrwt>
</event>
<event>
 4    1  0.7151341E+004  0.2238680E+02  0.7546771E-02  0.1701647E+00
         21   -1    0    0  503  502  0.00000000000E+00  0.00000000000E+00  0.31054494211E+02  0.31054494211E+02  0.00000000000E+00 0.  1.
         21   -1    0    0  501  503 -0.00000000000E+00 -0.00000000000E+00 -0.19119349647E+02  0.19119349647E+02  0.00000000000E+00 0.  1.
          5    1    1    2  501    0  0.21928165188E+02 -0.45082686984E+01  0.15873389998E+02  0.27443276503E+02  0.00000000000E+00 0.  1.
         -5    1    1    2    0  502 -0.21928165188E+02  0.45082686984E+01 -0.39382454338E+01  0.22730567355E+02  0.00000000000E+00 0. -1.
<mgrwt>
<rscale>  2 0.22386802E+02</rscale>
<asrwt>0</asrwt>
<pdfrwt beam="1">  1       21 0.47776145E-02 0.22386802E+02</pdfrwt>
<pdfrwt beam="2">  1       21 0.29414384E-02 0.22386802E+02</pdfrwt>
<totfact> 0.12603778E+08</totfact>
</mgrwt>
</event>
<event>
 4    1  0.7151341E+004  0.2061500E+02  0.7546771E-02  0.1733367E+00
         21   -1    0    0  503  502  0.00000000000E+00  0.00000000000E+00  0.41416562955E+03  0.41416562955E+03  0.00000000000E+00 0.  1.
         21   -1    0    0  501  503 -0.00000000000E+00 -0.00000000000E+00 -0.11012735934E+01  0.11012735934E+01  0.00000000000E+00 0.  1.
          3    1    1    2  501    0 -0.20126955994E+02 -0.44591401209E+01  0.26077744977E+03  0.26159101016E+03  0.00000000000E+00 0.  1.
         -3    1    1    2    0  502  0.20126955994E+02  0.44591401209E+01  0.15228690618E+03  0.15367589298E+03  0.00000000000E+00 0. -1.
<mgrwt>
<rscale>  2 0.20615002E+02</rscale>
<asrwt>0</asrwt>
<pdfrwt beam="1">  1       21 0.63717665E-01 0.20615002E+02</pdfrwt>
<pdfrwt beam="2">  1       21 0.16942704E-03 0.20615002E+02</pdfrwt>
<totfact> 0.93564389E+07</totfact>
</mgrwt>
</event>
<event>
 4    1  0.7151341E+004  0.3586485E+02  0.7546771E-02  0.1541052E+00
         21   -1    0    0  503  502  0.00000000000E+00  0.00000000000E+00  0.79438025098E+02  0.79438025098E+02  0.00000000000E+00 0.  1.
         21   -1    0    0  501  503 -0.00000000000E+00 -0.00000000000E+00 -0.16647039884E+02  0.16647039884E+02  0.00000000000E+00 0.  1.
          3    1    1    2  501    0 -0.42371211798E+01 -0.35613683650E+02  0.39335463609E+02  0.53231253567E+02  0.00000000000E+00 0. -1.
         -3    1    1    2    0  502  0.42371211798E+01  0.35613683650E+02  0.23455521605E+02  0.42853811415E+02  0.00000000000E+00 0.  1.
<mgrwt>
<rscale>  2 0.35864853E+02</rscale>
<asrwt>0</asrwt>
<pdfrwt beam="1">  1       21 0.12221234E-01 0.35864853E+02</pdfrwt>
<pdfrwt beam="2">  1       21 0.25610831E-02 0.35864853E+02</pdfrwt>
<totfact> 0.37516755E+07</totfact>
</mgrwt>
</event>
<event>
 4    1  0.7151341E+004  0.2318872E+02  0.7546771E-02  0.1688469E+00
         21   -1    0    0  501  502  0.00000000000E+00  0.00000000000E+00  0.12928493555E+02  0.12928493555E+02  0.00000000000E+00 0.  1.
         21   -1    0    0  502  503 -0.00000000000E+00 -0.00000000000E+00 -0.46694861765E+02  0.46694861765E+02  0.00000000000E+00 0.  1.
          1    1    1    2  501    0  0.23104086069E+02 -0.19793240503E+01 -0.26738635096E+02  0.35393094292E+02  0.00000000000E+00 0. -1.
         -1    1    1    2    0  503 -0.23104086069E+02  0.19793240503E+01 -0.70277331143E+01  0.24230261028E+02  0.00000000000E+00 0.  1.
<mgrwt>
<rscale>  2 0.23188715E+02</rscale>
<asrwt>0</asrwt>
<pdfrwt beam="1">  1       21 0.19889990E-02 0.23188715E+02</pdfrwt>
<pdfrwt beam="2">  1       21 0.71838249E-02 0.23188715E+02</pdfrwt>
<totfact> 0.12114212E+08</totfact>
</mgrwt>
</event>
<event>
 4    1  0.7151341E+004  0.3308543E+02  0.7546771E-02  0.1566291E+00
         21   -1    0    0  501  502  0.00000000000E+00  0.00000000000E+00  0.12071536099E+02  0.12071536099E+02  0.00000000000E+00 0. -1.
         21   -1    0    0  502  503 -0.00000000000E+00 -0.00000000000E+00 -0.95326318699E+02  0.95326318699E+02  0.00000000000E+00 0. -1.
          5    1    1    2  501    0  0.16414716362E+02  0.28726343108E+02 -0.29771933960E+02  0.44508580671E+02  0.00000000000E+00 0.  1.
         -5    1    1    2    0  503 -0.16414716362E+02 -0.28726343108E+02 -0.53482848640E+02  0.62889274127E+02  0.00000000000E+00 0. -1.
<mgrwt>
<rscale>  2 0.33085430E+02</rscale>
<asrwt>0</asrwt>
<pdfrwt beam="1">  1       21 0.18571595E-02 0.33085430E+02</pdfrwt>
<pdfrwt beam="2">  1       21 0.14665587E-01 0.33085430E+02</pdfrwt>
<totfact> 0.44594220E+07</totfact>
</mgrwt>
</event>
<event>
 4    1  0.7151341E+004  0.2638112E+02  0.7546771E-02  0.1641922E+00
         21   -1    0    0  503  502  0.00000000000E+00  0.00000000000E+00  0.12534307725E+04  0.12534307725E+04  0.00000000000E+00 0. -1.
         21   -1    0    0  501  503 -0.00000000000E+00 -0.00000000000E+00 -0.86495914154E+00  0.86495914154E+00  0.00000000000E+00 0. -1.
          4    1    1    2  501    0 -0.72803424923E+01 -0.25356657616E+02  0.25100639604E+03  0.25238893463E+03  0.00000000000E+00 0. -1.
         -4    1    1    2    0  502  0.72803424923E+01  0.25356657616E+02  0.10015594173E+04  0.10019067970E+04  0.00000000000E+00 0.  1.
<mgrwt>
<rscale>  2 0.26381120E+02</rscale>
<asrwt>0</asrwt>
<pdfrwt beam="1">  1       21 0.19283405E+00 0.26381120E+02</pdfrwt>
<pdfrwt beam="2">  1       21 0.13307164E-03 0.26381120E+02</pdfrwt>
<totfact> 0.11538678E+07</totfact>
</mgrwt>
</event>
<event>
 4    1  0.7151341E+004  0.2059090E+02  0.7546771E-02  0.1733826E+00
         21   -1    0    0  503  502  0.00000000000E+00  0.00000000000E+00  0.36325685218E+02  0.36325685218E+02  0.00000000000E+00 0.  1.
         21   -1    0    0  501  503 -0.00000000000E+00 -0.00000000000E+00 -0.11672045959E+02  0.11672045959E+02  0.00000000000E+00 0.  1.
          4    1    1    2  501    0 -0.19895899799E+02  0.53045613992E+01  0.12442590989E+02  0.24058330594E+02  0.00000000000E+00 0. -1.
         -4    1    1    2    0  502  0.19895899799E+02 -0.53045613992E+01  0.12211048269E+02  0.23939400583E+02  0.00000000000E+00 0.  1.
<mgrwt>
<rscale>  2 0.20590901E+02</rscale>
<asrwt>0</asrwt>
<pdfrwt beam="1">  1       21 0.55885669E-02 0.20590901E+02</pdfrwt>
<pdfrwt beam="2">  1       21 0.17956994E-02 0.20590901E+02</pdfrwt>
<totfact> 0.20444336E+08</totfact>
</mgrwt>
</event>
<event>
 4    1  0.7151341E+004  0.2807975E+02  0.7546771E-02  0.1620339E+00
         21   -1    0    0  503  502  0.00000000000E+00  0.00000000000E+00  0.61210216519E+02  0.61210216519E+02  0.00000000000E+00 0. -1.
         21   -1    0    0  501  503 -0.00000000000E+00 -0.00000000000E+00 -0.13090269221E+02  0.13090269221E+02  0.00000000000E+00 0. -1.
          3    1    1    2  501    0 -0.20374349646E+02 -0.19322478602E+02  0.28752872997E+02  0.40189550985E+02  0.00000000000E+00 0.  1.
         -3    1    1    2    0  502  0.20374349646E+02  0.19322478602E+02  0.19367074302E+02  0.34110934755E+02  0.00000000000E+00 0. -1.
<mgrwt>
<rscale>  2 0.28079749E+02</rscale>
<asrwt>0</asrwt>
<pdfrwt beam="1">  1       21 0.94169562E-02 0.28079749E+02</pdfrwt>
<pdfrwt beam="2">  1       21 0.20138876E-02 0.28079749E+02</pdfrwt>
<totfact> 0.80220738E+07</totfact>
</mgrwt>
</event>
<event>
 4    1  0.7151341E+004  0.2365844E+02  0.7546771E-02  0.1681054E+00
         21   -1    0    0  501  502  0.00000000000E+00  0.00000000000E+00  0.16232704104E+02  0.16232704104E+02  0.00000000000E+00 0. -1.
         21   -1    0    0  502  503 -0.00000000000E+00 -0.00000000000E+00 -0.64655602439E+02  0.64655602439E+02  0.00000000000E+00 0. -1.
          2    1    1    2  501    0  0.17314494298E+02 -0.16122350834E+02  0.34180199753E+01  0.23904074334E+02  0.00000000000E+00 0.  1.
         -2    1    1    2    0  503 -0.17314494298E+02  0.16122350834E+02 -0.51840918311E+02  0.56984232209E+02  0.00000000000E+00 0. -1.
<mgrwt>
<rscale>  2 0.23658443E+02</rscale>
<asrwt>0</asrwt>
<pdfrwt beam="1">  1       21 0.24973391E-02 0.23658443E+02</pdfrwt>
<pdfrwt beam="2">  1       21 0.99470157E-02 0.23658443E+02</pdfrwt>
<totfact> 0.50324837E+07</totfact>
</mgrwt>
</event>
<event>
 4    1  0.7151341E+004  0.3714269E+02  0.7546771E-02  0.1530357E+00
         21   -1    0    0  501  502  0.00000000000E+00  0.00000000000E+00  0.64929508598E+01  0.64929508598E+01  0.00000000000E+00 0.  1.
         21   -1    0    0  502  503 -0.00000000000E+00 -0.00000000000E+00 -0.21580493428E+03  0.21580493428E+03  0.00000000000E+00 0.  1.
          3    1    1    2  501    0 -0.22654394551E+02 -0.29433957767E+02 -0.90845930053E+02  0.98145618697E+02  0.00000000000E+00 0. -1.
         -3    1    1    2    0  503  0.22654394551E+02  0.29433957767E+02 -0.11846605336E+03  0.12415226644E+03  0.00000000000E+00 0.  1.
<mgrwt>
<rscale>  2 0.37142691E+02</rscale>
<asrwt>0</asrwt>
<pdfrwt beam="1">  1       21 0.99891550E-03 0.37142691E+02</pdfrwt>
<pdfrwt beam="2">  1       21 0.33200760E-01 0.37142691E+02</pdfrwt>
<totfact> 0.27293602E+07</totfact>
</mgrwt>
</event>
<event>
 4    1  0.7151341E+004  0.2305775E+02  0.7546771E-02  0.1690576E+00
         21   -1    0    0  501  502  0.00000000000E+00  0.00000000000E+00  0.15481222632E+02  0.15481222632E+02  0.00000000000E+00 0.  1.
         21   -1    0    0  502  503 -0.00000000000E+00 -0.00000000000E+00 -0.48450853789E+02  0.48450853789E+02  0.00000000000E+00 0.  1.
          1    1    1    2  501    0 -0.18658889250E+02  0.13546428641E+02  0.76483316144E+00  0.23070432305E+02  0.00000000000E+00 0. -1.
         -1    1    1    2    0  503  0.18658889250E+02 -0.13546428641E+02 -0.33734464319E+02  0.40861644116E+02  0.00000000000E+00 0.  1.
<mgrwt>
<rscale>  2 0.23057751E+02</rscale>
<asrwt>0</asrwt>
<pdfrwt beam="1">  1       21 0.23817266E-02 0.23057751E+02</pdfrwt>
<pdfrwt beam="2">  1       21 0.74539775E-02 0.23057751E+02</pdfrwt>
<totfact> 0.86316970E+07</totfact>
</mgrwt>
</event>
<event>
 4    1  0.7151341E+004  0.2297826E+02  0.7546771E-02  0.1691863E+00
         21   -1    0    0  501  502  0.00000000000E+00  0.00000000000E+00  0.32443071853E+01  0.32443071853E+01  0.00000000000E+00 0.  1.
         21   -1    0    0  502  503 -0.00000000000E+00 -0.00000000000E+00 -0.16286666554E+03  0.16286666554E+03  0.00000000000E+00 0.  1.
          4    1    1    2  501    0 -0.19086813748E+02 -0.12794295126E+02 -0.82064857715E+02  0.85221131878E+02  0.00000000000E+00 0. -1.
         -4    1    1    2    0  503  0.19086813748E+02  0.12794295126E+02 -0.77557500644E+02  0.80889840851E+02  0.00000000000E+00 0.  1.
<mgrwt>
<rscale>  2 0.22978260E+02</rscale>
<asrwt>0</asrwt>
<pdfrwt beam="1">  1       21 0.49912405E-03 0.22978260E+02</pdfrwt>
<pdfrwt beam="2">  1       21 0.25056417E-01 0.22978260E+02</pdfrwt>
<totfact> 0.11637704E+08</totfact>
</mgrwt>
</event>
<event>
 4    1  0.7151341E+004  0.2335649E+02  0.7546771E-02  0.1685796E+00
         21   -1    0    0  503  502  0.00000000000E+00  0.00000000000E+00  0.29559963168E+02  0.29559963168E+02  0.00000000000E+00 0. -1.
         21   -1    0    0  501  503 -0.00000000000E+00 -0.00000000000E+00 -0.18824678670E+02  0.18824678670E+02  0.00000000000E+00 0. -1.
          3    1    1    2  501    0  0.30593525776E+01  0.23155256905E+02  0.19768852204E+01  0.23440000761E+02  0.00000000000E+00 0.  1.
         -3    1    1    2    0  502 -0.30593525776E+01 -0.23155256905E+02  0.87583992782E+01  0.24944641077E+02  0.00000000000E+00 0. -1.
<mgrwt>
<rscale>  2 0.23356489E+02</rscale>
<asrwt>0</asrwt>
<pdfrwt beam="1">  1       21 0.45476867E-02 0.23356489E+02</pdfrwt>
<pdfrwt beam="2">  1       21 0.28961044E-02 0.23356489E+02</pdfrwt>
<totfact> 0.14141790E+08</totfact>
</mgrwt>
</event>
<event>
 4    1  0.7151341E+004  0.2033974E+02  0.7546771E-02  0.1738655E+00
         21   -1    0    0  501  502  0.00000000000E+00  0.00000000000E+00  0.42318033460E+02  0.42318033460E+02  0.00000000000E+00 0. -1.
         21   -1    0    0  502  503 -0.00000000000E+00 -0.00000000000E+00 -0.13143428230E+02  0.13143428230E+02  0.00000000000E+00 0. -1.
          5    1    1    2  501    0 -0.79508329072E+01 -0.18721356945E+02  0.55107872830E+00  0.20347202204E+02  0.00000000000E+00 0.  1.
         -5    1    1    2    0  503  0.79508329072E+01  0.18721356945E+02  0.28623526502E+02  0.35114259486E+02  0.00000000000E+00 0. -1.
<mgrwt>
<rscale>  2 0.20339738E+02</rscale>
<asrwt>0</asrwt>
<pdfrwt beam="1">  1       21 0.65104666E-02 0.20339738E+02</pdfrwt>
<pdfrwt beam="2">  1       21 0.20220659E-02 0.20339738E+02</pdfrwt>
<totfact> 0.13311576E+08</totfact>
</mgrwt>
</event>
<event>
 4    1  0.7151341E+004  0.2618260E+02  0.7546771E-02  0.1644575E+00
         21   -1    0    0  501  502  0.00000000000E+00  0.00000000000E+00  0.49858141581E+03  0.49858141581E+03  0.00000000000E+00 0.  1.
         21   -1    0    0  502  503 -0.00000000000E+00 -0.00000000000E+00 -0.14182514585E+01  0.14182514585E+01  0.00000000000E+00 0.  1.
          1    1    1    2  501    0 -0.24745179783E+02 -0.85559792298E+01  0.20490262499E+03  0.20656866759E+03  0.00000000000E+00 0.  1.
         -1    1    1    2    0  503  0.24745179783E+02  0.85559792298E+01  0.29226053936E+03  0.29343099968E+03  0.00000000000E+00 0. -1.
<mgrwt>
<rscale>  2 0.26182603E+02</rscale>
<asrwt>0</asrwt>
<pdfrwt beam="1">  1       21 0.76704693E-01 0.26182603E+02</pdfrwt>
<pdfrwt beam="2">  1       21 0.21819293E-03 0.26182603E+02</pdfrwt>
<totfact> 0.46967361E+07</totfact>
</mgrwt>
</event>
<event>
 4    1  0.7151341E+004  0.2174959E+02  0.7546771E-02  0.1712619E+00
         21   -1    0    0  501  502  0.00000000000E+00  0.00000000000E+00  0.20536451418E+01  0.20536451418E+01  0.00000000000E+00 0.  1.
         21   -1    0    0  502  503 -0.00000000000E+00 -0.00000000000E+00 -0.25678014384E+03  0.25678014384E+03  0.00000000000E+00 0.  1.
          4    1    1    2  501    0 -0.20112919406E+02 -0.82773789127E+01 -0.16888833528E+03  0.17028304179E+03  0.00000000000E+00 0. -1.
         -4    1    1    2    0  503  0.20112919406E+02  0.82773789127E+01 -0.85838163422E+02  0.88550747193E+02  0.00000000000E+00 0.  1.
<mgrwt>
<rscale>  2 0.21749587E+02</rscale>
<asrwt>0</asrwt>
<pdfrwt beam="1">  1       21 0.31594546E-03 0.21749587E+02</pdfrwt>
<pdfrwt beam="2">  1       21 0.39504631E-01 0.21749587E+02</pdfrwt>
<totfact> 0.97497026E+07</totfact>
</mgrwt>
</event>
<event>
 4    1  0.7151341E+004  0.9811195E+02  0.7546771E-02  0.1284317E+00
         21   -1    0    0  503  502  0.00000000000E+00  0.00000000000E+00  0.87295286406E+03  0.87295286406E+03  0.00000000000E+00 0. -1.
         21   -1    0    0  501  503 -0.00000000000E+00 -0.00000000000E+00 -0.11033340392E+02  0.11033340392E+02  0.00000000000E+00 0. -1.
          1    1    1    2  501    0 -0.31318438543E+02 -0.92979081055E+02  0.44164778753E+03  0.45241432596E+03  0.00000000000E+00 0. -1.
         -1    1    1    2    0  502  0.31318438543E+02  0.92979081055E+02  0.42027173614E+03  0.43157187849E+03  0.00000000000E+00 0.  1.
<mgrwt>
<rscale>  2 0.98111947E+02</rscale>
<asrwt>0</asrwt>
<pdfrwt beam="1">  1       21 0.13430039E+00 0.98111947E+02</pdfrwt>
<pdfrwt beam="2">  1       21 0.16974377E-02 0.98111947E+02</pdfrwt>
<totfact> 0.65103551E+05</totfact>
</mgrwt>
</event>
<event>
 4    1  0.7151341E+004  0.2189639E+02  0.7546771E-02  0.1710050E+00
         21   -1    0    0  503  502  0.00000000000E+00  0.00000000000E+00  0.89897434516E+02  0.89897434516E+02  0.00000000000E+00 0. -1.
         21   -1    0    0  501  503 -0.00000000000E+00 -0.00000000000E+00 -0.53904773638E+01  0.53904773638E+01  0.00000000000E+00 0. -1.
          3    1    1    2  501    0 -0.18396701220E+02  0.11874905537E+02  0.47159408531E+02  0.51994824841E+02  0.00000000000E+00 0.  1.
         -3    1    1    2    0  502  0.18396701220E+02 -0.11874905537E+02  0.37347548621E+02  0.43293087039E+02  0.00000000000E+00 0. -1.
<mgrwt>
<rscale>  2 0.21896392E+02</rscale>
<asrwt>0</asrwt>
<pdfrwt beam="1">  1       21 0.13830373E-01 0.21896392E+02</pdfrwt>
<pdfrwt beam="2">  1       21 0.82930428E-03 0.21896392E+02</pdfrwt>
<totfact> 0.15137740E+08</totfact>
</mgrwt>
</event>
<event>
 4    1  0.7151341E+004  0.2212198E+02  0.7546771E-02  0.1706151E+00
         21   -1    0    0  501  502  0.00000000000E+00  0.00000000000E+00  0.21656983024E+01  0.21656983024E+01  0.00000000000E+00 0. -1.
         21   -1    0    0  502  503 -0.00000000000E+00 -0.00000000000E+00 -0.23879238101E+03  0.23879238101E+03  0.00000000000E+00 0. -1.
          4    1    1    2  501    0 -0.15718505965E+02 -0.15566325819E+02 -0.14623188542E+03  0.14789572760E+03  0.00000000000E+00 0. -1.
         -4    1    1    2    0  503  0.15718505965E+02  0.15566325819E+02 -0.90394797281E+02  0.93062351705E+02  0.00000000000E+00 0.  1.
<mgrwt>
<rscale>  2 0.22121978E+02</rscale>
<asrwt>0</asrwt>
<pdfrwt beam="1">  1       21 0.33318439E-03 0.22121978E+02</pdfrwt>
<pdfrwt beam="2">  1       21 0.36737285E-01 0.22121978E+02</pdfrwt>
<totfact> 0.10381682E+08</totfact>
</mgrwt>
</event>
<event>
 4    1  0.7151341E+004  0.6297851E+02  0.7546771E-02  0.1385741E+00
         21   -1    0    0  503  502  0.00000000000E+00  0.00000000000E+00  0.21093730659E+03  0.21093730659E+03  0.00000000000E+00 0.  1.
         21   -1    0    0  501  503 -0.00000000000E+00 -0.00000000000E+00 -0.20485726031E+02  0.20485726031E+02  0.00000000000E+00 0.  1.
          5    1    1    2  501    0 -0.57764899704E+02 -0.25090025167E+02  0.12838726670E+03  0.14300203932E+03  0.00000000000E+00 0. -1.
         -5    1    1    2    0  502  0.57764899704E+02  0.25090025167E+02  0.62064313861E+02  0.88420993297E+02  0.00000000000E+00 0.  1.
<mgrwt>
<rscale>  2 0.62978512E+02</rscale>
<asrwt>0</asrwt>
<pdfrwt beam="1">  1       21 0.32451892E-01 0.62978512E+02</pdfrwt>
<pdfrwt beam="2">  1       21 0.31516503E-02 0.62978512E+02</pdfrwt>
<totfact> 0.50207369E+06</totfact>
</mgrwt>
</event>
<event>
 4    1  0.7151341E+004  0.2435761E+02  0.7546771E-02  0.1670404E+00
         21   -1    0    0  501  502  0.00000000000E+00  0.00000000000E+00  0.10795471551E+03  0.10795471551E+03  0.00000000000E+00 0. -1.
         21   -1    0    0  502  503 -0.00000000000E+00 -0.00000000000E+00 -0.58025620570E+01  0.58025620570E+01  0.00000000000E+00 0. -1.
          2    1    1    2  501    0 -0.11982521800E+02  0.21206421278E+02  0.64154907613E+02  0.68623212566E+02  0.00000000000E+00 0.  1.
         -2    1    1    2    0  503  0.11982521800E+02 -0.21206421278E+02  0.37997245843E+02  0.45134065003E+02  0.00000000000E+00 0. -1.
<mgrwt>
<rscale>  2 0.24357609E+02</rscale>
<asrwt>0</asrwt>
<pdfrwt beam="1">  1       21 0.16608416E-01 0.24357609E+02</pdfrwt>
<pdfrwt beam="2">  1       21 0.89270193E-03 0.24357609E+02</pdfrwt>
<totfact> 0.10233628E+08</totfact>
</mgrwt>
</event>
<event>
 4    1  0.7151341E+004  0.2051975E+02  0.7546771E-02  0.1735186E+00
         21   -1    0    0  503  502  0.00000000000E+00  0.00000000000E+00  0.37599181260E+01  0.37599181260E+01  0.00000000000E+00 0. -1.
         21   -1    0    0  501  503 -0.00000000000E+00 -0.00000000000E+00 -0.13898487105E+03  0.13898487105E+03  0.00000000000E+00 0. -1.
          2    1    1    2  501    0 -0.20051553806E+02  0.43583438711E+01 -0.36155607147E+02  0.41572682131E+02  0.00000000000E+00 0. -1.
         -2    1    1    2    0  502  0.20051553806E+02 -0.43583438711E+01 -0.99069345777E+02  0.10117210705E+03  0.00000000000E+00 0.  1.
<mgrwt>
<rscale>  2 0.20519746E+02</rscale>
<asrwt>0</asrwt>
<pdfrwt beam="1">  1       21 0.57844898E-03 0.20519746E+02</pdfrwt>
<pdfrwt beam="2">  1       21 0.21382286E-01 0.20519746E+02</pdfrwt>
<totfact> 0.11994519E+08</totfact>
</mgrwt>
</event>
<event>
 4    1  0.7151341E+004  0.2853721E+02  0.7546771E-02  0.1614844E+00
         21   -1    0    0  503  502  0.00000000000E+00  0.00000000000E+00  0.12360771035E+03  0.12360771035E+03  0.00000000000E+00 0.  1.
         21   -1    0    0  501  503 -0.00000000000E+00 -0.00000000000E+00 -0.10230563158E+02  0.10230563158E+02  0.00000000000E+00 0.  1.
          1    1    1    2  501    0  0.27148324044E+02 -0.87943539903E+01  0.16760108920E+02  0.33094915191E+02  0.00000000000E+00 0. -1.
         -1    1    1    2    0  502 -0.27148324044E+02  0.87943539903E+01  0.96617038268E+02  0.10074335831E+03  0.00000000000E+00 0.  1.
<mgrwt>
<rscale>  2 0.28537207E+02</rscale>
<asrwt>0</asrwt>
<pdfrwt beam="1">  1       21 0.19016570E-01 0.28537207E+02</pdfrwt>
<pdfrwt beam="2">  1       21 0.15739329E-02 0.28537207E+02</pdfrwt>
<totfact> 0.35543487E+07</totfact>
</mgrwt>
</event>
<event>
 4    1  0.7151341E+004  0.2821189E+02  0.7546771E-02  0.1618739E+00
         21   -1    0    0  501  502  0.00000000000E+00  0.00000000000E+00  0.12652305855E+03  0.12652305855E+03  0.00000000000E+00 0.  1.
         21   -1    0    0  502  503 -0.00000000000E+00 -0.00000000000E+00 -0.64564415707E+01  0.64564415707E+01  0.00000000000E+00 0.  1.
          5    1    1    2  501    0  0.24104432573E+02 -0.14659018281E+02  0.70688416524E+02  0.76110201138E+02  0.00000000000E+00 0. -1.
         -5    1    1    2    0  503 -0.24104432573E+02  0.14659018281E+02  0.49378200459E+02  0.56869298987E+02  0.00000000000E+00 0.  1.
<mgrwt>
<rscale>  2 0.28211886E+02</rscale>
<asrwt>0</asrwt>
<pdfrwt beam="1">  1       21 0.19465084E-01 0.28211886E+02</pdfrwt>
<pdfrwt beam="2">  1       21 0.99329880E-03 0.28211886E+02</pdfrwt>
<totfact> 0.68596650E+07</totfact>
</mgrwt>
</event>
<event>
 4    1  0.7151341E+004  0.2317354E+02  0.7546771E-02  0.1688712E+00
         21   -1    0    0  503  502  0.00000000000E+00  0.00000000000E+00  0.13539875403E+01  0.13539875403E+01  0.00000000000E+00 0.  1.
         21   -1    0    0  501  503 -0.00000000000E+00 -0.00000000000E+00 -0.45851013459E+03  0.45851013459E+03  0.00000000000E+00 0.  1.
          1    1    1    2  501    0 -0.35173278345E+00  0.23170867302E+02 -0.31305743560E+03  0.31391395444E+03  0.00000000000E+00 0.  1.
         -1    1    1    2    0  502  0.35173278345E+00 -0.23170867302E+02 -0.14409871145E+03  0.14595016770E+03  0.00000000000E+00 0. -1.
<mgrwt>
<rscale>  2 0.23173537E+02</rscale>
<asrwt>0</asrwt>
<pdfrwt beam="1">  1       21 0.20830559E-03 0.23173537E+02</pdfrwt>
<pdfrwt beam="2">  1       21 0.70540085E-01 0.23173537E+02</pdfrwt>
<totfact> 0.58189274E+07</totfact>
</mgrwt>
</event>
<event>
 4    1  0.7151341E+004  0.2285139E+02  0.7546771E-02  0.1693930E+00
         21   -1    0    0  501  502  0.00000000000E+00  0.00000000000E+00  0.36005421291E+02  0.36005421291E+02  0.00000000000E+00 0. -1.
         21   -1    0    0  502  503 -0.00000000000E+00 -0.00000000000E+00 -0.16024672277E+02  0.16024672277E+02  0.00000000000E+00 0. -1.
          5    1    1    2  501    0 -0.81258044383E+01  0.21357837756E+02  0.18007032316E+02  0.29093627210E+02  0.00000000000E+00 0.  1.
         -5    1    1    2    0  503  0.81258044383E+01 -0.21357837756E+02  0.19737166983E+01  0.22936466358E+02  0.00000000000E+00 0. -1.
<mgrwt>
<rscale>  2 0.22851388E+02</rscale>
<asrwt>0</asrwt>
<pdfrwt beam="1">  1       21 0.55392956E-02 0.22851388E+02</pdfrwt>
<pdfrwt beam="2">  1       21 0.24653342E-02 0.22851388E+02</pdfrwt>
<totfact> 0.13172522E+08</totfact>
</mgrwt>
</event>
<event>
 4    1  0.7151341E+004  0.2612221E+02  0.7546771E-02  0.1645387E+00
         21   -1    0    0  503  502  0.00000000000E+00  0.00000000000E+00  0.61331304025E+01  0.61331304025E+01  0.00000000000E+00 0.  1.
         21   -1    0    0  501  503 -0.00000000000E+00 -0.00000000000E+00 -0.14139319513E+03  0.14139319513E+03  0.00000000000E+00 0.  1.
          4    1    1    2  501    0 -0.13703710531E+02  0.22239112961E+02 -0.10168265174E+03  0.10498443452E+03  0.00000000000E+00 0. -1.
         -4    1    1    2    0  502  0.13703710531E+02 -0.22239112961E+02 -0.33577412992E+02  0.42541891012E+02  0.00000000000E+00 0.  1.
<mgrwt>
<rscale>  2 0.26122209E+02</rscale>
<asrwt>0</asrwt>
<pdfrwt beam="1">  1       21 0.94355845E-03 0.26122209E+02</pdfrwt>
<pdfrwt beam="2">  1       21 0.21752801E-01 0.26122209E+02</pdfrwt>
<totfact> 0.59849186E+07</totfact>
</mgrwt>
</event>
<event>
 4    1  0.7151341E+004  0.2293556E+02  0.7546771E-02  0.1692557E+00
         21   -1    0    0  503  502  0.00000000000E+00  0.00000000000E+00  0.45410569248E+03  0.45410569248E+03  0.00000000000E+00 0. -1.
         21   -1    0    0  501  503 -0.00000000000E+00 -0.00000000000E+00 -0.16134683396E+01  0.16134683396E+01  0.00000000000E+00 0. -1.
          1    1    1    2  501    0 -0.21537051112E+02  0.78864087138E+01  0.34725609485E+03  0.34801269434E+03  0.00000000000E+00 0. -1.
         -1    1    1    2    0  502  0.21537051112E+02 -0.78864087138E+01  0.10523612929E+03  0.10770646648E+03  0.00000000000E+00 0.  1.
<mgrwt>
<rscale>  2 0.22935562E+02</rscale>
<asrwt>0</asrwt>
<pdfrwt beam="1">  1       21 0.69862313E-01 0.22935562E+02</pdfrwt>
<pdfrwt beam="2">  1       21 0.24822626E-03 0.22935562E+02</pdfrwt>
<totfact> 0.45935363E+07</totfact>
</mgrwt>
</event>
<event>
 4    1  0.7151341E+004  0.2091219E+02  0.7546771E-02  0.1727774E+00
         21   -1    0    0  501  502  0.00000000000E+00  0.00000000000E+00  0.38965631261E+02  0.38965631261E+02  0.00000000000E+00 0.  1.
         21   -1    0    0  502  503 -0.00000000000E+00 -0.00000000000E+00 -0.17217798642E+02  0.17217798642E+02  0.00000000000E+00 0.  1.
          4    1    1    2  501    0  0.18700990491E+02  0.93591051634E+01  0.27449496238E+02  0.34507893858E+02  0.00000000000E+00 0.  1.
         -4    1    1    2    0  503 -0.18700990491E+02 -0.93591051634E+01 -0.57016636189E+01  0.21675536045E+02  0.00000000000E+00 0. -1.
<mgrwt>
<rscale>  2 0.20912195E+02</rscale>
<asrwt>0</asrwt>
<pdfrwt beam="1">  1       21 0.59947125E-02 0.20912195E+02</pdfrwt>
<pdfrwt beam="2">  1       21 0.26488921E-02 0.20912195E+02</pdfrwt>
<totfact> 0.10119975E+08</totfact>
</mgrwt>
</event>
<event>
 4    1  0.7151341E+004  0.2056734E+02  0.7546771E-02  0.1734276E+00
         21   -1    0    0  501  502  0.00000000000E+00  0.00000000000E+00  0.36877361660E+02  0.36877361660E+02  0.00000000000E+00 0. -1.
         21   -1    0    0  502  503 -0.00000000000E+00 -0.00000000000E+00 -0.11586558848E+02  0.11586558848E+02  0.00000000000E+00 0. -1.
          3    1    1    2  501    0 -0.89006069854E+00  0.20548075230E+02  0.10224105931E+02  0.22968411912E+02  0.00000000000E+00 0.  1.
         -3    1    1    2    0  503  0.89006069854E+00 -0.20548075230E+02  0.15066696882E+02  0.25495508597E+02  0.00000000000E+00 0. -1.
<mgrwt>
<rscale>  2 0.20567343E+02</rscale>
<asrwt>0</asrwt>
<pdfrwt beam="1">  1       21 0.56734402E-02 0.20567343E+02</pdfrwt>
<pdfrwt beam="2">  1       21 0.17825475E-02 0.20567343E+02</pdfrwt>
<totfact> 0.20176202E+08</totfact>
</mgrwt>
</event>
<event>
 4    1  0.7151341E+004  0.3064202E+02  0.7546771E-02  0.1591099E+00
         21   -1    0    0  501  502  0.00000000000E+00  0.00000000000E+00  0.25920193427E+03  0.25920193427E+03  0.00000000000E+00 0.  1.
         21   -1    0    0  502  503 -0.00000000000E+00 -0.00000000000E+00 -0.36452049411E+01  0.36452049411E+01  0.00000000000E+00 0.  1.
          4    1    1    2  501    0 -0.30499350959E+02 -0.29534617075E+01  0.13817319185E+03  0.14153008264E+03  0.00000000000E+00 0. -1.
         -4    1    1    2    0  503  0.30499350959E+02  0.29534617075E+01  0.11738353748E+03  0.12131705658E+03  0.00000000000E+00 0.  1.
<mgrwt>
<rscale>  2 0.30642019E+02</rscale>
<asrwt>0</asrwt>
<pdfrwt beam="1">  1       21 0.39877206E-01 0.30642019E+02</pdfrwt>
<pdfrwt beam="2">  1       21 0.56080096E-03 0.30642019E+02</pdfrwt>
<totfact> 0.44527824E+07</totfact>
</mgrwt>
</event>
<event>
 4    1  0.7151341E+004  0.2471015E+02  0.7546771E-02  0.1665200E+00
         21   -1    0    0  501  502  0.00000000000E+00  0.00000000000E+00  0.64662728351E+02  0.64662728351E+02  0.00000000000E+00 0.  1.
         21   -1    0    0  502  503 -0.00000000000E+00 -0.00000000000E+00 -0.12156620917E+02  0.12156620917E+02  0.00000000000E+00 0.  1.
          3    1    1    2  501    0 -0.24212684411E+02  0.49333204674E+01  0.44401170178E+02  0.50813931657E+02  0.00000000000E+00 0.  1.
         -3    1    1    2    0  503  0.24212684411E+02 -0.49333204674E+01  0.81049372560E+01  0.26005417612E+02  0.00000000000E+00 0. -1.
<mgrwt>
<rscale>  2 0.24710155E+02</rscale>
<asrwt>0</asrwt>
<pdfrwt beam="1">  1       21 0.99481118E-02 0.24710155E+02</pdfrwt>
<pdfrwt beam="2">  1       21 0.18702494E-02 0.24710155E+02</pdfrwt>
<totfact> 0.79468607E+07</totfact>
</mgrwt>
</event>
<event>
 4    1  0.7151341E+004  0.2251926E+02  0.7546771E-02  0.1699423E+00
         21   -1    0    0  503  502  0.00000000000E+00  0.00000000000E+00  0.23484943486E+01  0.23484943486E+01  0.00000000000E+00 0. -1.
         21   -1    0    0  501  503 -0.00000000000E+00 -0.00000000000E+00 -0.21903032626E+03  0.21903032626E+03  0.00000000000E+00 0. -1.
          2    1    1    2  501    0 -0.22170766837E+02  0.39464134530E+01 -0.95177826254E+02  0.97805601535E+02  0.00000000000E+00 0. -1.
         -2    1    1    2    0  502  0.22170766837E+02 -0.39464134530E+01 -0.12150400566E+03  0.12357321907E+03  0.00000000000E+00 0.  1.
<mgrwt>
<rscale>  2 0.22519260E+02</rscale>
<asrwt>0</asrwt>
<pdfrwt beam="1">  1       21 0.36130676E-03 0.22519260E+02</pdfrwt>
<pdfrwt beam="2">  1       21 0.33696979E-01 0.22519260E+02</pdfrwt>
<totfact> 0.10874359E+08</totfact>
</mgrwt>
</event>
<event>
 4    1  0.7151341E+004  0.2110873E+02  0.7546771E-02  0.1724138E+00
         21   -1    0    0  503  502  0.00000000000E+00  0.00000000000E+00  0.79428730521E+03  0.79428730521E+03  0.00000000000E+00 0.  1.
         21   -1    0    0  501  503 -0.00000000000E+00 -0.00000000000E+00 -0.65457037399E+00  0.65457037399E+00  0.00000000000E+00 0.  1.
          2    1    1    2  501    0 -0.10949045072E+02  0.18047077778E+02  0.24652127201E+03  0.24742335411E+03  0.00000000000E+00 0.  1.
         -2    1    1    2    0  502  0.10949045072E+02 -0.18047077778E+02  0.54711146282E+03  0.54751852147E+03  0.00000000000E+00 0. -1.
<mgrwt>
<rscale>  2 0.21108733E+02</rscale>
<asrwt>0</asrwt>
<pdfrwt beam="1">  1       21 0.12219728E+00 0.21108733E+02</pdfrwt>
<pdfrwt beam="2">  1       21 0.10070377E-03 0.21108733E+02</pdfrwt>
<totfact> 0.49406985E+07</totfact>
</mgrwt>
</event>
<event>
 4    1  0.7151341E+004  0.3089363E+02  0.7546771E-02  0.1588416E+00
         21   -1    0    0  503  502  0.00000000000E+00  0.00000000000E+00  0.47682848835E+02  0.47682848835E+02  0.00000000000E+00 0.  1.
         21   -1    0    0  501  503 -0.00000000000E+00 -0.00000000000E+00 -0.28285586227E+02  0.28285586227E+02  0.00000000000E+00 0.  1.
          5    1    1    2  501    0  0.12281353846E+02  0.28347566796E+02  0.30236932743E+02  0.43228327486E+02  0.00000000000E+00 0.  1.
         -5    1    1    2    0  502 -0.12281353846E+02 -0.28347566796E+02 -0.10839670135E+02  0.32740107577E+02  0.00000000000E+00 0. -1.
<mgrwt>
<rscale>  2 0.30893627E+02</rscale>
<asrwt>0</asrwt>
<pdfrwt beam="1">  1       21 0.73358229E-02 0.30893627E+02</pdfrwt>
<pdfrwt beam="2">  1       21 0.43516286E-02 0.30893627E+02</pdfrwt>
<totfact> 0.36902814E+07</totfact>
</mgrwt>
</event>
<event>
 4    1  0.7151341E+004  0.2502038E+02  0.7546771E-02  0.1660709E+00
         21   -1    0    0  501  502  0.00000000000E+00  0.00000000000E+00  0.11209134294E+02  0.11209134294E+02  0.00000000000E+00 0. -1.
         21   -1    0    0  502  503 -0.00000000000E+00 -0.00000000000E+00 -0.58111840168E+02  0.58111840168E+02  0.00000000000E+00 0. -1.
          1    1    1    2  501    0  0.17669182688E+02  0.17714951844E+02 -0.16611855374E+02  0.30032869904E+02  0.00000000000E+00 0. -1.
         -1    1    1    2    0  503 -0.17669182688E+02 -0.17714951844E+02 -0.30290850500E+02  0.39288104558E+02  0.00000000000E+00 0.  1.
<mgrwt>
<rscale>  2 0.25020382E+02</rscale>
<asrwt>0</asrwt>
<pdfrwt beam="1">  1       21 0.17244822E-02 0.25020382E+02</pdfrwt>
<pdfrwt beam="2">  1       21 0.89402829E-02 0.25020382E+02</pdfrwt>
<totfact> 0.10773099E+08</totfact>
</mgrwt>
</event>
<event>
 4    1  0.7151341E+004  0.2167059E+02  0.7546771E-02  0.1714012E+00
         21   -1    0    0  503  502  0.00000000000E+00  0.00000000000E+00  0.63870599419E+03  0.63870599419E+03  0.00000000000E+00 0.  1.
         21   -1    0    0  501  503 -0.00000000000E+00 -0.00000000000E+00 -0.12165345266E+01  0.12165345266E+01  0.00000000000E+00 0.  1.
          1    1    1    2  501    0 -0.87757094498E+01  0.19814176710E+02  0.11749661064E+03  0.11947831680E+03  0.00000000000E+00 0. -1.
         -1    1    1    2    0  502  0.87757094498E+01 -0.19814176710E+02  0.51999284902E+03  0.52044421191E+03  0.00000000000E+00 0.  1.
<mgrwt>
<rscale>  2 0.21670595E+02</rscale>
<asrwt>0</asrwt>
<pdfrwt beam="1">  1       21 0.98262193E-01 0.21670595E+02</pdfrwt>
<pdfrwt beam="2">  1       21 0.18715967E-03 0.21670595E+02</pdfrwt>
<totfact> 0.33234833E+07</totfact>
</mgrwt>
</event>
<event>
 4    1  0.7151341E+004  0.2138656E+02  0.7546771E-02  0.1719082E+00
         21   -1    0    0  503  502  0.00000000000E+00  0.00000000000E+00  0.58731049887E+03  0.58731049887E+03  0.00000000000E+00 0.  1.
         21   -1    0    0  501  503 -0.00000000000E+00 -0.00000000000E+00 -0.81739543834E+00  0.81739543834E+00  0.00000000000E+00 0.  1.
          2    1    1    2  501    0  0.69398530707E+01 -0.20229274720E+02  0.22933027535E+03  0.23032533579E+03  0.00000000000E+00 0.  1.
         -2    1    1    2    0  502 -0.69398530707E+01  0.20229274720E+02  0.35716282809E+03  0.35780255852E+03  0.00000000000E+00 0. -1.
<mgrwt>
<rscale>  2 0.21386564E+02</rscale>
<asrwt>0</asrwt>
<pdfrwt beam="1">  1       21 0.90355124E-01 0.21386564E+02</pdfrwt>
<pdfrwt beam="2">  1       21 0.12575361E-03 0.21386564E+02</pdfrwt>
<totfact> 0.70169762E+07</totfact>
</mgrwt>
</event>
<event>
 4    1  0.7151341E+004  0.2302464E+02  0.7546771E-02  0.1691111E+00
         21   -1    0    0  501  502  0.00000000000E+00  0.00000000000E+00  0.44428029942E+03  0.44428029942E+03  0.00000000000E+00 0.  1.
         21   -1    0    0  502  503 -0.00000000000E+00 -0.00000000000E+00 -0.11980685857E+01  0.11980685857E+01  0.00000000000E+00 0.  1.
          2    1    1    2  501    0  0.20560731694E+02  0.10362923388E+02  0.20740336670E+03  0.20867747935E+03  0.00000000000E+00 0.  1.
         -2    1    1    2    0  503 -0.20560731694E+02 -0.10362923388E+02  0.23567886413E+03  0.23680088865E+03  0.00000000000E+00 0. -1.
<mgrwt>
<rscale>  2 0.23024636E+02</rscale>
<asrwt>0</asrwt>
<pdfrwt beam="1">  1       21 0.68350684E-01 0.23024636E+02</pdfrwt>
<pdfrwt beam="2">  1       21 0.18431860E-03 0.23024636E+02</pdfrwt>
<totfact> 0.73945077E+07</totfact>
</mgrwt>
</event>
<event>
 4    1  0.7151341E+004  0.2109775E+02  0.7546771E-02  0.1724340E+00
         21   -1    0    0  503  502  0.00000000000E+00  0.00000000000E+00  0.15810304684E+02  0.15810304684E+02  0.00000000000E+00 0. -1.
         21   -1    0    0  501  503 -0.00000000000E+00 -0.00000000000E+00 -0.34503771989E+02  0.34503771989E+02  0.00000000000E+00 0. -1.
          5    1    1    2  501    0  0.15960889830E+02 -0.13797282772E+02  0.14457958825E+01  0.21147230121E+02  0.00000000000E+00 0. -1.
         -5    1    1    2    0  502 -0.15960889830E+02  0.13797282772E+02 -0.20139263188E+02  0.29166846552E+02  0.00000000000E+00 0.  1.
<mgrwt>
<rscale>  2 0.21097749E+02</rscale>
<asrwt>0</asrwt>
<pdfrwt beam="1">  1       21 0.24323546E-02 0.21097749E+02</pdfrwt>
<pdfrwt beam="2">  1       21 0.53082726E-02 0.21097749E+02</pdfrwt>
<totfact> 0.14050678E+08</totfact>
</mgrwt>
</event>
<event>
 4    1  0.7151341E+004  0.2379003E+02  0.7546771E-02  0.1679015E+00
         21   -1    0    0  503  502  0.00000000000E+00  0.00000000000E+00  0.73023869334E+02  0.73023869334E+02  0.00000000000E+00 0.  1.
         21   -1    0    0  501  503 -0.00000000000E+00 -0.00000000000E+00 -0.10303025203E+02  0.10303025203E+02  0.00000000000E+00 0.  1.
          1    1    1    2  501    0 -0.18492393288E+02 -0.14966518758E+02  0.10622508065E+02  0.26053847524E+02  0.00000000000E+00 0. -1.
         -1    1    1    2    0  502  0.18492393288E+02  0.14966518758E+02  0.52098336066E+02  0.57273047013E+02  0.00000000000E+00 0.  1.
<mgrwt>
<rscale>  2 0.23790025E+02</rscale>
<asrwt>0</asrwt>
<pdfrwt beam="1">  1       21 0.11234441E-01 0.23790025E+02</pdfrwt>
<pdfrwt beam="2">  1       21 0.15850808E-02 0.23790025E+02</pdfrwt>
<totfact> 0.82757114E+07</totfact>
</mgrwt>
</event>
<event>
 4    1  0.7151341E+004  0.2053765E+02  0.7546771E-02  0.1734843E+00
         21   -1    0    0  503  502  0.00000000000E+00  0.00000000000E+00  0.17108760295E+02  0.17108760295E+02  0.00000000000E+00 0. -1.
         21   -1    0    0  501  503 -0.00000000000E+00 -0.00000000000E+00 -0.43568324169E+02  0.43568324169E+02  0.00000000000E+00 0. -1.
          3    1    1    2  501    0  0.96389790352E+01 -0.18135195262E+02 -0.33219537418E+02  0.39055510370E+02  0.00000000000E+00 0.  1.
         -3    1    1    2    0  502 -0.96389790352E+01  0.18135195262E+02  0.67599735435E+01  0.21621574095E+02  0.00000000000E+00 0. -1.
<mgrwt>
<rscale>  2 0.20537654E+02</rscale>
<asrwt>0</asrwt>
<pdfrwt beam="1">  1       21 0.26321169E-02 0.20537654E+02</pdfrwt>
<pdfrwt beam="2">  1       21 0.67028192E-02 0.20537654E+02</pdfrwt>
<totfact> 0.84991444E+07</totfact>
</mgrwt>
</event>
<event>
 4    1  0.7151341E+004  0.2528444E+02  0.7546771E-02  0.1656950E+00
         21   -1    0    0  501  502  0.00000000000E+00  0.00000000000E+00  0.92614958288E+01  0.92614958288E+01  0.00000000000E+00 0.  1.
         21   -1    0    0  502  503 -0.00000000000E+00 -0.00000000000E+00 -0.75928774181E+02  0.75928774181E+02  0.00000000000E+00 0.  1.
          1    1    1    2  501    0 -0.24574593112E+02  0.59491563473E+01 -0.20492491773E+02  0.32546049022E+02  0.00000000000E+00 0.  1.
         -1    1    1    2    0  503  0.24574593112E+02 -0.59491563473E+01 -0.46174786579E+02  0.52644220988E+02  0.00000000000E+00 0. -1.
<mgrwt>
<rscale>  2 0.25284444E+02</rscale>
<asrwt>0</asrwt>
<pdfrwt beam="1">  1       21 0.14248455E-02 0.25284444E+02</pdfrwt>
<pdfrwt beam="2">  1       21 0.11681350E-01 0.25284444E+02</pdfrwt>
<totfact> 0.92683889E+07</totfact>
</mgrwt>
</event>
<event>
 4    1  0.7151341E+004  0.2123050E+02  0.7546771E-02  0.1721910E+00
         21   -1    0    0  501  502  0.00000000000E+00  0.00000000000E+00  0.34319611147E+02  0.34319611147E+02  0.00000000000E+00 0.  1.
         21   -1    0    0  502  503 -0.00000000000E+00 -0.00000000000E+00 -0.13154132252E+02  0.13154132252E+02  0.00000000000E+00 0.  1.
          1    1    1    2  501    0  0.49076161554E+01 -0.20655497184E+02  0.96410970413E+01  0.23317054111E+02  0.00000000000E+00 0.  1.
         -1    1    1    2    0  503 -0.49076161554E+01  0.20655497184E+02  0.11524381854E+02  0.24156689288E+02  0.00000000000E+00 0. -1.
<mgrwt>
<rscale>  2 0.21230503E+02</rscale>
<asrwt>0</asrwt>
<pdfrwt beam="1">  1       21 0.52799401E-02 0.21230503E+02</pdfrwt>
<pdfrwt beam="2">  1       21 0.20237127E-02 0.21230503E+02</pdfrwt>
<totfact> 0.18830667E+08</totfact>
</mgrwt>
</event>
<event>
 4    1  0.7151341E+004  0.2413848E+02  0.7546771E-02  0.1673694E+00
         21   -1    0    0  501  502  0.00000000000E+00  0.00000000000E+00  0.86627279218E+02  0.86627279218E+02  0.00000000000E+00 0.  1.
         21   -1    0    0  502  503 -0.00000000000E+00 -0.00000000000E+00 -0.10573128631E+02  0.10573128631E+02  0.00000000000E+00 0.  1.
          2    1    1    2  501    0 -0.21045084955E+02  0.11822466808E+02  0.67342579095E+02  0.71538026820E+02  0.00000000000E+00 0. -1.
         -2    1    1    2    0  503  0.21045084955E+02 -0.11822466808E+02  0.87115714917E+01  0.25662381028E+02  0.00000000000E+00 0.  1.
<mgrwt>
<rscale>  2 0.24138482E+02</rscale>
<asrwt>0</asrwt>
<pdfrwt beam="1">  1       21 0.13327273E-01 0.24138482E+02</pdfrwt>
<pdfrwt beam="2">  1       21 0.16266352E-02 0.24138482E+02</pdfrwt>
<totfact> 0.59942351E+07</totfact>
</mgrwt>
</event>
<event>
 4    1  0.7151341E+004  0.3265776E+02  0.7546771E-02  0.1570441E+00
         21   -1    0    0  501  502  0.00000000000E+00  0.00000000000E+00  0.58036049956E+01  0.58036049956E+01  0.00000000000E+00 0.  1.
         21   -1    0    0  502  503 -0.00000000000E+00 -0.00000000000E+00 -0.20333662232E+03  0.20333662232E+03  0.00000000000E+00 0.  1.
          1    1    1    2  501    0  0.30943056726E+02 -0.10443026199E+02 -0.66328389063E+02  0.73932298432E+02  0.00000000000E+00 0.  1.
         -1    1    1    2    0  503 -0.30943056726E+02  0.10443026199E+02 -0.13120462826E+03  0.13520792888E+03  0.00000000000E+00 0. -1.
<mgrwt>
<rscale>  2 0.32657764E+02</rscale>
<asrwt>0</asrwt>
<pdfrwt beam="1">  1       21 0.89286236E-03 0.32657764E+02</pdfrwt>
<pdfrwt beam="2">  1       21 0.31282556E-01 0.32657764E+02</pdfrwt>
<totfact> 0.35348833E+07</totfact>
</mgrwt>
</event>
<event>
 4    1  0.7151341E+004  0.2045162E+02  0.7546771E-02  0.1736493E+00
         21   -1    0    0  503  502  0.00000000000E+00  0.00000000000E+00  0.17188460524E+02  0.17188460524E+02  0.00000000000E+00 0. -1.
         21   -1    0    0  501  503 -0.00000000000E+00 -0.00000000000E+00 -0.27415780351E+02  0.27415780351E+02  0.00000000000E+00 0. -1.
          3    1    1    2  501    0 -0.12164844142E+02  0.16440355122E+02  0.23633400456E+01  0.20587716865E+02  0.00000000000E+00 0. -1.
         -3    1    1    2    0  502  0.12164844142E+02 -0.16440355122E+02 -0.12590659872E+02  0.24016524010E+02  0.00000000000E+00 0.  1.
<mgrwt>
<rscale>  2 0.20451619E+02</rscale>
<asrwt>0</asrwt>
<pdfrwt beam="1">  1       21 0.26443786E-02 0.20451619E+02</pdfrwt>
<pdfrwt beam="2">  1       21 0.42178123E-02 0.20451619E+02</pdfrwt>
<totfact> 0.17598121E+08</totfact>
</mgrwt>
</event>
<event>
 4    1  0.7151341E+004  0.2470278E+02  0.7546771E-02  0.1665308E+00
         21   -1    0    0  501  502  0.00000000000E+00  0.00000000000E+00  0.43494782846E+01  0.43494782846E+01  0.00000000000E+00 0.  1.
         21   -1    0    0  502  503 -0.00000000000E+00 -0.00000000000E+00 -0.14907031294E+03  0.14907031294E+03  0.00000000000E+00 0.  1.
          1    1    1    2  501    0  0.24182670230E+02  0.50424006091E+01 -0.53752886720E+02  0.59157418588E+02  0.00000000000E+00 0.  1.
         -1    1    1    2    0  503 -0.24182670230E+02 -0.50424006091E+01 -0.90967947931E+02  0.94262372631E+02  0.00000000000E+00 0. -1.
<mgrwt>
<rscale>  2 0.24702780E+02</rscale>
<asrwt>0</asrwt>
<pdfrwt beam="1">  1       21 0.66915068E-03 0.24702780E+02</pdfrwt>
<pdfrwt beam="2">  1       21 0.22933888E-01 0.24702780E+02</pdfrwt>
<totfact> 0.89951392E+07</totfact>
</mgrwt>
</event>
<event>
 4    1  0.7151341E+004  0.2065768E+02  0.7546771E-02  0.1732557E+00
         21   -1    0    0  503  502  0.00000000000E+00  0.00000000000E+00  0.41932971128E+03  0.41932971128E+03  0.00000000000E+00 0.  1.
         21   -1    0    0  501  503 -0.00000000000E+00 -0.00000000000E+00 -0.13351399752E+01  0.13351399752E+01  0.00000000000E+00 0.  1.
          3    1    1    2  501    0  0.15540028069E+02  0.13610556626E+02  0.10643364825E+03  0.10841983769E+03  0.00000000000E+00 0. -1.
         -3    1    1    2    0  502 -0.15540028069E+02 -0.13610556626E+02  0.31156092305E+03  0.31224501357E+03  0.00000000000E+00 0.  1.
<mgrwt>
<rscale>  2 0.20657680E+02</rscale>
<asrwt>0</asrwt>
<pdfrwt beam="1">  1       21 0.64512158E-01 0.20657680E+02</pdfrwt>
<pdfrwt beam="2">  1       21 0.20540648E-03 0.20657680E+02</pdfrwt>
<totfact> 0.69245963E+07</totfact>
</mgrwt>
</event>
<event>
 4    1  0.7151341E+004  0.2451759E+02  0.7546771E-02  0.1668029E+00
         21   -1    0    0  503  502  0.00000000000E+00  0.00000000000E+00  0.83629379442E+02  0.83629379442E+02  0.00000000000E+00 0.  1.
         21   -1    0    0  501  503 -0.00000000000E+00 -0.00000000000E+00 -0.71897381597E+01  0.71897381597E+01  0.00000000000E+00 0.  1.
          5    1    1    2  501    0  0.97235910458E+01  0.22506972530E+02  0.38963585576E+02  0.46035562734E+02  0.00000000000E+00 0. -1.
         -5    1    1    2    0  502 -0.97235910458E+01 -0.22506972530E+02  0.37476055706E+02  0.44783554868E+02  0.00000000000E+00 0.  1.
<mgrwt>
<rscale>  2 0.24517586E+02</rscale>
<asrwt>0</asrwt>
<pdfrwt beam="1">  1       21 0.12866058E-01 0.24517586E+02</pdfrwt>
<pdfrwt beam="2">  1       21 0.11061136E-02 0.24517586E+02</pdfrwt>
<totfact> 0.11471705E+08</totfact>
</mgrwt>
</event>
<event>
 4    1  0.7151341E+004  0.2366522E+02  0.7546771E-02  0.1680949E+00
         21   -1    0    0  503  502  0.00000000000E+00  0.00000000000E+00  0.21539800125E+01  0.21539800125E+01  0.00000000000E+00 0. -1.
         21   -1    0    0  501  503 -0.00000000000E+00 -0.00000000000E+00 -0.28067469352E+03  0.28067469352E+03  0.00000000000E+00 0. -1.
          2    1    1    2  501    0  0.22368218828E+02  0.77269291703E+01 -0.10088317335E+03  0.10362170291E+03  0.00000000000E+00 0. -1.
         -2    1    1    2    0  502 -0.22368218828E+02 -0.77269291703E+01 -0.17763754016E+03  0.17920697063E+03  0.00000000000E+00 0.  1.
<mgrwt>
<rscale>  2 0.23665220E+02</rscale>
<asrwt>0</asrwt>
<pdfrwt beam="1">  1       21 0.33138147E-03 0.23665220E+02</pdfrwt>
<pdfrwt beam="2">  1       21 0.43180731E-01 0.23665220E+02</pdfrwt>
<totfact> 0.78560512E+07</totfact>
</mgrwt>
</event>
<event>
 4    1  0.7151341E+004  0.2001429E+02  0.7546771E-02  0.1745044E+00
         21   -1    0    0  501  502  0.00000000000E+00  0.00000000000E+00  0.14520483142E+03  0.14520483142E+03  0.00000000000E+00 0. -1.
         21   -1    0    0  502  503 -0.00000000000E+00 -0.00000000000E+00 -0.30244301750E+01  0.30244301750E+01  0.00000000000E+00 0. -1.
          3    1    1    2  501    0  0.14087399438E+02  0.14216790037E+02  0.93060128975E+02  0.95188022075E+02  0.00000000000E+00 0.  1.
         -3    1    1    2    0  503 -0.14087399438E+02 -0.14216790037E+02  0.49120272275E+02  0.53041239524E+02  0.00000000000E+00 0. -1.
<mgrwt>
<rscale>  2 0.20014293E+02</rscale>
<asrwt>0</asrwt>
<pdfrwt beam="1">  1       21 0.22339199E-01 0.20014293E+02</pdfrwt>
<pdfrwt beam="2">  1       21 0.46529706E-03 0.20014293E+02</pdfrwt>
<totfact> 0.15184001E+08</totfact>
</mgrwt>
</event>
<event>
 4    1  0.7151341E+004  0.2248162E+02  0.7546771E-02  0.1700053E+00
         21   -1    0    0  503  502  0.00000000000E+00  0.00000000000E+00  0.22144540369E+02  0.22144540369E+02  0.00000000000E+00 0.  1.
         21   -1    0    0  501  503 -0.00000000000E+00 -0.00000000000E+00 -0.31120339525E+02  0.31120339525E+02  0.00000000000E+00 0.  1.
          1    1    1    2  501    0 -0.13927954356E+02  0.17647535160E+02  0.92631637654E+01  0.24315213606E+02  0.00000000000E+00 0.  1.
         -1    1    1    2    0  502  0.13927954356E+02 -0.17647535160E+02 -0.18238962922E+02  0.28949666289E+02  0.00000000000E+00 0. -1.
<mgrwt>
<rscale>  2 0.22481624E+02</rscale>
<asrwt>0</asrwt>
<pdfrwt beam="1">  1       21 0.34068524E-02 0.22481624E+02</pdfrwt>
<pdfrwt beam="2">  1       21 0.47877445E-02 0.22481624E+02</pdfrwt>
<totfact> 0.10002720E+08</totfact>
</mgrwt>
</event>
