<event>
 4    1  0.3862688E+004  0.2076307E+02  0.7546771E-02  0.1730566E+00
         21   -1    0    0  501  502  0.00000000000E+00  0.00000000000E+00  0.47208779544E+03  0.47208779544E+03  0.00000000000E+00 0. -1.
         21   -1    0    0  502  503 -0.00000000000E+00 -0.00000000000E+00 -0.99996675888E+00  0.99996675888E+00  0.00000000000E+00 0. -1.
          4    1    1    2  501    0  0.33617647106E+01  0.20489110524E+02  0.16586127664E+03  0.16715582012E+03  0.00000000000E+00 0. -1.
         -4    1    1    2    0  503 -0.33617647106E+01 -0.20489110524E+02  0.30522655205E+03  0.30593194208E+03  0.00000000000E+00 0.  1.
<mgrwt>
<rscale>  2 0.20763071E+02</rscale>
<asrwt>0</asrwt>
<pdfrwt beam="1">  1       21 0.72628714E-01 0.20763071E+02</pdfrwt>
<pdfrwt beam="2">  1       21 0.15384142E-03 0.20763071E+02</pdfrwt>
<totfact> 0.82505391E+07</totfact>
</mgrwt>
</event>
<event>
 4    1  0.3862688E+004  0.2038101E+02  0.7546771E-02  0.1737856E+00
         21   -1    0    0  503  502  0.00000000000E+00  0.00000000000E+00  0.46981282603E+00  0.46981282603E+00  0.00000000000E+00 0. -1.
         21   -1    0    0  501  503 -0.00000000000E+00 -0.00000000000E+00 -0.90982246290E+03  0.90982246290E+03  0.00000000000E+00 0. -1.
          3    1    1    2  501    0  0.75226221330E+01  0.18941900265E+02 -0.37822258184E+03  0.37877131206E+03  0.00000000000E+00 0.  1.
         -3    1    1    2    0  502 -0.75226221330E+01 -0.18941900265E+02 -0.53113006824E+03  0.53152096366E+03  0.00000000000E+00 0. -1.
<mgrwt>
<rscale>  2 0.20381007E+02</rscale>
<asrwt>0</asrwt>
<pdfrwt beam="1">  1       21 0.72278899E-04 0.20381007E+02</pdfrwt>
<pdfrwt beam="2">  1       21 0.13997268E+00 0.20381007E+02</pdfrwt>
<totfact> 0.57421378E+07</totfact>
</mgrwt>
</event>
<event>
 4    1  0.3862688E+004  0.2004132E+02  0.7546771E-02  0.1744508E+00
         21   -1    0    0  501  502  0.00000000000E+00  0.00000000000E+00  0.38964030094E+03  0.38964030094E+03  0.00000000000E+00 0. -1.
         21   -1    0    0  502  503 -0.00000000000E+00 -0.00000000000E+00 -0.18771955521E+01  0.18771955521E+01  0.00000000000E+00 0. -1.
          5    1    1    2  501    0 -0.11815898682E+02  0.16187624011E+02  0.32532661512E+03  0.32594334038E+03  0.00000000000E+00 0. -1.
         -5    1    1    2    0  503  0.11815898682E+02 -0.16187624011E+02  0.62436490268E+02  0.65574156112E+02  0.00000000000E+00 0.  1.
<mgrwt>
<rscale>  2 0.20041323E+02</rscale>
<asrwt>0</asrwt>
<pdfrwt beam="1">  1       21 0.59944597E-01 0.20041323E+02</pdfrwt>
<pdfrwt beam="2">  1       21 0.28879963E-03 0.20041323E+02</pdfrwt>
<totfact> 0.48658155E+07</totfact>
</mgrwt>
</event>
<event>
 4    1  0.3862688E+004  0.3118471E+02  0.7546771E-02  0.1585351E+00
         21   -1    0    0  503  502  0.00000000000E+00  0.00000000000E+00  0.58697365386E+01  0.58697365386E+01  0.00000000000E+00 0. -1.
         21   -1    0    0  501  503 -0.00000000000E+00 -0.00000000000E+00 -0.19017226925E+03  0.19017226925E+03  0.00000000000E+00 0. -1.
          2    1    1    2  501    0 -0.23513442637E+02 -0.20484242970E+02 -0.12732980662E+03  0.13109296643E+03  0.00000000000E+00 0.  1.
         -2    1    1    2    0  502  0.23513442637E+02  0.20484242970E+02 -0.56972726087E+02  0.64949039350E+02  0.00000000000E+00 0. -1.
<mgrwt>
<rscale>  2 0.31184711E+02</rscale>
<asrwt>0</asrwt>
<pdfrwt beam="1">  1       21 0.90303653E-03 0.31184711E+02</pdfrwt>
<pdfrwt beam="2">  1       21 0.29257268E-01 0.31184711E+02</pdfrwt>
<totfact> 0.38968050E+07</totfact>
</mgrwt>
</event>
<event>
 4    1  0.3862688E+004  0.2441653E+02  0.7546771E-02  0.1669527E+00
         21   -1    0    0  501  502  0.00000000000E+00  0.00000000000E+00  0.33625606091E+03  0.33625606091E+03  0.00000000000E+00 0. -1.
         21   -1    0    0  502  503 -0.00000000000E+00 -0.00000000000E+00 -0.18313645866E+01  0.18313645866E+01  0.00000000000E+00 0. -1.
          4    1    1    2  501    0 -0.24387790588E+02 -0.11843609186E+01  0.19740155731E+03  0.19890586183E+03  0.00000000000E+00 0.  1.
         -4    1    1    2    0  503  0.24387790588E+02  0.11843609186E+01  0.13702313901E+03  0.13918156367E+03  0.00000000000E+00 0. -1.
<mgrwt>
<rscale>  2 0.24416532E+02</rscale>
<asrwt>0</asrwt>
<pdfrwt beam="1">  1       21 0.51731653E-01 0.24416532E+02</pdfrwt>
<pdfrwt beam="2">  1       21 0.28174867E-03 0.24416532E+02</pdfrwt>
<totfact> 0.70765932E+07</totfact>
</mgrwt>
</event>
<event>
 4    1  0.3862688E+004  0.2021714E+02  0.7546771E-02  0.1741044E+00
         21   -1    0    0  503  502  0.00000000000E+00  0.00000000000E+00  0.24066085884E+00  0.24066085884E+00  0.00000000000E+00 0.  1.
         21   -1    0    0  501  503 -0.00000000000E+00 -0.00000000000E+00 -0.18719051819E+04  0.18719051819E+04  0.00000000000E+00 0.  1.
          2    1    1    2  501    0 -0.86259133986E+01 -0.18284594974E+02 -0.65082682529E+03  0.65114075999E+03  0.00000000000E+00 0. -1.
         -2    1    1    2    0  502  0.86259133986E+01  0.18284594974E+02 -0.12208376957E+04  0.12210050828E+04  0.00000000000E+00 0.  1.
<mgrwt>
<rscale>  2 0.20217141E+02</rscale>
<asrwt>0</asrwt>
<pdfrwt beam="1">  1       21 0.37024168E-04 0.20217141E+02</pdfrwt>
<pdfrwt beam="2">  1       21 0.28798992E+00 0.20217141E+02</pdfrwt>
<totfact> 0.22376790E+07</totfact>
</mgrwt>
</event>
<event>
 4    1  0.3862688E+004  0.2072605E+02  0.7546771E-02  0.1731263E+00
         21   -1    0    0  501  502  0.00000000000E+00  0.00000000000E+00  0.76408416834E+00  0.76408416834E+00  0.00000000000E+00 0. -1.
         21   -1    0    0  502  503 -0.00000000000E+00 -0.00000000000E+00 -0.56805954470E+03  0.56805954470E+03  0.00000000000E+00 0. -1.
          2    1    1    2  501    0  0.20354404681E+02 -0.39073648571E+01 -0.31252963658E+03  0.31321612831E+03  0.00000000000E+00 0.  1.
         -2    1    1    2    0  503 -0.20354404681E+02  0.39073648571E+01 -0.25476582395E+03  0.25560750056E+03  0.00000000000E+00 0. -1.
<mgrwt>
<rscale>  2 0.20726053E+02</rscale>
<asrwt>0</asrwt>
<pdfrwt beam="1">  1       21 0.11755148E-03 0.20726053E+02</pdfrwt>
<pdfrwt beam="2">  1       21 0.87393725E-01 0.20726053E+02</pdfrwt>
<totfact> 0.82284820E+07</totfact>
</mgrwt>
</event>
<event>
 4    1  0.3862688E+004  0.2132289E+02  0.7546771E-02  0.1720232E+00
         21   -1    0    0  503  502  0.00000000000E+00  0.00000000000E+00  0.39079676556E+02  0.39079676556E+02  0.00000000000E+00 0. -1.
         21   -1    0    0  501  503 -0.00000000000E+00 -0.00000000000E+00 -0.11649513607E+02  0.11649513607E+02  0.00000000000E+00 0. -1.
          3    1    1    2  501    0 -0.10369874959E+02  0.18631461279E+02  0.12799211742E+02  0.24869368252E+02  0.00000000000E+00 0.  1.
         -3    1    1    2    0  502  0.10369874959E+02 -0.18631461279E+02  0.14630951207E+02  0.25859821911E+02  0.00000000000E+00 0. -1.
<mgrwt>
<rscale>  2 0.21322890E+02</rscale>
<asrwt>0</asrwt>
<pdfrwt beam="1">  1       21 0.60122579E-02 0.21322890E+02</pdfrwt>
<pdfrwt beam="2">  1       21 0.17922329E-02 0.21322890E+02</pdfrwt>
<totfact> 0.18450243E+08</totfact>
</mgrwt>
</event>
<event>
 4    1  0.3862688E+004  0.3272113E+02  0.7546771E-02  0.1569822E+00
         21   -1    0    0  501  502  0.00000000000E+00  0.00000000000E+00  0.32553271811E+02  0.32553271811E+02  0.00000000000E+00 0. -1.
         21   -1    0    0  502  503 -0.00000000000E+00 -0.00000000000E+00 -0.32905467565E+02  0.32905467565E+02  0.00000000000E+00 0. -1.
          1    1    1    2  501    0 -0.24867908604E+02 -0.21266386920E+02  0.53703146799E+00  0.32725532750E+02  0.00000000000E+00 0. -1.
         -1    1    1    2    0  503  0.24867908604E+02  0.21266386920E+02 -0.88922722231E+00  0.32733206626E+02  0.00000000000E+00 0.  1.
<mgrwt>
<rscale>  2 0.32721126E+02</rscale>
<asrwt>0</asrwt>
<pdfrwt beam="1">  1       21 0.50081956E-02 0.32721126E+02</pdfrwt>
<pdfrwt beam="2">  1       21 0.50623796E-02 0.32721126E+02</pdfrwt>
<totfact> 0.54515421E+07</totfact>
</mgrwt>
</event>
<event>
 4    1  0.3862688E+004  0.2655308E+02  0.7546771E-02  0.1639647E+00
         21   -1    0    0  503  502  0.00000000000E+00  0.00000000000E+00  0.49986609998E+03  0.49986609998E+03  0.00000000000E+00 0. -1.
         21   -1    0    0  501  503 -0.00000000000E+00 -0.00000000000E+00 -0.14420609462E+01  0.14420609462E+01  0.00000000000E+00 0. -1.
          2    1    1    2  501    0 -0.25359513531E+02  0.78715383384E+01  0.28628780917E+03  0.28751656599E+03  0.00000000000E+00 0.  1.
         -2    1    1    2    0  502  0.25359513531E+02 -0.78715383384E+01  0.21213622987E+03  0.21379159493E+03  0.00000000000E+00 0. -1.
<mgrwt>
<rscale>  2 0.26553080E+02</rscale>
<asrwt>0</asrwt>
<pdfrwt beam="1">  1       21 0.76902339E-01 0.26553080E+02</pdfrwt>
<pdfrwt beam="2">  1       21 0.22185593E-03 0.26553080E+02</pdfrwt>
<totfact> 0.45729466E+07</totfact>
</mgrwt>
</event>
<event>
 4    1  0.3862688E+004  0.2124844E+02  0.7546771E-02  0.1721584E+00
         21   -1    0    0  501  502  0.00000000000E+00  0.00000000000E+00  0.14124714940E+03  0.14124714940E+03  0.00000000000E+00 0.  1.
         21   -1    0    0  502  503 -0.00000000000E+00 -0.00000000000E+00 -0.33715462877E+01  0.33715462877E+01  0.00000000000E+00 0.  1.
          1    1    1    2  501    0 -0.20664977369E+02 -0.49451830707E+01  0.52461499707E+02  0.56601281582E+02  0.00000000000E+00 0.  1.
         -1    1    1    2    0  503  0.20664977369E+02  0.49451830707E+01  0.85414103409E+02  0.88017414109E+02  0.00000000000E+00 0. -1.
<mgrwt>
<rscale>  2 0.21248438E+02</rscale>
<asrwt>0</asrwt>
<pdfrwt beam="1">  1       21 0.21730326E-01 0.21248438E+02</pdfrwt>
<pdfrwt beam="2">  1       21 0.51869954E-03 0.21248438E+02</pdfrwt>
<totfact> 0.13832046E+08</totfact>
</mgrwt>
</event>
<event>
 4    1  0.3862688E+004  0.2126453E+02  0.7546771E-02  0.1721291E+00
         21   -1    0    0  501  502  0.00000000000E+00  0.00000000000E+00  0.41417705657E+01  0.41417705657E+01  0.00000000000E+00 0.  1.
         21   -1    0    0  502  503 -0.00000000000E+00 -0.00000000000E+00 -0.10957924553E+03  0.10957924553E+03  0.00000000000E+00 0.  1.
          1    1    1    2  501    0  0.64110951265E+01  0.20275063630E+02 -0.49267785269E+02  0.53660926298E+02  0.00000000000E+00 0. -1.
         -1    1    1    2    0  503 -0.64110951265E+01 -0.20275063630E+02 -0.56169689692E+02  0.60060089793E+02  0.00000000000E+00 0.  1.
<mgrwt>
<rscale>  2 0.21264533E+02</rscale>
<asrwt>0</asrwt>
<pdfrwt beam="1">  1       21 0.63719560E-03 0.21264533E+02</pdfrwt>
<pdfrwt beam="2">  1       21 0.16858342E-01 0.21264533E+02</pdfrwt>
<totfact> 0.15851262E+08</totfact>
</mgrwt>
</event>
<event>
 4    1  0.3862688E+004  0.2056627E+02  0.7546771E-02  0.1734296E+00
         21   -1    0    0  501  502  0.00000000000E+00  0.00000000000E+00  0.10901469421E+04  0.10901469421E+04  0.00000000000E+00 0. -1.
         21   -1    0    0  502  503 -0.00000000000E+00 -0.00000000000E+00 -0.38804709188E+00  0.38804709188E+00  0.00000000000E+00 0. -1.
          4    1    1    2  501    0  0.70106240884E+01  0.19334490583E+02  0.55120742245E+03  0.55159096615E+03  0.00000000000E+00 0. -1.
         -4    1    1    2    0  503 -0.70106240884E+01 -0.19334490583E+02  0.53855147256E+03  0.53894402304E+03  0.00000000000E+00 0.  1.
<mgrwt>
<rscale>  2 0.20566268E+02</rscale>
<asrwt>0</asrwt>
<pdfrwt beam="1">  1       21 0.16771246E+00 0.20566268E+02</pdfrwt>
<pdfrwt beam="2">  1       21 0.59700425E-04 0.20566268E+02</pdfrwt>
<totfact> 0.49095706E+07</totfact>
</mgrwt>
</event>
<event>
 4    1  0.3862688E+004  0.2600226E+02  0.7546771E-02  0.1647010E+00
         21   -1    0    0  501  502  0.00000000000E+00  0.00000000000E+00  0.11828017020E+03  0.11828017020E+03  0.00000000000E+00 0. -1.
         21   -1    0    0  502  503 -0.00000000000E+00 -0.00000000000E+00 -0.64344303715E+01  0.64344303715E+01  0.00000000000E+00 0. -1.
          1    1    1    2  501    0  0.23967594991E+02 -0.10083252441E+02  0.76755911541E+02  0.81040653662E+02  0.00000000000E+00 0. -1.
         -1    1    1    2    0  503 -0.23967594991E+02  0.10083252441E+02  0.35089828287E+02  0.43673946910E+02  0.00000000000E+00 0.  1.
<mgrwt>
<rscale>  2 0.26002261E+02</rscale>
<asrwt>0</asrwt>
<pdfrwt beam="1">  1       21 0.18196948E-01 0.26002261E+02</pdfrwt>
<pdfrwt beam="2">  1       21 0.98991245E-03 0.26002261E+02</pdfrwt>
<totfact> 0.76050794E+07</totfact>
</mgrwt>
</event>
<event>
 4    1  0.3862688E+004  0.2441222E+02  0.7546771E-02  0.1669591E+00
         21   -1    0    0  501  502  0.00000000000E+00  0.00000000000E+00  0.21721407737E+01  0.21721407737E+01  0.00000000000E+00 0.  1.
         21   -1    0    0  502  503 -0.00000000000E+00 -0.00000000000E+00 -0.29246023329E+03  0.29246023329E+03  0.00000000000E+00 0.  1.
          5    1    1    2  501    0  0.63638338716E+01  0.23568157754E+02 -0.18178911279E+03  0.18342093111E+03  0.00000000000E+00 0.  1.
         -5    1    1    2    0  503 -0.63638338716E+01 -0.23568157754E+02 -0.10849897972E+03  0.11121144295E+03  0.00000000000E+00 0. -1.
<mgrwt>
<rscale>  2 0.24412219E+02</rscale>
<asrwt>0</asrwt>
<pdfrwt beam="1">  1       21 0.33417541E-03 0.24412219E+02</pdfrwt>
<pdfrwt beam="2">  1       21 0.44993895E-01 0.24412219E+02</pdfrwt>
<totfact> 0.72285575E+07</totfact>
</mgrwt>
</event>
<event>
 4    1  0.3862688E+004  0.2292139E+02  0.7546771E-02  0.1692788E+00
         21   -1    0    0  503  502  0.00000000000E+00  0.00000000000E+00  0.31497124139E+01  0.31497124139E+01  0.00000000000E+00 0.  1.
         21   -1    0    0  501  503 -0.00000000000E+00 -0.00000000000E+00 -0.16959722493E+03  0.16959722493E+03  0.00000000000E+00 0.  1.
          3    1    1    2  501    0  0.72223159205E+00 -0.22910007303E+02 -0.94305039043E+02  0.97050659153E+02  0.00000000000E+00 0.  1.
         -3    1    1    2    0  502 -0.72223159205E+00  0.22910007303E+02 -0.72142473468E+02  0.75696278186E+02  0.00000000000E+00 0. -1.
<mgrwt>
<rscale>  2 0.22921389E+02</rscale>
<asrwt>0</asrwt>
<pdfrwt beam="1">  1       21 0.48457125E-03 0.22921389E+02</pdfrwt>
<pdfrwt beam="2">  1       21 0.26091875E-01 0.22921389E+02</pdfrwt>
<totfact> 0.11300318E+08</totfact>
</mgrwt>
</event>
<event>
 4    1  0.3862688E+004  0.2511915E+02  0.7546771E-02  0.1659296E+00
         21   -1    0    0  501  502  0.00000000000E+00  0.00000000000E+00  0.25246446079E+01  0.25246446079E+01  0.00000000000E+00 0. -1.
         21   -1    0    0  502  503 -0.00000000000E+00 -0.00000000000E+00 -0.28164376953E+03  0.28164376953E+03  0.00000000000E+00 0. -1.
          4    1    1    2  501    0  0.12624046715E+02  0.21716472977E+02 -0.18724151531E+03  0.18891891597E+03  0.00000000000E+00 0. -1.
         -4    1    1    2    0  503 -0.12624046715E+02 -0.21716472977E+02 -0.91877609609E+02  0.95249498169E+02  0.00000000000E+00 0.  1.
<mgrwt>
<rscale>  2 0.25119151E+02</rscale>
<asrwt>0</asrwt>
<pdfrwt beam="1">  1       21 0.38840704E-03 0.25119151E+02</pdfrwt>
<pdfrwt beam="2">  1       21 0.43329791E-01 0.25119151E+02</pdfrwt>
<totfact> 0.62732026E+07</totfact>
</mgrwt>
</event>
<event>
 4    1  0.3862688E+004  0.2073884E+02  0.7546771E-02  0.1731022E+00
         21   -1    0    0  503  502  0.00000000000E+00  0.00000000000E+00  0.64458291094E+02  0.64458291094E+02  0.00000000000E+00 0. -1.
         21   -1    0    0  501  503 -0.00000000000E+00 -0.00000000000E+00 -0.72161709467E+01  0.72161709467E+01  0.00000000000E+00 0. -1.
          5    1    1    2  501    0 -0.16379326513E+02  0.12720738031E+02  0.18784587162E+02  0.27981426481E+02  0.00000000000E+00 0. -1.
         -5    1    1    2    0  502  0.16379326513E+02 -0.12720738031E+02  0.38457532986E+02  0.43693035560E+02  0.00000000000E+00 0.  1.
<mgrwt>
<rscale>  2 0.20738841E+02</rscale>
<asrwt>0</asrwt>
<pdfrwt beam="1">  1       21 0.99166598E-02 0.20738841E+02</pdfrwt>
<pdfrwt beam="2">  1       21 0.11101802E-02 0.20738841E+02</pdfrwt>
<totfact> 0.16753085E+08</totfact>
</mgrwt>
</event>
<event>
 4    1  0.3862688E+004  0.2241119E+02  0.7546771E-02  0.1701236E+00
         21   -1    0    0  501  502  0.00000000000E+00  0.00000000000E+00  0.60053239580E+02  0.60053239580E+02  0.00000000000E+00 0. -1.
         21   -1    0    0  502  503 -0.00000000000E+00 -0.00000000000E+00 -0.85325237681E+01  0.85325237681E+01  0.00000000000E+00 0. -1.
          4    1    1    2  501    0  0.10044303002E+02 -0.20034310518E+02  0.30585423229E+02  0.37917406753E+02  0.00000000000E+00 0. -1.
         -4    1    1    2    0  503 -0.10044303002E+02  0.20034310518E+02  0.20935292583E+02  0.30668356596E+02  0.00000000000E+00 0.  1.
<mgrwt>
<rscale>  2 0.22411194E+02</rscale>
<asrwt>0</asrwt>
<pdfrwt beam="1">  1       21 0.92389597E-02 0.22411194E+02</pdfrwt>
<pdfrwt beam="2">  1       21 0.13126960E-02 0.22411194E+02</pdfrwt>
<totfact> 0.14974578E+08</totfact>
</mgrwt>
</event>
<event>
 4    1  0.3862688E+004  0.2774486E+02  0.7546771E-02  0.1624443E+00
         21   -1    0    0  503  502  0.00000000000E+00  0.00000000000E+00  0.59767774888E+02  0.59767774888E+02  0.00000000000E+00 0. -1.
         21   -1    0    0  501  503 -0.00000000000E+00 -0.00000000000E+00 -0.12975805442E+02  0.12975805442E+02  0.00000000000E+00 0. -1.
          1    1    1    2  501    0  0.10160379888E+02 -0.25817516179E+02  0.26529870146E+02  0.38387647377E+02  0.00000000000E+00 0. -1.
         -1    1    1    2    0  502 -0.10160379888E+02  0.25817516179E+02  0.20262099299E+02  0.34355932954E+02  0.00000000000E+00 0.  1.
<mgrwt>
<rscale>  2 0.27744864E+02</rscale>
<asrwt>0</asrwt>
<pdfrwt beam="1">  1       21 0.91950421E-02 0.27744864E+02</pdfrwt>
<pdfrwt beam="2">  1       21 0.19962778E-02 0.27744864E+02</pdfrwt>
<totfact> 0.84344855E+07</totfact>
</mgrwt>
</event>
<event>
 4    1  0.3862688E+004  0.3104417E+02  0.7546771E-02  0.1586826E+00
         21   -1    0    0  501  502  0.00000000000E+00  0.00000000000E+00  0.19611562881E+03  0.19611562881E+03  0.00000000000E+00 0. -1.
         21   -1    0    0  502  503 -0.00000000000E+00 -0.00000000000E+00 -0.80529626860E+01  0.80529626860E+01  0.00000000000E+00 0. -1.
          5    1    1    2  501    0 -0.86170200024E+01 -0.29824271289E+02  0.15776432343E+03  0.16078968232E+03  0.00000000000E+00 0.  1.
         -5    1    1    2    0  503  0.86170200024E+01  0.29824271289E+02  0.30298342690E+02  0.43378909177E+02  0.00000000000E+00 0. -1.
<mgrwt>
<rscale>  2 0.31044165E+02</rscale>
<asrwt>0</asrwt>
<pdfrwt beam="1">  1       21 0.30171631E-01 0.31044165E+02</pdfrwt>
<pdfrwt beam="2">  1       21 0.12389175E-02 0.31044165E+02</pdfrwt>
<totfact> 0.22752028E+07</totfact>
</mgrwt>
</event>
<event>
 4    1  0.3862688E+004  0.3804255E+02  0.7546771E-02  0.1523131E+00
         21   -1    0    0  503  502  0.00000000000E+00  0.00000000000E+00  0.31462031917E+03  0.31462031917E+03  0.00000000000E+00 0.  1.
         21   -1    0    0  501  503 -0.00000000000E+00 -0.00000000000E+00 -0.48215842884E+01  0.48215842884E+01  0.00000000000E+00 0.  1.
          1    1    1    2  501    0 -0.37781717670E+02  0.44471586767E+01  0.12065471772E+03  0.12651006410E+03  0.00000000000E+00 0.  1.
         -1    1    1    2    0  502  0.37781717670E+02 -0.44471586767E+01  0.18914401717E+03  0.19293183937E+03  0.00000000000E+00 0. -1.
<mgrwt>
<rscale>  2 0.38042547E+02</rscale>
<asrwt>0</asrwt>
<pdfrwt beam="1">  1       21 0.48403110E-01 0.38042547E+02</pdfrwt>
<pdfrwt beam="2">  1       21 0.74178245E-03 0.38042547E+02</pdfrwt>
<totfact> 0.20855852E+07</totfact>
</mgrwt>
</event>
<event>
 4    1  0.3862688E+004  0.2035634E+02  0.7546771E-02  0.1738333E+00
         21   -1    0    0  503  502  0.00000000000E+00  0.00000000000E+00  0.11066027298E+03  0.11066027298E+03  0.00000000000E+00 0. -1.
         21   -1    0    0  501  503 -0.00000000000E+00 -0.00000000000E+00 -0.37683977018E+01  0.37683977018E+01  0.00000000000E+00 0. -1.
          5    1    1    2  501    0 -0.12035965801E+02 -0.16416943873E+02  0.57990834335E+02  0.61459884362E+02  0.00000000000E+00 0.  1.
         -5    1    1    2    0  502  0.12035965801E+02  0.16416943873E+02  0.48901040943E+02  0.52968786320E+02  0.00000000000E+00 0. -1.
<mgrwt>
<rscale>  2 0.20356339E+02</rscale>
<asrwt>0</asrwt>
<pdfrwt beam="1">  1       21 0.17024655E-01 0.20356339E+02</pdfrwt>
<pdfrwt beam="2">  1       21 0.57975358E-03 0.20356339E+02</pdfrwt>
<totfact> 0.17684400E+08</totfact>
</mgrwt>
</event>
<event>
 4    1  0.3862688E+004  0.2130322E+02  0.7546771E-02  0.1720589E+00
         21   -1    0    0  501  502  0.00000000000E+00  0.00000000000E+00  0.23500967890E+03  0.23500967890E+03  0.00000000000E+00 0.  1.
         21   -1    0    0  502  503 -0.00000000000E+00 -0.00000000000E+00 -0.30931479938E+01  0.30931479938E+01  0.00000000000E+00 0.  1.
          5    1    1    2  501    0 -0.16417256598E+02  0.13575744165E+02  0.18892858972E+03  0.19012585084E+03  0.00000000000E+00 0. -1.
         -5    1    1    2    0  503  0.16417256598E+02 -0.13575744165E+02  0.42987941180E+02  0.47976976049E+02  0.00000000000E+00 0.  1.
<mgrwt>
<rscale>  2 0.21303219E+02</rscale>
<asrwt>0</asrwt>
<pdfrwt beam="1">  1       21 0.36155321E-01 0.21303219E+02</pdfrwt>
<pdfrwt beam="2">  1       21 0.47586911E-03 0.21303219E+02</pdfrwt>
<totfact> 0.62836550E+07</totfact>
</mgrwt>
</event>
<event>
 4    1  0.3862688E+004  0.3145555E+02  0.7546771E-02  0.1582535E+00
         21   -1    0    0  501  502  0.00000000000E+00  0.00000000000E+00  0.35735762885E+02  0.35735762885E+02  0.00000000000E+00 0. -1.
         21   -1    0    0  502  503 -0.00000000000E+00 -0.00000000000E+00 -0.28076662459E+02  0.28076662459E+02  0.00000000000E+00 0. -1.
          1    1    1    2  501    0  0.22609569124E+02 -0.21869130405E+02  0.75835465814E+01  0.32356786914E+02  0.00000000000E+00 0.  1.
         -1    1    1    2    0  503 -0.22609569124E+02  0.21869130405E+02  0.75553844947E-01  0.31455638430E+02  0.00000000000E+00 0. -1.
<mgrwt>
<rscale>  2 0.31455548E+02</rscale>
<asrwt>0</asrwt>
<pdfrwt beam="1">  1       21 0.54978097E-02 0.31455548E+02</pdfrwt>
<pdfrwt beam="2">  1       21 0.43194865E-02 0.31455548E+02</pdfrwt>
<totfact> 0.59988994E+07</totfact>
</mgrwt>
</event>
<event>
 4    1  0.3862688E+004  0.2086495E+02  0.7546771E-02  0.1728655E+00
         21   -1    0    0  503  502  0.00000000000E+00  0.00000000000E+00  0.33325443304E+02  0.33325443304E+02  0.00000000000E+00 0.  1.
         21   -1    0    0  501  503 -0.00000000000E+00 -0.00000000000E+00 -0.15185084570E+02  0.15185084570E+02  0.00000000000E+00 0.  1.
          1    1    1    2  501    0  0.13912207970E+02 -0.15549810711E+02  0.38815308250E-02  0.20864950487E+02  0.00000000000E+00 0.  1.
         -1    1    1    2    0  502 -0.13912207970E+02  0.15549810711E+02  0.18136477203E+02  0.27645577387E+02  0.00000000000E+00 0. -1.
<mgrwt>
<rscale>  2 0.20864950E+02</rscale>
<asrwt>0</asrwt>
<pdfrwt beam="1">  1       21 0.51269913E-02 0.20864950E+02</pdfrwt>
<pdfrwt beam="2">  1       21 0.23361669E-02 0.20864950E+02</pdfrwt>
<totfact> 0.15745148E+08</totfact>
</mgrwt>
</event>
<event>
 4    1  0.3862688E+004  0.2230383E+02  0.7546771E-02  0.1703050E+00
         21   -1    0    0  503  502  0.00000000000E+00  0.00000000000E+00  0.42017215068E+01  0.42017215068E+01  0.00000000000E+00 0. -1.
         21   -1    0    0  501  503 -0.00000000000E+00 -0.00000000000E+00 -0.12117223169E+03  0.12117223169E+03  0.00000000000E+00 0. -1.
          2    1    1    2  501    0  0.11495614539E+02 -0.19113131947E+02 -0.67976349102E+02  0.71541910819E+02  0.00000000000E+00 0. -1.
         -2    1    1    2    0  502 -0.11495614539E+02  0.19113131947E+02 -0.48994161077E+02  0.53832042373E+02  0.00000000000E+00 0.  1.
<mgrwt>
<rscale>  2 0.22303833E+02</rscale>
<asrwt>0</asrwt>
<pdfrwt beam="1">  1       21 0.64641864E-03 0.22303833E+02</pdfrwt>
<pdfrwt beam="2">  1       21 0.18641883E-01 0.22303833E+02</pdfrwt>
<totfact> 0.13235246E+08</totfact>
</mgrwt>
</event>
<event>
 4    1  0.3862688E+004  0.2058014E+02  0.7546771E-02  0.1734031E+00
         21   -1    0    0  501  502  0.00000000000E+00  0.00000000000E+00  0.32433359043E+02  0.32433359043E+02  0.00000000000E+00 0.  1.
         21   -1    0    0  502  503 -0.00000000000E+00 -0.00000000000E+00 -0.13113772642E+02  0.13113772642E+02  0.00000000000E+00 0.  1.
          3    1    1    2  501    0  0.16273714076E+02 -0.12597948064E+02  0.11133734414E+02  0.23398762942E+02  0.00000000000E+00 0. -1.
         -3    1    1    2    0  503 -0.16273714076E+02  0.12597948064E+02  0.81858519865E+01  0.22148368743E+02  0.00000000000E+00 0.  1.
<mgrwt>
<rscale>  2 0.20580138E+02</rscale>
<asrwt>0</asrwt>
<pdfrwt beam="1">  1       21 0.49897475E-02 0.20580138E+02</pdfrwt>
<pdfrwt beam="2">  1       21 0.20175035E-02 0.20580138E+02</pdfrwt>
<totfact> 0.20490724E+08</totfact>
</mgrwt>
</event>
<event>
 4    1  0.3862688E+004  0.2175723E+02  0.7546771E-02  0.1712485E+00
         21   -1    0    0  503  502  0.00000000000E+00  0.00000000000E+00  0.85270767535E+02  0.85270767535E+02  0.00000000000E+00 0.  1.
         21   -1    0    0  501  503 -0.00000000000E+00 -0.00000000000E+00 -0.72725444397E+01  0.72725444397E+01  0.00000000000E+00 0.  1.
          2    1    1    2  501    0 -0.20499794421E+02 -0.72894130869E+01  0.16489233202E+02  0.27299668973E+02  0.00000000000E+00 0. -1.
         -2    1    1    2    0  502  0.20499794421E+02  0.72894130869E+01  0.61508989893E+02  0.65243643002E+02  0.00000000000E+00 0.  1.
<mgrwt>
<rscale>  2 0.21757231E+02</rscale>
<asrwt>0</asrwt>
<pdfrwt beam="1">  1       21 0.13118579E-01 0.21757231E+02</pdfrwt>
<pdfrwt beam="2">  1       21 0.11188531E-02 0.21757231E+02</pdfrwt>
<totfact> 0.10547202E+08</totfact>
</mgrwt>
</event>
<event>
 4    1  0.3862688E+004  0.2254866E+02  0.7546771E-02  0.1698932E+00
         21   -1    0    0  503  502  0.00000000000E+00  0.00000000000E+00  0.13785978508E+03  0.13785978508E+03  0.00000000000E+00 0. -1.
         21   -1    0    0  501  503 -0.00000000000E+00 -0.00000000000E+00 -0.38187861022E+01  0.38187861022E+01  0.00000000000E+00 0. -1.
          3    1    1    2  501    0  0.72194328762E+00 -0.22537095937E+02  0.80124728641E+02  0.83237095307E+02  0.00000000000E+00 0.  1.
         -3    1    1    2    0  502 -0.72194328762E+00  0.22537095937E+02  0.53916270335E+02  0.58441475873E+02  0.00000000000E+00 0. -1.
<mgrwt>
<rscale>  2 0.22548656E+02</rscale>
<asrwt>0</asrwt>
<pdfrwt beam="1">  1       21 0.21209194E-01 0.22548656E+02</pdfrwt>
<pdfrwt beam="2">  1       21 0.58750566E-03 0.22548656E+02</pdfrwt>
<totfact> 0.12216498E+08</totfact>
</mgrwt>
</event>
<event>
 4    1  0.3862688E+004  0.4265963E+02  0.7546771E-02  0.1489504E+00
         21   -1    0    0  501  502  0.00000000000E+00  0.00000000000E+00  0.90066170779E+03  0.90066170779E+03  0.00000000000E+00 0.  1.
         21   -1    0    0  502  503 -0.00000000000E+00 -0.00000000000E+00 -0.21058391522E+01  0.21058391522E+01  0.00000000000E+00 0.  1.
          2    1    1    2  501    0 -0.41637578712E+02  0.92820158445E+01  0.35844423911E+03  0.36097384438E+03  0.00000000000E+00 0.  1.
         -2    1    1    2    0  503  0.41637578712E+02 -0.92820158445E+01  0.54011162953E+03  0.54179370256E+03  0.00000000000E+00 0. -1.
<mgrwt>
<rscale>  2 0.42659627E+02</rscale>
<asrwt>0</asrwt>
<pdfrwt beam="1">  1       21 0.13856303E+00 0.42659627E+02</pdfrwt>
<pdfrwt beam="2">  1       21 0.32397597E-03 0.42659627E+02</pdfrwt>
<totfact> 0.74933360E+06</totfact>
</mgrwt>
</event>
<event>
 4    1  0.3862688E+004  0.2826303E+02  0.7546771E-02  0.1618122E+00
         21   -1    0    0  501  502  0.00000000000E+00  0.00000000000E+00  0.38115531622E+02  0.38115531622E+02  0.00000000000E+00 0. -1.
         21   -1    0    0  502  503 -0.00000000000E+00 -0.00000000000E+00 -0.22804748641E+02  0.22804748641E+02  0.00000000000E+00 0. -1.
          3    1    1    2  501    0  0.27084219288E+02 -0.80773689471E+01 -0.10143239826E+01  0.28281224809E+02  0.00000000000E+00 0.  1.
         -3    1    1    2    0  503 -0.27084219288E+02  0.80773689471E+01  0.16325106963E+02  0.32639055454E+02  0.00000000000E+00 0. -1.
<mgrwt>
<rscale>  2 0.28263029E+02</rscale>
<asrwt>0</asrwt>
<pdfrwt beam="1">  1       21 0.58639279E-02 0.28263029E+02</pdfrwt>
<pdfrwt beam="2">  1       21 0.35084229E-02 0.28263029E+02</pdfrwt>
<totfact> 0.73364200E+07</totfact>
</mgrwt>
</event>
<event>
 4    1  0.3862688E+004  0.2875315E+02  0.7546771E-02  0.1612294E+00
         21   -1    0    0  501  502  0.00000000000E+00  0.00000000000E+00  0.82098593635E+01  0.82098593635E+01  0.00000000000E+00 0.  1.
         21   -1    0    0  502  503 -0.00000000000E+00 -0.00000000000E+00 -0.10783134019E+03  0.10783134019E+03  0.00000000000E+00 0.  1.
          3    1    1    2  501    0  0.14828740897E+02  0.24634362679E+02 -0.34891174691E+02  0.45212138332E+02  0.00000000000E+00 0. -1.
         -3    1    1    2    0  503 -0.14828740897E+02 -0.24634362679E+02 -0.64730306136E+02  0.70829061222E+02  0.00000000000E+00 0.  1.
<mgrwt>
<rscale>  2 0.28753146E+02</rscale>
<asrwt>0</asrwt>
<pdfrwt beam="1">  1       21 0.12630553E-02 0.28753146E+02</pdfrwt>
<pdfrwt beam="2">  1       21 0.16589436E-01 0.28753146E+02</pdfrwt>
<totfact> 0.63227795E+07</totfact>
</mgrwt>
</event>
<event>
 4    1  0.3862688E+004  0.2089320E+02  0.7546771E-02  0.1728128E+00
         21   -1    0    0  501  502  0.00000000000E+00  0.00000000000E+00  0.36130656754E+03  0.36130656754E+03  0.00000000000E+00 0.  1.
         21   -1    0    0  502  503 -0.00000000000E+00 -0.00000000000E+00 -0.13606049263E+01  0.13606049263E+01  0.00000000000E+00 0.  1.
          2    1    1    2  501    0 -0.84669975505E+01  0.19100679452E+02  0.24066475656E+03  0.24156997134E+03  0.00000000000E+00 0. -1.
         -2    1    1    2    0  503  0.84669975505E+01 -0.19100679452E+02  0.11928120605E+03  0.12109720112E+03  0.00000000000E+00 0.  1.
<mgrwt>
<rscale>  2 0.20893205E+02</rscale>
<asrwt>0</asrwt>
<pdfrwt beam="1">  1       21 0.55585550E-01 0.20893205E+02</pdfrwt>
<pdfrwt beam="2">  1       21 0.20932412E-03 0.20893205E+02</pdfrwt>
<totfact> 0.90894559E+07</totfact>
</mgrwt>
</event>
<event>
 4    1  0.3862688E+004  0.2066243E+02  0.7546771E-02  0.1732467E+00
         21   -1    0    0  501  502  0.00000000000E+00  0.00000000000E+00  0.52373030365E+01  0.52373030365E+01  0.00000000000E+00 0.  1.
         21   -1    0    0  502  503 -0.00000000000E+00 -0.00000000000E+00 -0.10942140889E+03  0.10942140889E+03  0.00000000000E+00 0.  1.
          1    1    1    2  501    0  0.14989024209E+02  0.14221998628E+02 -0.23141815351E+02  0.31023857102E+02  0.00000000000E+00 0.  1.
         -1    1    1    2    0  503 -0.14989024209E+02 -0.14221998628E+02 -0.81042290499E+02  0.83634854821E+02  0.00000000000E+00 0. -1.
<mgrwt>
<rscale>  2 0.20662432E+02</rscale>
<asrwt>0</asrwt>
<pdfrwt beam="1">  1       21 0.80573890E-03 0.20662432E+02</pdfrwt>
<pdfrwt beam="2">  1       21 0.16834063E-01 0.20662432E+02</pdfrwt>
<totfact> 0.11123475E+08</totfact>
</mgrwt>
</event>
<event>
 4    1  0.3862688E+004  0.2151905E+02  0.7546771E-02  0.1716705E+00
         21   -1    0    0  503  502  0.00000000000E+00  0.00000000000E+00  0.12212795533E+02  0.12212795533E+02  0.00000000000E+00 0. -1.
         21   -1    0    0  501  503 -0.00000000000E+00 -0.00000000000E+00 -0.40115570648E+02  0.40115570648E+02  0.00000000000E+00 0. -1.
          5    1    1    2  501    0  0.18653266358E+02  0.10729631237E+02 -0.20076965542E+02  0.29430492311E+02  0.00000000000E+00 0. -1.
         -5    1    1    2    0  502 -0.18653266358E+02 -0.10729631237E+02 -0.78258095723E+01  0.22897873870E+02  0.00000000000E+00 0.  1.
<mgrwt>
<rscale>  2 0.21519046E+02</rscale>
<asrwt>0</asrwt>
<pdfrwt beam="1">  1       21 0.18788916E-02 0.21519046E+02</pdfrwt>
<pdfrwt beam="2">  1       21 0.61716263E-02 0.21519046E+02</pdfrwt>
<totfact> 0.16510035E+08</totfact>
</mgrwt>
</event>
<event>
 4    1  0.3862688E+004  0.3658355E+02  0.7546771E-02  0.1534972E+00
         21   -1    0    0  503  502  0.00000000000E+00  0.00000000000E+00  0.37809125698E+02  0.37809125698E+02  0.00000000000E+00 0.  1.
         21   -1    0    0  501  503 -0.00000000000E+00 -0.00000000000E+00 -0.41876024761E+02  0.41876024761E+02  0.00000000000E+00 0.  1.
          5    1    1    2  501    0 -0.36500599347E+02  0.24621417059E+01 -0.17704431371E+02  0.40642376710E+02  0.00000000000E+00 0.  1.
         -5    1    1    2    0  502  0.36500599347E+02 -0.24621417059E+01  0.13637532308E+02  0.39042773748E+02  0.00000000000E+00 0. -1.
<mgrwt>
<rscale>  2 0.36583547E+02</rscale>
<asrwt>0</asrwt>
<pdfrwt beam="1">  1       21 0.58167885E-02 0.36583547E+02</pdfrwt>
<pdfrwt beam="2">  1       21 0.64424654E-02 0.36583547E+02</pdfrwt>
<totfact> 0.29541026E+07</totfact>
</mgrwt>
</event>
<event>
 4    1  0.3862688E+004  0.2782552E+02  0.7546771E-02  0.1623448E+00
         21   -1    0    0  501  502  0.00000000000E+00  0.00000000000E+00  0.75656926276E+02  0.75656926276E+02  0.00000000000E+00 0. -1.
         21   -1    0    0  502  503 -0.00000000000E+00 -0.00000000000E+00 -0.10801468982E+02  0.10801468982E+02  0.00000000000E+00 0. -1.
          2    1    1    2  501    0  0.28072453643E+01 -0.27683549394E+02  0.42337755788E+02  0.50663054574E+02  0.00000000000E+00 0.  1.
         -2    1    1    2    0  503 -0.28072453643E+01  0.27683549394E+02  0.22517701506E+02  0.35795340684E+02  0.00000000000E+00 0. -1.
<mgrwt>
<rscale>  2 0.27825519E+02</rscale>
<asrwt>0</asrwt>
<pdfrwt beam="1">  1       21 0.11639527E-01 0.27825519E+02</pdfrwt>
<pdfrwt beam="2">  1       21 0.16617645E-02 0.27825519E+02</pdfrwt>
<totfact> 0.75506690E+07</totfact>
</mgrwt>
</event>
<event>
 4    1  0.3862688E+004  0.2056319E+02  0.7546771E-02  0.1734355E+00
         21   -1    0    0  503  502  0.00000000000E+00  0.00000000000E+00  0.18746342347E+03  0.18746342347E+03  0.00000000000E+00 0.  1.
         21   -1    0    0  501  503 -0.00000000000E+00 -0.00000000000E+00 -0.22831085786E+01  0.22831085786E+01  0.00000000000E+00 0.  1.
          2    1    1    2  501    0 -0.10673108364E+02 -0.17576389331E+02  0.10300185946E+03  0.10503441225E+03  0.00000000000E+00 0. -1.
         -2    1    1    2    0  502  0.10673108364E+02  0.17576389331E+02  0.82178455436E+02  0.84712119805E+02  0.00000000000E+00 0.  1.
<mgrwt>
<rscale>  2 0.20563188E+02</rscale>
<asrwt>0</asrwt>
<pdfrwt beam="1">  1       21 0.28840515E-01 0.20563188E+02</pdfrwt>
<pdfrwt beam="2">  1       21 0.35124762E-03 0.20563188E+02</pdfrwt>
<totfact> 0.14665283E+08</totfact>
</mgrwt>
</event>
<event>
 4    1  0.3862688E+004  0.3298842E+02  0.7546771E-02  0.1567226E+00
         21   -1    0    0  503  502  0.00000000000E+00  0.00000000000E+00  0.47992639031E+03  0.47992639031E+03  0.00000000000E+00 0. -1.
         21   -1    0    0  501  503 -0.00000000000E+00 -0.00000000000E+00 -0.22942568344E+01  0.22942568344E+01  0.00000000000E+00 0. -1.
          1    1    1    2  501    0  0.25609042608E+02 -0.20794538003E+02  0.21278061782E+03  0.21532261189E+03  0.00000000000E+00 0.  1.
         -1    1    1    2    0  502 -0.25609042608E+02  0.20794538003E+02  0.26485151565E+03  0.26689803525E+03  0.00000000000E+00 0. -1.
<mgrwt>
<rscale>  2 0.32988420E+02</rscale>
<asrwt>0</asrwt>
<pdfrwt beam="1">  1       21 0.73834749E-01 0.32988420E+02</pdfrwt>
<pdfrwt beam="2">  1       21 0.35296297E-03 0.32988420E+02</pdfrwt>
<totfact> 0.26234719E+07</totfact>
</mgrwt>
</event>
<event>
 4    1  0.3862688E+004  0.4641901E+02  0.7546771E-02  0.1465673E+00
         21   -1    0    0  501  502  0.00000000000E+00  0.00000000000E+00  0.21783363265E+02  0.21783363265E+02  0.00000000000E+00 0.  1.
         21   -1    0    0  502  503 -0.00000000000E+00 -0.00000000000E+00 -0.13538526709E+03  0.13538526709E+03  0.00000000000E+00 0.  1.
          4    1    1    2  501    0 -0.24942648959E+02 -0.39148291292E+02 -0.97587160468E+02  0.10806469514E+03  0.00000000000E+00 0.  1.
         -4    1    1    2    0  503  0.24942648959E+02  0.39148291292E+02 -0.16014743352E+02  0.49103935207E+02  0.00000000000E+00 0. -1.
<mgrwt>
<rscale>  2 0.46419010E+02</rscale>
<asrwt>0</asrwt>
<pdfrwt beam="1">  1       21 0.33512867E-02 0.46419010E+02</pdfrwt>
<pdfrwt beam="2">  1       21 0.20828503E-01 0.46419010E+02</pdfrwt>
<totfact> 0.10019736E+07</totfact>
</mgrwt>
</event>
<event>
 4    1  0.3862688E+004  0.2001956E+02  0.7546771E-02  0.1744939E+00
         21   -1    0    0  501  502  0.00000000000E+00  0.00000000000E+00  0.43438376362E+02  0.43438376362E+02  0.00000000000E+00 0.  1.
         21   -1    0    0  502  503 -0.00000000000E+00 -0.00000000000E+00 -0.93519472577E+01  0.93519472577E+01  0.00000000000E+00 0.  1.
          3    1    1    2  501    0 -0.19748974974E+02  0.32803662269E+01  0.13985772369E+02  0.24420987774E+02  0.00000000000E+00 0. -1.
         -3    1    1    2    0  503  0.19748974974E+02 -0.32803662269E+01  0.20100656735E+02  0.28369335845E+02  0.00000000000E+00 0.  1.
<mgrwt>
<rscale>  2 0.20019561E+02</rscale>
<asrwt>0</asrwt>
<pdfrwt beam="1">  1       21 0.66828270E-02 0.20019561E+02</pdfrwt>
<pdfrwt beam="2">  1       21 0.14387611E-02 0.20019561E+02</pdfrwt>
<totfact> 0.21292767E+08</totfact>
</mgrwt>
</event>
<event>
 4    1  0.3862688E+004  0.2723311E+02  0.7546771E-02  0.1630854E+00
         21   -1    0    0  501  502  0.00000000000E+00  0.00000000000E+00  0.65201352177E+01  0.65201352177E+01  0.00000000000E+00 0.  1.
         21   -1    0    0  502  503 -0.00000000000E+00 -0.00000000000E+00 -0.11679732959E+03  0.11679732959E+03  0.00000000000E+00 0.  1.
          5    1    1    2  501    0 -0.26721161711E+02  0.52556592235E+01 -0.45173341224E+02  0.52747257695E+02  0.00000000000E+00 0. -1.
         -5    1    1    2    0  503  0.26721161711E+02 -0.52556592235E+01 -0.65103853144E+02  0.70570207108E+02  0.00000000000E+00 0.  1.
<mgrwt>
<rscale>  2 0.27233113E+02</rscale>
<asrwt>0</asrwt>
<pdfrwt beam="1">  1       21 0.10030978E-02 0.27233113E+02</pdfrwt>
<pdfrwt beam="2">  1       21 0.17968818E-01 0.27233113E+02</pdfrwt>
<totfact> 0.77068927E+07</totfact>
</mgrwt>
</event>
<event>
 4    1  0.3862688E+004  0.2531875E+02  0.7546771E-02  0.1656465E+00
         21   -1    0    0  501  502  0.00000000000E+00  0.00000000000E+00  0.43113759246E+03  0.43113759246E+03  0.00000000000E+00 0. -1.
         21   -1    0    0  502  503 -0.00000000000E+00 -0.00000000000E+00 -0.16381116104E+01  0.16381116104E+01  0.00000000000E+00 0. -1.
          3    1    1    2  501    0 -0.24384565466E+02 -0.68141036691E+01  0.14899630360E+03  0.15113218561E+03  0.00000000000E+00 0.  1.
         -3    1    1    2    0  503  0.24384565466E+02  0.68141036691E+01  0.28050317726E+03  0.28164351847E+03  0.00000000000E+00 0. -1.
<mgrwt>
<rscale>  2 0.25318749E+02</rscale>
<asrwt>0</asrwt>
<pdfrwt beam="1">  1       21 0.66328770E-01 0.25318749E+02</pdfrwt>
<pdfrwt beam="2">  1       21 0.25201751E-03 0.25318749E+02</pdfrwt>
<totfact> 0.51070741E+07</totfact>
</mgrwt>
</event>
<event>
 4    1  0.3862688E+004  0.2538869E+02  0.7546771E-02  0.1655481E+00
         21   -1    0    0  503  502  0.00000000000E+00  0.00000000000E+00  0.65273947712E+03  0.65273947712E+03  0.00000000000E+00 0. -1.
         21   -1    0    0  501  503 -0.00000000000E+00 -0.00000000000E+00 -0.10071373794E+01  0.10071373794E+01  0.00000000000E+00 0. -1.
          5    1    1    2  501    0 -0.58703443505E+01  0.24700705584E+02  0.28023279789E+03  0.28138053737E+03  0.00000000000E+00 0.  1.
         -5    1    1    2    0  502  0.58703443505E+01 -0.24700705584E+02  0.37149954185E+03  0.37236607713E+03  0.00000000000E+00 0. -1.
<mgrwt>
<rscale>  2 0.25388694E+02</rscale>
<asrwt>0</asrwt>
<pdfrwt beam="1">  1       21 0.10042112E+00 0.25388694E+02</pdfrwt>
<pdfrwt beam="2">  1       21 0.15494473E-03 0.25388694E+02</pdfrwt>
<totfact> 0.42981154E+07</totfact>
</mgrwt>
</event>
<event>
 4    1  0.3862688E+004  0.2253177E+02  0.7546771E-02  0.1699214E+00
         21   -1    0    0  501  502  0.00000000000E+00  0.00000000000E+00  0.43101279749E+02  0.43101279749E+02  0.00000000000E+00 0.  1.
         21   -1    0    0  502  503 -0.00000000000E+00 -0.00000000000E+00 -0.11805103406E+02  0.11805103406E+02  0.00000000000E+00 0.  1.
          5    1    1    2  501    0 -0.13988873357E+02 -0.17663296190E+02  0.16944390678E+02  0.28192073098E+02  0.00000000000E+00 0.  1.
         -5    1    1    2    0  503  0.13988873357E+02  0.17663296190E+02  0.14351785664E+02  0.26714310057E+02  0.00000000000E+00 0. -1.
<mgrwt>
<rscale>  2 0.22531769E+02</rscale>
<asrwt>0</asrwt>
<pdfrwt beam="1">  1       21 0.66309660E-02 0.22531769E+02</pdfrwt>
<pdfrwt beam="2">  1       21 0.18161698E-02 0.22531769E+02</pdfrwt>
<totfact> 0.15713501E+08</totfact>
</mgrwt>
</event>
<event>
 4    1  0.3862688E+004  0.2388352E+02  0.7546771E-02  0.1677576E+00
         21   -1    0    0  501  502  0.00000000000E+00  0.00000000000E+00  0.24528450489E+03  0.24528450489E+03  0.00000000000E+00 0. -1.
         21   -1    0    0  502  503 -0.00000000000E+00 -0.00000000000E+00 -0.23891228375E+01  0.23891228375E+01  0.00000000000E+00 0. -1.
          1    1    1    2  501    0 -0.23761570863E+02  0.24104111276E+01  0.10124761149E+03  0.10402644454E+03  0.00000000000E+00 0.  1.
         -1    1    1    2    0  503  0.23761570863E+02 -0.24104111276E+01  0.14164777056E+03  0.14364718319E+03  0.00000000000E+00 0. -1.
<mgrwt>
<rscale>  2 0.23883516E+02</rscale>
<asrwt>0</asrwt>
<pdfrwt beam="1">  1       21 0.37736058E-01 0.23883516E+02</pdfrwt>
<pdfrwt beam="2">  1       21 0.36755755E-03 0.23883516E+02</pdfrwt>
<totfact> 0.87285997E+07</totfact>
</mgrwt>
</event>
<event>
 4    1  0.3862688E+004  0.2231893E+02  0.7546771E-02  0.1702794E+00
         21   -1    0    0  501  502  0.00000000000E+00  0.00000000000E+00  0.16414408320E+01  0.16414408320E+01  0.00000000000E+00 0. -1.
         21   -1    0    0  502  503 -0.00000000000E+00 -0.00000000000E+00 -0.35112880165E+03  0.35112880165E+03  0.00000000000E+00 0. -1.
          2    1    1    2  501    0 -0.63428062060E+01 -0.21398673429E+02 -0.23972411462E+03  0.24076084720E+03  0.00000000000E+00 0. -1.
         -2    1    1    2    0  503  0.63428062060E+01  0.21398673429E+02 -0.10976324620E+03  0.11200939529E+03  0.00000000000E+00 0.  1.
<mgrwt>
<rscale>  2 0.22318925E+02</rscale>
<asrwt>0</asrwt>
<pdfrwt beam="1">  1       21 0.25252947E-03 0.22318925E+02</pdfrwt>
<pdfrwt beam="2">  1       21 0.54019792E-01 0.22318925E+02</pdfrwt>
<totfact> 0.74559827E+07</totfact>
</mgrwt>
</event>
<event>
 4    1  0.3862688E+004  0.2849858E+02  0.7546771E-02  0.1615303E+00
         21   -1    0    0  501  502  0.00000000000E+00  0.00000000000E+00  0.10946956749E+03  0.10946956749E+03  0.00000000000E+00 0.  1.
         21   -1    0    0  502  503 -0.00000000000E+00 -0.00000000000E+00 -0.74258875778E+01  0.74258875778E+01  0.00000000000E+00 0.  1.
          1    1    1    2  501    0  0.15841848927E+02 -0.23689762497E+02  0.52784902559E+02  0.59986789901E+02  0.00000000000E+00 0. -1.
         -1    1    1    2    0  503 -0.15841848927E+02  0.23689762497E+02  0.49258777349E+02  0.56908665161E+02  0.00000000000E+00 0.  1.
<mgrwt>
<rscale>  2 0.28498579E+02</rscale>
<asrwt>0</asrwt>
<pdfrwt beam="1">  1       21 0.16841471E-01 0.28498579E+02</pdfrwt>
<pdfrwt beam="2">  1       21 0.11424443E-02 0.28498579E+02</pdfrwt>
<totfact> 0.71606267E+07</totfact>
</mgrwt>
</event>
<event>
 4    1  0.3862688E+004  0.2553362E+02  0.7546771E-02  0.1653454E+00
         21   -1    0    0  501  502  0.00000000000E+00  0.00000000000E+00  0.39800277794E+01  0.39800277794E+01  0.00000000000E+00 0.  1.
         21   -1    0    0  502  503 -0.00000000000E+00 -0.00000000000E+00 -0.18481468097E+03  0.18481468097E+03  0.00000000000E+00 0.  1.
          4    1    1    2  501    0  0.93346301008E+01  0.23766157672E+02 -0.12224147986E+03  0.12487972200E+03  0.00000000000E+00 0.  1.
         -4    1    1    2    0  503 -0.93346301008E+01 -0.23766157672E+02 -0.58593173330E+02  0.63914986744E+02  0.00000000000E+00 0. -1.
<mgrwt>
<rscale>  2 0.25533616E+02</rscale>
<asrwt>0</asrwt>
<pdfrwt beam="1">  1       21 0.61231202E-03 0.25533616E+02</pdfrwt>
<pdfrwt beam="2">  1       21 0.28433026E-01 0.25533616E+02</pdfrwt>
<totfact> 0.70381612E+07</totfact>
</mgrwt>
</event>
<event>
 4    1  0.3862688E+004  0.2588138E+02  0.7546771E-02  0.1648656E+00
         21   -1    0    0  503  502  0.00000000000E+00  0.00000000000E+00  0.95644580900E+00  0.95644580900E+00  0.00000000000E+00 0. -1.
         21   -1    0    0  501  503 -0.00000000000E+00 -0.00000000000E+00 -0.71598866122E+03  0.71598866122E+03  0.00000000000E+00 0. -1.
          5    1    1    2  501    0 -0.22814531643E+02 -0.12220588723E+02 -0.30453515713E+03  0.30563296218E+03  0.00000000000E+00 0.  1.
         -5    1    1    2    0  502  0.22814531643E+02  0.12220588723E+02 -0.41049705829E+03  0.41131214485E+03  0.00000000000E+00 0. -1.
<mgrwt>
<rscale>  2 0.25881376E+02</rscale>
<asrwt>0</asrwt>
<pdfrwt beam="1">  1       21 0.14714604E-03 0.25881376E+02</pdfrwt>
<pdfrwt beam="2">  1       21 0.11015170E+00 0.25881376E+02</pdfrwt>
<totfact> 0.37837645E+07</totfact>
</mgrwt>
</event>
<event>
 4    1  0.3862688E+004  0.3361164E+02  0.7546771E-02  0.1561287E+00
         21   -1    0    0  503  502  0.00000000000E+00  0.00000000000E+00  0.23276392315E+02  0.23276392315E+02  0.00000000000E+00 0.  1.
         21   -1    0    0  501  503 -0.00000000000E+00 -0.00000000000E+00 -0.52789042065E+02  0.52789042065E+02  0.00000000000E+00 0.  1.
          1    1    1    2  501    0 -0.11581238635E+02  0.31553400381E+02 -0.25551683812E+02  0.42221211607E+02  0.00000000000E+00 0. -1.
         -1    1    1    2    0  502  0.11581238635E+02 -0.31553400381E+02 -0.39609659378E+01  0.33844222773E+02  0.00000000000E+00 0.  1.
<mgrwt>
<rscale>  2 0.33611637E+02</rscale>
<asrwt>0</asrwt>
<pdfrwt beam="1">  1       21 0.35809835E-02 0.33611637E+02</pdfrwt>
<pdfrwt beam="2">  1       21 0.81213910E-02 0.33611637E+02</pdfrwt>
<totfact> 0.43321013E+07</totfact>
</mgrwt>
</event>
<event>
 4    1  0.3862688E+004  0.2147095E+02  0.7546771E-02  0.1717566E+00
         21   -1    0    0  503  502  0.00000000000E+00  0.00000000000E+00  0.12076382802E+02  0.12076382802E+02  0.00000000000E+00 0. -1.
         21   -1    0    0  501  503 -0.00000000000E+00 -0.00000000000E+00 -0.44058766289E+02  0.44058766289E+02  0.00000000000E+00 0. -1.
          5    1    1    2  501    0 -0.65330153963E+01  0.20452903538E+02 -0.26249135338E+02  0.33911925031E+02  0.00000000000E+00 0. -1.
         -5    1    1    2    0  502  0.65330153963E+01 -0.20452903538E+02 -0.57332481484E+01  0.22223224060E+02  0.00000000000E+00 0.  1.
<mgrwt>
<rscale>  2 0.21470947E+02</rscale>
<asrwt>0</asrwt>
<pdfrwt beam="1">  1       21 0.18579050E-02 0.21470947E+02</pdfrwt>
<pdfrwt beam="2">  1       21 0.67782718E-02 0.21470947E+02</pdfrwt>
<totfact> 0.14434743E+08</totfact>
</mgrwt>
</event>
<event>
 4    1  0.3862688E+004  0.2731495E+02  0.7546771E-02  0.1629818E+00
         21   -1    0    0  503  502  0.00000000000E+00  0.00000000000E+00  0.24390236687E+02  0.24390236687E+02  0.00000000000E+00 0.  1.
         21   -1    0    0  501  503 -0.00000000000E+00 -0.00000000000E+00 -0.30642893281E+02  0.30642893281E+02  0.00000000000E+00 0.  1.
          5    1    1    2  501    0 -0.14030553391E+02  0.23436087274E+02 -0.42654307549E+01  0.27645985507E+02  0.00000000000E+00 0.  1.
         -5    1    1    2    0  502  0.14030553391E+02 -0.23436087274E+02 -0.19872258390E+01  0.27387144460E+02  0.00000000000E+00 0. -1.
<mgrwt>
<rscale>  2 0.27314952E+02</rscale>
<asrwt>0</asrwt>
<pdfrwt beam="1">  1       21 0.37523441E-02 0.27314952E+02</pdfrwt>
<pdfrwt beam="2">  1       21 0.47142913E-02 0.27314952E+02</pdfrwt>
<totfact> 0.92882238E+07</totfact>
</mgrwt>
</event>
<event>
 4    1  0.3862688E+004  0.2098485E+02  0.7546771E-02  0.1726424E+00
         21   -1    0    0  501  502  0.00000000000E+00  0.00000000000E+00  0.16183035352E+02  0.16183035352E+02  0.00000000000E+00 0. -1.
         21   -1    0    0  502  503 -0.00000000000E+00 -0.00000000000E+00 -0.32113760235E+02  0.32113760235E+02  0.00000000000E+00 0. -1.
          5    1    1    2  501    0  0.17432628641E+02 -0.11681926143E+02  0.14696594268E+01  0.21036250583E+02  0.00000000000E+00 0.  1.
         -5    1    1    2    0  503 -0.17432628641E+02  0.11681926143E+02 -0.17400384310E+02  0.27260545004E+02  0.00000000000E+00 0. -1.
<mgrwt>
<rscale>  2 0.20984850E+02</rscale>
<asrwt>0</asrwt>
<pdfrwt beam="1">  1       21 0.24896978E-02 0.20984850E+02</pdfrwt>
<pdfrwt beam="2">  1       21 0.49405784E-02 0.20984850E+02</pdfrwt>
<totfact> 0.15166937E+08</totfact>
</mgrwt>
</event>
<event>
 4    1  0.3862688E+004  0.2106702E+02  0.7546771E-02  0.1724905E+00
         21   -1    0    0  503  502  0.00000000000E+00  0.00000000000E+00  0.19676274873E+01  0.19676274873E+01  0.00000000000E+00 0.  1.
         21   -1    0    0  501  503 -0.00000000000E+00 -0.00000000000E+00 -0.12942086446E+04  0.12942086446E+04  0.00000000000E+00 0.  1.
          2    1    1    2  501    0  0.15275995910E+02  0.14507353177E+02 -0.12350309567E+04  0.12352106231E+04  0.00000000000E+00 0.  1.
         -2    1    1    2    0  502 -0.15275995910E+02 -0.14507353177E+02 -0.57210060421E+02  0.60965649022E+02  0.00000000000E+00 0. -1.
<mgrwt>
<rscale>  2 0.21067020E+02</rscale>
<asrwt>0</asrwt>
<pdfrwt beam="1">  1       21 0.30271279E-03 0.21067020E+02</pdfrwt>
<pdfrwt beam="2">  1       21 0.19910845E+00 0.21067020E+02</pdfrwt>
<totfact> 0.31674997E+06</totfact>
</mgrwt>
</event>
<event>
 4    1  0.3862688E+004  0.3263394E+02  0.7546771E-02  0.1570675E+00
         21   -1    0    0  501  502  0.00000000000E+00  0.00000000000E+00  0.10317499067E+02  0.10317499067E+02  0.00000000000E+00 0.  1.
         21   -1    0    0  502  503 -0.00000000000E+00 -0.00000000000E+00 -0.12666463365E+03  0.12666463365E+03  0.00000000000E+00 0.  1.
          4    1    1    2  501    0 -0.46591950896E+01 -0.32299623922E+02 -0.87639933068E+02  0.93518616716E+02  0.00000000000E+00 0.  1.
         -4    1    1    2    0  503  0.46591950896E+01  0.32299623922E+02 -0.28707201517E+02  0.43463516003E+02  0.00000000000E+00 0. -1.
<mgrwt>
<rscale>  2 0.32633936E+02</rscale>
<asrwt>0</asrwt>
<pdfrwt beam="1">  1       21 0.15873075E-02 0.32633936E+02</pdfrwt>
<pdfrwt beam="2">  1       21 0.19486867E-01 0.32633936E+02</pdfrwt>
<totfact> 0.34526918E+07</totfact>
</mgrwt>
</event>
<event>
 4    1  0.3862688E+004  0.2268240E+02  0.7546771E-02  0.1696711E+00
         21   -1    0    0  503  502  0.00000000000E+00  0.00000000000E+00  0.19229875018E+02  0.19229875018E+02  0.00000000000E+00 0.  1.
         21   -1    0    0  501  503 -0.00000000000E+00 -0.00000000000E+00 -0.26770684982E+02  0.26770684982E+02  0.00000000000E+00 0.  1.
          3    1    1    2  501    0  0.22058157614E+02  0.52847928741E+01 -0.32100375975E+01  0.22908419728E+02  0.00000000000E+00 0.  1.
         -3    1    1    2    0  502 -0.22058157614E+02 -0.52847928741E+01 -0.43307723662E+01  0.23092140272E+02  0.00000000000E+00 0. -1.
<mgrwt>
<rscale>  2 0.22682402E+02</rscale>
<asrwt>0</asrwt>
<pdfrwt beam="1">  1       21 0.29584423E-02 0.22682402E+02</pdfrwt>
<pdfrwt beam="2">  1       21 0.41185669E-02 0.22682402E+02</pdfrwt>
<totfact> 0.15860411E+08</totfact>
</mgrwt>
</event>
<event>
 4    1  0.3862688E+004  0.2319732E+02  0.7546771E-02  0.1688331E+00
         21   -1    0    0  501  502  0.00000000000E+00  0.00000000000E+00  0.11409910198E+02  0.11409910198E+02  0.00000000000E+00 0.  1.
         21   -1    0    0  502  503 -0.00000000000E+00 -0.00000000000E+00 -0.47276431436E+02  0.47276431436E+02  0.00000000000E+00 0.  1.
          2    1    1    2  501    0 -0.12982913670E+02  0.19223931618E+02 -0.16490405130E+02  0.28461360747E+02  0.00000000000E+00 0. -1.
         -2    1    1    2    0  503  0.12982913670E+02 -0.19223931618E+02 -0.19376116108E+02  0.30224980887E+02  0.00000000000E+00 0.  1.
<mgrwt>
<rscale>  2 0.23197319E+02</rscale>
<asrwt>0</asrwt>
<pdfrwt beam="1">  1       21 0.17553708E-02 0.23197319E+02</pdfrwt>
<pdfrwt beam="2">  1       21 0.72732972E-02 0.23197319E+02</pdfrwt>
<totfact> 0.14378507E+08</totfact>
</mgrwt>
</event>
<event>
 4    1  0.3862688E+004  0.2127992E+02  0.7546771E-02  0.1721011E+00
         21   -1    0    0  503  502  0.00000000000E+00  0.00000000000E+00  0.10555731827E+03  0.10555731827E+03  0.00000000000E+00 0.  1.
         21   -1    0    0  501  503 -0.00000000000E+00 -0.00000000000E+00 -0.58060761750E+01  0.58060761750E+01  0.00000000000E+00 0.  1.
          3    1    1    2  501    0 -0.19010390240E+02  0.95624400509E+01  0.21421882055E+02  0.30194904000E+02  0.00000000000E+00 0. -1.
         -3    1    1    2    0  502  0.19010390240E+02 -0.95624400509E+01  0.78329360037E+02  0.81168490442E+02  0.00000000000E+00 0.  1.
<mgrwt>
<rscale>  2 0.21279925E+02</rscale>
<asrwt>0</asrwt>
<pdfrwt beam="1">  1       21 0.16239586E-01 0.21279925E+02</pdfrwt>
<pdfrwt beam="2">  1       21 0.89324257E-03 0.21279925E+02</pdfrwt>
<totfact> 0.10230158E+08</totfact>
</mgrwt>
</event>
<event>
 4    1  0.3862688E+004  0.2196784E+02  0.7546771E-02  0.1708809E+00
         21   -1    0    0  501  502  0.00000000000E+00  0.00000000000E+00  0.76884842993E+01  0.76884842993E+01  0.00000000000E+00 0.  1.
         21   -1    0    0  502  503 -0.00000000000E+00 -0.00000000000E+00 -0.96308759161E+02  0.96308759161E+02  0.00000000000E+00 0.  1.
          2    1    1    2  501    0  0.21627839001E+02 -0.38499954261E+01 -0.74996789343E+02  0.78147964122E+02  0.00000000000E+00 0. -1.
         -2    1    1    2    0  503 -0.21627839001E+02  0.38499954261E+01 -0.13623485519E+02  0.25849279338E+02  0.00000000000E+00 0.  1.
<mgrwt>
<rscale>  2 0.21967838E+02</rscale>
<asrwt>0</asrwt>
<pdfrwt beam="1">  1       21 0.11828437E-02 0.21967838E+02</pdfrwt>
<pdfrwt beam="2">  1       21 0.14816733E-01 0.21967838E+02</pdfrwt>
<totfact> 0.79184801E+07</totfact>
</mgrwt>
</event>
<event>
 4    1  0.3862688E+004  0.2198695E+02  0.7546771E-02  0.1708478E+00
         21   -1    0    0  503  502  0.00000000000E+00  0.00000000000E+00  0.16007885114E+02  0.16007885114E+02  0.00000000000E+00 0. -1.
         21   -1    0    0  501  503 -0.00000000000E+00 -0.00000000000E+00 -0.78078077818E+02  0.78078077818E+02  0.00000000000E+00 0. -1.
          2    1    1    2  501    0  0.37336567153E+01  0.21667625514E+02 -0.67873603180E+02  0.71346003367E+02  0.00000000000E+00 0.  1.
         -2    1    1    2    0  502 -0.37336567153E+01 -0.21667625514E+02  0.58034104749E+01  0.22739959565E+02  0.00000000000E+00 0. -1.
<mgrwt>
<rscale>  2 0.21986955E+02</rscale>
<asrwt>0</asrwt>
<pdfrwt beam="1">  1       21 0.24627516E-02 0.21986955E+02</pdfrwt>
<pdfrwt beam="2">  1       21 0.12012012E-01 0.21986955E+02</pdfrwt>
<totfact> 0.36882676E+07</totfact>
</mgrwt>
</event>
<event>
 4    1  0.3862688E+004  0.2862934E+02  0.7546771E-02  0.1613753E+00
         21   -1    0    0  503  502  0.00000000000E+00  0.00000000000E+00  0.69527672549E+02  0.69527672549E+02  0.00000000000E+00 0.  1.
         21   -1    0    0  501  503 -0.00000000000E+00 -0.00000000000E+00 -0.13267428384E+02  0.13267428384E+02  0.00000000000E+00 0.  1.
          1    1    1    2  501    0  0.23545687429E+02 -0.16286189159E+02  0.41950778872E+02  0.50788849187E+02  0.00000000000E+00 0. -1.
         -1    1    1    2    0  502 -0.23545687429E+02  0.16286189159E+02  0.14309465293E+02  0.32006251745E+02  0.00000000000E+00 0.  1.
<mgrwt>
<rscale>  2 0.28629344E+02</rscale>
<asrwt>0</asrwt>
<pdfrwt beam="1">  1       21 0.10696565E-01 0.28629344E+02</pdfrwt>
<pdfrwt beam="2">  1       21 0.20411429E-02 0.28629344E+02</pdfrwt>
<totfact> 0.63824878E+07</totfact>
</mgrwt>
</event>
<event>
 4    1  0.3862688E+004  0.2224034E+02  0.7546771E-02  0.1704128E+00
         21   -1    0    0  501  502  0.00000000000E+00  0.00000000000E+00  0.10340994367E+03  0.10340994367E+03  0.00000000000E+00 0. -1.
         21   -1    0    0  502  503 -0.00000000000E+00 -0.00000000000E+00 -0.12274566716E+02  0.12274566716E+02  0.00000000000E+00 0. -1.
          2    1    1    2  501    0 -0.18136736482E+01  0.22166267252E+02  0.37980553375E+00  0.22243584878E+02  0.00000000000E+00 0. -1.
         -2    1    1    2    0  503  0.18136736482E+01 -0.22166267252E+02  0.90755571415E+02  0.93440925503E+02  0.00000000000E+00 0.  1.
<mgrwt>
<rscale>  2 0.22240342E+02</rscale>
<asrwt>0</asrwt>
<pdfrwt beam="1">  1       21 0.15909222E-01 0.22240342E+02</pdfrwt>
<pdfrwt beam="2">  1       21 0.18883949E-02 0.22240342E+02</pdfrwt>
<totfact> 0.34598374E+07</totfact>
</mgrwt>
</event>
<event>
 4    1  0.3862688E+004  0.2095893E+02  0.7546771E-02  0.1726905E+00
         21   -1    0    0  503  502  0.00000000000E+00  0.00000000000E+00  0.10293206363E+03  0.10293206363E+03  0.00000000000E+00 0. -1.
         21   -1    0    0  501  503 -0.00000000000E+00 -0.00000000000E+00 -0.43389803106E+01  0.43389803106E+01  0.00000000000E+00 0. -1.
          5    1    1    2  501    0  0.84672038988E+01 -0.19172461381E+02  0.42419029965E+02  0.47314383864E+02  0.00000000000E+00 0. -1.
         -5    1    1    2    0  502 -0.84672038988E+01  0.19172461381E+02  0.56174053353E+02  0.59956660075E+02  0.00000000000E+00 0.  1.
<mgrwt>
<rscale>  2 0.20958932E+02</rscale>
<asrwt>0</asrwt>
<pdfrwt beam="1">  1       21 0.15835700E-01 0.20958932E+02</pdfrwt>
<pdfrwt beam="2">  1       21 0.66753551E-03 0.20958932E+02</pdfrwt>
<totfact> 0.16393627E+08</totfact>
</mgrwt>
</event>
<event>
 4    1  0.3862688E+004  0.2411800E+02  0.7546771E-02  0.1674003E+00
         21   -1    0    0  503  502  0.00000000000E+00  0.00000000000E+00  0.16771928648E+02  0.16771928648E+02  0.00000000000E+00 0.  1.
         21   -1    0    0  501  503 -0.00000000000E+00 -0.00000000000E+00 -0.35436785631E+02  0.35436785631E+02  0.00000000000E+00 0.  1.
          3    1    1    2  501    0  0.16204360441E+02  0.17863281565E+02 -0.55217799119E+01  0.24742032636E+02  0.00000000000E+00 0.  1.
         -3    1    1    2    0  502 -0.16204360441E+02 -0.17863281565E+02 -0.13143077071E+02  0.27466681643E+02  0.00000000000E+00 0. -1.
<mgrwt>
<rscale>  2 0.24118004E+02</rscale>
<asrwt>0</asrwt>
<pdfrwt beam="1">  1       21 0.25802967E-02 0.24118004E+02</pdfrwt>
<pdfrwt beam="2">  1       21 0.54518131E-02 0.24118004E+02</pdfrwt>
<totfact> 0.12795415E+08</totfact>
</mgrwt>
</event>
<event>
 4    1  0.3862688E+004  0.2734281E+02  0.7546771E-02  0.1629466E+00
         21   -1    0    0  501  502  0.00000000000E+00  0.00000000000E+00  0.53809226828E+03  0.53809226828E+03  0.00000000000E+00 0.  1.
         21   -1    0    0  502  503 -0.00000000000E+00 -0.00000000000E+00 -0.14372230809E+01  0.14372230809E+01  0.00000000000E+00 0.  1.
          2    1    1    2  501    0 -0.22150125323E+02 -0.16031258049E+02  0.21912254275E+03  0.22082191473E+03  0.00000000000E+00 0. -1.
         -2    1    1    2    0  503  0.22150125323E+02  0.16031258049E+02  0.31753250245E+03  0.31870757663E+03  0.00000000000E+00 0.  1.
<mgrwt>
<rscale>  2 0.27342811E+02</rscale>
<asrwt>0</asrwt>
<pdfrwt beam="1">  1       21 0.82783265E-01 0.27342811E+02</pdfrwt>
<pdfrwt beam="2">  1       21 0.22111167E-03 0.27342811E+02</pdfrwt>
<totfact> 0.39562659E+07</totfact>
</mgrwt>
</event>
<event>
 4    1  0.3862688E+004  0.2323144E+02  0.7546771E-02  0.1687786E+00
         21   -1    0    0  501  502  0.00000000000E+00  0.00000000000E+00  0.47353545684E+00  0.47353545684E+00  0.00000000000E+00 0.  1.
         21   -1    0    0  502  503 -0.00000000000E+00 -0.00000000000E+00 -0.11700029390E+04  0.11700029390E+04  0.00000000000E+00 0.  1.
          2    1    1    2  501    0  0.16174235409E+02  0.16676151250E+02 -0.49061765138E+03  0.49116736431E+03  0.00000000000E+00 0. -1.
         -2    1    1    2    0  503 -0.16174235409E+02 -0.16676151250E+02 -0.67891175213E+03  0.67930911012E+03  0.00000000000E+00 0.  1.
<mgrwt>
<rscale>  2 0.23231442E+02</rscale>
<asrwt>0</asrwt>
<pdfrwt beam="1">  1       21 0.72851391E-04 0.23231442E+02</pdfrwt>
<pdfrwt beam="2">  1       21 0.18000099E+00 0.23231442E+02</pdfrwt>
<totfact> 0.31875602E+07</totfact>
</mgrwt>
</event>
<event>
 4    1  0.3862688E+004  0.2198815E+02  0.7546771E-02  0.1708457E+00
         21   -1    0    0  503  502  0.00000000000E+00  0.00000000000E+00  0.10651734891E+03  0.10651734891E+03  0.00000000000E+00 0. -1.
         21   -1    0    0  501  503 -0.00000000000E+00 -0.00000000000E+00 -0.47968869793E+01  0.47968869793E+01  0.00000000000E+00 0. -1.
          1    1    1    2  501    0 -0.12257821870E+01  0.21953953966E+02  0.37954452267E+02  0.43863641933E+02  0.00000000000E+00 0.  1.
         -1    1    1    2    0  502  0.12257821870E+01 -0.21953953966E+02  0.63766009665E+02  0.67450593958E+02  0.00000000000E+00 0. -1.
<mgrwt>
<rscale>  2 0.21988148E+02</rscale>
<asrwt>0</asrwt>
<pdfrwt beam="1">  1       21 0.16387283E-01 0.21988148E+02</pdfrwt>
<pdfrwt beam="2">  1       21 0.73798269E-03 0.21988148E+02</pdfrwt>
<totfact> 0.13515733E+08</totfact>
</mgrwt>
</event>
<event>
 4    1  0.3862688E+004  0.2269240E+02  0.7546771E-02  0.1696545E+00
         21   -1    0    0  501  502  0.00000000000E+00  0.00000000000E+00  0.16730348441E+01  0.16730348441E+01  0.00000000000E+00 0. -1.
         21   -1    0    0  502  503 -0.00000000000E+00 -0.00000000000E+00 -0.32945967164E+03  0.32945967164E+03  0.00000000000E+00 0. -1.
          1    1    1    2  501    0 -0.16724533829E+02  0.15337377933E+02 -0.12143269732E+03  0.12353479337E+03  0.00000000000E+00 0. -1.
         -1    1    1    2    0  503  0.16724533829E+02 -0.15337377933E+02 -0.20635393948E+03  0.20759791312E+03  0.00000000000E+00 0.  1.
<mgrwt>
<rscale>  2 0.22692404E+02</rscale>
<asrwt>0</asrwt>
<pdfrwt beam="1">  1       21 0.25738998E-03 0.22692404E+02</pdfrwt>
<pdfrwt beam="2">  1       21 0.50686102E-01 0.22692404E+02</pdfrwt>
<totfact> 0.82487694E+07</totfact>
</mgrwt>
</event>
<event>
 4    1  0.3862688E+004  0.2285027E+02  0.7546771E-02  0.1693949E+00
         21   -1    0    0  501  502  0.00000000000E+00  0.00000000000E+00  0.49796542484E+00  0.49796542484E+00  0.00000000000E+00 0.  1.
         21   -1    0    0  502  503 -0.00000000000E+00 -0.00000000000E+00 -0.13433957321E+04  0.13433957321E+04  0.00000000000E+00 0.  1.
          3    1    1    2  501    0 -0.20916398711E+02 -0.91999517609E+01 -0.98625301040E+03  0.98651768123E+03  0.00000000000E+00 0.  1.
         -3    1    1    2    0  503  0.20916398711E+02  0.91999517609E+01 -0.35664475629E+03  0.35737601632E+03  0.00000000000E+00 0. -1.
<mgrwt>
<rscale>  2 0.22850270E+02</rscale>
<asrwt>0</asrwt>
<pdfrwt beam="1">  1       21 0.76609909E-04 0.22850270E+02</pdfrwt>
<pdfrwt beam="2">  1       21 0.20667669E+00 0.22850270E+02</pdfrwt>
<totfact> 0.20826833E+07</totfact>
</mgrwt>
</event>
<event>
 4    1  0.3862688E+004  0.2000827E+02  0.7546771E-02  0.1745164E+00
         21   -1    0    0  501  502  0.00000000000E+00  0.00000000000E+00  0.10339899673E+02  0.10339899673E+02  0.00000000000E+00 0.  1.
         21   -1    0    0  502  503 -0.00000000000E+00 -0.00000000000E+00 -0.46116463939E+02  0.46116463939E+02  0.00000000000E+00 0.  1.
          2    1    1    2  501    0  0.29648023942E+01 -0.19787390981E+02 -0.65811569990E+01  0.21062823232E+02  0.00000000000E+00 0. -1.
         -2    1    1    2    0  503 -0.29648023942E+01  0.19787390981E+02 -0.29195407268E+02  0.35393540379E+02  0.00000000000E+00 0.  1.
<mgrwt>
<rscale>  2 0.20008271E+02</rscale>
<asrwt>0</asrwt>
<pdfrwt beam="1">  1       21 0.15907538E-02 0.20008271E+02</pdfrwt>
<pdfrwt beam="2">  1       21 0.70948406E-02 0.20008271E+02</pdfrwt>
<totfact> 0.16610318E+08</totfact>
</mgrwt>
</event>
<event>
 4    1  0.3862688E+004  0.2819805E+02  0.7546771E-02  0.1618906E+00
         21   -1    0    0  501  502  0.00000000000E+00  0.00000000000E+00  0.22441225429E+03  0.22441225429E+03  0.00000000000E+00 0.  1.
         21   -1    0    0  502  503 -0.00000000000E+00 -0.00000000000E+00 -0.36211493609E+01  0.36211493609E+01  0.00000000000E+00 0.  1.
          4    1    1    2  501    0  0.67475505588E+01 -0.27378834386E+02  0.12712742215E+03  0.13021717042E+03  0.00000000000E+00 0.  1.
         -4    1    1    2    0  503 -0.67475505588E+01  0.27378834386E+02  0.93663682783E+02  0.97816233230E+02  0.00000000000E+00 0. -1.
<mgrwt>
<rscale>  2 0.28198050E+02</rscale>
<asrwt>0</asrwt>
<pdfrwt beam="1">  1       21 0.34524951E-01 0.28198050E+02</pdfrwt>
<pdfrwt beam="2">  1       21 0.55710008E-03 0.28198050E+02</pdfrwt>
<totfact> 0.57986940E+07</totfact>
</mgrwt>
</event>
<event>
 4    1  0.3862688E+004  0.2263672E+02  0.7546771E-02  0.1697467E+00
         21   -1    0    0  503  502  0.00000000000E+00  0.00000000000E+00  0.41404620657E+02  0.41404620657E+02  0.00000000000E+00 0.  1.
         21   -1    0    0  501  503 -0.00000000000E+00 -0.00000000000E+00 -0.12740921204E+02  0.12740921204E+02  0.00000000000E+00 0.  1.
          5    1    1    2  501    0  0.21172715241E+02  0.80085813905E+01  0.18913959097E+02  0.29498459202E+02  0.00000000000E+00 0.  1.
         -5    1    1    2    0  502 -0.21172715241E+02 -0.80085813905E+01  0.97497403570E+01  0.24647082659E+02  0.00000000000E+00 0. -1.
<mgrwt>
<rscale>  2 0.22636723E+02</rscale>
<asrwt>0</asrwt>
<pdfrwt beam="1">  1       21 0.63699416E-02 0.22636723E+02</pdfrwt>
<pdfrwt beam="2">  1       21 0.19601417E-02 0.22636723E+02</pdfrwt>
<totfact> 0.14938424E+08</totfact>
</mgrwt>
</event>
<event>
 4    1  0.3862688E+004  0.2713151E+02  0.7546771E-02  0.1632148E+00
         21   -1    0    0  501  502  0.00000000000E+00  0.00000000000E+00  0.14927878779E+03  0.14927878779E+03  0.00000000000E+00 0.  1.
         21   -1    0    0  502  503 -0.00000000000E+00 -0.00000000000E+00 -0.49312058884E+01  0.49312058884E+01  0.00000000000E+00 0.  1.
          2    1    1    2  501    0  0.27172944889E+01  0.26995093771E+02  0.71959981001E+02  0.76904860982E+02  0.00000000000E+00 0. -1.
         -2    1    1    2    0  503 -0.27172944889E+01 -0.26995093771E+02  0.72387600901E+02  0.77305132696E+02  0.00000000000E+00 0.  1.
<mgrwt>
<rscale>  2 0.27131509E+02</rscale>
<asrwt>0</asrwt>
<pdfrwt beam="1">  1       21 0.22965964E-01 0.27131509E+02</pdfrwt>
<pdfrwt beam="2">  1       21 0.75864717E-03 0.27131509E+02</pdfrwt>
<totfact> 0.76118676E+07</totfact>
</mgrwt>
</event>
<event>
 4    1  0.3862688E+004  0.2482165E+02  0.7546771E-02  0.1663577E+00
         21   -1    0    0  503  502  0.00000000000E+00  0.00000000000E+00  0.13984605200E+02  0.13984605200E+02  0.00000000000E+00 0.  1.
         21   -1    0    0  501  503 -0.00000000000E+00 -0.00000000000E+00 -0.44586033269E+02  0.44586033269E+02  0.00000000000E+00 0.  1.
          4    1    1    2  501    0  0.14738692442E+02 -0.19972107613E+02 -0.18491934039E+02  0.30952637398E+02  0.00000000000E+00 0. -1.
         -4    1    1    2    0  502 -0.14738692442E+02  0.19972107613E+02 -0.12109494030E+02  0.27618001070E+02  0.00000000000E+00 0.  1.
<mgrwt>
<rscale>  2 0.24821647E+02</rscale>
<asrwt>0</asrwt>
<pdfrwt beam="1">  1       21 0.21514777E-02 0.24821647E+02</pdfrwt>
<pdfrwt beam="2">  1       21 0.68593897E-02 0.24821647E+02</pdfrwt>
<totfact> 0.11800119E+08</totfact>
</mgrwt>
</event>
<event>
 4    1  0.3862688E+004  0.2881490E+02  0.7546771E-02  0.1611570E+00
         21   -1    0    0  503  502  0.00000000000E+00  0.00000000000E+00  0.56302906547E+02  0.56302906547E+02  0.00000000000E+00 0. -1.
         21   -1    0    0  501  503 -0.00000000000E+00 -0.00000000000E+00 -0.15389859121E+02  0.15389859121E+02  0.00000000000E+00 0. -1.
          5    1    1    2  501    0  0.10423343431E+02 -0.26863592493E+02  0.13130175452E+02  0.31665441688E+02  0.00000000000E+00 0. -1.
         -5    1    1    2    0  502 -0.10423343431E+02  0.26863592493E+02  0.27782871974E+02  0.40027323980E+02  0.00000000000E+00 0.  1.
<mgrwt>
<rscale>  2 0.28814904E+02</rscale>
<asrwt>0</asrwt>
<pdfrwt beam="1">  1       21 0.86619855E-02 0.28814904E+02</pdfrwt>
<pdfrwt beam="2">  1       21 0.23676707E-02 0.28814904E+02</pdfrwt>
<totfact> 0.72146805E+07</totfact>
</mgrwt>
</event>
<event>
 4    1  0.3862688E+004  0.2015647E+02  0.7546771E-02  0.1742234E+00
         21   -1    0    0  501  502  0.00000000000E+00  0.00000000000E+00  0.24281107949E+01  0.24281107949E+01  0.00000000000E+00 0.  1.
         21   -1    0    0  502  503 -0.00000000000E+00 -0.00000000000E+00 -0.21358379124E+03  0.21358379124E+03  0.00000000000E+00 0.  1.
          5    1    1    2  501    0 -0.18042665379E+02  0.89858408928E+01 -0.15584237891E+03  0.15714047911E+03  0.00000000000E+00 0.  1.
         -5    1    1    2    0  503  0.18042665379E+02 -0.89858408928E+01 -0.55313301534E+02  0.58871422924E+02  0.00000000000E+00 0. -1.
<mgrwt>
<rscale>  2 0.20156466E+02</rscale>
<asrwt>0</asrwt>
<pdfrwt beam="1">  1       21 0.37355544E-03 0.20156466E+02</pdfrwt>
<pdfrwt beam="2">  1       21 0.32859050E-01 0.20156466E+02</pdfrwt>
<totfact> 0.10519719E+08</totfact>
</mgrwt>
</event>
<event>
 4    1  0.3862688E+004  0.2256511E+02  0.7546771E-02  0.1698658E+00
         21   -1    0    0  503  502  0.00000000000E+00  0.00000000000E+00  0.40852058463E+02  0.40852058463E+02  0.00000000000E+00 0.  1.
         21   -1    0    0  501  503 -0.00000000000E+00 -0.00000000000E+00 -0.12644755401E+02  0.12644755401E+02  0.00000000000E+00 0.  1.
          2    1    1    2  501    0 -0.22206456306E+02  0.40071539446E+01  0.10906429382E+02  0.25062605337E+02  0.00000000000E+00 0.  1.
         -2    1    1    2    0  502  0.22206456306E+02 -0.40071539446E+01  0.17300873680E+02  0.28434208526E+02  0.00000000000E+00 0. -1.
<mgrwt>
<rscale>  2 0.22565105E+02</rscale>
<asrwt>0</asrwt>
<pdfrwt beam="1">  1       21 0.62849320E-02 0.22565105E+02</pdfrwt>
<pdfrwt beam="2">  1       21 0.19453470E-02 0.22565105E+02</pdfrwt>
<totfact> 0.15428332E+08</totfact>
</mgrwt>
</event>
<event>
 4    1  0.3862688E+004  0.2246289E+02  0.7546771E-02  0.1700367E+00
         21   -1    0    0  503  502  0.00000000000E+00  0.00000000000E+00  0.10763168165E+02  0.10763168165E+02  0.00000000000E+00 0. -1.
         21   -1    0    0  501  503 -0.00000000000E+00 -0.00000000000E+00 -0.49390987366E+02  0.49390987366E+02  0.00000000000E+00 0. -1.
          4    1    1    2  501    0  0.21144451786E+02  0.75824489071E+01 -0.26095030883E+02  0.34431555433E+02  0.00000000000E+00 0. -1.
         -4    1    1    2    0  502 -0.21144451786E+02 -0.75824489071E+01 -0.12532788318E+02  0.25722600098E+02  0.00000000000E+00 0.  1.
<mgrwt>
<rscale>  2 0.22462889E+02</rscale>
<asrwt>0</asrwt>
<pdfrwt beam="1">  1       21 0.16558720E-02 0.22462889E+02</pdfrwt>
<pdfrwt beam="2">  1       21 0.75986135E-02 0.22462889E+02</pdfrwt>
<totfact> 0.14497866E+08</totfact>
</mgrwt>
</event>
<event>
 4    1  0.3862688E+004  0.2612086E+02  0.7546771E-02  0.1645406E+00
         21   -1    0    0  503  502  0.00000000000E+00  0.00000000000E+00  0.11447894187E+02  0.11447894187E+02  0.00000000000E+00 0.  1.
         21   -1    0    0  501  503 -0.00000000000E+00 -0.00000000000E+00 -0.59718096777E+02  0.59718096777E+02  0.00000000000E+00 0.  1.
          4    1    1    2  501    0 -0.24966793072E+02 -0.76784357991E+01 -0.25714755956E+02  0.36654437746E+02  0.00000000000E+00 0.  1.
         -4    1    1    2    0  502  0.24966793072E+02  0.76784357991E+01 -0.22555446634E+02  0.34511553217E+02  0.00000000000E+00 0. -1.
<mgrwt>
<rscale>  2 0.26120856E+02</rscale>
<asrwt>0</asrwt>
<pdfrwt beam="1">  1       21 0.17612145E-02 0.26120856E+02</pdfrwt>
<pdfrwt beam="2">  1       21 0.91873995E-02 0.26120856E+02</pdfrwt>
<totfact> 0.10085365E+08</totfact>
</mgrwt>
</event>
<event>
 4    1  0.3862688E+004  0.2310259E+02  0.7546771E-02  0.1689853E+00
         21   -1    0    0  501  502  0.00000000000E+00  0.00000000000E+00  0.38449726581E+02  0.38449726581E+02  0.00000000000E+00 0. -1.
         21   -1    0    0  502  503 -0.00000000000E+00 -0.00000000000E+00 -0.25256997316E+02  0.25256997316E+02  0.00000000000E+00 0. -1.
          2    1    1    2  501    0  0.23102327230E+02 -0.10942107731E+00 -0.14781029702E+02  0.27426416745E+02  0.00000000000E+00 0. -1.
         -2    1    1    2    0  503 -0.23102327230E+02  0.10942107731E+00  0.27973758967E+02  0.36280307153E+02  0.00000000000E+00 0.  1.
<mgrwt>
<rscale>  2 0.23102586E+02</rscale>
<asrwt>0</asrwt>
<pdfrwt beam="1">  1       21 0.59153426E-02 0.23102586E+02</pdfrwt>
<pdfrwt beam="2">  1       21 0.38856919E-02 0.23102586E+02</pdfrwt>
<totfact> 0.58506375E+07</totfact>
</mgrwt>
</event>
<event>
 4    1  0.3862688E+004  0.2514900E+02  0.7546771E-02  0.1658871E+00
         21   -1    0    0  501  502  0.00000000000E+00  0.00000000000E+00  0.86158532553E+02  0.86158532553E+02  0.00000000000E+00 0. -1.
         21   -1    0    0  502  503 -0.00000000000E+00 -0.00000000000E+00 -0.73446971231E+01  0.73446971231E+01  0.00000000000E+00 0. -1.
          2    1    1    2  501    0 -0.56390345172E+01 -0.24508638511E+02  0.38329226392E+02  0.45843229247E+02  0.00000000000E+00 0. -1.
         -2    1    1    2    0  503  0.56390345172E+01  0.24508638511E+02  0.40484609038E+02  0.47660000430E+02  0.00000000000E+00 0.  1.
<mgrwt>
<rscale>  2 0.25148997E+02</rscale>
<asrwt>0</asrwt>
<pdfrwt beam="1">  1       21 0.13255158E-01 0.25148997E+02</pdfrwt>
<pdfrwt beam="2">  1       21 0.11299535E-02 0.25148997E+02</pdfrwt>
<totfact> 0.10633818E+08</totfact>
</mgrwt>
</event>
<event>
 4    1  0.3862688E+004  0.2384417E+02  0.7546771E-02  0.1678181E+00
         21   -1    0    0  503  502  0.00000000000E+00  0.00000000000E+00  0.53370354467E+03  0.53370354467E+03  0.00000000000E+00 0. -1.
         21   -1    0    0  501  503 -0.00000000000E+00 -0.00000000000E+00 -0.10653280626E+01  0.10653280626E+01  0.00000000000E+00 0. -1.
          1    1    1    2  501    0 -0.56291335782E+01  0.23170183272E+02  0.26808593405E+03  0.26914422262E+03  0.00000000000E+00 0. -1.
         -1    1    1    2    0  502  0.56291335782E+01 -0.23170183272E+02  0.26455228256E+03  0.26562465011E+03  0.00000000000E+00 0.  1.
<mgrwt>
<rscale>  2 0.23844172E+02</rscale>
<asrwt>0</asrwt>
<pdfrwt beam="1">  1       21 0.82108024E-01 0.23844172E+02</pdfrwt>
<pdfrwt beam="2">  1       21 0.16389705E-03 0.23844172E+02</pdfrwt>
<totfact> 0.60337935E+07</totfact>
</mgrwt>
</event>
<event>
 4    1  0.3862688E+004  0.3013113E+02  0.7546771E-02  0.1596644E+00
         21   -1    0    0  501  502  0.00000000000E+00  0.00000000000E+00  0.11213881045E+03  0.11213881045E+03  0.00000000000E+00 0.  1.
         21   -1    0    0  502  503 -0.00000000000E+00 -0.00000000000E+00 -0.82658541221E+01  0.82658541221E+01  0.00000000000E+00 0.  1.
          5    1    1    2  501    0 -0.67083930368E+01 -0.29374859940E+02  0.43308611037E+02  0.52759081906E+02  0.00000000000E+00 0.  1.
         -5    1    1    2    0  503  0.67083930368E+01  0.29374859940E+02  0.60564345288E+02  0.67645582663E+02  0.00000000000E+00 0. -1.
<mgrwt>
<rscale>  2 0.30131129E+02</rscale>
<asrwt>0</asrwt>
<pdfrwt beam="1">  1       21 0.17252124E-01 0.30131129E+02</pdfrwt>
<pdfrwt beam="2">  1       21 0.12716699E-02 0.30131129E+02</pdfrwt>
<totfact> 0.59083679E+07</totfact>
</mgrwt>
</event>
<event>
 4    1  0.3862688E+004  0.4413111E+02  0.7546771E-02  0.1479840E+00
         21   -1    0    0  503  502  0.00000000000E+00  0.00000000000E+00  0.67902438672E+02  0.67902438672E+02  0.00000000000E+00 0.  1.
         21   -1    0    0  501  503 -0.00000000000E+00 -0.00000000000E+00 -0.28730626139E+02  0.28730626139E+02  0.00000000000E+00 0.  1.
          5    1    1    2  501    0 -0.12587809160E+02 -0.42297771940E+02  0.21580639260E+02  0.49125130446E+02  0.00000000000E+00 0. -1.
         -5    1    1    2    0  502  0.12587809160E+02  0.42297771940E+02  0.17591173273E+02  0.47507934365E+02  0.00000000000E+00 0.  1.
<mgrwt>
<rscale>  2 0.44131105E+02</rscale>
<asrwt>0</asrwt>
<pdfrwt beam="1">  1       21 0.10446529E-01 0.44131105E+02</pdfrwt>
<pdfrwt beam="2">  1       21 0.44200963E-02 0.44131105E+02</pdfrwt>
<totfact> 0.21259967E+07</totfact>
</mgrwt>
</event>
<event>
 4    1  0.3862688E+004  0.3544281E+02  0.7546771E-02  0.1544703E+00
         21   -1    0    0  503  502  0.00000000000E+00  0.00000000000E+00  0.50230625861E+02  0.50230625861E+02  0.00000000000E+00 0. -1.
         21   -1    0    0  501  503 -0.00000000000E+00 -0.00000000000E+00 -0.43597479321E+02  0.43597479321E+02  0.00000000000E+00 0. -1.
          5    1    1    2  501    0  0.25008122642E+02 -0.25115459889E+02 -0.27317168824E+02  0.44748410431E+02  0.00000000000E+00 0.  1.
         -5    1    1    2    0  502 -0.25008122642E+02  0.25115459889E+02  0.33950315365E+02  0.49079694751E+02  0.00000000000E+00 0. -1.
<mgrwt>
<rscale>  2 0.35442806E+02</rscale>
<asrwt>0</asrwt>
<pdfrwt beam="1">  1       21 0.77277886E-02 0.35442806E+02</pdfrwt>
<pdfrwt beam="2">  1       21 0.67073045E-02 0.35442806E+02</pdfrwt>
<totfact> 0.17242691E+07</totfact>
</mgrwt>
</event>
<event>
 4    1  0.3862688E+004  0.2618563E+02  0.7546771E-02  0.1644534E+00
         21   -1    0    0  503  502  0.00000000000E+00  0.00000000000E+00  0.25956258284E+03  0.25956258284E+03  0.00000000000E+00 0. -1.
         21   -1    0    0  501  503 -0.00000000000E+00 -0.00000000000E+00 -0.28332934702E+01  0.28332934702E+01  0.00000000000E+00 0. -1.
          2    1    1    2  501    0  0.15868195503E+02 -0.20829974361E+02  0.94247924076E+02  0.97817987370E+02  0.00000000000E+00 0.  1.
         -2    1    1    2    0  502 -0.15868195503E+02  0.20829974361E+02  0.16248136529E+03  0.16457788894E+03  0.00000000000E+00 0. -1.
<mgrwt>
<rscale>  2 0.26185635E+02</rscale>
<asrwt>0</asrwt>
<pdfrwt beam="1">  1       21 0.39932686E-01 0.26185635E+02</pdfrwt>
<pdfrwt beam="2">  1       21 0.43589151E-03 0.26185635E+02</pdfrwt>
<totfact> 0.62417726E+07</totfact>
</mgrwt>
</event>
<event>
 4    1  0.3862688E+004  0.2044683E+02  0.7546771E-02  0.1736585E+00
         21   -1    0    0  501  502  0.00000000000E+00  0.00000000000E+00  0.35475901096E+01  0.35475901096E+01  0.00000000000E+00 0.  1.
         21   -1    0    0  502  503 -0.00000000000E+00 -0.00000000000E+00 -0.11817480570E+03  0.11817480570E+03  0.00000000000E+00 0.  1.
          3    1    1    2  501    0  0.18448985894E+02 -0.88152090841E+01 -0.54108370823E+02  0.57842793716E+02  0.00000000000E+00 0.  1.
         -3    1    1    2    0  503 -0.18448985894E+02  0.88152090841E+01 -0.60518844767E+02  0.63879602094E+02  0.00000000000E+00 0. -1.
<mgrwt>
<rscale>  2 0.20446833E+02</rscale>
<asrwt>0</asrwt>
<pdfrwt beam="1">  1       21 0.54578323E-03 0.20446833E+02</pdfrwt>
<pdfrwt beam="2">  1       21 0.18180735E-01 0.20446833E+02</pdfrwt>
<totfact> 0.17292210E+08</totfact>
</mgrwt>
</event>
<event>
 4    1  0.3862688E+004  0.2380783E+02  0.7546771E-02  0.1678740E+00
         21   -1    0    0  503  502  0.00000000000E+00  0.00000000000E+00  0.28543396061E+02  0.28543396061E+02  0.00000000000E+00 0.  1.
         21   -1    0    0  501  503 -0.00000000000E+00 -0.00000000000E+00 -0.19977660124E+02  0.19977660124E+02  0.00000000000E+00 0.  1.
          3    1    1    2  501    0 -0.19832478806E+02 -0.13171389117E+02  0.61610301593E+01  0.24592092214E+02  0.00000000000E+00 0. -1.
         -3    1    1    2    0  502  0.19832478806E+02  0.13171389117E+02  0.24047057781E+01  0.23928963971E+02  0.00000000000E+00 0.  1.
<mgrwt>
<rscale>  2 0.23807829E+02</rscale>
<asrwt>0</asrwt>
<pdfrwt beam="1">  1       21 0.43912917E-02 0.23807829E+02</pdfrwt>
<pdfrwt beam="2">  1       21 0.30734862E-02 0.23807829E+02</pdfrwt>
<totfact> 0.13704366E+08</totfact>
</mgrwt>
</event>
<event>
 4    1  0.3862688E+004  0.2643061E+02  0.7546771E-02  0.1641265E+00
         21   -1    0    0  501  502  0.00000000000E+00  0.00000000000E+00  0.11358773152E+01  0.11358773152E+01  0.00000000000E+00 0.  1.
         21   -1    0    0  502  503 -0.00000000000E+00 -0.00000000000E+00 -0.66372388970E+03  0.66372388970E+03  0.00000000000E+00 0.  1.
          2    1    1    2  501    0  0.72942255754E+01 -0.25404156472E+02 -0.24123464323E+03  0.24267824374E+03  0.00000000000E+00 0.  1.
         -2    1    1    2    0  503 -0.72942255754E+01  0.25404156472E+02 -0.42135336916E+03  0.42218152328E+03  0.00000000000E+00 0. -1.
<mgrwt>
<rscale>  2 0.26430605E+02</rscale>
<asrwt>0</asrwt>
<pdfrwt beam="1">  1       21 0.17475016E-03 0.26430605E+02</pdfrwt>
<pdfrwt beam="2">  1       21 0.10211148E+00 0.26430605E+02</pdfrwt>
<totfact> 0.35094248E+07</totfact>
</mgrwt>
</event>
<event>
 4    1  0.3862688E+004  0.2044584E+02  0.7546771E-02  0.1736605E+00
         21   -1    0    0  501  502  0.00000000000E+00  0.00000000000E+00  0.22854328767E+02  0.22854328767E+02  0.00000000000E+00 0.  1.
         21   -1    0    0  502  503 -0.00000000000E+00 -0.00000000000E+00 -0.19282313516E+02  0.19282313516E+02  0.00000000000E+00 0.  1.
          2    1    1    2  501    0 -0.13083288589E+02 -0.15711775891E+02 -0.29905971687E+01  0.20663397914E+02  0.00000000000E+00 0. -1.
         -2    1    1    2    0  503  0.13083288589E+02  0.15711775891E+02  0.65626124194E+01  0.21473244368E+02  0.00000000000E+00 0.  1.
<mgrwt>
<rscale>  2 0.20445839E+02</rscale>
<asrwt>0</asrwt>
<pdfrwt beam="1">  1       21 0.35160506E-02 0.20445839E+02</pdfrwt>
<pdfrwt beam="2">  1       21 0.29665098E-02 0.20445839E+02</pdfrwt>
<totfact> 0.19588556E+08</totfact>
</mgrwt>
</event>
<event>
 4    1  0.3862688E+004  0.2032674E+02  0.7546771E-02  0.1738907E+00
         21   -1    0    0  501  502  0.00000000000E+00  0.00000000000E+00  0.98498988462E+01  0.98498988462E+01  0.00000000000E+00 0. -1.
         21   -1    0    0  502  503 -0.00000000000E+00 -0.00000000000E+00 -0.42361618285E+02  0.42361618285E+02  0.00000000000E+00 0. -1.
          4    1    1    2  501    0 -0.40312620891E+01 -0.19922983760E+02 -0.18837723789E+02  0.27713465924E+02  0.00000000000E+00 0.  1.
         -4    1    1    2    0  503  0.40312620891E+01  0.19922983760E+02 -0.13673995650E+02  0.24498051208E+02  0.00000000000E+00 0. -1.
<mgrwt>
<rscale>  2 0.20326740E+02</rscale>
<asrwt>0</asrwt>
<pdfrwt beam="1">  1       21 0.15153690E-02 0.20326740E+02</pdfrwt>
<pdfrwt beam="2">  1       21 0.65171721E-02 0.20326740E+02</pdfrwt>
<totfact> 0.20601902E+08</totfact>
</mgrwt>
</event>
<event>
 4    1  0.3862688E+004  0.2830165E+02  0.7546771E-02  0.1617658E+00
         21   -1    0    0  503  502  0.00000000000E+00  0.00000000000E+00  0.12363623654E+02  0.12363623654E+02  0.00000000000E+00 0.  1.
         21   -1    0    0  501  503 -0.00000000000E+00 -0.00000000000E+00 -0.75240404160E+02  0.75240404160E+02  0.00000000000E+00 0.  1.
          2    1    1    2  501    0  0.28170941618E+02 -0.27168755715E+01 -0.47766234241E+02  0.55521135598E+02  0.00000000000E+00 0.  1.
         -2    1    1    2    0  502 -0.28170941618E+02  0.27168755715E+01 -0.15110546266E+02  0.32082892217E+02  0.00000000000E+00 0. -1.
<mgrwt>
<rscale>  2 0.28301650E+02</rscale>
<asrwt>0</asrwt>
<pdfrwt beam="1">  1       21 0.19020960E-02 0.28301650E+02</pdfrwt>
<pdfrwt beam="2">  1       21 0.11575447E-01 0.28301650E+02</pdfrwt>
<totfact> 0.62161294E+07</totfact>
</mgrwt>
</event>
<event>
 4    1  0.3862688E+004  0.2639696E+02  0.7546771E-02  0.1641711E+00
         21   -1    0    0  503  502  0.00000000000E+00  0.00000000000E+00  0.12790393577E+04  0.12790393577E+04  0.00000000000E+00 0. -1.
         21   -1    0    0  501  503 -0.00000000000E+00 -0.00000000000E+00 -0.58627311641E+00  0.58627311641E+00  0.00000000000E+00 0. -1.
          1    1    1    2  501    0  0.23758665495E+02  0.11503272820E+02  0.80943178202E+03  0.80986209271E+03  0.00000000000E+00 0.  1.
         -1    1    1    2    0  502 -0.23758665495E+02 -0.11503272820E+02  0.46902130256E+03  0.46976353809E+03  0.00000000000E+00 0. -1.
<mgrwt>
<rscale>  2 0.26396960E+02</rscale>
<asrwt>0</asrwt>
<pdfrwt beam="1">  1       21 0.19677305E+00 0.26396960E+02</pdfrwt>
<pdfrwt beam="2">  1       21 0.90196888E-04 0.26396960E+02</pdfrwt>
<totfact> 0.19117714E+07</totfact>
</mgrwt>
</event>
<event>
 4    1  0.3862688E+004  0.2299289E+02  0.7546771E-02  0.1691625E+00
         21   -1    0    0  501  502  0.00000000000E+00  0.00000000000E+00  0.99979885930E+01  0.99979885930E+01  0.00000000000E+00 0. -1.
         21   -1    0    0  502  503 -0.00000000000E+00 -0.00000000000E+00 -0.76876981569E+02  0.76876981569E+02  0.00000000000E+00 0. -1.
          5    1    1    2  501    0 -0.63902157398E+01 -0.22087062087E+02 -0.57709137049E+02  0.62120992167E+02  0.00000000000E+00 0. -1.
         -5    1    1    2    0  503  0.63902157398E+01  0.22087062087E+02 -0.91698559268E+01  0.24753977995E+02  0.00000000000E+00 0.  1.
<mgrwt>
<rscale>  2 0.22992894E+02</rscale>
<asrwt>0</asrwt>
<pdfrwt beam="1">  1       21 0.15381520E-02 0.22992894E+02</pdfrwt>
<pdfrwt beam="2">  1       21 0.11827229E-01 0.22992894E+02</pdfrwt>
<totfact> 0.78758970E+07</totfact>
</mgrwt>
</event>
<event>
 4    1  0.3862688E+004  0.2332547E+02  0.7546771E-02  0.1686288E+00
         21   -1    0    0  501  502  0.00000000000E+00  0.00000000000E+00  0.95402159311E+02  0.95402159311E+02  0.00000000000E+00 0. -1.
         21   -1    0    0  502  503 -0.00000000000E+00 -0.00000000000E+00 -0.57045152954E+01  0.57045152954E+01  0.00000000000E+00 0. -1.
          3    1    1    2  501    0 -0.11964821400E+02  0.20022996327E+02  0.45676109850E+02  0.51287272730E+02  0.00000000000E+00 0. -1.
         -3    1    1    2    0  503  0.11964821400E+02 -0.20022996327E+02  0.44021534165E+02  0.49819401876E+02  0.00000000000E+00 0.  1.
<mgrwt>
<rscale>  2 0.23325465E+02</rscale>
<asrwt>0</asrwt>
<pdfrwt beam="1">  1       21 0.14677254E-01 0.23325465E+02</pdfrwt>
<pdfrwt beam="2">  1       21 0.87761781E-03 0.23325465E+02</pdfrwt>
<totfact> 0.12812820E+08</totfact>
</mgrwt>
</event>
<event>
 4    1  0.3862688E+004  0.2774158E+02  0.7546771E-02  0.1624484E+00
         21   -1    0    0  503  502  0.00000000000E+00  0.00000000000E+00  0.16216662010E+02  0.16216662010E+02  0.00000000000E+00 0.  1.
         21   -1    0    0  501  503 -0.00000000000E+00 -0.00000000000E+00 -0.49519752202E+02  0.49519752202E+02  0.00000000000E+00 0.  1.
          5    1    1    2  501    0 -0.21600975291E+02  0.17406694558E+02 -0.23359709413E+02  0.36266667517E+02  0.00000000000E+00 0.  1.
         -5    1    1    2    0  502  0.21600975291E+02 -0.17406694558E+02 -0.99433807795E+01  0.29469746695E+02  0.00000000000E+00 0. -1.
<mgrwt>
<rscale>  2 0.27741578E+02</rscale>
<asrwt>0</asrwt>
<pdfrwt beam="1">  1       21 0.24948711E-02 0.27741578E+02</pdfrwt>
<pdfrwt beam="2">  1       21 0.76184233E-02 0.27741578E+02</pdfrwt>
<totfact> 0.81382162E+07</totfact>
</mgrwt>
</event>
<event>
 4    1  0.3862688E+004  0.2547477E+02  0.7546771E-02  0.1654275E+00
         21   -1    0    0  503  502  0.00000000000E+00  0.00000000000E+00  0.83263158773E+03  0.83263158773E+03  0.00000000000E+00 0.  1.
         21   -1    0    0  501  503 -0.00000000000E+00 -0.00000000000E+00 -0.82439209906E+00  0.82439209906E+00  0.00000000000E+00 0.  1.
          4    1    1    2  501    0 -0.13791697419E+01  0.25437411777E+02  0.31856383010E+03  0.31958078459E+03  0.00000000000E+00 0.  1.
         -4    1    1    2    0  502  0.13791697419E+01 -0.25437411777E+02  0.51324336553E+03  0.51387519524E+03  0.00000000000E+00 0. -1.
<mgrwt>
<rscale>  2 0.25474772E+02</rscale>
<asrwt>0</asrwt>
<pdfrwt beam="1">  1       21 0.12809649E+00 0.25474772E+02</pdfrwt>
<pdfrwt beam="2">  1       21 0.12683022E-03 0.25474772E+02</pdfrwt>
<totfact> 0.33145735E+07</totfact>
</mgrwt>
</event>
<event>
 4    1  0.3862688E+004  0.2039150E+02  0.7546771E-02  0.1737653E+00
         21   -1    0    0  503  502  0.00000000000E+00  0.00000000000E+00  0.75515372365E+02  0.75515372365E+02  0.00000000000E+00 0. -1.
         21   -1    0    0  501  503 -0.00000000000E+00 -0.00000000000E+00 -0.70776503164E+01  0.70776503164E+01  0.00000000000E+00 0. -1.
          2    1    1    2  501    0 -0.17717449927E+02  0.10094802605E+02  0.14760769531E+02  0.25173267343E+02  0.00000000000E+00 0.  1.
         -2    1    1    2    0  502  0.17717449927E+02 -0.10094802605E+02  0.53676952517E+02  0.57419755338E+02  0.00000000000E+00 0. -1.
<mgrwt>
<rscale>  2 0.20391495E+02</rscale>
<asrwt>0</asrwt>
<pdfrwt beam="1">  1       21 0.11617749E-01 0.20391495E+02</pdfrwt>
<pdfrwt beam="2">  1       21 0.10888693E-02 0.20391495E+02</pdfrwt>
<totfact> 0.13205515E+08</totfact>
</mgrwt>
</event>
<event>
 4    1  0.3862688E+004  0.2031171E+02  0.7546771E-02  0.1739199E+00
         21   -1    0    0  503  502  0.00000000000E+00  0.00000000000E+00  0.56577406723E+03  0.56577406723E+03  0.00000000000E+00 0.  1.
         21   -1    0    0  501  503 -0.00000000000E+00 -0.00000000000E+00 -0.74671342946E+00  0.74671342946E+00  0.00000000000E+00 0.  1.
          1    1    1    2  501    0  0.70332986392E+01 -0.19055138258E+02  0.23914004637E+03  0.24000109867E+03  0.00000000000E+00 0.  1.
         -1    1    1    2    0  502 -0.70332986392E+01  0.19055138258E+02  0.32588730743E+03  0.32651968199E+03  0.00000000000E+00 0. -1.
<mgrwt>
<rscale>  2 0.20311711E+02</rscale>
<asrwt>0</asrwt>
<pdfrwt beam="1">  1       21 0.87041821E-01 0.20311711E+02</pdfrwt>
<pdfrwt beam="2">  1       21 0.11487944E-03 0.20311711E+02</pdfrwt>
<totfact> 0.85311188E+07</totfact>
</mgrwt>
</event>
<event>
 4    1  0.3862688E+004  0.2154878E+02  0.7546771E-02  0.1716174E+00
         21   -1    0    0  503  502  0.00000000000E+00  0.00000000000E+00  0.16951720399E+01  0.16951720399E+01  0.00000000000E+00 0. -1.
         21   -1    0    0  501  503 -0.00000000000E+00 -0.00000000000E+00 -0.28670206760E+03  0.28670206760E+03  0.00000000000E+00 0. -1.
          2    1    1    2  501    0 -0.10200211415E+02  0.18981719515E+02 -0.11206227279E+03  0.11411530559E+03  0.00000000000E+00 0. -1.
         -2    1    1    2    0  502  0.10200211415E+02 -0.18981719515E+02 -0.17294462278E+03  0.17428193405E+03  0.00000000000E+00 0.  1.
<mgrwt>
<rscale>  2 0.21548782E+02</rscale>
<asrwt>0</asrwt>
<pdfrwt beam="1">  1       21 0.26079556E-03 0.21548782E+02</pdfrwt>
<pdfrwt beam="2">  1       21 0.44108034E-01 0.21548782E+02</pdfrwt>
<totfact> 0.10433849E+08</totfact>
</mgrwt>
</event>
<event>
 4    1  0.3862688E+004  0.3186966E+02  0.7546771E-02  0.1578296E+00
         21   -1    0    0  501  502  0.00000000000E+00  0.00000000000E+00  0.14591510868E+02  0.14591510868E+02  0.00000000000E+00 0. -1.
         21   -1    0    0  502  503 -0.00000000000E+00 -0.00000000000E+00 -0.69652470744E+02  0.69652470744E+02  0.00000000000E+00 0. -1.
          3    1    1    2  501    0  0.26085243194E+02 -0.18309426705E+02 -0.26457268794E+02  0.41420551551E+02  0.00000000000E+00 0. -1.
         -3    1    1    2    0  503 -0.26085243194E+02  0.18309426705E+02 -0.28603691082E+02  0.42823430062E+02  0.00000000000E+00 0.  1.
<mgrwt>
<rscale>  2 0.31869657E+02</rscale>
<asrwt>0</asrwt>
<pdfrwt beam="1">  1       21 0.22448478E-02 0.31869657E+02</pdfrwt>
<pdfrwt beam="2">  1       21 0.10715765E-01 0.31869657E+02</pdfrwt>
<totfact> 0.56232094E+07</totfact>
</mgrwt>
</event>
<event>
 4    1  0.3862688E+004  0.3737458E+02  0.7546771E-02  0.1528471E+00
         21   -1    0    0  503  502  0.00000000000E+00  0.00000000000E+00  0.16771898375E+03  0.16771898375E+03  0.00000000000E+00 0. -1.
         21   -1    0    0  501  503 -0.00000000000E+00 -0.00000000000E+00 -0.91185613659E+01  0.91185613659E+01  0.00000000000E+00 0. -1.
          5    1    1    2  501    0  0.21179601029E+02 -0.30794216723E+02  0.53275104833E+02  0.65077615800E+02  0.00000000000E+00 0.  1.
         -5    1    1    2    0  502 -0.21179601029E+02  0.30794216723E+02  0.10532531755E+03  0.11175992932E+03  0.00000000000E+00 0. -1.
<mgrwt>
<rscale>  2 0.37374581E+02</rscale>
<asrwt>0</asrwt>
<pdfrwt beam="1">  1       21 0.25802918E-01 0.37374581E+02</pdfrwt>
<pdfrwt beam="2">  1       21 0.14028557E-02 0.37374581E+02</pdfrwt>
<totfact> 0.25871469E+07</totfact>
</mgrwt>
</event>
<event>
 4    1  0.3862688E+004  0.3664983E+02  0.7546771E-02  0.1534419E+00
         21   -1    0    0  503  502  0.00000000000E+00  0.00000000000E+00  0.22736220869E+03  0.22736220869E+03  0.00000000000E+00 0. -1.
         21   -1    0    0  501  503 -0.00000000000E+00 -0.00000000000E+00 -0.61979726761E+01  0.61979726761E+01  0.00000000000E+00 0. -1.
          5    1    1    2  501    0 -0.28683192433E+02  0.22814127949E+02  0.85313943712E+02  0.92852996473E+02  0.00000000000E+00 0. -1.
         -5    1    1    2    0  502  0.28683192433E+02 -0.22814127949E+02  0.13585029230E+03  0.14070718490E+03  0.00000000000E+00 0.  1.
<mgrwt>
<rscale>  2 0.36649829E+02</rscale>
<asrwt>0</asrwt>
<pdfrwt beam="1">  1       21 0.34978795E-01 0.36649829E+02</pdfrwt>
<pdfrwt beam="2">  1       21 0.95353443E-03 0.36649829E+02</pdfrwt>
<totfact> 0.26500518E+07</totfact>
</mgrwt>
</event>
<event>
 4    1  0.3862688E+004  0.2037857E+02  0.7546771E-02  0.1737903E+00
         21   -1    0    0  501  502  0.00000000000E+00  0.00000000000E+00  0.22423389617E+01  0.22423389617E+01  0.00000000000E+00 0.  1.
         21   -1    0    0  502  503 -0.00000000000E+00 -0.00000000000E+00 -0.21904248220E+03  0.21904248220E+03  0.00000000000E+00 0.  1.
          5    1    1    2  501    0 -0.13381437280E+01 -0.20334591821E+02 -0.15188853156E+03  0.15324950986E+03  0.00000000000E+00 0.  1.
         -5    1    1    2    0  503  0.13381437280E+01  0.20334591821E+02 -0.64911611684E+02  0.68035311307E+02  0.00000000000E+00 0. -1.
<mgrwt>
<rscale>  2 0.20378573E+02</rscale>
<asrwt>0</asrwt>
<pdfrwt beam="1">  1       21 0.34497509E-03 0.20378573E+02</pdfrwt>
<pdfrwt beam="2">  1       21 0.33698857E-01 0.20378573E+02</pdfrwt>
<totfact> 0.11315099E+08</totfact>
</mgrwt>
</event>
<event>
 4    1  0.3862688E+004  0.3384136E+02  0.7546771E-02  0.1559137E+00
         21   -1    0    0  501  502  0.00000000000E+00  0.00000000000E+00  0.63003105367E+01  0.63003105367E+01  0.00000000000E+00 0. -1.
         21   -1    0    0  502  503 -0.00000000000E+00 -0.00000000000E+00 -0.18216492809E+03  0.18216492809E+03  0.00000000000E+00 0. -1.
          1    1    1    2  501    0 -0.28840700706E+02 -0.17704557353E+02 -0.83571161901E+02  0.90163054905E+02  0.00000000000E+00 0.  1.
         -1    1    1    2    0  503  0.28840700706E+02  0.17704557353E+02 -0.92293455656E+02  0.98302183726E+02  0.00000000000E+00 0. -1.
<mgrwt>
<rscale>  2 0.33841356E+02</rscale>
<asrwt>0</asrwt>
<pdfrwt beam="1">  1       21 0.96927859E-03 0.33841356E+02</pdfrwt>
<pdfrwt beam="2">  1       21 0.28025372E-01 0.33841356E+02</pdfrwt>
<totfact> 0.38482728E+07</totfact>
</mgrwt>
</event>
<event>
 4    1  0.3862688E+004  0.2403147E+02  0.7546771E-02  0.1675316E+00
         21   -1    0    0  503  502  0.00000000000E+00  0.00000000000E+00  0.26241985626E+03  0.26241985626E+03  0.00000000000E+00 0. -1.
         21   -1    0    0  501  503 -0.00000000000E+00 -0.00000000000E+00 -0.22009307366E+01  0.22009307366E+01  0.00000000000E+00 0. -1.
          1    1    1    2  501    0 -0.19090525762E+02  0.14596688378E+02  0.13141742116E+03  0.13359659452E+03  0.00000000000E+00 0.  1.
         -1    1    1    2    0  502  0.19090525762E+02 -0.14596688378E+02  0.12880150437E+03  0.13102419248E+03  0.00000000000E+00 0. -1.
<mgrwt>
<rscale>  2 0.24031469E+02</rscale>
<asrwt>0</asrwt>
<pdfrwt beam="1">  1       21 0.40372261E-01 0.24031469E+02</pdfrwt>
<pdfrwt beam="2">  1       21 0.33860494E-03 0.24031469E+02</pdfrwt>
<totfact> 0.86824557E+07</totfact>
</mgrwt>
</event>
<event>
 4    1  0.3862688E+004  0.2220644E+02  0.7546771E-02  0.1704706E+00
         21   -1    0    0  503  502  0.00000000000E+00  0.00000000000E+00  0.57930465133E+02  0.57930465133E+02  0.00000000000E+00 0. -1.
         21   -1    0    0  501  503 -0.00000000000E+00 -0.00000000000E+00 -0.85745650050E+01  0.85745650050E+01  0.00000000000E+00 0. -1.
          2    1    1    2  501    0 -0.20976558549E+01  0.22107140351E+02  0.27509866721E+02  0.35354187610E+02  0.00000000000E+00 0.  1.
         -2    1    1    2    0  502  0.20976558549E+01 -0.22107140351E+02  0.21846033407E+02  0.31150842528E+02  0.00000000000E+00 0. -1.
<mgrwt>
<rscale>  2 0.22206436E+02</rscale>
<asrwt>0</asrwt>
<pdfrwt beam="1">  1       21 0.89123790E-02 0.22206436E+02</pdfrwt>
<pdfrwt beam="2">  1       21 0.13191639E-02 0.22206436E+02</pdfrwt>
<totfact> 0.15724718E+08</totfact>
</mgrwt>
</event>
<event>
 4    1  0.3862688E+004  0.3776269E+02  0.7546771E-02  0.1525352E+00
         21   -1    0    0  501  502  0.00000000000E+00  0.00000000000E+00  0.49664455931E+02  0.49664455931E+02  0.00000000000E+00 0. -1.
         21   -1    0    0  502  503 -0.00000000000E+00 -0.00000000000E+00 -0.37863771478E+02  0.37863771478E+02  0.00000000000E+00 0. -1.
          1    1    1    2  501    0  0.19331039625E+02 -0.32439659962E+02 -0.15614225108E+02  0.40863488069E+02  0.00000000000E+00 0.  1.
         -1    1    1    2    0  503 -0.19331039625E+02  0.32439659962E+02  0.27414909560E+02  0.46664739340E+02  0.00000000000E+00 0. -1.
<mgrwt>
<rscale>  2 0.37762688E+02</rscale>
<asrwt>0</asrwt>
<pdfrwt beam="1">  1       21 0.76406855E-02 0.37762688E+02</pdfrwt>
<pdfrwt beam="2">  1       21 0.58251956E-02 0.37762688E+02</pdfrwt>
<totfact> 0.22366098E+07</totfact>
</mgrwt>
</event>
<event>
 4    1  0.3862688E+004  0.2723680E+02  0.7546771E-02  0.1630808E+00
         21   -1    0    0  501  502  0.00000000000E+00  0.00000000000E+00  0.22563147354E+03  0.22563147354E+03  0.00000000000E+00 0.  1.
         21   -1    0    0  502  503 -0.00000000000E+00 -0.00000000000E+00 -0.33919161811E+01  0.33919161811E+01  0.00000000000E+00 0.  1.
          5    1    1    2  501    0 -0.15476870351E+02 -0.22412264903E+02  0.91062330412E+02  0.95048362184E+02  0.00000000000E+00 0.  1.
         -5    1    1    2    0  503  0.15476870351E+02  0.22412264903E+02  0.13117722695E+03  0.13397502754E+03  0.00000000000E+00 0. -1.
<mgrwt>
<rscale>  2 0.27236797E+02</rscale>
<asrwt>0</asrwt>
<pdfrwt beam="1">  1       21 0.34712523E-01 0.27236797E+02</pdfrwt>
<pdfrwt beam="2">  1       21 0.52183344E-03 0.27236797E+02</pdfrwt>
<totfact> 0.62773986E+07</totfact>
</mgrwt>
</event>
<event>
 4    1  0.3862688E+004  0.2270349E+02  0.7546771E-02  0.1696362E+00
         21   -1    0    0  503  502  0.00000000000E+00  0.00000000000E+00  0.14958675439E+01  0.14958675439E+01  0.00000000000E+00 0.  1.
         21   -1    0    0  501  503 -0.00000000000E+00 -0.00000000000E+00 -0.37010959313E+03  0.37010959313E+03  0.00000000000E+00 0.  1.
          5    1    1    2  501    0  0.22241276512E+02 -0.45578686770E+01 -0.23310402851E+03  0.23420703801E+03  0.00000000000E+00 0. -1.
         -5    1    1    2    0  502 -0.22241276512E+02  0.45578686770E+01 -0.13550969707E+03  0.13739842266E+03  0.00000000000E+00 0.  1.
<mgrwt>
<rscale>  2 0.22703492E+02</rscale>
<asrwt>0</asrwt>
<pdfrwt beam="1">  1       21 0.23013372E-03 0.22703492E+02</pdfrwt>
<pdfrwt beam="2">  1       21 0.56939876E-01 0.22703492E+02</pdfrwt>
<totfact> 0.77215693E+07</totfact>
</mgrwt>
</event>
<event>
 4    1  0.3862688E+004  0.2124411E+02  0.7546771E-02  0.1721662E+00
         21   -1    0    0  501  502  0.00000000000E+00  0.00000000000E+00  0.11924160369E+02  0.11924160369E+02  0.00000000000E+00 0. -1.
         21   -1    0    0  502  503 -0.00000000000E+00 -0.00000000000E+00 -0.38116885083E+02  0.38116885083E+02  0.00000000000E+00 0. -1.
          4    1    1    2  501    0  0.13975532506E+02  0.15999898898E+02 -0.10997083893E+02  0.23921708294E+02  0.00000000000E+00 0.  1.
         -4    1    1    2    0  503 -0.13975532506E+02 -0.15999898898E+02 -0.15195640822E+02  0.26119337158E+02  0.00000000000E+00 0. -1.
<mgrwt>
<rscale>  2 0.21244112E+02</rscale>
<asrwt>0</asrwt>
<pdfrwt beam="1">  1       21 0.18344863E-02 0.21244112E+02</pdfrwt>
<pdfrwt beam="2">  1       21 0.58641360E-02 0.21244112E+02</pdfrwt>
<totfact> 0.18509666E+08</totfact>
</mgrwt>
</event>
<event>
 4    1  0.3862688E+004  0.2154409E+02  0.7546771E-02  0.1716258E+00
         21   -1    0    0  501  502  0.00000000000E+00  0.00000000000E+00  0.42913787792E+02  0.42913787792E+02  0.00000000000E+00 0. -1.
         21   -1    0    0  502  503 -0.00000000000E+00 -0.00000000000E+00 -0.11534669741E+02  0.11534669741E+02  0.00000000000E+00 0. -1.
          5    1    1    2  501    0  0.20900087447E+02 -0.52282243683E+01  0.22485831611E+02  0.31140979570E+02  0.00000000000E+00 0. -1.
         -5    1    1    2    0  503 -0.20900087447E+02  0.52282243683E+01  0.88932864390E+01  0.23307477963E+02  0.00000000000E+00 0.  1.
<mgrwt>
<rscale>  2 0.21544094E+02</rscale>
<asrwt>0</asrwt>
<pdfrwt beam="1">  1       21 0.66021211E-02 0.21544094E+02</pdfrwt>
<pdfrwt beam="2">  1       21 0.17745646E-02 0.21544094E+02</pdfrwt>
<totfact> 0.16169396E+08</totfact>
</mgrwt>
</event>
<event>
 4    1  0.3862688E+004  0.3833149E+02  0.7546771E-02  0.1520862E+00
         21   -1    0    0  503  502  0.00000000000E+00  0.00000000000E+00  0.47952594851E+02  0.47952594851E+02  0.00000000000E+00 0.  1.
         21   -1    0    0  501  503 -0.00000000000E+00 -0.00000000000E+00 -0.37233995858E+02  0.37233995858E+02  0.00000000000E+00 0.  1.
          3    1    1    2  501    0 -0.26970055871E+02 -0.27238189249E+02  0.23282743713E+02  0.44848511927E+02  0.00000000000E+00 0.  1.
         -3    1    1    2    0  502  0.26970055871E+02  0.27238189249E+02 -0.12564144721E+02  0.40338078782E+02  0.00000000000E+00 0. -1.
<mgrwt>
<rscale>  2 0.38331487E+02</rscale>
<asrwt>0</asrwt>
<pdfrwt beam="1">  1       21 0.73773223E-02 0.38331487E+02</pdfrwt>
<pdfrwt beam="2">  1       21 0.57283070E-02 0.38331487E+02</pdfrwt>
<totfact> 0.24424328E+07</totfact>
</mgrwt>
</event>
<event>
 4    1  0.3862688E+004  0.2242331E+02  0.7546771E-02  0.1701032E+00
         21   -1    0    0  501  502  0.00000000000E+00  0.00000000000E+00  0.18136287915E+03  0.18136287915E+03  0.00000000000E+00 0.  1.
         21   -1    0    0  502  503 -0.00000000000E+00 -0.00000000000E+00 -0.28113459901E+01  0.28113459901E+01  0.00000000000E+00 0.  1.
          5    1    1    2  501    0 -0.21995859632E+02 -0.43574231416E+01  0.10011855896E+03  0.10259888316E+03  0.00000000000E+00 0.  1.
         -5    1    1    2    0  503  0.21995859632E+02  0.43574231416E+01  0.78432974202E+02  0.81575341982E+02  0.00000000000E+00 0. -1.
<mgrwt>
<rscale>  2 0.22423313E+02</rscale>
<asrwt>0</asrwt>
<pdfrwt beam="1">  1       21 0.27901972E-01 0.22423313E+02</pdfrwt>
<pdfrwt beam="2">  1       21 0.43251491E-03 0.22423313E+02</pdfrwt>
<totfact> 0.11768545E+08</totfact>
</mgrwt>
</event>
<event>
 4    1  0.3862688E+004  0.2299538E+02  0.7546771E-02  0.1691585E+00
         21   -1    0    0  503  502  0.00000000000E+00  0.00000000000E+00  0.17527798554E+02  0.17527798554E+02  0.00000000000E+00 0. -1.
         21   -1    0    0  501  503 -0.00000000000E+00 -0.00000000000E+00 -0.30210931033E+02  0.30210931033E+02  0.00000000000E+00 0. -1.
          3    1    1    2  501    0 -0.84219667014E+01  0.21397612910E+02 -0.54470068708E+01  0.23631700007E+02  0.00000000000E+00 0.  1.
         -3    1    1    2    0  502  0.84219667014E+01 -0.21397612910E+02 -0.72361256079E+01  0.24107029580E+02  0.00000000000E+00 0. -1.
<mgrwt>
<rscale>  2 0.22995377E+02</rscale>
<asrwt>0</asrwt>
<pdfrwt beam="1">  1       21 0.26965844E-02 0.22995377E+02</pdfrwt>
<pdfrwt beam="2">  1       21 0.46478355E-02 0.22995377E+02</pdfrwt>
<totfact> 0.15191450E+08</totfact>
</mgrwt>
</event>
<event>
 4    1  0.3862688E+004  0.3017398E+02  0.7546771E-02  0.1596174E+00
         21   -1    0    0  501  502  0.00000000000E+00  0.00000000000E+00  0.20777707617E+01  0.20777707617E+01  0.00000000000E+00 0.  1.
         21   -1    0    0  502  503 -0.00000000000E+00 -0.00000000000E+00 -0.56311577936E+03  0.56311577936E+03  0.00000000000E+00 0.  1.
          2    1    1    2  501    0  0.61059924382E+01  0.29549715840E+02 -0.14741668615E+03  0.15047308134E+03  0.00000000000E+00 0. -1.
         -2    1    1    2    0  503 -0.61059924382E+01 -0.29549715840E+02 -0.41362132244E+03  0.41472046879E+03  0.00000000000E+00 0.  1.
<mgrwt>
<rscale>  2 0.30173976E+02</rscale>
<asrwt>0</asrwt>
<pdfrwt beam="1">  1       21 0.31965681E-03 0.30173976E+02</pdfrwt>
<pdfrwt beam="2">  1       21 0.86633260E-01 0.30173976E+02</pdfrwt>
<totfact> 0.21303778E+07</totfact>
</mgrwt>
</event>
<event>
 4    1  0.3862688E+004  0.2115778E+02  0.7546771E-02  0.1723238E+00
         21   -1    0    0  503  502  0.00000000000E+00  0.00000000000E+00  0.80571229785E+02  0.80571229785E+02  0.00000000000E+00 0.  1.
         21   -1    0    0  501  503 -0.00000000000E+00 -0.00000000000E+00 -0.55565454837E+01  0.55565454837E+01  0.00000000000E+00 0.  1.
          5    1    1    2  501    0 -0.52191605233E+01  0.20503948202E+02  0.37069999259E+02  0.42682975219E+02  0.00000000000E+00 0.  1.
         -5    1    1    2    0  502  0.52191605233E+01 -0.20503948202E+02  0.37944685042E+02  0.43444800050E+02  0.00000000000E+00 0. -1.
<mgrwt>
<rscale>  2 0.21157777E+02</rscale>
<asrwt>0</asrwt>
<pdfrwt beam="1">  1       21 0.12395573E-01 0.21157777E+02</pdfrwt>
<pdfrwt beam="2">  1       21 0.85485321E-03 0.21157777E+02</pdfrwt>
<totfact> 0.17211238E+08</totfact>
</mgrwt>
</event>
<event>
 4    1  0.3862688E+004  0.3490174E+02  0.7546771E-02  0.1549475E+00
         21   -1    0    0  501  502  0.00000000000E+00  0.00000000000E+00  0.25522117530E+01  0.25522117530E+01  0.00000000000E+00 0.  1.
         21   -1    0    0  502  503 -0.00000000000E+00 -0.00000000000E+00 -0.54952686629E+03  0.54952686629E+03  0.00000000000E+00 0.  1.
          5    1    1    2  501    0 -0.50857681252E+01  0.34529213414E+02 -0.17340158508E+03  0.17687917154E+03  0.00000000000E+00 0.  1.
         -5    1    1    2    0  503  0.50857681252E+01 -0.34529213414E+02 -0.37357306946E+03  0.37519990650E+03  0.00000000000E+00 0. -1.
<mgrwt>
<rscale>  2 0.34901742E+02</rscale>
<asrwt>0</asrwt>
<pdfrwt beam="1">  1       21 0.39264807E-03 0.34901742E+02</pdfrwt>
<pdfrwt beam="2">  1       21 0.84542572E-01 0.34901742E+02</pdfrwt>
<totfact> 0.16939519E+07</totfact>
</mgrwt>
</event>
<event>
 4    1  0.3862688E+004  0.6001063E+02  0.7546771E-02  0.1397787E+00
         21   -1    0    0  503  502  0.00000000000E+00  0.00000000000E+00  0.34740758976E+03  0.34740758976E+03  0.00000000000E+00 0. -1.
         21   -1    0    0  501  503 -0.00000000000E+00 -0.00000000000E+00 -0.10444296494E+02  0.10444296494E+02  0.00000000000E+00 0. -1.
          3    1    1    2  501    0 -0.57456638973E+02 -0.17320792439E+02  0.15300345384E+03  0.16435124612E+03  0.00000000000E+00 0.  1.
         -3    1    1    2    0  502  0.57456638973E+02  0.17320792439E+02  0.18395983943E+03  0.19350064014E+03  0.00000000000E+00 0. -1.
<mgrwt>
<rscale>  2 0.60010626E+02</rscale>
<asrwt>0</asrwt>
<pdfrwt beam="1">  1       21 0.53447313E-01 0.60010626E+02</pdfrwt>
<pdfrwt beam="2">  1       21 0.16068151E-02 0.60010626E+02</pdfrwt>
<totfact> 0.54722304E+06</totfact>
</mgrwt>
</event>
<event>
 4    1  0.3862688E+004  0.2354605E+02  0.7546771E-02  0.1682809E+00
         21   -1    0    0  501  502  0.00000000000E+00  0.00000000000E+00  0.22311633537E+03  0.22311633537E+03  0.00000000000E+00 0. -1.
         21   -1    0    0  502  503 -0.00000000000E+00 -0.00000000000E+00 -0.25719652079E+01  0.25719652079E+01  0.00000000000E+00 0. -1.
          4    1    1    2  501    0  0.46642482103E+00  0.23541431320E+02  0.13103696847E+03  0.13313565881E+03  0.00000000000E+00 0.  1.
         -4    1    1    2    0  503 -0.46642482103E+00 -0.23541431320E+02  0.89507401688E+02  0.92552641765E+02  0.00000000000E+00 0. -1.
<mgrwt>
<rscale>  2 0.23546051E+02</rscale>
<asrwt>0</asrwt>
<pdfrwt beam="1">  1       21 0.34325575E-01 0.23546051E+02</pdfrwt>
<pdfrwt beam="2">  1       21 0.39568713E-03 0.23546051E+02</pdfrwt>
<totfact> 0.93094998E+07</totfact>
</mgrwt>
</event>
<event>
 4    1  0.3862688E+004  0.2495278E+02  0.7546771E-02  0.1661681E+00
         21   -1    0    0  501  502  0.00000000000E+00  0.00000000000E+00  0.49938958358E+01  0.49938958358E+01  0.00000000000E+00 0. -1.
         21   -1    0    0  502  503 -0.00000000000E+00 -0.00000000000E+00 -0.14338106711E+03  0.14338106711E+03  0.00000000000E+00 0. -1.
          5    1    1    2  501    0  0.13422382398E+02 -0.21035226211E+02 -0.95986064699E+02  0.99176437259E+02  0.00000000000E+00 0.  1.
         -5    1    1    2    0  503 -0.13422382398E+02  0.21035226211E+02 -0.42401106577E+02  0.49198525689E+02  0.00000000000E+00 0. -1.
<mgrwt>
<rscale>  2 0.24952777E+02</rscale>
<asrwt>0</asrwt>
<pdfrwt beam="1">  1       21 0.76829173E-03 0.24952777E+02</pdfrwt>
<pdfrwt beam="2">  1       21 0.22058624E-01 0.24952777E+02</pdfrwt>
<totfact> 0.78607802E+07</totfact>
</mgrwt>
</event>
<event>
 4    1  0.3862688E+004  0.2292076E+02  0.7546771E-02  0.1692798E+00
         21   -1    0    0  503  502  0.00000000000E+00  0.00000000000E+00  0.38405049400E+02  0.38405049400E+02  0.00000000000E+00 0.  1.
         21   -1    0    0  501  503 -0.00000000000E+00 -0.00000000000E+00 -0.13941203849E+02  0.13941203849E+02  0.00000000000E+00 0.  1.
          2    1    1    2  501    0 -0.17086514460E+02 -0.15277837721E+02  0.86458188752E+01  0.24497173018E+02  0.00000000000E+00 0. -1.
         -2    1    1    2    0  502  0.17086514460E+02  0.15277837721E+02  0.15818026675E+02  0.27849080232E+02  0.00000000000E+00 0.  1.
<mgrwt>
<rscale>  2 0.22920761E+02</rscale>
<asrwt>0</asrwt>
<pdfrwt beam="1">  1       21 0.59084691E-02 0.22920761E+02</pdfrwt>
<pdfrwt beam="2">  1       21 0.21448006E-02 0.22920761E+02</pdfrwt>
<totfact> 0.14737609E+08</totfact>
</mgrwt>
</event>
<event>
 4    1  0.3862688E+004  0.2832274E+02  0.7546771E-02  0.1617405E+00
         21   -1    0    0  503  502  0.00000000000E+00  0.00000000000E+00  0.47077856463E+02  0.47077856463E+02  0.00000000000E+00 0. -1.
         21   -1    0    0  501  503 -0.00000000000E+00 -0.00000000000E+00 -0.18482945426E+02  0.18482945426E+02  0.00000000000E+00 0. -1.
          1    1    1    2  501    0 -0.45469108433E+01 -0.27955380385E+02  0.51363844537E+01  0.28784720529E+02  0.00000000000E+00 0. -1.
         -1    1    1    2    0  502  0.45469108433E+01  0.27955380385E+02  0.23458526584E+02  0.36776081360E+02  0.00000000000E+00 0.  1.
<mgrwt>
<rscale>  2 0.28322742E+02</rscale>
<asrwt>0</asrwt>
<pdfrwt beam="1">  1       21 0.72427471E-02 0.28322742E+02</pdfrwt>
<pdfrwt beam="2">  1       21 0.28435301E-02 0.28322742E+02</pdfrwt>
<totfact> 0.72450525E+07</totfact>
</mgrwt>
</event>
<event>
 4    1  0.3862688E+004  0.2617078E+02  0.7546771E-02  0.1644733E+00
         21   -1    0    0  501  502  0.00000000000E+00  0.00000000000E+00  0.23652524061E+03  0.23652524061E+03  0.00000000000E+00 0.  1.
         21   -1    0    0  502  503 -0.00000000000E+00 -0.00000000000E+00 -0.29055455255E+01  0.29055455255E+01  0.00000000000E+00 0.  1.
          4    1    1    2  501    0  0.81627578220E+01 -0.24865217438E+02  0.10984634631E+03  0.11292089909E+03  0.00000000000E+00 0.  1.
         -4    1    1    2    0  503 -0.81627578220E+01  0.24865217438E+02  0.12377334877E+03  0.12650988704E+03  0.00000000000E+00 0. -1.
<mgrwt>
<rscale>  2 0.26170779E+02</rscale>
<asrwt>0</asrwt>
<pdfrwt beam="1">  1       21 0.36388483E-01 0.26170779E+02</pdfrwt>
<pdfrwt beam="2">  1       21 0.44700719E-03 0.26170779E+02</pdfrwt>
<totfact> 0.71629031E+07</totfact>
</mgrwt>
</event>
<event>
 4    1  0.3862688E+004  0.2536551E+02  0.7546771E-02  0.1655807E+00
         21   -1    0    0  501  502  0.00000000000E+00  0.00000000000E+00  0.18844289991E+03  0.18844289991E+03  0.00000000000E+00 0. -1.
         21   -1    0    0  502  503 -0.00000000000E+00 -0.00000000000E+00 -0.38054737751E+01  0.38054737751E+01  0.00000000000E+00 0. -1.
          2    1    1    2  501    0 -0.12420399091E+02  0.22116577188E+02  0.12313551218E+03  0.12572097542E+03  0.00000000000E+00 0. -1.
         -2    1    1    2    0  503  0.12420399091E+02 -0.22116577188E+02  0.61501913950E+02  0.66527398263E+02  0.00000000000E+00 0.  1.
<mgrwt>
<rscale>  2 0.25365514E+02</rscale>
<asrwt>0</asrwt>
<pdfrwt beam="1">  1       21 0.28991208E-01 0.25365514E+02</pdfrwt>
<pdfrwt beam="2">  1       21 0.58545765E-03 0.25365514E+02</pdfrwt>
<totfact> 0.72506702E+07</totfact>
</mgrwt>
</event>
<event>
 4    1  0.3862688E+004  0.2089446E+02  0.7546771E-02  0.1728104E+00
         21   -1    0    0  501  502  0.00000000000E+00  0.00000000000E+00  0.12817314882E+02  0.12817314882E+02  0.00000000000E+00 0.  1.
         21   -1    0    0  502  503 -0.00000000000E+00 -0.00000000000E+00 -0.38297095324E+02  0.38297095324E+02  0.00000000000E+00 0.  1.
          5    1    1    2  501    0  0.18183421057E+02 -0.10292790210E+02 -0.42406084472E+01  0.21320438355E+02  0.00000000000E+00 0. -1.
         -5    1    1    2    0  503 -0.18183421057E+02  0.10292790210E+02 -0.21239171995E+02  0.29793971851E+02  0.00000000000E+00 0.  1.
<mgrwt>
<rscale>  2 0.20894457E+02</rscale>
<asrwt>0</asrwt>
<pdfrwt beam="1">  1       21 0.19718946E-02 0.20894457E+02</pdfrwt>
<pdfrwt beam="2">  1       21 0.58918607E-02 0.20894457E+02</pdfrwt>
<totfact> 0.16366925E+08</totfact>
</mgrwt>
</event>
<event>
 4    1  0.3862688E+004  0.2417369E+02  0.7546771E-02  0.1673162E+00
         21   -1    0    0  501  502  0.00000000000E+00  0.00000000000E+00  0.20774120828E+03  0.20774120828E+03  0.00000000000E+00 0. -1.
         21   -1    0    0  502  503 -0.00000000000E+00 -0.00000000000E+00 -0.30416201187E+01  0.30416201187E+01  0.00000000000E+00 0. -1.
          1    1    1    2  501    0 -0.13612022544E+02  0.19976986663E+02  0.13124664365E+03  0.13345429413E+03  0.00000000000E+00 0. -1.
         -1    1    1    2    0  503  0.13612022544E+02 -0.19976986663E+02  0.73452944514E+02  0.77328534265E+02  0.00000000000E+00 0.  1.
<mgrwt>
<rscale>  2 0.24173687E+02</rscale>
<asrwt>0</asrwt>
<pdfrwt beam="1">  1       21 0.31960175E-01 0.24173687E+02</pdfrwt>
<pdfrwt beam="2">  1       21 0.46794172E-03 0.24173687E+02</pdfrwt>
<totfact> 0.83537412E+07</totfact>
</mgrwt>
</event>
<event>
 4    1  0.3862688E+004  0.2047129E+02  0.7546771E-02  0.1736115E+00
         21   -1    0    0  501  502  0.00000000000E+00  0.00000000000E+00  0.15469532115E+02  0.15469532115E+02  0.00000000000E+00 0.  1.
         21   -1    0    0  502  503 -0.00000000000E+00 -0.00000000000E+00 -0.27178667886E+02  0.27178667886E+02  0.00000000000E+00 0.  1.
          4    1    1    2  501    0 -0.20359284284E+02  0.21385158885E+01 -0.46384024648E+01  0.20990199718E+02  0.00000000000E+00 0. -1.
         -4    1    1    2    0  503  0.20359284284E+02 -0.21385158885E+01 -0.70707333063E+01  0.21658000283E+02  0.00000000000E+00 0.  1.
<mgrwt>
<rscale>  2 0.20471290E+02</rscale>
<asrwt>0</asrwt>
<pdfrwt beam="1">  1       21 0.23799280E-02 0.20471290E+02</pdfrwt>
<pdfrwt beam="2">  1       21 0.41813335E-02 0.20471290E+02</pdfrwt>
<totfact> 0.20988706E+08</totfact>
</mgrwt>
</event>
<event>
 4    1  0.3862688E+004  0.2364355E+02  0.7546771E-02  0.1681286E+00
         21   -1    0    0  503  502  0.00000000000E+00  0.00000000000E+00  0.39832672361E+02  0.39832672361E+02  0.00000000000E+00 0. -1.
         21   -1    0    0  501  503 -0.00000000000E+00 -0.00000000000E+00 -0.14142647310E+02  0.14142647310E+02  0.00000000000E+00 0. -1.
          4    1    1    2  501    0 -0.10690947758E+02  0.21088407377E+02  0.10481108095E+02  0.25862538866E+02  0.00000000000E+00 0. -1.
         -4    1    1    2    0  502  0.10690947758E+02 -0.21088407377E+02  0.15208916955E+02  0.28112780806E+02  0.00000000000E+00 0.  1.
<mgrwt>
<rscale>  2 0.23643546E+02</rscale>
<asrwt>0</asrwt>
<pdfrwt beam="1">  1       21 0.61281034E-02 0.23643546E+02</pdfrwt>
<pdfrwt beam="2">  1       21 0.21757919E-02 0.23643546E+02</pdfrwt>
<totfact> 0.13721992E+08</totfact>
</mgrwt>
</event>
<event>
 4    1  0.3862688E+004  0.2598020E+02  0.7546771E-02  0.1647309E+00
         21   -1    0    0  501  502  0.00000000000E+00  0.00000000000E+00  0.28959274828E+03  0.28959274828E+03  0.00000000000E+00 0.  1.
         21   -1    0    0  502  503 -0.00000000000E+00 -0.00000000000E+00 -0.24064107527E+01  0.24064107527E+01  0.00000000000E+00 0.  1.
          2    1    1    2  501    0 -0.22762367140E+02 -0.12523790540E+02  0.11770636842E+03  0.12053945351E+03  0.00000000000E+00 0.  1.
         -2    1    1    2    0  503  0.22762367140E+02  0.12523790540E+02  0.16947996911E+03  0.17145970552E+03  0.00000000000E+00 0. -1.
<mgrwt>
<rscale>  2 0.25980198E+02</rscale>
<asrwt>0</asrwt>
<pdfrwt beam="1">  1       21 0.44552703E-01 0.25980198E+02</pdfrwt>
<pdfrwt beam="2">  1       21 0.37021727E-03 0.25980198E+02</pdfrwt>
<totfact> 0.64310716E+07</totfact>
</mgrwt>
</event>
<event>
 4    1  0.3862688E+004  0.2937368E+02  0.7546771E-02  0.1605117E+00
         21   -1    0    0  503  502  0.00000000000E+00  0.00000000000E+00  0.22568486209E+02  0.22568486209E+02  0.00000000000E+00 0.  1.
         21   -1    0    0  501  503 -0.00000000000E+00 -0.00000000000E+00 -0.69112214321E+02  0.69112214321E+02  0.00000000000E+00 0.  1.
          5    1    1    2  501    0 -0.26720338066E+02  0.12199850166E+02 -0.53913972028E+02  0.61396491677E+02  0.00000000000E+00 0.  1.
         -5    1    1    2    0  502  0.26720338066E+02 -0.12199850166E+02  0.73702439170E+01  0.30284208853E+02  0.00000000000E+00 0. -1.
<mgrwt>
<rscale>  2 0.29373675E+02</rscale>
<asrwt>0</asrwt>
<pdfrwt beam="1">  1       21 0.34720749E-02 0.29373675E+02</pdfrwt>
<pdfrwt beam="2">  1       21 0.10632648E-01 0.29373675E+02</pdfrwt>
<totfact> 0.28256145E+07</totfact>
</mgrwt>
</event>
<event>
 4    1  0.3862688E+004  0.2068557E+02  0.7546771E-02  0.1732029E+00
         21   -1    0    0  501  502  0.00000000000E+00  0.00000000000E+00  0.55374064262E+02  0.55374064262E+02  0.00000000000E+00 0. -1.
         21   -1    0    0  502  503 -0.00000000000E+00 -0.00000000000E+00 -0.78821596413E+01  0.78821596413E+01  0.00000000000E+00 0. -1.
          4    1    1    2  501    0  0.68111860912E+01  0.19532040823E+02  0.19312951615E+02  0.28299875879E+02  0.00000000000E+00 0.  1.
         -4    1    1    2    0  503 -0.68111860912E+01 -0.19532040823E+02  0.28178953005E+02  0.34956348024E+02  0.00000000000E+00 0. -1.
<mgrwt>
<rscale>  2 0.20685572E+02</rscale>
<asrwt>0</asrwt>
<pdfrwt beam="1">  1       21 0.85190866E-02 0.20685572E+02</pdfrwt>
<pdfrwt beam="2">  1       21 0.12126400E-02 0.20685572E+02</pdfrwt>
<totfact> 0.18802407E+08</totfact>
</mgrwt>
</event>
<event>
 4    1  0.3862688E+004  0.2890298E+02  0.7546771E-02  0.1610541E+00
         21   -1    0    0  501  502  0.00000000000E+00  0.00000000000E+00  0.21828644280E+01  0.21828644280E+01  0.00000000000E+00 0. -1.
         21   -1    0    0  502  503 -0.00000000000E+00 -0.00000000000E+00 -0.39004460469E+03  0.39004460469E+03  0.00000000000E+00 0. -1.
          3    1    1    2  501    0 -0.77178695194E+01  0.27853489748E+02 -0.16701969970E+03  0.16950210172E+03  0.00000000000E+00 0. -1.
         -3    1    1    2    0  503  0.77178695194E+01 -0.27853489748E+02 -0.22084204056E+03  0.22272536740E+03  0.00000000000E+00 0.  1.
<mgrwt>
<rscale>  2 0.28902983E+02</rscale>
<asrwt>0</asrwt>
<pdfrwt beam="1">  1       21 0.33582549E-03 0.28902983E+02</pdfrwt>
<pdfrwt beam="2">  1       21 0.60006827E-01 0.28902983E+02</pdfrwt>
<totfact> 0.42253942E+07</totfact>
</mgrwt>
</event>
<event>
 4    1  0.3862688E+004  0.2496689E+02  0.7546771E-02  0.1661478E+00
         21   -1    0    0  501  502  0.00000000000E+00  0.00000000000E+00  0.85897533064E+02  0.85897533064E+02  0.00000000000E+00 0.  1.
         21   -1    0    0  502  503 -0.00000000000E+00 -0.00000000000E+00 -0.83726351691E+01  0.83726351691E+01  0.00000000000E+00 0.  1.
          4    1    1    2  501    0 -0.39992846375E+00  0.24963688570E+02  0.21555530756E+02  0.32984641820E+02  0.00000000000E+00 0. -1.
         -4    1    1    2    0  503  0.39992846375E+00 -0.24963688570E+02  0.55969367139E+02  0.61285526413E+02  0.00000000000E+00 0.  1.
<mgrwt>
<rscale>  2 0.24966892E+02</rscale>
<asrwt>0</asrwt>
<pdfrwt beam="1">  1       21 0.13215004E-01 0.24966892E+02</pdfrwt>
<pdfrwt beam="2">  1       21 0.12880978E-02 0.24966892E+02</pdfrwt>
<totfact> 0.87485793E+07</totfact>
</mgrwt>
</event>
<event>
 4    1  0.3862688E+004  0.2254289E+02  0.7546771E-02  0.1699029E+00
         21   -1    0    0  503  502  0.00000000000E+00  0.00000000000E+00  0.23346350923E+01  0.23346350923E+01  0.00000000000E+00 0.  1.
         21   -1    0    0  501  503 -0.00000000000E+00 -0.00000000000E+00 -0.29045688409E+03  0.29045688409E+03  0.00000000000E+00 0.  1.
          2    1    1    2  501    0  0.71227265915E+01 -0.21388046450E+02 -0.70776647094E+02  0.74279980741E+02  0.00000000000E+00 0.  1.
         -2    1    1    2    0  502 -0.71227265915E+01  0.21388046450E+02 -0.21734560191E+03  0.21851153844E+03  0.00000000000E+00 0. -1.
<mgrwt>
<rscale>  2 0.22542887E+02</rscale>
<asrwt>0</asrwt>
<pdfrwt beam="1">  1       21 0.35917449E-03 0.22542887E+02</pdfrwt>
<pdfrwt beam="2">  1       21 0.44685692E-01 0.22542887E+02</pdfrwt>
<totfact> 0.64622959E+07</totfact>
</mgrwt>
</event>
<event>
 4    1  0.3862688E+004  0.2396068E+02  0.7546771E-02  0.1676395E+00
         21   -1    0    0  501  502  0.00000000000E+00  0.00000000000E+00  0.11597132566E+04  0.11597132566E+04  0.00000000000E+00 0. -1.
         21   -1    0    0  502  503 -0.00000000000E+00 -0.00000000000E+00 -0.82064852113E+00  0.82064852113E+00  0.00000000000E+00 0. -1.
          1    1    1    2  501    0  0.14131877923E+02  0.19349532645E+02  0.94494969320E+03  0.94525342479E+03  0.00000000000E+00 0.  1.
         -1    1    1    2    0  503 -0.14131877923E+02 -0.19349532645E+02  0.21394291485E+03  0.21528048030E+03  0.00000000000E+00 0. -1.
<mgrwt>
<rscale>  2 0.23960684E+02</rscale>
<asrwt>0</asrwt>
<pdfrwt beam="1">  1       21 0.17841611E+00 0.23960684E+02</pdfrwt>
<pdfrwt beam="2">  1       21 0.12625455E-03 0.23960684E+02</pdfrwt>
<totfact> 0.14962685E+07</totfact>
</mgrwt>
</event>
<event>
 4    1  0.3862688E+004  0.2581449E+02  0.7546771E-02  0.1649571E+00
         21   -1    0    0  501  502  0.00000000000E+00  0.00000000000E+00  0.30188909833E+02  0.30188909833E+02  0.00000000000E+00 0. -1.
         21   -1    0    0  502  503 -0.00000000000E+00 -0.00000000000E+00 -0.30605785381E+02  0.30605785381E+02  0.00000000000E+00 0. -1.
          1    1    1    2  501    0  0.24029448413E+02  0.94325675588E+01  0.15840851456E+02  0.30287295962E+02  0.00000000000E+00 0.  1.
         -1    1    1    2    0  503 -0.24029448413E+02 -0.94325675588E+01 -0.16257727004E+02  0.30507399252E+02  0.00000000000E+00 0. -1.
<mgrwt>
<rscale>  2 0.25814487E+02</rscale>
<asrwt>0</asrwt>
<pdfrwt beam="1">  1       21 0.46444476E-02 0.25814487E+02</pdfrwt>
<pdfrwt beam="2">  1       21 0.47085824E-02 0.25814487E+02</pdfrwt>
<totfact> 0.65385265E+07</totfact>
</mgrwt>
</event>
<event>
 4    1  0.3862688E+004  0.2922920E+02  0.7546771E-02  0.1606768E+00
         21   -1    0    0  501  502  0.00000000000E+00  0.00000000000E+00  0.74059127630E+01  0.74059127630E+01  0.00000000000E+00 0.  1.
         21   -1    0    0  502  503 -0.00000000000E+00 -0.00000000000E+00 -0.14365321134E+03  0.14365321134E+03  0.00000000000E+00 0.  1.
          3    1    1    2  501    0 -0.28046813197E+02 -0.82293668780E+01 -0.34603935532E+02  0.45296562386E+02  0.00000000000E+00 0.  1.
         -3    1    1    2    0  503  0.28046813197E+02  0.82293668780E+01 -0.10164336305E+03  0.10576256172E+03  0.00000000000E+00 0. -1.
<mgrwt>
<rscale>  2 0.29229201E+02</rscale>
<asrwt>0</asrwt>
<pdfrwt beam="1">  1       21 0.11393713E-02 0.29229201E+02</pdfrwt>
<pdfrwt beam="2">  1       21 0.22100492E-01 0.29229201E+02</pdfrwt>
<totfact> 0.44877790E+07</totfact>
</mgrwt>
</event>
<event>
 4    1  0.3862688E+004  0.2425038E+02  0.7546771E-02  0.1672008E+00
         21   -1    0    0  501  502  0.00000000000E+00  0.00000000000E+00  0.12346587196E+02  0.12346587196E+02  0.00000000000E+00 0. -1.
         21   -1    0    0  502  503 -0.00000000000E+00 -0.00000000000E+00 -0.48065733970E+02  0.48065733970E+02  0.00000000000E+00 0. -1.
          2    1    1    2  501    0 -0.64588106533E+01 -0.23374444072E+02 -0.14987032471E+02  0.28507753560E+02  0.00000000000E+00 0. -1.
         -2    1    1    2    0  503  0.64588106533E+01  0.23374444072E+02 -0.20732114303E+02  0.31904567607E+02  0.00000000000E+00 0.  1.
<mgrwt>
<rscale>  2 0.24250379E+02</rscale>
<asrwt>0</asrwt>
<pdfrwt beam="1">  1       21 0.18994750E-02 0.24250379E+02</pdfrwt>
<pdfrwt beam="2">  1       21 0.73947283E-02 0.24250379E+02</pdfrwt>
<totfact> 0.12568047E+08</totfact>
</mgrwt>
</event>
<event>
 4    1  0.3862688E+004  0.2273903E+02  0.7546771E-02  0.1695776E+00
         21   -1    0    0  503  502  0.00000000000E+00  0.00000000000E+00  0.71880498880E+02  0.71880498880E+02  0.00000000000E+00 0. -1.
         21   -1    0    0  501  503 -0.00000000000E+00 -0.00000000000E+00 -0.75704850790E+01  0.75704850790E+01  0.00000000000E+00 0. -1.
          1    1    1    2  501    0  0.16129936867E+02 -0.16027751922E+02  0.41021237166E+02  0.46902085173E+02  0.00000000000E+00 0.  1.
         -1    1    1    2    0  502 -0.16129936867E+02  0.16027751922E+02  0.23288776635E+02  0.32548898786E+02  0.00000000000E+00 0. -1.
<mgrwt>
<rscale>  2 0.22739035E+02</rscale>
<asrwt>0</asrwt>
<pdfrwt beam="1">  1       21 0.11058538E-01 0.22739035E+02</pdfrwt>
<pdfrwt beam="2">  1       21 0.11646901E-02 0.22739035E+02</pdfrwt>
<totfact> 0.13382870E+08</totfact>
</mgrwt>
</event>
<event>
 4    1  0.3862688E+004  0.2205474E+02  0.7546771E-02  0.1707307E+00
         21   -1    0    0  503  502  0.00000000000E+00  0.00000000000E+00  0.88082177716E+00  0.88082177716E+00  0.00000000000E+00 0. -1.
         21   -1    0    0  501  503 -0.00000000000E+00 -0.00000000000E+00 -0.73261511520E+03  0.73261511520E+03  0.00000000000E+00 0. -1.
          4    1    1    2  501    0 -0.25014802027E+01  0.21912415343E+02 -0.18388165294E+03  0.18519955086E+03  0.00000000000E+00 0. -1.
         -4    1    1    2    0  502  0.25014802027E+01 -0.21912415343E+02 -0.54785264048E+03  0.54829638612E+03  0.00000000000E+00 0.  1.
<mgrwt>
<rscale>  2 0.22054735E+02</rscale>
<asrwt>0</asrwt>
<pdfrwt beam="1">  1       21 0.13551024E-03 0.22054735E+02</pdfrwt>
<pdfrwt beam="2">  1       21 0.11271068E+00 0.22054735E+02</pdfrwt>
<totfact> 0.39176365E+07</totfact>
</mgrwt>
</event>
<event>
 4    1  0.3862688E+004  0.2217218E+02  0.7546771E-02  0.1705291E+00
         21   -1    0    0  501  502  0.00000000000E+00  0.00000000000E+00  0.13178457230E+03  0.13178457230E+03  0.00000000000E+00 0. -1.
         21   -1    0    0  502  503 -0.00000000000E+00 -0.00000000000E+00 -0.37896501636E+01  0.37896501636E+01  0.00000000000E+00 0. -1.
          1    1    1    2  501    0  0.13443582730E+02  0.17631659920E+02  0.55519360570E+02  0.59782980407E+02  0.00000000000E+00 0.  1.
         -1    1    1    2    0  503 -0.13443582730E+02 -0.17631659920E+02  0.72475561561E+02  0.75791242052E+02  0.00000000000E+00 0. -1.
<mgrwt>
<rscale>  2 0.22172175E+02</rscale>
<asrwt>0</asrwt>
<pdfrwt beam="1">  1       21 0.20274546E-01 0.22172175E+02</pdfrwt>
<pdfrwt beam="2">  1       21 0.58302320E-03 0.22172175E+02</pdfrwt>
<totfact> 0.13304525E+08</totfact>
</mgrwt>
</event>
<event>
 4    1  0.3862688E+004  0.3214022E+02  0.7546771E-02  0.1575569E+00
         21   -1    0    0  503  502  0.00000000000E+00  0.00000000000E+00  0.37085414838E+01  0.37085414838E+01  0.00000000000E+00 0. -1.
         21   -1    0    0  501  503 -0.00000000000E+00 -0.00000000000E+00 -0.28671679268E+03  0.28671679268E+03  0.00000000000E+00 0. -1.
          2    1    1    2  501    0  0.68396888430E+01  0.31404015182E+02 -0.11698798020E+03  0.12132263196E+03  0.00000000000E+00 0. -1.
         -2    1    1    2    0  502 -0.68396888430E+01 -0.31404015182E+02 -0.16602027099E+03  0.16910270221E+03  0.00000000000E+00 0.  1.
<mgrwt>
<rscale>  2 0.32140216E+02</rscale>
<asrwt>0</asrwt>
<pdfrwt beam="1">  1       21 0.57054493E-03 0.32140216E+02</pdfrwt>
<pdfrwt beam="2">  1       21 0.44110269E-01 0.32140216E+02</pdfrwt>
<totfact> 0.36078114E+07</totfact>
</mgrwt>
</event>
<event>
 4    1  0.3862688E+004  0.2011494E+02  0.7546771E-02  0.1743052E+00
         21   -1    0    0  501  502  0.00000000000E+00  0.00000000000E+00  0.18604502056E+03  0.18604502056E+03  0.00000000000E+00 0. -1.
         21   -1    0    0  502  503 -0.00000000000E+00 -0.00000000000E+00 -0.28945676952E+01  0.28945676952E+01  0.00000000000E+00 0. -1.
          3    1    1    2  501    0 -0.16691371291E+02  0.11225373578E+02  0.13868347979E+03  0.14013464402E+03  0.00000000000E+00 0.  1.
         -3    1    1    2    0  503  0.16691371291E+02 -0.11225373578E+02  0.44466973076E+02  0.48804944238E+02  0.00000000000E+00 0. -1.
<mgrwt>
<rscale>  2 0.20114942E+02</rscale>
<asrwt>0</asrwt>
<pdfrwt beam="1">  1       21 0.28622301E-01 0.20114942E+02</pdfrwt>
<pdfrwt beam="2">  1       21 0.44531825E-03 0.20114942E+02</pdfrwt>
<totfact> 0.10445856E+08</totfact>
</mgrwt>
</event>
<event>
 4    1  0.3862688E+004  0.2069408E+02  0.7546771E-02  0.1731867E+00
         21   -1    0    0  503  502  0.00000000000E+00  0.00000000000E+00  0.48988083366E+01  0.48988083366E+01  0.00000000000E+00 0. -1.
         21   -1    0    0  501  503 -0.00000000000E+00 -0.00000000000E+00 -0.87537140600E+02  0.87537140600E+02  0.00000000000E+00 0. -1.
          2    1    1    2  501    0  0.14031848978E+02 -0.15210270137E+02 -0.43022672839E+02  0.47740920410E+02  0.00000000000E+00 0.  1.
         -2    1    1    2    0  502 -0.14031848978E+02  0.15210270137E+02 -0.39615659424E+02  0.44695028527E+02  0.00000000000E+00 0. -1.
<mgrwt>
<rscale>  2 0.20694084E+02</rscale>
<asrwt>0</asrwt>
<pdfrwt beam="1">  1       21 0.75366285E-03 0.20694084E+02</pdfrwt>
<pdfrwt beam="2">  1       21 0.13467252E-01 0.20694084E+02</pdfrwt>
<totfact> 0.17941909E+08</totfact>
</mgrwt>
</event>
<event>
 4    1  0.3862688E+004  0.2197447E+02  0.7546771E-02  0.1708694E+00
         21   -1    0    0  503  502  0.00000000000E+00  0.00000000000E+00  0.25468669589E+01  0.25468669589E+01  0.00000000000E+00 0.  1.
         21   -1    0    0  501  503 -0.00000000000E+00 -0.00000000000E+00 -0.55993994454E+03  0.55993994454E+03  0.00000000000E+00 0.  1.
          5    1    1    2  501    0 -0.21902439581E+02 -0.17777465148E+01 -0.49971393251E+02  0.54589535496E+02  0.00000000000E+00 0. -1.
         -5    1    1    2    0  502  0.21902439581E+02  0.17777465148E+01 -0.50742168433E+03  0.50789727600E+03  0.00000000000E+00 0.  1.
<mgrwt>
<rscale>  2 0.21974468E+02</rscale>
<asrwt>0</asrwt>
<pdfrwt beam="1">  1       21 0.39182502E-03 0.21974468E+02</pdfrwt>
<pdfrwt beam="2">  1       21 0.86144752E-01 0.21974468E+02</pdfrwt>
<totfact> 0.15127296E+07</totfact>
</mgrwt>
</event>
<event>
 4    1  0.3862688E+004  0.2037285E+02  0.7546771E-02  0.1738014E+00
         21   -1    0    0  503  502  0.00000000000E+00  0.00000000000E+00  0.31820435380E+03  0.31820435380E+03  0.00000000000E+00 0. -1.
         21   -1    0    0  501  503 -0.00000000000E+00 -0.00000000000E+00 -0.13359996131E+01  0.13359996131E+01  0.00000000000E+00 0. -1.
          5    1    1    2  501    0  0.14475970607E+02 -0.14335240964E+02  0.13384681994E+03  0.13538841924E+03  0.00000000000E+00 0.  1.
         -5    1    1    2    0  502 -0.14475970607E+02  0.14335240964E+02  0.18302153425E+03  0.18415193417E+03  0.00000000000E+00 0. -1.
<mgrwt>
<rscale>  2 0.20372846E+02</rscale>
<asrwt>0</asrwt>
<pdfrwt beam="1">  1       21 0.48954456E-01 0.20372846E+02</pdfrwt>
<pdfrwt beam="2">  1       21 0.20553866E-03 0.20372846E+02</pdfrwt>
<totfact> 0.11867871E+08</totfact>
</mgrwt>
</event>
<event>
 4    1  0.3862688E+004  0.2781713E+02  0.7546771E-02  0.1623552E+00
         21   -1    0    0  501  502  0.00000000000E+00  0.00000000000E+00  0.14494861069E+02  0.14494861069E+02  0.00000000000E+00 0.  1.
         21   -1    0    0  502  503 -0.00000000000E+00 -0.00000000000E+00 -0.55927308190E+02  0.55927308190E+02  0.00000000000E+00 0.  1.
          2    1    1    2  501    0 -0.16502943398E+02 -0.22392976043E+02 -0.13207369003E+02  0.30793296557E+02  0.00000000000E+00 0. -1.
         -2    1    1    2    0  503  0.16502943398E+02  0.22392976043E+02 -0.28225078118E+02  0.39628872702E+02  0.00000000000E+00 0.  1.
<mgrwt>
<rscale>  2 0.27817126E+02</rscale>
<asrwt>0</asrwt>
<pdfrwt beam="1">  1       21 0.22299786E-02 0.27817126E+02</pdfrwt>
<pdfrwt beam="2">  1       21 0.86042013E-02 0.27817126E+02</pdfrwt>
<totfact> 0.79367662E+07</totfact>
</mgrwt>
</event>
<event>
 4    1  0.3862688E+004  0.2176549E+02  0.7546771E-02  0.1712340E+00
         21   -1    0    0  503  502  0.00000000000E+00  0.00000000000E+00  0.23949807734E+01  0.23949807734E+01  0.00000000000E+00 0. -1.
         21   -1    0    0  501  503 -0.00000000000E+00 -0.00000000000E+00 -0.20099767764E+03  0.20099767764E+03  0.00000000000E+00 0. -1.
          5    1    1    2  501    0  0.38771270220E+00 -0.21762037779E+02 -0.86482174192E+02  0.89179050580E+02  0.00000000000E+00 0. -1.
         -5    1    1    2    0  502 -0.38771270220E+00  0.21762037779E+02 -0.11212052267E+03  0.11421360783E+03  0.00000000000E+00 0.  1.
<mgrwt>
<rscale>  2 0.21765491E+02</rscale>
<asrwt>0</asrwt>
<pdfrwt beam="1">  1       21 0.36845842E-03 0.21765491E+02</pdfrwt>
<pdfrwt beam="2">  1       21 0.30922733E-01 0.21765491E+02</pdfrwt>
<totfact> 0.12252104E+08</totfact>
</mgrwt>
</event>
<event>
 4    1  0.3862688E+004  0.2870346E+02  0.7546771E-02  0.1612879E+00
         21   -1    0    0  501  502  0.00000000000E+00  0.00000000000E+00  0.55907285303E+01  0.55907285303E+01  0.00000000000E+00 0. -1.
         21   -1    0    0  502  503 -0.00000000000E+00 -0.00000000000E+00 -0.16276287599E+03  0.16276287599E+03  0.00000000000E+00 0. -1.
          1    1    1    2  501    0 -0.12436615532E+02  0.25869275461E+02 -0.52696963111E+02  0.60007155739E+02  0.00000000000E+00 0. -1.
         -1    1    1    2    0  503  0.12436615532E+02 -0.25869275461E+02 -0.10447518435E+03  0.10834644878E+03  0.00000000000E+00 0.  1.
<mgrwt>
<rscale>  2 0.28703464E+02</rscale>
<asrwt>0</asrwt>
<pdfrwt beam="1">  1       21 0.86011204E-03 0.28703464E+02</pdfrwt>
<pdfrwt beam="2">  1       21 0.25040444E-01 0.28703464E+02</pdfrwt>
<totfact> 0.54705496E+07</totfact>
</mgrwt>
</event>
<event>
 4    1  0.3862688E+004  0.2703452E+02  0.7546771E-02  0.1633389E+00
         21   -1    0    0  503  502  0.00000000000E+00  0.00000000000E+00  0.36219293689E+01  0.36219293689E+01  0.00000000000E+00 0.  1.
         21   -1    0    0  501  503 -0.00000000000E+00 -0.00000000000E+00 -0.23426628786E+03  0.23426628786E+03  0.00000000000E+00 0.  1.
          2    1    1    2  501    0  0.25691774640E+02 -0.84141521880E+01 -0.15960939757E+03  0.16188275089E+03  0.00000000000E+00 0. -1.
         -2    1    1    2    0  502 -0.25691774640E+02  0.84141521880E+01 -0.71034960921E+02  0.76005466344E+02  0.00000000000E+00 0.  1.
<mgrwt>
<rscale>  2 0.27034519E+02</rscale>
<asrwt>0</asrwt>
<pdfrwt beam="1">  1       21 0.55721991E-03 0.27034519E+02</pdfrwt>
<pdfrwt beam="2">  1       21 0.36040967E-01 0.27034519E+02</pdfrwt>
<totfact> 0.52997334E+07</totfact>
</mgrwt>
</event>
<event>
 4    1  0.3862688E+004  0.2096133E+02  0.7546771E-02  0.1726860E+00
         21   -1    0    0  501  502  0.00000000000E+00  0.00000000000E+00  0.11385091478E+03  0.11385091478E+03  0.00000000000E+00 0. -1.
         21   -1    0    0  502  503 -0.00000000000E+00 -0.00000000000E+00 -0.43946995229E+01  0.43946995229E+01  0.00000000000E+00 0. -1.
          5    1    1    2  501    0  0.59003747277E+01  0.20113749121E+02  0.75365565224E+02  0.78226247175E+02  0.00000000000E+00 0. -1.
         -5    1    1    2    0  503 -0.59003747277E+01 -0.20113749121E+02  0.34090650035E+02  0.40019367129E+02  0.00000000000E+00 0.  1.
<mgrwt>
<rscale>  2 0.20961329E+02</rscale>
<asrwt>0</asrwt>
<pdfrwt beam="1">  1       21 0.17515523E-01 0.20961329E+02</pdfrwt>
<pdfrwt beam="2">  1       21 0.67610771E-03 0.20961329E+02</pdfrwt>
<totfact> 0.13539617E+08</totfact>
</mgrwt>
</event>
<event>
 4    1  0.3862688E+004  0.3208693E+02  0.7546771E-02  0.1576103E+00
         21   -1    0    0  503  502  0.00000000000E+00  0.00000000000E+00  0.14847080231E+02  0.14847080231E+02  0.00000000000E+00 0. -1.
         21   -1    0    0  501  503 -0.00000000000E+00 -0.00000000000E+00 -0.80380316438E+02  0.80380316438E+02  0.00000000000E+00 0. -1.
          3    1    1    2  501    0  0.27824029182E+02  0.15981073066E+02 -0.50408656778E+02  0.59754530995E+02  0.00000000000E+00 0.  1.
         -3    1    1    2    0  502 -0.27824029182E+02 -0.15981073066E+02 -0.15124579428E+02  0.35472865674E+02  0.00000000000E+00 0. -1.
<mgrwt>
<rscale>  2 0.32086933E+02</rscale>
<asrwt>0</asrwt>
<pdfrwt beam="1">  1       21 0.22841662E-02 0.32086933E+02</pdfrwt>
<pdfrwt beam="2">  1       21 0.12366203E-01 0.32086933E+02</pdfrwt>
<totfact> 0.43013775E+07</totfact>
</mgrwt>
</event>
<event>
 4    1  0.3862688E+004  0.2142944E+02  0.7546771E-02  0.1718310E+00
         21   -1    0    0  503  502  0.00000000000E+00  0.00000000000E+00  0.36624568906E+03  0.36624568906E+03  0.00000000000E+00 0.  1.
         21   -1    0    0  501  503 -0.00000000000E+00 -0.00000000000E+00 -0.16802379406E+01  0.16802379406E+01  0.00000000000E+00 0.  1.
          2    1    1    2  501    0 -0.16441552615E+02 -0.13743954151E+02  0.27495337715E+03  0.27578720154E+03  0.00000000000E+00 0.  1.
         -2    1    1    2    0  502  0.16441552615E+02  0.13743954151E+02  0.89612073976E+02  0.92138725466E+02  0.00000000000E+00 0. -1.
<mgrwt>
<rscale>  2 0.21429441E+02</rscale>
<asrwt>0</asrwt>
<pdfrwt beam="1">  1       21 0.56345427E-01 0.21429441E+02</pdfrwt>
<pdfrwt beam="2">  1       21 0.25849844E-03 0.21429441E+02</pdfrwt>
<totfact> 0.65668905E+07</totfact>
</mgrwt>
</event>
<event>
 4    1  0.3862688E+004  0.2247666E+02  0.7546771E-02  0.1700136E+00
         21   -1    0    0  501  502  0.00000000000E+00  0.00000000000E+00  0.51688337714E+01  0.51688337714E+01  0.00000000000E+00 0. -1.
         21   -1    0    0  502  503 -0.00000000000E+00 -0.00000000000E+00 -0.99649800849E+02  0.99649800849E+02  0.00000000000E+00 0. -1.
          4    1    1    2  501    0  0.94602313896E+01  0.20388824406E+02 -0.39984418764E+02  0.45868877058E+02  0.00000000000E+00 0.  1.
         -4    1    1    2    0  503 -0.94602313896E+01 -0.20388824406E+02 -0.54496548314E+02  0.58949757563E+02  0.00000000000E+00 0. -1.
<mgrwt>
<rscale>  2 0.22476658E+02</rscale>
<asrwt>0</asrwt>
<pdfrwt beam="1">  1       21 0.79520522E-03 0.22476658E+02</pdfrwt>
<pdfrwt beam="2">  1       21 0.15330738E-01 0.22476658E+02</pdfrwt>
<totfact> 0.13638135E+08</totfact>
</mgrwt>
</event>
<event>
 4    1  0.3862688E+004  0.2435523E+02  0.7546771E-02  0.1670439E+00
         21   -1    0    0  501  502  0.00000000000E+00  0.00000000000E+00  0.20636698910E+03  0.20636698910E+03  0.00000000000E+00 0.  1.
         21   -1    0    0  502  503 -0.00000000000E+00 -0.00000000000E+00 -0.30422503642E+01  0.30422503642E+01  0.00000000000E+00 0.  1.
          2    1    1    2  501    0 -0.97535877732E+01  0.22316918443E+02  0.12625779112E+03  0.12858540797E+03  0.00000000000E+00 0.  1.
         -2    1    1    2    0  503  0.97535877732E+01 -0.22316918443E+02  0.77066947615E+02  0.80823831497E+02  0.00000000000E+00 0. -1.
<mgrwt>
<rscale>  2 0.24355232E+02</rscale>
<asrwt>0</asrwt>
<pdfrwt beam="1">  1       21 0.31748757E-01 0.24355232E+02</pdfrwt>
<pdfrwt beam="2">  1       21 0.46803868E-03 0.24355232E+02</pdfrwt>
<totfact> 0.84699217E+07</totfact>
</mgrwt>
</event>
<event>
 4    1  0.3862688E+004  0.2495005E+02  0.7546771E-02  0.1661720E+00
         21   -1    0    0  503  502  0.00000000000E+00  0.00000000000E+00  0.23777565940E+03  0.23777565940E+03  0.00000000000E+00 0.  1.
         21   -1    0    0  501  503 -0.00000000000E+00 -0.00000000000E+00 -0.26487688355E+01  0.26487688355E+01  0.00000000000E+00 0.  1.
          3    1    1    2  501    0 -0.23457907162E+02 -0.84989303958E+01  0.13051220518E+03  0.13287565965E+03  0.00000000000E+00 0.  1.
         -3    1    1    2    0  502  0.23457907162E+02  0.84989303958E+01  0.10461468539E+03  0.10754876859E+03  0.00000000000E+00 0. -1.
<mgrwt>
<rscale>  2 0.24950055E+02</rscale>
<asrwt>0</asrwt>
<pdfrwt beam="1">  1       21 0.36580854E-01 0.24950055E+02</pdfrwt>
<pdfrwt beam="2">  1       21 0.40750309E-03 0.24950055E+02</pdfrwt>
<totfact> 0.80376397E+07</totfact>
</mgrwt>
</event>
<event>
 4    1  0.3862688E+004  0.3598393E+02  0.7546771E-02  0.1540033E+00
         21   -1    0    0  503  502  0.00000000000E+00  0.00000000000E+00  0.45092986832E+03  0.45092986832E+03  0.00000000000E+00 0. -1.
         21   -1    0    0  501  503 -0.00000000000E+00 -0.00000000000E+00 -0.28717711176E+01  0.28717711176E+01  0.00000000000E+00 0. -1.
          4    1    1    2  501    0 -0.19549694547E+02 -0.30210136773E+02  0.22180468291E+03  0.22470460672E+03  0.00000000000E+00 0.  1.
         -4    1    1    2    0  502  0.19549694547E+02  0.30210136773E+02  0.22625341429E+03  0.22909703272E+03  0.00000000000E+00 0. -1.
<mgrwt>
<rscale>  2 0.35983926E+02</rscale>
<asrwt>0</asrwt>
<pdfrwt beam="1">  1       21 0.69373770E-01 0.35983926E+02</pdfrwt>
<pdfrwt beam="2">  1       21 0.44181130E-03 0.35983926E+02</pdfrwt>
<totfact> 0.21712616E+07</totfact>
</mgrwt>
</event>
<event>
 4    1  0.3862688E+004  0.4143512E+02  0.7546771E-02  0.1497908E+00
         21   -1    0    0  501  502  0.00000000000E+00  0.00000000000E+00  0.14712204060E+03  0.14712204060E+03  0.00000000000E+00 0.  1.
         21   -1    0    0  502  503 -0.00000000000E+00 -0.00000000000E+00 -0.11822759422E+02  0.11822759422E+02  0.00000000000E+00 0.  1.
          3    1    1    2  501    0  0.45349699091E+01 -0.41186203978E+02  0.76692253658E+02  0.87169783304E+02  0.00000000000E+00 0. -1.
         -3    1    1    2    0  503 -0.45349699091E+01  0.41186203978E+02  0.58607027518E+02  0.71775016716E+02  0.00000000000E+00 0.  1.
<mgrwt>
<rscale>  2 0.41435122E+02</rscale>
<asrwt>0</asrwt>
<pdfrwt beam="1">  1       21 0.22634159E-01 0.41435122E+02</pdfrwt>
<pdfrwt beam="2">  1       21 0.18188862E-02 0.41435122E+02</pdfrwt>
<totfact> 0.22307485E+07</totfact>
</mgrwt>
</event>
<event>
 4    1  0.3862688E+004  0.3676706E+02  0.7546771E-02  0.1533446E+00
         21   -1    0    0  503  502  0.00000000000E+00  0.00000000000E+00  0.33528064530E+02  0.33528064530E+02  0.00000000000E+00 0. -1.
         21   -1    0    0  501  503 -0.00000000000E+00 -0.00000000000E+00 -0.40417969581E+02  0.40417969581E+02  0.00000000000E+00 0. -1.
          1    1    1    2  501    0  0.36763986793E+02  0.47548141488E+00 -0.16150466866E+01  0.36802515992E+02  0.00000000000E+00 0. -1.
         -1    1    1    2    0  502 -0.36763986793E+02 -0.47548141488E+00 -0.52748583640E+01  0.37143518119E+02  0.00000000000E+00 0.  1.
<mgrwt>
<rscale>  2 0.36767061E+02</rscale>
<asrwt>0</asrwt>
<pdfrwt beam="1">  1       21 0.51581638E-02 0.36767061E+02</pdfrwt>
<pdfrwt beam="2">  1       21 0.62181492E-02 0.36767061E+02</pdfrwt>
<totfact> 0.38102770E+07</totfact>
</mgrwt>
</event>
<event>
 4    1  0.3862688E+004  0.2630315E+02  0.7546771E-02  0.1642960E+00
         21   -1    0    0  501  502  0.00000000000E+00  0.00000000000E+00  0.56149900849E+01  0.56149900849E+01  0.00000000000E+00 0. -1.
         21   -1    0    0  502  503 -0.00000000000E+00 -0.00000000000E+00 -0.12364211391E+03  0.12364211391E+03  0.00000000000E+00 0. -1.
          1    1    1    2  501    0 -0.15018471697E+02  0.21594004915E+02 -0.55218648470E+02  0.61163344245E+02  0.00000000000E+00 0. -1.
         -1    1    1    2    0  503  0.15018471697E+02 -0.21594004915E+02 -0.62808475351E+02  0.68093759746E+02  0.00000000000E+00 0.  1.
<mgrwt>
<rscale>  2 0.26303147E+02</rscale>
<asrwt>0</asrwt>
<pdfrwt beam="1">  1       21 0.86384458E-03 0.26303147E+02</pdfrwt>
<pdfrwt beam="2">  1       21 0.19021865E-01 0.26303147E+02</pdfrwt>
<totfact> 0.86664380E+07</totfact>
</mgrwt>
</event>
<event>
 4    1  0.3862688E+004  0.2959088E+02  0.7546771E-02  0.1602655E+00
         21   -1    0    0  503  502  0.00000000000E+00  0.00000000000E+00  0.26241212164E+02  0.26241212164E+02  0.00000000000E+00 0. -1.
         21   -1    0    0  501  503 -0.00000000000E+00 -0.00000000000E+00 -0.35313407973E+02  0.35313407973E+02  0.00000000000E+00 0. -1.
          1    1    1    2  501    0  0.25941394132E+02 -0.14236026911E+02  0.26874535914E+01  0.29712670673E+02  0.00000000000E+00 0. -1.
         -1    1    1    2    0  502 -0.25941394132E+02  0.14236026911E+02 -0.11759649401E+02  0.31841949465E+02  0.00000000000E+00 0.  1.
<mgrwt>
<rscale>  2 0.29590884E+02</rscale>
<asrwt>0</asrwt>
<pdfrwt beam="1">  1       21 0.40371096E-02 0.29590884E+02</pdfrwt>
<pdfrwt beam="2">  1       21 0.54328320E-02 0.29590884E+02</pdfrwt>
<totfact> 0.67190630E+07</totfact>
</mgrwt>
</event>
<event>
 4    1  0.3862688E+004  0.3971777E+02  0.7546771E-02  0.1510299E+00
         21   -1    0    0  501  502  0.00000000000E+00  0.00000000000E+00  0.72668591795E+01  0.72668591795E+01  0.00000000000E+00 0. -1.
         21   -1    0    0  502  503 -0.00000000000E+00 -0.00000000000E+00 -0.22550734693E+03  0.22550734693E+03  0.00000000000E+00 0. -1.
          4    1    1    2  501    0 -0.38604926388E+02  0.93360042461E+01 -0.86623012541E+02  0.95294530895E+02  0.00000000000E+00 0.  1.
         -4    1    1    2    0  503  0.38604926388E+02 -0.93360042461E+01 -0.13161747520E+03  0.13747967521E+03  0.00000000000E+00 0. -1.
<mgrwt>
<rscale>  2 0.39717771E+02</rscale>
<asrwt>0</asrwt>
<pdfrwt beam="1">  1       21 0.11179784E-02 0.39717771E+02</pdfrwt>
<pdfrwt beam="2">  1       21 0.34693437E-01 0.39717771E+02</pdfrwt>
<totfact> 0.21375426E+07</totfact>
</mgrwt>
</event>
<event>
 4    1  0.3862688E+004  0.2769976E+02  0.7546771E-02  0.1625001E+00
         21   -1    0    0  503  502  0.00000000000E+00  0.00000000000E+00  0.17856512093E+03  0.17856512093E+03  0.00000000000E+00 0.  1.
         21   -1    0    0  501  503 -0.00000000000E+00 -0.00000000000E+00 -0.48915443652E+01  0.48915443652E+01  0.00000000000E+00 0.  1.
          1    1    1    2  501    0  0.26658921483E+02  0.75218627280E+01  0.11881904184E+03  0.12200508685E+03  0.00000000000E+00 0. -1.
         -1    1    1    2    0  502 -0.26658921483E+02 -0.75218627280E+01  0.54854534728E+02  0.61451578448E+02  0.00000000000E+00 0.  1.
<mgrwt>
<rscale>  2 0.27699757E+02</rscale>
<asrwt>0</asrwt>
<pdfrwt beam="1">  1       21 0.27471552E-01 0.27699757E+02</pdfrwt>
<pdfrwt beam="2">  1       21 0.75254542E-03 0.27699757E+02</pdfrwt>
<totfact> 0.56109801E+07</totfact>
</mgrwt>
</event>
<event>
 4    1  0.3862688E+004  0.2539208E+02  0.7546771E-02  0.1655433E+00
         21   -1    0    0  501  502  0.00000000000E+00  0.00000000000E+00  0.71986364573E+01  0.71986364573E+01  0.00000000000E+00 0. -1.
         21   -1    0    0  502  503 -0.00000000000E+00 -0.00000000000E+00 -0.89870946363E+02  0.89870946363E+02  0.00000000000E+00 0. -1.
          5    1    1    2  501    0  0.19116326386E+02 -0.16712977942E+02 -0.44160451618E+02  0.50940190943E+02  0.00000000000E+00 0. -1.
         -5    1    1    2    0  503 -0.19116326386E+02  0.16712977942E+02 -0.38511858288E+02  0.46129391877E+02  0.00000000000E+00 0.  1.
<mgrwt>
<rscale>  2 0.25392077E+02</rscale>
<asrwt>0</asrwt>
<pdfrwt beam="1">  1       21 0.11074825E-02 0.25392077E+02</pdfrwt>
<pdfrwt beam="2">  1       21 0.13826300E-01 0.25392077E+02</pdfrwt>
<totfact> 0.10230466E+08</totfact>
</mgrwt>
</event>
<event>
 4    1  0.3862688E+004  0.2398557E+02  0.7546771E-02  0.1676015E+00
         21   -1    0    0  501  502  0.00000000000E+00  0.00000000000E+00  0.58926871099E+02  0.58926871099E+02  0.00000000000E+00 0.  1.
         21   -1    0    0  502  503 -0.00000000000E+00 -0.00000000000E+00 -0.97642871153E+01  0.97642871153E+01  0.00000000000E+00 0.  1.
          4    1    1    2  501    0  0.10183711192E+02 -0.21716343669E+02  0.24198875326E+02  0.34071881706E+02  0.00000000000E+00 0. -1.
         -4    1    1    2    0  503 -0.10183711192E+02  0.21716343669E+02  0.24963708658E+02  0.34619276508E+02  0.00000000000E+00 0.  1.
<mgrwt>
<rscale>  2 0.23985570E+02</rscale>
<asrwt>0</asrwt>
<pdfrwt beam="1">  1       21 0.90656723E-02 0.23985570E+02</pdfrwt>
<pdfrwt beam="2">  1       21 0.15021981E-02 0.23985570E+02</pdfrwt>
<totfact> 0.12846488E+08</totfact>
</mgrwt>
</event>
<event>
 4    1  0.3862688E+004  0.2108728E+02  0.7546771E-02  0.1724532E+00
         21   -1    0    0  501  502  0.00000000000E+00  0.00000000000E+00  0.30037703195E+02  0.30037703195E+02  0.00000000000E+00 0. -1.
         21   -1    0    0  502  503 -0.00000000000E+00 -0.00000000000E+00 -0.14803996105E+02  0.14803996105E+02  0.00000000000E+00 0. -1.
          4    1    1    2  501    0 -0.21075285511E+02 -0.71104952434E+00  0.75432647761E+01  0.22395849934E+02  0.00000000000E+00 0. -1.
         -4    1    1    2    0  503  0.21075285511E+02  0.71104952434E+00  0.76904423136E+01  0.22445849366E+02  0.00000000000E+00 0.  1.
<mgrwt>
<rscale>  2 0.21087277E+02</rscale>
<asrwt>0</asrwt>
<pdfrwt beam="1">  1       21 0.46211851E-02 0.21087277E+02</pdfrwt>
<pdfrwt beam="2">  1       21 0.22775379E-02 0.21087277E+02</pdfrwt>
<totfact> 0.19365001E+08</totfact>
</mgrwt>
</event>
<event>
 4    1  0.3862688E+004  0.2203509E+02  0.7546771E-02  0.1707646E+00
         21   -1    0    0  501  502  0.00000000000E+00  0.00000000000E+00  0.11694419835E+02  0.11694419835E+02  0.00000000000E+00 0. -1.
         21   -1    0    0  502  503 -0.00000000000E+00 -0.00000000000E+00 -0.56285169782E+02  0.56285169782E+02  0.00000000000E+00 0. -1.
          5    1    1    2  501    0 -0.10330939737E+02  0.19463222362E+02 -0.39704604118E+02  0.45409260385E+02  0.00000000000E+00 0.  1.
         -5    1    1    2    0  503  0.10330939737E+02 -0.19463222362E+02 -0.48861458281E+01  0.22570329231E+02  0.00000000000E+00 0. -1.
<mgrwt>
<rscale>  2 0.22035093E+02</rscale>
<asrwt>0</asrwt>
<pdfrwt beam="1">  1       21 0.17991415E-02 0.22035093E+02</pdfrwt>
<pdfrwt beam="2">  1       21 0.86592570E-02 0.22035093E+02</pdfrwt>
<totfact> 0.10264542E+08</totfact>
</mgrwt>
</event>
<event>
 4    1  0.3862688E+004  0.4870445E+02  0.7546771E-02  0.1452457E+00
         21   -1    0    0  503  502  0.00000000000E+00  0.00000000000E+00  0.20339589360E+02  0.20339589360E+02  0.00000000000E+00 0.  1.
         21   -1    0    0  501  503 -0.00000000000E+00 -0.00000000000E+00 -0.13881867907E+03  0.13881867907E+03  0.00000000000E+00 0.  1.
          1    1    1    2  501    0  0.10194731736E+02 -0.47625532109E+02 -0.91058113897E+02  0.10326521181E+03  0.00000000000E+00 0.  1.
         -1    1    1    2    0  502 -0.10194731736E+02  0.47625532109E+02 -0.27420975815E+02  0.55893056621E+02  0.00000000000E+00 0. -1.
<mgrwt>
<rscale>  2 0.48704454E+02</rscale>
<asrwt>0</asrwt>
<pdfrwt beam="1">  1       21 0.31291677E-02 0.48704454E+02</pdfrwt>
<pdfrwt beam="2">  1       21 0.21356719E-01 0.48704454E+02</pdfrwt>
<totfact> 0.10752188E+07</totfact>
</mgrwt>
</event>
<event>
 4    1  0.3862688E+004  0.6788951E+02  0.7546771E-02  0.1367421E+00
         21   -1    0    0  503  502  0.00000000000E+00  0.00000000000E+00  0.98360202155E+03  0.98360202155E+03  0.00000000000E+00 0. -1.
         21   -1    0    0  501  503 -0.00000000000E+00 -0.00000000000E+00 -0.66762463339E+01  0.66762463339E+01  0.00000000000E+00 0. -1.
          5    1    1    2  501    0  0.67393497860E+02  0.81915781987E+01  0.21810829927E+03  0.22842989235E+03  0.00000000000E+00 0. -1.
         -5    1    1    2    0  502 -0.67393497860E+02 -0.81915781987E+01  0.75881747594E+03  0.76184837553E+03  0.00000000000E+00 0.  1.
<mgrwt>
<rscale>  2 0.67889510E+02</rscale>
<asrwt>0</asrwt>
<pdfrwt beam="1">  1       21 0.15132327E+00 0.67889510E+02</pdfrwt>
<pdfrwt beam="2">  1       21 0.10271156E-02 0.67889510E+02</pdfrwt>
<totfact> 0.10664349E+06</totfact>
</mgrwt>
</event>
<event>
 4    1  0.3862688E+004  0.2606143E+02  0.7546771E-02  0.1646208E+00
         21   -1    0    0  503  502  0.00000000000E+00  0.00000000000E+00  0.13664631072E+01  0.13664631072E+01  0.00000000000E+00 0. -1.
         21   -1    0    0  501  503 -0.00000000000E+00 -0.00000000000E+00 -0.50573738586E+03  0.50573738586E+03  0.00000000000E+00 0. -1.
          2    1    1    2  501    0  0.17388540287E+02  0.19412287922E+02 -0.28542000786E+03  0.28660736059E+03  0.00000000000E+00 0. -1.
         -2    1    1    2    0  502 -0.17388540287E+02 -0.19412287922E+02 -0.21895091489E+03  0.22049648838E+03  0.00000000000E+00 0.  1.
<mgrwt>
<rscale>  2 0.26061432E+02</rscale>
<asrwt>0</asrwt>
<pdfrwt beam="1">  1       21 0.21022519E-03 0.26061432E+02</pdfrwt>
<pdfrwt beam="2">  1       21 0.77805716E-01 0.26061432E+02</pdfrwt>
<totfact> 0.48068579E+07</totfact>
</mgrwt>
</event>
<event>
 4    1  0.3862688E+004  0.4793735E+02  0.7546771E-02  0.1456795E+00
         21   -1    0    0  501  502  0.00000000000E+00  0.00000000000E+00  0.25502957747E+03  0.25502957747E+03  0.00000000000E+00 0. -1.
         21   -1    0    0  502  503 -0.00000000000E+00 -0.00000000000E+00 -0.93304055282E+01  0.93304055282E+01  0.00000000000E+00 0. -1.
          5    1    1    2  501    0  0.42658367030E+02 -0.21869006814E+02  0.14731793046E+03  0.15492114888E+03  0.00000000000E+00 0. -1.
         -5    1    1    2    0  503 -0.42658367030E+02  0.21869006814E+02  0.98381241481E+02  0.10943883411E+03  0.00000000000E+00 0.  1.
<mgrwt>
<rscale>  2 0.47937352E+02</rscale>
<asrwt>0</asrwt>
<pdfrwt beam="1">  1       21 0.39235314E-01 0.47937352E+02</pdfrwt>
<pdfrwt beam="2">  1       21 0.14354472E-02 0.47937352E+02</pdfrwt>
<totfact> 0.11783572E+07</totfact>
</mgrwt>
</event>
<event>
 4    1  0.3862688E+004  0.2536124E+02  0.7546771E-02  0.1655867E+00
         21   -1    0    0  501  502  0.00000000000E+00  0.00000000000E+00  0.37331426422E+02  0.37331426422E+02  0.00000000000E+00 0.  1.
         21   -1    0    0  502  503 -0.00000000000E+00 -0.00000000000E+00 -0.17835807364E+02  0.17835807364E+02  0.00000000000E+00 0.  1.
          4    1    1    2  501    0 -0.17688028230E+02  0.18174871479E+02  0.46610346481E+01  0.25785995035E+02  0.00000000000E+00 0.  1.
         -4    1    1    2    0  503  0.17688028230E+02 -0.18174871479E+02  0.14834584411E+02  0.29381238751E+02  0.00000000000E+00 0. -1.
<mgrwt>
<rscale>  2 0.25361236E+02</rscale>
<asrwt>0</asrwt>
<pdfrwt beam="1">  1       21 0.57432964E-02 0.25361236E+02</pdfrwt>
<pdfrwt beam="2">  1       21 0.27439704E-02 0.25361236E+02</pdfrwt>
<totfact> 0.10846183E+08</totfact>
</mgrwt>
</event>
<event>
 4    1  0.3862688E+004  0.4663469E+02  0.7546771E-02  0.1464387E+00
         21   -1    0    0  501  502  0.00000000000E+00  0.00000000000E+00  0.11763702333E+04  0.11763702333E+04  0.00000000000E+00 0. -1.
         21   -1    0    0  502  503 -0.00000000000E+00 -0.00000000000E+00 -0.19772966719E+01  0.19772966719E+01  0.00000000000E+00 0. -1.
          2    1    1    2  501    0 -0.16162462884E+02  0.43744361513E+02  0.73742995948E+03  0.73890306503E+03  0.00000000000E+00 0.  1.
         -2    1    1    2    0  503  0.16162462884E+02 -0.43744361513E+02  0.43696297714E+03  0.43944446493E+03  0.00000000000E+00 0. -1.
<mgrwt>
<rscale>  2 0.46634691E+02</rscale>
<asrwt>0</asrwt>
<pdfrwt beam="1">  1       21 0.18097948E+00 0.46634691E+02</pdfrwt>
<pdfrwt beam="2">  1       21 0.30420043E-03 0.46634691E+02</pdfrwt>
<totfact> 0.42395936E+06</totfact>
</mgrwt>
</event>
<event>
 4    1  0.3862688E+004  0.2256335E+02  0.7546771E-02  0.1698687E+00
         21   -1    0    0  501  502  0.00000000000E+00  0.00000000000E+00  0.37578461190E+03  0.37578461190E+03  0.00000000000E+00 0. -1.
         21   -1    0    0  502  503 -0.00000000000E+00 -0.00000000000E+00 -0.13783497323E+01  0.13783497323E+01  0.00000000000E+00 0. -1.
          5    1    1    2  501    0 -0.18114325133E+02  0.13452736330E+02  0.16254211099E+03  0.16410070912E+03  0.00000000000E+00 0. -1.
         -5    1    1    2    0  503  0.18114325133E+02 -0.13452736330E+02  0.21186415118E+03  0.21306225251E+03  0.00000000000E+00 0.  1.
<mgrwt>
<rscale>  2 0.22563353E+02</rscale>
<asrwt>0</asrwt>
<pdfrwt beam="1">  1       21 0.57812936E-01 0.22563353E+02</pdfrwt>
<pdfrwt beam="2">  1       21 0.21205410E-03 0.22563353E+02</pdfrwt>
<totfact> 0.84200901E+07</totfact>
</mgrwt>
</event>
<event>
 4    1  0.3862688E+004  0.2207309E+02  0.7546771E-02  0.1706991E+00
         21   -1    0    0  501  502  0.00000000000E+00  0.00000000000E+00  0.29550578147E+03  0.29550578147E+03  0.00000000000E+00 0.  1.
         21   -1    0    0  502  503 -0.00000000000E+00 -0.00000000000E+00 -0.24351580274E+01  0.24351580274E+01  0.00000000000E+00 0.  1.
          4    1    1    2  501    0 -0.17155805623E+02 -0.13888833654E+02  0.61879889729E+02  0.65698874570E+02  0.00000000000E+00 0. -1.
         -4    1    1    2    0  503  0.17155805623E+02  0.13888833654E+02  0.23119073371E+03  0.23224206492E+03  0.00000000000E+00 0.  1.
<mgrwt>
<rscale>  2 0.22073091E+02</rscale>
<asrwt>0</asrwt>
<pdfrwt beam="1">  1       21 0.45462400E-01 0.22073091E+02</pdfrwt>
<pdfrwt beam="2">  1       21 0.37463993E-03 0.22073091E+02</pdfrwt>
<totfact> 0.58483347E+07</totfact>
</mgrwt>
</event>
<event>
 4    1  0.3862688E+004  0.2753758E+02  0.7546771E-02  0.1627019E+00
         21   -1    0    0  503  502  0.00000000000E+00  0.00000000000E+00  0.12727037583E+02  0.12727037583E+02  0.00000000000E+00 0. -1.
         21   -1    0    0  501  503 -0.00000000000E+00 -0.00000000000E+00 -0.62290930278E+02  0.62290930278E+02  0.00000000000E+00 0. -1.
          1    1    1    2  501    0 -0.25027133383E+02 -0.11487430607E+02 -0.16961702613E+02  0.32342198794E+02  0.00000000000E+00 0. -1.
         -1    1    1    2    0  502  0.25027133383E+02  0.11487430607E+02 -0.32602190082E+02  0.42675769067E+02  0.00000000000E+00 0.  1.
<mgrwt>
<rscale>  2 0.27537583E+02</rscale>
<asrwt>0</asrwt>
<pdfrwt beam="1">  1       21 0.19580059E-02 0.27537583E+02</pdfrwt>
<pdfrwt beam="2">  1       21 0.95832197E-02 0.27537583E+02</pdfrwt>
<totfact> 0.80985862E+07</totfact>
</mgrwt>
</event>
<event>
 4    1  0.3862688E+004  0.2525271E+02  0.7546771E-02  0.1657398E+00
         21   -1    0    0  501  502  0.00000000000E+00  0.00000000000E+00  0.12386847471E+02  0.12386847471E+02  0.00000000000E+00 0. -1.
         21   -1    0    0  502  503 -0.00000000000E+00 -0.00000000000E+00 -0.60123895294E+02  0.60123895294E+02  0.00000000000E+00 0. -1.
          1    1    1    2  501    0  0.23925666628E+02 -0.80784891500E+01 -0.10123242046E+02  0.27206240830E+02  0.00000000000E+00 0. -1.
         -1    1    1    2    0  503 -0.23925666628E+02  0.80784891500E+01 -0.37613805776E+02  0.45304501935E+02  0.00000000000E+00 0.  1.
<mgrwt>
<rscale>  2 0.25252713E+02</rscale>
<asrwt>0</asrwt>
<pdfrwt beam="1">  1       21 0.19056688E-02 0.25252713E+02</pdfrwt>
<pdfrwt beam="2">  1       21 0.92498301E-02 0.25252713E+02</pdfrwt>
<totfact> 0.87584816E+07</totfact>
</mgrwt>
</event>
<event>
 4    1  0.3862688E+004  0.2775531E+02  0.7546771E-02  0.1624314E+00
         21   -1    0    0  503  502  0.00000000000E+00  0.00000000000E+00  0.12952283993E+03  0.12952283993E+03  0.00000000000E+00 0.  1.
         21   -1    0    0  501  503 -0.00000000000E+00 -0.00000000000E+00 -0.60541711701E+01  0.60541711701E+01  0.00000000000E+00 0.  1.
          5    1    1    2  501    0 -0.27739363792E+02  0.94060057540E+00  0.70725967615E+02  0.75977098709E+02  0.00000000000E+00 0.  1.
         -5    1    1    2    0  502  0.27739363792E+02 -0.94060057540E+00  0.52742701144E+02  0.59599912391E+02  0.00000000000E+00 0. -1.
<mgrwt>
<rscale>  2 0.27755306E+02</rscale>
<asrwt>0</asrwt>
<pdfrwt beam="1">  1       21 0.19926589E-01 0.27755306E+02</pdfrwt>
<pdfrwt beam="2">  1       21 0.93141104E-03 0.27755306E+02</pdfrwt>
<totfact> 0.72265955E+07</totfact>
</mgrwt>
</event>
<event>
 4    1  0.3862688E+004  0.2650199E+02  0.7546771E-02  0.1640320E+00
         21   -1    0    0  501  502  0.00000000000E+00  0.00000000000E+00  0.87536251509E+02  0.87536251509E+02  0.00000000000E+00 0.  1.
         21   -1    0    0  502  503 -0.00000000000E+00 -0.00000000000E+00 -0.95673957317E+01  0.95673957317E+01  0.00000000000E+00 0.  1.
          2    1    1    2  501    0 -0.25905954291E+02 -0.55890274573E+01  0.19481317804E+02  0.32891905372E+02  0.00000000000E+00 0.  1.
         -2    1    1    2    0  503  0.25905954291E+02  0.55890274573E+01  0.58487537973E+02  0.64211741869E+02  0.00000000000E+00 0. -1.
<mgrwt>
<rscale>  2 0.26501994E+02</rscale>
<asrwt>0</asrwt>
<pdfrwt beam="1">  1       21 0.13467115E-01 0.26501994E+02</pdfrwt>
<pdfrwt beam="2">  1       21 0.14719071E-02 0.26501994E+02</pdfrwt>
<totfact> 0.70200848E+07</totfact>
</mgrwt>
</event>
<event>
 4    1  0.3862688E+004  0.2265929E+02  0.7546771E-02  0.1697093E+00
         21   -1    0    0  503  502  0.00000000000E+00  0.00000000000E+00  0.34594642469E+03  0.34594642469E+03  0.00000000000E+00 0. -1.
         21   -1    0    0  501  503 -0.00000000000E+00 -0.00000000000E+00 -0.15261655241E+01  0.15261655241E+01  0.00000000000E+00 0. -1.
          2    1    1    2  501    0 -0.49748198768E+01  0.22106433249E+02  0.14339023055E+03  0.14516956100E+03  0.00000000000E+00 0. -1.
         -2    1    1    2    0  502  0.49748198768E+01 -0.22106433249E+02  0.20103002862E+03  0.20230302922E+03  0.00000000000E+00 0.  1.
<mgrwt>
<rscale>  2 0.22659286E+02</rscale>
<asrwt>0</asrwt>
<pdfrwt beam="1">  1       21 0.53222464E-01 0.22659286E+02</pdfrwt>
<pdfrwt beam="2">  1       21 0.23479497E-03 0.22659286E+02</pdfrwt>
<totfact> 0.85636694E+07</totfact>
</mgrwt>
</event>
<event>
 4    1  0.3862688E+004  0.2816394E+02  0.7546771E-02  0.1619318E+00
         21   -1    0    0  503  502  0.00000000000E+00  0.00000000000E+00  0.15722002348E+03  0.15722002348E+03  0.00000000000E+00 0. -1.
         21   -1    0    0  501  503 -0.00000000000E+00 -0.00000000000E+00 -0.52585921451E+01  0.52585921451E+01  0.00000000000E+00 0. -1.
          2    1    1    2  501    0  0.28054183290E+02  0.24839608655E+01  0.92345696917E+02  0.96544989516E+02  0.00000000000E+00 0.  1.
         -2    1    1    2    0  502 -0.28054183290E+02 -0.24839608655E+01  0.59615734418E+02  0.65933626109E+02  0.00000000000E+00 0. -1.
<mgrwt>
<rscale>  2 0.28163935E+02</rscale>
<asrwt>0</asrwt>
<pdfrwt beam="1">  1       21 0.24187692E-01 0.28163935E+02</pdfrwt>
<pdfrwt beam="2">  1       21 0.80901430E-03 0.28163935E+02</pdfrwt>
<totfact> 0.63563396E+07</totfact>
</mgrwt>
</event>
<event>
 4    1  0.3862688E+004  0.4210341E+02  0.7546771E-02  0.1493279E+00
         21   -1    0    0  501  502  0.00000000000E+00  0.00000000000E+00  0.16061696163E+01  0.16061696163E+01  0.00000000000E+00 0.  1.
         21   -1    0    0  502  503 -0.00000000000E+00 -0.00000000000E+00 -0.11436880139E+04  0.11436880139E+04  0.00000000000E+00 0.  1.
          5    1    1    2  501    0 -0.56164722918E+01  0.41727120070E+02 -0.67814516509E+03  0.67945092703E+03  0.00000000000E+00 0.  1.
         -5    1    1    2    0  503  0.56164722918E+01 -0.41727120070E+02 -0.46393667922E+03  0.46584325651E+03  0.00000000000E+00 0. -1.
<mgrwt>
<rscale>  2 0.42103412E+02</rscale>
<asrwt>0</asrwt>
<pdfrwt beam="1">  1       21 0.24710360E-03 0.42103412E+02</pdfrwt>
<pdfrwt beam="2">  1       21 0.17595159E+00 0.42103412E+02</pdfrwt>
<totfact> 0.61739736E+06</totfact>
</mgrwt>
</event>
<event>
 4    1  0.3862688E+004  0.2142004E+02  0.7546771E-02  0.1718479E+00
         21   -1    0    0  503  502  0.00000000000E+00  0.00000000000E+00  0.47934474466E+00  0.47934474466E+00  0.00000000000E+00 0.  1.
         21   -1    0    0  501  503 -0.00000000000E+00 -0.00000000000E+00 -0.95926753397E+03  0.95926753397E+03  0.00000000000E+00 0.  1.
          1    1    1    2  501    0 -0.19539873557E+02  0.87756241291E+01 -0.50179073980E+03  0.50224771257E+03  0.00000000000E+00 0.  1.
         -1    1    1    2    0  502  0.19539873557E+02 -0.87756241291E+01 -0.45699744943E+03  0.45749916615E+03  0.00000000000E+00 0. -1.
<mgrwt>
<rscale>  2 0.21420043E+02</rscale>
<asrwt>0</asrwt>
<pdfrwt beam="1">  1       21 0.73744892E-04 0.21420043E+02</pdfrwt>
<pdfrwt beam="2">  1       21 0.14758053E+00 0.21420043E+02</pdfrwt>
<totfact> 0.49861304E+07</totfact>
</mgrwt>
</event>
<event>
 4    1  0.3862688E+004  0.2281931E+02  0.7546771E-02  0.1694456E+00
         21   -1    0    0  503  502  0.00000000000E+00  0.00000000000E+00  0.50890285387E+02  0.50890285387E+02  0.00000000000E+00 0.  1.
         21   -1    0    0  501  503 -0.00000000000E+00 -0.00000000000E+00 -0.13495579101E+02  0.13495579101E+02  0.00000000000E+00 0.  1.
          1    1    1    2  501    0 -0.12267082426E+02  0.19241615514E+02  0.34527923955E+02  0.41387179313E+02  0.00000000000E+00 0. -1.
         -1    1    1    2    0  502  0.12267082426E+02 -0.19241615514E+02  0.28667823311E+01  0.22998685175E+02  0.00000000000E+00 0.  1.
<mgrwt>
<rscale>  2 0.22819314E+02</rscale>
<asrwt>0</asrwt>
<pdfrwt beam="1">  1       21 0.78292746E-02 0.22819314E+02</pdfrwt>
<pdfrwt beam="2">  1       21 0.20762430E-02 0.22819314E+02</pdfrwt>
<totfact> 0.98152659E+07</totfact>
</mgrwt>
</event>
<event>
 4    1  0.3862688E+004  0.2120591E+02  0.7546771E-02  0.1722359E+00
         21   -1    0    0  503  502  0.00000000000E+00  0.00000000000E+00  0.87672488140E+03  0.87672488140E+03  0.00000000000E+00 0. -1.
         21   -1    0    0  501  503 -0.00000000000E+00 -0.00000000000E+00 -0.51292365610E+00  0.51292365610E+00  0.00000000000E+00 0. -1.
          2    1    1    2  501    0  0.10919504289E+02 -0.18178425442E+02  0.43713448704E+03  0.43764854676E+03  0.00000000000E+00 0. -1.
         -2    1    1    2    0  502 -0.10919504289E+02  0.18178425442E+02  0.43907747071E+03  0.43958925830E+03  0.00000000000E+00 0.  1.
<mgrwt>
<rscale>  2 0.21205913E+02</rscale>
<asrwt>0</asrwt>
<pdfrwt beam="1">  1       21 0.13487955E+00 0.21205913E+02</pdfrwt>
<pdfrwt beam="2">  1       21 0.78912033E-04 0.21205913E+02</pdfrwt>
<totfact> 0.55758487E+07</totfact>
</mgrwt>
</event>
<event>
 4    1  0.3862688E+004  0.2427711E+02  0.7546771E-02  0.1671607E+00
         21   -1    0    0  503  502  0.00000000000E+00  0.00000000000E+00  0.83062431088E+02  0.83062431088E+02  0.00000000000E+00 0.  1.
         21   -1    0    0  501  503 -0.00000000000E+00 -0.00000000000E+00 -0.75133453056E+01  0.75133453056E+01  0.00000000000E+00 0.  1.
          3    1    1    2  501    0 -0.13741176786E+01 -0.24238188724E+02  0.27095805775E+02  0.36380773529E+02  0.00000000000E+00 0. -1.
         -3    1    1    2    0  502  0.13741176786E+01  0.24238188724E+02  0.48453280007E+02  0.54195002864E+02  0.00000000000E+00 0.  1.
<mgrwt>
<rscale>  2 0.24277108E+02</rscale>
<asrwt>0</asrwt>
<pdfrwt beam="1">  1       21 0.12778835E-01 0.24277108E+02</pdfrwt>
<pdfrwt beam="2">  1       21 0.11558993E-02 0.24277108E+02</pdfrwt>
<totfact> 0.10828051E+08</totfact>
</mgrwt>
</event>
<event>
 4    1  0.3862688E+004  0.2104829E+02  0.7546771E-02  0.1725251E+00
         21   -1    0    0  503  502  0.00000000000E+00  0.00000000000E+00  0.65555768801E+02  0.65555768801E+02  0.00000000000E+00 0. -1.
         21   -1    0    0  501  503 -0.00000000000E+00 -0.00000000000E+00 -0.67729622194E+01  0.67729622194E+01  0.00000000000E+00 0. -1.
          2    1    1    2  501    0 -0.18347830167E+02 -0.10314430489E+02  0.31087299744E+02  0.37542649794E+02  0.00000000000E+00 0. -1.
         -2    1    1    2    0  502  0.18347830167E+02  0.10314430489E+02  0.27695506837E+02  0.34786081227E+02  0.00000000000E+00 0.  1.
<mgrwt>
<rscale>  2 0.21048286E+02</rscale>
<asrwt>0</asrwt>
<pdfrwt beam="1">  1       21 0.10085502E-01 0.21048286E+02</pdfrwt>
<pdfrwt beam="2">  1       21 0.10419942E-02 0.21048286E+02</pdfrwt>
<totfact> 0.18001363E+08</totfact>
</mgrwt>
</event>
<event>
 4    1  0.3862688E+004  0.4009913E+02  0.7546771E-02  0.1507483E+00
         21   -1    0    0  501  502  0.00000000000E+00  0.00000000000E+00  0.26150891282E+02  0.26150891282E+02  0.00000000000E+00 0.  1.
         21   -1    0    0  502  503 -0.00000000000E+00 -0.00000000000E+00 -0.65287226497E+02  0.65287226497E+02  0.00000000000E+00 0.  1.
          4    1    1    2  501    0 -0.40080909126E+02 -0.12086277802E+01 -0.30598471171E+02  0.50440127830E+02  0.00000000000E+00 0. -1.
         -4    1    1    2    0  503  0.40080909126E+02  0.12086277802E+01 -0.85378640445E+01  0.40997989950E+02  0.00000000000E+00 0.  1.
<mgrwt>
<rscale>  2 0.40099128E+02</rscale>
<asrwt>0</asrwt>
<pdfrwt beam="1">  1       21 0.40232141E-02 0.40099128E+02</pdfrwt>
<pdfrwt beam="2">  1       21 0.10044189E-01 0.40099128E+02</pdfrwt>
<totfact> 0.26041238E+07</totfact>
</mgrwt>
</event>
<event>
 4    1  0.3862688E+004  0.2425960E+02  0.7546771E-02  0.1671870E+00
         21   -1    0    0  501  502  0.00000000000E+00  0.00000000000E+00  0.28041210351E+02  0.28041210351E+02  0.00000000000E+00 0. -1.
         21   -1    0    0  502  503 -0.00000000000E+00 -0.00000000000E+00 -0.21070619406E+02  0.21070619406E+02  0.00000000000E+00 0. -1.
          2    1    1    2  501    0  0.16414676211E+02 -0.17862996871E+02  0.19474194025E+01  0.24337639464E+02  0.00000000000E+00 0. -1.
         -2    1    1    2    0  503 -0.16414676211E+02  0.17862996871E+02  0.50231715424E+01  0.24774190294E+02  0.00000000000E+00 0.  1.
<mgrwt>
<rscale>  2 0.24259601E+02</rscale>
<asrwt>0</asrwt>
<pdfrwt beam="1">  1       21 0.43140324E-02 0.24259601E+02</pdfrwt>
<pdfrwt beam="2">  1       21 0.32416338E-02 0.24259601E+02</pdfrwt>
<totfact> 0.13042071E+08</totfact>
</mgrwt>
</event>
<event>
 4    1  0.3862688E+004  0.2048054E+02  0.7546771E-02  0.1735937E+00
         21   -1    0    0  503  502  0.00000000000E+00  0.00000000000E+00  0.34234974735E+03  0.34234974735E+03  0.00000000000E+00 0. -1.
         21   -1    0    0  501  503 -0.00000000000E+00 -0.00000000000E+00 -0.13179193974E+01  0.13179193974E+01  0.00000000000E+00 0. -1.
          4    1    1    2  501    0  0.20471277534E+02  0.61600865463E+00  0.21608917922E+03  0.21705756390E+03  0.00000000000E+00 0. -1.
         -4    1    1    2    0  502 -0.20471277534E+02 -0.61600865463E+00  0.12494264874E+03  0.12661010285E+03  0.00000000000E+00 0.  1.
<mgrwt>
<rscale>  2 0.20480544E+02</rscale>
<asrwt>0</asrwt>
<pdfrwt beam="1">  1       21 0.52669121E-01 0.20480544E+02</pdfrwt>
<pdfrwt beam="2">  1       21 0.20275710E-03 0.20480544E+02</pdfrwt>
<totfact> 0.10518649E+08</totfact>
</mgrwt>
</event>
<event>
 4    1  0.3862688E+004  0.2225183E+02  0.7546771E-02  0.1703933E+00
         21   -1    0    0  503  502  0.00000000000E+00  0.00000000000E+00  0.67064295445E+01  0.67064295445E+01  0.00000000000E+00 0. -1.
         21   -1    0    0  501  503 -0.00000000000E+00 -0.00000000000E+00 -0.83041299400E+02  0.83041299400E+02  0.00000000000E+00 0. -1.
          1    1    1    2  501    0  0.22247902790E+02  0.41792487791E+00 -0.23223044153E+02  0.32162923056E+02  0.00000000000E+00 0.  1.
         -1    1    1    2    0  502 -0.22247902790E+02 -0.41792487791E+00 -0.53111825702E+02  0.57584805888E+02  0.00000000000E+00 0. -1.
<mgrwt>
<rscale>  2 0.22251828E+02</rscale>
<asrwt>0</asrwt>
<pdfrwt beam="1">  1       21 0.10317584E-02 0.22251828E+02</pdfrwt>
<pdfrwt beam="2">  1       21 0.12775585E-01 0.22251828E+02</pdfrwt>
<totfact> 0.12536911E+08</totfact>
</mgrwt>
</event>
<event>
 4    1  0.3862688E+004  0.2978161E+02  0.7546771E-02  0.1600515E+00
         21   -1    0    0  503  502  0.00000000000E+00  0.00000000000E+00  0.83119718361E+01  0.83119718361E+01  0.00000000000E+00 0. -1.
         21   -1    0    0  501  503 -0.00000000000E+00 -0.00000000000E+00 -0.12898359709E+03  0.12898359709E+03  0.00000000000E+00 0. -1.
          3    1    1    2  501    0 -0.13468230180E+02  0.26562216280E+02 -0.31806920601E+02  0.43573211450E+02  0.00000000000E+00 0.  1.
         -3    1    1    2    0  502  0.13468230180E+02 -0.26562216280E+02 -0.88864704653E+02  0.93722357477E+02  0.00000000000E+00 0. -1.
<mgrwt>
<rscale>  2 0.29781614E+02</rscale>
<asrwt>0</asrwt>
<pdfrwt beam="1">  1       21 0.12787649E-02 0.29781614E+02</pdfrwt>
<pdfrwt beam="2">  1       21 0.19843630E-01 0.29781614E+02</pdfrwt>
<totfact> 0.45735042E+07</totfact>
</mgrwt>
</event>
<event>
 4    1  0.3862688E+004  0.2317008E+02  0.7546771E-02  0.1688768E+00
         21   -1    0    0  501  502  0.00000000000E+00  0.00000000000E+00  0.34128312605E+01  0.34128312605E+01  0.00000000000E+00 0.  1.
         21   -1    0    0  502  503 -0.00000000000E+00 -0.00000000000E+00 -0.18895343998E+03  0.18895343998E+03  0.00000000000E+00 0.  1.
          4    1    1    2  501    0  0.22814009528E+02 -0.40464216360E+01 -0.53405922273E+02  0.58215505603E+02  0.00000000000E+00 0. -1.
         -4    1    1    2    0  503 -0.22814009528E+02  0.40464216360E+01 -0.13213468645E+03  0.13415076564E+03  0.00000000000E+00 0.  1.
<mgrwt>
<rscale>  2 0.23170079E+02</rscale>
<asrwt>0</asrwt>
<pdfrwt beam="1">  1       21 0.52505100E-03 0.23170079E+02</pdfrwt>
<pdfrwt beam="2">  1       21 0.29069758E-01 0.23170079E+02</pdfrwt>
<totfact> 0.82866643E+07</totfact>
</mgrwt>
</event>
<event>
 4    1  0.3862688E+004  0.2150911E+02  0.7546771E-02  0.1716883E+00
         21   -1    0    0  501  502  0.00000000000E+00  0.00000000000E+00  0.67427232534E+01  0.67427232534E+01  0.00000000000E+00 0. -1.
         21   -1    0    0  502  503 -0.00000000000E+00 -0.00000000000E+00 -0.68620246789E+02  0.68620246789E+02  0.00000000000E+00 0. -1.
          1    1    1    2  501    0 -0.20475707365E+02 -0.65868818013E+01 -0.30564148163E+02  0.37373904758E+02  0.00000000000E+00 0.  1.
         -1    1    1    2    0  503  0.20475707365E+02  0.65868818013E+01 -0.31313375373E+02  0.37989065284E+02  0.00000000000E+00 0. -1.
<mgrwt>
<rscale>  2 0.21509105E+02</rscale>
<asrwt>0</asrwt>
<pdfrwt beam="1">  1       21 0.10373419E-02 0.21509105E+02</pdfrwt>
<pdfrwt beam="2">  1       21 0.10556962E-01 0.21509105E+02</pdfrwt>
<totfact> 0.16918237E+08</totfact>
</mgrwt>
</event>
<event>
 4    1  0.3862688E+004  0.2517132E+02  0.7546771E-02  0.1658553E+00
         21   -1    0    0  503  502  0.00000000000E+00  0.00000000000E+00  0.46757120350E+02  0.46757120350E+02  0.00000000000E+00 0.  1.
         21   -1    0    0  501  503 -0.00000000000E+00 -0.00000000000E+00 -0.13682290774E+02  0.13682290774E+02  0.00000000000E+00 0.  1.
          1    1    1    2  501    0 -0.27600604061E+01 -0.25019538274E+02  0.13574635214E+02  0.28598355723E+02  0.00000000000E+00 0. -1.
         -1    1    1    2    0  502  0.27600604061E+01  0.25019538274E+02  0.19500194362E+02  0.31841055401E+02  0.00000000000E+00 0.  1.
<mgrwt>
<rscale>  2 0.25171318E+02</rscale>
<asrwt>0</asrwt>
<pdfrwt beam="1">  1       21 0.71934031E-02 0.25171318E+02</pdfrwt>
<pdfrwt beam="2">  1       21 0.21049678E-02 0.25171318E+02</pdfrwt>
<totfact> 0.11339884E+08</totfact>
</mgrwt>
</event>
<event>
 4    1  0.3862688E+004  0.2366934E+02  0.7546771E-02  0.1680884E+00
         21   -1    0    0  503  502  0.00000000000E+00  0.00000000000E+00  0.46811362071E+01  0.46811362071E+01  0.00000000000E+00 0. -1.
         21   -1    0    0  501  503 -0.00000000000E+00 -0.00000000000E+00 -0.13817695190E+03  0.13817695190E+03  0.00000000000E+00 0. -1.
          4    1    1    2  501    0 -0.16551615499E+02  0.16919866419E+02 -0.40613754408E+02  0.47007604729E+02  0.00000000000E+00 0. -1.
         -4    1    1    2    0  502  0.16551615499E+02 -0.16919866419E+02 -0.92882061287E+02  0.95850483380E+02  0.00000000000E+00 0.  1.
<mgrwt>
<rscale>  2 0.23669344E+02</rscale>
<asrwt>0</asrwt>
<pdfrwt beam="1">  1       21 0.72017481E-03 0.23669344E+02</pdfrwt>
<pdfrwt beam="2">  1       21 0.21257992E-01 0.23669344E+02</pdfrwt>
<totfact> 0.91143395E+07</totfact>
</mgrwt>
</event>
<event>
 4    1  0.3862688E+004  0.6108285E+02  0.7546771E-02  0.1393343E+00
         21   -1    0    0  501  502  0.00000000000E+00  0.00000000000E+00  0.45857297559E+01  0.45857297559E+01  0.00000000000E+00 0.  1.
         21   -1    0    0  502  503 -0.00000000000E+00 -0.00000000000E+00 -0.11578387567E+04  0.11578387567E+04  0.00000000000E+00 0.  1.
          2    1    1    2  501    0  0.17108493168E+02  0.58637992832E+02 -0.89352334359E+03  0.89560877635E+03  0.00000000000E+00 0. -1.
         -2    1    1    2    0  503 -0.17108493168E+02 -0.58637992832E+02 -0.25972968335E+03  0.26681571010E+03  0.00000000000E+00 0.  1.
<mgrwt>
<rscale>  2 0.61082851E+02</rscale>
<asrwt>0</asrwt>
<pdfrwt beam="1">  1       21 0.70549743E-03 0.61082851E+02</pdfrwt>
<pdfrwt beam="2">  1       21 0.17812890E+00 0.61082851E+02</pdfrwt>
<totfact> 0.12488330E+06</totfact>
</mgrwt>
</event>
<event>
 4    1  0.3862688E+004  0.2956674E+02  0.7546771E-02  0.1602928E+00
         21   -1    0    0  501  502  0.00000000000E+00  0.00000000000E+00  0.28238211188E+02  0.28238211188E+02  0.00000000000E+00 0.  1.
         21   -1    0    0  502  503 -0.00000000000E+00 -0.00000000000E+00 -0.32936013516E+02  0.32936013516E+02  0.00000000000E+00 0.  1.
          4    1    1    2  501    0 -0.33118291549E+01 -0.29380672040E+02  0.51473240376E+01  0.30011448592E+02  0.00000000000E+00 0.  1.
         -4    1    1    2    0  503  0.33118291549E+01  0.29380672040E+02 -0.98451263656E+01  0.31162776112E+02  0.00000000000E+00 0. -1.
<mgrwt>
<rscale>  2 0.29566740E+02</rscale>
<asrwt>0</asrwt>
<pdfrwt beam="1">  1       21 0.43443402E-02 0.29566740E+02</pdfrwt>
<pdfrwt beam="2">  1       21 0.50670790E-02 0.29566740E+02</pdfrwt>
<totfact> 0.66867776E+07</totfact>
</mgrwt>
</event>
<event>
 4    1  0.3862688E+004  0.7002584E+02  0.7546771E-02  0.1360005E+00
         21   -1    0    0  501  502  0.00000000000E+00  0.00000000000E+00  0.99426313345E+01  0.99426313345E+01  0.00000000000E+00 0.  1.
         21   -1    0    0  502  503 -0.00000000000E+00 -0.00000000000E+00 -0.51352955444E+03  0.51352955444E+03  0.00000000000E+00 0.  1.
          4    1    1    2  501    0 -0.20369171794E+02  0.66997873030E+02 -0.30388161215E+03  0.31184555849E+03  0.00000000000E+00 0.  1.
         -4    1    1    2    0  503  0.20369171794E+02 -0.66997873030E+02 -0.19970531096E+03  0.21162662729E+03  0.00000000000E+00 0. -1.
<mgrwt>
<rscale>  2 0.70025839E+02</rscale>
<asrwt>0</asrwt>
<pdfrwt beam="1">  1       21 0.15296351E-02 0.70025839E+02</pdfrwt>
<pdfrwt beam="2">  1       21 0.79004574E-01 0.70025839E+02</pdfrwt>
<totfact> 0.26193053E+06</totfact>
</mgrwt>
</event>
<event>
 4    1  0.3862688E+004  0.3162900E+02  0.7546771E-02  0.1580750E+00
         21   -1    0    0  503  502  0.00000000000E+00  0.00000000000E+00  0.36655132984E+01  0.36655132984E+01  0.00000000000E+00 0.  1.
         21   -1    0    0  501  503 -0.00000000000E+00 -0.00000000000E+00 -0.30653088112E+03  0.30653088112E+03  0.00000000000E+00 0.  1.
          5    1    1    2  501    0  0.31586332658E+02  0.16424000616E+01 -0.20279044208E+03  0.20524219178E+03  0.00000000000E+00 0. -1.
         -5    1    1    2    0  502 -0.31586332658E+02 -0.16424000616E+01 -0.10007492574E+03  0.10495420264E+03  0.00000000000E+00 0.  1.
<mgrwt>
<rscale>  2 0.31629004E+02</rscale>
<asrwt>0</asrwt>
<pdfrwt beam="1">  1       21 0.56392530E-03 0.31629004E+02</pdfrwt>
<pdfrwt beam="2">  1       21 0.47158583E-01 0.31629004E+02</pdfrwt>
<totfact> 0.32144665E+07</totfact>
</mgrwt>
</event>
<event>
 4    1  0.3862688E+004  0.2305942E+02  0.7546771E-02  0.1690549E+00
         21   -1    0    0  503  502  0.00000000000E+00  0.00000000000E+00  0.21405667147E+02  0.21405667147E+02  0.00000000000E+00 0.  1.
         21   -1    0    0  501  503 -0.00000000000E+00 -0.00000000000E+00 -0.25177036158E+02  0.25177036158E+02  0.00000000000E+00 0.  1.
          4    1    1    2  501    0 -0.21965213842E+02  0.70189974733E+01  0.80537073438E+00  0.23073481893E+02  0.00000000000E+00 0. -1.
         -4    1    1    2    0  502  0.21965213842E+02 -0.70189974733E+01 -0.45767397453E+01  0.23509221411E+02  0.00000000000E+00 0.  1.
<mgrwt>
<rscale>  2 0.23059422E+02</rscale>
<asrwt>0</asrwt>
<pdfrwt beam="1">  1       21 0.32931796E-02 0.23059422E+02</pdfrwt>
<pdfrwt beam="2">  1       21 0.38733902E-02 0.23059422E+02</pdfrwt>
<totfact> 0.14855866E+08</totfact>
</mgrwt>
</event>
<event>
 4    1  0.3862688E+004  0.2062582E+02  0.7546771E-02  0.1733162E+00
         21   -1    0    0  501  502  0.00000000000E+00  0.00000000000E+00  0.48483782378E+01  0.48483782378E+01  0.00000000000E+00 0.  1.
         21   -1    0    0  502  503 -0.00000000000E+00 -0.00000000000E+00 -0.89555411563E+02  0.89555411563E+02  0.00000000000E+00 0.  1.
          3    1    1    2  501    0  0.12160382063E+02 -0.16659820672E+02 -0.49063383187E+02  0.53222552424E+02  0.00000000000E+00 0. -1.
         -3    1    1    2    0  503 -0.12160382063E+02  0.16659820672E+02 -0.35643650138E+02  0.41181237377E+02  0.00000000000E+00 0.  1.
<mgrwt>
<rscale>  2 0.20625822E+02</rscale>
<asrwt>0</asrwt>
<pdfrwt beam="1">  1       21 0.74590440E-03 0.20625822E+02</pdfrwt>
<pdfrwt beam="2">  1       21 0.13777755E-01 0.20625822E+02</pdfrwt>
<totfact> 0.17516245E+08</totfact>
</mgrwt>
</event>
<event>
 4    1  0.3862688E+004  0.2116080E+02  0.7546771E-02  0.1723183E+00
         21   -1    0    0  501  502  0.00000000000E+00  0.00000000000E+00  0.12184370981E+03  0.12184370981E+03  0.00000000000E+00 0. -1.
         21   -1    0    0  502  503 -0.00000000000E+00 -0.00000000000E+00 -0.36754916449E+01  0.36754916449E+01  0.00000000000E+00 0. -1.
          4    1    1    2  501    0  0.21139236099E+02 -0.95512682495E+00  0.58382511770E+02  0.62099092189E+02  0.00000000000E+00 0.  1.
         -4    1    1    2    0  503 -0.21139236099E+02  0.95512682495E+00  0.59785706391E+02  0.63420109261E+02  0.00000000000E+00 0. -1.
<mgrwt>
<rscale>  2 0.21160803E+02</rscale>
<asrwt>0</asrwt>
<pdfrwt beam="1">  1       21 0.18745183E-01 0.21160803E+02</pdfrwt>
<pdfrwt beam="2">  1       21 0.56546035E-03 0.21160803E+02</pdfrwt>
<totfact> 0.15732573E+08</totfact>
</mgrwt>
</event>
<event>
 4    1  0.3862688E+004  0.2309255E+02  0.7546771E-02  0.1690014E+00
         21   -1    0    0  501  502  0.00000000000E+00  0.00000000000E+00  0.88083217825E+03  0.88083217825E+03  0.00000000000E+00 0. -1.
         21   -1    0    0  502  503 -0.00000000000E+00 -0.00000000000E+00 -0.65688089353E+00  0.65688089353E+00  0.00000000000E+00 0. -1.
          2    1    1    2  501    0  0.60021036925E+01 -0.22298891686E+02  0.31671506118E+03  0.31755581525E+03  0.00000000000E+00 0.  1.
         -2    1    1    2    0  503 -0.60021036925E+01  0.22298891686E+02  0.56346023618E+03  0.56393324389E+03  0.00000000000E+00 0. -1.
<mgrwt>
<rscale>  2 0.23092549E+02</rscale>
<asrwt>0</asrwt>
<pdfrwt beam="1">  1       21 0.13551170E+00 0.23092549E+02</pdfrwt>
<pdfrwt beam="2">  1       21 0.10105930E-03 0.23092549E+02</pdfrwt>
<totfact> 0.39526340E+07</totfact>
</mgrwt>
</event>
<event>
 4    1  0.3862688E+004  0.3078437E+02  0.7546771E-02  0.1589577E+00
         21   -1    0    0  503  502  0.00000000000E+00  0.00000000000E+00  0.50468388153E+01  0.50468388153E+01  0.00000000000E+00 0.  1.
         21   -1    0    0  501  503 -0.00000000000E+00 -0.00000000000E+00 -0.20238793957E+03  0.20238793957E+03  0.00000000000E+00 0.  1.
          5    1    1    2  501    0 -0.24755200482E+02  0.18299106813E+02 -0.12653863637E+03  0.13022942737E+03  0.00000000000E+00 0. -1.
         -5    1    1    2    0  502  0.24755200482E+02 -0.18299106813E+02 -0.70802464388E+02  0.77205351010E+02  0.00000000000E+00 0.  1.
<mgrwt>
<rscale>  2 0.30784367E+02</rscale>
<asrwt>0</asrwt>
<pdfrwt beam="1">  1       21 0.77643667E-03 0.30784367E+02</pdfrwt>
<pdfrwt beam="2">  1       21 0.31136609E-01 0.30784367E+02</pdfrwt>
<totfact> 0.43530785E+07</totfact>
</mgrwt>
</event>
<event>
 4    1  0.3862688E+004  0.3329990E+02  0.7546771E-02  0.1564238E+00
         21   -1    0    0  501  502  0.00000000000E+00  0.00000000000E+00  0.13683616080E+03  0.13683616080E+03  0.00000000000E+00 0. -1.
         21   -1    0    0  502  503 -0.00000000000E+00 -0.00000000000E+00 -0.19958593652E+02  0.19958593652E+02  0.00000000000E+00 0. -1.
          4    1    1    2  501    0  0.33235706999E+02 -0.20666140456E+01 -0.19817939883E+01  0.33358816237E+02  0.00000000000E+00 0.  1.
         -4    1    1    2    0  503 -0.33235706999E+02  0.20666140456E+01  0.11885936113E+03  0.12343593821E+03  0.00000000000E+00 0. -1.
<mgrwt>
<rscale>  2 0.33299897E+02</rscale>
<asrwt>0</asrwt>
<pdfrwt beam="1">  1       21 0.21051716E-01 0.33299897E+02</pdfrwt>
<pdfrwt beam="2">  1       21 0.30705530E-02 0.33299897E+02</pdfrwt>
<totfact> 0.10796177E+07</totfact>
</mgrwt>
</event>
<event>
 4    1  0.3862688E+004  0.2284093E+02  0.7546771E-02  0.1694102E+00
         21   -1    0    0  503  502  0.00000000000E+00  0.00000000000E+00  0.38886397905E+02  0.38886397905E+02  0.00000000000E+00 0. -1.
         21   -1    0    0  501  503 -0.00000000000E+00 -0.00000000000E+00 -0.13476567820E+02  0.13476567820E+02  0.00000000000E+00 0. -1.
          4    1    1    2  501    0 -0.22214523660E+02 -0.53125483944E+01  0.14457008825E+02  0.27031709825E+02  0.00000000000E+00 0.  1.
         -4    1    1    2    0  502  0.22214523660E+02  0.53125483944E+01  0.10952821259E+02  0.25331255899E+02  0.00000000000E+00 0. -1.
<mgrwt>
<rscale>  2 0.22840933E+02</rscale>
<asrwt>0</asrwt>
<pdfrwt beam="1">  1       21 0.59825227E-02 0.22840933E+02</pdfrwt>
<pdfrwt beam="2">  1       21 0.20733181E-02 0.22840933E+02</pdfrwt>
<totfact> 0.15202317E+08</totfact>
</mgrwt>
</event>
<event>
 4    1  0.3862688E+004  0.2348101E+02  0.7546771E-02  0.1683830E+00
         21   -1    0    0  501  502  0.00000000000E+00  0.00000000000E+00  0.32726247135E+03  0.32726247135E+03  0.00000000000E+00 0.  1.
         21   -1    0    0  502  503 -0.00000000000E+00 -0.00000000000E+00 -0.17125884377E+01  0.17125884377E+01  0.00000000000E+00 0.  1.
          5    1    1    2  501    0  0.10202590116E+02 -0.21148645460E+02  0.18374341880E+03  0.18523769055E+03  0.00000000000E+00 0. -1.
         -5    1    1    2    0  503 -0.10202590116E+02  0.21148645460E+02  0.14180646412E+03  0.14373736924E+03  0.00000000000E+00 0.  1.
<mgrwt>
<rscale>  2 0.23481015E+02</rscale>
<asrwt>0</asrwt>
<pdfrwt beam="1">  1       21 0.50348023E-01 0.23481015E+02</pdfrwt>
<pdfrwt beam="2">  1       21 0.26347541E-03 0.23481015E+02</pdfrwt>
<totfact> 0.81478568E+07</totfact>
</mgrwt>
</event>
<event>
 4    1  0.3862688E+004  0.2512844E+02  0.7546771E-02  0.1659164E+00
         21   -1    0    0  503  502  0.00000000000E+00  0.00000000000E+00  0.19248663676E+02  0.19248663676E+02  0.00000000000E+00 0. -1.
         21   -1    0    0  501  503 -0.00000000000E+00 -0.00000000000E+00 -0.58737942282E+02  0.58737942282E+02  0.00000000000E+00 0. -1.
          3    1    1    2  501    0  0.88422821441E+01 -0.23521319292E+02  0.61650762828E+01  0.25873665769E+02  0.00000000000E+00 0.  1.
         -3    1    1    2    0  502 -0.88422821441E+01  0.23521319292E+02 -0.45654354889E+02  0.52112940188E+02  0.00000000000E+00 0. -1.
<mgrwt>
<rscale>  2 0.25128438E+02</rscale>
<asrwt>0</asrwt>
<pdfrwt beam="1">  1       21 0.29613329E-02 0.25128438E+02</pdfrwt>
<pdfrwt beam="2">  1       21 0.90366065E-02 0.25128438E+02</pdfrwt>
<totfact> 0.45927973E+07</totfact>
</mgrwt>
</event>
<event>
 4    1  0.3862688E+004  0.2260585E+02  0.7546771E-02  0.1697980E+00
         21   -1    0    0  503  502  0.00000000000E+00  0.00000000000E+00  0.12447203441E+03  0.12447203441E+03  0.00000000000E+00 0. -1.
         21   -1    0    0  501  503 -0.00000000000E+00 -0.00000000000E+00 -0.54743143562E+01  0.54743143562E+01  0.00000000000E+00 0. -1.
          1    1    1    2  501    0 -0.22471924064E+02  0.24570608654E+01  0.27009911566E+02  0.35221582049E+02  0.00000000000E+00 0.  1.
         -1    1    1    2    0  502  0.22471924064E+02 -0.24570608654E+01  0.91987808485E+02  0.94724766715E+02  0.00000000000E+00 0. -1.
<mgrwt>
<rscale>  2 0.22605851E+02</rscale>
<asrwt>0</asrwt>
<pdfrwt beam="1">  1       21 0.19149542E-01 0.22605851E+02</pdfrwt>
<pdfrwt beam="2">  1       21 0.84220230E-03 0.22605851E+02</pdfrwt>
<totfact> 0.85530705E+07</totfact>
</mgrwt>
</event>
<event>
 4    1  0.3862688E+004  0.2725236E+02  0.7546771E-02  0.1630610E+00
         21   -1    0    0  503  502  0.00000000000E+00  0.00000000000E+00  0.11323777555E+01  0.11323777555E+01  0.00000000000E+00 0. -1.
         21   -1    0    0  501  503 -0.00000000000E+00 -0.00000000000E+00 -0.70360370407E+03  0.70360370407E+03  0.00000000000E+00 0. -1.
          5    1    1    2  501    0  0.94236906720E+01 -0.25571180957E+02 -0.25945515176E+03  0.26088247741E+03  0.00000000000E+00 0.  1.
         -5    1    1    2    0  502 -0.94236906720E+01  0.25571180957E+02 -0.44301617455E+03  0.44385360442E+03  0.00000000000E+00 0. -1.
<mgrwt>
<rscale>  2 0.27252362E+02</rscale>
<asrwt>0</asrwt>
<pdfrwt beam="1">  1       21 0.17421158E-03 0.27252362E+02</pdfrwt>
<pdfrwt beam="2">  1       21 0.10824696E+00 0.27252362E+02</pdfrwt>
<totfact> 0.31129084E+07</totfact>
</mgrwt>
</event>
<event>
 4    1  0.3862688E+004  0.2457860E+02  0.7546771E-02  0.1667129E+00
         21   -1    0    0  503  502  0.00000000000E+00  0.00000000000E+00  0.46720139013E+02  0.46720139013E+02  0.00000000000E+00 0.  1.
         21   -1    0    0  501  503 -0.00000000000E+00 -0.00000000000E+00 -0.12990859752E+02  0.12990859752E+02  0.00000000000E+00 0.  1.
          4    1    1    2  501    0  0.65291189545E+01 -0.23695535311E+02  0.14827057500E+02  0.28704519193E+02  0.00000000000E+00 0.  1.
         -4    1    1    2    0  502 -0.65291189545E+01  0.23695535311E+02  0.18902221761E+02  0.31006479573E+02  0.00000000000E+00 0. -1.
<mgrwt>
<rscale>  2 0.24578604E+02</rscale>
<asrwt>0</asrwt>
<pdfrwt beam="1">  1       21 0.71877136E-02 0.24578604E+02</pdfrwt>
<pdfrwt beam="2">  1       21 0.19985938E-02 0.24578604E+02</pdfrwt>
<totfact> 0.12219359E+08</totfact>
</mgrwt>
</event>
<event>
 4    1  0.3862688E+004  0.2276762E+02  0.7546771E-02  0.1695305E+00
         21   -1    0    0  501  502  0.00000000000E+00  0.00000000000E+00  0.46004634949E+01  0.46004634949E+01  0.00000000000E+00 0.  1.
         21   -1    0    0  502  503 -0.00000000000E+00 -0.00000000000E+00 -0.11478556442E+03  0.11478556442E+03  0.00000000000E+00 0.  1.
          1    1    1    2  501    0 -0.22724710257E+02  0.13972282923E+01 -0.63183730268E+02  0.67160616984E+02  0.00000000000E+00 0.  1.
         -1    1    1    2    0  503  0.22724710257E+02 -0.13972282923E+01 -0.47001370658E+02  0.52225410931E+02  0.00000000000E+00 0. -1.
<mgrwt>
<rscale>  2 0.22767624E+02</rscale>
<asrwt>0</asrwt>
<pdfrwt beam="1">  1       21 0.70776357E-03 0.22767624E+02</pdfrwt>
<pdfrwt beam="2">  1       21 0.17659319E-01 0.22767624E+02</pdfrwt>
<totfact> 0.12778014E+08</totfact>
</mgrwt>
</event>
<event>
 4    1  0.3862688E+004  0.2456720E+02  0.7546771E-02  0.1667297E+00
         21   -1    0    0  501  502  0.00000000000E+00  0.00000000000E+00  0.11073243429E+04  0.11073243429E+04  0.00000000000E+00 0. -1.
         21   -1    0    0  502  503 -0.00000000000E+00 -0.00000000000E+00 -0.62959986074E+00  0.62959986074E+00  0.00000000000E+00 0. -1.
          1    1    1    2  501    0 -0.64460402399E+01  0.23706451899E+02  0.75635645449E+03  0.75675533268E+03  0.00000000000E+00 0.  1.
         -1    1    1    2    0  503  0.64460402399E+01 -0.23706451899E+02  0.35033828853E+03  0.35119861006E+03  0.00000000000E+00 0. -1.
<mgrwt>
<rscale>  2 0.24567200E+02</rscale>
<asrwt>0</asrwt>
<pdfrwt beam="1">  1       21 0.17035603E+00 0.24567200E+02</pdfrwt>
<pdfrwt beam="2">  1       21 0.96862403E-04 0.24567200E+02</pdfrwt>
<totfact> 0.24590305E+07</totfact>
</mgrwt>
</event>
<event>
 4    1  0.3862688E+004  0.2205621E+02  0.7546771E-02  0.1707282E+00
         21   -1    0    0  501  502  0.00000000000E+00  0.00000000000E+00  0.22820188446E+01  0.22820188446E+01  0.00000000000E+00 0.  1.
         21   -1    0    0  502  503 -0.00000000000E+00 -0.00000000000E+00 -0.29094835879E+03  0.29094835879E+03  0.00000000000E+00 0.  1.
          2    1    1    2  501    0  0.20460255953E+02 -0.82373798630E+01 -0.22013465392E+03  0.22123684675E+03  0.00000000000E+00 0.  1.
         -2    1    1    2    0  503 -0.20460255953E+02  0.82373798630E+01 -0.68531686027E+02  0.71993530893E+02  0.00000000000E+00 0. -1.
<mgrwt>
<rscale>  2 0.22056212E+02</rscale>
<asrwt>0</asrwt>
<pdfrwt beam="1">  1       21 0.35107981E-03 0.22056212E+02</pdfrwt>
<pdfrwt beam="2">  1       21 0.44761288E-01 0.22056212E+02</pdfrwt>
<totfact> 0.66233973E+07</totfact>
</mgrwt>
</event>
<event>
 4    1  0.3862688E+004  0.2355693E+02  0.7546771E-02  0.1682638E+00
         21   -1    0    0  501  502  0.00000000000E+00  0.00000000000E+00  0.77830243918E+03  0.77830243918E+03  0.00000000000E+00 0.  1.
         21   -1    0    0  502  503 -0.00000000000E+00 -0.00000000000E+00 -0.74155563007E+00  0.74155563007E+00  0.00000000000E+00 0.  1.
          5    1    1    2  501    0  0.23206714209E+02  0.40468680762E+01  0.31234145540E+03  0.31322853236E+03  0.00000000000E+00 0.  1.
         -5    1    1    2    0  503 -0.23206714209E+02 -0.40468680762E+01  0.46521942815E+03  0.46581546244E+03  0.00000000000E+00 0. -1.
<mgrwt>
<rscale>  2 0.23556925E+02</rscale>
<asrwt>0</asrwt>
<pdfrwt beam="1">  1       21 0.11973818E+00 0.23556925E+02</pdfrwt>
<pdfrwt beam="2">  1       21 0.11408610E-03 0.23556925E+02</pdfrwt>
<totfact> 0.44340564E+07</totfact>
</mgrwt>
</event>
<event>
 4    1  0.3862688E+004  0.3072915E+02  0.7546771E-02  0.1590166E+00
         21   -1    0    0  501  502  0.00000000000E+00  0.00000000000E+00  0.57318692583E+01  0.57318692583E+01  0.00000000000E+00 0. -1.
         21   -1    0    0  502  503 -0.00000000000E+00 -0.00000000000E+00 -0.16962702008E+03  0.16962702008E+03  0.00000000000E+00 0. -1.
          5    1    1    2  501    0 -0.16791657982E+02  0.25735593173E+02 -0.96826661312E+02  0.10158583993E+03  0.00000000000E+00 0.  1.
         -5    1    1    2    0  503  0.16791657982E+02 -0.25735593173E+02 -0.67068489513E+02  0.73773049411E+02  0.00000000000E+00 0. -1.
<mgrwt>
<rscale>  2 0.30729148E+02</rscale>
<asrwt>0</asrwt>
<pdfrwt beam="1">  1       21 0.88182615E-03 0.30729148E+02</pdfrwt>
<pdfrwt beam="2">  1       21 0.26096461E-01 0.30729148E+02</pdfrwt>
<totfact> 0.49616796E+07</totfact>
</mgrwt>
</event>
<event>
 4    1  0.3862688E+004  0.4018230E+02  0.7546771E-02  0.1506874E+00
         21   -1    0    0  503  502  0.00000000000E+00  0.00000000000E+00  0.77852769048E+01  0.77852769048E+01  0.00000000000E+00 0.  1.
         21   -1    0    0  501  503 -0.00000000000E+00 -0.00000000000E+00 -0.23954024447E+03  0.23954024447E+03  0.00000000000E+00 0.  1.
          5    1    1    2  501    0 -0.37045488023E+02 -0.15564355106E+02 -0.70575534981E+02  0.81212828239E+02  0.00000000000E+00 0.  1.
         -5    1    1    2    0  502  0.37045488023E+02  0.15564355106E+02 -0.16117943259E+03  0.16611269314E+03  0.00000000000E+00 0. -1.
<mgrwt>
<rscale>  2 0.40182301E+02</rscale>
<asrwt>0</asrwt>
<pdfrwt beam="1">  1       21 0.11977352E-02 0.40182301E+02</pdfrwt>
<pdfrwt beam="2">  1       21 0.36852337E-01 0.40182301E+02</pdfrwt>
<totfact> 0.17176775E+07</totfact>
</mgrwt>
</event>
<event>
 4    1  0.3862688E+004  0.2255383E+02  0.7546771E-02  0.1698846E+00
         21   -1    0    0  501  502  0.00000000000E+00  0.00000000000E+00  0.15647628630E+03  0.15647628630E+03  0.00000000000E+00 0.  1.
         21   -1    0    0  502  503 -0.00000000000E+00 -0.00000000000E+00 -0.35776677230E+01  0.35776677230E+01  0.00000000000E+00 0.  1.
          5    1    1    2  501    0 -0.13654798996E+02  0.17950531801E+02  0.10063808401E+03  0.10313437391E+03  0.00000000000E+00 0.  1.
         -5    1    1    2    0  503  0.13654798996E+02 -0.17950531801E+02  0.52260534567E+02  0.56919580118E+02  0.00000000000E+00 0. -1.
<mgrwt>
<rscale>  2 0.22553827E+02</rscale>
<asrwt>0</asrwt>
<pdfrwt beam="1">  1       21 0.24073270E-01 0.22553827E+02</pdfrwt>
<pdfrwt beam="2">  1       21 0.55041054E-03 0.22553827E+02</pdfrwt>
<totfact> 0.10760691E+08</totfact>
</mgrwt>
</event>
<event>
 4    1  0.3862688E+004  0.2230552E+02  0.7546771E-02  0.1703021E+00
         21   -1    0    0  503  502  0.00000000000E+00  0.00000000000E+00  0.34803213815E+01  0.34803213815E+01  0.00000000000E+00 0.  1.
         21   -1    0    0  501  503 -0.00000000000E+00 -0.00000000000E+00 -0.14351447560E+03  0.14351447560E+03  0.00000000000E+00 0.  1.
          3    1    1    2  501    0 -0.16299492787E+02  0.15227044761E+02 -0.65436385496E+02  0.69133616309E+02  0.00000000000E+00 0.  1.
         -3    1    1    2    0  502  0.16299492787E+02 -0.15227044761E+02 -0.74597768725E+02  0.77861180674E+02  0.00000000000E+00 0. -1.
<mgrwt>
<rscale>  2 0.22305523E+02</rscale>
<asrwt>0</asrwt>
<pdfrwt beam="1">  1       21 0.53543406E-03 0.22305523E+02</pdfrwt>
<pdfrwt beam="2">  1       21 0.22079150E-01 0.22305523E+02</pdfrwt>
<totfact> 0.13017166E+08</totfact>
</mgrwt>
</event>
<event>
 4    1  0.3862688E+004  0.2073935E+02  0.7546771E-02  0.1731013E+00
         21   -1    0    0  503  502  0.00000000000E+00  0.00000000000E+00  0.67489511705E+00  0.67489511705E+00  0.00000000000E+00 0.  1.
         21   -1    0    0  501  503 -0.00000000000E+00 -0.00000000000E+00 -0.13910544682E+04  0.13910544682E+04  0.00000000000E+00 0.  1.
          3    1    1    2  501    0  0.20463111381E+02  0.33736523381E+01 -0.18296157553E+03  0.18413326310E+03  0.00000000000E+00 0.  1.
         -3    1    1    2    0  502 -0.20463111381E+02 -0.33736523381E+01 -0.12074179975E+04  0.12075961002E+04  0.00000000000E+00 0. -1.
<mgrwt>
<rscale>  2 0.20739346E+02</rscale>
<asrwt>0</asrwt>
<pdfrwt beam="1">  1       21 0.10383032E-03 0.20739346E+02</pdfrwt>
<pdfrwt beam="2">  1       21 0.21400776E+00 0.20739346E+02</pdfrwt>
<totfact> 0.12196032E+07</totfact>
</mgrwt>
</event>
<event>
 4    1  0.3862688E+004  0.5512357E+02  0.7546771E-02  0.1419515E+00
         21   -1    0    0  503  502  0.00000000000E+00  0.00000000000E+00  0.53829356793E+03  0.53829356793E+03  0.00000000000E+00 0. -1.
         21   -1    0    0  501  503 -0.00000000000E+00 -0.00000000000E+00 -0.59423743183E+01  0.59423743183E+01  0.00000000000E+00 0. -1.
          3    1    1    2  501    0  0.20209624715E+02 -0.51285266190E+02  0.20529064530E+03  0.21256259433E+03  0.00000000000E+00 0. -1.
         -3    1    1    2    0  502 -0.20209624715E+02  0.51285266190E+02  0.32706054831E+03  0.33167334791E+03  0.00000000000E+00 0.  1.
<mgrwt>
<rscale>  2 0.55123565E+02</rscale>
<asrwt>0</asrwt>
<pdfrwt beam="1">  1       21 0.82814357E-01 0.55123565E+02</pdfrwt>
<pdfrwt beam="2">  1       21 0.91421186E-03 0.55123565E+02</pdfrwt>
<totfact> 0.51879537E+06</totfact>
</mgrwt>
</event>
<event>
 4    1  0.3862688E+004  0.2308215E+02  0.7546771E-02  0.1690182E+00
         21   -1    0    0  503  502  0.00000000000E+00  0.00000000000E+00  0.36686243231E+03  0.36686243231E+03  0.00000000000E+00 0. -1.
         21   -1    0    0  501  503 -0.00000000000E+00 -0.00000000000E+00 -0.14545142406E+01  0.14545142406E+01  0.00000000000E+00 0. -1.
          1    1    1    2  501    0  0.21136963715E+02  0.92744075346E+01  0.18992649472E+03  0.19132396417E+03  0.00000000000E+00 0.  1.
         -1    1    1    2    0  502 -0.21136963715E+02 -0.92744075346E+01  0.17548142335E+03  0.17699298238E+03  0.00000000000E+00 0. -1.
<mgrwt>
<rscale>  2 0.23082155E+02</rscale>
<asrwt>0</asrwt>
<pdfrwt beam="1">  1       21 0.56440301E-01 0.23082155E+02</pdfrwt>
<pdfrwt beam="2">  1       21 0.22377171E-03 0.23082155E+02</pdfrwt>
<totfact> 0.82167605E+07</totfact>
</mgrwt>
</event>
<event>
 4    1  0.3862688E+004  0.2171451E+02  0.7546771E-02  0.1713237E+00
         21   -1    0    0  503  502  0.00000000000E+00  0.00000000000E+00  0.12907816140E+03  0.12907816140E+03  0.00000000000E+00 0.  1.
         21   -1    0    0  501  503 -0.00000000000E+00 -0.00000000000E+00 -0.37063116550E+01  0.37063116550E+01  0.00000000000E+00 0.  1.
          2    1    1    2  501    0  0.17083281245E+02  0.13404526536E+02  0.70650129378E+02  0.73911843509E+02  0.00000000000E+00 0.  1.
         -2    1    1    2    0  502 -0.17083281245E+02 -0.13404526536E+02  0.54721720365E+02  0.58872629545E+02  0.00000000000E+00 0. -1.
<mgrwt>
<rscale>  2 0.21714507E+02</rscale>
<asrwt>0</asrwt>
<pdfrwt beam="1">  1       21 0.19858175E-01 0.21714507E+02</pdfrwt>
<pdfrwt beam="2">  1       21 0.57020189E-03 0.21714507E+02</pdfrwt>
<totfact> 0.14168815E+08</totfact>
</mgrwt>
</event>
<event>
 4    1  0.3862688E+004  0.3490731E+02  0.7546771E-02  0.1549425E+00
         21   -1    0    0  501  502  0.00000000000E+00  0.00000000000E+00  0.11208287205E+02  0.11208287205E+02  0.00000000000E+00 0.  1.
         21   -1    0    0  502  503 -0.00000000000E+00 -0.00000000000E+00 -0.17790007072E+03  0.17790007072E+03  0.00000000000E+00 0.  1.
          4    1    1    2  501    0 -0.27555466861E+02 -0.21429339728E+02 -0.24380706611E+02  0.42578623862E+02  0.00000000000E+00 0.  1.
         -4    1    1    2    0  503  0.27555466861E+02  0.21429339728E+02 -0.14231107691E+03  0.14652973407E+03  0.00000000000E+00 0. -1.
<mgrwt>
<rscale>  2 0.34907311E+02</rscale>
<asrwt>0</asrwt>
<pdfrwt beam="1">  1       21 0.17243519E-02 0.34907311E+02</pdfrwt>
<pdfrwt beam="2">  1       21 0.27369242E-01 0.34907311E+02</pdfrwt>
<totfact> 0.16700872E+07</totfact>
</mgrwt>
</event>
<event>
 4    1  0.3862688E+004  0.3417096E+02  0.7546771E-02  0.1556088E+00
         21   -1    0    0  501  502  0.00000000000E+00  0.00000000000E+00  0.20641585095E+03  0.20641585095E+03  0.00000000000E+00 0. -1.
         21   -1    0    0  502  503 -0.00000000000E+00 -0.00000000000E+00 -0.72646887101E+01  0.72646887101E+01  0.00000000000E+00 0. -1.
          1    1    1    2  501    0  0.20566710340E+02  0.27288550859E+02  0.14983917648E+03  0.15368615224E+03  0.00000000000E+00 0. -1.
         -1    1    1    2    0  503 -0.20566710340E+02 -0.27288550859E+02  0.49311985756E+02  0.59994387416E+02  0.00000000000E+00 0.  1.
<mgrwt>
<rscale>  2 0.34170961E+02</rscale>
<asrwt>0</asrwt>
<pdfrwt beam="1">  1       21 0.31756280E-01 0.34170961E+02</pdfrwt>
<pdfrwt beam="2">  1       21 0.11176446E-02 0.34170961E+02</pdfrwt>
<totfact> 0.24634625E+07</totfact>
</mgrwt>
</event>
<event>
 4    1  0.3862688E+004  0.2010227E+02  0.7546771E-02  0.1743302E+00
         21   -1    0    0  503  502  0.00000000000E+00  0.00000000000E+00  0.48475022266E+01  0.48475022266E+01  0.00000000000E+00 0.  1.
         21   -1    0    0  501  503 -0.00000000000E+00 -0.00000000000E+00 -0.89739188130E+02  0.89739188130E+02  0.00000000000E+00 0.  1.
          3    1    1    2  501    0  0.17934295752E+02 -0.90808765460E+01 -0.29839274988E+02  0.35978932930E+02  0.00000000000E+00 0. -1.
         -3    1    1    2    0  502 -0.17934295752E+02  0.90808765460E+01 -0.55052410916E+02  0.58607757427E+02  0.00000000000E+00 0.  1.
<mgrwt>
<rscale>  2 0.20102271E+02</rscale>
<asrwt>0</asrwt>
<pdfrwt beam="1">  1       21 0.74576960E-03 0.20102271E+02</pdfrwt>
<pdfrwt beam="2">  1       21 0.13806028E-01 0.20102271E+02</pdfrwt>
<totfact> 0.17319994E+08</totfact>
</mgrwt>
</event>
<event>
 4    1  0.3862688E+004  0.2138736E+02  0.7546771E-02  0.1719068E+00
         21   -1    0    0  501  502  0.00000000000E+00  0.00000000000E+00  0.14296487966E+03  0.14296487966E+03  0.00000000000E+00 0.  1.
         21   -1    0    0  502  503 -0.00000000000E+00 -0.00000000000E+00 -0.37451750023E+01  0.37451750023E+01  0.00000000000E+00 0.  1.
          1    1    1    2  501    0 -0.20624027875E+02 -0.56629323328E+01  0.97609460815E+02  0.99925102797E+02  0.00000000000E+00 0.  1.
         -1    1    1    2    0  503  0.20624027875E+02  0.56629323328E+01  0.41610243841E+02  0.46784951864E+02  0.00000000000E+00 0. -1.
<mgrwt>
<rscale>  2 0.21387364E+02</rscale>
<asrwt>0</asrwt>
<pdfrwt beam="1">  1       21 0.21994593E-01 0.21387364E+02</pdfrwt>
<pdfrwt beam="2">  1       21 0.57618088E-03 0.21387364E+02</pdfrwt>
<totfact> 0.11620052E+08</totfact>
</mgrwt>
</event>
<event>
 4    1  0.3862688E+004  0.2378218E+02  0.7546771E-02  0.1679136E+00
         21   -1    0    0  501  502  0.00000000000E+00  0.00000000000E+00  0.28450559900E+02  0.28450559900E+02  0.00000000000E+00 0. -1.
         21   -1    0    0  502  503 -0.00000000000E+00 -0.00000000000E+00 -0.23226170890E+02  0.23226170890E+02  0.00000000000E+00 0. -1.
          2    1    1    2  501    0  0.15578175103E+02 -0.17969764073E+02 -0.71953904457E+01  0.24846842939E+02  0.00000000000E+00 0.  1.
         -2    1    1    2    0  503 -0.15578175103E+02  0.17969764073E+02  0.12419779456E+02  0.26829887851E+02  0.00000000000E+00 0. -1.
<mgrwt>
<rscale>  2 0.23782177E+02</rscale>
<asrwt>0</asrwt>
<pdfrwt beam="1">  1       21 0.43770092E-02 0.23782177E+02</pdfrwt>
<pdfrwt beam="2">  1       21 0.35732571E-02 0.23782177E+02</pdfrwt>
<totfact> 0.10877376E+08</totfact>
</mgrwt>
</event>
<event>
 4    1  0.3862688E+004  0.2344098E+02  0.7546771E-02  0.1684460E+00
         21   -1    0    0  501  502  0.00000000000E+00  0.00000000000E+00  0.21299087962E+01  0.21299087962E+01  0.00000000000E+00 0.  1.
         21   -1    0    0  502  503 -0.00000000000E+00 -0.00000000000E+00 -0.37267972726E+03  0.37267972726E+03  0.00000000000E+00 0.  1.
          2    1    1    2  501    0 -0.83404779334E+01  0.21906986585E+02 -0.81309483002E+02  0.84620988292E+02  0.00000000000E+00 0. -1.
         -2    1    1    2    0  503  0.83404779334E+01 -0.21906986585E+02 -0.28924033546E+03  0.29018864777E+03  0.00000000000E+00 0.  1.
<mgrwt>
<rscale>  2 0.23440982E+02</rscale>
<asrwt>0</asrwt>
<pdfrwt beam="1">  1       21 0.32767804E-03 0.23440982E+02</pdfrwt>
<pdfrwt beam="2">  1       21 0.57335384E-01 0.23440982E+02</pdfrwt>
<totfact> 0.45905627E+07</totfact>
</mgrwt>
</event>
<event>
 4    1  0.3862688E+004  0.2234175E+02  0.7546771E-02  0.1702408E+00
         21   -1    0    0  501  502  0.00000000000E+00  0.00000000000E+00  0.11359245584E+02  0.11359245584E+02  0.00000000000E+00 0. -1.
         21   -1    0    0  502  503 -0.00000000000E+00 -0.00000000000E+00 -0.45946700417E+02  0.45946700417E+02  0.00000000000E+00 0. -1.
          1    1    1    2  501    0  0.22240730376E+02  0.21222342471E+01 -0.11309472593E+02  0.25041128892E+02  0.00000000000E+00 0. -1.
         -1    1    1    2    0  503 -0.22240730376E+02 -0.21222342471E+01 -0.23277982240E+02  0.32264817109E+02  0.00000000000E+00 0.  1.
<mgrwt>
<rscale>  2 0.22341754E+02</rscale>
<asrwt>0</asrwt>
<pdfrwt beam="1">  1       21 0.17475762E-02 0.22341754E+02</pdfrwt>
<pdfrwt beam="2">  1       21 0.70687232E-02 0.22341754E+02</pdfrwt>
<totfact> 0.14990513E+08</totfact>
</mgrwt>
</event>
<event>
 4    1  0.3862688E+004  0.2121463E+02  0.7546771E-02  0.1722199E+00
         21   -1    0    0  501  502  0.00000000000E+00  0.00000000000E+00  0.39005029169E+01  0.39005029169E+01  0.00000000000E+00 0. -1.
         21   -1    0    0  502  503 -0.00000000000E+00 -0.00000000000E+00 -0.13733701367E+03  0.13733701367E+03  0.00000000000E+00 0. -1.
          2    1    1    2  501    0  0.19849221253E+01 -0.21121569569E+02 -0.38485016633E+02  0.43944932838E+02  0.00000000000E+00 0. -1.
         -2    1    1    2    0  503 -0.19849221253E+01  0.21121569569E+02 -0.94951494121E+02  0.97292583750E+02  0.00000000000E+00 0.  1.
<mgrwt>
<rscale>  2 0.21214632E+02</rscale>
<asrwt>0</asrwt>
<pdfrwt beam="1">  1       21 0.60007739E-03 0.21214632E+02</pdfrwt>
<pdfrwt beam="2">  1       21 0.21128771E-01 0.21214632E+02</pdfrwt>
<totfact> 0.11713315E+08</totfact>
</mgrwt>
</event>
<event>
 4    1  0.3862688E+004  0.3174764E+02  0.7546771E-02  0.1579537E+00
         21   -1    0    0  501  502  0.00000000000E+00  0.00000000000E+00  0.40785648494E+01  0.40785648494E+01  0.00000000000E+00 0. -1.
         21   -1    0    0  502  503 -0.00000000000E+00 -0.00000000000E+00 -0.39073963110E+03  0.39073963110E+03  0.00000000000E+00 0. -1.
          1    1    1    2  501    0  0.19920234293E+02  0.24720372118E+02 -0.73649916833E+02  0.80201139527E+02  0.00000000000E+00 0.  1.
         -1    1    1    2    0  503 -0.19920234293E+02 -0.24720372118E+02 -0.31301114942E+03  0.31461705642E+03  0.00000000000E+00 0. -1.
<mgrwt>
<rscale>  2 0.31747638E+02</rscale>
<asrwt>0</asrwt>
<pdfrwt beam="1">  1       21 0.62747140E-03 0.31747638E+02</pdfrwt>
<pdfrwt beam="2">  1       21 0.60113801E-01 0.31747638E+02</pdfrwt>
<totfact> 0.16917451E+07</totfact>
</mgrwt>
</event>
<event>
 4    1  0.3862688E+004  0.2323118E+02  0.7546771E-02  0.1687790E+00
         21   -1    0    0  503  502  0.00000000000E+00  0.00000000000E+00  0.37205232594E+03  0.37205232594E+03  0.00000000000E+00 0.  1.
         21   -1    0    0  501  503 -0.00000000000E+00 -0.00000000000E+00 -0.36109988111E+01  0.36109988111E+01  0.00000000000E+00 0.  1.
          4    1    1    2  501    0  0.76502893008E+01 -0.21935380814E+02  0.32950712037E+03  0.33032503724E+03  0.00000000000E+00 0.  1.
         -4    1    1    2    0  502 -0.76502893008E+01  0.21935380814E+02  0.38934206760E+02  0.45338287505E+02  0.00000000000E+00 0. -1.
<mgrwt>
<rscale>  2 0.23231183E+02</rscale>
<asrwt>0</asrwt>
<pdfrwt beam="1">  1       21 0.57238789E-01 0.23231183E+02</pdfrwt>
<pdfrwt beam="2">  1       21 0.55553857E-03 0.23231183E+02</pdfrwt>
<totfact> 0.21157135E+07</totfact>
</mgrwt>
</event>
<event>
 4    1  0.3862688E+004  0.2624790E+02  0.7546771E-02  0.1643699E+00
         21   -1    0    0  503  502  0.00000000000E+00  0.00000000000E+00  0.85572735405E+03  0.85572735405E+03  0.00000000000E+00 0. -1.
         21   -1    0    0  501  503 -0.00000000000E+00 -0.00000000000E+00 -0.82164159804E+00  0.82164159804E+00  0.00000000000E+00 0. -1.
          5    1    1    2  501    0 -0.10806967559E+02 -0.23919897093E+02  0.48820739351E+03  0.48891247796E+03  0.00000000000E+00 0. -1.
         -5    1    1    2    0  502  0.10806967559E+02  0.23919897093E+02  0.36669831894E+03  0.36763651769E+03  0.00000000000E+00 0.  1.
<mgrwt>
<rscale>  2 0.26247896E+02</rscale>
<asrwt>0</asrwt>
<pdfrwt beam="1">  1       21 0.13164965E+00 0.26247896E+02</pdfrwt>
<pdfrwt beam="2">  1       21 0.12640708E-03 0.26247896E+02</pdfrwt>
<totfact> 0.31429995E+07</totfact>
</mgrwt>
</event>
<event>
 4    1  0.3862688E+004  0.2147153E+02  0.7546771E-02  0.1717555E+00
         21   -1    0    0  501  502  0.00000000000E+00  0.00000000000E+00  0.20789138487E+03  0.20789138487E+03  0.00000000000E+00 0. -1.
         21   -1    0    0  502  503 -0.00000000000E+00 -0.00000000000E+00 -0.23892972329E+01  0.23892972329E+01  0.00000000000E+00 0. -1.
          4    1    1    2  501    0 -0.20230937515E+02 -0.71927586851E+01  0.13093327203E+03  0.13268213268E+03  0.00000000000E+00 0.  1.
         -4    1    1    2    0  503  0.20230937515E+02  0.71927586851E+01  0.74568815614E+02  0.77598549421E+02  0.00000000000E+00 0. -1.
<mgrwt>
<rscale>  2 0.21471530E+02</rscale>
<asrwt>0</asrwt>
<pdfrwt beam="1">  1       21 0.31983276E-01 0.21471530E+02</pdfrwt>
<pdfrwt beam="2">  1       21 0.36758436E-03 0.21471530E+02</pdfrwt>
<totfact> 0.11517441E+08</totfact>
</mgrwt>
</event>
<event>
 4    1  0.3862688E+004  0.3272320E+02  0.7546771E-02  0.1569801E+00
         21   -1    0    0  501  502  0.00000000000E+00  0.00000000000E+00  0.33323698820E+02  0.33323698820E+02  0.00000000000E+00 0. -1.
         21   -1    0    0  502  503 -0.00000000000E+00 -0.00000000000E+00 -0.34583175478E+02  0.34583175478E+02  0.00000000000E+00 0. -1.
          2    1    1    2  501    0 -0.21648171708E+02 -0.24539043632E+02  0.84068215072E+01  0.33785835028E+02  0.00000000000E+00 0.  1.
         -2    1    1    2    0  503  0.21648171708E+02  0.24539043632E+02 -0.96662981657E+01  0.34121039271E+02  0.00000000000E+00 0. -1.
<mgrwt>
<rscale>  2 0.32723203E+02</rscale>
<asrwt>0</asrwt>
<pdfrwt beam="1">  1       21 0.51267229E-02 0.32723203E+02</pdfrwt>
<pdfrwt beam="2">  1       21 0.53204885E-02 0.32723203E+02</pdfrwt>
<totfact> 0.48442275E+07</totfact>
</mgrwt>
</event>
<event>
 4    1  0.3862688E+004  0.2628170E+02  0.7546771E-02  0.1643247E+00
         21   -1    0    0  503  502  0.00000000000E+00  0.00000000000E+00  0.20958675464E+01  0.20958675464E+01  0.00000000000E+00 0.  1.
         21   -1    0    0  501  503 -0.00000000000E+00 -0.00000000000E+00 -0.35901800535E+03  0.35901800535E+03  0.00000000000E+00 0.  1.
          1    1    1    2  501    0 -0.13728182833E+02 -0.22411262069E+02 -0.23017529425E+03  0.23167087377E+03  0.00000000000E+00 0. -1.
         -1    1    1    2    0  502  0.13728182833E+02  0.22411262069E+02 -0.12674684356E+03  0.12944299913E+03  0.00000000000E+00 0.  1.
<mgrwt>
<rscale>  2 0.26281698E+02</rscale>
<asrwt>0</asrwt>
<pdfrwt beam="1">  1       21 0.32244142E-03 0.26281698E+02</pdfrwt>
<pdfrwt beam="2">  1       21 0.55233495E-01 0.26281698E+02</pdfrwt>
<totfact> 0.51912785E+07</totfact>
</mgrwt>
</event>
<event>
 4    1  0.3862688E+004  0.2508331E+02  0.7546771E-02  0.1659808E+00
         21   -1    0    0  503  502  0.00000000000E+00  0.00000000000E+00  0.72525179360E+03  0.72525179360E+03  0.00000000000E+00 0.  1.
         21   -1    0    0  501  503 -0.00000000000E+00 -0.00000000000E+00 -0.11864201050E+01  0.11864201050E+01  0.00000000000E+00 0.  1.
          2    1    1    2  501    0  0.16247170968E+02  0.19110255277E+02  0.55034334634E+03  0.55091466788E+03  0.00000000000E+00 0.  1.
         -2    1    1    2    0  502 -0.16247170968E+02 -0.19110255277E+02  0.17372202716E+03  0.17552354583E+03  0.00000000000E+00 0. -1.
<mgrwt>
<rscale>  2 0.25083310E+02</rscale>
<asrwt>0</asrwt>
<pdfrwt beam="1">  1       21 0.11157684E+00 0.25083310E+02</pdfrwt>
<pdfrwt beam="2">  1       21 0.18252675E-03 0.25083310E+02</pdfrwt>
<totfact> 0.26785388E+07</totfact>
</mgrwt>
</event>
<event>
 4    1  0.3862688E+004  0.2020490E+02  0.7546771E-02  0.1741284E+00
         21   -1    0    0  501  502  0.00000000000E+00  0.00000000000E+00  0.24670233265E+02  0.24670233265E+02  0.00000000000E+00 0. -1.
         21   -1    0    0  502  503 -0.00000000000E+00 -0.00000000000E+00 -0.16631105387E+02  0.16631105387E+02  0.00000000000E+00 0. -1.
          4    1    1    2  501    0 -0.62244668187E+01  0.19222228588E+02  0.54811115510E+01  0.20935153281E+02  0.00000000000E+00 0. -1.
         -4    1    1    2    0  503  0.62244668187E+01 -0.19222228588E+02  0.25580163275E+01  0.20366185372E+02  0.00000000000E+00 0.  1.
<mgrwt>
<rscale>  2 0.20204902E+02</rscale>
<asrwt>0</asrwt>
<pdfrwt beam="1">  1       21 0.37954205E-02 0.20204902E+02</pdfrwt>
<pdfrwt beam="2">  1       21 0.25586316E-02 0.20204902E+02</pdfrwt>
<totfact> 0.21760661E+08</totfact>
</mgrwt>
</event>
<event>
 4    1  0.3862688E+004  0.2168443E+02  0.7546771E-02  0.1713767E+00
         21   -1    0    0  501  502  0.00000000000E+00  0.00000000000E+00  0.51425395032E+03  0.51425395032E+03  0.00000000000E+00 0.  1.
         21   -1    0    0  502  503 -0.00000000000E+00 -0.00000000000E+00 -0.94178318783E+00  0.94178318783E+00  0.00000000000E+00 0.  1.
          4    1    1    2  501    0 -0.46699824571E+01 -0.21175593103E+02  0.30061092427E+03  0.30139200764E+03  0.00000000000E+00 0.  1.
         -4    1    1    2    0  503  0.46699824571E+01  0.21175593103E+02  0.21270124287E+03  0.21380372587E+03  0.00000000000E+00 0. -1.
<mgrwt>
<rscale>  2 0.21684429E+02</rscale>
<asrwt>0</asrwt>
<pdfrwt beam="1">  1       21 0.79115768E-01 0.21684429E+02</pdfrwt>
<pdfrwt beam="2">  1       21 0.14489013E-03 0.21684429E+02</pdfrwt>
<totfact> 0.76126637E+07</totfact>
</mgrwt>
</event>
<event>
 4    1  0.3862688E+004  0.3685535E+02  0.7546771E-02  0.1532716E+00
         21   -1    0    0  503  502  0.00000000000E+00  0.00000000000E+00  0.40831639445E+01  0.40831639445E+01  0.00000000000E+00 0. -1.
         21   -1    0    0  501  503 -0.00000000000E+00 -0.00000000000E+00 -0.34505705997E+03  0.34505705997E+03  0.00000000000E+00 0. -1.
          5    1    1    2  501    0 -0.10035801253E+02  0.35462644907E+02 -0.20357230675E+03  0.20688161003E+03  0.00000000000E+00 0. -1.
         -5    1    1    2    0  502  0.10035801253E+02 -0.35462644907E+02 -0.13740158928E+03  0.14225861389E+03  0.00000000000E+00 0.  1.
<mgrwt>
<rscale>  2 0.36855345E+02</rscale>
<asrwt>0</asrwt>
<pdfrwt beam="1">  1       21 0.62817876E-03 0.36855345E+02</pdfrwt>
<pdfrwt beam="2">  1       21 0.53085728E-01 0.36855345E+02</pdfrwt>
<totfact> 0.22206511E+07</totfact>
</mgrwt>
</event>
<event>
 4    1  0.3862688E+004  0.2327453E+02  0.7546771E-02  0.1687098E+00
         21   -1    0    0  503  502  0.00000000000E+00  0.00000000000E+00  0.13286127992E+03  0.13286127992E+03  0.00000000000E+00 0.  1.
         21   -1    0    0  501  503 -0.00000000000E+00 -0.00000000000E+00 -0.43944998583E+01  0.43944998583E+01  0.00000000000E+00 0.  1.
          3    1    1    2  501    0  0.82573593423E+01  0.21760509276E+02  0.82673856856E+02  0.85887544818E+02  0.00000000000E+00 0. -1.
         -3    1    1    2    0  502 -0.82573593423E+01 -0.21760509276E+02  0.45792923204E+02  0.51368234959E+02  0.00000000000E+00 0.  1.
<mgrwt>
<rscale>  2 0.23274530E+02</rscale>
<asrwt>0</asrwt>
<pdfrwt beam="1">  1       21 0.20440194E-01 0.23274530E+02</pdfrwt>
<pdfrwt beam="2">  1       21 0.67607700E-03 0.23274530E+02</pdfrwt>
<totfact> 0.10676765E+08</totfact>
</mgrwt>
</event>
<event>
 4    1  0.3862688E+004  0.6761546E+02  0.7546771E-02  0.1368395E+00
         21   -1    0    0  501  502  0.00000000000E+00  0.00000000000E+00  0.65149873264E+02  0.65149873264E+02  0.00000000000E+00 0. -1.
         21   -1    0    0  502  503 -0.00000000000E+00 -0.00000000000E+00 -0.77224413292E+02  0.77224413292E+02  0.00000000000E+00 0. -1.
          2    1    1    2  501    0  0.44693364756E+02 -0.50738091319E+02 -0.27546279318E+02  0.73011288635E+02  0.00000000000E+00 0.  1.
         -2    1    1    2    0  503 -0.44693364756E+02  0.50738091319E+02  0.15471739289E+02  0.69362997921E+02  0.00000000000E+00 0. -1.
<mgrwt>
<rscale>  2 0.67615462E+02</rscale>
<asrwt>0</asrwt>
<pdfrwt beam="1">  1       21 0.10023058E-01 0.67615462E+02</pdfrwt>
<pdfrwt beam="2">  1       21 0.11880679E-01 0.67615462E+02</pdfrwt>
<totfact> 0.45703137E+06</totfact>
</mgrwt>
</event>
<event>
 4    1  0.3862688E+004  0.2381188E+02  0.7546771E-02  0.1678678E+00
         21   -1    0    0  501  502  0.00000000000E+00  0.00000000000E+00  0.50644185397E+02  0.50644185397E+02  0.00000000000E+00 0.  1.
         21   -1    0    0  502  503 -0.00000000000E+00 -0.00000000000E+00 -0.11327393842E+02  0.11327393842E+02  0.00000000000E+00 0.  1.
          2    1    1    2  501    0 -0.23213143048E+02  0.53061936113E+01  0.22997271883E+02  0.33104081544E+02  0.00000000000E+00 0.  1.
         -2    1    1    2    0  503  0.23213143048E+02 -0.53061936113E+01  0.16319519672E+02  0.28867497695E+02  0.00000000000E+00 0. -1.
<mgrwt>
<rscale>  2 0.23811882E+02</rscale>
<asrwt>0</asrwt>
<pdfrwt beam="1">  1       21 0.77914130E-02 0.23811882E+02</pdfrwt>
<pdfrwt beam="2">  1       21 0.17426760E-02 0.23811882E+02</pdfrwt>
<totfact> 0.13100101E+08</totfact>
</mgrwt>
</event>
<event>
 4    1  0.3862688E+004  0.2292937E+02  0.7546771E-02  0.1692658E+00
         21   -1    0    0  501  502  0.00000000000E+00  0.00000000000E+00  0.84972423221E+02  0.84972423221E+02  0.00000000000E+00 0.  1.
         21   -1    0    0  502  503 -0.00000000000E+00 -0.00000000000E+00 -0.65113372800E+01  0.65113372800E+01  0.00000000000E+00 0.  1.
          3    1    1    2  501    0  0.22842966220E+02 -0.19886724923E+01  0.49433561816E+02  0.54492503685E+02  0.00000000000E+00 0. -1.
         -3    1    1    2    0  503 -0.22842966220E+02  0.19886724923E+01  0.29027524125E+02  0.36991256816E+02  0.00000000000E+00 0.  1.
<mgrwt>
<rscale>  2 0.22929368E+02</rscale>
<asrwt>0</asrwt>
<pdfrwt beam="1">  1       21 0.13072680E-01 0.22929368E+02</pdfrwt>
<pdfrwt beam="2">  1       21 0.10017443E-02 0.22929368E+02</pdfrwt>
<totfact> 0.12718951E+08</totfact>
</mgrwt>
</event>
<event>
 4    1  0.3862688E+004  0.2294548E+02  0.7546771E-02  0.1692395E+00
         21   -1    0    0  503  502  0.00000000000E+00  0.00000000000E+00  0.44043509178E+01  0.44043509178E+01  0.00000000000E+00 0. -1.
         21   -1    0    0  501  503 -0.00000000000E+00 -0.00000000000E+00 -0.13747274846E+03  0.13747274846E+03  0.00000000000E+00 0. -1.
          1    1    1    2  501    0 -0.60049755336E+01 -0.22145777710E+02 -0.92155425520E+02  0.94969035239E+02  0.00000000000E+00 0.  1.
         -1    1    1    2    0  502  0.60049755336E+01  0.22145777710E+02 -0.40912972025E+02  0.46908064141E+02  0.00000000000E+00 0. -1.
<mgrwt>
<rscale>  2 0.22945483E+02</rscale>
<asrwt>0</asrwt>
<pdfrwt beam="1">  1       21 0.67759235E-03 0.22945483E+02</pdfrwt>
<pdfrwt beam="2">  1       21 0.21149657E-01 0.22945483E+02</pdfrwt>
<totfact> 0.99845631E+07</totfact>
</mgrwt>
</event>
<event>
 4    1  0.3862688E+004  0.2232301E+02  0.7546771E-02  0.1702725E+00
         21   -1    0    0  503  502  0.00000000000E+00  0.00000000000E+00  0.71595112231E+02  0.71595112231E+02  0.00000000000E+00 0. -1.
         21   -1    0    0  501  503 -0.00000000000E+00 -0.00000000000E+00 -0.10262870774E+02  0.10262870774E+02  0.00000000000E+00 0. -1.
          5    1    1    2  501    0 -0.10950825092E+02 -0.19452408435E+02  0.53884335761E+02  0.58325281007E+02  0.00000000000E+00 0.  1.
         -5    1    1    2    0  502  0.10950825092E+02  0.19452408435E+02  0.74479056960E+01  0.23532701999E+02  0.00000000000E+00 0. -1.
<mgrwt>
<rscale>  2 0.22323010E+02</rscale>
<asrwt>0</asrwt>
<pdfrwt beam="1">  1       21 0.11014632E-01 0.22323010E+02</pdfrwt>
<pdfrwt beam="2">  1       21 0.15789032E-02 0.22323010E+02</pdfrwt>
<totfact> 0.84531146E+07</totfact>
</mgrwt>
</event>
<event>
 4    1  0.3862688E+004  0.3770222E+02  0.7546771E-02  0.1525835E+00
         21   -1    0    0  503  502  0.00000000000E+00  0.00000000000E+00  0.25738010832E+03  0.25738010832E+03  0.00000000000E+00 0. -1.
         21   -1    0    0  501  503 -0.00000000000E+00 -0.00000000000E+00 -0.59674565190E+01  0.59674565190E+01  0.00000000000E+00 0. -1.
          2    1    1    2  501    0 -0.37348686575E+02 -0.51510558309E+01  0.16164972069E+03  0.16598822237E+03  0.00000000000E+00 0.  1.
         -2    1    1    2    0  502  0.37348686575E+02  0.51510558309E+01  0.89762931105E+02  0.97359342467E+02  0.00000000000E+00 0. -1.
<mgrwt>
<rscale>  2 0.37702225E+02</rscale>
<asrwt>0</asrwt>
<pdfrwt beam="1">  1       21 0.39596931E-01 0.37702225E+02</pdfrwt>
<pdfrwt beam="2">  1       21 0.91807043E-03 0.37702225E+02</pdfrwt>
<totfact> 0.22274099E+07</totfact>
</mgrwt>
</event>
<event>
 4    1  0.3862688E+004  0.2283088E+02  0.7546771E-02  0.1694266E+00
         21   -1    0    0  503  502  0.00000000000E+00  0.00000000000E+00  0.47008436926E+03  0.47008436926E+03  0.00000000000E+00 0. -1.
         21   -1    0    0  501  503 -0.00000000000E+00 -0.00000000000E+00 -0.29890044215E+01  0.29890044215E+01  0.00000000000E+00 0. -1.
          3    1    1    2  501    0  0.16083449011E+02  0.16204059913E+02  0.45947604842E+02  0.51307224447E+02  0.00000000000E+00 0.  1.
         -3    1    1    2    0  502 -0.16083449011E+02 -0.16204059913E+02  0.42114775999E+03  0.42176614923E+03  0.00000000000E+00 0. -1.
<mgrwt>
<rscale>  2 0.22830876E+02</rscale>
<asrwt>0</asrwt>
<pdfrwt beam="1">  1       21 0.72320614E-01 0.22830876E+02</pdfrwt>
<pdfrwt beam="2">  1       21 0.45984721E-03 0.22830876E+02</pdfrwt>
<totfact> 0.17365109E+07</totfact>
</mgrwt>
</event>
<event>
 4    1  0.3862688E+004  0.2796500E+02  0.7546771E-02  0.1621737E+00
         21   -1    0    0  503  502  0.00000000000E+00  0.00000000000E+00  0.20907385775E+03  0.20907385775E+03  0.00000000000E+00 0. -1.
         21   -1    0    0  501  503 -0.00000000000E+00 -0.00000000000E+00 -0.42638674114E+01  0.42638674114E+01  0.00000000000E+00 0. -1.
          3    1    1    2  501    0  0.96680139292E+00  0.27948284931E+02  0.13977627961E+03  0.14254630713E+03  0.00000000000E+00 0. -1.
         -3    1    1    2    0  502 -0.96680139292E+00 -0.27948284931E+02  0.65033710736E+02  0.70791418037E+02  0.00000000000E+00 0.  1.
<mgrwt>
<rscale>  2 0.27965002E+02</rscale>
<asrwt>0</asrwt>
<pdfrwt beam="1">  1       21 0.32165201E-01 0.27965002E+02</pdfrwt>
<pdfrwt beam="2">  1       21 0.65597976E-03 0.27965002E+02</pdfrwt>
<totfact> 0.51733735E+07</totfact>
</mgrwt>
</event>
<event>
 4    1  0.3862688E+004  0.4183444E+02  0.7546771E-02  0.1495130E+00
         21   -1    0    0  501  502  0.00000000000E+00  0.00000000000E+00  0.12271322827E+04  0.12271322827E+04  0.00000000000E+00 0.  1.
         21   -1    0    0  502  503 -0.00000000000E+00 -0.00000000000E+00 -0.15091765321E+01  0.15091765321E+01  0.00000000000E+00 0.  1.
          3    1    1    2  501    0 -0.34798044365E+02  0.23221032049E+02  0.46875382292E+03  0.47061690016E+03  0.00000000000E+00 0.  1.
         -3    1    1    2    0  503  0.34798044365E+02 -0.23221032049E+02  0.75686928324E+03  0.75802455906E+03  0.00000000000E+00 0. -1.
<mgrwt>
<rscale>  2 0.41834438E+02</rscale>
<asrwt>0</asrwt>
<pdfrwt beam="1">  1       21 0.18878879E+00 0.41834438E+02</pdfrwt>
<pdfrwt beam="2">  1       21 0.23218198E-03 0.41834438E+02</pdfrwt>
<totfact> 0.56309202E+06</totfact>
</mgrwt>
</event>
<event>
 4    1  0.3862688E+004  0.2968438E+02  0.7546771E-02  0.1601604E+00
         21   -1    0    0  501  502  0.00000000000E+00  0.00000000000E+00  0.19995342087E+02  0.19995342087E+02  0.00000000000E+00 0.  1.
         21   -1    0    0  502  503 -0.00000000000E+00 -0.00000000000E+00 -0.49897717386E+02  0.49897717386E+02  0.00000000000E+00 0.  1.
          5    1    1    2  501    0  0.38494795875E+01 -0.29433718812E+02 -0.30065389475E+01  0.29836245954E+02  0.00000000000E+00 0. -1.
         -5    1    1    2    0  503 -0.38494795875E+01  0.29433718812E+02 -0.26895836352E+02  0.40056813519E+02  0.00000000000E+00 0.  1.
<mgrwt>
<rscale>  2 0.29684378E+02</rscale>
<asrwt>0</asrwt>
<pdfrwt beam="1">  1       21 0.30762065E-02 0.29684378E+02</pdfrwt>
<pdfrwt beam="2">  1       21 0.76765719E-02 0.29684378E+02</pdfrwt>
<totfact> 0.58869472E+07</totfact>
</mgrwt>
</event>
<event>
 4    1  0.3862688E+004  0.2550097E+02  0.7546771E-02  0.1653909E+00
         21   -1    0    0  503  502  0.00000000000E+00  0.00000000000E+00  0.99027506232E+03  0.99027506232E+03  0.00000000000E+00 0.  1.
         21   -1    0    0  501  503 -0.00000000000E+00 -0.00000000000E+00 -0.10801516072E+01  0.10801516072E+01  0.00000000000E+00 0.  1.
          2    1    1    2  501    0  0.20688605120E+02 -0.14909093835E+02  0.18423714811E+03  0.18599361872E+03  0.00000000000E+00 0.  1.
         -2    1    1    2    0  502 -0.20688605120E+02  0.14909093835E+02  0.80495776260E+03  0.80536159520E+03  0.00000000000E+00 0. -1.
<mgrwt>
<rscale>  2 0.25500970E+02</rscale>
<asrwt>0</asrwt>
<pdfrwt beam="1">  1       21 0.15234928E+00 0.25500970E+02</pdfrwt>
<pdfrwt beam="2">  1       21 0.16617796E-03 0.25500970E+02</pdfrwt>
<totfact> 0.14955554E+07</totfact>
</mgrwt>
</event>
<event>
 4    1  0.3862688E+004  0.2408359E+02  0.7546771E-02  0.1674524E+00
         21   -1    0    0  503  502  0.00000000000E+00  0.00000000000E+00  0.51200571939E+01  0.51200571939E+01  0.00000000000E+00 0.  1.
         21   -1    0    0  501  503 -0.00000000000E+00 -0.00000000000E+00 -0.14093079921E+03  0.14093079921E+03  0.00000000000E+00 0.  1.
          2    1    1    2  501    0  0.23263289973E+02 -0.62320693033E+01 -0.10024949862E+03  0.10310180077E+03  0.00000000000E+00 0.  1.
         -2    1    1    2    0  502 -0.23263289973E+02  0.62320693033E+01 -0.35561243401E+02  0.42949055640E+02  0.00000000000E+00 0. -1.
<mgrwt>
<rscale>  2 0.24083591E+02</rscale>
<asrwt>0</asrwt>
<pdfrwt beam="1">  1       21 0.78770122E-03 0.24083591E+02</pdfrwt>
<pdfrwt beam="2">  1       21 0.21681658E-01 0.24083591E+02</pdfrwt>
<totfact> 0.77369826E+07</totfact>
</mgrwt>
</event>
<event>
 4    1  0.3862688E+004  0.2525419E+02  0.7546771E-02  0.1657378E+00
         21   -1    0    0  501  502  0.00000000000E+00  0.00000000000E+00  0.82135421329E+02  0.82135421329E+02  0.00000000000E+00 0. -1.
         21   -1    0    0  502  503 -0.00000000000E+00 -0.00000000000E+00 -0.81389813279E+01  0.81389813279E+01  0.00000000000E+00 0. -1.
          3    1    1    2  501    0  0.11501375427E+02 -0.22483155206E+02  0.27321491033E+02  0.37205346081E+02  0.00000000000E+00 0.  1.
         -3    1    1    2    0  503 -0.11501375427E+02  0.22483155206E+02  0.46674948969E+02  0.53069056577E+02  0.00000000000E+00 0. -1.
<mgrwt>
<rscale>  2 0.25254186E+02</rscale>
<asrwt>0</asrwt>
<pdfrwt beam="1">  1       21 0.12636218E-01 0.25254186E+02</pdfrwt>
<pdfrwt beam="2">  1       21 0.12521510E-02 0.25254186E+02</pdfrwt>
<totfact> 0.98794056E+07</totfact>
</mgrwt>
</event>
<event>
 4    1  0.3862688E+004  0.2050736E+02  0.7546771E-02  0.1735423E+00
         21   -1    0    0  501  502  0.00000000000E+00  0.00000000000E+00  0.16847633474E+03  0.16847633474E+03  0.00000000000E+00 0. -1.
         21   -1    0    0  502  503 -0.00000000000E+00 -0.00000000000E+00 -0.33418777456E+01  0.33418777456E+01  0.00000000000E+00 0. -1.
          2    1    1    2  501    0  0.16416134651E+02  0.12290748358E+02  0.12578320417E+03  0.12744397367E+03  0.00000000000E+00 0.  1.
         -2    1    1    2    0  503 -0.16416134651E+02 -0.12290748358E+02  0.39351252821E+02  0.44374238818E+02  0.00000000000E+00 0. -1.
<mgrwt>
<rscale>  2 0.20507364E+02</rscale>
<asrwt>0</asrwt>
<pdfrwt beam="1">  1       21 0.25919429E-01 0.20507364E+02</pdfrwt>
<pdfrwt beam="2">  1       21 0.51413517E-03 0.20507364E+02</pdfrwt>
<totfact> 0.10159996E+08</totfact>
</mgrwt>
</event>
<event>
 4    1  0.3862688E+004  0.2505129E+02  0.7546771E-02  0.1660266E+00
         21   -1    0    0  503  502  0.00000000000E+00  0.00000000000E+00  0.21385448136E+02  0.21385448136E+02  0.00000000000E+00 0. -1.
         21   -1    0    0  501  503 -0.00000000000E+00 -0.00000000000E+00 -0.30264192605E+02  0.30264192605E+02  0.00000000000E+00 0. -1.
          5    1    1    2  501    0 -0.76667586261E+01  0.23849274520E+02  0.60014152648E-01  0.25051360934E+02  0.00000000000E+00 0. -1.
         -5    1    1    2    0  502  0.76667586261E+01 -0.23849274520E+02 -0.89387586215E+01  0.26598279806E+02  0.00000000000E+00 0.  1.
<mgrwt>
<rscale>  2 0.25051289E+02</rscale>
<asrwt>0</asrwt>
<pdfrwt beam="1">  1       21 0.32900689E-02 0.25051289E+02</pdfrwt>
<pdfrwt beam="2">  1       21 0.46560296E-02 0.25051289E+02</pdfrwt>
<totfact> 0.11389644E+08</totfact>
</mgrwt>
</event>
<event>
 4    1  0.3862688E+004  0.2374488E+02  0.7546771E-02  0.1679713E+00
         21   -1    0    0  503  502  0.00000000000E+00  0.00000000000E+00  0.16589677070E+03  0.16589677070E+03  0.00000000000E+00 0.  1.
         21   -1    0    0  501  503 -0.00000000000E+00 -0.00000000000E+00 -0.58547376873E+01  0.58547376873E+01  0.00000000000E+00 0.  1.
          3    1    1    2  501    0  0.23744078856E+02 -0.19449872591E+00  0.13564242058E+03  0.13770506662E+03  0.00000000000E+00 0.  1.
         -3    1    1    2    0  502 -0.23744078856E+02  0.19449872591E+00  0.24399612429E+02  0.34046441769E+02  0.00000000000E+00 0. -1.
<mgrwt>
<rscale>  2 0.23744875E+02</rscale>
<asrwt>0</asrwt>
<pdfrwt beam="1">  1       21 0.25522577E-01 0.23744875E+02</pdfrwt>
<pdfrwt beam="2">  1       21 0.90072900E-03 0.23744875E+02</pdfrwt>
<totfact> 0.47218309E+07</totfact>
</mgrwt>
</event>
<event>
 4    1  0.3862688E+004  0.2549064E+02  0.7546771E-02  0.1654053E+00
         21   -1    0    0  503  502  0.00000000000E+00  0.00000000000E+00  0.54896965748E+01  0.54896965748E+01  0.00000000000E+00 0. -1.
         21   -1    0    0  501  503 -0.00000000000E+00 -0.00000000000E+00 -0.11898109616E+03  0.11898109616E+03  0.00000000000E+00 0. -1.
          2    1    1    2  501    0  0.10382880802E+02  0.23280219985E+02 -0.52257329469E+02  0.58142938862E+02  0.00000000000E+00 0.  1.
         -2    1    1    2    0  502 -0.10382880802E+02 -0.23280219985E+02 -0.61234070114E+02  0.66327853870E+02  0.00000000000E+00 0. -1.
<mgrwt>
<rscale>  2 0.25490643E+02</rscale>
<asrwt>0</asrwt>
<pdfrwt beam="1">  1       21 0.84456870E-03 0.25490643E+02</pdfrwt>
<pdfrwt beam="2">  1       21 0.18304784E-01 0.25490643E+02</pdfrwt>
<totfact> 0.95105024E+07</totfact>
</mgrwt>
</event>
<event>
 4    1  0.3862688E+004  0.2104112E+02  0.7546771E-02  0.1725383E+00
         21   -1    0    0  503  502  0.00000000000E+00  0.00000000000E+00  0.18215658346E+01  0.18215658346E+01  0.00000000000E+00 0.  1.
         21   -1    0    0  501  503 -0.00000000000E+00 -0.00000000000E+00 -0.27844682579E+03  0.27844682579E+03  0.00000000000E+00 0.  1.
          3    1    1    2  501    0 -0.20575930954E+02 -0.43999588101E+01 -0.88347702021E+02  0.90818748199E+02  0.00000000000E+00 0.  1.
         -3    1    1    2    0  502  0.20575930954E+02  0.43999588101E+01 -0.18827755794E+03  0.18944964343E+03  0.00000000000E+00 0. -1.
<mgrwt>
<rscale>  2 0.21041116E+02</rscale>
<asrwt>0</asrwt>
<pdfrwt beam="1">  1       21 0.28024102E-03 0.21041116E+02</pdfrwt>
<pdfrwt beam="2">  1       21 0.42837954E-01 0.21041116E+02</pdfrwt>
<totfact> 0.98734373E+07</totfact>
</mgrwt>
</event>
<event>
 4    1  0.3862688E+004  0.2203677E+02  0.7546771E-02  0.1707617E+00
         21   -1    0    0  503  502  0.00000000000E+00  0.00000000000E+00  0.73251622780E+03  0.73251622780E+03  0.00000000000E+00 0. -1.
         21   -1    0    0  501  503 -0.00000000000E+00 -0.00000000000E+00 -0.12618340807E+01  0.12618340807E+01  0.00000000000E+00 0. -1.
          4    1    1    2  501    0  0.90379920330E+01  0.20098108828E+02  0.11286847464E+03  0.11499961672E+03  0.00000000000E+00 0.  1.
         -4    1    1    2    0  502 -0.90379920330E+01 -0.20098108828E+02  0.61838591908E+03  0.61877844516E+03  0.00000000000E+00 0. -1.
<mgrwt>
<rscale>  2 0.22036771E+02</rscale>
<asrwt>0</asrwt>
<pdfrwt beam="1">  1       21 0.11269446E+00 0.22036771E+02</pdfrwt>
<pdfrwt beam="2">  1       21 0.19412891E-03 0.22036771E+02</pdfrwt>
<totfact> 0.23388429E+07</totfact>
</mgrwt>
</event>
<event>
 4    1  0.3862688E+004  0.2335338E+02  0.7546771E-02  0.1685845E+00
         21   -1    0    0  501  502  0.00000000000E+00  0.00000000000E+00  0.41464953755E+02  0.41464953755E+02  0.00000000000E+00 0. -1.
         21   -1    0    0  502  503 -0.00000000000E+00 -0.00000000000E+00 -0.13868248049E+02  0.13868248049E+02  0.00000000000E+00 0. -1.
          5    1    1    2  501    0 -0.63795604923E+01  0.22465117709E+02  0.20082315617E+02  0.30800644576E+02  0.00000000000E+00 0.  1.
         -5    1    1    2    0  503  0.63795604923E+01 -0.22465117709E+02  0.75143900888E+01  0.24532557228E+02  0.00000000000E+00 0. -1.
<mgrwt>
<rscale>  2 0.23353379E+02</rscale>
<asrwt>0</asrwt>
<pdfrwt beam="1">  1       21 0.63792236E-02 0.23353379E+02</pdfrwt>
<pdfrwt beam="2">  1       21 0.21335766E-02 0.23353379E+02</pdfrwt>
<totfact> 0.13207368E+08</totfact>
</mgrwt>
</event>
<event>
 4    1  0.3862688E+004  0.2290636E+02  0.7546771E-02  0.1693032E+00
         21   -1    0    0  503  502  0.00000000000E+00  0.00000000000E+00  0.18615504451E+02  0.18615504451E+02  0.00000000000E+00 0. -1.
         21   -1    0    0  501  503 -0.00000000000E+00 -0.00000000000E+00 -0.42740339364E+02  0.42740339364E+02  0.00000000000E+00 0. -1.
          4    1    1    2  501    0  0.14779502884E+02  0.17500504010E+02 -0.29964328962E+02  0.37716870976E+02  0.00000000000E+00 0.  1.
         -4    1    1    2    0  502 -0.14779502884E+02 -0.17500504010E+02  0.58394940494E+01  0.23638972838E+02  0.00000000000E+00 0. -1.
<mgrwt>
<rscale>  2 0.22906360E+02</rscale>
<asrwt>0</asrwt>
<pdfrwt beam="1">  1       21 0.28639238E-02 0.22906360E+02</pdfrwt>
<pdfrwt beam="2">  1       21 0.65754368E-02 0.22906360E+02</pdfrwt>
<totfact> 0.79337170E+07</totfact>
</mgrwt>
</event>
<event>
 4    1  0.3862688E+004  0.4249945E+02  0.7546771E-02  0.1490584E+00
         21   -1    0    0  503  502  0.00000000000E+00  0.00000000000E+00  0.29413461732E+04  0.29413461732E+04  0.00000000000E+00 0. -1.
         21   -1    0    0  501  503 -0.00000000000E+00 -0.00000000000E+00 -0.63652576247E+00  0.63652576247E+00  0.00000000000E+00 0. -1.
          4    1    1    2  501    0 -0.14285038352E+02  0.40026747611E+02  0.17466236187E+04  0.17471405978E+04  0.00000000000E+00 0.  1.
         -4    1    1    2    0  502  0.14285038352E+02 -0.40026747611E+02  0.11940860287E+04  0.11948421012E+04  0.00000000000E+00 0. -1.
<mgrwt>
<rscale>  2 0.42499445E+02</rscale>
<asrwt>0</asrwt>
<pdfrwt beam="1">  1       21 0.45250391E+00 0.42499445E+02</pdfrwt>
<pdfrwt beam="2">  1       21 0.97929396E-04 0.42499445E+02</pdfrwt>
<totfact> 0.70226975E+05</totfact>
</mgrwt>
</event>
<event>
 4    1  0.3862688E+004  0.2047659E+02  0.7546771E-02  0.1736013E+00
         21   -1    0    0  501  502  0.00000000000E+00  0.00000000000E+00  0.27738475215E+02  0.27738475215E+02  0.00000000000E+00 0. -1.
         21   -1    0    0  502  503 -0.00000000000E+00 -0.00000000000E+00 -0.15856659163E+02  0.15856659163E+02  0.00000000000E+00 0. -1.
          5    1    1    2  501    0  0.82244326112E+01 -0.18752313781E+02  0.10652373975E+02  0.23081673146E+02  0.00000000000E+00 0. -1.
         -5    1    1    2    0  503 -0.82244326112E+01  0.18752313781E+02  0.12294420774E+01  0.20513461232E+02  0.00000000000E+00 0.  1.
<mgrwt>
<rscale>  2 0.20476586E+02</rscale>
<asrwt>0</asrwt>
<pdfrwt beam="1">  1       21 0.42674577E-02 0.20476586E+02</pdfrwt>
<pdfrwt beam="2">  1       21 0.24394860E-02 0.20476586E+02</pdfrwt>
<totfact> 0.19570251E+08</totfact>
</mgrwt>
</event>
<event>
 4    1  0.3862688E+004  0.3002839E+02  0.7546771E-02  0.1597775E+00
         21   -1    0    0  503  502  0.00000000000E+00  0.00000000000E+00  0.19457239450E+03  0.19457239450E+03  0.00000000000E+00 0.  1.
         21   -1    0    0  501  503 -0.00000000000E+00 -0.00000000000E+00 -0.47640017211E+01  0.47640017211E+01  0.00000000000E+00 0.  1.
          4    1    1    2  501    0  0.90503819884E+01 -0.28632063741E+02  0.78458062414E+02  0.84008166544E+02  0.00000000000E+00 0.  1.
         -4    1    1    2    0  502 -0.90503819884E+01  0.28632063741E+02  0.11135033037E+03  0.11532822968E+03  0.00000000000E+00 0. -1.
<mgrwt>
<rscale>  2 0.30028395E+02</rscale>
<asrwt>0</asrwt>
<pdfrwt beam="1">  1       21 0.29934208E-01 0.30028395E+02</pdfrwt>
<pdfrwt beam="2">  1       21 0.73292349E-03 0.30028395E+02</pdfrwt>
<totfact> 0.50795765E+07</totfact>
</mgrwt>
</event>
<event>
 4    1  0.3862688E+004  0.3367488E+02  0.7546771E-02  0.1560693E+00
         21   -1    0    0  503  502  0.00000000000E+00  0.00000000000E+00  0.61267667918E+01  0.61267667918E+01  0.00000000000E+00 0.  1.
         21   -1    0    0  501  503 -0.00000000000E+00 -0.00000000000E+00 -0.19392522765E+03  0.19392522765E+03  0.00000000000E+00 0.  1.
          1    1    1    2  501    0 -0.12983697754E+02 -0.31071226261E+02 -0.72547764446E+02  0.79982345770E+02  0.00000000000E+00 0. -1.
         -1    1    1    2    0  502  0.12983697754E+02  0.31071226261E+02 -0.11525069642E+03  0.12006964867E+03  0.00000000000E+00 0.  1.
<mgrwt>
<rscale>  2 0.33674879E+02</rscale>
<asrwt>0</asrwt>
<pdfrwt beam="1">  1       21 0.94257967E-03 0.33674879E+02</pdfrwt>
<pdfrwt beam="2">  1       21 0.29834645E-01 0.33674879E+02</pdfrwt>
<totfact> 0.35751186E+07</totfact>
</mgrwt>
</event>
<event>
 4    1  0.3862688E+004  0.2007217E+02  0.7546771E-02  0.1743897E+00
         21   -1    0    0  503  502  0.00000000000E+00  0.00000000000E+00  0.20238001633E+02  0.20238001633E+02  0.00000000000E+00 0.  1.
         21   -1    0    0  501  503 -0.00000000000E+00 -0.00000000000E+00 -0.21531584528E+02  0.21531584528E+02  0.00000000000E+00 0.  1.
          5    1    1    2  501    0  0.13091913665E+02 -0.15214918827E+02  0.50886976548E+01  0.20707167892E+02  0.00000000000E+00 0.  1.
         -5    1    1    2    0  502 -0.13091913665E+02  0.15214918827E+02 -0.63822805492E+01  0.21062418268E+02  0.00000000000E+00 0. -1.
<mgrwt>
<rscale>  2 0.20072169E+02</rscale>
<asrwt>0</asrwt>
<pdfrwt beam="1">  1       21 0.31135387E-02 0.20072169E+02</pdfrwt>
<pdfrwt beam="2">  1       21 0.33125514E-02 0.20072169E+02</pdfrwt>
<totfact> 0.19819572E+08</totfact>
</mgrwt>
</event>
<event>
 4    1  0.3862688E+004  0.3942104E+02  0.7546771E-02  0.1512516E+00
         21   -1    0    0  501  502  0.00000000000E+00  0.00000000000E+00  0.25355680158E+02  0.25355680158E+02  0.00000000000E+00 0.  1.
         21   -1    0    0  502  503 -0.00000000000E+00 -0.00000000000E+00 -0.66400521155E+02  0.66400521155E+02  0.00000000000E+00 0.  1.
          4    1    1    2  501    0 -0.81465896526E+01 -0.38570081816E+02 -0.33251736437E+02  0.51572241665E+02  0.00000000000E+00 0. -1.
         -4    1    1    2    0  503  0.81465896526E+01  0.38570081816E+02 -0.77931045601E+01  0.40183959648E+02  0.00000000000E+00 0.  1.
<mgrwt>
<rscale>  2 0.39421037E+02</rscale>
<asrwt>0</asrwt>
<pdfrwt beam="1">  1       21 0.39008739E-02 0.39421037E+02</pdfrwt>
<pdfrwt beam="2">  1       21 0.10215465E-01 0.39421037E+02</pdfrwt>
<totfact> 0.26516976E+07</totfact>
</mgrwt>
</event>
<event>
 4    1  0.3862688E+004  0.2681536E+02  0.7546771E-02  0.1636218E+00
         21   -1    0    0  503  502  0.00000000000E+00  0.00000000000E+00  0.20068596423E+03  0.20068596423E+03  0.00000000000E+00 0. -1.
         21   -1    0    0  501  503 -0.00000000000E+00 -0.00000000000E+00 -0.36907471353E+01  0.36907471353E+01  0.00000000000E+00 0. -1.
          1    1    1    2  501    0 -0.26466902982E+02 -0.43089101268E+01  0.11595536277E+03  0.11901558644E+03  0.00000000000E+00 0. -1.
         -1    1    1    2    0  502  0.26466902982E+02  0.43089101268E+01  0.81039854326E+02  0.85361124929E+02  0.00000000000E+00 0.  1.
<mgrwt>
<rscale>  2 0.26815362E+02</rscale>
<asrwt>0</asrwt>
<pdfrwt beam="1">  1       21 0.30874755E-01 0.26815362E+02</pdfrwt>
<pdfrwt beam="2">  1       21 0.56780741E-03 0.26815362E+02</pdfrwt>
<totfact> 0.68527904E+07</totfact>
</mgrwt>
</event>
<event>
 4    1  0.3862688E+004  0.5175243E+02  0.7546771E-02  0.1436112E+00
         21   -1    0    0  501  502  0.00000000000E+00  0.00000000000E+00  0.31059343640E+02  0.31059343640E+02  0.00000000000E+00 0.  1.
         21   -1    0    0  502  503 -0.00000000000E+00 -0.00000000000E+00 -0.94460711515E+02  0.94460711515E+02  0.00000000000E+00 0.  1.
          2    1    1    2  501    0  0.50294780902E+01 -0.51507462238E+02 -0.13177348398E+02  0.53403715478E+02  0.00000000000E+00 0. -1.
         -2    1    1    2    0  503 -0.50294780902E+01  0.51507462238E+02 -0.50224019476E+02  0.72116339677E+02  0.00000000000E+00 0.  1.
<mgrwt>
<rscale>  2 0.51752433E+02</rscale>
<asrwt>0</asrwt>
<pdfrwt beam="1">  1       21 0.47783606E-02 0.51752433E+02</pdfrwt>
<pdfrwt beam="2">  1       21 0.14532417E-01 0.51752433E+02</pdfrwt>
<totfact> 0.10831572E+07</totfact>
</mgrwt>
</event>
<event>
 4    1  0.3862688E+004  0.2273376E+02  0.7546771E-02  0.1695862E+00
         21   -1    0    0  503  502  0.00000000000E+00  0.00000000000E+00  0.59026693367E+01  0.59026693367E+01  0.00000000000E+00 0.  1.
         21   -1    0    0  501  503 -0.00000000000E+00 -0.00000000000E+00 -0.10141778669E+03  0.10141778669E+03  0.00000000000E+00 0.  1.
          1    1    1    2  501    0  0.22184471778E+02 -0.49672030825E+01 -0.27920416612E+02  0.36005187936E+02  0.00000000000E+00 0. -1.
         -1    1    1    2    0  502 -0.22184471778E+02  0.49672030825E+01 -0.67594700737E+02  0.71315268086E+02  0.00000000000E+00 0.  1.
<mgrwt>
<rscale>  2 0.22733761E+02</rscale>
<asrwt>0</asrwt>
<pdfrwt beam="1">  1       21 0.90810305E-03 0.22733761E+02</pdfrwt>
<pdfrwt beam="2">  1       21 0.15602735E-01 0.22733761E+02</pdfrwt>
<totfact> 0.10889296E+08</totfact>
</mgrwt>
</event>
<event>
 4    1  0.3862688E+004  0.2271854E+02  0.7546771E-02  0.1696114E+00
         21   -1    0    0  503  502  0.00000000000E+00  0.00000000000E+00  0.12782079362E+03  0.12782079362E+03  0.00000000000E+00 0.  1.
         21   -1    0    0  501  503 -0.00000000000E+00 -0.00000000000E+00 -0.51291050245E+01  0.51291050245E+01  0.00000000000E+00 0.  1.
          5    1    1    2  501    0  0.55243183964E+01  0.22036648337E+02  0.92006650961E+02  0.94770015220E+02  0.00000000000E+00 0.  1.
         -5    1    1    2    0  502 -0.55243183964E+01 -0.22036648337E+02  0.30685037634E+02  0.38179883424E+02  0.00000000000E+00 0. -1.
<mgrwt>
<rscale>  2 0.22718538E+02</rscale>
<asrwt>0</asrwt>
<pdfrwt beam="1">  1       21 0.19664735E-01 0.22718538E+02</pdfrwt>
<pdfrwt beam="2">  1       21 0.78909318E-03 0.22718538E+02</pdfrwt>
<totfact> 0.90133857E+07</totfact>
</mgrwt>
</event>
<event>
 4    1  0.3862688E+004  0.2358424E+02  0.7546771E-02  0.1682211E+00
         21   -1    0    0  503  502  0.00000000000E+00  0.00000000000E+00  0.66284027707E+03  0.66284027707E+03  0.00000000000E+00 0.  1.
         21   -1    0    0  501  503 -0.00000000000E+00 -0.00000000000E+00 -0.89429545420E+00  0.89429545420E+00  0.00000000000E+00 0.  1.
          3    1    1    2  501    0 -0.12613835898E+02 -0.19927556340E+02  0.41338960967E+03  0.41406181391E+03  0.00000000000E+00 0.  1.
         -3    1    1    2    0  502  0.12613835898E+02  0.19927556340E+02  0.24855637195E+03  0.24967275862E+03  0.00000000000E+00 0. -1.
<mgrwt>
<rscale>  2 0.23584240E+02</rscale>
<asrwt>0</asrwt>
<pdfrwt beam="1">  1       21 0.10197503E+00 0.23584240E+02</pdfrwt>
<pdfrwt beam="2">  1       21 0.13758445E-03 0.23584240E+02</pdfrwt>
<totfact> 0.48543528E+07</totfact>
</mgrwt>
</event>
<event>
 4    1  0.3862688E+004  0.2353100E+02  0.7546771E-02  0.1683045E+00
         21   -1    0    0  503  502  0.00000000000E+00  0.00000000000E+00  0.11879422723E+01  0.11879422723E+01  0.00000000000E+00 0. -1.
         21   -1    0    0  501  503 -0.00000000000E+00 -0.00000000000E+00 -0.46660124229E+03  0.46660124229E+03  0.00000000000E+00 0. -1.
          5    1    1    2  501    0  0.11816024999E+02 -0.20349192146E+02 -0.24031988618E+03  0.24146916109E+03  0.00000000000E+00 0.  1.
         -5    1    1    2    0  502 -0.11816024999E+02  0.20349192146E+02 -0.22509341385E+03  0.22632002347E+03  0.00000000000E+00 0. -1.
<mgrwt>
<rscale>  2 0.23531002E+02</rscale>
<asrwt>0</asrwt>
<pdfrwt beam="1">  1       21 0.18275992E-03 0.23531002E+02</pdfrwt>
<pdfrwt beam="2">  1       21 0.71784976E-01 0.23531002E+02</pdfrwt>
<totfact> 0.68045916E+07</totfact>
</mgrwt>
</event>
<event>
 4    1  0.3862688E+004  0.2720488E+02  0.7546771E-02  0.1631213E+00
         21   -1    0    0  501  502  0.00000000000E+00  0.00000000000E+00  0.69789916880E+02  0.69789916880E+02  0.00000000000E+00 0. -1.
         21   -1    0    0  502  503 -0.00000000000E+00 -0.00000000000E+00 -0.13298636794E+02  0.13298636794E+02  0.00000000000E+00 0. -1.
          3    1    1    2  501    0  0.14493584746E+02  0.23022629963E+02  0.95475903765E+01  0.28831614093E+02  0.00000000000E+00 0. -1.
         -3    1    1    2    0  503 -0.14493584746E+02 -0.23022629963E+02  0.46943689709E+02  0.54256939582E+02  0.00000000000E+00 0.  1.
<mgrwt>
<rscale>  2 0.27204880E+02</rscale>
<asrwt>0</asrwt>
<pdfrwt beam="1">  1       21 0.10736910E-01 0.27204880E+02</pdfrwt>
<pdfrwt beam="2">  1       21 0.20459442E-02 0.27204880E+02</pdfrwt>
<totfact> 0.62420639E+07</totfact>
</mgrwt>
</event>
<event>
 4    1  0.3862688E+004  0.2160337E+02  0.7546771E-02  0.1715203E+00
         21   -1    0    0  503  502  0.00000000000E+00  0.00000000000E+00  0.16531849971E+01  0.16531849971E+01  0.00000000000E+00 0.  1.
         21   -1    0    0  501  503 -0.00000000000E+00 -0.00000000000E+00 -0.28663380885E+03  0.28663380885E+03  0.00000000000E+00 0.  1.
          4    1    1    2  501    0  0.19982162505E+02 -0.82108827494E+01 -0.12478009851E+03  0.12663640234E+03  0.00000000000E+00 0.  1.
         -4    1    1    2    0  502 -0.19982162505E+02  0.82108827494E+01 -0.16020052534E+03  0.16165059150E+03  0.00000000000E+00 0. -1.
<mgrwt>
<rscale>  2 0.21603366E+02</rscale>
<asrwt>0</asrwt>
<pdfrwt beam="1">  1       21 0.25433612E-03 0.21603366E+02</pdfrwt>
<pdfrwt beam="2">  1       21 0.44097515E-01 0.21603366E+02</pdfrwt>
<totfact> 0.10832291E+08</totfact>
</mgrwt>
</event>
<event>
 4    1  0.3862688E+004  0.2238028E+02  0.7546771E-02  0.1701757E+00
         21   -1    0    0  501  502  0.00000000000E+00  0.00000000000E+00  0.20326013072E+03  0.20326013072E+03  0.00000000000E+00 0.  1.
         21   -1    0    0  502  503 -0.00000000000E+00 -0.00000000000E+00 -0.25242991658E+01  0.25242991658E+01  0.00000000000E+00 0.  1.
          4    1    1    2  501    0  0.12493848170E+02  0.18568265155E+02  0.84493738180E+02  0.87407485403E+02  0.00000000000E+00 0. -1.
         -4    1    1    2    0  503 -0.12493848170E+02 -0.18568265155E+02  0.11624209337E+03  0.11837694448E+03  0.00000000000E+00 0.  1.
<mgrwt>
<rscale>  2 0.22380275E+02</rscale>
<asrwt>0</asrwt>
<pdfrwt beam="1">  1       21 0.31270777E-01 0.22380275E+02</pdfrwt>
<pdfrwt beam="2">  1       21 0.38835388E-03 0.22380275E+02</pdfrwt>
<totfact> 0.11201947E+08</totfact>
</mgrwt>
</event>
<event>
 4    1  0.3862688E+004  0.2248121E+02  0.7546771E-02  0.1700060E+00
         21   -1    0    0  501  502  0.00000000000E+00  0.00000000000E+00  0.15759683502E+03  0.15759683502E+03  0.00000000000E+00 0. -1.
         21   -1    0    0  502  503 -0.00000000000E+00 -0.00000000000E+00 -0.56510045105E+01  0.56510045105E+01  0.00000000000E+00 0. -1.
          2    1    1    2  501    0  0.99765500064E+01  0.20146293601E+02  0.22293184228E+02  0.31660555253E+02  0.00000000000E+00 0.  1.
         -2    1    1    2    0  503 -0.99765500064E+01 -0.20146293601E+02  0.12965264628E+03  0.13158728427E+03  0.00000000000E+00 0. -1.
<mgrwt>
<rscale>  2 0.22481208E+02</rscale>
<asrwt>0</asrwt>
<pdfrwt beam="1">  1       21 0.24245664E-01 0.22481208E+02</pdfrwt>
<pdfrwt beam="2">  1       21 0.86938543E-03 0.22481208E+02</pdfrwt>
<totfact> 0.53821217E+07</totfact>
</mgrwt>
</event>
<event>
 4    1  0.3862688E+004  0.4625182E+02  0.7546771E-02  0.1466675E+00
         21   -1    0    0  503  502  0.00000000000E+00  0.00000000000E+00  0.85259835824E+01  0.85259835824E+01  0.00000000000E+00 0.  1.
         21   -1    0    0  501  503 -0.00000000000E+00 -0.00000000000E+00 -0.25533960844E+03  0.25533960844E+03  0.00000000000E+00 0.  1.
          3    1    1    2  501    0  0.44197295761E+02  0.13631949412E+02 -0.14078928953E+03  0.14819195337E+03  0.00000000000E+00 0. -1.
         -3    1    1    2    0  502 -0.44197295761E+02 -0.13631949412E+02 -0.10602433533E+03  0.11567363865E+03  0.00000000000E+00 0.  1.
<mgrwt>
<rscale>  2 0.46251822E+02</rscale>
<asrwt>0</asrwt>
<pdfrwt beam="1">  1       21 0.13116900E-02 0.46251822E+02</pdfrwt>
<pdfrwt beam="2">  1       21 0.39283012E-01 0.46251822E+02</pdfrwt>
<totfact> 0.13461699E+07</totfact>
</mgrwt>
</event>
<event>
 4    1  0.3862688E+004  0.2024318E+02  0.7546771E-02  0.1740535E+00
         21   -1    0    0  503  502  0.00000000000E+00  0.00000000000E+00  0.72628960990E+02  0.72628960990E+02  0.00000000000E+00 0. -1.
         21   -1    0    0  501  503 -0.00000000000E+00 -0.00000000000E+00 -0.56680944196E+01  0.56680944196E+01  0.00000000000E+00 0. -1.
          3    1    1    2  501    0  0.17529882710E+02 -0.10123711897E+02  0.30833813452E+02  0.36885097023E+02  0.00000000000E+00 0.  1.
         -3    1    1    2    0  502 -0.17529882710E+02  0.10123711897E+02  0.36127053118E+02  0.41411958386E+02  0.00000000000E+00 0. -1.
<mgrwt>
<rscale>  2 0.20243180E+02</rscale>
<asrwt>0</asrwt>
<pdfrwt beam="1">  1       21 0.11173686E-01 0.20243180E+02</pdfrwt>
<pdfrwt beam="2">  1       21 0.87201458E-03 0.20243180E+02</pdfrwt>
<totfact> 0.19587379E+08</totfact>
</mgrwt>
</event>
<event>
 4    1  0.3862688E+004  0.3171006E+02  0.7546771E-02  0.1579921E+00
         21   -1    0    0  501  502  0.00000000000E+00  0.00000000000E+00  0.27225403010E+02  0.27225403010E+02  0.00000000000E+00 0.  1.
         21   -1    0    0  502  503 -0.00000000000E+00 -0.00000000000E+00 -0.52252071487E+02  0.52252071487E+02  0.00000000000E+00 0.  1.
          4    1    1    2  501    0 -0.11396798937E+01  0.31689574889E+02 -0.34029860939E+02  0.46514078110E+02  0.00000000000E+00 0.  1.
         -4    1    1    2    0  503  0.11396798937E+01 -0.31689574889E+02  0.90031924626E+01  0.32963396387E+02  0.00000000000E+00 0. -1.
<mgrwt>
<rscale>  2 0.31710062E+02</rscale>
<asrwt>0</asrwt>
<pdfrwt beam="1">  1       21 0.41885236E-02 0.31710062E+02</pdfrwt>
<pdfrwt beam="2">  1       21 0.80387802E-02 0.31710062E+02</pdfrwt>
<totfact> 0.33915878E+07</totfact>
</mgrwt>
</event>
<event>
 4    1  0.3862688E+004  0.2774965E+02  0.7546771E-02  0.1624384E+00
         21   -1    0    0  501  502  0.00000000000E+00  0.00000000000E+00  0.42791950672E+03  0.42791950672E+03  0.00000000000E+00 0. -1.
         21   -1    0    0  502  503 -0.00000000000E+00 -0.00000000000E+00 -0.20426520690E+01  0.20426520690E+01  0.00000000000E+00 0. -1.
          2    1    1    2  501    0  0.22534035085E+02  0.16194462341E+02  0.28710999238E+03  0.28844790010E+03  0.00000000000E+00 0. -1.
         -2    1    1    2    0  503 -0.22534035085E+02 -0.16194462341E+02  0.13876686228E+03  0.14151425870E+03  0.00000000000E+00 0.  1.
<mgrwt>
<rscale>  2 0.27749655E+02</rscale>
<asrwt>0</asrwt>
<pdfrwt beam="1">  1       21 0.65833699E-01 0.27749655E+02</pdfrwt>
<pdfrwt beam="2">  1       21 0.31425451E-03 0.27749655E+02</pdfrwt>
<totfact> 0.38276266E+07</totfact>
</mgrwt>
</event>
<event>
 4    1  0.3862688E+004  0.2212522E+02  0.7546771E-02  0.1706095E+00
         21   -1    0    0  501  502  0.00000000000E+00  0.00000000000E+00  0.18734274196E+01  0.18734274196E+01  0.00000000000E+00 0. -1.
         21   -1    0    0  502  503 -0.00000000000E+00 -0.00000000000E+00 -0.28172852944E+03  0.28172852944E+03  0.00000000000E+00 0. -1.
          4    1    1    2  501    0 -0.13873950540E+02  0.17234820649E+02 -0.10174295000E+03  0.10412085968E+03  0.00000000000E+00 0. -1.
         -4    1    1    2    0  503  0.13873950540E+02 -0.17234820649E+02 -0.17811215202E+03  0.17948109717E+03  0.00000000000E+00 0.  1.
<mgrwt>
<rscale>  2 0.22125224E+02</rscale>
<asrwt>0</asrwt>
<pdfrwt beam="1">  1       21 0.28821976E-03 0.22125224E+02</pdfrwt>
<pdfrwt beam="2">  1       21 0.43342827E-01 0.22125224E+02</pdfrwt>
<totfact> 0.93957245E+07</totfact>
</mgrwt>
</event>
<event>
 4    1  0.3862688E+004  0.3601926E+02  0.7546771E-02  0.1539731E+00
         21   -1    0    0  501  502  0.00000000000E+00  0.00000000000E+00  0.29401374421E+01  0.29401374421E+01  0.00000000000E+00 0.  1.
         21   -1    0    0  502  503 -0.00000000000E+00 -0.00000000000E+00 -0.52963595719E+03  0.52963595719E+03  0.00000000000E+00 0.  1.
          5    1    1    2  501    0 -0.30353497569E+02 -0.19392071272E+02 -0.37211849330E+03  0.37385767385E+03  0.00000000000E+00 0.  1.
         -5    1    1    2    0  503  0.30353497569E+02  0.19392071272E+02 -0.15457732645E+03  0.15871842078E+03  0.00000000000E+00 0. -1.
<mgrwt>
<rscale>  2 0.36019262E+02</rscale>
<asrwt>0</asrwt>
<pdfrwt beam="1">  1       21 0.45232949E-03 0.36019262E+02</pdfrwt>
<pdfrwt beam="2">  1       21 0.81482338E-01 0.36019262E+02</pdfrwt>
<totfact> 0.14919910E+07</totfact>
</mgrwt>
</event>
<event>
 4    1  0.3862688E+004  0.2332642E+02  0.7546771E-02  0.1686273E+00
         21   -1    0    0  503  502  0.00000000000E+00  0.00000000000E+00  0.81352116704E+01  0.81352116704E+01  0.00000000000E+00 0.  1.
         21   -1    0    0  501  503 -0.00000000000E+00 -0.00000000000E+00 -0.70412723562E+02  0.70412723562E+02  0.00000000000E+00 0.  1.
          4    1    1    2  501    0  0.20016581390E+02 -0.11977417724E+02 -0.39929757018E+02  0.46244000275E+02  0.00000000000E+00 0. -1.
         -4    1    1    2    0  502 -0.20016581390E+02  0.11977417724E+02 -0.22347754873E+02  0.32303934958E+02  0.00000000000E+00 0.  1.
<mgrwt>
<rscale>  2 0.23326424E+02</rscale>
<asrwt>0</asrwt>
<pdfrwt beam="1">  1       21 0.12515710E-02 0.23326424E+02</pdfrwt>
<pdfrwt beam="2">  1       21 0.10832727E-01 0.23326424E+02</pdfrwt>
<totfact> 0.12517663E+08</totfact>
</mgrwt>
</event>
<event>
 4    1  0.3862688E+004  0.2676536E+02  0.7546771E-02  0.1636868E+00
         21   -1    0    0  501  502  0.00000000000E+00  0.00000000000E+00  0.49386938268E+03  0.49386938268E+03  0.00000000000E+00 0.  1.
         21   -1    0    0  502  503 -0.00000000000E+00 -0.00000000000E+00 -0.19681087582E+01  0.19681087582E+01  0.00000000000E+00 0.  1.
          3    1    1    2  501    0 -0.17383814103E+02 -0.20351600247E+02  0.11881637163E+03  0.12179373872E+03  0.00000000000E+00 0. -1.
         -3    1    1    2    0  503  0.17383814103E+02  0.20351600247E+02  0.37308490230E+03  0.37404375272E+03  0.00000000000E+00 0.  1.
<mgrwt>
<rscale>  2 0.26765362E+02</rscale>
<asrwt>0</asrwt>
<pdfrwt beam="1">  1       21 0.75979806E-01 0.26765362E+02</pdfrwt>
<pdfrwt beam="2">  1       21 0.30278636E-03 0.26765362E+02</pdfrwt>
<totfact> 0.29837386E+07</totfact>
</mgrwt>
</event>
<event>
 4    1  0.3862688E+004  0.2732074E+02  0.7546771E-02  0.1629744E+00
         21   -1    0    0  503  502  0.00000000000E+00  0.00000000000E+00  0.57661665819E+02  0.57661665819E+02  0.00000000000E+00 0.  1.
         21   -1    0    0  501  503 -0.00000000000E+00 -0.00000000000E+00 -0.15160116139E+02  0.15160116139E+02  0.00000000000E+00 0.  1.
          4    1    1    2  501    0 -0.24730905748E+02 -0.11610571520E+02  0.35169213590E+02  0.44534218918E+02  0.00000000000E+00 0.  1.
         -4    1    1    2    0  502  0.24730905748E+02  0.11610571520E+02  0.73323360898E+01  0.28287563039E+02  0.00000000000E+00 0. -1.
<mgrwt>
<rscale>  2 0.27320744E+02</rscale>
<asrwt>0</asrwt>
<pdfrwt beam="1">  1       21 0.88710254E-02 0.27320744E+02</pdfrwt>
<pdfrwt beam="2">  1       21 0.23323256E-02 0.27320744E+02</pdfrwt>
<totfact> 0.70072279E+07</totfact>
</mgrwt>
</event>
<event>
 4    1  0.3862688E+004  0.2390741E+02  0.7546771E-02  0.1677210E+00
         21   -1    0    0  501  502  0.00000000000E+00  0.00000000000E+00  0.22977691169E+01  0.22977691169E+01  0.00000000000E+00 0.  1.
         21   -1    0    0  502  503 -0.00000000000E+00 -0.00000000000E+00 -0.25303737372E+03  0.25303737372E+03  0.00000000000E+00 0.  1.
          3    1    1    2  501    0  0.91376266707E+01 -0.22092260281E+02 -0.14199296109E+03  0.14399154553E+03  0.00000000000E+00 0. -1.
         -3    1    1    2    0  503 -0.91376266707E+01  0.22092260281E+02 -0.10874664351E+03  0.11134359731E+03  0.00000000000E+00 0.  1.
<mgrwt>
<rscale>  2 0.23907409E+02</rscale>
<asrwt>0</asrwt>
<pdfrwt beam="1">  1       21 0.35350300E-03 0.23907409E+02</pdfrwt>
<pdfrwt beam="2">  1       21 0.38928820E-01 0.23907409E+02</pdfrwt>
<totfact> 0.87197720E+07</totfact>
</mgrwt>
</event>
<event>
 4    1  0.3862688E+004  0.2299967E+02  0.7546771E-02  0.1691515E+00
         21   -1    0    0  503  502  0.00000000000E+00  0.00000000000E+00  0.32782864591E+02  0.32782864591E+02  0.00000000000E+00 0.  1.
         21   -1    0    0  501  503 -0.00000000000E+00 -0.00000000000E+00 -0.35674728054E+02  0.35674728054E+02  0.00000000000E+00 0.  1.
          4    1    1    2  501    0 -0.20164430606E+02  0.11062580656E+02  0.23885469598E+02  0.33158718466E+02  0.00000000000E+00 0. -1.
         -4    1    1    2    0  502  0.20164430606E+02 -0.11062580656E+02 -0.26777333061E+02  0.35298874179E+02  0.00000000000E+00 0.  1.
<mgrwt>
<rscale>  2 0.22999673E+02</rscale>
<asrwt>0</asrwt>
<pdfrwt beam="1">  1       21 0.50435176E-02 0.22999673E+02</pdfrwt>
<pdfrwt beam="2">  1       21 0.54884197E-02 0.22999673E+02</pdfrwt>
<totfact> 0.43600960E+07</totfact>
</mgrwt>
</event>
<event>
 4    1  0.3862688E+004  0.3721329E+02  0.7546771E-02  0.1529781E+00
         21   -1    0    0  501  502  0.00000000000E+00  0.00000000000E+00  0.67662546181E+03  0.67662546181E+03  0.00000000000E+00 0. -1.
         21   -1    0    0  502  503 -0.00000000000E+00 -0.00000000000E+00 -0.28844768486E+01  0.28844768486E+01  0.00000000000E+00 0. -1.
          5    1    1    2  501    0  0.20494581351E+02 -0.31061244158E+02  0.51997724036E+03  0.52130716401E+03  0.00000000000E+00 0.  1.
         -5    1    1    2    0  503 -0.20494581351E+02  0.31061244158E+02  0.15376374460E+03  0.15820277465E+03  0.00000000000E+00 0. -1.
<mgrwt>
<rscale>  2 0.37213287E+02</rscale>
<asrwt>0</asrwt>
<pdfrwt beam="1">  1       21 0.10409610E+00 0.37213287E+02</pdfrwt>
<pdfrwt beam="2">  1       21 0.44376621E-03 0.37213287E+02</pdfrwt>
<totfact> 0.89986684E+06</totfact>
</mgrwt>
</event>
<event>
 4    1  0.3862688E+004  0.2153169E+02  0.7546771E-02  0.1716479E+00
         21   -1    0    0  503  502  0.00000000000E+00  0.00000000000E+00  0.50467182226E+02  0.50467182226E+02  0.00000000000E+00 0.  1.
         21   -1    0    0  501  503 -0.00000000000E+00 -0.00000000000E+00 -0.98770049921E+01  0.98770049921E+01  0.00000000000E+00 0.  1.
          4    1    1    2  501    0  0.13221312001E+01 -0.21491055844E+02  0.12317042958E+02  0.24805706187E+02  0.00000000000E+00 0. -1.
         -4    1    1    2    0  502 -0.13221312001E+01  0.21491055844E+02  0.28273134276E+02  0.35538481032E+02  0.00000000000E+00 0.  1.
<mgrwt>
<rscale>  2 0.21531686E+02</rscale>
<asrwt>0</asrwt>
<pdfrwt beam="1">  1       21 0.77641817E-02 0.21531686E+02</pdfrwt>
<pdfrwt beam="2">  1       21 0.15195393E-02 0.21531686E+02</pdfrwt>
<totfact> 0.15747562E+08</totfact>
</mgrwt>
</event>
<event>
 4    1  0.3862688E+004  0.3141561E+02  0.7546771E-02  0.1582948E+00
         21   -1    0    0  501  502  0.00000000000E+00  0.00000000000E+00  0.22622612344E+03  0.22622612344E+03  0.00000000000E+00 0.  1.
         21   -1    0    0  502  503 -0.00000000000E+00 -0.00000000000E+00 -0.54615894924E+01  0.54615894924E+01  0.00000000000E+00 0.  1.
          1    1    1    2  501    0  0.16763129111E+02  0.26569489181E+02  0.58417993040E+02  0.66329496936E+02  0.00000000000E+00 0.  1.
         -1    1    1    2    0  503 -0.16763129111E+02 -0.26569489181E+02  0.16234654091E+03  0.16535821600E+03  0.00000000000E+00 0. -1.
<mgrwt>
<rscale>  2 0.31415605E+02</rscale>
<asrwt>0</asrwt>
<pdfrwt beam="1">  1       21 0.34804012E-01 0.31415605E+02</pdfrwt>
<pdfrwt beam="2">  1       21 0.84024471E-03 0.31415605E+02</pdfrwt>
<totfact> 0.31530549E+07</totfact>
</mgrwt>
</event>
<event>
 4    1  0.3862688E+004  0.2269957E+02  0.7546771E-02  0.1696427E+00
         21   -1    0    0  501  502  0.00000000000E+00  0.00000000000E+00  0.36680606560E+03  0.36680606560E+03  0.00000000000E+00 0. -1.
         21   -1    0    0  502  503 -0.00000000000E+00 -0.00000000000E+00 -0.16734960219E+01  0.16734960219E+01  0.00000000000E+00 0. -1.
          4    1    1    2  501    0  0.33427300201E+01  0.22452099577E+02  0.10873464203E+03  0.11107876933E+03  0.00000000000E+00 0.  1.
         -4    1    1    2    0  503 -0.33427300201E+01 -0.22452099577E+02  0.25639792755E+03  0.25740079229E+03  0.00000000000E+00 0. -1.
<mgrwt>
<rscale>  2 0.22699573E+02</rscale>
<asrwt>0</asrwt>
<pdfrwt beam="1">  1       21 0.56431638E-01 0.22699573E+02</pdfrwt>
<pdfrwt beam="2">  1       21 0.25746122E-03 0.22699573E+02</pdfrwt>
<totfact> 0.66796423E+07</totfact>
</mgrwt>
</event>
<event>
 4    1  0.3862688E+004  0.2120759E+02  0.7546771E-02  0.1722328E+00
         21   -1    0    0  503  502  0.00000000000E+00  0.00000000000E+00  0.79163895019E+01  0.79163895019E+01  0.00000000000E+00 0. -1.
         21   -1    0    0  501  503 -0.00000000000E+00 -0.00000000000E+00 -0.56861043153E+02  0.56861043153E+02  0.00000000000E+00 0. -1.
          2    1    1    2  501    0 -0.75743402375E+01 -0.19808865905E+02 -0.23540772643E+02  0.31684850877E+02  0.00000000000E+00 0.  1.
         -2    1    1    2    0  502  0.75743402375E+01  0.19808865905E+02 -0.25403881009E+02  0.33092581778E+02  0.00000000000E+00 0. -1.
<mgrwt>
<rscale>  2 0.21207588E+02</rscale>
<asrwt>0</asrwt>
<pdfrwt beam="1">  1       21 0.12179061E-02 0.21207588E+02</pdfrwt>
<pdfrwt beam="2">  1       21 0.87478529E-02 0.21207588E+02</pdfrwt>
<totfact> 0.18030157E+08</totfact>
</mgrwt>
</event>
<event>
 4    1  0.3862688E+004  0.3825304E+02  0.7546771E-02  0.1521475E+00
         21   -1    0    0  503  502  0.00000000000E+00  0.00000000000E+00  0.12036452198E+02  0.12036452198E+02  0.00000000000E+00 0. -1.
         21   -1    0    0  501  503 -0.00000000000E+00 -0.00000000000E+00 -0.12719623973E+03  0.12719623973E+03  0.00000000000E+00 0. -1.
          3    1    1    2  501    0 -0.25182236323E+02 -0.28794966072E+02 -0.72218762123E+02  0.81724198986E+02  0.00000000000E+00 0. -1.
         -3    1    1    2    0  502  0.25182236323E+02  0.28794966072E+02 -0.42941025413E+02  0.57508492946E+02  0.00000000000E+00 0.  1.
<mgrwt>
<rscale>  2 0.38253040E+02</rscale>
<asrwt>0</asrwt>
<pdfrwt beam="1">  1       21 0.18517619E-02 0.38253040E+02</pdfrwt>
<pdfrwt beam="2">  1       21 0.19568652E-01 0.38253040E+02</pdfrwt>
<totfact> 0.27787773E+07</totfact>
</mgrwt>
</event>
<event>
 4    1  0.3862688E+004  0.3481149E+02  0.7546771E-02  0.1550281E+00
         21   -1    0    0  501  502  0.00000000000E+00  0.00000000000E+00  0.42374187323E+01  0.42374187323E+01  0.00000000000E+00 0. -1.
         21   -1    0    0  502  503 -0.00000000000E+00 -0.00000000000E+00 -0.60386303838E+03  0.60386303838E+03  0.00000000000E+00 0. -1.
          1    1    1    2  501    0 -0.10136026209E+01  0.34796729390E+02 -0.52041312028E+03  0.52157612630E+03  0.00000000000E+00 0.  1.
         -1    1    1    2    0  503  0.10136026209E+01 -0.34796729390E+02 -0.79212499373E+02  0.86524330818E+02  0.00000000000E+00 0. -1.
<mgrwt>
<rscale>  2 0.34811489E+02</rscale>
<asrwt>0</asrwt>
<pdfrwt beam="1">  1       21 0.65191100E-03 0.34811489E+02</pdfrwt>
<pdfrwt beam="2">  1       21 0.92901946E-01 0.34811489E+02</pdfrwt>
<totfact> 0.64640643E+06</totfact>
</mgrwt>
</event>
<event>
 4    1  0.3862688E+004  0.2587883E+02  0.7546771E-02  0.1648691E+00
         21   -1    0    0  501  502  0.00000000000E+00  0.00000000000E+00  0.62636482105E+01  0.62636482105E+01  0.00000000000E+00 0. -1.
         21   -1    0    0  502  503 -0.00000000000E+00 -0.00000000000E+00 -0.10703182282E+03  0.10703182282E+03  0.00000000000E+00 0. -1.
          3    1    1    2  501    0  0.18730623189E+02 -0.17857140663E+02 -0.48558901946E+02  0.55024364384E+02  0.00000000000E+00 0.  1.
         -3    1    1    2    0  503 -0.18730623189E+02  0.17857140663E+02 -0.52209272662E+02  0.58271106644E+02  0.00000000000E+00 0. -1.
<mgrwt>
<rscale>  2 0.25878828E+02</rscale>
<asrwt>0</asrwt>
<pdfrwt beam="1">  1       21 0.96363818E-03 0.25878828E+02</pdfrwt>
<pdfrwt beam="2">  1       21 0.16466434E-01 0.25878828E+02</pdfrwt>
<totfact> 0.94043133E+07</totfact>
</mgrwt>
</event>
<event>
 4    1  0.3862688E+004  0.2691761E+02  0.7546771E-02  0.1634894E+00
         21   -1    0    0  503  502  0.00000000000E+00  0.00000000000E+00  0.75374158803E+00  0.75374158803E+00  0.00000000000E+00 0.  1.
         21   -1    0    0  501  503 -0.00000000000E+00 -0.00000000000E+00 -0.11485826639E+04  0.11485826639E+04  0.00000000000E+00 0.  1.
          1    1    1    2  501    0 -0.77568764981E+01  0.25775740822E+02 -0.34185134595E+03  0.34290946426E+03  0.00000000000E+00 0. -1.
         -1    1    1    2    0  502  0.77568764981E+01 -0.25775740822E+02 -0.80597757638E+03  0.80642694125E+03  0.00000000000E+00 0.  1.
<mgrwt>
<rscale>  2 0.26917614E+02</rscale>
<asrwt>0</asrwt>
<pdfrwt beam="1">  1       21 0.11595984E-03 0.26917614E+02</pdfrwt>
<pdfrwt beam="2">  1       21 0.17670565E+00 0.26917614E+02</pdfrwt>
<totfact> 0.17592797E+07</totfact>
</mgrwt>
</event>
<event>
 4    1  0.3862688E+004  0.2907438E+02  0.7546771E-02  0.1608551E+00
         21   -1    0    0  501  502  0.00000000000E+00  0.00000000000E+00  0.16405512585E+02  0.16405512585E+02  0.00000000000E+00 0. -1.
         21   -1    0    0  502  503 -0.00000000000E+00 -0.00000000000E+00 -0.56443041300E+02  0.56443041300E+02  0.00000000000E+00 0. -1.
          3    1    1    2  501    0  0.28955116189E+02  0.26307818698E+01 -0.92686629852E+01  0.30516026614E+02  0.00000000000E+00 0.  1.
         -3    1    1    2    0  503 -0.28955116189E+02 -0.26307818698E+01 -0.30768865731E+02  0.42332527271E+02  0.00000000000E+00 0. -1.
<mgrwt>
<rscale>  2 0.29074383E+02</rscale>
<asrwt>0</asrwt>
<pdfrwt beam="1">  1       21 0.25239250E-02 0.29074383E+02</pdfrwt>
<pdfrwt beam="2">  1       21 0.86835447E-02 0.29074383E+02</pdfrwt>
<totfact> 0.65182617E+07</totfact>
</mgrwt>
</event>
<event>
 4    1  0.3862688E+004  0.2271880E+02  0.7546771E-02  0.1696109E+00
         21   -1    0    0  501  502  0.00000000000E+00  0.00000000000E+00  0.23545255726E+01  0.23545255726E+01  0.00000000000E+00 0. -1.
         21   -1    0    0  502  503 -0.00000000000E+00 -0.00000000000E+00 -0.21935661639E+03  0.21935661639E+03  0.00000000000E+00 0. -1.
          5    1    1    2  501    0  0.21540806853E+02  0.72206440419E+01 -0.11133148345E+03  0.11362589171E+03  0.00000000000E+00 0. -1.
         -5    1    1    2    0  503 -0.21540806853E+02 -0.72206440419E+01 -0.10567060736E+03  0.10808525025E+03  0.00000000000E+00 0.  1.
<mgrwt>
<rscale>  2 0.22718804E+02</rscale>
<asrwt>0</asrwt>
<pdfrwt beam="1">  1       21 0.36223482E-03 0.22718804E+02</pdfrwt>
<pdfrwt beam="2">  1       21 0.33747161E-01 0.22718804E+02</pdfrwt>
<totfact> 0.10829860E+08</totfact>
</mgrwt>
</event>
<event>
 4    1  0.3862688E+004  0.2045267E+02  0.7546771E-02  0.1736473E+00
         21   -1    0    0  503  502  0.00000000000E+00  0.00000000000E+00  0.10065879654E+02  0.10065879654E+02  0.00000000000E+00 0.  1.
         21   -1    0    0  501  503 -0.00000000000E+00 -0.00000000000E+00 -0.48152991921E+02  0.48152991921E+02  0.00000000000E+00 0.  1.
          5    1    1    2  501    0 -0.15881825060E+02 -0.12887184267E+02 -0.82702570596E+01  0.22061483119E+02  0.00000000000E+00 0.  1.
         -5    1    1    2    0  502  0.15881825060E+02  0.12887184267E+02 -0.29816855207E+02  0.36157388456E+02  0.00000000000E+00 0. -1.
<mgrwt>
<rscale>  2 0.20452674E+02</rscale>
<asrwt>0</asrwt>
<pdfrwt beam="1">  1       21 0.15485968E-02 0.20452674E+02</pdfrwt>
<pdfrwt beam="2">  1       21 0.74081528E-02 0.20452674E+02</pdfrwt>
<totfact> 0.16249917E+08</totfact>
</mgrwt>
</event>
<event>
 4    1  0.3862688E+004  0.2440003E+02  0.7546771E-02  0.1669772E+00
         21   -1    0    0  503  502  0.00000000000E+00  0.00000000000E+00  0.13968802720E+04  0.13968802720E+04  0.00000000000E+00 0. -1.
         21   -1    0    0  501  503 -0.00000000000E+00 -0.00000000000E+00 -0.47819228332E+00  0.47819228332E+00  0.00000000000E+00 0. -1.
          4    1    1    2  501    0  0.13799282324E+02 -0.20123158063E+02  0.46783833146E+03  0.46847418933E+03  0.00000000000E+00 0. -1.
         -4    1    1    2    0  502 -0.13799282324E+02  0.20123158063E+02  0.92856374823E+03  0.92888427493E+03  0.00000000000E+00 0.  1.
<mgrwt>
<rscale>  2 0.24400034E+02</rscale>
<asrwt>0</asrwt>
<pdfrwt beam="1">  1       21 0.21490139E+00 0.24400034E+02</pdfrwt>
<pdfrwt beam="2">  1       21 0.73569162E-04 0.24400034E+02</pdfrwt>
<totfact> 0.20071916E+07</totfact>
</mgrwt>
</event>
<event>
 4    1  0.3862688E+004  0.2079104E+02  0.7546771E-02  0.1730040E+00
         21   -1    0    0  501  502  0.00000000000E+00  0.00000000000E+00  0.15757012832E+01  0.15757012832E+01  0.00000000000E+00 0. -1.
         21   -1    0    0  502  503 -0.00000000000E+00 -0.00000000000E+00 -0.29938337329E+03  0.29938337329E+03  0.00000000000E+00 0. -1.
          5    1    1    2  501    0 -0.20731786562E+02  0.15685188147E+01 -0.19243183475E+03  0.19355174566E+03  0.00000000000E+00 0.  1.
         -5    1    1    2    0  503  0.20731786562E+02 -0.15685188147E+01 -0.10537583727E+03  0.10740732891E+03  0.00000000000E+00 0. -1.
<mgrwt>
<rscale>  2 0.20791037E+02</rscale>
<asrwt>0</asrwt>
<pdfrwt beam="1">  1       21 0.24241545E-03 0.20791037E+02</pdfrwt>
<pdfrwt beam="2">  1       21 0.46059006E-01 0.20791037E+02</pdfrwt>
<totfact> 0.10575403E+08</totfact>
</mgrwt>
</event>
<event>
 4    1  0.3862688E+004  0.2212274E+02  0.7546771E-02  0.1706138E+00
         21   -1    0    0  503  502  0.00000000000E+00  0.00000000000E+00  0.32978965999E+03  0.32978965999E+03  0.00000000000E+00 0.  1.
         21   -1    0    0  501  503 -0.00000000000E+00 -0.00000000000E+00 -0.14936010615E+01  0.14936010615E+01  0.00000000000E+00 0.  1.
          5    1    1    2  501    0 -0.23638251383E+01 -0.21996088186E+02  0.15088378663E+03  0.15249699221E+03  0.00000000000E+00 0. -1.
         -5    1    1    2    0  502  0.23638251383E+01  0.21996088186E+02  0.17741227230E+03  0.17878626884E+03  0.00000000000E+00 0.  1.
<mgrwt>
<rscale>  2 0.22122739E+02</rscale>
<asrwt>0</asrwt>
<pdfrwt beam="1">  1       21 0.50736813E-01 0.22122739E+02</pdfrwt>
<pdfrwt beam="2">  1       21 0.22978504E-03 0.22122739E+02</pdfrwt>
<totfact> 0.96402943E+07</totfact>
</mgrwt>
</event>
<event>
 4    1  0.3862688E+004  0.2119837E+02  0.7546771E-02  0.1722496E+00
         21   -1    0    0  501  502  0.00000000000E+00  0.00000000000E+00  0.15451490659E+02  0.15451490659E+02  0.00000000000E+00 0. -1.
         21   -1    0    0  502  503 -0.00000000000E+00 -0.00000000000E+00 -0.33706028280E+02  0.33706028280E+02  0.00000000000E+00 0. -1.
          5    1    1    2  501    0  0.19818480915E+02  0.75232074763E+01 -0.18230262397E+02  0.27959136317E+02  0.00000000000E+00 0.  1.
         -5    1    1    2    0  503 -0.19818480915E+02 -0.75232074763E+01 -0.24275224456E-01  0.21198382622E+02  0.00000000000E+00 0. -1.
<mgrwt>
<rscale>  2 0.21198369E+02</rscale>
<asrwt>0</asrwt>
<pdfrwt beam="1">  1       21 0.23771524E-02 0.21198369E+02</pdfrwt>
<pdfrwt beam="2">  1       21 0.51855428E-02 0.21198369E+02</pdfrwt>
<totfact> 0.15129873E+08</totfact>
</mgrwt>
</event>
<event>
 4    1  0.3862688E+004  0.2192883E+02  0.7546771E-02  0.1709486E+00
         21   -1    0    0  503  502  0.00000000000E+00  0.00000000000E+00  0.74717931204E+01  0.74717931204E+01  0.00000000000E+00 0. -1.
         21   -1    0    0  501  503 -0.00000000000E+00 -0.00000000000E+00 -0.75832034737E+02  0.75832034737E+02  0.00000000000E+00 0. -1.
          3    1    1    2  501    0  0.14652033342E+01  0.21879824056E+02 -0.50381683699E+02  0.54947134355E+02  0.00000000000E+00 0.  1.
         -3    1    1    2    0  502 -0.14652033342E+01 -0.21879824056E+02 -0.17978557918E+02  0.28356693502E+02  0.00000000000E+00 0. -1.
<mgrwt>
<rscale>  2 0.21928829E+02</rscale>
<asrwt>0</asrwt>
<pdfrwt beam="1">  1       21 0.11495066E-02 0.21928829E+02</pdfrwt>
<pdfrwt beam="2">  1       21 0.11666467E-01 0.21928829E+02</pdfrwt>
<totfact> 0.12353002E+08</totfact>
</mgrwt>
</event>
<event>
 4    1  0.3862688E+004  0.2314308E+02  0.7546771E-02  0.1689201E+00
         21   -1    0    0  501  502  0.00000000000E+00  0.00000000000E+00  0.31134864142E+02  0.31134864142E+02  0.00000000000E+00 0.  1.
         21   -1    0    0  502  503 -0.00000000000E+00 -0.00000000000E+00 -0.20980011603E+02  0.20980011603E+02  0.00000000000E+00 0.  1.
          3    1    1    2  501    0  0.14695475028E+02  0.17878628549E+02 -0.59792045185E+01  0.23902996293E+02  0.00000000000E+00 0. -1.
         -3    1    1    2    0  503 -0.14695475028E+02 -0.17878628549E+02  0.16134057058E+02  0.28211879453E+02  0.00000000000E+00 0.  1.
<mgrwt>
<rscale>  2 0.23143084E+02</rscale>
<asrwt>0</asrwt>
<pdfrwt beam="1">  1       21 0.47899791E-02 0.23143084E+02</pdfrwt>
<pdfrwt beam="2">  1       21 0.32276941E-02 0.23143084E+02</pdfrwt>
<totfact> 0.10968095E+08</totfact>
</mgrwt>
</event>
<event>
 4    1  0.3862688E+004  0.2030013E+02  0.7546771E-02  0.1739425E+00
         21   -1    0    0  503  502  0.00000000000E+00  0.00000000000E+00  0.17086679875E+02  0.17086679875E+02  0.00000000000E+00 0. -1.
         21   -1    0    0  501  503 -0.00000000000E+00 -0.00000000000E+00 -0.28081521820E+02  0.28081521820E+02  0.00000000000E+00 0. -1.
          3    1    1    2  501    0  0.99491086945E+01  0.17694923427E+02  0.29873048486E+01  0.20518749210E+02  0.00000000000E+00 0. -1.
         -3    1    1    2    0  502 -0.99491086945E+01 -0.17694923427E+02 -0.13982146793E+02  0.24649452485E+02  0.00000000000E+00 0.  1.
<mgrwt>
<rscale>  2 0.20300125E+02</rscale>
<asrwt>0</asrwt>
<pdfrwt beam="1">  1       21 0.26287200E-02 0.20300125E+02</pdfrwt>
<pdfrwt beam="2">  1       21 0.43202341E-02 0.20300125E+02</pdfrwt>
<totfact> 0.17062002E+08</totfact>
</mgrwt>
</event>
<event>
 4    1  0.3862688E+004  0.3010237E+02  0.7546771E-02  0.1596960E+00
         21   -1    0    0  501  502  0.00000000000E+00  0.00000000000E+00  0.89561982837E+02  0.89561982837E+02  0.00000000000E+00 0.  1.
         21   -1    0    0  502  503 -0.00000000000E+00 -0.00000000000E+00 -0.12548737027E+02  0.12548737027E+02  0.00000000000E+00 0.  1.
          4    1    1    2  501    0 -0.18398033662E+02 -0.23825723181E+02  0.16034420237E+02  0.34106529581E+02  0.00000000000E+00 0.  1.
         -4    1    1    2    0  503  0.18398033662E+02  0.23825723181E+02  0.60978825574E+02  0.68004190283E+02  0.00000000000E+00 0. -1.
<mgrwt>
<rscale>  2 0.30102371E+02</rscale>
<asrwt>0</asrwt>
<pdfrwt beam="1">  1       21 0.13778766E-01 0.30102371E+02</pdfrwt>
<pdfrwt beam="2">  1       21 0.19305750E-02 0.30102371E+02</pdfrwt>
<totfact> 0.45836394E+07</totfact>
</mgrwt>
</event>
<event>
 4    1  0.3862688E+004  0.2721217E+02  0.7546771E-02  0.1631120E+00
         21   -1    0    0  501  502  0.00000000000E+00  0.00000000000E+00  0.85518704262E+01  0.85518704262E+01  0.00000000000E+00 0. -1.
         21   -1    0    0  502  503 -0.00000000000E+00 -0.00000000000E+00 -0.92448283388E+02  0.92448283388E+02  0.00000000000E+00 0. -1.
          5    1    1    2  501    0  0.40260209625E+01 -0.26912696922E+02 -0.29235245970E+02  0.39939976306E+02  0.00000000000E+00 0. -1.
         -5    1    1    2    0  503 -0.40260209625E+01  0.26912696922E+02 -0.54661166992E+02  0.61060177508E+02  0.00000000000E+00 0.  1.
<mgrwt>
<rscale>  2 0.27212168E+02</rscale>
<asrwt>0</asrwt>
<pdfrwt beam="1">  1       21 0.13156724E-02 0.27212168E+02</pdfrwt>
<pdfrwt beam="2">  1       21 0.14222812E-01 0.27212168E+02</pdfrwt>
<totfact> 0.76400430E+07</totfact>
</mgrwt>
</event>
<event>
 4    1  0.3862688E+004  0.5761698E+02  0.7546771E-02  0.1408113E+00
         21   -1    0    0  503  502  0.00000000000E+00  0.00000000000E+00  0.24503124901E+02  0.24503124901E+02  0.00000000000E+00 0. -1.
         21   -1    0    0  501  503 -0.00000000000E+00 -0.00000000000E+00 -0.17842244239E+03  0.17842244239E+03  0.00000000000E+00 0. -1.
          2    1    1    2  501    0  0.37788137657E+02  0.43494517167E+02 -0.27183819450E+02  0.63707742159E+02  0.00000000000E+00 0.  1.
         -2    1    1    2    0  502 -0.37788137657E+02 -0.43494517167E+02 -0.12673549804E+03  0.13921782513E+03  0.00000000000E+00 0. -1.
<mgrwt>
<rscale>  2 0.57616980E+02</rscale>
<asrwt>0</asrwt>
<pdfrwt beam="1">  1       21 0.37697115E-02 0.57616980E+02</pdfrwt>
<pdfrwt beam="2">  1       21 0.27449607E-01 0.57616980E+02</pdfrwt>
<totfact> 0.51140974E+06</totfact>
</mgrwt>
</event>
<event>
 4    1  0.3862688E+004  0.2288179E+02  0.7546771E-02  0.1693434E+00
         21   -1    0    0  503  502  0.00000000000E+00  0.00000000000E+00  0.39520954888E+02  0.39520954888E+02  0.00000000000E+00 0.  1.
         21   -1    0    0  501  503 -0.00000000000E+00 -0.00000000000E+00 -0.21700296241E+02  0.21700296241E+02  0.00000000000E+00 0.  1.
          5    1    1    2  501    0  0.14726776571E+02  0.17512801345E+02 -0.10193704215E+02  0.25049705881E+02  0.00000000000E+00 0.  1.
         -5    1    1    2    0  502 -0.14726776571E+02 -0.17512801345E+02  0.28014362861E+02  0.36171545248E+02  0.00000000000E+00 0. -1.
<mgrwt>
<rscale>  2 0.22881787E+02</rscale>
<asrwt>0</asrwt>
<pdfrwt beam="1">  1       21 0.60801469E-02 0.22881787E+02</pdfrwt>
<pdfrwt beam="2">  1       21 0.33385071E-02 0.22881787E+02</pdfrwt>
<totfact> 0.70845543E+07</totfact>
</mgrwt>
</event>
<event>
 4    1  0.3862688E+004  0.2608881E+02  0.7546771E-02  0.1645838E+00
         21   -1    0    0  503  502  0.00000000000E+00  0.00000000000E+00  0.84422839124E+01  0.84422839124E+01  0.00000000000E+00 0.  1.
         21   -1    0    0  501  503 -0.00000000000E+00 -0.00000000000E+00 -0.93017433162E+02  0.93017433162E+02  0.00000000000E+00 0.  1.
          1    1    1    2  501    0  0.25732782537E+02 -0.42953063514E+01 -0.23768083293E+02  0.35292315554E+02  0.00000000000E+00 0. -1.
         -1    1    1    2    0  502 -0.25732782537E+02  0.42953063514E+01 -0.60807065957E+02  0.66167401521E+02  0.00000000000E+00 0.  1.
<mgrwt>
<rscale>  2 0.26088805E+02</rscale>
<asrwt>0</asrwt>
<pdfrwt beam="1">  1       21 0.12988129E-02 0.26088805E+02</pdfrwt>
<pdfrwt beam="2">  1       21 0.14310375E-01 0.26088805E+02</pdfrwt>
<totfact> 0.76302674E+07</totfact>
</mgrwt>
</event>
<event>
 4    1  0.3862688E+004  0.2706481E+02  0.7546771E-02  0.1633001E+00
         21   -1    0    0  501  502  0.00000000000E+00  0.00000000000E+00  0.11218796535E+03  0.11218796535E+03  0.00000000000E+00 0. -1.
         21   -1    0    0  502  503 -0.00000000000E+00 -0.00000000000E+00 -0.95667344046E+01  0.95667344046E+01  0.00000000000E+00 0. -1.
          5    1    1    2  501    0 -0.26706134363E+02 -0.43916148163E+01  0.17007741099E+02  0.31965092689E+02  0.00000000000E+00 0.  1.
         -5    1    1    2    0  503  0.26706134363E+02  0.43916148163E+01  0.85613489846E+02  0.89789607065E+02  0.00000000000E+00 0. -1.
<mgrwt>
<rscale>  2 0.27064809E+02</rscale>
<asrwt>0</asrwt>
<pdfrwt beam="1">  1       21 0.17259686E-01 0.27064809E+02</pdfrwt>
<pdfrwt beam="2">  1       21 0.14718054E-02 0.27064809E+02</pdfrwt>
<totfact> 0.46095040E+07</totfact>
</mgrwt>
</event>
<event>
 4    1  0.3862688E+004  0.2009979E+02  0.7546771E-02  0.1743351E+00
         21   -1    0    0  501  502  0.00000000000E+00  0.00000000000E+00  0.37215180393E+02  0.37215180393E+02  0.00000000000E+00 0.  1.
         21   -1    0    0  502  503 -0.00000000000E+00 -0.00000000000E+00 -0.13506424286E+02  0.13506424286E+02  0.00000000000E+00 0.  1.
          5    1    1    2  501    0 -0.18397536793E+02 -0.80951880534E+01  0.61958811490E+00  0.20109334129E+02  0.00000000000E+00 0.  1.
         -5    1    1    2    0  503  0.18397536793E+02  0.80951880534E+01  0.23089167992E+02  0.30612270551E+02  0.00000000000E+00 0. -1.
<mgrwt>
<rscale>  2 0.20099787E+02</rscale>
<asrwt>0</asrwt>
<pdfrwt beam="1">  1       21 0.57254123E-02 0.20099787E+02</pdfrwt>
<pdfrwt beam="2">  1       21 0.20779114E-02 0.20099787E+02</pdfrwt>
<totfact> 0.15622070E+08</totfact>
</mgrwt>
</event>
<event>
 4    1  0.3862688E+004  0.3898790E+02  0.7546771E-02  0.1515794E+00
         21   -1    0    0  501  502  0.00000000000E+00  0.00000000000E+00  0.18893343057E+02  0.18893343057E+02  0.00000000000E+00 0.  1.
         21   -1    0    0  502  503 -0.00000000000E+00 -0.00000000000E+00 -0.10276697231E+03  0.10276697231E+03  0.00000000000E+00 0.  1.
          5    1    1    2  501    0 -0.27401896845E+02 -0.27734311190E+02 -0.70281082025E+02  0.80370930432E+02  0.00000000000E+00 0. -1.
         -5    1    1    2    0  503  0.27401896845E+02  0.27734311190E+02 -0.13592547224E+02  0.41289384930E+02  0.00000000000E+00 0.  1.
<mgrwt>
<rscale>  2 0.38987895E+02</rscale>
<asrwt>0</asrwt>
<pdfrwt beam="1">  1       21 0.29066681E-02 0.38987895E+02</pdfrwt>
<pdfrwt beam="2">  1       21 0.15810304E-01 0.38987895E+02</pdfrwt>
<totfact> 0.19988037E+07</totfact>
</mgrwt>
</event>
<event>
 4    1  0.3862688E+004  0.2405244E+02  0.7546771E-02  0.1674997E+00
         21   -1    0    0  503  502  0.00000000000E+00  0.00000000000E+00  0.20837379216E+02  0.20837379216E+02  0.00000000000E+00 0.  1.
         21   -1    0    0  501  503 -0.00000000000E+00 -0.00000000000E+00 -0.28421280469E+02  0.28421280469E+02  0.00000000000E+00 0.  1.
          2    1    1    2  501    0 -0.21641682964E+02 -0.10495596776E+02 -0.45251337588E-01  0.24052485129E+02  0.00000000000E+00 0.  1.
         -2    1    1    2    0  502  0.21641682964E+02  0.10495596776E+02 -0.75386499155E+01  0.25206174556E+02  0.00000000000E+00 0. -1.
<mgrwt>
<rscale>  2 0.24052443E+02</rscale>
<asrwt>0</asrwt>
<pdfrwt beam="1">  1       21 0.32057507E-02 0.24052443E+02</pdfrwt>
<pdfrwt beam="2">  1       21 0.43725046E-02 0.24052443E+02</pdfrwt>
<totfact> 0.12958086E+08</totfact>
</mgrwt>
</event>
<event>
 4    1  0.3862688E+004  0.2143837E+02  0.7546771E-02  0.1718150E+00
         21   -1    0    0  501  502  0.00000000000E+00  0.00000000000E+00  0.43672179777E+02  0.43672179777E+02  0.00000000000E+00 0.  1.
         21   -1    0    0  502  503 -0.00000000000E+00 -0.00000000000E+00 -0.10655309993E+02  0.10655309993E+02  0.00000000000E+00 0.  1.
          5    1    1    2  501    0  0.21051128991E+02 -0.40562899900E+01  0.19524565343E+02  0.28996761407E+02  0.00000000000E+00 0. -1.
         -5    1    1    2    0  503 -0.21051128991E+02  0.40562899900E+01  0.13492304440E+02  0.25330728363E+02  0.00000000000E+00 0.  1.
<mgrwt>
<rscale>  2 0.21438366E+02</rscale>
<asrwt>0</asrwt>
<pdfrwt beam="1">  1       21 0.67187968E-02 0.21438366E+02</pdfrwt>
<pdfrwt beam="2">  1       21 0.16392785E-02 0.21438366E+02</pdfrwt>
<totfact> 0.17709397E+08</totfact>
</mgrwt>
</event>
<event>
 4    1  0.3862688E+004  0.2278890E+02  0.7546771E-02  0.1694955E+00
         21   -1    0    0  501  502  0.00000000000E+00  0.00000000000E+00  0.21438829936E+02  0.21438829936E+02  0.00000000000E+00 0. -1.
         21   -1    0    0  502  503 -0.00000000000E+00 -0.00000000000E+00 -0.31659511788E+02  0.31659511788E+02  0.00000000000E+00 0. -1.
          5    1    1    2  501    0  0.89283325013E-01  0.22788722748E+02  0.77559918523E+01  0.24072583276E+02  0.00000000000E+00 0. -1.
         -5    1    1    2    0  503 -0.89283325013E-01 -0.22788722748E+02 -0.17976673704E+02  0.29025758448E+02  0.00000000000E+00 0.  1.
<mgrwt>
<rscale>  2 0.22788898E+02</rscale>
<asrwt>0</asrwt>
<pdfrwt beam="1">  1       21 0.32982815E-02 0.22788898E+02</pdfrwt>
<pdfrwt beam="2">  1       21 0.48706941E-02 0.22788898E+02</pdfrwt>
<totfact> 0.10279395E+08</totfact>
</mgrwt>
</event>
<event>
 4    1  0.3862688E+004  0.2033769E+02  0.7546771E-02  0.1738695E+00
         21   -1    0    0  503  502  0.00000000000E+00  0.00000000000E+00  0.72063944136E+01  0.72063944136E+01  0.00000000000E+00 0.  1.
         21   -1    0    0  501  503 -0.00000000000E+00 -0.00000000000E+00 -0.81649149807E+02  0.81649149807E+02  0.00000000000E+00 0.  1.
          3    1    1    2  501    0  0.18927912100E+02  0.74401466657E+01 -0.61434930725E+02  0.64713772507E+02  0.00000000000E+00 0.  1.
         -3    1    1    2    0  502 -0.18927912100E+02 -0.74401466657E+01 -0.13007824669E+02  0.24141771714E+02  0.00000000000E+00 0. -1.
<mgrwt>
<rscale>  2 0.20337690E+02</rscale>
<asrwt>0</asrwt>
<pdfrwt beam="1">  1       21 0.11086762E-02 0.20337690E+02</pdfrwt>
<pdfrwt beam="2">  1       21 0.12561406E-01 0.20337690E+02</pdfrwt>
<totfact> 0.11276018E+08</totfact>
</mgrwt>
</event>
<event>
 4    1  0.3862688E+004  0.2076190E+02  0.7546771E-02  0.1730588E+00
         21   -1    0    0  501  502  0.00000000000E+00  0.00000000000E+00  0.10367398563E+02  0.10367398563E+02  0.00000000000E+00 0. -1.
         21   -1    0    0  502  503 -0.00000000000E+00 -0.00000000000E+00 -0.45703971498E+02  0.45703971498E+02  0.00000000000E+00 0. -1.
          4    1    1    2  501    0  0.20755608687E+02 -0.51087802605E+00 -0.26091820102E+02  0.33344255346E+02  0.00000000000E+00 0.  1.
         -4    1    1    2    0  503 -0.20755608687E+02  0.51087802605E+00 -0.92447528329E+01  0.22727114715E+02  0.00000000000E+00 0. -1.
<mgrwt>
<rscale>  2 0.20761895E+02</rscale>
<asrwt>0</asrwt>
<pdfrwt beam="1">  1       21 0.15949844E-02 0.20761895E+02</pdfrwt>
<pdfrwt beam="2">  1       21 0.70313803E-02 0.20761895E+02</pdfrwt>
<totfact> 0.16985028E+08</totfact>
</mgrwt>
</event>
<event>
 4    1  0.3862688E+004  0.4828886E+02  0.7546771E-02  0.1454796E+00
         21   -1    0    0  501  502  0.00000000000E+00  0.00000000000E+00  0.51986384416E+02  0.51986384416E+02  0.00000000000E+00 0.  1.
         21   -1    0    0  502  503 -0.00000000000E+00 -0.00000000000E+00 -0.44859718042E+02  0.44859718042E+02  0.00000000000E+00 0.  1.
          5    1    1    2  501    0  0.37576438040E+02 -0.30328622516E+02  0.40944025740E+01  0.48462131318E+02  0.00000000000E+00 0.  1.
         -5    1    1    2    0  503 -0.37576438040E+02  0.30328622516E+02  0.30322638005E+01  0.48383971139E+02  0.00000000000E+00 0. -1.
<mgrwt>
<rscale>  2 0.48288860E+02</rscale>
<asrwt>0</asrwt>
<pdfrwt beam="1">  1       21 0.79979053E-02 0.48288860E+02</pdfrwt>
<pdfrwt beam="2">  1       21 0.69014951E-02 0.48288860E+02</pdfrwt>
<totfact> 0.16276131E+07</totfact>
</mgrwt>
</event>
<event>
 4    1  0.3862688E+004  0.2078257E+02  0.7546771E-02  0.1730199E+00
         21   -1    0    0  501  502  0.00000000000E+00  0.00000000000E+00  0.27857140129E+03  0.27857140129E+03  0.00000000000E+00 0. -1.
         21   -1    0    0  502  503 -0.00000000000E+00 -0.00000000000E+00 -0.22818261265E+01  0.22818261265E+01  0.00000000000E+00 0. -1.
          2    1    1    2  501    0  0.15948415585E+02  0.13325288856E+02  0.58643528729E+02  0.62217190105E+02  0.00000000000E+00 0.  1.
         -2    1    1    2    0  503 -0.15948415585E+02 -0.13325288856E+02  0.21764604643E+03  0.21863603731E+03  0.00000000000E+00 0. -1.
<mgrwt>
<rscale>  2 0.20782572E+02</rscale>
<asrwt>0</asrwt>
<pdfrwt beam="1">  1       21 0.42857112E-01 0.20782572E+02</pdfrwt>
<pdfrwt beam="2">  1       21 0.35105039E-03 0.20782572E+02</pdfrwt>
<totfact> 0.70865263E+07</totfact>
</mgrwt>
</event>
<event>
 4    1  0.3862688E+004  0.2127316E+02  0.7546771E-02  0.1721134E+00
         21   -1    0    0  503  502  0.00000000000E+00  0.00000000000E+00  0.11296676058E+02  0.11296676058E+02  0.00000000000E+00 0. -1.
         21   -1    0    0  501  503 -0.00000000000E+00 -0.00000000000E+00 -0.41839876743E+02  0.41839876743E+02  0.00000000000E+00 0. -1.
          2    1    1    2  501    0  0.19022047503E+02  0.95241294100E+01 -0.20751041416E+02  0.29717891111E+02  0.00000000000E+00 0. -1.
         -2    1    1    2    0  502 -0.19022047503E+02 -0.95241294100E+01 -0.97921592684E+01  0.23418661690E+02  0.00000000000E+00 0.  1.
<mgrwt>
<rscale>  2 0.21273160E+02</rscale>
<asrwt>0</asrwt>
<pdfrwt beam="1">  1       21 0.17379502E-02 0.21273160E+02</pdfrwt>
<pdfrwt beam="2">  1       21 0.64369040E-02 0.21273160E+02</pdfrwt>
<totfact> 0.17317385E+08</totfact>
</mgrwt>
</event>
<event>
 4    1  0.3862688E+004  0.2637201E+02  0.7546771E-02  0.1642043E+00
         21   -1    0    0  501  502  0.00000000000E+00  0.00000000000E+00  0.52341496728E+03  0.52341496728E+03  0.00000000000E+00 0. -1.
         21   -1    0    0  502  503 -0.00000000000E+00 -0.00000000000E+00 -0.14073519895E+01  0.14073519895E+01  0.00000000000E+00 0. -1.
          4    1    1    2  501    0 -0.97629303134E+01 -0.24498328083E+02  0.32302252450E+03  0.32409726044E+03  0.00000000000E+00 0.  1.
         -4    1    1    2    0  503  0.97629303134E+01  0.24498328083E+02  0.19898509078E+03  0.20072505883E+03  0.00000000000E+00 0. -1.
<mgrwt>
<rscale>  2 0.26372010E+02</rscale>
<asrwt>0</asrwt>
<pdfrwt beam="1">  1       21 0.80525224E-01 0.26372010E+02</pdfrwt>
<pdfrwt beam="2">  1       21 0.21651611E-03 0.26372010E+02</pdfrwt>
<totfact> 0.42943466E+07</totfact>
</mgrwt>
</event>
<event>
 4    1  0.3862688E+004  0.2076646E+02  0.7546771E-02  0.1730502E+00
         21   -1    0    0  501  502  0.00000000000E+00  0.00000000000E+00  0.22957045020E+03  0.22957045020E+03  0.00000000000E+00 0. -1.
         21   -1    0    0  502  503 -0.00000000000E+00 -0.00000000000E+00 -0.22824592929E+01  0.22824592929E+01  0.00000000000E+00 0. -1.
          3    1    1    2  501    0 -0.15694049302E+02  0.13599356504E+02  0.16241430123E+03  0.16373652899E+03  0.00000000000E+00 0.  1.
         -3    1    1    2    0  503  0.15694049302E+02 -0.13599356504E+02  0.64873689678E+02  0.68116380506E+02  0.00000000000E+00 0. -1.
<mgrwt>
<rscale>  2 0.20766456E+02</rscale>
<asrwt>0</asrwt>
<pdfrwt beam="1">  1       21 0.35318513E-01 0.20766456E+02</pdfrwt>
<pdfrwt beam="2">  1       21 0.35114776E-03 0.20766456E+02</pdfrwt>
<totfact> 0.10167495E+08</totfact>
</mgrwt>
</event>
<event>
 4    1  0.3862688E+004  0.3076516E+02  0.7546771E-02  0.1589782E+00
         21   -1    0    0  503  502  0.00000000000E+00  0.00000000000E+00  0.15739502947E+03  0.15739502947E+03  0.00000000000E+00 0.  1.
         21   -1    0    0  501  503 -0.00000000000E+00 -0.00000000000E+00 -0.88711497304E+01  0.88711497304E+01  0.00000000000E+00 0.  1.
          1    1    1    2  501    0  0.26665580635E+02 -0.15344113688E+02  0.12144525606E+03  0.12528146405E+03  0.00000000000E+00 0.  1.
         -1    1    1    2    0  502 -0.26665580635E+02  0.15344113688E+02  0.27078623680E+02  0.40984715149E+02  0.00000000000E+00 0. -1.
<mgrwt>
<rscale>  2 0.30765159E+02</rscale>
<asrwt>0</asrwt>
<pdfrwt beam="1">  1       21 0.24214618E-01 0.30765159E+02</pdfrwt>
<pdfrwt beam="2">  1       21 0.13647924E-02 0.30765159E+02</pdfrwt>
<totfact> 0.29236124E+07</totfact>
</mgrwt>
</event>
<event>
 4    1  0.3862688E+004  0.2475579E+02  0.7546771E-02  0.1664535E+00
         21   -1    0    0  501  502  0.00000000000E+00  0.00000000000E+00  0.66944649972E+00  0.66944649972E+00  0.00000000000E+00 0. -1.
         21   -1    0    0  502  503 -0.00000000000E+00 -0.00000000000E+00 -0.14565730529E+04  0.14565730529E+04  0.00000000000E+00 0. -1.
          2    1    1    2  501    0  0.12150634768E+02  0.21568750022E+02 -0.28385131047E+03  0.28492878998E+03  0.00000000000E+00 0.  1.
         -2    1    1    2    0  503 -0.12150634768E+02 -0.21568750022E+02 -0.11720522959E+04  0.11723137094E+04  0.00000000000E+00 0. -1.
<mgrwt>
<rscale>  2 0.24755785E+02</rscale>
<asrwt>0</asrwt>
<pdfrwt beam="1">  1       21 0.10299273E-03 0.24755785E+02</pdfrwt>
<pdfrwt beam="2">  1       21 0.22408607E+00 0.24755785E+02</pdfrwt>
<totfact> 0.11131393E+07</totfact>
</mgrwt>
</event>
<event>
 4    1  0.3862688E+004  0.3078142E+02  0.7546771E-02  0.1589608E+00
         21   -1    0    0  503  502  0.00000000000E+00  0.00000000000E+00  0.28519462834E+01  0.28519462834E+01  0.00000000000E+00 0.  1.
         21   -1    0    0  501  503 -0.00000000000E+00 -0.00000000000E+00 -0.33747357363E+03  0.33747357363E+03  0.00000000000E+00 0.  1.
          3    1    1    2  501    0 -0.13694179595E+02 -0.27567463001E+02 -0.14609531211E+03  0.14930283249E+03  0.00000000000E+00 0. -1.
         -3    1    1    2    0  502  0.13694179595E+02  0.27567463001E+02 -0.18852631524E+03  0.19102268742E+03  0.00000000000E+00 0.  1.
<mgrwt>
<rscale>  2 0.30781416E+02</rscale>
<asrwt>0</asrwt>
<pdfrwt beam="1">  1       21 0.43876133E-03 0.30781416E+02</pdfrwt>
<pdfrwt beam="2">  1       21 0.51918969E-01 0.30781416E+02</pdfrwt>
<totfact> 0.38473907E+07</totfact>
</mgrwt>
</event>
<event>
 4    1  0.3862688E+004  0.2475709E+02  0.7546771E-02  0.1664516E+00
         21   -1    0    0  503  502  0.00000000000E+00  0.00000000000E+00  0.21574108116E+03  0.21574108116E+03  0.00000000000E+00 0. -1.
         21   -1    0    0  501  503 -0.00000000000E+00 -0.00000000000E+00 -0.35651676781E+01  0.35651676781E+01  0.00000000000E+00 0. -1.
          5    1    1    2  501    0  0.18094374312E+02  0.16896949539E+02  0.15550884005E+03  0.15746717950E+03  0.00000000000E+00 0.  1.
         -5    1    1    2    0  502 -0.18094374312E+02 -0.16896949539E+02  0.56667073433E+02  0.61839069341E+02  0.00000000000E+00 0. -1.
<mgrwt>
<rscale>  2 0.24757086E+02</rscale>
<asrwt>0</asrwt>
<pdfrwt beam="1">  1       21 0.33190925E-01 0.24757086E+02</pdfrwt>
<pdfrwt beam="2">  1       21 0.54848750E-03 0.24757086E+02</pdfrwt>
<totfact> 0.61977030E+07</totfact>
</mgrwt>
</event>
<event>
 4    1  0.3862688E+004  0.2521843E+02  0.7546771E-02  0.1657884E+00
         21   -1    0    0  501  502  0.00000000000E+00  0.00000000000E+00  0.31963700599E+01  0.31963700599E+01  0.00000000000E+00 0. -1.
         21   -1    0    0  502  503 -0.00000000000E+00 -0.00000000000E+00 -0.21517985373E+03  0.21517985373E+03  0.00000000000E+00 0. -1.
          5    1    1    2  501    0  0.19894185507E+02 -0.15498076745E+02 -0.76019616971E+02  0.80093390266E+02  0.00000000000E+00 0.  1.
         -5    1    1    2    0  503 -0.19894185507E+02  0.15498076745E+02 -0.13596386670E+03  0.13828283352E+03  0.00000000000E+00 0. -1.
<mgrwt>
<rscale>  2 0.25218426E+02</rscale>
<asrwt>0</asrwt>
<pdfrwt beam="1">  1       21 0.49174916E-03 0.25218426E+02</pdfrwt>
<pdfrwt beam="2">  1       21 0.33104598E-01 0.25218426E+02</pdfrwt>
<totfact> 0.73522281E+07</totfact>
</mgrwt>
</event>
<event>
 4    1  0.3862688E+004  0.2236140E+02  0.7546771E-02  0.1702076E+00
         21   -1    0    0  501  502  0.00000000000E+00  0.00000000000E+00  0.98666606214E+01  0.98666606214E+01  0.00000000000E+00 0. -1.
         21   -1    0    0  502  503 -0.00000000000E+00 -0.00000000000E+00 -0.51334416771E+02  0.51334416771E+02  0.00000000000E+00 0. -1.
          3    1    1    2  501    0  0.17715629673E+02  0.13645089011E+02 -0.17276073209E+02  0.28257648422E+02  0.00000000000E+00 0.  1.
         -3    1    1    2    0  503 -0.17715629673E+02 -0.13645089011E+02 -0.24191682940E+02  0.32943428970E+02  0.00000000000E+00 0. -1.
<mgrwt>
<rscale>  2 0.22361395E+02</rscale>
<asrwt>0</asrwt>
<pdfrwt beam="1">  1       21 0.15179478E-02 0.22361395E+02</pdfrwt>
<pdfrwt beam="2">  1       21 0.78976024E-02 0.22361395E+02</pdfrwt>
<totfact> 0.15520226E+08</totfact>
</mgrwt>
</event>
<event>
 4    1  0.3862688E+004  0.2039683E+02  0.7546771E-02  0.1737550E+00
         21   -1    0    0  501  502  0.00000000000E+00  0.00000000000E+00  0.66106159085E+03  0.66106159085E+03  0.00000000000E+00 0.  1.
         21   -1    0    0  502  503 -0.00000000000E+00 -0.00000000000E+00 -0.97720800841E+00  0.97720800841E+00  0.00000000000E+00 0.  1.
          5    1    1    2  501    0  0.19252311592E+02 -0.67363946734E+01  0.13254130047E+03  0.13410155422E+03  0.00000000000E+00 0. -1.
         -5    1    1    2    0  503 -0.19252311592E+02  0.67363946734E+01  0.52754308237E+03  0.52793724464E+03  0.00000000000E+00 0.  1.
<mgrwt>
<rscale>  2 0.20396826E+02</rscale>
<asrwt>0</asrwt>
<pdfrwt beam="1">  1       21 0.10170143E+00 0.20396826E+02</pdfrwt>
<pdfrwt beam="2">  1       21 0.15034022E-03 0.20396826E+02</pdfrwt>
<totfact> 0.41658311E+07</totfact>
</mgrwt>
</event>
<event>
 4    1  0.3862688E+004  0.2627127E+02  0.7546771E-02  0.1643386E+00
         21   -1    0    0  501  502  0.00000000000E+00  0.00000000000E+00  0.45983325112E+03  0.45983325112E+03  0.00000000000E+00 0. -1.
         21   -1    0    0  502  503 -0.00000000000E+00 -0.00000000000E+00 -0.15267480758E+01  0.15267480758E+01  0.00000000000E+00 0. -1.
          4    1    1    2  501    0 -0.24027497829E+02 -0.10623509478E+02  0.25914833446E+03  0.26047656106E+03  0.00000000000E+00 0. -1.
         -4    1    1    2    0  503  0.24027497829E+02  0.10623509478E+02  0.19915816858E+03  0.20088343814E+03  0.00000000000E+00 0.  1.
<mgrwt>
<rscale>  2 0.26271270E+02</rscale>
<asrwt>0</asrwt>
<pdfrwt beam="1">  1       21 0.70743467E-01 0.26271270E+02</pdfrwt>
<pdfrwt beam="2">  1       21 0.23488469E-03 0.26271270E+02</pdfrwt>
<totfact> 0.49960740E+07</totfact>
</mgrwt>
</event>
<event>
 4    1  0.3862688E+004  0.2680617E+02  0.7546771E-02  0.1636337E+00
         21   -1    0    0  503  502  0.00000000000E+00  0.00000000000E+00  0.64089361274E+02  0.64089361274E+02  0.00000000000E+00 0. -1.
         21   -1    0    0  501  503 -0.00000000000E+00 -0.00000000000E+00 -0.11456003303E+02  0.11456003303E+02  0.00000000000E+00 0. -1.
          3    1    1    2  501    0  0.20392587778E+02  0.17398656993E+02  0.20804218806E+02  0.33932085429E+02  0.00000000000E+00 0.  1.
         -3    1    1    2    0  502 -0.20392587778E+02 -0.17398656993E+02  0.31829139165E+02  0.41613279148E+02  0.00000000000E+00 0. -1.
<mgrwt>
<rscale>  2 0.26806173E+02</rscale>
<asrwt>0</asrwt>
<pdfrwt beam="1">  1       21 0.98599015E-02 0.26806173E+02</pdfrwt>
<pdfrwt beam="2">  1       21 0.17624621E-02 0.26806173E+02</pdfrwt>
<totfact> 0.90208957E+07</totfact>
</mgrwt>
</event>
<event>
 4    1  0.3862688E+004  0.2312448E+02  0.7546771E-02  0.1689500E+00
         21   -1    0    0  501  502  0.00000000000E+00  0.00000000000E+00  0.12511920727E+04  0.12511920727E+04  0.00000000000E+00 0.  1.
         21   -1    0    0  502  503 -0.00000000000E+00 -0.00000000000E+00 -0.45265103131E+00  0.45265103131E+00  0.00000000000E+00 0.  1.
          4    1    1    2  501    0 -0.14605027331E+02 -0.17928604734E+02  0.47751635296E+03  0.47807594484E+03  0.00000000000E+00 0.  1.
         -4    1    1    2    0  503  0.14605027331E+02  0.17928604734E+02  0.77322306871E+03  0.77356877889E+03  0.00000000000E+00 0. -1.
<mgrwt>
<rscale>  2 0.23124483E+02</rscale>
<asrwt>0</asrwt>
<pdfrwt beam="1">  1       21 0.19248832E+00 0.23124483E+02</pdfrwt>
<pdfrwt beam="2">  1       21 0.69639622E-04 0.23124483E+02</pdfrwt>
<totfact> 0.28678667E+07</totfact>
</mgrwt>
</event>
<event>
 4    1  0.3862688E+004  0.2224247E+02  0.7546771E-02  0.1704092E+00
         21   -1    0    0  501  502  0.00000000000E+00  0.00000000000E+00  0.14308845774E+02  0.14308845774E+02  0.00000000000E+00 0. -1.
         21   -1    0    0  502  503 -0.00000000000E+00 -0.00000000000E+00 -0.48104772792E+02  0.48104772792E+02  0.00000000000E+00 0. -1.
          5    1    1    2  501    0 -0.90125679396E+01 -0.20334728217E+02 -0.33448093946E+02  0.40168427168E+02  0.00000000000E+00 0. -1.
         -5    1    1    2    0  503  0.90125679396E+01  0.20334728217E+02 -0.34783307217E+00  0.22245191399E+02  0.00000000000E+00 0.  1.
<mgrwt>
<rscale>  2 0.22242472E+02</rscale>
<asrwt>0</asrwt>
<pdfrwt beam="1">  1       21 0.22013608E-02 0.22242472E+02</pdfrwt>
<pdfrwt beam="2">  1       21 0.74007345E-02 0.22242472E+02</pdfrwt>
<totfact> 0.97587517E+07</totfact>
</mgrwt>
</event>
<event>
 4    1  0.3862688E+004  0.2785653E+02  0.7546771E-02  0.1623067E+00
         21   -1    0    0  503  502  0.00000000000E+00  0.00000000000E+00  0.27197533639E+02  0.27197533639E+02  0.00000000000E+00 0.  1.
         21   -1    0    0  501  503 -0.00000000000E+00 -0.00000000000E+00 -0.31772123211E+02  0.31772123211E+02  0.00000000000E+00 0.  1.
          4    1    1    2  501    0 -0.10375568577E+02  0.25852153647E+02 -0.11703808605E+02  0.30215317429E+02  0.00000000000E+00 0.  1.
         -4    1    1    2    0  502  0.10375568577E+02 -0.25852153647E+02  0.71292190334E+01  0.28754339421E+02  0.00000000000E+00 0. -1.
<mgrwt>
<rscale>  2 0.27856530E+02</rscale>
<asrwt>0</asrwt>
<pdfrwt beam="1">  1       21 0.41842359E-02 0.27856530E+02</pdfrwt>
<pdfrwt beam="2">  1       21 0.48880190E-02 0.27856530E+02</pdfrwt>
<totfact> 0.74116832E+07</totfact>
</mgrwt>
</event>
<event>
 4    1  0.3862688E+004  0.3096867E+02  0.7546771E-02  0.1587622E+00
         21   -1    0    0  501  502  0.00000000000E+00  0.00000000000E+00  0.41888263601E+01  0.41888263601E+01  0.00000000000E+00 0. -1.
         21   -1    0    0  502  503 -0.00000000000E+00 -0.00000000000E+00 -0.39661254093E+03  0.39661254093E+03  0.00000000000E+00 0. -1.
          4    1    1    2  501    0  0.22440231298E+02  0.21342314567E+02 -0.65917447809E+02  0.72829721251E+02  0.00000000000E+00 0.  1.
         -4    1    1    2    0  503 -0.22440231298E+02 -0.21342314567E+02 -0.32650626676E+03  0.32797164604E+03  0.00000000000E+00 0. -1.
<mgrwt>
<rscale>  2 0.30968668E+02</rscale>
<asrwt>0</asrwt>
<pdfrwt beam="1">  1       21 0.64443496E-03 0.30968668E+02</pdfrwt>
<pdfrwt beam="2">  1       21 0.61017301E-01 0.30968668E+02</pdfrwt>
<totfact> 0.15708303E+07</totfact>
</mgrwt>
</event>
<event>
 4    1  0.3862688E+004  0.2190649E+02  0.7546771E-02  0.1709874E+00
         21   -1    0    0  501  502  0.00000000000E+00  0.00000000000E+00  0.24682493521E+03  0.24682493521E+03  0.00000000000E+00 0. -1.
         21   -1    0    0  502  503 -0.00000000000E+00 -0.00000000000E+00 -0.20314806222E+01  0.20314806222E+01  0.00000000000E+00 0. -1.
          1    1    1    2  501    0 -0.73617883160E+01 -0.20632456360E+02  0.96615799081E+02  0.99068192749E+02  0.00000000000E+00 0.  1.
         -1    1    1    2    0  503  0.73617883160E+01  0.20632456360E+02  0.14817765551E+03  0.14978822309E+03  0.00000000000E+00 0. -1.
<mgrwt>
<rscale>  2 0.21906487E+02</rscale>
<asrwt>0</asrwt>
<pdfrwt beam="1">  1       21 0.37973043E-01 0.21906487E+02</pdfrwt>
<pdfrwt beam="2">  1       21 0.31253568E-03 0.21906487E+02</pdfrwt>
<totfact> 0.10686494E+08</totfact>
</mgrwt>
</event>
<event>
 4    1  0.3862688E+004  0.2260788E+02  0.7546771E-02  0.1697946E+00
         21   -1    0    0  503  502  0.00000000000E+00  0.00000000000E+00  0.20286714509E+02  0.20286714509E+02  0.00000000000E+00 0. -1.
         21   -1    0    0  501  503 -0.00000000000E+00 -0.00000000000E+00 -0.26441724854E+02  0.26441724854E+02  0.00000000000E+00 0. -1.
          4    1    1    2  501    0 -0.19088386473E+02 -0.12114028135E+02  0.19965701257E+01  0.22695868964E+02  0.00000000000E+00 0.  1.
         -4    1    1    2    0  502  0.19088386473E+02  0.12114028135E+02 -0.81515804704E+01  0.24032570398E+02  0.00000000000E+00 0. -1.
<mgrwt>
<rscale>  2 0.22607879E+02</rscale>
<asrwt>0</asrwt>
<pdfrwt beam="1">  1       21 0.31210330E-02 0.22607879E+02</pdfrwt>
<pdfrwt beam="2">  1       21 0.40679577E-02 0.22607879E+02</pdfrwt>
<totfact> 0.14864791E+08</totfact>
</mgrwt>
</event>
<event>
 4    1  0.3862688E+004  0.2133893E+02  0.7546771E-02  0.1719942E+00
         21   -1    0    0  501  502  0.00000000000E+00  0.00000000000E+00  0.86787650006E+01  0.86787650006E+01  0.00000000000E+00 0.  1.
         21   -1    0    0  502  503 -0.00000000000E+00 -0.00000000000E+00 -0.54626284594E+02  0.54626284594E+02  0.00000000000E+00 0.  1.
          3    1    1    2  501    0  0.18683930219E+02  0.10308275590E+02 -0.16680864224E+02  0.27085070155E+02  0.00000000000E+00 0.  1.
         -3    1    1    2    0  503 -0.18683930219E+02 -0.10308275590E+02 -0.29266655370E+02  0.36219979440E+02  0.00000000000E+00 0. -1.
<mgrwt>
<rscale>  2 0.21338927E+02</rscale>
<asrwt>0</asrwt>
<pdfrwt beam="1">  1       21 0.13351946E-02 0.21338927E+02</pdfrwt>
<pdfrwt beam="2">  1       21 0.84040439E-02 0.21338927E+02</pdfrwt>
<totfact> 0.16789814E+08</totfact>
</mgrwt>
</event>
<event>
 4    1  0.3862688E+004  0.2133785E+02  0.7546771E-02  0.1719962E+00
         21   -1    0    0  503  502  0.00000000000E+00  0.00000000000E+00  0.15645691153E+03  0.15645691153E+03  0.00000000000E+00 0. -1.
         21   -1    0    0  501  503 -0.00000000000E+00 -0.00000000000E+00 -0.30408727305E+01  0.30408727305E+01  0.00000000000E+00 0. -1.
          5    1    1    2  501    0 -0.14471239761E+02  0.15680789502E+02  0.60169442889E+02  0.63840941387E+02  0.00000000000E+00 0. -1.
         -5    1    1    2    0  502  0.14471239761E+02 -0.15680789502E+02  0.93246595908E+02  0.95656842871E+02  0.00000000000E+00 0.  1.
<mgrwt>
<rscale>  2 0.21337852E+02</rscale>
<asrwt>0</asrwt>
<pdfrwt beam="1">  1       21 0.24070288E-01 0.21337852E+02</pdfrwt>
<pdfrwt beam="2">  1       21 0.46782670E-03 0.21337852E+02</pdfrwt>
<totfact> 0.13462196E+08</totfact>
</mgrwt>
</event>
<event>
 4    1  0.3862688E+004  0.2106074E+02  0.7546771E-02  0.1725021E+00
         21   -1    0    0  501  502  0.00000000000E+00  0.00000000000E+00  0.27962502359E+03  0.27962502359E+03  0.00000000000E+00 0.  1.
         21   -1    0    0  502  503 -0.00000000000E+00 -0.00000000000E+00 -0.17244453539E+01  0.17244453539E+01  0.00000000000E+00 0.  1.
          1    1    1    2  501    0 -0.20055699335E+02 -0.64283565856E+01  0.99126730049E+02  0.10133934801E+03  0.00000000000E+00 0. -1.
         -1    1    1    2    0  503  0.20055699335E+02  0.64283565856E+01  0.17877384819E+03  0.18001012094E+03  0.00000000000E+00 0.  1.
<mgrwt>
<rscale>  2 0.21060742E+02</rscale>
<asrwt>0</asrwt>
<pdfrwt beam="1">  1       21 0.43019198E-01 0.21060742E+02</pdfrwt>
<pdfrwt beam="2">  1       21 0.26529951E-03 0.21060742E+02</pdfrwt>
<totfact> 0.10607085E+08</totfact>
</mgrwt>
</event>
<event>
 4    1  0.3862688E+004  0.2594713E+02  0.7546771E-02  0.1647759E+00
         21   -1    0    0  503  502  0.00000000000E+00  0.00000000000E+00  0.34487516850E+02  0.34487516850E+02  0.00000000000E+00 0. -1.
         21   -1    0    0  501  503 -0.00000000000E+00 -0.00000000000E+00 -0.22388349025E+02  0.22388349025E+02  0.00000000000E+00 0. -1.
          2    1    1    2  501    0 -0.13880768373E+02 -0.21922086200E+02  0.16225587434E+02  0.30602667883E+02  0.00000000000E+00 0.  1.
         -2    1    1    2    0  502  0.13880768373E+02  0.21922086200E+02 -0.41264196091E+01  0.26273197993E+02  0.00000000000E+00 0. -1.
<mgrwt>
<rscale>  2 0.25947131E+02</rscale>
<asrwt>0</asrwt>
<pdfrwt beam="1">  1       21 0.53057718E-02 0.25947131E+02</pdfrwt>
<pdfrwt beam="2">  1       21 0.34443614E-02 0.25947131E+02</pdfrwt>
<totfact> 0.86822839E+07</totfact>
</mgrwt>
</event>
<event>
 4    1  0.3862688E+004  0.2227839E+02  0.7546771E-02  0.1703481E+00
         21   -1    0    0  503  502  0.00000000000E+00  0.00000000000E+00  0.48010101996E+01  0.48010101996E+01  0.00000000000E+00 0. -1.
         21   -1    0    0  501  503 -0.00000000000E+00 -0.00000000000E+00 -0.20303110290E+03  0.20303110290E+03  0.00000000000E+00 0. -1.
          3    1    1    2  501    0  0.42718564642E+01 -0.21864996458E+02 -0.17191702028E+03  0.17335451736E+03  0.00000000000E+00 0. -1.
         -3    1    1    2    0  502 -0.42718564642E+01  0.21864996458E+02 -0.26313072426E+02  0.34477595744E+02  0.00000000000E+00 0.  1.
<mgrwt>
<rscale>  2 0.22278394E+02</rscale>
<asrwt>0</asrwt>
<pdfrwt beam="1">  1       21 0.73861705E-03 0.22278394E+02</pdfrwt>
<pdfrwt beam="2">  1       21 0.31235550E-01 0.22278394E+02</pdfrwt>
<totfact> 0.43409250E+07</totfact>
</mgrwt>
</event>
<event>
 4    1  0.3862688E+004  0.2199271E+02  0.7546771E-02  0.1708378E+00
         21   -1    0    0  503  502  0.00000000000E+00  0.00000000000E+00  0.12598962384E+03  0.12598962384E+03  0.00000000000E+00 0.  1.
         21   -1    0    0  501  503 -0.00000000000E+00 -0.00000000000E+00 -0.39571941901E+01  0.39571941901E+01  0.00000000000E+00 0.  1.
          2    1    1    2  501    0  0.18163065569E+02 -0.12400907461E+02  0.49789236822E+02  0.54430208157E+02  0.00000000000E+00 0. -1.
         -2    1    1    2    0  502 -0.18163065569E+02  0.12400907461E+02  0.72243192823E+02  0.75516609868E+02  0.00000000000E+00 0.  1.
<mgrwt>
<rscale>  2 0.21992714E+02</rscale>
<asrwt>0</asrwt>
<pdfrwt beam="1">  1       21 0.19383016E-01 0.21992714E+02</pdfrwt>
<pdfrwt beam="2">  1       21 0.60879920E-03 0.21992714E+02</pdfrwt>
<totfact> 0.13464058E+08</totfact>
</mgrwt>
</event>
<event>
 4    1  0.3862688E+004  0.2045929E+02  0.7546771E-02  0.1736346E+00
         21   -1    0    0  503  502  0.00000000000E+00  0.00000000000E+00  0.27023964602E+02  0.27023964602E+02  0.00000000000E+00 0. -1.
         21   -1    0    0  501  503 -0.00000000000E+00 -0.00000000000E+00 -0.15699675367E+02  0.15699675367E+02  0.00000000000E+00 0. -1.
          5    1    1    2  501    0  0.20405369021E+02  0.14844034477E+01  0.81348994281E+01  0.22017246130E+02  0.00000000000E+00 0.  1.
         -5    1    1    2    0  502 -0.20405369021E+02 -0.14844034477E+01  0.31893898073E+01  0.20706393839E+02  0.00000000000E+00 0. -1.
<mgrwt>
<rscale>  2 0.20459290E+02</rscale>
<asrwt>0</asrwt>
<pdfrwt beam="1">  1       21 0.41575330E-02 0.20459290E+02</pdfrwt>
<pdfrwt beam="2">  1       21 0.24153347E-02 0.20459290E+02</pdfrwt>
<totfact> 0.20698513E+08</totfact>
</mgrwt>
</event>
<event>
 4    1  0.3862688E+004  0.2476268E+02  0.7546771E-02  0.1664434E+00
         21   -1    0    0  501  502  0.00000000000E+00  0.00000000000E+00  0.42258935189E+02  0.42258935189E+02  0.00000000000E+00 0. -1.
         21   -1    0    0  502  503 -0.00000000000E+00 -0.00000000000E+00 -0.18271395698E+02  0.18271395698E+02  0.00000000000E+00 0. -1.
          4    1    1    2  501    0  0.19920369131E+02 -0.14709487164E+02 -0.17376038778E+01  0.24823565138E+02  0.00000000000E+00 0. -1.
         -4    1    1    2    0  503 -0.19920369131E+02  0.14709487164E+02  0.25725143369E+02  0.35706765749E+02  0.00000000000E+00 0.  1.
<mgrwt>
<rscale>  2 0.24762676E+02</rscale>
<asrwt>0</asrwt>
<pdfrwt beam="1">  1       21 0.65013746E-02 0.24762676E+02</pdfrwt>
<pdfrwt beam="2">  1       21 0.28109840E-02 0.24762676E+02</pdfrwt>
<totfact> 0.84986424E+07</totfact>
</mgrwt>
</event>
<event>
 4    1  0.3862688E+004  0.2357309E+02  0.7546771E-02  0.1682385E+00
         21   -1    0    0  503  502  0.00000000000E+00  0.00000000000E+00  0.36805333014E+01  0.36805333014E+01  0.00000000000E+00 0.  1.
         21   -1    0    0  501  503 -0.00000000000E+00 -0.00000000000E+00 -0.15103293032E+03  0.15103293032E+03  0.00000000000E+00 0.  1.
          5    1    1    2  501    0  0.23382172902E+02  0.29940924855E+01 -0.75110602914E+02  0.78722889108E+02  0.00000000000E+00 0.  1.
         -5    1    1    2    0  502 -0.23382172902E+02 -0.29940924855E+01 -0.72241794109E+02  0.75990574518E+02  0.00000000000E+00 0. -1.
<mgrwt>
<rscale>  2 0.23573091E+02</rscale>
<asrwt>0</asrwt>
<pdfrwt beam="1">  1       21 0.56623599E-03 0.23573091E+02</pdfrwt>
<pdfrwt beam="2">  1       21 0.23235831E-01 0.23573091E+02</pdfrwt>
<totfact> 0.11122580E+08</totfact>
</mgrwt>
</event>
<event>
 4    1  0.3862688E+004  0.2059131E+02  0.7546771E-02  0.1733818E+00
         21   -1    0    0  501  502  0.00000000000E+00  0.00000000000E+00  0.48668211413E+02  0.48668211413E+02  0.00000000000E+00 0.  1.
         21   -1    0    0  502  503 -0.00000000000E+00 -0.00000000000E+00 -0.13788081413E+02  0.13788081413E+02  0.00000000000E+00 0.  1.
          5    1    1    2  501    0 -0.19772512502E+02  0.57489118953E+01  0.36387672273E+02  0.41809866444E+02  0.00000000000E+00 0. -1.
         -5    1    1    2    0  503  0.19772512502E+02 -0.57489118953E+01 -0.15075422728E+01  0.20646426382E+02  0.00000000000E+00 0.  1.
<mgrwt>
<rscale>  2 0.20591315E+02</rscale>
<asrwt>0</asrwt>
<pdfrwt beam="1">  1       21 0.74874170E-02 0.20591315E+02</pdfrwt>
<pdfrwt beam="2">  1       21 0.21212433E-02 0.20591315E+02</pdfrwt>
<totfact> 0.99122492E+07</totfact>
</mgrwt>
</event>
<event>
 4    1  0.3862688E+004  0.4353779E+02  0.7546771E-02  0.1483682E+00
         21   -1    0    0  501  502  0.00000000000E+00  0.00000000000E+00  0.21330613109E+02  0.21330613109E+02  0.00000000000E+00 0. -1.
         21   -1    0    0  502  503 -0.00000000000E+00 -0.00000000000E+00 -0.10768514814E+03  0.10768514814E+03  0.00000000000E+00 0. -1.
          5    1    1    2  501    0  0.82833538947E+01  0.42742547006E+02 -0.70145311491E+02  0.82558488361E+02  0.00000000000E+00 0. -1.
         -5    1    1    2    0  503 -0.82833538947E+01 -0.42742547006E+02 -0.16209223540E+02  0.46457272887E+02  0.00000000000E+00 0.  1.
<mgrwt>
<rscale>  2 0.43537791E+02</rscale>
<asrwt>0</asrwt>
<pdfrwt beam="1">  1       21 0.32816327E-02 0.43537791E+02</pdfrwt>
<pdfrwt beam="2">  1       21 0.16566946E-01 0.43537791E+02</pdfrwt>
<totfact> 0.15441401E+07</totfact>
</mgrwt>
</event>
<event>
 4    1  0.3862688E+004  0.2227704E+02  0.7546771E-02  0.1703504E+00
         21   -1    0    0  501  502  0.00000000000E+00  0.00000000000E+00  0.47509276093E+03  0.47509276093E+03  0.00000000000E+00 0.  1.
         21   -1    0    0  502  503 -0.00000000000E+00 -0.00000000000E+00 -0.12691346112E+01  0.12691346112E+01  0.00000000000E+00 0.  1.
          1    1    1    2  501    0 -0.17924210373E+02 -0.13228340304E+02  0.33710231738E+03  0.33783759218E+03  0.00000000000E+00 0. -1.
         -1    1    1    2    0  503  0.17924210373E+02  0.13228340304E+02  0.13672130894E+03  0.13852430337E+03  0.00000000000E+00 0.  1.
<mgrwt>
<rscale>  2 0.22277035E+02</rscale>
<asrwt>0</asrwt>
<pdfrwt beam="1">  1       21 0.73091052E-01 0.22277035E+02</pdfrwt>
<pdfrwt beam="2">  1       21 0.19525186E-03 0.22277035E+02</pdfrwt>
<totfact> 0.58836810E+07</totfact>
</mgrwt>
</event>
<event>
 4    1  0.3862688E+004  0.2015874E+02  0.7546771E-02  0.1742190E+00
         21   -1    0    0  503  502  0.00000000000E+00  0.00000000000E+00  0.34254948131E+02  0.34254948131E+02  0.00000000000E+00 0.  1.
         21   -1    0    0  501  503 -0.00000000000E+00 -0.00000000000E+00 -0.12196730178E+02  0.12196730178E+02  0.00000000000E+00 0.  1.
          5    1    1    2  501    0  0.19479084601E+02 -0.51903775925E+01  0.71885927655E+01  0.21402117241E+02  0.00000000000E+00 0.  1.
         -5    1    1    2    0  502 -0.19479084601E+02  0.51903775925E+01  0.14869625188E+02  0.25049561068E+02  0.00000000000E+00 0. -1.
<mgrwt>
<rscale>  2 0.20158739E+02</rscale>
<asrwt>0</asrwt>
<pdfrwt beam="1">  1       21 0.52699920E-02 0.20158739E+02</pdfrwt>
<pdfrwt beam="2">  1       21 0.18764200E-02 0.20158739E+02</pdfrwt>
<totfact> 0.20845496E+08</totfact>
</mgrwt>
</event>
<event>
 4    1  0.3862688E+004  0.2153713E+02  0.7546771E-02  0.1716382E+00
         21   -1    0    0  503  502  0.00000000000E+00  0.00000000000E+00  0.22854691304E+03  0.22854691304E+03  0.00000000000E+00 0. -1.
         21   -1    0    0  501  503 -0.00000000000E+00 -0.00000000000E+00 -0.21283249951E+01  0.21283249951E+01  0.00000000000E+00 0. -1.
          2    1    1    2  501    0  0.19555938726E+02 -0.90229290038E+01  0.88362535061E+02  0.90949357281E+02  0.00000000000E+00 0. -1.
         -2    1    1    2    0  502 -0.19555938726E+02  0.90229290038E+01  0.13805605298E+03  0.13972588075E+03  0.00000000000E+00 0.  1.
<mgrwt>
<rscale>  2 0.21537130E+02</rscale>
<asrwt>0</asrwt>
<pdfrwt beam="1">  1       21 0.35161044E-01 0.21537130E+02</pdfrwt>
<pdfrwt beam="2">  1       21 0.32743480E-03 0.21537130E+02</pdfrwt>
<totfact> 0.11466094E+08</totfact>
</mgrwt>
</event>
<event>
 4    1  0.3862688E+004  0.3831198E+02  0.7546771E-02  0.1521014E+00
         21   -1    0    0  501  502  0.00000000000E+00  0.00000000000E+00  0.46052834554E+02  0.46052834554E+02  0.00000000000E+00 0.  1.
         21   -1    0    0  502  503 -0.00000000000E+00 -0.00000000000E+00 -0.35888834290E+02  0.35888834290E+02  0.00000000000E+00 0.  1.
          5    1    1    2  501    0  0.97155371484E+01 -0.37059633755E+02  0.18788381159E+02  0.42670966508E+02  0.00000000000E+00 0. -1.
         -5    1    1    2    0  503 -0.97155371484E+01  0.37059633755E+02 -0.86243808948E+01  0.39270702336E+02  0.00000000000E+00 0.  1.
<mgrwt>
<rscale>  2 0.38311984E+02</rscale>
<asrwt>0</asrwt>
<pdfrwt beam="1">  1       21 0.70850515E-02 0.38311984E+02</pdfrwt>
<pdfrwt beam="2">  1       21 0.55213591E-02 0.38311984E+02</pdfrwt>
<totfact> 0.27726156E+07</totfact>
</mgrwt>
</event>
<event>
 4    1  0.3862688E+004  0.2181593E+02  0.7546771E-02  0.1711455E+00
         21   -1    0    0  501  502  0.00000000000E+00  0.00000000000E+00  0.11382039319E+03  0.11382039319E+03  0.00000000000E+00 0. -1.
         21   -1    0    0  502  503 -0.00000000000E+00 -0.00000000000E+00 -0.64839300553E+01  0.64839300553E+01  0.00000000000E+00 0. -1.
          4    1    1    2  501    0 -0.26875864748E+01  0.21649750841E+02  0.89513312165E+02  0.92133424376E+02  0.00000000000E+00 0.  1.
         -4    1    1    2    0  503  0.26875864748E+01 -0.21649750841E+02  0.17823150966E+02  0.28170898866E+02  0.00000000000E+00 0. -1.
<mgrwt>
<rscale>  2 0.21815931E+02</rscale>
<asrwt>0</asrwt>
<pdfrwt beam="1">  1       21 0.17510828E-01 0.21815931E+02</pdfrwt>
<pdfrwt beam="2">  1       21 0.99752779E-03 0.21815931E+02</pdfrwt>
<totfact> 0.76746103E+07</totfact>
</mgrwt>
</event>
<event>
 4    1  0.3862688E+004  0.2200905E+02  0.7546771E-02  0.1708095E+00
         21   -1    0    0  501  502  0.00000000000E+00  0.00000000000E+00  0.39137414240E+03  0.39137414240E+03  0.00000000000E+00 0. -1.
         21   -1    0    0  502  503 -0.00000000000E+00 -0.00000000000E+00 -0.12419292394E+01  0.12419292394E+01  0.00000000000E+00 0. -1.
          5    1    1    2  501    0 -0.77668629327E+01  0.20593061862E+02  0.20654052263E+03  0.20770985977E+03  0.00000000000E+00 0. -1.
         -5    1    1    2    0  503  0.77668629327E+01 -0.20593061862E+02  0.18359169053E+03  0.18490621187E+03  0.00000000000E+00 0.  1.
<mgrwt>
<rscale>  2 0.22009052E+02</rscale>
<asrwt>0</asrwt>
<pdfrwt beam="1">  1       21 0.60211308E-01 0.22009052E+02</pdfrwt>
<pdfrwt beam="2">  1       21 0.19106635E-03 0.22009052E+02</pdfrwt>
<totfact> 0.89683800E+07</totfact>
</mgrwt>
</event>
<event>
 4    1  0.3862688E+004  0.2411903E+02  0.7546771E-02  0.1673988E+00
         21   -1    0    0  503  502  0.00000000000E+00  0.00000000000E+00  0.18346111366E+01  0.18346111366E+01  0.00000000000E+00 0.  1.
         21   -1    0    0  501  503 -0.00000000000E+00 -0.00000000000E+00 -0.38571215844E+03  0.38571215844E+03  0.00000000000E+00 0.  1.
          1    1    1    2  501    0 -0.16980423254E+00 -0.24118436634E+02 -0.11020336918E+03  0.11281183624E+03  0.00000000000E+00 0. -1.
         -1    1    1    2    0  502  0.16980423254E+00  0.24118436634E+02 -0.27367417812E+03  0.27473493333E+03  0.00000000000E+00 0.  1.
<mgrwt>
<rscale>  2 0.24119034E+02</rscale>
<asrwt>0</asrwt>
<pdfrwt beam="1">  1       21 0.28224746E-03 0.24119034E+02</pdfrwt>
<pdfrwt beam="2">  1       21 0.59340417E-01 0.24119034E+02</pdfrwt>
<totfact> 0.53644978E+07</totfact>
</mgrwt>
</event>
<event>
 4    1  0.3862688E+004  0.4624318E+02  0.7546771E-02  0.1466727E+00
         21   -1    0    0  501  502  0.00000000000E+00  0.00000000000E+00  0.16899099458E+02  0.16899099458E+02  0.00000000000E+00 0. -1.
         21   -1    0    0  502  503 -0.00000000000E+00 -0.00000000000E+00 -0.12676385152E+03  0.12676385152E+03  0.00000000000E+00 0. -1.
          5    1    1    2  501    0  0.40947634307E+02 -0.21487729206E+02 -0.51921511489E+02  0.69528948051E+02  0.00000000000E+00 0. -1.
         -5    1    1    2    0  503 -0.40947634307E+02  0.21487729206E+02 -0.57943240572E+02  0.74134002925E+02  0.00000000000E+00 0.  1.
<mgrwt>
<rscale>  2 0.46243175E+02</rscale>
<asrwt>0</asrwt>
<pdfrwt beam="1">  1       21 0.25998615E-02 0.46243175E+02</pdfrwt>
<pdfrwt beam="2">  1       21 0.19502131E-01 0.46243175E+02</pdfrwt>
<totfact> 0.16892341E+07</totfact>
</mgrwt>
</event>
<event>
 4    1  0.3862688E+004  0.2040852E+02  0.7546771E-02  0.1737324E+00
         21   -1    0    0  503  502  0.00000000000E+00  0.00000000000E+00  0.22857069260E+02  0.22857069260E+02  0.00000000000E+00 0.  1.
         21   -1    0    0  501  503 -0.00000000000E+00 -0.00000000000E+00 -0.20528541843E+02  0.20528541843E+02  0.00000000000E+00 0.  1.
          1    1    1    2  501    0  0.16898964726E+02 -0.11442581165E+02  0.84352275049E+01  0.22083041810E+02  0.00000000000E+00 0.  1.
         -1    1    1    2    0  502 -0.16898964726E+02  0.11442581165E+02 -0.61067000881E+01  0.21302569293E+02  0.00000000000E+00 0. -1.
<mgrwt>
<rscale>  2 0.20408520E+02</rscale>
<asrwt>0</asrwt>
<pdfrwt beam="1">  1       21 0.35164722E-02 0.20408520E+02</pdfrwt>
<pdfrwt beam="2">  1       21 0.31582372E-02 0.20408520E+02</pdfrwt>
<totfact> 0.17761212E+08</totfact>
</mgrwt>
</event>
<event>
 4    1  0.3862688E+004  0.2281129E+02  0.7546771E-02  0.1694587E+00
         21   -1    0    0  501  502  0.00000000000E+00  0.00000000000E+00  0.44994926902E+02  0.44994926902E+02  0.00000000000E+00 0.  1.
         21   -1    0    0  502  503 -0.00000000000E+00 -0.00000000000E+00 -0.12437150793E+02  0.12437150793E+02  0.00000000000E+00 0.  1.
          4    1    1    2  501    0  0.11949153649E+02 -0.19431227775E+02  0.86734683177E+01  0.24404588471E+02  0.00000000000E+00 0.  1.
         -4    1    1    2    0  503 -0.11949153649E+02  0.19431227775E+02  0.23884307791E+02  0.33027489224E+02  0.00000000000E+00 0. -1.
<mgrwt>
<rscale>  2 0.22811289E+02</rscale>
<asrwt>0</asrwt>
<pdfrwt beam="1">  1       21 0.69222963E-02 0.22811289E+02</pdfrwt>
<pdfrwt beam="2">  1       21 0.19134078E-02 0.22811289E+02</pdfrwt>
<totfact> 0.13585308E+08</totfact>
</mgrwt>
</event>
<event>
 4    1  0.3862688E+004  0.2004335E+02  0.7546771E-02  0.1744467E+00
         21   -1    0    0  503  502  0.00000000000E+00  0.00000000000E+00  0.21863455579E+03  0.21863455579E+03  0.00000000000E+00 0.  1.
         21   -1    0    0  501  503 -0.00000000000E+00 -0.00000000000E+00 -0.27638829840E+01  0.27638829840E+01  0.00000000000E+00 0.  1.
          1    1    1    2  501    0 -0.15397651546E+02  0.12831528963E+02  0.43846028953E+02  0.48210061850E+02  0.00000000000E+00 0. -1.
         -1    1    1    2    0  502  0.15397651546E+02 -0.12831528963E+02  0.17202464386E+03  0.17318837693E+03  0.00000000000E+00 0.  1.
<mgrwt>
<rscale>  2 0.20043348E+02</rscale>
<asrwt>0</asrwt>
<pdfrwt beam="1">  1       21 0.33636072E-01 0.20043348E+02</pdfrwt>
<pdfrwt beam="2">  1       21 0.42521294E-03 0.20043348E+02</pdfrwt>
<totfact> 0.83291267E+07</totfact>
</mgrwt>
</event>
<event>
 4    1  0.3862688E+004  0.2846279E+02  0.7546771E-02  0.1615730E+00
         21   -1    0    0  503  502  0.00000000000E+00  0.00000000000E+00  0.20261350609E+02  0.20261350609E+02  0.00000000000E+00 0.  1.
         21   -1    0    0  501  503 -0.00000000000E+00 -0.00000000000E+00 -0.81120327958E+02  0.81120327958E+02  0.00000000000E+00 0.  1.
          5    1    1    2  501    0 -0.14920301043E+02  0.24238715088E+02  0.56680152662E+01  0.29021665862E+02  0.00000000000E+00 0. -1.
         -5    1    1    2    0  502  0.14920301043E+02 -0.24238715088E+02 -0.66526992615E+02  0.72360012706E+02  0.00000000000E+00 0.  1.
<mgrwt>
<rscale>  2 0.28462795E+02</rscale>
<asrwt>0</asrwt>
<pdfrwt beam="1">  1       21 0.31171308E-02 0.28462795E+02</pdfrwt>
<pdfrwt beam="2">  1       21 0.12480051E-01 0.28462795E+02</pdfrwt>
<totfact> 0.25399913E+07</totfact>
</mgrwt>
</event>
<event>
 4    1  0.3862688E+004  0.2166369E+02  0.7546771E-02  0.1714134E+00
         21   -1    0    0  501  502  0.00000000000E+00  0.00000000000E+00  0.14538540969E+02  0.14538540969E+02  0.00000000000E+00 0.  1.
         21   -1    0    0  502  503 -0.00000000000E+00 -0.00000000000E+00 -0.32928006642E+02  0.32928006642E+02  0.00000000000E+00 0.  1.
          4    1    1    2  501    0  0.21610167862E+02 -0.15219239598E+01 -0.58673764908E+01  0.22444191107E+02  0.00000000000E+00 0.  1.
         -4    1    1    2    0  503 -0.21610167862E+02  0.15219239598E+01 -0.12522089183E+02  0.25022356505E+02  0.00000000000E+00 0. -1.
<mgrwt>
<rscale>  2 0.21663693E+02</rscale>
<asrwt>0</asrwt>
<pdfrwt beam="1">  1       21 0.22366986E-02 0.21663693E+02</pdfrwt>
<pdfrwt beam="2">  1       21 0.50658471E-02 0.21663693E+02</pdfrwt>
<totfact> 0.17360663E+08</totfact>
</mgrwt>
</event>
<event>
 4    1  0.3862688E+004  0.2291994E+02  0.7546771E-02  0.1692811E+00
         21   -1    0    0  501  502  0.00000000000E+00  0.00000000000E+00  0.26232423976E+03  0.26232423976E+03  0.00000000000E+00 0.  1.
         21   -1    0    0  502  503 -0.00000000000E+00 -0.00000000000E+00 -0.20505683286E+01  0.20505683286E+01  0.00000000000E+00 0.  1.
          2    1    1    2  501    0 -0.17136617227E+02  0.15220385721E+02  0.15035987242E+03  0.15209672917E+03  0.00000000000E+00 0. -1.
         -2    1    1    2    0  503  0.17136617227E+02 -0.15220385721E+02  0.10991379901E+03  0.11227807891E+03  0.00000000000E+00 0.  1.
<mgrwt>
<rscale>  2 0.22919943E+02</rscale>
<asrwt>0</asrwt>
<pdfrwt beam="1">  1       21 0.40357549E-01 0.22919943E+02</pdfrwt>
<pdfrwt beam="2">  1       21 0.31547226E-03 0.22919943E+02</pdfrwt>
<totfact> 0.95174692E+07</totfact>
</mgrwt>
</event>
<event>
 4    1  0.3862688E+004  0.2780579E+02  0.7546771E-02  0.1623691E+00
         21   -1    0    0  503  502  0.00000000000E+00  0.00000000000E+00  0.24702702278E+03  0.24702702278E+03  0.00000000000E+00 0.  1.
         21   -1    0    0  501  503 -0.00000000000E+00 -0.00000000000E+00 -0.32860591899E+01  0.32860591899E+01  0.00000000000E+00 0.  1.
          1    1    1    2  501    0  0.88730411907E+01 -0.26352058966E+02  0.94584178530E+02  0.98586655790E+02  0.00000000000E+00 0. -1.
         -1    1    1    2    0  502 -0.88730411907E+01  0.26352058966E+02  0.14915678506E+03  0.15172642618E+03  0.00000000000E+00 0.  1.
<mgrwt>
<rscale>  2 0.27805788E+02</rscale>
<asrwt>0</asrwt>
<pdfrwt beam="1">  1       21 0.38004143E-01 0.27805788E+02</pdfrwt>
<pdfrwt beam="2">  1       21 0.50554776E-03 0.27805788E+02</pdfrwt>
<totfact> 0.55778932E+07</totfact>
</mgrwt>
</event>
<event>
 4    1  0.3862688E+004  0.3958437E+02  0.7546771E-02  0.1511293E+00
         21   -1    0    0  503  502  0.00000000000E+00  0.00000000000E+00  0.23318082618E+02  0.23318082618E+02  0.00000000000E+00 0. -1.
         21   -1    0    0  501  503 -0.00000000000E+00 -0.00000000000E+00 -0.88274125711E+02  0.88274125711E+02  0.00000000000E+00 0. -1.
          4    1    1    2  501    0 -0.33412991021E+02 -0.21224847191E+02 -0.52142844241E+01  0.39926318003E+02  0.00000000000E+00 0. -1.
         -4    1    1    2    0  502  0.33412991021E+02  0.21224847191E+02 -0.59741758670E+02  0.71665890326E+02  0.00000000000E+00 0.  1.
<mgrwt>
<rscale>  2 0.39584367E+02</rscale>
<asrwt>0</asrwt>
<pdfrwt beam="1">  1       21 0.35873973E-02 0.39584367E+02</pdfrwt>
<pdfrwt beam="2">  1       21 0.13580635E-01 0.39584367E+02</pdfrwt>
<totfact> 0.18660656E+07</totfact>
</mgrwt>
</event>
<event>
 4    1  0.3862688E+004  0.2424937E+02  0.7546771E-02  0.1672024E+00
         21   -1    0    0  501  502  0.00000000000E+00  0.00000000000E+00  0.47372027862E+01  0.47372027862E+01  0.00000000000E+00 0. -1.
         21   -1    0    0  502  503 -0.00000000000E+00 -0.00000000000E+00 -0.13034663498E+03  0.13034663498E+03  0.00000000000E+00 0. -1.
          5    1    1    2  501    0 -0.20318376169E+01 -0.24164097207E+02 -0.48055150781E+02  0.53826847154E+02  0.00000000000E+00 0.  1.
         -5    1    1    2    0  503  0.20318376169E+01  0.24164097207E+02 -0.77554281413E+02  0.81256990612E+02  0.00000000000E+00 0. -1.
<mgrwt>
<rscale>  2 0.24249370E+02</rscale>
<asrwt>0</asrwt>
<pdfrwt beam="1">  1       21 0.72880053E-03 0.24249370E+02</pdfrwt>
<pdfrwt beam="2">  1       21 0.20053326E-01 0.24249370E+02</pdfrwt>
<totfact> 0.99836286E+07</totfact>
</mgrwt>
</event>
<event>
 4    1  0.3862688E+004  0.2170984E+02  0.7546771E-02  0.1713319E+00
         21   -1    0    0  501  502  0.00000000000E+00  0.00000000000E+00  0.32697556245E+02  0.32697556245E+02  0.00000000000E+00 0. -1.
         21   -1    0    0  502  503 -0.00000000000E+00 -0.00000000000E+00 -0.14482602874E+02  0.14482602874E+02  0.00000000000E+00 0. -1.
          2    1    1    2  501    0  0.19921566310E+02  0.86283475653E+01  0.74891794883E+01  0.22965299810E+02  0.00000000000E+00 0. -1.
         -2    1    1    2    0  503 -0.19921566310E+02 -0.86283475653E+01  0.10725773883E+02  0.24214859309E+02  0.00000000000E+00 0.  1.
<mgrwt>
<rscale>  2 0.21709841E+02</rscale>
<asrwt>0</asrwt>
<pdfrwt beam="1">  1       21 0.50303932E-02 0.21709841E+02</pdfrwt>
<pdfrwt beam="2">  1       21 0.22280928E-02 0.21709841E+02</pdfrwt>
<totfact> 0.17671587E+08</totfact>
</mgrwt>
</event>
<event>
 4    1  0.3862688E+004  0.2070086E+02  0.7546771E-02  0.1731739E+00
         21   -1    0    0  503  502  0.00000000000E+00  0.00000000000E+00  0.20613322878E+01  0.20613322878E+01  0.00000000000E+00 0.  1.
         21   -1    0    0  501  503 -0.00000000000E+00 -0.00000000000E+00 -0.21399496246E+03  0.21399496246E+03  0.00000000000E+00 0.  1.
          1    1    1    2  501    0 -0.20609228804E+02 -0.19455968441E+01 -0.87717023230E+02  0.90126587771E+02  0.00000000000E+00 0.  1.
         -1    1    1    2    0  502  0.20609228804E+02  0.19455968441E+01 -0.12421660695E+03  0.12592970698E+03  0.00000000000E+00 0. -1.
<mgrwt>
<rscale>  2 0.20700861E+02</rscale>
<asrwt>0</asrwt>
<pdfrwt beam="1">  1       21 0.31712816E-03 0.20700861E+02</pdfrwt>
<pdfrwt beam="2">  1       21 0.32922290E-01 0.20700861E+02</pdfrwt>
<totfact> 0.13406725E+08</totfact>
</mgrwt>
</event>
<event>
 4    1  0.3862688E+004  0.2653921E+02  0.7546771E-02  0.1639830E+00
         21   -1    0    0  503  502  0.00000000000E+00  0.00000000000E+00  0.37741342318E+02  0.37741342318E+02  0.00000000000E+00 0. -1.
         21   -1    0    0  501  503 -0.00000000000E+00 -0.00000000000E+00 -0.25155594165E+02  0.25155594165E+02  0.00000000000E+00 0. -1.
          2    1    1    2  501    0  0.25684087607E+02  0.66826043724E+01  0.22270940531E+02  0.34645697417E+02  0.00000000000E+00 0. -1.
         -2    1    1    2    0  502 -0.25684087607E+02 -0.66826043724E+01 -0.96851923776E+01  0.28251239066E+02  0.00000000000E+00 0.  1.
<mgrwt>
<rscale>  2 0.26539208E+02</rscale>
<asrwt>0</asrwt>
<pdfrwt beam="1">  1       21 0.58063604E-02 0.26539208E+02</pdfrwt>
<pdfrwt beam="2">  1       21 0.38700914E-02 0.26539208E+02</pdfrwt>
<totfact> 0.62847763E+07</totfact>
</mgrwt>
</event>
<event>
 4    1  0.3862688E+004  0.2184366E+02  0.7546771E-02  0.1710970E+00
         21   -1    0    0  503  502  0.00000000000E+00  0.00000000000E+00  0.88305769350E+02  0.88305769350E+02  0.00000000000E+00 0. -1.
         21   -1    0    0  501  503 -0.00000000000E+00 -0.00000000000E+00 -0.54114424214E+01  0.54114424214E+01  0.00000000000E+00 0. -1.
          2    1    1    2  501    0  0.21609509189E+02  0.31897582794E+01  0.43261164707E+02  0.48463118111E+02  0.00000000000E+00 0.  1.
         -2    1    1    2    0  502 -0.21609509189E+02 -0.31897582794E+01  0.39633162222E+02  0.45254093660E+02  0.00000000000E+00 0. -1.
<mgrwt>
<rscale>  2 0.21843659E+02</rscale>
<asrwt>0</asrwt>
<pdfrwt beam="1">  1       21 0.13585502E-01 0.21843659E+02</pdfrwt>
<pdfrwt beam="2">  1       21 0.83252967E-03 0.21843659E+02</pdfrwt>
<totfact> 0.15499681E+08</totfact>
</mgrwt>
</event>
<event>
 4    1  0.3862688E+004  0.2266477E+02  0.7546771E-02  0.1697002E+00
         21   -1    0    0  501  502  0.00000000000E+00  0.00000000000E+00  0.79241272414E+01  0.79241272414E+01  0.00000000000E+00 0.  1.
         21   -1    0    0  502  503 -0.00000000000E+00 -0.00000000000E+00 -0.86567369758E+02  0.86567369758E+02  0.00000000000E+00 0.  1.
          4    1    1    2  501    0 -0.21285916040E+02 -0.77847087345E+01 -0.62998584470E+02  0.66951576210E+02  0.00000000000E+00 0. -1.
         -4    1    1    2    0  503  0.21285916040E+02  0.77847087345E+01 -0.15644658047E+02  0.27539920790E+02  0.00000000000E+00 0.  1.
<mgrwt>
<rscale>  2 0.22664772E+02</rscale>
<asrwt>0</asrwt>
<pdfrwt beam="1">  1       21 0.12190966E-02 0.22664772E+02</pdfrwt>
<pdfrwt beam="2">  1       21 0.13318056E-01 0.22664772E+02</pdfrwt>
<totfact> 0.91408509E+07</totfact>
</mgrwt>
</event>
<event>
 4    1  0.3862688E+004  0.2189697E+02  0.7546771E-02  0.1710040E+00
         21   -1    0    0  501  502  0.00000000000E+00  0.00000000000E+00  0.50636236904E+03  0.50636236904E+03  0.00000000000E+00 0. -1.
         21   -1    0    0  502  503 -0.00000000000E+00 -0.00000000000E+00 -0.11215255300E+01  0.11215255300E+01  0.00000000000E+00 0. -1.
          2    1    1    2  501    0  0.14167612213E+02 -0.16695988112E+02  0.15249719063E+03  0.15406125537E+03  0.00000000000E+00 0.  1.
         -2    1    1    2    0  503 -0.14167612213E+02  0.16695988112E+02  0.35274365288E+03  0.35342263920E+03  0.00000000000E+00 0. -1.
<mgrwt>
<rscale>  2 0.21896969E+02</rscale>
<asrwt>0</asrwt>
<pdfrwt beam="1">  1       21 0.77901720E-01 0.21896969E+02</pdfrwt>
<pdfrwt beam="2">  1       21 0.17254279E-03 0.21896969E+02</pdfrwt>
<totfact> 0.61345499E+07</totfact>
</mgrwt>
</event>
<event>
 4    1  0.3862688E+004  0.2711023E+02  0.7546771E-02  0.1632420E+00
         21   -1    0    0  503  502  0.00000000000E+00  0.00000000000E+00  0.71972868785E+01  0.71972868785E+01  0.00000000000E+00 0.  1.
         21   -1    0    0  501  503 -0.00000000000E+00 -0.00000000000E+00 -0.13989264805E+03  0.13989264805E+03  0.00000000000E+00 0.  1.
          2    1    1    2  501    0  0.13675633680E+02 -0.23408153726E+02 -0.10456516145E+03  0.10802239401E+03  0.00000000000E+00 0. -1.
         -2    1    1    2    0  502 -0.13675633680E+02  0.23408153726E+02 -0.28130199720E+02  0.39067540922E+02  0.00000000000E+00 0.  1.
<mgrwt>
<rscale>  2 0.27110231E+02</rscale>
<asrwt>0</asrwt>
<pdfrwt beam="1">  1       21 0.11072750E-02 0.27110231E+02</pdfrwt>
<pdfrwt beam="2">  1       21 0.21521944E-01 0.27110231E+02</pdfrwt>
<totfact> 0.48307192E+07</totfact>
</mgrwt>
</event>
<event>
 4    1  0.3862688E+004  0.2637183E+02  0.7546771E-02  0.1642045E+00
         21   -1    0    0  501  502  0.00000000000E+00  0.00000000000E+00  0.18994385185E+03  0.18994385185E+03  0.00000000000E+00 0.  1.
         21   -1    0    0  502  503 -0.00000000000E+00 -0.00000000000E+00 -0.52965146014E+01  0.52965146014E+01  0.00000000000E+00 0.  1.
          1    1    1    2  501    0 -0.28134324849E+01 -0.26221330615E+02  0.14656238801E+03  0.14891610779E+03  0.00000000000E+00 0.  1.
         -1    1    1    2    0  503  0.28134324849E+01  0.26221330615E+02  0.38084949237E+02  0.46324258655E+02  0.00000000000E+00 0. -1.
<mgrwt>
<rscale>  2 0.26371833E+02</rscale>
<asrwt>0</asrwt>
<pdfrwt beam="1">  1       21 0.29222126E-01 0.26371833E+02</pdfrwt>
<pdfrwt beam="2">  1       21 0.81484855E-03 0.26371833E+02</pdfrwt>
<totfact> 0.44017450E+07</totfact>
</mgrwt>
</event>
<event>
 4    1  0.3862688E+004  0.2336956E+02  0.7546771E-02  0.1685589E+00
         21   -1    0    0  501  502  0.00000000000E+00  0.00000000000E+00  0.17605667075E+03  0.17605667075E+03  0.00000000000E+00 0. -1.
         21   -1    0    0  502  503 -0.00000000000E+00 -0.00000000000E+00 -0.31035338258E+01  0.31035338258E+01  0.00000000000E+00 0. -1.
          1    1    1    2  501    0  0.19833112895E+02 -0.12360581210E+02  0.88436275754E+02  0.91471914839E+02  0.00000000000E+00 0.  1.
         -1    1    1    2    0  503 -0.19833112895E+02  0.12360581210E+02  0.84516861166E+02  0.87688289733E+02  0.00000000000E+00 0. -1.
<mgrwt>
<rscale>  2 0.23369560E+02</rscale>
<asrwt>0</asrwt>
<pdfrwt beam="1">  1       21 0.27085634E-01 0.23369560E+02</pdfrwt>
<pdfrwt beam="2">  1       21 0.47746688E-03 0.23369560E+02</pdfrwt>
<totfact> 0.10857205E+08</totfact>
</mgrwt>
</event>
<event>
 4    1  0.3862688E+004  0.3044959E+02  0.7546771E-02  0.1593172E+00
         21   -1    0    0  503  502  0.00000000000E+00  0.00000000000E+00  0.19015902095E+04  0.19015902095E+04  0.00000000000E+00 0.  1.
         21   -1    0    0  501  503 -0.00000000000E+00 -0.00000000000E+00 -0.68015522935E+00  0.68015522935E+00  0.00000000000E+00 0.  1.
          2    1    1    2  501    0 -0.29486379552E+02 -0.75980890757E+01  0.44435270557E+03  0.44539477375E+03  0.00000000000E+00 0. -1.
         -2    1    1    2    0  502  0.29486379552E+02  0.75980890757E+01  0.14565573487E+04  0.14568755910E+04  0.00000000000E+00 0.  1.
<mgrwt>
<rscale>  2 0.30449590E+02</rscale>
<asrwt>0</asrwt>
<pdfrwt beam="1">  1       21 0.29254808E+00 0.30449590E+02</pdfrwt>
<pdfrwt beam="2">  1       21 0.10464079E-03 0.30449590E+02</pdfrwt>
<totfact> 0.49568931E+06</totfact>
</mgrwt>
</event>
<event>
 4    1  0.3862688E+004  0.2897151E+02  0.7546771E-02  0.1609744E+00
         21   -1    0    0  503  502  0.00000000000E+00  0.00000000000E+00  0.20828866142E+03  0.20828866142E+03  0.00000000000E+00 0.  1.
         21   -1    0    0  501  503 -0.00000000000E+00 -0.00000000000E+00 -0.45062242845E+01  0.45062242845E+01  0.00000000000E+00 0.  1.
          5    1    1    2  501    0 -0.26628180991E+01 -0.28848880907E+02  0.67293262963E+02  0.73264805808E+02  0.00000000000E+00 0. -1.
         -5    1    1    2    0  502  0.26628180991E+01  0.28848880907E+02  0.13648917417E+03  0.13953007989E+03  0.00000000000E+00 0.  1.
<mgrwt>
<rscale>  2 0.28971512E+02</rscale>
<asrwt>0</asrwt>
<pdfrwt beam="1">  1       21 0.32044402E-01 0.28971512E+02</pdfrwt>
<pdfrwt beam="2">  1       21 0.69326544E-03 0.28971512E+02</pdfrwt>
<totfact> 0.48330487E+07</totfact>
</mgrwt>
</event>
<event>
 4    1  0.3862688E+004  0.2941978E+02  0.7546771E-02  0.1604592E+00
         21   -1    0    0  503  502  0.00000000000E+00  0.00000000000E+00  0.42529428920E+02  0.42529428920E+02  0.00000000000E+00 0.  1.
         21   -1    0    0  501  503 -0.00000000000E+00 -0.00000000000E+00 -0.20639454395E+02  0.20639454395E+02  0.00000000000E+00 0.  1.
          1    1    1    2  501    0 -0.36658171591E+01  0.29190503348E+02  0.72121973724E+01  0.30290914349E+02  0.00000000000E+00 0.  1.
         -1    1    1    2    0  502  0.36658171591E+01 -0.29190503348E+02  0.14677777152E+02  0.32877968966E+02  0.00000000000E+00 0. -1.
<mgrwt>
<rscale>  2 0.29419784E+02</rscale>
<asrwt>0</asrwt>
<pdfrwt beam="1">  1       21 0.65429891E-02 0.29419784E+02</pdfrwt>
<pdfrwt beam="2">  1       21 0.31753007E-02 0.29419784E+02</pdfrwt>
<totfact> 0.72592325E+07</totfact>
</mgrwt>
</event>
<event>
 4    1  0.3862688E+004  0.2168412E+02  0.7546771E-02  0.1713773E+00
         21   -1    0    0  501  502  0.00000000000E+00  0.00000000000E+00  0.15599386020E+02  0.15599386020E+02  0.00000000000E+00 0. -1.
         21   -1    0    0  502  503 -0.00000000000E+00 -0.00000000000E+00 -0.40266906099E+02  0.40266906099E+02  0.00000000000E+00 0. -1.
          1    1    1    2  501    0 -0.20202475237E+02  0.78778750001E+01  0.16729265809E+01  0.21748554057E+02  0.00000000000E+00 0.  1.
         -1    1    1    2    0  503  0.20202475237E+02 -0.78778750001E+01 -0.26340446660E+02  0.34117738062E+02  0.00000000000E+00 0. -1.
<mgrwt>
<rscale>  2 0.21684117E+02</rscale>
<asrwt>0</asrwt>
<pdfrwt beam="1">  1       21 0.23999056E-02 0.21684117E+02</pdfrwt>
<pdfrwt beam="2">  1       21 0.61949086E-02 0.21684117E+02</pdfrwt>
<totfact> 0.11300135E+08</totfact>
</mgrwt>
</event>
<event>
 4    1  0.3862688E+004  0.2524525E+02  0.7546771E-02  0.1657504E+00
         21   -1    0    0  501  502  0.00000000000E+00  0.00000000000E+00  0.56633111222E+03  0.56633111222E+03  0.00000000000E+00 0.  1.
         21   -1    0    0  502  503 -0.00000000000E+00 -0.00000000000E+00 -0.61316922442E+01  0.61316922442E+01  0.00000000000E+00 0.  1.
          1    1    1    2  501    0 -0.11746600038E+02  0.22345914881E+02  0.53873467261E+03  0.53932584770E+03  0.00000000000E+00 0. -1.
         -1    1    1    2    0  503  0.11746600038E+02 -0.22345914881E+02  0.21464747373E+02  0.33136956772E+02  0.00000000000E+00 0.  1.
<mgrwt>
<rscale>  2 0.25245248E+02</rscale>
<asrwt>0</asrwt>
<pdfrwt beam="1">  1       21 0.87127822E-01 0.25245248E+02</pdfrwt>
<pdfrwt beam="2">  1       21 0.94333772E-03 0.25245248E+02</pdfrwt>
<totfact> 0.40992097E+06</totfact>
</mgrwt>
</event>
<event>
 4    1  0.3862688E+004  0.2293303E+02  0.7546771E-02  0.1692598E+00
         21   -1    0    0  503  502  0.00000000000E+00  0.00000000000E+00  0.13167203683E+02  0.13167203683E+02  0.00000000000E+00 0. -1.
         21   -1    0    0  501  503 -0.00000000000E+00 -0.00000000000E+00 -0.42615519750E+02  0.42615519750E+02  0.00000000000E+00 0. -1.
          2    1    1    2  501    0  0.40687359680E+01 -0.22569208267E+02 -0.21710207997E+02  0.31579374684E+02  0.00000000000E+00 0.  1.
         -2    1    1    2    0  502 -0.40687359680E+01  0.22569208267E+02 -0.77381080701E+01  0.24203348749E+02  0.00000000000E+00 0. -1.
<mgrwt>
<rscale>  2 0.22933028E+02</rscale>
<asrwt>0</asrwt>
<pdfrwt beam="1">  1       21 0.20257236E-02 0.22933028E+02</pdfrwt>
<pdfrwt beam="2">  1       21 0.65562338E-02 0.22933028E+02</pdfrwt>
<totfact> 0.13611591E+08</totfact>
</mgrwt>
</event>
<event>
 4    1  0.3862688E+004  0.3970827E+02  0.7546771E-02  0.1510369E+00
         21   -1    0    0  501  502  0.00000000000E+00  0.00000000000E+00  0.26768673548E+03  0.26768673548E+03  0.00000000000E+00 0. -1.
         21   -1    0    0  502  503 -0.00000000000E+00 -0.00000000000E+00 -0.60697600299E+01  0.60697600299E+01  0.00000000000E+00 0. -1.
          4    1    1    2  501    0  0.14672492151E+02 -0.36898031537E+02  0.15434654441E+03  0.15937252752E+03  0.00000000000E+00 0. -1.
         -4    1    1    2    0  503 -0.14672492151E+02  0.36898031537E+02  0.10727043104E+03  0.11438396799E+03  0.00000000000E+00 0.  1.
<mgrwt>
<rscale>  2 0.39708271E+02</rscale>
<asrwt>0</asrwt>
<pdfrwt beam="1">  1       21 0.41182566E-01 0.39708271E+02</pdfrwt>
<pdfrwt beam="2">  1       21 0.93380944E-03 0.39708271E+02</pdfrwt>
<totfact> 0.20283559E+07</totfact>
</mgrwt>
</event>
<event>
 4    1  0.3862688E+004  0.2926669E+02  0.7546771E-02  0.1606339E+00
         21   -1    0    0  501  502  0.00000000000E+00  0.00000000000E+00  0.17984946166E+02  0.17984946166E+02  0.00000000000E+00 0. -1.
         21   -1    0    0  502  503 -0.00000000000E+00 -0.00000000000E+00 -0.47913789602E+02  0.47913789602E+02  0.00000000000E+00 0. -1.
          5    1    1    2  501    0 -0.72930012512E+01  0.28343450540E+02 -0.12407856749E+02  0.31788267723E+02  0.00000000000E+00 0.  1.
         -5    1    1    2    0  503  0.72930012512E+01 -0.28343450540E+02 -0.17520986687E+02  0.34110468044E+02  0.00000000000E+00 0. -1.
<mgrwt>
<rscale>  2 0.29266688E+02</rscale>
<asrwt>0</asrwt>
<pdfrwt beam="1">  1       21 0.27669148E-02 0.29266688E+02</pdfrwt>
<pdfrwt beam="2">  1       21 0.73713523E-02 0.29266688E+02</pdfrwt>
<totfact> 0.74066361E+07</totfact>
</mgrwt>
</event>
<event>
 4    1  0.3862688E+004  0.3040188E+02  0.7546771E-02  0.1593688E+00
         21   -1    0    0  501  502  0.00000000000E+00  0.00000000000E+00  0.33607247190E+02  0.33607247190E+02  0.00000000000E+00 0.  1.
         21   -1    0    0  502  503 -0.00000000000E+00 -0.00000000000E+00 -0.27528157580E+02  0.27528157580E+02  0.00000000000E+00 0.  1.
          2    1    1    2  501    0 -0.66251874974E+01  0.29671214964E+02  0.39777306443E+01  0.30660992285E+02  0.00000000000E+00 0. -1.
         -2    1    1    2    0  503  0.66251874974E+01 -0.29671214964E+02  0.21013589657E+01  0.30474412485E+02  0.00000000000E+00 0.  1.
<mgrwt>
<rscale>  2 0.30401877E+02</rscale>
<asrwt>0</asrwt>
<pdfrwt beam="1">  1       21 0.51703457E-02 0.30401877E+02</pdfrwt>
<pdfrwt beam="2">  1       21 0.42351012E-02 0.30401877E+02</pdfrwt>
<totfact> 0.67845279E+07</totfact>
</mgrwt>
</event>
<event>
 4    1  0.3862688E+004  0.2163533E+02  0.7546771E-02  0.1714636E+00
         21   -1    0    0  501  502  0.00000000000E+00  0.00000000000E+00  0.25359931419E+02  0.25359931419E+02  0.00000000000E+00 0.  1.
         21   -1    0    0  502  503 -0.00000000000E+00 -0.00000000000E+00 -0.18619701180E+02  0.18619701180E+02  0.00000000000E+00 0.  1.
          1    1    1    2  501    0  0.21438324117E+01  0.21528856533E+02  0.13193978278E+01  0.21675527482E+02  0.00000000000E+00 0. -1.
         -1    1    1    2    0  503 -0.21438324117E+01 -0.21528856533E+02  0.54208324120E+01  0.22304105117E+02  0.00000000000E+00 0.  1.
<mgrwt>
<rscale>  2 0.21635334E+02</rscale>
<asrwt>0</asrwt>
<pdfrwt beam="1">  1       21 0.39015279E-02 0.21635334E+02</pdfrwt>
<pdfrwt beam="2">  1       21 0.28645694E-02 0.21635334E+02</pdfrwt>
<totfact> 0.17892337E+08</totfact>
</mgrwt>
</event>
<event>
 4    1  0.3862688E+004  0.2204890E+02  0.7546771E-02  0.1707408E+00
         21   -1    0    0  501  502  0.00000000000E+00  0.00000000000E+00  0.25965261413E+01  0.25965261413E+01  0.00000000000E+00 0.  1.
         21   -1    0    0  502  503 -0.00000000000E+00 -0.00000000000E+00 -0.20938624147E+03  0.20938624147E+03  0.00000000000E+00 0.  1.
          2    1    1    2  501    0  0.98476573913E+01  0.19727586828E+02 -0.13787112137E+03  0.13962306452E+03  0.00000000000E+00 0.  1.
         -2    1    1    2    0  503 -0.98476573913E+01 -0.19727586828E+02 -0.68918593954E+02  0.72359703087E+02  0.00000000000E+00 0. -1.
<mgrwt>
<rscale>  2 0.22048901E+02</rscale>
<asrwt>0</asrwt>
<pdfrwt beam="1">  1       21 0.39946550E-03 0.22048901E+02</pdfrwt>
<pdfrwt beam="2">  1       21 0.32213273E-01 0.22048901E+02</pdfrwt>
<totfact> 0.10139211E+08</totfact>
</mgrwt>
</event>
<event>
 4    1  0.3862688E+004  0.2251235E+02  0.7546771E-02  0.1699539E+00
         21   -1    0    0  501  502  0.00000000000E+00  0.00000000000E+00  0.24681597586E+03  0.24681597586E+03  0.00000000000E+00 0. -1.
         21   -1    0    0  502  503 -0.00000000000E+00 -0.00000000000E+00 -0.26647282313E+01  0.26647282313E+01  0.00000000000E+00 0. -1.
          3    1    1    2  501    0 -0.17158376941E+02 -0.14573808701E+02  0.18182406034E+03  0.18321243058E+03  0.00000000000E+00 0. -1.
         -3    1    1    2    0  503  0.17158376941E+02  0.14573808701E+02  0.62327187290E+02  0.66268273516E+02  0.00000000000E+00 0.  1.
<mgrwt>
<rscale>  2 0.22512348E+02</rscale>
<asrwt>0</asrwt>
<pdfrwt beam="1">  1       21 0.37971671E-01 0.22512348E+02</pdfrwt>
<pdfrwt beam="2">  1       21 0.40995838E-03 0.22512348E+02</pdfrwt>
<totfact> 0.72406429E+07</totfact>
</mgrwt>
</event>
<event>
 4    1  0.3862688E+004  0.2030520E+02  0.7546771E-02  0.1739326E+00
         21   -1    0    0  501  502  0.00000000000E+00  0.00000000000E+00  0.32006301098E+01  0.32006301098E+01  0.00000000000E+00 0. -1.
         21   -1    0    0  502  503 -0.00000000000E+00 -0.00000000000E+00 -0.14335975603E+03  0.14335975603E+03  0.00000000000E+00 0. -1.
          4    1    1    2  501    0  0.20069925210E+02  0.30820644791E+01 -0.46741172150E+02  0.50961143957E+02  0.00000000000E+00 0.  1.
         -4    1    1    2    0  503 -0.20069925210E+02 -0.30820644791E+01 -0.93417953770E+02  0.95599242183E+02  0.00000000000E+00 0. -1.
<mgrwt>
<rscale>  2 0.20305197E+02</rscale>
<asrwt>0</asrwt>
<pdfrwt beam="1">  1       21 0.49240484E-03 0.20305197E+02</pdfrwt>
<pdfrwt beam="2">  1       21 0.22055338E-01 0.20305197E+02</pdfrwt>
<totfact> 0.14354660E+08</totfact>
</mgrwt>
</event>
<event>
 4    1  0.3862688E+004  0.2299719E+02  0.7546771E-02  0.1691556E+00
         21   -1    0    0  503  502  0.00000000000E+00  0.00000000000E+00  0.62641985645E+00  0.62641985645E+00  0.00000000000E+00 0. -1.
         21   -1    0    0  501  503 -0.00000000000E+00 -0.00000000000E+00 -0.84750870336E+03  0.84750870336E+03  0.00000000000E+00 0. -1.
          2    1    1    2  501    0  0.11957050178E+02  0.19644330870E+02 -0.39724749857E+03  0.39791261089E+03  0.00000000000E+00 0. -1.
         -2    1    1    2    0  502 -0.11957050178E+02 -0.19644330870E+02 -0.44963478493E+03  0.45022251233E+03  0.00000000000E+00 0.  1.
<mgrwt>
<rscale>  2 0.22997191E+02</rscale>
<asrwt>0</asrwt>
<pdfrwt beam="1">  1       21 0.96373196E-04 0.22997191E+02</pdfrwt>
<pdfrwt beam="2">  1       21 0.13038472E+00 0.22997191E+02</pdfrwt>
<totfact> 0.46188129E+07</totfact>
</mgrwt>
</event>
<event>
 4    1  0.3862688E+004  0.2035472E+02  0.7546771E-02  0.1738365E+00
         21   -1    0    0  503  502  0.00000000000E+00  0.00000000000E+00  0.23580346631E+03  0.23580346631E+03  0.00000000000E+00 0. -1.
         21   -1    0    0  501  503 -0.00000000000E+00 -0.00000000000E+00 -0.17881482913E+01  0.17881482913E+01  0.00000000000E+00 0. -1.
          4    1    1    2  501    0  0.19184878555E+02 -0.68010984030E+01  0.10133707035E+03  0.10336109680E+03  0.00000000000E+00 0.  1.
         -4    1    1    2    0  502 -0.19184878555E+02  0.68010984030E+01  0.13267824766E+03  0.13423051779E+03  0.00000000000E+00 0. -1.
<mgrwt>
<rscale>  2 0.20354717E+02</rscale>
<asrwt>0</asrwt>
<pdfrwt beam="1">  1       21 0.36277432E-01 0.20354717E+02</pdfrwt>
<pdfrwt beam="2">  1       21 0.27509992E-03 0.20354717E+02</pdfrwt>
<totfact> 0.13716592E+08</totfact>
</mgrwt>
</event>
<event>
 4    1  0.3862688E+004  0.3096254E+02  0.7546771E-02  0.1587686E+00
         21   -1    0    0  501  502  0.00000000000E+00  0.00000000000E+00  0.85388042327E+02  0.85388042327E+02  0.00000000000E+00 0.  1.
         21   -1    0    0  502  503 -0.00000000000E+00 -0.00000000000E+00 -0.11272579329E+02  0.11272579329E+02  0.00000000000E+00 0.  1.
          5    1    1    2  501    0  0.48580902422E+01 -0.30579041591E+02  0.33995311143E+02  0.45982170513E+02  0.00000000000E+00 0. -1.
         -5    1    1    2    0  503 -0.48580902422E+01  0.30579041591E+02  0.40120151855E+02  0.50678451143E+02  0.00000000000E+00 0.  1.
<mgrwt>
<rscale>  2 0.30962539E+02</rscale>
<asrwt>0</asrwt>
<pdfrwt beam="1">  1       21 0.13136621E-01 0.30962539E+02</pdfrwt>
<pdfrwt beam="2">  1       21 0.17342430E-02 0.30962539E+02</pdfrwt>
<totfact> 0.59046821E+07</totfact>
</mgrwt>
</event>
<event>
 4    1  0.3862688E+004  0.3905621E+02  0.7546771E-02  0.1515274E+00
         21   -1    0    0  503  502  0.00000000000E+00  0.00000000000E+00  0.61810098877E+02  0.61810098877E+02  0.00000000000E+00 0.  1.
         21   -1    0    0  501  503 -0.00000000000E+00 -0.00000000000E+00 -0.25670743893E+02  0.25670743893E+02  0.00000000000E+00 0.  1.
          4    1    1    2  501    0 -0.28201359241E+01  0.38954257763E+02  0.26668693078E+02  0.47292774871E+02  0.00000000000E+00 0.  1.
         -4    1    1    2    0  502  0.28201359241E+01 -0.38954257763E+02  0.94706619055E+01  0.40188067899E+02  0.00000000000E+00 0. -1.
<mgrwt>
<rscale>  2 0.39056208E+02</rscale>
<asrwt>0</asrwt>
<pdfrwt beam="1">  1       21 0.95092460E-02 0.39056208E+02</pdfrwt>
<pdfrwt beam="2">  1       21 0.39493452E-02 0.39056208E+02</pdfrwt>
<totfact> 0.29288345E+07</totfact>
</mgrwt>
</event>
<event>
 4    1  0.3862688E+004  0.2106577E+02  0.7546771E-02  0.1724928E+00
         21   -1    0    0  503  502  0.00000000000E+00  0.00000000000E+00  0.23676017007E+03  0.23676017007E+03  0.00000000000E+00 0. -1.
         21   -1    0    0  501  503 -0.00000000000E+00 -0.00000000000E+00 -0.28336912848E+01  0.28336912848E+01  0.00000000000E+00 0. -1.
          1    1    1    2  501    0 -0.21061885575E+02 -0.40463945556E+00  0.18666768118E+03  0.18785257505E+03  0.00000000000E+00 0.  1.
         -1    1    1    2    0  502  0.21061885575E+02  0.40463945556E+00  0.47258797609E+02  0.51741286306E+02  0.00000000000E+00 0. -1.
<mgrwt>
<rscale>  2 0.21065772E+02</rscale>
<asrwt>0</asrwt>
<pdfrwt beam="1">  1       21 0.36424626E-01 0.21065772E+02</pdfrwt>
<pdfrwt beam="2">  1       21 0.43595269E-03 0.21065772E+02</pdfrwt>
<totfact> 0.70276404E+07</totfact>
</mgrwt>
</event>
<event>
 4    1  0.3862688E+004  0.5169314E+02  0.7546771E-02  0.1436417E+00
         21   -1    0    0  501  502  0.00000000000E+00  0.00000000000E+00  0.74799039308E+03  0.74799039308E+03  0.00000000000E+00 0.  1.
         21   -1    0    0  502  503 -0.00000000000E+00 -0.00000000000E+00 -0.39521709059E+01  0.39521709059E+01  0.00000000000E+00 0.  1.
          5    1    1    2  501    0 -0.51219936383E+02  0.69784576794E+01  0.48855290498E+03  0.49128008479E+03  0.00000000000E+00 0. -1.
         -5    1    1    2    0  503  0.51219936383E+02 -0.69784576794E+01  0.25548531720E+03  0.26066247920E+03  0.00000000000E+00 0.  1.
<mgrwt>
<rscale>  2 0.51693140E+02</rscale>
<asrwt>0</asrwt>
<pdfrwt beam="1">  1       21 0.11507533E+00 0.51693140E+02</pdfrwt>
<pdfrwt beam="2">  1       21 0.60802689E-03 0.51693140E+02</pdfrwt>
<totfact> 0.45849104E+06</totfact>
</mgrwt>
</event>
<event>
 4    1  0.3862688E+004  0.2840414E+02  0.7546771E-02  0.1616430E+00
         21   -1    0    0  503  502  0.00000000000E+00  0.00000000000E+00  0.64182875810E+03  0.64182875810E+03  0.00000000000E+00 0. -1.
         21   -1    0    0  501  503 -0.00000000000E+00 -0.00000000000E+00 -0.13025531458E+01  0.13025531458E+01  0.00000000000E+00 0. -1.
          1    1    1    2  501    0 -0.24060383453E+02  0.15096135522E+02  0.26014466065E+03  0.26169073317E+03  0.00000000000E+00 0.  1.
         -1    1    1    2    0  502  0.24060383453E+02 -0.15096135522E+02  0.38038154430E+03  0.38144057808E+03  0.00000000000E+00 0. -1.
<mgrwt>
<rscale>  2 0.28404143E+02</rscale>
<asrwt>0</asrwt>
<pdfrwt beam="1">  1       21 0.98742633E-01 0.28404143E+02</pdfrwt>
<pdfrwt beam="2">  1       21 0.20039330E-03 0.28404143E+02</pdfrwt>
<totfact> 0.31401256E+07</totfact>
</mgrwt>
</event>
<event>
 4    1  0.3862688E+004  0.2590456E+02  0.7546771E-02  0.1648339E+00
         21   -1    0    0  501  502  0.00000000000E+00  0.00000000000E+00  0.12651975015E+04  0.12651975015E+04  0.00000000000E+00 0. -1.
         21   -1    0    0  502  503 -0.00000000000E+00 -0.00000000000E+00 -0.53147939143E+00  0.53147939143E+00  0.00000000000E+00 0. -1.
          2    1    1    2  501    0  0.40007362890E+00  0.25901466314E+02  0.60365903008E+03  0.60421458987E+03  0.00000000000E+00 0. -1.
         -2    1    1    2    0  503 -0.40007362890E+00 -0.25901466314E+02  0.66100699200E+03  0.66151439099E+03  0.00000000000E+00 0.  1.
<mgrwt>
<rscale>  2 0.25904556E+02</rscale>
<asrwt>0</asrwt>
<pdfrwt beam="1">  1       21 0.19464336E+00 0.25904556E+02</pdfrwt>
<pdfrwt beam="2">  1       21 0.81767073E-04 0.25904556E+02</pdfrwt>
<totfact> 0.22559741E+07</totfact>
</mgrwt>
</event>
<event>
 4    1  0.3862688E+004  0.2054128E+02  0.7546771E-02  0.1734773E+00
         21   -1    0    0  503  502  0.00000000000E+00  0.00000000000E+00  0.71951970479E+02  0.71951970479E+02  0.00000000000E+00 0. -1.
         21   -1    0    0  501  503 -0.00000000000E+00 -0.00000000000E+00 -0.85233712271E+01  0.85233712271E+01  0.00000000000E+00 0. -1.
          5    1    1    2  501    0 -0.17378580589E+02 -0.10951214489E+02  0.92394701453E+01  0.22523586984E+02  0.00000000000E+00 0.  1.
         -5    1    1    2    0  502  0.17378580589E+02  0.10951214489E+02  0.54189129107E+02  0.57951754722E+02  0.00000000000E+00 0. -1.
<mgrwt>
<rscale>  2 0.20541279E+02</rscale>
<asrwt>0</asrwt>
<pdfrwt beam="1">  1       21 0.11069534E-01 0.20541279E+02</pdfrwt>
<pdfrwt beam="2">  1       21 0.13112879E-02 0.20541279E+02</pdfrwt>
<totfact> 0.10844306E+08</totfact>
</mgrwt>
</event>
<event>
 4    1  0.3862688E+004  0.2143565E+02  0.7546771E-02  0.1718199E+00
         21   -1    0    0  503  502  0.00000000000E+00  0.00000000000E+00  0.43852585916E+01  0.43852585916E+01  0.00000000000E+00 0.  1.
         21   -1    0    0  501  503 -0.00000000000E+00 -0.00000000000E+00 -0.10478024877E+03  0.10478024877E+03  0.00000000000E+00 0.  1.
          5    1    1    2  501    0  0.23834550529E+01 -0.21302729173E+02 -0.50103660448E+02  0.54496457853E+02  0.00000000000E+00 0.  1.
         -5    1    1    2    0  502 -0.23834550529E+01  0.21302729173E+02 -0.50291329735E+02  0.54669049513E+02  0.00000000000E+00 0. -1.
<mgrwt>
<rscale>  2 0.21435651E+02</rscale>
<asrwt>0</asrwt>
<pdfrwt beam="1">  1       21 0.67465512E-03 0.21435651E+02</pdfrwt>
<pdfrwt beam="2">  1       21 0.16120040E-01 0.21435651E+02</pdfrwt>
<totfact> 0.15762385E+08</totfact>
</mgrwt>
</event>
<event>
 4    1  0.3862688E+004  0.2099130E+02  0.7546771E-02  0.1726304E+00
         21   -1    0    0  503  502  0.00000000000E+00  0.00000000000E+00  0.16338352681E+02  0.16338352681E+02  0.00000000000E+00 0. -1.
         21   -1    0    0  501  503 -0.00000000000E+00 -0.00000000000E+00 -0.27800612906E+02  0.27800612906E+02  0.00000000000E+00 0. -1.
          3    1    1    2  501    0 -0.20624899619E+02  0.39049006658E+01 -0.95473594335E+01  0.23060503153E+02  0.00000000000E+00 0.  1.
         -3    1    1    2    0  502  0.20624899619E+02 -0.39049006658E+01 -0.19149007921E+01  0.21078462434E+02  0.00000000000E+00 0. -1.
<mgrwt>
<rscale>  2 0.20991301E+02</rscale>
<asrwt>0</asrwt>
<pdfrwt beam="1">  1       21 0.25135927E-02 0.20991301E+02</pdfrwt>
<pdfrwt beam="2">  1       21 0.42770173E-02 0.20991301E+02</pdfrwt>
<totfact> 0.18772027E+08</totfact>
</mgrwt>
</event>
<event>
 4    1  0.3862688E+004  0.3269583E+02  0.7546771E-02  0.1570069E+00
         21   -1    0    0  501  502  0.00000000000E+00  0.00000000000E+00  0.33172664748E+02  0.33172664748E+02  0.00000000000E+00 0.  1.
         21   -1    0    0  502  503 -0.00000000000E+00 -0.00000000000E+00 -0.33010165977E+02  0.33010165977E+02  0.00000000000E+00 0.  1.
          3    1    1    2  501    0 -0.28433784790E+02 -0.16141162042E+02 -0.50195443363E+01  0.33078891379E+02  0.00000000000E+00 0. -1.
         -3    1    1    2    0  503  0.28433784790E+02  0.16141162042E+02  0.51820431070E+01  0.33103939347E+02  0.00000000000E+00 0.  1.
<mgrwt>
<rscale>  2 0.32695829E+02</rscale>
<asrwt>0</asrwt>
<pdfrwt beam="1">  1       21 0.51034869E-02 0.32695829E+02</pdfrwt>
<pdfrwt beam="2">  1       21 0.50784871E-02 0.32695829E+02</pdfrwt>
<totfact> 0.52602653E+07</totfact>
</mgrwt>
</event>
<event>
 4    1  0.3862688E+004  0.2127882E+02  0.7546771E-02  0.1721031E+00
         21   -1    0    0  501  502  0.00000000000E+00  0.00000000000E+00  0.43920385442E+03  0.43920385442E+03  0.00000000000E+00 0. -1.
         21   -1    0    0  502  503 -0.00000000000E+00 -0.00000000000E+00 -0.10932000896E+01  0.10932000896E+01  0.00000000000E+00 0. -1.
          2    1    1    2  501    0 -0.14271269443E+02 -0.15783509075E+02  0.27159735227E+03  0.27242964239E+03  0.00000000000E+00 0. -1.
         -2    1    1    2    0  503  0.14271269443E+02  0.15783509075E+02  0.16651330206E+03  0.16786741213E+03  0.00000000000E+00 0.  1.
<mgrwt>
<rscale>  2 0.21278823E+02</rscale>
<asrwt>0</asrwt>
<pdfrwt beam="1">  1       21 0.67569683E-01 0.21278823E+02</pdfrwt>
<pdfrwt beam="2">  1       21 0.16818498E-03 0.21278823E+02</pdfrwt>
<totfact> 0.84678524E+07</totfact>
</mgrwt>
</event>
<event>
 4    1  0.3862688E+004  0.2000507E+02  0.7546771E-02  0.1745227E+00
         21   -1    0    0  503  502  0.00000000000E+00  0.00000000000E+00  0.25294269550E+02  0.25294269550E+02  0.00000000000E+00 0. -1.
         21   -1    0    0  501  503 -0.00000000000E+00 -0.00000000000E+00 -0.19824105587E+02  0.19824105587E+02  0.00000000000E+00 0. -1.
          3    1    1    2  501    0  0.95255520257E+01 -0.17591661267E+02 -0.74011813978E+01  0.21330264265E+02  0.00000000000E+00 0.  1.
         -3    1    1    2    0  502 -0.95255520257E+01  0.17591661267E+02  0.12871345361E+02  0.23788110873E+02  0.00000000000E+00 0. -1.
<mgrwt>
<rscale>  2 0.20005067E+02</rscale>
<asrwt>0</asrwt>
<pdfrwt beam="1">  1       21 0.38914261E-02 0.20005067E+02</pdfrwt>
<pdfrwt beam="2">  1       21 0.30498624E-02 0.20005067E+02</pdfrwt>
<totfact> 0.15900024E+08</totfact>
</mgrwt>
</event>
<event>
 4    1  0.3862688E+004  0.2708576E+02  0.7546771E-02  0.1632733E+00
         21   -1    0    0  503  502  0.00000000000E+00  0.00000000000E+00  0.83132241706E+02  0.83132241706E+02  0.00000000000E+00 0.  1.
         21   -1    0    0  501  503 -0.00000000000E+00 -0.00000000000E+00 -0.10293363810E+02  0.10293363810E+02  0.00000000000E+00 0.  1.
          4    1    1    2  501    0 -0.97029152234E+01  0.25288170452E+02  0.18776089101E+02  0.32957239729E+02  0.00000000000E+00 0. -1.
         -4    1    1    2    0  502  0.97029152234E+01 -0.25288170452E+02  0.54062788795E+02  0.60468365787E+02  0.00000000000E+00 0.  1.
<mgrwt>
<rscale>  2 0.27085755E+02</rscale>
<asrwt>0</asrwt>
<pdfrwt beam="1">  1       21 0.12789575E-01 0.27085755E+02</pdfrwt>
<pdfrwt beam="2">  1       21 0.15835945E-02 0.27085755E+02</pdfrwt>
<totfact> 0.68882266E+07</totfact>
</mgrwt>
</event>
<event>
 4    1  0.3862688E+004  0.2208887E+02  0.7546771E-02  0.1706720E+00
         21   -1    0    0  503  502  0.00000000000E+00  0.00000000000E+00  0.70965505013E+02  0.70965505013E+02  0.00000000000E+00 0.  1.
         21   -1    0    0  501  503 -0.00000000000E+00 -0.00000000000E+00 -0.75231552377E+01  0.75231552377E+01  0.00000000000E+00 0.  1.
          1    1    1    2  501    0 -0.17493159094E+02 -0.13487312597E+02  0.20205934521E+02  0.29936566370E+02  0.00000000000E+00 0. -1.
         -1    1    1    2    0  502  0.17493159094E+02  0.13487312597E+02  0.43236415255E+02  0.48552093881E+02  0.00000000000E+00 0.  1.
<mgrwt>
<rscale>  2 0.22088871E+02</rscale>
<asrwt>0</asrwt>
<pdfrwt beam="1">  1       21 0.10917770E-01 0.22088871E+02</pdfrwt>
<pdfrwt beam="2">  1       21 0.11574085E-02 0.22088871E+02</pdfrwt>
<totfact> 0.13682552E+08</totfact>
</mgrwt>
</event>
<event>
 4    1  0.3862688E+004  0.2085515E+02  0.7546771E-02  0.1728838E+00
         21   -1    0    0  503  502  0.00000000000E+00  0.00000000000E+00  0.34656415874E+00  0.34656415874E+00  0.00000000000E+00 0.  1.
         21   -1    0    0  501  503 -0.00000000000E+00 -0.00000000000E+00 -0.12702444932E+04  0.12702444932E+04  0.00000000000E+00 0.  1.
          3    1    1    2  501    0 -0.18520333267E+02  0.95882589136E+01 -0.56534853945E+03  0.56573307178E+03  0.00000000000E+00 0.  1.
         -3    1    1    2    0  502  0.18520333267E+02 -0.95882589136E+01 -0.70454938957E+03  0.70485798555E+03  0.00000000000E+00 0. -1.
<mgrwt>
<rscale>  2 0.20855154E+02</rscale>
<asrwt>0</asrwt>
<pdfrwt beam="1">  1       21 0.53317230E-04 0.20855154E+02</pdfrwt>
<pdfrwt beam="2">  1       21 0.19542345E+00 0.20855154E+02</pdfrwt>
<totfact> 0.39528153E+07</totfact>
</mgrwt>
</event>
<event>
 4    1  0.3862688E+004  0.2098299E+02  0.7546771E-02  0.1726458E+00
         21   -1    0    0  503  502  0.00000000000E+00  0.00000000000E+00  0.22730773455E+01  0.22730773455E+01  0.00000000000E+00 0. -1.
         21   -1    0    0  501  503 -0.00000000000E+00 -0.00000000000E+00 -0.19376634072E+03  0.19376634072E+03  0.00000000000E+00 0. -1.
          3    1    1    2  501    0 -0.90133629175E+01 -0.18948485036E+02 -0.97615333319E+02  0.99845075468E+02  0.00000000000E+00 0.  1.
         -3    1    1    2    0  502  0.90133629175E+01  0.18948485036E+02 -0.93877930052E+02  0.96194342594E+02  0.00000000000E+00 0. -1.
<mgrwt>
<rscale>  2 0.20982988E+02</rscale>
<asrwt>0</asrwt>
<pdfrwt beam="1">  1       21 0.34970414E-03 0.20982988E+02</pdfrwt>
<pdfrwt beam="2">  1       21 0.29810212E-01 0.20982988E+02</pdfrwt>
<totfact> 0.13985884E+08</totfact>
</mgrwt>
</event>
<event>
 4    1  0.3862688E+004  0.2203150E+02  0.7546771E-02  0.1707708E+00
         21   -1    0    0  503  502  0.00000000000E+00  0.00000000000E+00  0.24227660663E+02  0.24227660663E+02  0.00000000000E+00 0.  1.
         21   -1    0    0  501  503 -0.00000000000E+00 -0.00000000000E+00 -0.20210873477E+02  0.20210873477E+02  0.00000000000E+00 0.  1.
          4    1    1    2  501    0 -0.19082416495E+02  0.11011282428E+02  0.40845539768E+01  0.22406930651E+02  0.00000000000E+00 0. -1.
         -4    1    1    2    0  502  0.19082416495E+02 -0.11011282428E+02 -0.67766790546E-01  0.22031603490E+02  0.00000000000E+00 0.  1.
<mgrwt>
<rscale>  2 0.22031499E+02</rscale>
<asrwt>0</asrwt>
<pdfrwt beam="1">  1       21 0.37273324E-02 0.22031499E+02</pdfrwt>
<pdfrwt beam="2">  1       21 0.31093652E-02 0.22031499E+02</pdfrwt>
<totfact> 0.17018962E+08</totfact>
</mgrwt>
</event>
<event>
 4    1  0.3862688E+004  0.3058947E+02  0.7546771E-02  0.1591663E+00
         21   -1    0    0  501  502  0.00000000000E+00  0.00000000000E+00  0.14411313219E+02  0.14411313219E+02  0.00000000000E+00 0. -1.
         21   -1    0    0  502  503 -0.00000000000E+00 -0.00000000000E+00 -0.68245154187E+02  0.68245154187E+02  0.00000000000E+00 0. -1.
          1    1    1    2  501    0  0.19046487862E+02 -0.23936313045E+02 -0.17807058105E+02  0.35395015191E+02  0.00000000000E+00 0.  1.
         -1    1    1    2    0  503 -0.19046487862E+02  0.23936313045E+02 -0.36026782863E+02  0.47261452215E+02  0.00000000000E+00 0. -1.
<mgrwt>
<rscale>  2 0.30589472E+02</rscale>
<asrwt>0</asrwt>
<pdfrwt beam="1">  1       21 0.22171251E-02 0.30589472E+02</pdfrwt>
<pdfrwt beam="2">  1       21 0.10499254E-01 0.30589472E+02</pdfrwt>
<totfact> 0.58803888E+07</totfact>
</mgrwt>
</event>
<event>
 4    1  0.3862688E+004  0.2627570E+02  0.7546771E-02  0.1643327E+00
         21   -1    0    0  503  502  0.00000000000E+00  0.00000000000E+00  0.17989773731E+01  0.17989773731E+01  0.00000000000E+00 0.  1.
         21   -1    0    0  501  503 -0.00000000000E+00 -0.00000000000E+00 -0.44296261386E+03  0.44296261386E+03  0.00000000000E+00 0.  1.
          4    1    1    2  501    0  0.26231152344E+02 -0.15294286860E+01 -0.30186652392E+03  0.30300793846E+03  0.00000000000E+00 0. -1.
         -4    1    1    2    0  502 -0.26231152344E+02  0.15294286860E+01 -0.13929711257E+03  0.14175365277E+03  0.00000000000E+00 0.  1.
<mgrwt>
<rscale>  2 0.26275702E+02</rscale>
<asrwt>0</asrwt>
<pdfrwt beam="1">  1       21 0.27676578E-03 0.26275702E+02</pdfrwt>
<pdfrwt beam="2">  1       21 0.68148086E-01 0.26275702E+02</pdfrwt>
<totfact> 0.42479165E+07</totfact>
</mgrwt>
</event>
<event>
 4    1  0.3862688E+004  0.3114480E+02  0.7546771E-02  0.1585768E+00
         21   -1    0    0  501  502  0.00000000000E+00  0.00000000000E+00  0.13895657028E+03  0.13895657028E+03  0.00000000000E+00 0. -1.
         21   -1    0    0  502  503 -0.00000000000E+00 -0.00000000000E+00 -0.72770915028E+01  0.72770915028E+01  0.00000000000E+00 0. -1.
          4    1    1    2  501    0  0.19987373010E+02 -0.23885220693E+02  0.80598567615E+02  0.86406758699E+02  0.00000000000E+00 0.  1.
         -4    1    1    2    0  503 -0.19987373010E+02  0.23885220693E+02  0.51080911165E+02  0.59826903086E+02  0.00000000000E+00 0. -1.
<mgrwt>
<rscale>  2 0.31144805E+02</rscale>
<asrwt>0</asrwt>
<pdfrwt beam="1">  1       21 0.21377932E-01 0.31144805E+02</pdfrwt>
<pdfrwt beam="2">  1       21 0.11195526E-02 0.31144805E+02</pdfrwt>
<totfact> 0.49550334E+07</totfact>
</mgrwt>
</event>
<event>
 4    1  0.3862688E+004  0.2246833E+02  0.7546771E-02  0.1700276E+00
         21   -1    0    0  501  502  0.00000000000E+00  0.00000000000E+00  0.43699060518E+03  0.43699060518E+03  0.00000000000E+00 0.  1.
         21   -1    0    0  502  503 -0.00000000000E+00 -0.00000000000E+00 -0.20108035376E+01  0.20108035376E+01  0.00000000000E+00 0.  1.
          3    1    1    2  501    0 -0.19230226269E+02  0.11619985161E+02  0.74310945775E+02  0.77633384053E+02  0.00000000000E+00 0. -1.
         -3    1    1    2    0  503  0.19230226269E+02 -0.11619985161E+02  0.36066885587E+03  0.36136802466E+03  0.00000000000E+00 0.  1.
<mgrwt>
<rscale>  2 0.22468326E+02</rscale>
<asrwt>0</asrwt>
<pdfrwt beam="1">  1       21 0.67229248E-01 0.22468326E+02</pdfrwt>
<pdfrwt beam="2">  1       21 0.30935474E-03 0.22468326E+02</pdfrwt>
<totfact> 0.35910306E+07</totfact>
</mgrwt>
</event>
<event>
 4    1  0.3862688E+004  0.4143400E+02  0.7546771E-02  0.1497916E+00
         21   -1    0    0  503  502  0.00000000000E+00  0.00000000000E+00  0.75223909694E+01  0.75223909694E+01  0.00000000000E+00 0. -1.
         21   -1    0    0  501  503 -0.00000000000E+00 -0.00000000000E+00 -0.24124398932E+03  0.24124398932E+03  0.00000000000E+00 0. -1.
          5    1    1    2  501    0  0.15766140160E+02  0.38317166782E+02 -0.87962708405E+02  0.97232785190E+02  0.00000000000E+00 0. -1.
         -5    1    1    2    0  502 -0.15766140160E+02 -0.38317166782E+02 -0.14575888995E+03  0.15153359510E+03  0.00000000000E+00 0.  1.
<mgrwt>
<rscale>  2 0.41434001E+02</rscale>
<asrwt>0</asrwt>
<pdfrwt beam="1">  1       21 0.11572911E-02 0.41434001E+02</pdfrwt>
<pdfrwt beam="2">  1       21 0.37114455E-01 0.41434001E+02</pdfrwt>
<totfact> 0.17945768E+07</totfact>
</mgrwt>
</event>
<event>
 4    1  0.3862688E+004  0.2497563E+02  0.7546771E-02  0.1661352E+00
         21   -1    0    0  501  502  0.00000000000E+00  0.00000000000E+00  0.23955545035E+03  0.23955545035E+03  0.00000000000E+00 0.  1.
         21   -1    0    0  502  503 -0.00000000000E+00 -0.00000000000E+00 -0.31446794981E+01  0.31446794981E+01  0.00000000000E+00 0.  1.
          1    1    1    2  501    0  0.22232699105E+02 -0.11379332141E+02  0.67883631241E+02  0.72332354448E+02  0.00000000000E+00 0. -1.
         -1    1    1    2    0  503 -0.22232699105E+02  0.11379332141E+02  0.16852713961E+03  0.17036777540E+03  0.00000000000E+00 0.  1.
<mgrwt>
<rscale>  2 0.24975630E+02</rscale>
<asrwt>0</asrwt>
<pdfrwt beam="1">  1       21 0.36854670E-01 0.24975630E+02</pdfrwt>
<pdfrwt beam="2">  1       21 0.48379704E-03 0.24975630E+02</pdfrwt>
<totfact> 0.61556152E+07</totfact>
</mgrwt>
</event>
<event>
 4    1  0.3862688E+004  0.2159365E+02  0.7546771E-02  0.1715376E+00
         21   -1    0    0  501  502  0.00000000000E+00  0.00000000000E+00  0.12530314542E+01  0.12530314542E+01  0.00000000000E+00 0. -1.
         21   -1    0    0  502  503 -0.00000000000E+00 -0.00000000000E+00 -0.38515922864E+03  0.38515922864E+03  0.00000000000E+00 0. -1.
          3    1    1    2  501    0  0.16064395922E+01 -0.21533811692E+02 -0.22749374116E+03  0.22851627505E+03  0.00000000000E+00 0. -1.
         -3    1    1    2    0  503 -0.16064395922E+01  0.21533811692E+02 -0.15641245602E+03  0.15789598504E+03  0.00000000000E+00 0.  1.
<mgrwt>
<rscale>  2 0.21593649E+02</rscale>
<asrwt>0</asrwt>
<pdfrwt beam="1">  1       21 0.19277366E-03 0.21593649E+02</pdfrwt>
<pdfrwt beam="2">  1       21 0.59255392E-01 0.21593649E+02</pdfrwt>
<totfact> 0.90964771E+07</totfact>
</mgrwt>
</event>
<event>
 4    1  0.3862688E+004  0.4229264E+02  0.7546771E-02  0.1491987E+00
         21   -1    0    0  503  502  0.00000000000E+00  0.00000000000E+00  0.33210121681E+01  0.33210121681E+01  0.00000000000E+00 0.  1.
         21   -1    0    0  501  503 -0.00000000000E+00 -0.00000000000E+00 -0.58546299634E+03  0.58546299634E+03  0.00000000000E+00 0.  1.
          1    1    1    2  501    0 -0.91479593326E+01  0.41291425982E+02 -0.20777322646E+03  0.21203391392E+03  0.00000000000E+00 0.  1.
         -1    1    1    2    0  502  0.91479593326E+01 -0.41291425982E+02 -0.37436875772E+03  0.37675009459E+03  0.00000000000E+00 0. -1.
<mgrwt>
<rscale>  2 0.42292636E+02</rscale>
<asrwt>0</asrwt>
<pdfrwt beam="1">  1       21 0.51092499E-03 0.42292636E+02</pdfrwt>
<pdfrwt beam="2">  1       21 0.90071223E-01 0.42292636E+02</pdfrwt>
<totfact> 0.10201366E+07</totfact>
</mgrwt>
</event>
<event>
 4    1  0.3862688E+004  0.2195999E+02  0.7546771E-02  0.1708945E+00
         21   -1    0    0  503  502  0.00000000000E+00  0.00000000000E+00  0.40666555220E+02  0.40666555220E+02  0.00000000000E+00 0.  1.
         21   -1    0    0  501  503 -0.00000000000E+00 -0.00000000000E+00 -0.19714476690E+02  0.19714476690E+02  0.00000000000E+00 0.  1.
          5    1    1    2  501    0 -0.17367930661E+02 -0.13438611967E+02 -0.85820811432E+01  0.23577392217E+02  0.00000000000E+00 0.  1.
         -5    1    1    2    0  502  0.17367930661E+02  0.13438611967E+02  0.29534159673E+02  0.36803639692E+02  0.00000000000E+00 0. -1.
<mgrwt>
<rscale>  2 0.21959993E+02</rscale>
<asrwt>0</asrwt>
<pdfrwt beam="1">  1       21 0.62563931E-02 0.21959993E+02</pdfrwt>
<pdfrwt beam="2">  1       21 0.30329964E-02 0.21959993E+02</pdfrwt>
<totfact> 0.77696905E+07</totfact>
</mgrwt>
</event>
<event>
 4    1  0.3862688E+004  0.2126775E+02  0.7546771E-02  0.1721233E+00
         21   -1    0    0  503  502  0.00000000000E+00  0.00000000000E+00  0.11481535836E+02  0.11481535836E+02  0.00000000000E+00 0.  1.
         21   -1    0    0  501  503 -0.00000000000E+00 -0.00000000000E+00 -0.39586831178E+02  0.39586831178E+02  0.00000000000E+00 0.  1.
          2    1    1    2  501    0 -0.10283905379E+02  0.18616076073E+02 -0.12275925996E+02  0.24556371011E+02  0.00000000000E+00 0.  1.
         -2    1    1    2    0  502  0.10283905379E+02 -0.18616076073E+02 -0.15829369346E+02  0.26511996003E+02  0.00000000000E+00 0. -1.
<mgrwt>
<rscale>  2 0.21267745E+02</rscale>
<asrwt>0</asrwt>
<pdfrwt beam="1">  1       21 0.17663902E-02 0.21267745E+02</pdfrwt>
<pdfrwt beam="2">  1       21 0.60902816E-02 0.21267745E+02</pdfrwt>
<totfact> 0.18462464E+08</totfact>
</mgrwt>
</event>
<event>
 4    1  0.3862688E+004  0.2013102E+02  0.7546771E-02  0.1742735E+00
         21   -1    0    0  501  502  0.00000000000E+00  0.00000000000E+00  0.38863029273E+02  0.38863029273E+02  0.00000000000E+00 0.  1.
         21   -1    0    0  502  503 -0.00000000000E+00 -0.00000000000E+00 -0.10598559053E+02  0.10598559053E+02  0.00000000000E+00 0.  1.
          4    1    1    2  501    0 -0.19318765573E+02 -0.56606679223E+01  0.17270879524E+02  0.26524350022E+02  0.00000000000E+00 0.  1.
         -4    1    1    2    0  503  0.19318765573E+02  0.56606679223E+01  0.10993590697E+02  0.22937238304E+02  0.00000000000E+00 0. -1.
<mgrwt>
<rscale>  2 0.20131017E+02</rscale>
<asrwt>0</asrwt>
<pdfrwt beam="1">  1       21 0.59789275E-02 0.20131017E+02</pdfrwt>
<pdfrwt beam="2">  1       21 0.16305476E-02 0.20131017E+02</pdfrwt>
<totfact> 0.21097998E+08</totfact>
</mgrwt>
</event>
<event>
 4    1  0.3862688E+004  0.2570263E+02  0.7546771E-02  0.1651110E+00
         21   -1    0    0  501  502  0.00000000000E+00  0.00000000000E+00  0.23035312961E+03  0.23035312961E+03  0.00000000000E+00 0.  1.
         21   -1    0    0  502  503 -0.00000000000E+00 -0.00000000000E+00 -0.28741814540E+01  0.28741814540E+01  0.00000000000E+00 0.  1.
          1    1    1    2  501    0  0.21058114606E+02  0.14737067063E+02  0.10827960378E+03  0.11128835488E+03  0.00000000000E+00 0. -1.
         -1    1    1    2    0  503 -0.21058114606E+02 -0.14737067063E+02  0.11919934437E+03  0.12193895618E+03  0.00000000000E+00 0.  1.
<mgrwt>
<rscale>  2 0.25702633E+02</rscale>
<asrwt>0</asrwt>
<pdfrwt beam="1">  1       21 0.35438928E-01 0.25702633E+02</pdfrwt>
<pdfrwt beam="2">  1       21 0.44218194E-03 0.25702633E+02</pdfrwt>
<totfact> 0.76146228E+07</totfact>
</mgrwt>
</event>
<event>
 4    1  0.3862688E+004  0.3389065E+02  0.7546771E-02  0.1558678E+00
         21   -1    0    0  503  502  0.00000000000E+00  0.00000000000E+00  0.50511805836E+01  0.50511805836E+01  0.00000000000E+00 0. -1.
         21   -1    0    0  501  503 -0.00000000000E+00 -0.00000000000E+00 -0.23870699533E+03  0.23870699533E+03  0.00000000000E+00 0. -1.
          2    1    1    2  501    0  0.21412244839E+01 -0.33822945472E+02 -0.14336820311E+03  0.14731944252E+03  0.00000000000E+00 0. -1.
         -2    1    1    2    0  502 -0.21412244839E+01  0.33822945472E+02 -0.90287611637E+02  0.96438733390E+02  0.00000000000E+00 0.  1.
<mgrwt>
<rscale>  2 0.33890655E+02</rscale>
<asrwt>0</asrwt>
<pdfrwt beam="1">  1       21 0.77710463E-03 0.33890655E+02</pdfrwt>
<pdfrwt beam="2">  1       21 0.36724157E-01 0.33890655E+02</pdfrwt>
<totfact> 0.32517946E+07</totfact>
</mgrwt>
</event>
<event>
 4    1  0.3862688E+004  0.2038422E+02  0.7546771E-02  0.1737794E+00
         21   -1    0    0  503  502  0.00000000000E+00  0.00000000000E+00  0.76803640248E+03  0.76803640248E+03  0.00000000000E+00 0. -1.
         21   -1    0    0  501  503 -0.00000000000E+00 -0.00000000000E+00 -0.60589626801E+00  0.60589626801E+00  0.00000000000E+00 0. -1.
          5    1    1    2  501    0 -0.17750251266E+02  0.10022227614E+02  0.25794822908E+03  0.25875240163E+03  0.00000000000E+00 0. -1.
         -5    1    1    2    0  502  0.17750251266E+02 -0.10022227614E+02  0.50948227714E+03  0.50988989712E+03  0.00000000000E+00 0.  1.
<mgrwt>
<rscale>  2 0.20384221E+02</rscale>
<asrwt>0</asrwt>
<pdfrwt beam="1">  1       21 0.11815867E+00 0.20384221E+02</pdfrwt>
<pdfrwt beam="2">  1       21 0.93215425E-04 0.20384221E+02</pdfrwt>
<totfact> 0.59002169E+07</totfact>
</mgrwt>
</event>
<event>
 4    1  0.3862688E+004  0.2539156E+02  0.7546771E-02  0.1655441E+00
         21   -1    0    0  503  502  0.00000000000E+00  0.00000000000E+00  0.87487750359E+03  0.87487750359E+03  0.00000000000E+00 0. -1.
         21   -1    0    0  501  503 -0.00000000000E+00 -0.00000000000E+00 -0.77064352079E+00  0.77064352079E+00  0.00000000000E+00 0. -1.
          1    1    1    2  501    0  0.24852071872E+02 -0.52063244216E+01  0.34549097923E+03  0.34642278796E+03  0.00000000000E+00 0.  1.
         -1    1    1    2    0  502 -0.24852071872E+02  0.52063244216E+01  0.52861588084E+03  0.52922535915E+03  0.00000000000E+00 0. -1.
<mgrwt>
<rscale>  2 0.25391559E+02</rscale>
<asrwt>0</asrwt>
<pdfrwt beam="1">  1       21 0.13459575E+00 0.25391559E+02</pdfrwt>
<pdfrwt beam="2">  1       21 0.11856124E-03 0.25391559E+02</pdfrwt>
<totfact> 0.32537302E+07</totfact>
</mgrwt>
</event>
<event>
 4    1  0.3862688E+004  0.2694772E+02  0.7546771E-02  0.1634505E+00
         21   -1    0    0  503  502  0.00000000000E+00  0.00000000000E+00  0.61739385464E+02  0.61739385464E+02  0.00000000000E+00 0. -1.
         21   -1    0    0  501  503 -0.00000000000E+00 -0.00000000000E+00 -0.12436230049E+02  0.12436230049E+02  0.00000000000E+00 0. -1.
          3    1    1    2  501    0 -0.26938238942E+02  0.71493464556E+00  0.33287020215E+02  0.42827626173E+02  0.00000000000E+00 0.  1.
         -3    1    1    2    0  502  0.26938238942E+02 -0.71493464556E+00  0.16016135200E+02  0.31347989339E+02  0.00000000000E+00 0. -1.
<mgrwt>
<rscale>  2 0.26947724E+02</rscale>
<asrwt>0</asrwt>
<pdfrwt beam="1">  1       21 0.94983668E-02 0.26947724E+02</pdfrwt>
<pdfrwt beam="2">  1       21 0.19132662E-02 0.26947724E+02</pdfrwt>
<totfact> 0.84708503E+07</totfact>
</mgrwt>
</event>
<event>
 4    1  0.3862688E+004  0.3453772E+02  0.7546771E-02  0.1552744E+00
         21   -1    0    0  501  502  0.00000000000E+00  0.00000000000E+00  0.78577641592E+03  0.78577641592E+03  0.00000000000E+00 0.  1.
         21   -1    0    0  502  503 -0.00000000000E+00 -0.00000000000E+00 -0.28572836807E+01  0.28572836807E+01  0.00000000000E+00 0.  1.
          5    1    1    2  501    0  0.29291481082E+02  0.18299271078E+02  0.66141715287E+03  0.66231828021E+03  0.00000000000E+00 0. -1.
         -5    1    1    2    0  503 -0.29291481082E+02 -0.18299271078E+02  0.12150197937E+03  0.12631541940E+03  0.00000000000E+00 0.  1.
<mgrwt>
<rscale>  2 0.34537721E+02</rscale>
<asrwt>0</asrwt>
<pdfrwt beam="1">  1       21 0.12088851E+00 0.34537721E+02</pdfrwt>
<pdfrwt beam="2">  1       21 0.43958273E-03 0.34537721E+02</pdfrwt>
<totfact> 0.64354903E+06</totfact>
</mgrwt>
</event>
<event>
 4    1  0.3862688E+004  0.3183864E+02  0.7546771E-02  0.1578611E+00
         21   -1    0    0  501  502  0.00000000000E+00  0.00000000000E+00  0.73437028891E+02  0.73437028891E+02  0.00000000000E+00 0.  1.
         21   -1    0    0  502  503 -0.00000000000E+00 -0.00000000000E+00 -0.16935237752E+02  0.16935237752E+02  0.00000000000E+00 0.  1.
          3    1    1    2  501    0 -0.29700564793E+02  0.11470643817E+02  0.47681739265E+02  0.57334522567E+02  0.00000000000E+00 0.  1.
         -3    1    1    2    0  503  0.29700564793E+02 -0.11470643817E+02  0.88200518741E+01  0.33037744076E+02  0.00000000000E+00 0. -1.
<mgrwt>
<rscale>  2 0.31838643E+02</rscale>
<asrwt>0</asrwt>
<pdfrwt beam="1">  1       21 0.11298004E-01 0.31838643E+02</pdfrwt>
<pdfrwt beam="2">  1       21 0.26054212E-02 0.31838643E+02</pdfrwt>
<totfact> 0.40742671E+07</totfact>
</mgrwt>
</event>
<event>
 4    1  0.3862688E+004  0.3358042E+02  0.7546771E-02  0.1561581E+00
         21   -1    0    0  501  502  0.00000000000E+00  0.00000000000E+00  0.90797457364E+01  0.90797457364E+01  0.00000000000E+00 0. -1.
         21   -1    0    0  502  503 -0.00000000000E+00 -0.00000000000E+00 -0.14323218718E+03  0.14323218718E+03  0.00000000000E+00 0. -1.
          4    1    1    2  501    0  0.33577766087E+02  0.42242857253E+00 -0.39310890006E+02  0.51700975758E+02  0.00000000000E+00 0.  1.
         -4    1    1    2    0  503 -0.33577766087E+02 -0.42242857253E+00 -0.94841551441E+02  0.10061095716E+03  0.00000000000E+00 0. -1.
<mgrwt>
<rscale>  2 0.33580423E+02</rscale>
<asrwt>0</asrwt>
<pdfrwt beam="1">  1       21 0.13968841E-02 0.33580423E+02</pdfrwt>
<pdfrwt beam="2">  1       21 0.22035720E-01 0.33580423E+02</pdfrwt>
<totfact> 0.33971433E+07</totfact>
</mgrwt>
</event>
<event>
 4    1  0.3862688E+004  0.2522789E+02  0.7546771E-02  0.1657750E+00
         21   -1    0    0  503  502  0.00000000000E+00  0.00000000000E+00  0.48880670943E+01  0.48880670943E+01  0.00000000000E+00 0.  1.
         21   -1    0    0  501  503 -0.00000000000E+00 -0.00000000000E+00 -0.13642930198E+03  0.13642930198E+03  0.00000000000E+00 0.  1.
          1    1    1    2  501    0 -0.13787627131E+02  0.21126941384E+02 -0.50677154613E+02  0.56609365955E+02  0.00000000000E+00 0. -1.
         -1    1    1    2    0  502  0.13787627131E+02 -0.21126941384E+02 -0.80864080278E+02  0.84708003124E+02  0.00000000000E+00 0.  1.
<mgrwt>
<rscale>  2 0.25227888E+02</rscale>
<asrwt>0</asrwt>
<pdfrwt beam="1">  1       21 0.75201034E-03 0.25227888E+02</pdfrwt>
<pdfrwt beam="2">  1       21 0.20989123E-01 0.25227888E+02</pdfrwt>
<totfact> 0.88842625E+07</totfact>
</mgrwt>
</event>
<event>
 4    1  0.3862688E+004  0.3359646E+02  0.7546771E-02  0.1561430E+00
         21   -1    0    0  503  502  0.00000000000E+00  0.00000000000E+00  0.69329052006E+02  0.69329052006E+02  0.00000000000E+00 0. -1.
         21   -1    0    0  501  503 -0.00000000000E+00 -0.00000000000E+00 -0.16499119492E+02  0.16499119492E+02  0.00000000000E+00 0. -1.
          5    1    1    2  501    0 -0.27551630645E+02 -0.19225757721E+02  0.21476822550E+02  0.39874503357E+02  0.00000000000E+00 0.  1.
         -5    1    1    2    0  502  0.27551630645E+02  0.19225757721E+02  0.31353109965E+02  0.45953668141E+02  0.00000000000E+00 0. -1.
<mgrwt>
<rscale>  2 0.33596460E+02</rscale>
<asrwt>0</asrwt>
<pdfrwt beam="1">  1       21 0.10666008E-01 0.33596460E+02</pdfrwt>
<pdfrwt beam="2">  1       21 0.25383261E-02 0.33596460E+02</pdfrwt>
<totfact> 0.47297093E+07</totfact>
</mgrwt>
</event>
<event>
 4    1  0.3862688E+004  0.2214051E+02  0.7546771E-02  0.1705833E+00
         21   -1    0    0  503  502  0.00000000000E+00  0.00000000000E+00  0.25645532644E+02  0.25645532644E+02  0.00000000000E+00 0. -1.
         21   -1    0    0  501  503 -0.00000000000E+00 -0.00000000000E+00 -0.19541003283E+02  0.19541003283E+02  0.00000000000E+00 0. -1.
          2    1    1    2  501    0  0.13847245008E+02 -0.17275874025E+02 -0.28551146018E+00  0.22142347085E+02  0.00000000000E+00 0.  1.
         -2    1    1    2    0  502 -0.13847245008E+02  0.17275874025E+02  0.63900408209E+01  0.23044188841E+02  0.00000000000E+00 0. -1.
<mgrwt>
<rscale>  2 0.22140506E+02</rscale>
<asrwt>0</asrwt>
<pdfrwt beam="1">  1       21 0.39454666E-02 0.22140506E+02</pdfrwt>
<pdfrwt beam="2">  1       21 0.30063082E-02 0.22140506E+02</pdfrwt>
<totfact> 0.16428191E+08</totfact>
</mgrwt>
</event>
<event>
 4    1  0.3862688E+004  0.2034547E+02  0.7546771E-02  0.1738544E+00
         21   -1    0    0  501  502  0.00000000000E+00  0.00000000000E+00  0.31437833357E+03  0.31437833357E+03  0.00000000000E+00 0.  1.
         21   -1    0    0  502  503 -0.00000000000E+00 -0.00000000000E+00 -0.13296244921E+01  0.13296244921E+01  0.00000000000E+00 0.  1.
          4    1    1    2  501    0  0.16624391706E+02  0.11728922470E+02  0.14095367033E+03  0.14241444871E+03  0.00000000000E+00 0. -1.
         -4    1    1    2    0  503 -0.16624391706E+02 -0.11728922470E+02  0.17209503875E+03  0.17329350935E+03  0.00000000000E+00 0.  1.
<mgrwt>
<rscale>  2 0.20345467E+02</rscale>
<asrwt>0</asrwt>
<pdfrwt beam="1">  1       21 0.48365838E-01 0.20345467E+02</pdfrwt>
<pdfrwt beam="2">  1       21 0.20455786E-03 0.20345467E+02</pdfrwt>
<totfact> 0.12226857E+08</totfact>
</mgrwt>
</event>
<event>
 4    1  0.3862688E+004  0.2315464E+02  0.7546771E-02  0.1689016E+00
         21   -1    0    0  501  502  0.00000000000E+00  0.00000000000E+00  0.41875939010E+00  0.41875939010E+00  0.00000000000E+00 0.  1.
         21   -1    0    0  502  503 -0.00000000000E+00 -0.00000000000E+00 -0.19514046288E+04  0.19514046288E+04  0.00000000000E+00 0.  1.
          3    1    1    2  501    0 -0.44796316155E+01 -0.22717177204E+02 -0.15478041923E+04  0.15479773755E+04  0.00000000000E+00 0.  1.
         -3    1    1    2    0  503  0.44796316155E+01  0.22717177204E+02 -0.40318167708E+03  0.40384601270E+03  0.00000000000E+00 0. -1.
<mgrwt>
<rscale>  2 0.23154638E+02</rscale>
<asrwt>0</asrwt>
<pdfrwt beam="1">  1       21 0.64424248E-04 0.23154638E+02</pdfrwt>
<pdfrwt beam="2">  1       21 0.30021737E+00 0.23154638E+02</pdfrwt>
<totfact> 0.90486327E+06</totfact>
</mgrwt>
</event>
<event>
 4    1  0.3862688E+004  0.2251050E+02  0.7546771E-02  0.1699570E+00
         21   -1    0    0  501  502  0.00000000000E+00  0.00000000000E+00  0.24667797978E+02  0.24667797978E+02  0.00000000000E+00 0. -1.
         21   -1    0    0  502  503 -0.00000000000E+00 -0.00000000000E+00 -0.21027444864E+02  0.21027444864E+02  0.00000000000E+00 0. -1.
          2    1    1    2  501    0  0.53629171502E+01 -0.21862330822E+02 -0.16518373815E+01  0.22571020270E+02  0.00000000000E+00 0. -1.
         -2    1    1    2    0  503 -0.53629171502E+01  0.21862330822E+02  0.52921904950E+01  0.23124222572E+02  0.00000000000E+00 0.  1.
<mgrwt>
<rscale>  2 0.22510495E+02</rscale>
<asrwt>0</asrwt>
<pdfrwt beam="1">  1       21 0.37950459E-02 0.22510495E+02</pdfrwt>
<pdfrwt beam="2">  1       21 0.32349915E-02 0.22510495E+02</pdfrwt>
<totfact> 0.15658223E+08</totfact>
</mgrwt>
</event>
<event>
 4    1  0.3862688E+004  0.2519652E+02  0.7546771E-02  0.1658195E+00
         21   -1    0    0  503  502  0.00000000000E+00  0.00000000000E+00  0.10001269704E+03  0.10001269704E+03  0.00000000000E+00 0.  1.
         21   -1    0    0  501  503 -0.00000000000E+00 -0.00000000000E+00 -0.75783945850E+01  0.75783945850E+01  0.00000000000E+00 0.  1.
          5    1    1    2  501    0 -0.16909534401E+02  0.18679729225E+02  0.24539706665E+02  0.35171889923E+02  0.00000000000E+00 0.  1.
         -5    1    1    2    0  502  0.16909534401E+02 -0.18679729225E+02  0.67894595793E+02  0.72419201704E+02  0.00000000000E+00 0. -1.
<mgrwt>
<rscale>  2 0.25196520E+02</rscale>
<asrwt>0</asrwt>
<pdfrwt beam="1">  1       21 0.15386568E-01 0.25196520E+02</pdfrwt>
<pdfrwt beam="2">  1       21 0.11659069E-02 0.25196520E+02</pdfrwt>
<totfact> 0.78715526E+07</totfact>
</mgrwt>
</event>
<event>
 4    1  0.3862688E+004  0.2785542E+02  0.7546771E-02  0.1623080E+00
         21   -1    0    0  501  502  0.00000000000E+00  0.00000000000E+00  0.29408812038E+01  0.29408812038E+01  0.00000000000E+00 0.  1.
         21   -1    0    0  502  503 -0.00000000000E+00 -0.00000000000E+00 -0.26406747264E+03  0.26406747264E+03  0.00000000000E+00 0.  1.
          1    1    1    2  501    0 -0.17316427976E+02  0.21818926084E+02 -0.13447543107E+03  0.13733013426E+03  0.00000000000E+00 0.  1.
         -1    1    1    2    0  503  0.17316427976E+02 -0.21818926084E+02 -0.12665116037E+03  0.12967821959E+03  0.00000000000E+00 0. -1.
<mgrwt>
<rscale>  2 0.27855416E+02</rscale>
<asrwt>0</asrwt>
<pdfrwt beam="1">  1       21 0.45244316E-03 0.27855416E+02</pdfrwt>
<pdfrwt beam="2">  1       21 0.40625774E-01 0.27855416E+02</pdfrwt>
<totfact> 0.57969917E+07</totfact>
</mgrwt>
</event>
<event>
 4    1  0.3862688E+004  0.2016327E+02  0.7546771E-02  0.1742101E+00
         21   -1    0    0  501  502  0.00000000000E+00  0.00000000000E+00  0.14535439118E+02  0.14535439118E+02  0.00000000000E+00 0. -1.
         21   -1    0    0  502  503 -0.00000000000E+00 -0.00000000000E+00 -0.28380508314E+02  0.28380508314E+02  0.00000000000E+00 0. -1.
          3    1    1    2  501    0 -0.19675811137E+02  0.44067928446E+01 -0.95030015159E+01  0.22290455466E+02  0.00000000000E+00 0. -1.
         -3    1    1    2    0  503  0.19675811137E+02 -0.44067928446E+01 -0.43420676799E+01  0.20625491966E+02  0.00000000000E+00 0.  1.
<mgrwt>
<rscale>  2 0.20163268E+02</rscale>
<asrwt>0</asrwt>
<pdfrwt beam="1">  1       21 0.22362214E-02 0.20163268E+02</pdfrwt>
<pdfrwt beam="2">  1       21 0.43662320E-02 0.20163268E+02</pdfrwt>
<totfact> 0.21466806E+08</totfact>
</mgrwt>
</event>
<event>
 4    1  0.3862688E+004  0.6402060E+02  0.7546771E-02  0.1381694E+00
         21   -1    0    0  501  502  0.00000000000E+00  0.00000000000E+00  0.21870718970E+03  0.21870718970E+03  0.00000000000E+00 0.  1.
         21   -1    0    0  502  503 -0.00000000000E+00 -0.00000000000E+00 -0.38767119892E+02  0.38767119892E+02  0.00000000000E+00 0.  1.
          1    1    1    2  501    0  0.21604286614E+02 -0.60265178968E+02 -0.25590359055E+01  0.64071722787E+02  0.00000000000E+00 0. -1.
         -1    1    1    2    0  503 -0.21604286614E+02  0.60265178968E+02  0.18249910571E+03  0.19340258680E+03  0.00000000000E+00 0.  1.
<mgrwt>
<rscale>  2 0.64020598E+02</rscale>
<asrwt>0</asrwt>
<pdfrwt beam="1">  1       21 0.33647259E-01 0.64020598E+02</pdfrwt>
<pdfrwt beam="2">  1       21 0.59641724E-02 0.64020598E+02</pdfrwt>
<totfact> 0.16507098E+06</totfact>
</mgrwt>
</event>
<event>
 4    1  0.3862688E+004  0.2183596E+02  0.7546771E-02  0.1711104E+00
         21   -1    0    0  501  502  0.00000000000E+00  0.00000000000E+00  0.32329097387E+03  0.32329097387E+03  0.00000000000E+00 0.  1.
         21   -1    0    0  502  503 -0.00000000000E+00 -0.00000000000E+00 -0.17790326196E+01  0.17790326196E+01  0.00000000000E+00 0.  1.
          4    1    1    2  501    0  0.30649555062E+01  0.21619791935E+02  0.93549040456E+02  0.96063688904E+02  0.00000000000E+00 0.  1.
         -4    1    1    2    0  503 -0.30649555062E+01 -0.21619791935E+02  0.22796290080E+03  0.22900631759E+03  0.00000000000E+00 0. -1.
<mgrwt>
<rscale>  2 0.21835965E+02</rscale>
<asrwt>0</asrwt>
<pdfrwt beam="1">  1       21 0.49737026E-01 0.21835965E+02</pdfrwt>
<pdfrwt beam="2">  1       21 0.27369758E-03 0.21835965E+02</pdfrwt>
<totfact> 0.77509125E+07</totfact>
</mgrwt>
</event>
<event>
 4    1  0.3862688E+004  0.2809569E+02  0.7546771E-02  0.1620145E+00
         21   -1    0    0  503  502  0.00000000000E+00  0.00000000000E+00  0.88563138438E+02  0.88563138438E+02  0.00000000000E+00 0.  1.
         21   -1    0    0  501  503 -0.00000000000E+00 -0.00000000000E+00 -0.10625067736E+02  0.10625067736E+02  0.00000000000E+00 0.  1.
          5    1    1    2  501    0  0.19711263825E+02  0.20020841064E+02  0.19061483209E+02  0.33951555790E+02  0.00000000000E+00 0.  1.
         -5    1    1    2    0  502 -0.19711263825E+02 -0.20020841064E+02  0.58876587493E+02  0.65236650384E+02  0.00000000000E+00 0. -1.
<mgrwt>
<rscale>  2 0.28095694E+02</rscale>
<asrwt>0</asrwt>
<pdfrwt beam="1">  1       21 0.13625098E-01 0.28095694E+02</pdfrwt>
<pdfrwt beam="2">  1       21 0.16346259E-02 0.28095694E+02</pdfrwt>
<totfact> 0.59445514E+07</totfact>
</mgrwt>
</event>
<event>
 4    1  0.3862688E+004  0.2334955E+02  0.7546771E-02  0.1685906E+00
         21   -1    0    0  503  502  0.00000000000E+00  0.00000000000E+00  0.35715273913E+01  0.35715273913E+01  0.00000000000E+00 0.  1.
         21   -1    0    0  501  503 -0.00000000000E+00 -0.00000000000E+00 -0.16655661199E+03  0.16655661199E+03  0.00000000000E+00 0.  1.
          2    1    1    2  501    0 -0.14949264792E+02 -0.17936585381E+02 -0.10607023428E+03  0.10860983479E+03  0.00000000000E+00 0. -1.
         -2    1    1    2    0  502  0.14949264792E+02  0.17936585381E+02 -0.56914850323E+02  0.61518304595E+02  0.00000000000E+00 0.  1.
<mgrwt>
<rscale>  2 0.23349553E+02</rscale>
<asrwt>0</asrwt>
<pdfrwt beam="1">  1       21 0.54946590E-03 0.23349553E+02</pdfrwt>
<pdfrwt beam="2">  1       21 0.25624087E-01 0.23349553E+02</pdfrwt>
<totfact> 0.97445911E+07</totfact>
</mgrwt>
</event>
<event>
 4    1  0.3862688E+004  0.4081106E+02  0.7546771E-02  0.1502326E+00
         21   -1    0    0  503  502  0.00000000000E+00  0.00000000000E+00  0.95091040803E+03  0.95091040803E+03  0.00000000000E+00 0.  1.
         21   -1    0    0  501  503 -0.00000000000E+00 -0.00000000000E+00 -0.18135135536E+01  0.18135135536E+01  0.00000000000E+00 0.  1.
          1    1    1    2  501    0 -0.18516267314E+02 -0.36368816503E+02  0.38647726325E+03  0.38862606446E+03  0.00000000000E+00 0.  1.
         -1    1    1    2    0  502  0.18516267314E+02  0.36368816503E+02  0.56261963123E+03  0.56409785713E+03  0.00000000000E+00 0. -1.
<mgrwt>
<rscale>  2 0.40811064E+02</rscale>
<asrwt>0</asrwt>
<pdfrwt beam="1">  1       21 0.14629351E+00 0.40811064E+02</pdfrwt>
<pdfrwt beam="2">  1       21 0.27900284E-03 0.40811064E+02</pdfrwt>
<totfact> 0.81680082E+06</totfact>
</mgrwt>
</event>
<event>
 4    1  0.3862688E+004  0.6275685E+02  0.7546771E-02  0.1386614E+00
         21   -1    0    0  503  502  0.00000000000E+00  0.00000000000E+00  0.93792341576E+03  0.93792341576E+03  0.00000000000E+00 0. -1.
         21   -1    0    0  501  503 -0.00000000000E+00 -0.00000000000E+00 -0.60543390477E+01  0.60543390477E+01  0.00000000000E+00 0. -1.
          3    1    1    2  501    0  0.30290765464E+02  0.54962638968E+02  0.72721073087E+03  0.72991360396E+03  0.00000000000E+00 0.  1.
         -3    1    1    2    0  502 -0.30290765464E+02 -0.54962638968E+02  0.20465834584E+03  0.21406415084E+03  0.00000000000E+00 0. -1.
<mgrwt>
<rscale>  2 0.62756849E+02</rscale>
<asrwt>0</asrwt>
<pdfrwt beam="1">  1       21 0.14429579E+00 0.62756849E+02</pdfrwt>
<pdfrwt beam="2">  1       21 0.93143752E-03 0.62756849E+02</pdfrwt>
<totfact> 0.13964184E+06</totfact>
</mgrwt>
</event>
<event>
 4    1  0.3862688E+004  0.2293474E+02  0.7546771E-02  0.1692570E+00
         21   -1    0    0  501  502  0.00000000000E+00  0.00000000000E+00  0.11432092238E+03  0.11432092238E+03  0.00000000000E+00 0. -1.
         21   -1    0    0  502  503 -0.00000000000E+00 -0.00000000000E+00 -0.65337011617E+01  0.65337011617E+01  0.00000000000E+00 0. -1.
          2    1    1    2  501    0 -0.10588471561E+02  0.20344203248E+02  0.21029307690E+02  0.31116460558E+02  0.00000000000E+00 0.  1.
         -2    1    1    2    0  503  0.10588471561E+02 -0.20344203248E+02  0.86757913532E+02  0.89738162987E+02  0.00000000000E+00 0. -1.
<mgrwt>
<rscale>  2 0.22934741E+02</rscale>
<asrwt>0</asrwt>
<pdfrwt beam="1">  1       21 0.17587833E-01 0.22934741E+02</pdfrwt>
<pdfrwt beam="2">  1       21 0.10051849E-02 0.22934741E+02</pdfrwt>
<totfact> 0.76325776E+07</totfact>
</mgrwt>
</event>
<event>
 4    1  0.3862688E+004  0.2556707E+02  0.7546771E-02  0.1652988E+00
         21   -1    0    0  503  502  0.00000000000E+00  0.00000000000E+00  0.38185275114E+02  0.38185275114E+02  0.00000000000E+00 0.  1.
         21   -1    0    0  501  503 -0.00000000000E+00 -0.00000000000E+00 -0.17954817570E+02  0.17954817570E+02  0.00000000000E+00 0.  1.
          3    1    1    2  501    0  0.14580268759E+02 -0.21002159756E+02  0.40571339146E+01  0.25886971378E+02  0.00000000000E+00 0.  1.
         -3    1    1    2    0  502 -0.14580268759E+02  0.21002159756E+02  0.16173323630E+02  0.30253121306E+02  0.00000000000E+00 0. -1.
<mgrwt>
<rscale>  2 0.25567068E+02</rscale>
<asrwt>0</asrwt>
<pdfrwt beam="1">  1       21 0.58746577E-02 0.25567068E+02</pdfrwt>
<pdfrwt beam="2">  1       21 0.27622796E-02 0.25567068E+02</pdfrwt>
<totfact> 0.10372951E+08</totfact>
</mgrwt>
</event>
<event>
 4    1  0.3862688E+004  0.2177009E+02  0.7546771E-02  0.1712259E+00
         21   -1    0    0  503  502  0.00000000000E+00  0.00000000000E+00  0.61995359587E+00  0.61995359587E+00  0.00000000000E+00 0. -1.
         21   -1    0    0  501  503 -0.00000000000E+00 -0.00000000000E+00 -0.83435417541E+03  0.83435417541E+03  0.00000000000E+00 0. -1.
          2    1    1    2  501    0  0.18061448818E+02  0.12154044979E+02 -0.29604313357E+03  0.29684250652E+03  0.00000000000E+00 0. -1.
         -2    1    1    2    0  502 -0.18061448818E+02 -0.12154044979E+02 -0.53769108825E+03  0.53813162249E+03  0.00000000000E+00 0.  1.
<mgrwt>
<rscale>  2 0.21770088E+02</rscale>
<asrwt>0</asrwt>
<pdfrwt beam="1">  1       21 0.95377010E-04 0.21770088E+02</pdfrwt>
<pdfrwt beam="2">  1       21 0.12836281E+00 0.21770088E+02</pdfrwt>
<totfact> 0.48031917E+07</totfact>
</mgrwt>
</event>
<event>
 4    1  0.3862688E+004  0.2678323E+02  0.7546771E-02  0.1636635E+00
         21   -1    0    0  503  502  0.00000000000E+00  0.00000000000E+00  0.59833964725E+01  0.59833964725E+01  0.00000000000E+00 0. -1.
         21   -1    0    0  501  503 -0.00000000000E+00 -0.00000000000E+00 -0.13881211775E+03  0.13881211775E+03  0.00000000000E+00 0. -1.
          1    1    1    2  501    0  0.76055291198E+01 -0.25680683075E+02 -0.39683598505E+02  0.47876189768E+02  0.00000000000E+00 0. -1.
         -1    1    1    2    0  502 -0.76055291198E+01  0.25680683075E+02 -0.93145122777E+02  0.96919324459E+02  0.00000000000E+00 0.  1.
<mgrwt>
<rscale>  2 0.26783233E+02</rscale>
<asrwt>0</asrwt>
<pdfrwt beam="1">  1       21 0.92052255E-03 0.26783233E+02</pdfrwt>
<pdfrwt beam="2">  1       21 0.21355710E-01 0.26783233E+02</pdfrwt>
<totfact> 0.64554855E+07</totfact>
</mgrwt>
</event>
<event>
 4    1  0.3862688E+004  0.2315719E+02  0.7546771E-02  0.1688975E+00
         21   -1    0    0  501  502  0.00000000000E+00  0.00000000000E+00  0.10262401449E+03  0.10262401449E+03  0.00000000000E+00 0.  1.
         21   -1    0    0  502  503 -0.00000000000E+00 -0.00000000000E+00 -0.62271417906E+01  0.62271417906E+01  0.00000000000E+00 0.  1.
          5    1    1    2  501    0 -0.15324114190E+01  0.23106427758E+02  0.26369698724E+02  0.35094391279E+02  0.00000000000E+00 0. -1.
         -5    1    1    2    0  503  0.15324114190E+01 -0.23106427758E+02  0.70027173974E+02  0.73756765000E+02  0.00000000000E+00 0.  1.
<mgrwt>
<rscale>  2 0.23157187E+02</rscale>
<asrwt>0</asrwt>
<pdfrwt beam="1">  1       21 0.15788309E-01 0.23157187E+02</pdfrwt>
<pdfrwt beam="2">  1       21 0.95802189E-03 0.23157187E+02</pdfrwt>
<totfact> 0.99003107E+07</totfact>
</mgrwt>
</event>
<event>
 4    1  0.3862688E+004  0.2331187E+02  0.7546771E-02  0.1686504E+00
         21   -1    0    0  503  502  0.00000000000E+00  0.00000000000E+00  0.11444781384E+01  0.11444781384E+01  0.00000000000E+00 0.  1.
         21   -1    0    0  501  503 -0.00000000000E+00 -0.00000000000E+00 -0.60742903642E+03  0.60742903642E+03  0.00000000000E+00 0.  1.
          1    1    1    2  501    0 -0.22329183594E+02 -0.66970749194E+01 -0.44530644912E+03  0.44591622182E+03  0.00000000000E+00 0. -1.
         -1    1    1    2    0  502  0.22329183594E+02  0.66970749194E+01 -0.16097810916E+03  0.16265729273E+03  0.00000000000E+00 0.  1.
<mgrwt>
<rscale>  2 0.23311869E+02</rscale>
<asrwt>0</asrwt>
<pdfrwt beam="1">  1       21 0.17607399E-03 0.23311869E+02</pdfrwt>
<pdfrwt beam="2">  1       21 0.93450390E-01 0.23311869E+02</pdfrwt>
<totfact> 0.41087426E+07</totfact>
</mgrwt>
</event>
<event>
 4    1  0.3862688E+004  0.2088536E+02  0.7546771E-02  0.1728274E+00
         21   -1    0    0  503  502  0.00000000000E+00  0.00000000000E+00  0.85571750621E+02  0.85571750621E+02  0.00000000000E+00 0.  1.
         21   -1    0    0  501  503 -0.00000000000E+00 -0.00000000000E+00 -0.52831888715E+01  0.52831888715E+01  0.00000000000E+00 0.  1.
          5    1    1    2  501    0 -0.20849611717E+02 -0.12215019634E+01  0.48661796199E+02  0.52954402887E+02  0.00000000000E+00 0.  1.
         -5    1    1    2    0  502  0.20849611717E+02  0.12215019634E+01  0.31626765550E+02  0.37900536605E+02  0.00000000000E+00 0. -1.
<mgrwt>
<rscale>  2 0.20885363E+02</rscale>
<asrwt>0</asrwt>
<pdfrwt beam="1">  1       21 0.13164884E-01 0.20885363E+02</pdfrwt>
<pdfrwt beam="2">  1       21 0.81279835E-03 0.20885363E+02</pdfrwt>
<totfact> 0.16707168E+08</totfact>
</mgrwt>
</event>
<event>
 4    1  0.3862688E+004  0.3823757E+02  0.7546771E-02  0.1521597E+00
         21   -1    0    0  501  502  0.00000000000E+00  0.00000000000E+00  0.19867480216E+02  0.19867480216E+02  0.00000000000E+00 0. -1.
         21   -1    0    0  502  503 -0.00000000000E+00 -0.00000000000E+00 -0.73598723594E+02  0.73598723594E+02  0.00000000000E+00 0. -1.
          2    1    1    2  501    0 -0.35234703663E+02 -0.14853542170E+02 -0.26461896703E+02  0.46501011111E+02  0.00000000000E+00 0.  1.
         -2    1    1    2    0  503  0.35234703663E+02  0.14853542170E+02 -0.27269346675E+02  0.46965192699E+02  0.00000000000E+00 0. -1.
<mgrwt>
<rscale>  2 0.38237574E+02</rscale>
<asrwt>0</asrwt>
<pdfrwt beam="1">  1       21 0.30565354E-02 0.38237574E+02</pdfrwt>
<pdfrwt beam="2">  1       21 0.11322881E-01 0.38237574E+02</pdfrwt>
<totfact> 0.32692032E+07</totfact>
</mgrwt>
</event>
<event>
 4    1  0.3862688E+004  0.2396775E+02  0.7546771E-02  0.1676287E+00
         21   -1    0    0  501  502  0.00000000000E+00  0.00000000000E+00  0.99861376125E+00  0.99861376125E+00  0.00000000000E+00 0.  1.
         21   -1    0    0  502  503 -0.00000000000E+00 -0.00000000000E+00 -0.58120615788E+03  0.58120615788E+03  0.00000000000E+00 0.  1.
          5    1    1    2  501    0 -0.23826921083E+02  0.25943954891E+01 -0.26063609728E+03  0.26173579859E+03  0.00000000000E+00 0.  1.
         -5    1    1    2    0  503  0.23826921083E+02 -0.25943954891E+01 -0.31957144684E+03  0.32046897306E+03  0.00000000000E+00 0. -1.
<mgrwt>
<rscale>  2 0.23967750E+02</rscale>
<asrwt>0</asrwt>
<pdfrwt beam="1">  1       21 0.15363292E-03 0.23967750E+02</pdfrwt>
<pdfrwt beam="2">  1       21 0.89416314E-01 0.23967750E+02</pdfrwt>
<totfact> 0.55302774E+07</totfact>
</mgrwt>
</event>
<event>
 4    1  0.3862688E+004  0.4017483E+02  0.7546771E-02  0.1506929E+00
         21   -1    0    0  501  502  0.00000000000E+00  0.00000000000E+00  0.35811219740E+02  0.35811219740E+02  0.00000000000E+00 0. -1.
         21   -1    0    0  502  503 -0.00000000000E+00 -0.00000000000E+00 -0.45209401199E+02  0.45209401199E+02  0.00000000000E+00 0. -1.
          5    1    1    2  501    0 -0.28905745201E+02  0.27901163079E+02 -0.24508006398E+01  0.40249514663E+02  0.00000000000E+00 0.  1.
         -5    1    1    2    0  503  0.28905745201E+02 -0.27901163079E+02 -0.69473808190E+01  0.40771106277E+02  0.00000000000E+00 0. -1.
<mgrwt>
<rscale>  2 0.40174831E+02</rscale>
<asrwt>0</asrwt>
<pdfrwt beam="1">  1       21 0.55094185E-02 0.40174831E+02</pdfrwt>
<pdfrwt beam="2">  1       21 0.69552924E-02 0.40174831E+02</pdfrwt>
<totfact> 0.28925917E+07</totfact>
</mgrwt>
</event>
<event>
 4    1  0.3862688E+004  0.2886678E+02  0.7546771E-02  0.1610964E+00
         21   -1    0    0  503  502  0.00000000000E+00  0.00000000000E+00  0.11223330514E+04  0.11223330514E+04  0.00000000000E+00 0. -1.
         21   -1    0    0  501  503 -0.00000000000E+00 -0.00000000000E+00 -0.74457519610E+00  0.74457519610E+00  0.00000000000E+00 0. -1.
          5    1    1    2  501    0  0.45993779290E+01  0.28498008759E+02  0.59070249710E+03  0.59140741529E+03  0.00000000000E+00 0. -1.
         -5    1    1    2    0  502 -0.45993779290E+01 -0.28498008759E+02  0.53088597912E+03  0.53167021133E+03  0.00000000000E+00 0.  1.
<mgrwt>
<rscale>  2 0.28866776E+02</rscale>
<asrwt>0</asrwt>
<pdfrwt beam="1">  1       21 0.17266527E+00 0.28866776E+02</pdfrwt>
<pdfrwt beam="2">  1       21 0.11455093E-03 0.28866776E+02</pdfrwt>
<totfact> 0.19145800E+07</totfact>
</mgrwt>
</event>
<event>
 4    1  0.3862688E+004  0.2513086E+02  0.7546771E-02  0.1659129E+00
         21   -1    0    0  501  502  0.00000000000E+00  0.00000000000E+00  0.55183112718E+02  0.55183112718E+02  0.00000000000E+00 0.  1.
         21   -1    0    0  502  503 -0.00000000000E+00 -0.00000000000E+00 -0.21070912053E+02  0.21070912053E+02  0.00000000000E+00 0.  1.
          5    1    1    2  501    0 -0.11581847934E+02 -0.22302936638E+02 -0.87140149879E+01  0.26598763908E+02  0.00000000000E+00 0. -1.
         -5    1    1    2    0  503  0.11581847934E+02  0.22302936638E+02  0.42826215653E+02  0.49655260863E+02  0.00000000000E+00 0.  1.
<mgrwt>
<rscale>  2 0.25130861E+02</rscale>
<asrwt>0</asrwt>
<pdfrwt beam="1">  1       21 0.84897096E-02 0.25130861E+02</pdfrwt>
<pdfrwt beam="2">  1       21 0.32416788E-02 0.25130861E+02</pdfrwt>
<totfact> 0.44183743E+07</totfact>
</mgrwt>
</event>
<event>
 4    1  0.3862688E+004  0.2451187E+02  0.7546771E-02  0.1668114E+00
         21   -1    0    0  501  502  0.00000000000E+00  0.00000000000E+00  0.59276626010E+00  0.59276626010E+00  0.00000000000E+00 0.  1.
         21   -1    0    0  502  503 -0.00000000000E+00 -0.00000000000E+00 -0.10672916583E+04  0.10672916583E+04  0.00000000000E+00 0.  1.
          4    1    1    2  501    0 -0.22977351490E+02  0.85365764187E+01 -0.41359841996E+03  0.41432413013E+03  0.00000000000E+00 0.  1.
         -4    1    1    2    0  503  0.22977351490E+02 -0.85365764187E+01 -0.65310047208E+03  0.65356029442E+03  0.00000000000E+00 0. -1.
<mgrwt>
<rscale>  2 0.24511871E+02</rscale>
<asrwt>0</asrwt>
<pdfrwt beam="1">  1       21 0.91195080E-04 0.24511871E+02</pdfrwt>
<pdfrwt beam="2">  1       21 0.16419823E+00 0.24511871E+02</pdfrwt>
<totfact> 0.29311352E+07</totfact>
</mgrwt>
</event>
<event>
 4    1  0.3862688E+004  0.4449704E+02  0.7546771E-02  0.1477506E+00
         21   -1    0    0  501  502  0.00000000000E+00  0.00000000000E+00  0.44441040198E+02  0.44441040198E+02  0.00000000000E+00 0. -1.
         21   -1    0    0  502  503 -0.00000000000E+00 -0.00000000000E+00 -0.49638415233E+02  0.49638415233E+02  0.00000000000E+00 0. -1.
          3    1    1    2  501    0  0.10627954811E+02  0.43209176323E+02 -0.17654859272E+02  0.47871498806E+02  0.00000000000E+00 0.  1.
         -3    1    1    2    0  503 -0.10627954811E+02 -0.43209176323E+02  0.12457484238E+02  0.46207956625E+02  0.00000000000E+00 0. -1.
<mgrwt>
<rscale>  2 0.44497037E+02</rscale>
<asrwt>0</asrwt>
<pdfrwt beam="1">  1       21 0.68370831E-02 0.44497037E+02</pdfrwt>
<pdfrwt beam="2">  1       21 0.76366793E-02 0.44497037E+02</pdfrwt>
<totfact> 0.17653962E+07</totfact>
</mgrwt>
</event>
<event>
 4    1  0.3862688E+004  0.2190445E+02  0.7546771E-02  0.1709910E+00
         21   -1    0    0  503  502  0.00000000000E+00  0.00000000000E+00  0.38432793236E+03  0.38432793236E+03  0.00000000000E+00 0. -1.
         21   -1    0    0  501  503 -0.00000000000E+00 -0.00000000000E+00 -0.12485692098E+01  0.12485692098E+01  0.00000000000E+00 0. -1.
          5    1    1    2  501    0  0.18902535127E+02  0.11067936584E+02  0.18947629938E+03  0.19073823183E+03  0.00000000000E+00 0.  1.
         -5    1    1    2    0  502 -0.18902535127E+02 -0.11067936584E+02  0.19360306377E+03  0.19483826974E+03  0.00000000000E+00 0. -1.
<mgrwt>
<rscale>  2 0.21904453E+02</rscale>
<asrwt>0</asrwt>
<pdfrwt beam="1">  1       21 0.59127280E-01 0.21904453E+02</pdfrwt>
<pdfrwt beam="2">  1       21 0.19208788E-03 0.21904453E+02</pdfrwt>
<totfact> 0.92166989E+07</totfact>
</mgrwt>
</event>
<event>
 4    1  0.3862688E+004  0.2040013E+02  0.7546771E-02  0.1737486E+00
         21   -1    0    0  501  502  0.00000000000E+00  0.00000000000E+00  0.20278939870E+02  0.20278939870E+02  0.00000000000E+00 0.  1.
         21   -1    0    0  502  503 -0.00000000000E+00 -0.00000000000E+00 -0.20602968491E+02  0.20602968491E+02  0.00000000000E+00 0.  1.
          1    1    1    2  501    0  0.42785400307E+01  0.19946413177E+02  0.11190629150E+01  0.20430800406E+02  0.00000000000E+00 0. -1.
         -1    1    1    2    0  503 -0.42785400307E+01 -0.19946413177E+02 -0.14430915358E+01  0.20451107955E+02  0.00000000000E+00 0.  1.
<mgrwt>
<rscale>  2 0.20400130E+02</rscale>
<asrwt>0</asrwt>
<pdfrwt beam="1">  1       21 0.31198369E-02 0.20400130E+02</pdfrwt>
<pdfrwt beam="2">  1       21 0.31696875E-02 0.20400130E+02</pdfrwt>
<totfact> 0.21274082E+08</totfact>
</mgrwt>
</event>
<event>
 4    1  0.3862688E+004  0.2030816E+02  0.7546771E-02  0.1739268E+00
         21   -1    0    0  503  502  0.00000000000E+00  0.00000000000E+00  0.20195254359E+01  0.20195254359E+01  0.00000000000E+00 0.  1.
         21   -1    0    0  501  503 -0.00000000000E+00 -0.00000000000E+00 -0.20780267068E+03  0.20780267068E+03  0.00000000000E+00 0.  1.
          5    1    1    2  501    0  0.59183750519E+01 -0.19426636713E+02 -0.89110515579E+02  0.91395324629E+02  0.00000000000E+00 0. -1.
         -5    1    1    2    0  502 -0.59183750519E+01  0.19426636713E+02 -0.11667262966E+03  0.11842687149E+03  0.00000000000E+00 0.  1.
<mgrwt>
<rscale>  2 0.20308160E+02</rscale>
<asrwt>0</asrwt>
<pdfrwt beam="1">  1       21 0.31069615E-03 0.20308160E+02</pdfrwt>
<pdfrwt beam="2">  1       21 0.31969649E-01 0.20308160E+02</pdfrwt>
<totfact> 0.14492097E+08</totfact>
</mgrwt>
</event>
<event>
 4    1  0.3862688E+004  0.2464747E+02  0.7546771E-02  0.1666118E+00
         21   -1    0    0  503  502  0.00000000000E+00  0.00000000000E+00  0.17599444527E+03  0.17599444527E+03  0.00000000000E+00 0.  1.
         21   -1    0    0  501  503 -0.00000000000E+00 -0.00000000000E+00 -0.42443143623E+01  0.42443143623E+01  0.00000000000E+00 0.  1.
          5    1    1    2  501    0 -0.15756647487E+02 -0.18953250011E+02  0.12481704226E+03  0.12722732279E+03  0.00000000000E+00 0. -1.
         -5    1    1    2    0  502  0.15756647487E+02  0.18953250011E+02  0.46933088650E+02  0.53011436843E+02  0.00000000000E+00 0.  1.
<mgrwt>
<rscale>  2 0.24647467E+02</rscale>
<asrwt>0</asrwt>
<pdfrwt beam="1">  1       21 0.27076063E-01 0.24647467E+02</pdfrwt>
<pdfrwt beam="2">  1       21 0.65297158E-03 0.24647467E+02</pdfrwt>
<totfact> 0.69291241E+07</totfact>
</mgrwt>
</event>
<event>
 4    1  0.3862688E+004  0.3952344E+02  0.7546771E-02  0.1511748E+00
         21   -1    0    0  503  502  0.00000000000E+00  0.00000000000E+00  0.23694774725E+01  0.23694774725E+01  0.00000000000E+00 0.  1.
         21   -1    0    0  501  503 -0.00000000000E+00 -0.00000000000E+00 -0.69481261972E+03  0.69481261972E+03  0.00000000000E+00 0.  1.
          3    1    1    2  501    0  0.38048373037E+02 -0.10696884888E+02 -0.26736872664E+03  0.27027419044E+03  0.00000000000E+00 0.  1.
         -3    1    1    2    0  502 -0.38048373037E+02  0.10696884888E+02 -0.42507441561E+03  0.42690790675E+03  0.00000000000E+00 0. -1.
<mgrwt>
<rscale>  2 0.39523437E+02</rscale>
<asrwt>0</asrwt>
<pdfrwt beam="1">  1       21 0.36453556E-03 0.39523437E+02</pdfrwt>
<pdfrwt beam="2">  1       21 0.10689408E+00 0.39523437E+02</pdfrwt>
<totfact> 0.11438796E+07</totfact>
</mgrwt>
</event>
<event>
 4    1  0.3862688E+004  0.3059167E+02  0.7546771E-02  0.1591639E+00
         21   -1    0    0  501  502  0.00000000000E+00  0.00000000000E+00  0.14710611525E+02  0.14710611525E+02  0.00000000000E+00 0.  1.
         21   -1    0    0  502  503 -0.00000000000E+00 -0.00000000000E+00 -0.66573882043E+02  0.66573882043E+02  0.00000000000E+00 0.  1.
          2    1    1    2  501    0  0.23768943430E+01 -0.30499190042E+02 -0.34496422408E+02  0.46106977551E+02  0.00000000000E+00 0.  1.
         -2    1    1    2    0  503 -0.23768943430E+01  0.30499190042E+02 -0.17366848110E+02  0.35177516018E+02  0.00000000000E+00 0. -1.
<mgrwt>
<rscale>  2 0.30591669E+02</rscale>
<asrwt>0</asrwt>
<pdfrwt beam="1">  1       21 0.22631710E-02 0.30591669E+02</pdfrwt>
<pdfrwt beam="2">  1       21 0.10242136E-01 0.30591669E+02</pdfrwt>
<totfact> 0.59371403E+07</totfact>
</mgrwt>
</event>
<event>
 4    1  0.3862688E+004  0.2854733E+02  0.7546771E-02  0.1614724E+00
         21   -1    0    0  501  502  0.00000000000E+00  0.00000000000E+00  0.14309531047E+02  0.14309531047E+02  0.00000000000E+00 0.  1.
         21   -1    0    0  502  503 -0.00000000000E+00 -0.00000000000E+00 -0.62471650907E+02  0.62471650907E+02  0.00000000000E+00 0.  1.
          4    1    1    2  501    0 -0.69823398368E+01  0.27680266331E+02 -0.12669207363E+02  0.31232339473E+02  0.00000000000E+00 0.  1.
         -4    1    1    2    0  503  0.69823398368E+01 -0.27680266331E+02 -0.35492912498E+02  0.45548842481E+02  0.00000000000E+00 0. -1.
<mgrwt>
<rscale>  2 0.28547333E+02</rscale>
<asrwt>0</asrwt>
<pdfrwt beam="1">  1       21 0.22014663E-02 0.28547333E+02</pdfrwt>
<pdfrwt beam="2">  1       21 0.96110232E-02 0.28547333E+02</pdfrwt>
<totfact> 0.67830351E+07</totfact>
</mgrwt>
</event>
<event>
 4    1  0.3862688E+004  0.2355714E+02  0.7546771E-02  0.1682635E+00
         21   -1    0    0  503  502  0.00000000000E+00  0.00000000000E+00  0.14768373960E+02  0.14768373960E+02  0.00000000000E+00 0.  1.
         21   -1    0    0  501  503 -0.00000000000E+00 -0.00000000000E+00 -0.57365471672E+02  0.57365471672E+02  0.00000000000E+00 0.  1.
          4    1    1    2  501    0 -0.20559293939E+02  0.11500180484E+02 -0.42482121097E+02  0.48576427733E+02  0.00000000000E+00 0.  1.
         -4    1    1    2    0  502  0.20559293939E+02 -0.11500180484E+02 -0.11497661513E+00  0.23557417898E+02  0.00000000000E+00 0. -1.
<mgrwt>
<rscale>  2 0.23557137E+02</rscale>
<asrwt>0</asrwt>
<pdfrwt beam="1">  1       21 0.22720576E-02 0.23557137E+02</pdfrwt>
<pdfrwt beam="2">  1       21 0.88254570E-02 0.23557137E+02</pdfrwt>
<totfact> 0.70863774E+07</totfact>
</mgrwt>
</event>
<event>
 4    1  0.3862688E+004  0.2260141E+02  0.7546771E-02  0.1698054E+00
         21   -1    0    0  503  502  0.00000000000E+00  0.00000000000E+00  0.10734622304E+02  0.10734622304E+02  0.00000000000E+00 0. -1.
         21   -1    0    0  501  503 -0.00000000000E+00 -0.00000000000E+00 -0.47759235107E+02  0.47759235107E+02  0.00000000000E+00 0. -1.
          5    1    1    2  501    0  0.68189339255E+01 -0.21548218265E+02 -0.20270988373E+02  0.30360114293E+02  0.00000000000E+00 0.  1.
         -5    1    1    2    0  502 -0.68189339255E+01  0.21548218265E+02 -0.16753624430E+02  0.28133743118E+02  0.00000000000E+00 0. -1.
<mgrwt>
<rscale>  2 0.22601406E+02</rscale>
<asrwt>0</asrwt>
<pdfrwt beam="1">  1       21 0.16514804E-02 0.22601406E+02</pdfrwt>
<pdfrwt beam="2">  1       21 0.73475745E-02 0.22601406E+02</pdfrwt>
<totfact> 0.15401580E+08</totfact>
</mgrwt>
</event>
<event>
 4    1  0.3862688E+004  0.2014089E+02  0.7546771E-02  0.1742541E+00
         21   -1    0    0  501  502  0.00000000000E+00  0.00000000000E+00  0.99141422879E+01  0.99141422879E+01  0.00000000000E+00 0.  1.
         21   -1    0    0  502  503 -0.00000000000E+00 -0.00000000000E+00 -0.62739971574E+02  0.62739971574E+02  0.00000000000E+00 0.  1.
          5    1    1    2  501    0 -0.16654796890E+01 -0.20071913503E+02 -0.49881317285E+01  0.20749385350E+02  0.00000000000E+00 0. -1.
         -5    1    1    2    0  503  0.16654796890E+01  0.20071913503E+02 -0.47837697558E+02  0.51904728512E+02  0.00000000000E+00 0.  1.
<mgrwt>
<rscale>  2 0.20140892E+02</rscale>
<asrwt>0</asrwt>
<pdfrwt beam="1">  1       21 0.15252526E-02 0.20140892E+02</pdfrwt>
<pdfrwt beam="2">  1       21 0.96523035E-02 0.20140892E+02</pdfrwt>
<totfact> 0.10755077E+08</totfact>
</mgrwt>
</event>
<event>
 4    1  0.3862688E+004  0.2771376E+02  0.7546771E-02  0.1624828E+00
         21   -1    0    0  501  502  0.00000000000E+00  0.00000000000E+00  0.68382449259E+03  0.68382449259E+03  0.00000000000E+00 0.  1.
         21   -1    0    0  502  503 -0.00000000000E+00 -0.00000000000E+00 -0.12048773406E+01  0.12048773406E+01  0.00000000000E+00 0.  1.
          5    1    1    2  501    0 -0.23183772027E+02 -0.15184376273E+02  0.43050322918E+03  0.43139434732E+03  0.00000000000E+00 0.  1.
         -5    1    1    2    0  503  0.23183772027E+02  0.15184376273E+02  0.25211638607E+03  0.25363502261E+03  0.00000000000E+00 0. -1.
<mgrwt>
<rscale>  2 0.27713761E+02</rscale>
<asrwt>0</asrwt>
<pdfrwt beam="1">  1       21 0.10520346E+00 0.27713761E+02</pdfrwt>
<pdfrwt beam="2">  1       21 0.18536629E-03 0.27713761E+02</pdfrwt>
<totfact> 0.30416314E+07</totfact>
</mgrwt>
</event>
<event>
 4    1  0.3862688E+004  0.2036857E+02  0.7546771E-02  0.1738096E+00
         21   -1    0    0  503  502  0.00000000000E+00  0.00000000000E+00  0.19850214971E+03  0.19850214971E+03  0.00000000000E+00 0. -1.
         21   -1    0    0  501  503 -0.00000000000E+00 -0.00000000000E+00 -0.29229346176E+01  0.29229346176E+01  0.00000000000E+00 0. -1.
          3    1    1    2  501    0 -0.72555632680E+01  0.19032483301E+02  0.15155062485E+03  0.15291327775E+03  0.00000000000E+00 0.  1.
         -3    1    1    2    0  502  0.72555632680E+01 -0.19032483301E+02  0.44028590238E+02  0.48511806576E+02  0.00000000000E+00 0. -1.
<mgrwt>
<rscale>  2 0.20368569E+02</rscale>
<asrwt>0</asrwt>
<pdfrwt beam="1">  1       21 0.30538782E-01 0.20368569E+02</pdfrwt>
<pdfrwt beam="2">  1       21 0.44968240E-03 0.20368569E+02</pdfrwt>
<totfact> 0.91932565E+07</totfact>
</mgrwt>
</event>
<event>
 4    1  0.3862688E+004  0.2045940E+02  0.7546771E-02  0.1736344E+00
         21   -1    0    0  503  502  0.00000000000E+00  0.00000000000E+00  0.88789194284E+01  0.88789194284E+01  0.00000000000E+00 0. -1.
         21   -1    0    0  501  503 -0.00000000000E+00 -0.00000000000E+00 -0.61825133083E+02  0.61825133083E+02  0.00000000000E+00 0. -1.
          2    1    1    2  501    0 -0.15993072447E+02 -0.12759642931E+02 -0.92459698333E+01  0.22451610458E+02  0.00000000000E+00 0.  1.
         -2    1    1    2    0  502  0.15993072447E+02  0.12759642931E+02 -0.43700243821E+02  0.48252442052E+02  0.00000000000E+00 0. -1.
<mgrwt>
<rscale>  2 0.20459395E+02</rscale>
<asrwt>0</asrwt>
<pdfrwt beam="1">  1       21 0.13659876E-02 0.20459395E+02</pdfrwt>
<pdfrwt beam="2">  1       21 0.95115593E-02 0.20459395E+02</pdfrwt>
<totfact> 0.13078001E+08</totfact>
</mgrwt>
</event>
<event>
 4    1  0.3862688E+004  0.2656650E+02  0.7546771E-02  0.1639470E+00
         21   -1    0    0  503  502  0.00000000000E+00  0.00000000000E+00  0.28893974332E+02  0.28893974332E+02  0.00000000000E+00 0. -1.
         21   -1    0    0  501  503 -0.00000000000E+00 -0.00000000000E+00 -0.27265081582E+02  0.27265081582E+02  0.00000000000E+00 0. -1.
          1    1    1    2  501    0 -0.10373206759E+02 -0.24457627830E+02  0.98746146113E+01  0.28342318029E+02  0.00000000000E+00 0. -1.
         -1    1    1    2    0  502  0.10373206759E+02  0.24457627830E+02 -0.82457218614E+01  0.27816737885E+02  0.00000000000E+00 0.  1.
<mgrwt>
<rscale>  2 0.26566501E+02</rscale>
<asrwt>0</asrwt>
<pdfrwt beam="1">  1       21 0.44452268E-02 0.26566501E+02</pdfrwt>
<pdfrwt beam="2">  1       21 0.41946279E-02 0.26566501E+02</pdfrwt>
<totfact> 0.84887493E+07</totfact>
</mgrwt>
</event>
<event>
 4    1  0.3862688E+004  0.2159562E+02  0.7546771E-02  0.1715341E+00
         21   -1    0    0  501  502  0.00000000000E+00  0.00000000000E+00  0.44808721309E+01  0.44808721309E+01  0.00000000000E+00 0.  1.
         21   -1    0    0  502  503 -0.00000000000E+00 -0.00000000000E+00 -0.10449001920E+03  0.10449001920E+03  0.00000000000E+00 0.  1.
          4    1    1    2  501    0 -0.60083191438E+01 -0.20742967432E+02 -0.46592827774E+02  0.51354281193E+02  0.00000000000E+00 0.  1.
         -4    1    1    2    0  503  0.60083191438E+01  0.20742967432E+02 -0.53416319293E+02  0.57616610137E+02  0.00000000000E+00 0. -1.
<mgrwt>
<rscale>  2 0.21595615E+02</rscale>
<asrwt>0</asrwt>
<pdfrwt beam="1">  1       21 0.68936496E-03 0.21595615E+02</pdfrwt>
<pdfrwt beam="2">  1       21 0.16075387E-01 0.21595615E+02</pdfrwt>
<totfact> 0.15372841E+08</totfact>
</mgrwt>
</event>
<event>
 4    1  0.3862688E+004  0.2142638E+02  0.7546771E-02  0.1718366E+00
         21   -1    0    0  503  502  0.00000000000E+00  0.00000000000E+00  0.28301449770E+01  0.28301449770E+01  0.00000000000E+00 0. -1.
         21   -1    0    0  501  503 -0.00000000000E+00 -0.00000000000E+00 -0.28643999773E+03  0.28643999773E+03  0.00000000000E+00 0. -1.
          1    1    1    2  501    0 -0.20443363796E+02 -0.64154895672E+01 -0.46555421676E+02  0.51249360163E+02  0.00000000000E+00 0. -1.
         -1    1    1    2    0  502  0.20443363796E+02  0.64154895672E+01 -0.23705443107E+03  0.23802078254E+03  0.00000000000E+00 0.  1.
<mgrwt>
<rscale>  2 0.21426377E+02</rscale>
<asrwt>0</asrwt>
<pdfrwt beam="1">  1       21 0.43540701E-03 0.21426377E+02</pdfrwt>
<pdfrwt beam="2">  1       21 0.44067683E-01 0.21426377E+02</pdfrwt>
<totfact> 0.49441132E+07</totfact>
</mgrwt>
</event>
<event>
 4    1  0.3862688E+004  0.2188794E+02  0.7546771E-02  0.1710197E+00
         21   -1    0    0  503  502  0.00000000000E+00  0.00000000000E+00  0.44997322030E+01  0.44997322030E+01  0.00000000000E+00 0. -1.
         21   -1    0    0  501  503 -0.00000000000E+00 -0.00000000000E+00 -0.15321795544E+03  0.15321795544E+03  0.00000000000E+00 0. -1.
          1    1    1    2  501    0 -0.42450465353E+01 -0.21472339220E+02 -0.30799725259E+02  0.37784981774E+02  0.00000000000E+00 0. -1.
         -1    1    1    2    0  502  0.42450465353E+01  0.21472339220E+02 -0.11791849798E+03  0.11993270587E+03  0.00000000000E+00 0.  1.
<mgrwt>
<rscale>  2 0.21887937E+02</rscale>
<asrwt>0</asrwt>
<pdfrwt beam="1">  1       21 0.69226641E-03 0.21887937E+02</pdfrwt>
<pdfrwt beam="2">  1       21 0.23571996E-01 0.21887937E+02</pdfrwt>
<totfact> 0.78884827E+07</totfact>
</mgrwt>
</event>
<event>
 4    1  0.3862688E+004  0.2323823E+02  0.7546771E-02  0.1687677E+00
         21   -1    0    0  503  502  0.00000000000E+00  0.00000000000E+00  0.13265066660E+03  0.13265066660E+03  0.00000000000E+00 0.  1.
         21   -1    0    0  501  503 -0.00000000000E+00 -0.00000000000E+00 -0.41306982153E+01  0.41306982153E+01  0.00000000000E+00 0.  1.
          1    1    1    2  501    0  0.10177041752E+02 -0.20891217755E+02  0.72484726043E+02  0.76118661757E+02  0.00000000000E+00 0. -1.
         -1    1    1    2    0  502 -0.10177041752E+02  0.20891217755E+02  0.56035242341E+02  0.60662703058E+02  0.00000000000E+00 0.  1.
<mgrwt>
<rscale>  2 0.23238226E+02</rscale>
<asrwt>0</asrwt>
<pdfrwt beam="1">  1       21 0.20407792E-01 0.23238226E+02</pdfrwt>
<pdfrwt beam="2">  1       21 0.63549213E-03 0.23238226E+02</pdfrwt>
<totfact> 0.11732633E+08</totfact>
</mgrwt>
</event>
<event>
 4    1  0.3862688E+004  0.2284162E+02  0.7546771E-02  0.1694090E+00
         21   -1    0    0  501  502  0.00000000000E+00  0.00000000000E+00  0.13631448725E+03  0.13631448725E+03  0.00000000000E+00 0.  1.
         21   -1    0    0  502  503 -0.00000000000E+00 -0.00000000000E+00 -0.39414660827E+01  0.39414660827E+01  0.00000000000E+00 0.  1.
          1    1    1    2  501    0  0.12416735603E+02  0.19171967075E+02  0.54260178437E+02  0.58871950949E+02  0.00000000000E+00 0. -1.
         -1    1    1    2    0  503 -0.12416735603E+02 -0.19171967075E+02  0.78112842733E+02  0.81384002386E+02  0.00000000000E+00 0.  1.
<mgrwt>
<rscale>  2 0.22841621E+02</rscale>
<asrwt>0</asrwt>
<pdfrwt beam="1">  1       21 0.20971456E-01 0.22841621E+02</pdfrwt>
<pdfrwt beam="2">  1       21 0.60637950E-03 0.22841621E+02</pdfrwt>
<totfact> 0.11933805E+08</totfact>
</mgrwt>
</event>
<event>
 4    1  0.3862688E+004  0.2430597E+02  0.7546771E-02  0.1671175E+00
         21   -1    0    0  501  502  0.00000000000E+00  0.00000000000E+00  0.18958061726E+01  0.18958061726E+01  0.00000000000E+00 0. -1.
         21   -1    0    0  502  503 -0.00000000000E+00 -0.00000000000E+00 -0.32420554228E+03  0.32420554228E+03  0.00000000000E+00 0. -1.
          4    1    1    2  501    0 -0.15585221541E+02  0.18651570835E+02 -0.12903561313E+03  0.13130487303E+03  0.00000000000E+00 0. -1.
         -4    1    1    2    0  503  0.15585221541E+02 -0.18651570835E+02 -0.19327412297E+03  0.19479647542E+03  0.00000000000E+00 0.  1.
<mgrwt>
<rscale>  2 0.24305971E+02</rscale>
<asrwt>0</asrwt>
<pdfrwt beam="1">  1       21 0.29166244E-03 0.24305971E+02</pdfrwt>
<pdfrwt beam="2">  1       21 0.49877783E-01 0.24305971E+02</pdfrwt>
<totfact> 0.72177224E+07</totfact>
</mgrwt>
</event>
<event>
 4    1  0.3862688E+004  0.2303340E+02  0.7546771E-02  0.1690969E+00
         21   -1    0    0  501  502  0.00000000000E+00  0.00000000000E+00  0.96528778190E+01  0.96528778190E+01  0.00000000000E+00 0.  1.
         21   -1    0    0  502  503 -0.00000000000E+00 -0.00000000000E+00 -0.84035458622E+02  0.84035458622E+02  0.00000000000E+00 0.  1.
          3    1    1    2  501    0  0.22889376733E+02  0.25717847442E+01 -0.96378676866E+01  0.24968502910E+02  0.00000000000E+00 0.  1.
         -3    1    1    2    0  503 -0.22889376733E+02 -0.25717847442E+01 -0.64744713116E+02  0.68719833531E+02  0.00000000000E+00 0. -1.
<mgrwt>
<rscale>  2 0.23033403E+02</rscale>
<asrwt>0</asrwt>
<pdfrwt beam="1">  1       21 0.14850581E-02 0.23033403E+02</pdfrwt>
<pdfrwt beam="2">  1       21 0.12928532E-01 0.23033403E+02</pdfrwt>
<totfact> 0.71585457E+07</totfact>
</mgrwt>
</event>
<event>
 4    1  0.3862688E+004  0.3618938E+02  0.7546771E-02  0.1538285E+00
         21   -1    0    0  501  502  0.00000000000E+00  0.00000000000E+00  0.22707031976E+03  0.22707031976E+03  0.00000000000E+00 0. -1.
         21   -1    0    0  502  503 -0.00000000000E+00 -0.00000000000E+00 -0.16929123550E+02  0.16929123550E+02  0.00000000000E+00 0. -1.
          1    1    1    2  501    0 -0.17269756070E+02  0.31802930965E+02  0.60098464547E+01  0.36684998938E+02  0.00000000000E+00 0. -1.
         -1    1    1    2    0  503  0.17269756070E+02 -0.31802930965E+02  0.20413134975E+03  0.20731444437E+03  0.00000000000E+00 0.  1.
<mgrwt>
<rscale>  2 0.36189375E+02</rscale>
<asrwt>0</asrwt>
<pdfrwt beam="1">  1       21 0.34933893E-01 0.36189375E+02</pdfrwt>
<pdfrwt beam="2">  1       21 0.26044807E-02 0.36189375E+02</pdfrwt>
<totfact> 0.56029204E+06</totfact>
</mgrwt>
</event>
<event>
 4    1  0.3862688E+004  0.2721567E+02  0.7546771E-02  0.1631076E+00
         21   -1    0    0  501  502  0.00000000000E+00  0.00000000000E+00  0.67566078980E+02  0.67566078980E+02  0.00000000000E+00 0.  1.
         21   -1    0    0  502  503 -0.00000000000E+00 -0.00000000000E+00 -0.11121215283E+02  0.11121215283E+02  0.00000000000E+00 0.  1.
          4    1    1    2  501    0  0.25889335691E+02 -0.83925600754E+01  0.32922622048E+02  0.42715240952E+02  0.00000000000E+00 0.  1.
         -4    1    1    2    0  503 -0.25889335691E+02  0.83925600754E+01  0.23522241650E+02  0.35972053310E+02  0.00000000000E+00 0. -1.
<mgrwt>
<rscale>  2 0.27215671E+02</rscale>
<asrwt>0</asrwt>
<pdfrwt beam="1">  1       21 0.10394781E-01 0.27215671E+02</pdfrwt>
<pdfrwt beam="2">  1       21 0.17109562E-02 0.27215671E+02</pdfrwt>
<totfact> 0.86792465E+07</totfact>
</mgrwt>
</event>
<event>
 4    1  0.3862688E+004  0.2300060E+02  0.7546771E-02  0.1691500E+00
         21   -1    0    0  503  502  0.00000000000E+00  0.00000000000E+00  0.49686853001E+01  0.49686853001E+01  0.00000000000E+00 0. -1.
         21   -1    0    0  501  503 -0.00000000000E+00 -0.00000000000E+00 -0.10656416458E+03  0.10656416458E+03  0.00000000000E+00 0. -1.
          5    1    1    2  501    0  0.21674039603E+02 -0.76983001563E+01 -0.49161226917E+02  0.54275722474E+02  0.00000000000E+00 0. -1.
         -5    1    1    2    0  502 -0.21674039603E+02  0.76983001563E+01 -0.52434252363E+02  0.57257127407E+02  0.00000000000E+00 0.  1.
<mgrwt>
<rscale>  2 0.23000605E+02</rscale>
<asrwt>0</asrwt>
<pdfrwt beam="1">  1       21 0.76441313E-03 0.23000605E+02</pdfrwt>
<pdfrwt beam="2">  1       21 0.16394487E-01 0.23000605E+02</pdfrwt>
<totfact> 0.12984917E+08</totfact>
</mgrwt>
</event>
<event>
 4    1  0.3862688E+004  0.2902297E+02  0.7546771E-02  0.1609146E+00
         21   -1    0    0  501  502  0.00000000000E+00  0.00000000000E+00  0.18400089465E+02  0.18400089465E+02  0.00000000000E+00 0. -1.
         21   -1    0    0  502  503 -0.00000000000E+00 -0.00000000000E+00 -0.59144710400E+02  0.59144710400E+02  0.00000000000E+00 0. -1.
          3    1    1    2  501    0 -0.64006327753E+00 -0.29015906973E+02 -0.19406141653E+01  0.29087772720E+02  0.00000000000E+00 0. -1.
         -3    1    1    2    0  503  0.64006327753E+00  0.29015906973E+02 -0.38804006770E+02  0.48457027146E+02  0.00000000000E+00 0.  1.
<mgrwt>
<rscale>  2 0.29022966E+02</rscale>
<asrwt>0</asrwt>
<pdfrwt beam="1">  1       21 0.28307830E-02 0.29022966E+02</pdfrwt>
<pdfrwt beam="2">  1       21 0.90991863E-02 0.29022966E+02</pdfrwt>
<totfact> 0.50394440E+07</totfact>
</mgrwt>
</event>
<event>
 4    1  0.3862688E+004  0.2680736E+02  0.7546771E-02  0.1636322E+00
         21   -1    0    0  501  502  0.00000000000E+00  0.00000000000E+00  0.13983194030E+03  0.13983194030E+03  0.00000000000E+00 0. -1.
         21   -1    0    0  502  503 -0.00000000000E+00 -0.00000000000E+00 -0.88944715460E+01  0.88944715460E+01  0.00000000000E+00 0. -1.
          1    1    1    2  501    0 -0.15078708037E+02  0.22164551336E+02  0.11378733807E+03  0.11690249388E+03  0.00000000000E+00 0. -1.
         -1    1    1    2    0  503  0.15078708037E+02 -0.22164551336E+02  0.17150130691E+02  0.31823917966E+02  0.00000000000E+00 0.  1.
<mgrwt>
<rscale>  2 0.26807364E+02</rscale>
<asrwt>0</asrwt>
<pdfrwt beam="1">  1       21 0.21512605E-01 0.26807364E+02</pdfrwt>
<pdfrwt beam="2">  1       21 0.13683803E-02 0.26807364E+02</pdfrwt>
<totfact> 0.34959077E+07</totfact>
</mgrwt>
</event>
<event>
 4    1  0.3862688E+004  0.3330616E+02  0.7546771E-02  0.1564178E+00
         21   -1    0    0  503  502  0.00000000000E+00  0.00000000000E+00  0.31310973166E+02  0.31310973166E+02  0.00000000000E+00 0. -1.
         21   -1    0    0  501  503 -0.00000000000E+00 -0.00000000000E+00 -0.35936375134E+02  0.35936375134E+02  0.00000000000E+00 0. -1.
          4    1    1    2  501    0  0.35282547737E+01 -0.33118751155E+02  0.16845743139E+01  0.33348733866E+02  0.00000000000E+00 0.  1.
         -4    1    1    2    0  502 -0.35282547737E+01  0.33118751155E+02 -0.63099762814E+01  0.33898614434E+02  0.00000000000E+00 0. -1.
<mgrwt>
<rscale>  2 0.33306159E+02</rscale>
<asrwt>0</asrwt>
<pdfrwt beam="1">  1       21 0.48170728E-02 0.33306159E+02</pdfrwt>
<pdfrwt beam="2">  1       21 0.55286731E-02 0.33306159E+02</pdfrwt>
<totfact> 0.50524462E+07</totfact>
</mgrwt>
</event>
<event>
 4    1  0.3862688E+004  0.2459002E+02  0.7546771E-02  0.1666961E+00
         21   -1    0    0  503  502  0.00000000000E+00  0.00000000000E+00  0.43502679312E+02  0.43502679312E+02  0.00000000000E+00 0. -1.
         21   -1    0    0  501  503 -0.00000000000E+00 -0.00000000000E+00 -0.22645064135E+02  0.22645064135E+02  0.00000000000E+00 0. -1.
          4    1    1    2  501    0 -0.84556759133E+01 -0.23090483956E+02  0.30982517675E+02  0.39554839223E+02  0.00000000000E+00 0.  1.
         -4    1    1    2    0  502  0.84556759133E+01  0.23090483956E+02 -0.10124902499E+02  0.26592904224E+02  0.00000000000E+00 0. -1.
<mgrwt>
<rscale>  2 0.24590016E+02</rscale>
<asrwt>0</asrwt>
<pdfrwt beam="1">  1       21 0.66927199E-02 0.24590016E+02</pdfrwt>
<pdfrwt beam="2">  1       21 0.34838560E-02 0.24590016E+02</pdfrwt>
<totfact> 0.57864053E+07</totfact>
</mgrwt>
</event>
<event>
 4    1  0.3862688E+004  0.2021648E+02  0.7546771E-02  0.1741057E+00
         21   -1    0    0  503  502  0.00000000000E+00  0.00000000000E+00  0.27835773023E+02  0.27835773023E+02  0.00000000000E+00 0.  1.
         21   -1    0    0  501  503 -0.00000000000E+00 -0.00000000000E+00 -0.14687061087E+02  0.14687061087E+02  0.00000000000E+00 0.  1.
          1    1    1    2  501    0 -0.10424760393E+02  0.17321390463E+02  0.69378611766E+01  0.21373818436E+02  0.00000000000E+00 0.  1.
         -1    1    1    2    0  502  0.10424760393E+02 -0.17321390463E+02  0.62108507597E+01  0.21149015674E+02  0.00000000000E+00 0. -1.
<mgrwt>
<rscale>  2 0.20216483E+02</rscale>
<asrwt>0</asrwt>
<pdfrwt beam="1">  1       21 0.42824266E-02 0.20216483E+02</pdfrwt>
<pdfrwt beam="2">  1       21 0.22595479E-02 0.20216483E+02</pdfrwt>
<totfact> 0.21802053E+08</totfact>
</mgrwt>
</event>
<event>
 4    1  0.3862688E+004  0.2298313E+02  0.7546771E-02  0.1691784E+00
         21   -1    0    0  503  502  0.00000000000E+00  0.00000000000E+00  0.14616519830E+02  0.14616519830E+02  0.00000000000E+00 0.  1.
         21   -1    0    0  501  503 -0.00000000000E+00 -0.00000000000E+00 -0.36181485789E+02  0.36181485789E+02  0.00000000000E+00 0.  1.
          4    1    1    2  501    0  0.16517783158E+02  0.15980839672E+02 -0.11654245298E+02  0.25769086723E+02  0.00000000000E+00 0. -1.
         -4    1    1    2    0  502 -0.16517783158E+02 -0.15980839672E+02 -0.99107206606E+01  0.25028918895E+02  0.00000000000E+00 0.  1.
<mgrwt>
<rscale>  2 0.22983133E+02</rscale>
<asrwt>0</asrwt>
<pdfrwt beam="1">  1       21 0.22486954E-02 0.22983133E+02</pdfrwt>
<pdfrwt beam="2">  1       21 0.55663824E-02 0.22983133E+02</pdfrwt>
<totfact> 0.15089242E+08</totfact>
</mgrwt>
</event>
<event>
 4    1  0.3862688E+004  0.2017775E+02  0.7546771E-02  0.1741816E+00
         21   -1    0    0  503  502  0.00000000000E+00  0.00000000000E+00  0.12816524960E+03  0.12816524960E+03  0.00000000000E+00 0. -1.
         21   -1    0    0  501  503 -0.00000000000E+00 -0.00000000000E+00 -0.33937733034E+01  0.33937733034E+01  0.00000000000E+00 0. -1.
          3    1    1    2  501    0 -0.57767283983E+01 -0.19333162565E+02  0.79022107187E+02  0.81557557529E+02  0.00000000000E+00 0.  1.
         -3    1    1    2    0  502  0.57767283983E+01  0.19333162565E+02  0.45749369113E+02  0.50001465378E+02  0.00000000000E+00 0. -1.
<mgrwt>
<rscale>  2 0.20177754E+02</rscale>
<asrwt>0</asrwt>
<pdfrwt beam="1">  1       21 0.19717727E-01 0.20177754E+02</pdfrwt>
<pdfrwt beam="2">  1       21 0.52211907E-03 0.20177754E+02</pdfrwt>
<totfact> 0.15978370E+08</totfact>
</mgrwt>
</event>
<event>
 4    1  0.3862688E+004  0.2682777E+02  0.7546771E-02  0.1636057E+00
         21   -1    0    0  501  502  0.00000000000E+00  0.00000000000E+00  0.34447822306E+02  0.34447822306E+02  0.00000000000E+00 0.  1.
         21   -1    0    0  502  503 -0.00000000000E+00 -0.00000000000E+00 -0.20894287168E+02  0.20894287168E+02  0.00000000000E+00 0.  1.
          2    1    1    2  501    0 -0.12434010462E+02  0.23772353882E+02  0.65886483248E+01  0.27624983475E+02  0.00000000000E+00 0. -1.
         -2    1    1    2    0  503  0.12434010462E+02 -0.23772353882E+02  0.69648868129E+01  0.27717125998E+02  0.00000000000E+00 0.  1.
<mgrwt>
<rscale>  2 0.26827773E+02</rscale>
<asrwt>0</asrwt>
<pdfrwt beam="1">  1       21 0.52996650E-02 0.26827773E+02</pdfrwt>
<pdfrwt beam="2">  1       21 0.32145057E-02 0.26827773E+02</pdfrwt>
<totfact> 0.97804672E+07</totfact>
</mgrwt>
</event>
<event>
 4    1  0.3862688E+004  0.2322616E+02  0.7546771E-02  0.1687870E+00
         21   -1    0    0  503  502  0.00000000000E+00  0.00000000000E+00  0.77998031210E+00  0.77998031210E+00  0.00000000000E+00 0.  1.
         21   -1    0    0  501  503 -0.00000000000E+00 -0.00000000000E+00 -0.78044554310E+03  0.78044554310E+03  0.00000000000E+00 0.  1.
          4    1    1    2  501    0  0.63109576465E+01  0.22352326698E+02 -0.25805891374E+03  0.25910202171E+03  0.00000000000E+00 0. -1.
         -4    1    1    2    0  502 -0.63109576465E+01 -0.22352326698E+02 -0.52160664905E+03  0.52212350171E+03  0.00000000000E+00 0.  1.
<mgrwt>
<rscale>  2 0.23226164E+02</rscale>
<asrwt>0</asrwt>
<pdfrwt beam="1">  1       21 0.11999676E-03 0.23226164E+02</pdfrwt>
<pdfrwt beam="2">  1       21 0.12006876E+00 0.23226164E+02</pdfrwt>
<totfact> 0.40877813E+07</totfact>
</mgrwt>
</event>
<event>
 4    1  0.3862688E+004  0.2261185E+02  0.7546771E-02  0.1697880E+00
         21   -1    0    0  501  502  0.00000000000E+00  0.00000000000E+00  0.21322133570E+01  0.21322133570E+01  0.00000000000E+00 0. -1.
         21   -1    0    0  502  503 -0.00000000000E+00 -0.00000000000E+00 -0.23993792190E+03  0.23993792190E+03  0.00000000000E+00 0. -1.
          4    1    1    2  501    0  0.18810242726E+02 -0.12548730514E+02 -0.12184828235E+03  0.12392860760E+03  0.00000000000E+00 0. -1.
         -4    1    1    2    0  503 -0.18810242726E+02  0.12548730514E+02 -0.11595742620E+03  0.11814152766E+03  0.00000000000E+00 0.  1.
<mgrwt>
<rscale>  2 0.22611852E+02</rscale>
<asrwt>0</asrwt>
<pdfrwt beam="1">  1       21 0.32803293E-03 0.22611852E+02</pdfrwt>
<pdfrwt beam="2">  1       21 0.36913515E-01 0.22611852E+02</pdfrwt>
<totfact> 0.10588528E+08</totfact>
</mgrwt>
</event>
<event>
 4    1  0.3862688E+004  0.2399960E+02  0.7546771E-02  0.1675801E+00
         21   -1    0    0  501  502  0.00000000000E+00  0.00000000000E+00  0.12952979355E+01  0.12952979355E+01  0.00000000000E+00 0. -1.
         21   -1    0    0  502  503 -0.00000000000E+00 -0.00000000000E+00 -0.44596586111E+03  0.44596586111E+03  0.00000000000E+00 0. -1.
          4    1    1    2  501    0 -0.21211378973E+02 -0.11227570900E+02 -0.21028341335E+03  0.21164851730E+03  0.00000000000E+00 0.  1.
         -4    1    1    2    0  503  0.21211378973E+02  0.11227570900E+02 -0.23438714982E+03  0.23561264174E+03  0.00000000000E+00 0. -1.
<mgrwt>
<rscale>  2 0.23999603E+02</rscale>
<asrwt>0</asrwt>
<pdfrwt beam="1">  1       21 0.19927650E-03 0.23999603E+02</pdfrwt>
<pdfrwt beam="2">  1       21 0.68610169E-01 0.23999603E+02</pdfrwt>
<totfact> 0.66207979E+07</totfact>
</mgrwt>
</event>
<event>
 4    1  0.3862688E+004  0.2045092E+02  0.7546771E-02  0.1736507E+00
         21   -1    0    0  501  502  0.00000000000E+00  0.00000000000E+00  0.66701918722E+01  0.66701918722E+01  0.00000000000E+00 0. -1.
         21   -1    0    0  502  503 -0.00000000000E+00 -0.00000000000E+00 -0.62858951581E+02  0.62858951581E+02  0.00000000000E+00 0. -1.
          4    1    1    2  501    0  0.17017012144E+02 -0.11342904928E+02 -0.29826686745E+02  0.36164505205E+02  0.00000000000E+00 0. -1.
         -4    1    1    2    0  503 -0.17017012144E+02  0.11342904928E+02 -0.26362072963E+02  0.33364638248E+02  0.00000000000E+00 0.  1.
<mgrwt>
<rscale>  2 0.20450922E+02</rscale>
<asrwt>0</asrwt>
<pdfrwt beam="1">  1       21 0.10261834E-02 0.20450922E+02</pdfrwt>
<pdfrwt beam="2">  1       21 0.96706076E-02 0.20450922E+02</pdfrwt>
<totfact> 0.19558617E+08</totfact>
</mgrwt>
</event>
<event>
 4    1  0.3862688E+004  0.2240649E+02  0.7546771E-02  0.1701315E+00
         21   -1    0    0  501  502  0.00000000000E+00  0.00000000000E+00  0.22815515417E+02  0.22815515417E+02  0.00000000000E+00 0. -1.
         21   -1    0    0  502  503 -0.00000000000E+00 -0.00000000000E+00 -0.27262968756E+02  0.27262968756E+02  0.00000000000E+00 0. -1.
          4    1    1    2  501    0 -0.52628814243E+01  0.21779641563E+02  0.87727138841E+01  0.24062651898E+02  0.00000000000E+00 0. -1.
         -4    1    1    2    0  503  0.52628814243E+01 -0.21779641563E+02 -0.13220167223E+02  0.26015832274E+02  0.00000000000E+00 0.  1.
<mgrwt>
<rscale>  2 0.22406488E+02</rscale>
<asrwt>0</asrwt>
<pdfrwt beam="1">  1       21 0.35100793E-02 0.22406488E+02</pdfrwt>
<pdfrwt beam="2">  1       21 0.41943029E-02 0.22406488E+02</pdfrwt>
<totfact> 0.11758473E+08</totfact>
</mgrwt>
</event>
<event>
 4    1  0.3862688E+004  0.2736927E+02  0.7546771E-02  0.1629132E+00
         21   -1    0    0  503  502  0.00000000000E+00  0.00000000000E+00  0.11172321647E+01  0.11172321647E+01  0.00000000000E+00 0.  1.
         21   -1    0    0  501  503 -0.00000000000E+00 -0.00000000000E+00 -0.67212320058E+03  0.67212320058E+03  0.00000000000E+00 0.  1.
          2    1    1    2  501    0  0.25648200253E+02 -0.95523216881E+01 -0.35216883844E+03  0.35323075715E+03  0.00000000000E+00 0. -1.
         -2    1    1    2    0  502 -0.25648200253E+02  0.95523216881E+01 -0.31883712998E+03  0.32000967560E+03  0.00000000000E+00 0.  1.
<mgrwt>
<rscale>  2 0.27369272E+02</rscale>
<asrwt>0</asrwt>
<pdfrwt beam="1">  1       21 0.17188205E-03 0.27369272E+02</pdfrwt>
<pdfrwt beam="2">  1       21 0.10340346E+00 0.27369272E+02</pdfrwt>
<totfact> 0.35183223E+07</totfact>
</mgrwt>
</event>
<event>
 4    1  0.3862688E+004  0.4092422E+02  0.7546771E-02  0.1501518E+00
         21   -1    0    0  501  502  0.00000000000E+00  0.00000000000E+00  0.19694374575E+02  0.19694374575E+02  0.00000000000E+00 0. -1.
         21   -1    0    0  502  503 -0.00000000000E+00 -0.00000000000E+00 -0.85782188925E+02  0.85782188925E+02  0.00000000000E+00 0. -1.
          4    1    1    2  501    0  0.13099610844E+02 -0.38771021049E+02 -0.37952397944E+02  0.55813765212E+02  0.00000000000E+00 0. -1.
         -4    1    1    2    0  503 -0.13099610844E+02  0.38771021049E+02 -0.28135416406E+02  0.49662798288E+02  0.00000000000E+00 0.  1.
<mgrwt>
<rscale>  2 0.40924221E+02</rscale>
<asrwt>0</asrwt>
<pdfrwt beam="1">  1       21 0.30299039E-02 0.40924221E+02</pdfrwt>
<pdfrwt beam="2">  1       21 0.13197260E-01 0.40924221E+02</pdfrwt>
<totfact> 0.25804631E+07</totfact>
</mgrwt>
</event>
<event>
 4    1  0.3862688E+004  0.2385202E+02  0.7546771E-02  0.1678060E+00
         21   -1    0    0  501  502  0.00000000000E+00  0.00000000000E+00  0.27137632475E+02  0.27137632475E+02  0.00000000000E+00 0.  1.
         21   -1    0    0  502  503 -0.00000000000E+00 -0.00000000000E+00 -0.21063283994E+02  0.21063283994E+02  0.00000000000E+00 0.  1.
          3    1    1    2  501    0 -0.22999182662E+01  0.23740879876E+02  0.13842836886E+01  0.23892158601E+02  0.00000000000E+00 0.  1.
         -3    1    1    2    0  503  0.22999182662E+01 -0.23740879876E+02  0.46900647925E+01  0.24308757868E+02  0.00000000000E+00 0. -1.
<mgrwt>
<rscale>  2 0.23852023E+02</rscale>
<asrwt>0</asrwt>
<pdfrwt beam="1">  1       21 0.41750204E-02 0.23852023E+02</pdfrwt>
<pdfrwt beam="2">  1       21 0.32405052E-02 0.23852023E+02</pdfrwt>
<totfact> 0.13674373E+08</totfact>
</mgrwt>
</event>
<event>
 4    1  0.3862688E+004  0.2278578E+02  0.7546771E-02  0.1695006E+00
         21   -1    0    0  501  502  0.00000000000E+00  0.00000000000E+00  0.14499440693E+02  0.14499440693E+02  0.00000000000E+00 0. -1.
         21   -1    0    0  502  503 -0.00000000000E+00 -0.00000000000E+00 -0.35929313911E+02  0.35929313911E+02  0.00000000000E+00 0. -1.
          2    1    1    2  501    0 -0.15458883724E+02 -0.16739618957E+02 -0.12181759538E+02  0.25837708765E+02  0.00000000000E+00 0.  1.
         -2    1    1    2    0  503  0.15458883724E+02  0.16739618957E+02 -0.92481136796E+01  0.24591045838E+02  0.00000000000E+00 0. -1.
<mgrwt>
<rscale>  2 0.22785783E+02</rscale>
<asrwt>0</asrwt>
<pdfrwt beam="1">  1       21 0.22306832E-02 0.22785783E+02</pdfrwt>
<pdfrwt beam="2">  1       21 0.55275866E-02 0.22785783E+02</pdfrwt>
<totfact> 0.15408629E+08</totfact>
</mgrwt>
</event>
<event>
 4    1  0.3862688E+004  0.2011817E+02  0.7546771E-02  0.1742988E+00
         21   -1    0    0  503  502  0.00000000000E+00  0.00000000000E+00  0.84949239918E+00  0.84949239918E+00  0.00000000000E+00 0.  1.
         21   -1    0    0  501  503 -0.00000000000E+00 -0.00000000000E+00 -0.47991841665E+03  0.47991841665E+03  0.00000000000E+00 0.  1.
          2    1    1    2  501    0  0.18216125018E+02  0.85389477892E+01 -0.25996941587E+03  0.26074669322E+03  0.00000000000E+00 0.  1.
         -2    1    1    2    0  502 -0.18216125018E+02 -0.85389477892E+01 -0.21909950838E+03  0.22002121583E+03  0.00000000000E+00 0. -1.
<mgrwt>
<rscale>  2 0.20118172E+02</rscale>
<asrwt>0</asrwt>
<pdfrwt beam="1">  1       21 0.13069133E-03 0.20118172E+02</pdfrwt>
<pdfrwt beam="2">  1       21 0.73833493E-01 0.20118172E+02</pdfrwt>
<totfact> 0.99844090E+07</totfact>
</mgrwt>
</event>
<event>
 4    1  0.3862688E+004  0.2082902E+02  0.7546771E-02  0.1729327E+00
         21   -1    0    0  503  502  0.00000000000E+00  0.00000000000E+00  0.51365904678E+03  0.51365904678E+03  0.00000000000E+00 0.  1.
         21   -1    0    0  501  503 -0.00000000000E+00 -0.00000000000E+00 -0.92215271552E+00  0.92215271552E+00  0.00000000000E+00 0.  1.
          5    1    1    2  501    0  0.14745880028E+02 -0.14710777677E+02  0.33097176738E+03  0.33162653507E+03  0.00000000000E+00 0.  1.
         -5    1    1    2    0  502 -0.14745880028E+02  0.14710777677E+02  0.18176512669E+03  0.18295466443E+03  0.00000000000E+00 0. -1.
<mgrwt>
<rscale>  2 0.20829017E+02</rscale>
<asrwt>0</asrwt>
<pdfrwt beam="1">  1       21 0.79024240E-01 0.20829017E+02</pdfrwt>
<pdfrwt beam="2">  1       21 0.14187006E-03 0.20829017E+02</pdfrwt>
<totfact> 0.77860098E+07</totfact>
</mgrwt>
</event>
<event>
 4    1  0.3862688E+004  0.2246558E+02  0.7546771E-02  0.1700322E+00
         21   -1    0    0  503  502  0.00000000000E+00  0.00000000000E+00  0.18482624914E+03  0.18482624914E+03  0.00000000000E+00 0. -1.
         21   -1    0    0  501  503 -0.00000000000E+00 -0.00000000000E+00 -0.28805400506E+01  0.28805400506E+01  0.00000000000E+00 0. -1.
          1    1    1    2  501    0  0.16079413218E+02  0.15689319289E+02  0.69566205215E+02  0.73103756246E+02  0.00000000000E+00 0.  1.
         -1    1    1    2    0  502 -0.16079413218E+02 -0.15689319289E+02  0.11237950388E+03  0.11460303295E+03  0.00000000000E+00 0. -1.
<mgrwt>
<rscale>  2 0.22465580E+02</rscale>
<asrwt>0</asrwt>
<pdfrwt beam="1">  1       21 0.28434798E-01 0.22465580E+02</pdfrwt>
<pdfrwt beam="2">  1       21 0.44316015E-03 0.22465580E+02</pdfrwt>
<totfact> 0.10980333E+08</totfact>
</mgrwt>
</event>
<event>
 4    1  0.3862688E+004  0.2936297E+02  0.7546771E-02  0.1605239E+00
         21   -1    0    0  503  502  0.00000000000E+00  0.00000000000E+00  0.10874656958E+01  0.10874656958E+01  0.00000000000E+00 0.  1.
         21   -1    0    0  501  503 -0.00000000000E+00 -0.00000000000E+00 -0.80398035449E+03  0.80398035449E+03  0.00000000000E+00 0.  1.
          5    1    1    2  501    0  0.21426140787E+01 -0.29284696679E+02 -0.44883418012E+03  0.44979362546E+03  0.00000000000E+00 0. -1.
         -5    1    1    2    0  502 -0.21426140787E+01  0.29284696679E+02 -0.35405870867E+03  0.35527419473E+03  0.00000000000E+00 0.  1.
<mgrwt>
<rscale>  2 0.29362974E+02</rscale>
<asrwt>0</asrwt>
<pdfrwt beam="1">  1       21 0.16730257E-03 0.29362974E+02</pdfrwt>
<pdfrwt beam="2">  1       21 0.12368917E+00 0.29362974E+02</pdfrwt>
<totfact> 0.24693646E+07</totfact>
</mgrwt>
</event>
<event>
 4    1  0.3862688E+004  0.2085561E+02  0.7546771E-02  0.1728830E+00
         21   -1    0    0  503  502  0.00000000000E+00  0.00000000000E+00  0.74173417837E+01  0.74173417837E+01  0.00000000000E+00 0.  1.
         21   -1    0    0  501  503 -0.00000000000E+00 -0.00000000000E+00 -0.63176231362E+02  0.63176231362E+02  0.00000000000E+00 0.  1.
          1    1    1    2  501    0 -0.46178278509E+01  0.20337948567E+02 -0.18421801959E+02  0.27826592917E+02  0.00000000000E+00 0.  1.
         -1    1    1    2    0  502  0.46178278509E+01 -0.20337948567E+02 -0.37337087620E+02  0.42766980229E+02  0.00000000000E+00 0. -1.
<mgrwt>
<rscale>  2 0.20855610E+02</rscale>
<asrwt>0</asrwt>
<pdfrwt beam="1">  1       21 0.11411295E-02 0.20855610E+02</pdfrwt>
<pdfrwt beam="2">  1       21 0.97194205E-02 0.20855610E+02</pdfrwt>
<totfact> 0.16644719E+08</totfact>
</mgrwt>
</event>
<event>
 4    1  0.3862688E+004  0.2438971E+02  0.7546771E-02  0.1669926E+00
         21   -1    0    0  503  502  0.00000000000E+00  0.00000000000E+00  0.39190031506E+02  0.39190031506E+02  0.00000000000E+00 0.  1.
         21   -1    0    0  501  503 -0.00000000000E+00 -0.00000000000E+00 -0.16895990794E+02  0.16895990794E+02  0.00000000000E+00 0.  1.
          4    1    1    2  501    0 -0.22880490827E+02 -0.84463616402E+01  0.22069419150E+01  0.24489354382E+02  0.00000000000E+00 0.  1.
         -4    1    1    2    0  502  0.22880490827E+02  0.84463616402E+01  0.20087098797E+02  0.31596667918E+02  0.00000000000E+00 0. -1.
<mgrwt>
<rscale>  2 0.24389709E+02</rscale>
<asrwt>0</asrwt>
<pdfrwt beam="1">  1       21 0.60292356E-02 0.24389709E+02</pdfrwt>
<pdfrwt beam="2">  1       21 0.25993832E-02 0.24389709E+02</pdfrwt>
<totfact> 0.10796782E+08</totfact>
</mgrwt>
</event>
<event>
 4    1  0.3862688E+004  0.3146960E+02  0.7546771E-02  0.1582390E+00
         21   -1    0    0  503  502  0.00000000000E+00  0.00000000000E+00  0.56201793953E+03  0.56201793953E+03  0.00000000000E+00 0.  1.
         21   -1    0    0  501  503 -0.00000000000E+00 -0.00000000000E+00 -0.18183953263E+01  0.18183953263E+01  0.00000000000E+00 0.  1.
          5    1    1    2  501    0  0.31465109623E+02 -0.53149192488E+00  0.32970061148E+03  0.33119907732E+03  0.00000000000E+00 0.  1.
         -5    1    1    2    0  502 -0.31465109623E+02  0.53149192488E+00  0.23049893272E+03  0.23263725754E+03  0.00000000000E+00 0. -1.
<mgrwt>
<rscale>  2 0.31469598E+02</rscale>
<asrwt>0</asrwt>
<pdfrwt beam="1">  1       21 0.86464160E-01 0.31469598E+02</pdfrwt>
<pdfrwt beam="2">  1       21 0.27975357E-03 0.31469598E+02</pdfrwt>
<totfact> 0.26207320E+07</totfact>
</mgrwt>
</event>
<event>
 4    1  0.3862688E+004  0.2316223E+02  0.7546771E-02  0.1688894E+00
         21   -1    0    0  501  502  0.00000000000E+00  0.00000000000E+00  0.11087707622E+01  0.11087707622E+01  0.00000000000E+00 0. -1.
         21   -1    0    0  502  503 -0.00000000000E+00 -0.00000000000E+00 -0.49298980081E+03  0.49298980081E+03  0.00000000000E+00 0. -1.
          1    1    1    2  501    0  0.23027183743E+02  0.24975653309E+01 -0.27956165138E+03  0.28051952864E+03  0.00000000000E+00 0. -1.
         -1    1    1    2    0  503 -0.23027183743E+02 -0.24975653309E+01 -0.21231937867E+03  0.21357904294E+03  0.00000000000E+00 0.  1.
<mgrwt>
<rscale>  2 0.23162233E+02</rscale>
<asrwt>0</asrwt>
<pdfrwt beam="1">  1       21 0.17057999E-03 0.23162233E+02</pdfrwt>
<pdfrwt beam="2">  1       21 0.75844642E-01 0.23162233E+02</pdfrwt>
<totfact> 0.66816860E+07</totfact>
</mgrwt>
</event>
<event>
 4    1  0.3862688E+004  0.2653153E+02  0.7546771E-02  0.1639931E+00
         21   -1    0    0  503  502  0.00000000000E+00  0.00000000000E+00  0.33297502753E+03  0.33297502753E+03  0.00000000000E+00 0. -1.
         21   -1    0    0  501  503 -0.00000000000E+00 -0.00000000000E+00 -0.21287822134E+01  0.21287822134E+01  0.00000000000E+00 0. -1.
          2    1    1    2  501    0  0.78851743417E+01 -0.25332706999E+02  0.17936713028E+03  0.18131875094E+03  0.00000000000E+00 0. -1.
         -2    1    1    2    0  502 -0.78851743417E+01  0.25332706999E+02  0.15147911504E+03  0.15378505881E+03  0.00000000000E+00 0.  1.
<mgrwt>
<rscale>  2 0.26531529E+02</rscale>
<asrwt>0</asrwt>
<pdfrwt beam="1">  1       21 0.51226886E-01 0.26531529E+02</pdfrwt>
<pdfrwt beam="2">  1       21 0.32750522E-03 0.26531529E+02</pdfrwt>
<totfact> 0.58989642E+07</totfact>
</mgrwt>
</event>
<event>
 4    1  0.3862688E+004  0.2938140E+02  0.7546771E-02  0.1605029E+00
         21   -1    0    0  503  502  0.00000000000E+00  0.00000000000E+00  0.12479408398E+01  0.12479408398E+01  0.00000000000E+00 0.  1.
         21   -1    0    0  501  503 -0.00000000000E+00 -0.00000000000E+00 -0.70175271797E+03  0.70175271797E+03  0.00000000000E+00 0.  1.
          3    1    1    2  501    0  0.27286795754E+02  0.10894830458E+02 -0.39221207153E+03  0.39331104181E+03  0.00000000000E+00 0. -1.
         -3    1    1    2    0  502 -0.27286795754E+02 -0.10894830458E+02 -0.30829270560E+03  0.30968961701E+03  0.00000000000E+00 0.  1.
<mgrwt>
<rscale>  2 0.29381398E+02</rscale>
<asrwt>0</asrwt>
<pdfrwt beam="1">  1       21 0.19199069E-03 0.29381398E+02</pdfrwt>
<pdfrwt beam="2">  1       21 0.10796207E+00 0.29381398E+02</pdfrwt>
<totfact> 0.27554285E+07</totfact>
</mgrwt>
</event>
<event>
 4    1  0.3862688E+004  0.3713863E+02  0.7546771E-02  0.1530390E+00
         21   -1    0    0  503  502  0.00000000000E+00  0.00000000000E+00  0.79342970361E+03  0.79342970361E+03  0.00000000000E+00 0.  1.
         21   -1    0    0  501  503 -0.00000000000E+00 -0.00000000000E+00 -0.20673568421E+01  0.20673568421E+01  0.00000000000E+00 0.  1.
          5    1    1    2  501    0 -0.37125739164E+02  0.97856016999E+00  0.55434833450E+03  0.55559099529E+03  0.00000000000E+00 0. -1.
         -5    1    1    2    0  502  0.37125739164E+02 -0.97856016999E+00  0.23701401226E+03  0.23990606516E+03  0.00000000000E+00 0.  1.
<mgrwt>
<rscale>  2 0.37138633E+02</rscale>
<asrwt>0</asrwt>
<pdfrwt beam="1">  1       21 0.12206587E+00 0.37138633E+02</pdfrwt>
<pdfrwt beam="2">  1       21 0.31805553E-03 0.37138633E+02</pdfrwt>
<totfact> 0.10254231E+07</totfact>
</mgrwt>
</event>
<event>
 4    1  0.3862688E+004  0.2003238E+02  0.7546771E-02  0.1744685E+00
         21   -1    0    0  501  502  0.00000000000E+00  0.00000000000E+00  0.22182010568E+03  0.22182010568E+03  0.00000000000E+00 0. -1.
         21   -1    0    0  502  503 -0.00000000000E+00 -0.00000000000E+00 -0.18741648994E+01  0.18741648994E+01  0.00000000000E+00 0. -1.
          5    1    1    2  501    0  0.69526957430E+01  0.18787135095E+02  0.13081160306E+03  0.13233658572E+03  0.00000000000E+00 0. -1.
         -5    1    1    2    0  503 -0.69526957430E+01 -0.18787135095E+02  0.89134337720E+02  0.91357684865E+02  0.00000000000E+00 0.  1.
<mgrwt>
<rscale>  2 0.20032384E+02</rscale>
<asrwt>0</asrwt>
<pdfrwt beam="1">  1       21 0.34126149E-01 0.20032384E+02</pdfrwt>
<pdfrwt beam="2">  1       21 0.28833324E-03 0.20032384E+02</pdfrwt>
<totfact> 0.14274304E+08</totfact>
</mgrwt>
</event>
<event>
 4    1  0.3862688E+004  0.2050834E+02  0.7546771E-02  0.1735404E+00
         21   -1    0    0  503  502  0.00000000000E+00  0.00000000000E+00  0.38394838257E+03  0.38394838257E+03  0.00000000000E+00 0.  1.
         21   -1    0    0  501  503 -0.00000000000E+00 -0.00000000000E+00 -0.11181685382E+01  0.11181685382E+01  0.00000000000E+00 0.  1.
          4    1    1    2  501    0  0.15583329826E+02  0.13332355132E+02  0.21886569884E+03  0.21982444357E+03  0.00000000000E+00 0.  1.
         -4    1    1    2    0  502 -0.15583329826E+02 -0.13332355132E+02  0.16396451519E+03  0.16524210754E+03  0.00000000000E+00 0. -1.
<mgrwt>
<rscale>  2 0.20508336E+02</rscale>
<asrwt>0</asrwt>
<pdfrwt beam="1">  1       21 0.59068877E-01 0.20508336E+02</pdfrwt>
<pdfrwt beam="2">  1       21 0.17202623E-03 0.20508336E+02</pdfrwt>
<totfact> 0.10634483E+08</totfact>
</mgrwt>
</event>
<event>
 4    1  0.3862688E+004  0.2999776E+02  0.7546771E-02  0.1598113E+00
         21   -1    0    0  501  502  0.00000000000E+00  0.00000000000E+00  0.90863065609E+02  0.90863065609E+02  0.00000000000E+00 0. -1.
         21   -1    0    0  502  503 -0.00000000000E+00 -0.00000000000E+00 -0.10329108069E+02  0.10329108069E+02  0.00000000000E+00 0. -1.
          4    1    1    2  501    0 -0.14410731429E+02 -0.26309629812E+02  0.29996961371E+02  0.42422676633E+02  0.00000000000E+00 0. -1.
         -4    1    1    2    0  503  0.14410731429E+02  0.26309629812E+02  0.50536996169E+02  0.58769497046E+02  0.00000000000E+00 0.  1.
<mgrwt>
<rscale>  2 0.29997763E+02</rscale>
<asrwt>0</asrwt>
<pdfrwt beam="1">  1       21 0.13978933E-01 0.29997763E+02</pdfrwt>
<pdfrwt beam="2">  1       21 0.15890936E-02 0.29997763E+02</pdfrwt>
<totfact> 0.60329659E+07</totfact>
</mgrwt>
</event>
<event>
 4    1  0.3862688E+004  0.2009114E+02  0.7546771E-02  0.1743522E+00
         21   -1    0    0  501  502  0.00000000000E+00  0.00000000000E+00  0.15016478598E+02  0.15016478598E+02  0.00000000000E+00 0. -1.
         21   -1    0    0  502  503 -0.00000000000E+00 -0.00000000000E+00 -0.27907217414E+02  0.27907217414E+02  0.00000000000E+00 0. -1.
          5    1    1    2  501    0  0.17695709811E+02  0.95139790061E+01 -0.10561462245E+02  0.22697982884E+02  0.00000000000E+00 0.  1.
         -5    1    1    2    0  503 -0.17695709811E+02 -0.95139790061E+01 -0.23292765714E+01  0.20225713129E+02  0.00000000000E+00 0. -1.
<mgrwt>
<rscale>  2 0.20091141E+02</rscale>
<asrwt>0</asrwt>
<pdfrwt beam="1">  1       21 0.23102275E-02 0.20091141E+02</pdfrwt>
<pdfrwt beam="2">  1       21 0.42934180E-02 0.20091141E+02</pdfrwt>
<totfact> 0.20942803E+08</totfact>
</mgrwt>
</event>
<event>
 4    1  0.3862688E+004  0.2550015E+02  0.7546771E-02  0.1653920E+00
         21   -1    0    0  503  502  0.00000000000E+00  0.00000000000E+00  0.46827453499E+02  0.46827453499E+02  0.00000000000E+00 0.  1.
         21   -1    0    0  501  503 -0.00000000000E+00 -0.00000000000E+00 -0.15989152953E+02  0.15989152953E+02  0.00000000000E+00 0.  1.
          4    1    1    2  501    0  0.44719111002E+01  0.25104975760E+02  0.40286917718E+01  0.25816431864E+02  0.00000000000E+00 0.  1.
         -4    1    1    2    0  502 -0.44719111002E+01 -0.25104975760E+02  0.26809608775E+02  0.37000174587E+02  0.00000000000E+00 0. -1.
<mgrwt>
<rscale>  2 0.25500153E+02</rscale>
<asrwt>0</asrwt>
<pdfrwt beam="1">  1       21 0.72042235E-02 0.25500153E+02</pdfrwt>
<pdfrwt beam="2">  1       21 0.24598697E-02 0.25500153E+02</pdfrwt>
<totfact> 0.89200095E+07</totfact>
</mgrwt>
</event>
<event>
 4    1  0.3862688E+004  0.2023394E+02  0.7546771E-02  0.1740715E+00
         21   -1    0    0  503  502  0.00000000000E+00  0.00000000000E+00  0.28838769460E+03  0.28838769460E+03  0.00000000000E+00 0. -1.
         21   -1    0    0  501  503 -0.00000000000E+00 -0.00000000000E+00 -0.23351919053E+01  0.23351919053E+01  0.00000000000E+00 0. -1.
          5    1    1    2  501    0 -0.60300093182E+01  0.19314539723E+02  0.52008794999E+02  0.55806157494E+02  0.00000000000E+00 0. -1.
         -5    1    1    2    0  502  0.60300093182E+01 -0.19314539723E+02  0.23404370769E+03  0.23491672901E+03  0.00000000000E+00 0.  1.
<mgrwt>
<rscale>  2 0.20233943E+02</rscale>
<asrwt>0</asrwt>
<pdfrwt beam="1">  1       21 0.44367309E-01 0.20233943E+02</pdfrwt>
<pdfrwt beam="2">  1       21 0.35926052E-03 0.20233943E+02</pdfrwt>
<totfact> 0.63718631E+07</totfact>
</mgrwt>
</event>
<event>
 4    1  0.3862688E+004  0.2112366E+02  0.7546771E-02  0.1723864E+00
         21   -1    0    0  503  502  0.00000000000E+00  0.00000000000E+00  0.21527465444E+03  0.21527465444E+03  0.00000000000E+00 0. -1.
         21   -1    0    0  501  503 -0.00000000000E+00 -0.00000000000E+00 -0.22949141995E+01  0.22949141995E+01  0.00000000000E+00 0. -1.
          4    1    1    2  501    0  0.31943919149E+01 -0.20880730590E+02  0.72642203638E+02  0.75651165219E+02  0.00000000000E+00 0. -1.
         -4    1    1    2    0  502 -0.31943919149E+01  0.20880730590E+02  0.14033753661E+03  0.14191840343E+03  0.00000000000E+00 0.  1.
<mgrwt>
<rscale>  2 0.21123661E+02</rscale>
<asrwt>0</asrwt>
<pdfrwt beam="1">  1       21 0.33119162E-01 0.21123661E+02</pdfrwt>
<pdfrwt beam="2">  1       21 0.35306389E-03 0.21123661E+02</pdfrwt>
<totfact> 0.11407413E+08</totfact>
</mgrwt>
</event>
<event>
 4    1  0.3862688E+004  0.4465444E+02  0.7546771E-02  0.1476510E+00
         21   -1    0    0  503  502  0.00000000000E+00  0.00000000000E+00  0.70441866643E+02  0.70441866643E+02  0.00000000000E+00 0. -1.
         21   -1    0    0  501  503 -0.00000000000E+00 -0.00000000000E+00 -0.28354036901E+02  0.28354036901E+02  0.00000000000E+00 0. -1.
          5    1    1    2  501    0  0.13983303496E+02 -0.42408567310E+02  0.19038467612E+02  0.48543615512E+02  0.00000000000E+00 0.  1.
         -5    1    1    2    0  502 -0.13983303496E+02  0.42408567310E+02  0.23049362129E+02  0.50252288033E+02  0.00000000000E+00 0. -1.
<mgrwt>
<rscale>  2 0.44654444E+02</rscale>
<asrwt>0</asrwt>
<pdfrwt beam="1">  1       21 0.10837210E-01 0.44654444E+02</pdfrwt>
<pdfrwt beam="2">  1       21 0.43621595E-02 0.44654444E+02</pdfrwt>
<totfact> 0.20438949E+07</totfact>
</mgrwt>
</event>
<event>
 4    1  0.3862688E+004  0.2277444E+02  0.7546771E-02  0.1695193E+00
         21   -1    0    0  503  502  0.00000000000E+00  0.00000000000E+00  0.37782101619E+03  0.37782101619E+03  0.00000000000E+00 0.  1.
         21   -1    0    0  501  503 -0.00000000000E+00 -0.00000000000E+00 -0.22273428819E+01  0.22273428819E+01  0.00000000000E+00 0.  1.
          1    1    1    2  501    0 -0.57657005129E+01  0.22032515463E+02  0.70095694421E+02  0.73702655424E+02  0.00000000000E+00 0. -1.
         -1    1    1    2    0  502  0.57657005129E+01 -0.22032515463E+02  0.30549797889E+03  0.30634570365E+03  0.00000000000E+00 0.  1.
<mgrwt>
<rscale>  2 0.22774438E+02</rscale>
<asrwt>0</asrwt>
<pdfrwt beam="1">  1       21 0.58126260E-01 0.22774438E+02</pdfrwt>
<pdfrwt beam="2">  1       21 0.34266843E-03 0.22774438E+02</pdfrwt>
<totfact> 0.41571838E+07</totfact>
</mgrwt>
</event>
<event>
 4    1  0.3862688E+004  0.2194928E+02  0.7546771E-02  0.1709131E+00
         21   -1    0    0  501  502  0.00000000000E+00  0.00000000000E+00  0.18534908458E+01  0.18534908458E+01  0.00000000000E+00 0.  1.
         21   -1    0    0  502  503 -0.00000000000E+00 -0.00000000000E+00 -0.26018925964E+03  0.26018925964E+03  0.00000000000E+00 0.  1.
          4    1    1    2  501    0 -0.21582261337E+02  0.39970988027E+01 -0.13333405947E+03  0.13512861362E+03  0.00000000000E+00 0.  1.
         -4    1    1    2    0  503  0.21582261337E+02 -0.39970988027E+01 -0.12500170932E+03  0.12691413687E+03  0.00000000000E+00 0. -1.
<mgrwt>
<rscale>  2 0.21949278E+02</rscale>
<asrwt>0</asrwt>
<pdfrwt beam="1">  1       21 0.28515238E-03 0.21949278E+02</pdfrwt>
<pdfrwt beam="2">  1       21 0.40029126E-01 0.21949278E+02</pdfrwt>
<totfact> 0.11068275E+08</totfact>
</mgrwt>
</event>
<event>
 4    1  0.3862688E+004  0.2406835E+02  0.7546771E-02  0.1674756E+00
         21   -1    0    0  501  502  0.00000000000E+00  0.00000000000E+00  0.25216070081E+01  0.25216070081E+01  0.00000000000E+00 0. -1.
         21   -1    0    0  502  503 -0.00000000000E+00 -0.00000000000E+00 -0.25507877129E+03  0.25507877129E+03  0.00000000000E+00 0. -1.
          3    1    1    2  501    0 -0.19343588906E+02  0.14321690612E+02 -0.16688267115E+03  0.16860934489E+03  0.00000000000E+00 0. -1.
         -3    1    1    2    0  503  0.19343588906E+02 -0.14321690612E+02 -0.85674493123E+02  0.88991033400E+02  0.00000000000E+00 0.  1.
<mgrwt>
<rscale>  2 0.24068345E+02</rscale>
<asrwt>0</asrwt>
<pdfrwt beam="1">  1       21 0.38793944E-03 0.24068345E+02</pdfrwt>
<pdfrwt beam="2">  1       21 0.39242898E-01 0.24068345E+02</pdfrwt>
<totfact> 0.75072810E+07</totfact>
</mgrwt>
</event>
<event>
 4    1  0.3862688E+004  0.2134705E+02  0.7546771E-02  0.1719795E+00
         21   -1    0    0  501  502  0.00000000000E+00  0.00000000000E+00  0.73441214129E+01  0.73441214129E+01  0.00000000000E+00 0. -1.
         21   -1    0    0  502  503 -0.00000000000E+00 -0.00000000000E+00 -0.66356273443E+02  0.66356273443E+02  0.00000000000E+00 0. -1.
          3    1    1    2  501    0  0.12149842125E+02  0.17552150873E+02 -0.38894469824E+02  0.44367515671E+02  0.00000000000E+00 0. -1.
         -3    1    1    2    0  503 -0.12149842125E+02 -0.17552150873E+02 -0.20117682206E+02  0.29332879185E+02  0.00000000000E+00 0.  1.
<mgrwt>
<rscale>  2 0.21347053E+02</rscale>
<asrwt>0</asrwt>
<pdfrwt beam="1">  1       21 0.11298648E-02 0.21347053E+02</pdfrwt>
<pdfrwt beam="2">  1       21 0.10208657E-01 0.21347053E+02</pdfrwt>
<totfact> 0.15693591E+08</totfact>
</mgrwt>
</event>
<event>
 4    1  0.3862688E+004  0.2964860E+02  0.7546771E-02  0.1602006E+00
         21   -1    0    0  503  502  0.00000000000E+00  0.00000000000E+00  0.18979634343E+03  0.18979634343E+03  0.00000000000E+00 0. -1.
         21   -1    0    0  501  503 -0.00000000000E+00 -0.00000000000E+00 -0.60089467581E+01  0.60089467581E+01  0.00000000000E+00 0. -1.
          5    1    1    2  501    0 -0.29576434423E+02  0.20674291663E+01  0.45019447181E+02  0.53905383415E+02  0.00000000000E+00 0. -1.
         -5    1    1    2    0  502  0.29576434423E+02 -0.20674291663E+01  0.13876794949E+03  0.14189990678E+03  0.00000000000E+00 0.  1.
<mgrwt>
<rscale>  2 0.29648604E+02</rscale>
<asrwt>0</asrwt>
<pdfrwt beam="1">  1       21 0.29199433E-01 0.29648604E+02</pdfrwt>
<pdfrwt beam="2">  1       21 0.92445349E-03 0.29648604E+02</pdfrwt>
<totfact> 0.37375377E+07</totfact>
</mgrwt>
</event>
<event>
 4    1  0.3862688E+004  0.4942417E+02  0.7546771E-02  0.1448472E+00
         21   -1    0    0  501  502  0.00000000000E+00  0.00000000000E+00  0.19721973127E+02  0.19721973127E+02  0.00000000000E+00 0.  1.
         21   -1    0    0  502  503 -0.00000000000E+00 -0.00000000000E+00 -0.18313364782E+03  0.18313364782E+03  0.00000000000E+00 0.  1.
          2    1    1    2  501    0 -0.31033282406E+02  0.38466661142E+02 -0.13940992556E+03  0.14791171685E+03  0.00000000000E+00 0. -1.
         -2    1    1    2    0  503  0.31033282406E+02 -0.38466661142E+02 -0.24001749137E+02  0.54943904102E+02  0.00000000000E+00 0.  1.
<mgrwt>
<rscale>  2 0.49424171E+02</rscale>
<asrwt>0</asrwt>
<pdfrwt beam="1">  1       21 0.30341497E-02 0.49424171E+02</pdfrwt>
<pdfrwt beam="2">  1       21 0.28174407E-01 0.49424171E+02</pdfrwt>
<totfact> 0.68104048E+06</totfact>
</mgrwt>
</event>
<event>
 4    1  0.3862688E+004  0.2141241E+02  0.7546771E-02  0.1718617E+00
         21   -1    0    0  501  502  0.00000000000E+00  0.00000000000E+00  0.44535777044E+01  0.44535777044E+01  0.00000000000E+00 0. -1.
         21   -1    0    0  502  503 -0.00000000000E+00 -0.00000000000E+00 -0.10385099040E+03  0.10385099040E+03  0.00000000000E+00 0. -1.
          2    1    1    2  501    0 -0.23059488002E+01 -0.21287881558E+02 -0.54745507574E+02  0.58784027598E+02  0.00000000000E+00 0.  1.
         -2    1    1    2    0  503  0.23059488002E+01  0.21287881558E+02 -0.44651905126E+02  0.49520540511E+02  0.00000000000E+00 0. -1.
<mgrwt>
<rscale>  2 0.21412410E+02</rscale>
<asrwt>0</asrwt>
<pdfrwt beam="1">  1       21 0.68516581E-03 0.21412410E+02</pdfrwt>
<pdfrwt beam="2">  1       21 0.15977075E-01 0.21412410E+02</pdfrwt>
<totfact> 0.15636068E+08</totfact>
</mgrwt>
</event>
<event>
 4    1  0.3862688E+004  0.2403855E+02  0.7546771E-02  0.1675208E+00
         21   -1    0    0  503  502  0.00000000000E+00  0.00000000000E+00  0.17766164074E+02  0.17766164074E+02  0.00000000000E+00 0.  1.
         21   -1    0    0  501  503 -0.00000000000E+00 -0.00000000000E+00 -0.34670047410E+02  0.34670047410E+02  0.00000000000E+00 0.  1.
          2    1    1    2  501    0  0.16271586574E+02 -0.17694269014E+02 -0.14972751219E+02  0.28320221833E+02  0.00000000000E+00 0.  1.
         -2    1    1    2    0  502 -0.16271586574E+02  0.17694269014E+02 -0.19311321167E+01  0.24115989651E+02  0.00000000000E+00 0. -1.
<mgrwt>
<rscale>  2 0.24038546E+02</rscale>
<asrwt>0</asrwt>
<pdfrwt beam="1">  1       21 0.27332560E-02 0.24038546E+02</pdfrwt>
<pdfrwt beam="2">  1       21 0.53338534E-02 0.24038546E+02</pdfrwt>
<totfact> 0.12106175E+08</totfact>
</mgrwt>
</event>
<event>
 4    1  0.3862688E+004  0.2748110E+02  0.7546771E-02  0.1627726E+00
         21   -1    0    0  501  502  0.00000000000E+00  0.00000000000E+00  0.15548821619E+03  0.15548821619E+03  0.00000000000E+00 0.  1.
         21   -1    0    0  502  503 -0.00000000000E+00 -0.00000000000E+00 -0.51048769615E+01  0.51048769615E+01  0.00000000000E+00 0.  1.
          2    1    1    2  501    0 -0.18211304788E+02  0.20580553098E+02  0.57498858875E+02  0.63728561571E+02  0.00000000000E+00 0. -1.
         -2    1    1    2    0  503  0.18211304788E+02 -0.20580553098E+02  0.92884480357E+02  0.96864531584E+02  0.00000000000E+00 0.  1.
<mgrwt>
<rscale>  2 0.27481099E+02</rscale>
<asrwt>0</asrwt>
<pdfrwt beam="1">  1       21 0.23921260E-01 0.27481099E+02</pdfrwt>
<pdfrwt beam="2">  1       21 0.78536580E-03 0.27481099E+02</pdfrwt>
<totfact> 0.67403997E+07</totfact>
</mgrwt>
</event>
<event>
 4    1  0.3862688E+004  0.2112951E+02  0.7546771E-02  0.1723757E+00
         21   -1    0    0  501  502  0.00000000000E+00  0.00000000000E+00  0.20629470218E+03  0.20629470218E+03  0.00000000000E+00 0.  1.
         21   -1    0    0  502  503 -0.00000000000E+00 -0.00000000000E+00 -0.31423642420E+01  0.31423642420E+01  0.00000000000E+00 0.  1.
          2    1    1    2  501    0  0.14863743035E+02 -0.15017499525E+02  0.43149847222E+02  0.48045452066E+02  0.00000000000E+00 0.  1.
         -2    1    1    2    0  503 -0.14863743035E+02  0.15017499525E+02  0.16000249072E+03  0.16139161436E+03  0.00000000000E+00 0. -1.
<mgrwt>
<rscale>  2 0.21129509E+02</rscale>
<asrwt>0</asrwt>
<pdfrwt beam="1">  1       21 0.31737636E-01 0.21129509E+02</pdfrwt>
<pdfrwt beam="2">  1       21 0.48344082E-03 0.21129509E+02</pdfrwt>
<totfact> 0.77850264E+07</totfact>
</mgrwt>
</event>
<event>
 4    1  0.3862688E+004  0.2061372E+02  0.7546771E-02  0.1733392E+00
         21   -1    0    0  503  502  0.00000000000E+00  0.00000000000E+00  0.52682924131E+02  0.52682924131E+02  0.00000000000E+00 0. -1.
         21   -1    0    0  501  503 -0.00000000000E+00 -0.00000000000E+00 -0.16524636691E+02  0.16524636691E+02  0.00000000000E+00 0. -1.
          5    1    1    2  501    0 -0.74961660236E+01  0.19202418149E+02 -0.66788318704E+01  0.21668690846E+02  0.00000000000E+00 0.  1.
         -5    1    1    2    0  502  0.74961660236E+01 -0.19202418149E+02  0.42837119310E+02  0.47538869976E+02  0.00000000000E+00 0. -1.
<mgrwt>
<rscale>  2 0.20613718E+02</rscale>
<asrwt>0</asrwt>
<pdfrwt beam="1">  1       21 0.81050652E-02 0.20613718E+02</pdfrwt>
<pdfrwt beam="2">  1       21 0.25422518E-02 0.20613718E+02</pdfrwt>
<totfact> 0.66025919E+07</totfact>
</mgrwt>
</event>
<event>
 4    1  0.3862688E+004  0.2063356E+02  0.7546771E-02  0.1733015E+00
         21   -1    0    0  501  502  0.00000000000E+00  0.00000000000E+00  0.20309959210E+01  0.20309959210E+01  0.00000000000E+00 0.  1.
         21   -1    0    0  502  503 -0.00000000000E+00 -0.00000000000E+00 -0.26478575258E+03  0.26478575258E+03  0.00000000000E+00 0.  1.
          5    1    1    2  501    0  0.55267718134E+01  0.19879602686E+02 -0.70485682673E+02  0.73443687758E+02  0.00000000000E+00 0.  1.
         -5    1    1    2    0  503 -0.55267718134E+01 -0.19879602686E+02 -0.19226907399E+03  0.19337306074E+03  0.00000000000E+00 0. -1.
<mgrwt>
<rscale>  2 0.20633560E+02</rscale>
<asrwt>0</asrwt>
<pdfrwt beam="1">  1       21 0.31246099E-03 0.20633560E+02</pdfrwt>
<pdfrwt beam="2">  1       21 0.40736259E-01 0.20633560E+02</pdfrwt>
<totfact> 0.92212112E+07</totfact>
</mgrwt>
</event>
<event>
 4    1  0.3862688E+004  0.2115414E+02  0.7546771E-02  0.1723305E+00
         21   -1    0    0  501  502  0.00000000000E+00  0.00000000000E+00  0.43354876823E+03  0.43354876823E+03  0.00000000000E+00 0. -1.
         21   -1    0    0  502  503 -0.00000000000E+00 -0.00000000000E+00 -0.10530430027E+01  0.10530430027E+01  0.00000000000E+00 0. -1.
          4    1    1    2  501    0  0.18414384500E+02  0.10411918933E+02  0.18565690839E+03  0.18685819555E+03  0.00000000000E+00 0.  1.
         -4    1    1    2    0  503 -0.18414384500E+02 -0.10411918933E+02  0.24683881683E+03  0.24774361568E+03  0.00000000000E+00 0. -1.
<mgrwt>
<rscale>  2 0.21154139E+02</rscale>
<asrwt>0</asrwt>
<pdfrwt beam="1">  1       21 0.66699668E-01 0.21154139E+02</pdfrwt>
<pdfrwt beam="2">  1       21 0.16200696E-03 0.21154139E+02</pdfrwt>
<totfact> 0.91589009E+07</totfact>
</mgrwt>
</event>
<event>
 4    1  0.3862688E+004  0.4243431E+02  0.7546771E-02  0.1491025E+00
         21   -1    0    0  501  502  0.00000000000E+00  0.00000000000E+00  0.16877670991E+03  0.16877670991E+03  0.00000000000E+00 0. -1.
         21   -1    0    0  502  503 -0.00000000000E+00 -0.00000000000E+00 -0.12109084143E+02  0.12109084143E+02  0.00000000000E+00 0. -1.
          4    1    1    2  501    0  0.31684744003E+02 -0.28226715251E+02  0.47143471253E+02  0.63428521488E+02  0.00000000000E+00 0.  1.
         -4    1    1    2    0  503 -0.31684744003E+02  0.28226715251E+02  0.10952415451E+03  0.11745727256E+03  0.00000000000E+00 0. -1.
<mgrwt>
<rscale>  2 0.42434308E+02</rscale>
<asrwt>0</asrwt>
<pdfrwt beam="1">  1       21 0.25965646E-01 0.42434308E+02</pdfrwt>
<pdfrwt beam="2">  1       21 0.18629361E-02 0.42434308E+02</pdfrwt>
<totfact> 0.16799292E+07</totfact>
</mgrwt>
</event>
<event>
 4    1  0.3862688E+004  0.3385025E+02  0.7546771E-02  0.1559054E+00
         21   -1    0    0  501  502  0.00000000000E+00  0.00000000000E+00  0.74940053218E+01  0.74940053218E+01  0.00000000000E+00 0.  1.
         21   -1    0    0  502  503 -0.00000000000E+00 -0.00000000000E+00 -0.21573350966E+03  0.21573350966E+03  0.00000000000E+00 0.  1.
          5    1    1    2  501    0 -0.29412687288E+02 -0.16755105567E+02 -0.43884370266E+02  0.55422718173E+02  0.00000000000E+00 0.  1.
         -5    1    1    2    0  503  0.29412687288E+02  0.16755105567E+02 -0.16435513407E+03  0.16780479681E+03  0.00000000000E+00 0. -1.
<mgrwt>
<rscale>  2 0.33850255E+02</rscale>
<asrwt>0</asrwt>
<pdfrwt beam="1">  1       21 0.11529240E-02 0.33850255E+02</pdfrwt>
<pdfrwt beam="2">  1       21 0.33189768E-01 0.33850255E+02</pdfrwt>
<totfact> 0.21600067E+07</totfact>
</mgrwt>
</event>
<event>
 4    1  0.3862688E+004  0.2018758E+02  0.7546771E-02  0.1741623E+00
         21   -1    0    0  501  502  0.00000000000E+00  0.00000000000E+00  0.21474753157E+01  0.21474753157E+01  0.00000000000E+00 0.  1.
         21   -1    0    0  502  503 -0.00000000000E+00 -0.00000000000E+00 -0.22513801847E+03  0.22513801847E+03  0.00000000000E+00 0.  1.
          5    1    1    2  501    0 -0.28343733655E+01  0.19987612684E+02 -0.15653424892E+03  0.15783063524E+03  0.00000000000E+00 0.  1.
         -5    1    1    2    0  503  0.28343733655E+01 -0.19987612684E+02 -0.66456294229E+02  0.69454858547E+02  0.00000000000E+00 0. -1.
<mgrwt>
<rscale>  2 0.20187579E+02</rscale>
<asrwt>0</asrwt>
<pdfrwt beam="1">  1       21 0.33038081E-03 0.20187579E+02</pdfrwt>
<pdfrwt beam="2">  1       21 0.34636619E-01 0.20187579E+02</pdfrwt>
<totfact> 0.11426380E+08</totfact>
</mgrwt>
</event>
<event>
 4    1  0.3862688E+004  0.2150085E+02  0.7546771E-02  0.1717030E+00
         21   -1    0    0  503  502  0.00000000000E+00  0.00000000000E+00  0.10985310746E+04  0.10985310746E+04  0.00000000000E+00 0. -1.
         21   -1    0    0  501  503 -0.00000000000E+00 -0.00000000000E+00 -0.46390446244E+00  0.46390446244E+00  0.00000000000E+00 0. -1.
          3    1    1    2  501    0  0.12871459841E+02  0.17222423641E+02  0.71648941478E+03  0.71681194734E+03  0.00000000000E+00 0.  1.
         -3    1    1    2    0  502 -0.12871459841E+02 -0.17222423641E+02  0.38157775538E+03  0.38218303175E+03  0.00000000000E+00 0. -1.
<mgrwt>
<rscale>  2 0.21500845E+02</rscale>
<asrwt>0</asrwt>
<pdfrwt beam="1">  1       21 0.16900270E+00 0.21500845E+02</pdfrwt>
<pdfrwt beam="2">  1       21 0.71370797E-04 0.21500845E+02</pdfrwt>
<totfact> 0.37800318E+07</totfact>
</mgrwt>
</event>
<event>
 4    1  0.3862688E+004  0.2106564E+02  0.7546771E-02  0.1724931E+00
         21   -1    0    0  501  502  0.00000000000E+00  0.00000000000E+00  0.88572035342E+02  0.88572035342E+02  0.00000000000E+00 0.  1.
         21   -1    0    0  502  503 -0.00000000000E+00 -0.00000000000E+00 -0.77415442337E+01  0.77415442337E+01  0.00000000000E+00 0.  1.
          5    1    1    2  501    0  0.15479574975E+02  0.14287888731E+02  0.11810750447E+02  0.24150669388E+02  0.00000000000E+00 0. -1.
         -5    1    1    2    0  503 -0.15479574975E+02 -0.14287888731E+02  0.69019740662E+02  0.72162910188E+02  0.00000000000E+00 0.  1.
<mgrwt>
<rscale>  2 0.21065636E+02</rscale>
<asrwt>0</asrwt>
<pdfrwt beam="1">  1       21 0.13626466E-01 0.21065636E+02</pdfrwt>
<pdfrwt beam="2">  1       21 0.11910069E-02 0.21065636E+02</pdfrwt>
<totfact> 0.89238263E+07</totfact>
</mgrwt>
</event>
<event>
 4    1  0.3862688E+004  0.3021595E+02  0.7546771E-02  0.1595714E+00
         21   -1    0    0  501  502  0.00000000000E+00  0.00000000000E+00  0.13438498924E+03  0.13438498924E+03  0.00000000000E+00 0. -1.
         21   -1    0    0  502  503 -0.00000000000E+00 -0.00000000000E+00 -0.68088773725E+01  0.68088773725E+01  0.00000000000E+00 0. -1.
          1    1    1    2  501    0 -0.18282536413E+02  0.24057272564E+02  0.60481385552E+02  0.67609182063E+02  0.00000000000E+00 0.  1.
         -1    1    1    2    0  503  0.18282536413E+02 -0.24057272564E+02  0.67094726316E+02  0.73584684550E+02  0.00000000000E+00 0. -1.
<mgrwt>
<rscale>  2 0.30215948E+02</rscale>
<asrwt>0</asrwt>
<pdfrwt beam="1">  1       21 0.20674612E-01 0.30215948E+02</pdfrwt>
<pdfrwt beam="2">  1       21 0.10475197E-02 0.30215948E+02</pdfrwt>
<totfact> 0.57803657E+07</totfact>
</mgrwt>
</event>
<event>
 4    1  0.3862688E+004  0.3674716E+02  0.7546771E-02  0.1533611E+00
         21   -1    0    0  503  502  0.00000000000E+00  0.00000000000E+00  0.39823124013E+03  0.39823124013E+03  0.00000000000E+00 0.  1.
         21   -1    0    0  501  503 -0.00000000000E+00 -0.00000000000E+00 -0.33969783781E+01  0.33969783781E+01  0.00000000000E+00 0.  1.
          3    1    1    2  501    0 -0.33697179710E+02  0.14657904279E+02  0.20592614188E+03  0.20917918154E+03  0.00000000000E+00 0. -1.
         -3    1    1    2    0  502  0.33697179710E+02 -0.14657904279E+02  0.18890811987E+03  0.19244903697E+03  0.00000000000E+00 0.  1.
<mgrwt>
<rscale>  2 0.36747164E+02</rscale>
<asrwt>0</asrwt>
<pdfrwt beam="1">  1       21 0.61266308E-01 0.36747164E+02</pdfrwt>
<pdfrwt beam="2">  1       21 0.52261237E-03 0.36747164E+02</pdfrwt>
<totfact> 0.21902314E+07</totfact>
</mgrwt>
</event>
<event>
 4    1  0.3862688E+004  0.2003202E+02  0.7546771E-02  0.1744692E+00
         21   -1    0    0  503  502  0.00000000000E+00  0.00000000000E+00  0.37675573701E+03  0.37675573701E+03  0.00000000000E+00 0.  1.
         21   -1    0    0  501  503 -0.00000000000E+00 -0.00000000000E+00 -0.11656409166E+01  0.11656409166E+01  0.00000000000E+00 0.  1.
          1    1    1    2  501    0  0.20027057659E+02  0.44588627498E+00  0.24329139597E+03  0.24411469682E+03  0.00000000000E+00 0.  1.
         -1    1    1    2    0  502 -0.20027057659E+02 -0.44588627498E+00  0.13229870013E+03  0.13380668111E+03  0.00000000000E+00 0. -1.
<mgrwt>
<rscale>  2 0.20032021E+02</rscale>
<asrwt>0</asrwt>
<pdfrwt beam="1">  1       21 0.57962324E-01 0.20032021E+02</pdfrwt>
<pdfrwt beam="2">  1       21 0.17932967E-03 0.20032021E+02</pdfrwt>
<totfact> 0.10334579E+08</totfact>
</mgrwt>
</event>
<event>
 4    1  0.3862688E+004  0.2167730E+02  0.7546771E-02  0.1713893E+00
         21   -1    0    0  501  502  0.00000000000E+00  0.00000000000E+00  0.19549171803E+02  0.19549171803E+02  0.00000000000E+00 0.  1.
         21   -1    0    0  502  503 -0.00000000000E+00 -0.00000000000E+00 -0.58753687791E+02  0.58753687791E+02  0.00000000000E+00 0.  1.
          3    1    1    2  501    0  0.15383875733E+02 -0.15272245757E+02  0.10493041229E+02  0.24083376783E+02  0.00000000000E+00 0. -1.
         -3    1    1    2    0  503 -0.15383875733E+02  0.15272245757E+02 -0.49697557216E+02  0.54219482811E+02  0.00000000000E+00 0.  1.
<mgrwt>
<rscale>  2 0.21677295E+02</rscale>
<asrwt>0</asrwt>
<pdfrwt beam="1">  1       21 0.30075649E-02 0.21677295E+02</pdfrwt>
<pdfrwt beam="2">  1       21 0.90390290E-02 0.21677295E+02</pdfrwt>
<totfact> 0.43179823E+07</totfact>
</mgrwt>
</event>
<event>
 4    1  0.3862688E+004  0.3447389E+02  0.7546771E-02  0.1553323E+00
         21   -1    0    0  501  502  0.00000000000E+00  0.00000000000E+00  0.10818484640E+02  0.10818484640E+02  0.00000000000E+00 0. -1.
         21   -1    0    0  502  503 -0.00000000000E+00 -0.00000000000E+00 -0.13747401677E+03  0.13747401677E+03  0.00000000000E+00 0. -1.
          2    1    1    2  501    0 -0.34218857076E+02 -0.41855469477E+01 -0.96562664990E+02  0.10253193284E+03  0.00000000000E+00 0. -1.
         -2    1    1    2    0  503  0.34218857076E+02  0.41855469477E+01 -0.30092867146E+02  0.45760568570E+02  0.00000000000E+00 0.  1.
<mgrwt>
<rscale>  2 0.34473888E+02</rscale>
<asrwt>0</asrwt>
<pdfrwt beam="1">  1       21 0.16643823E-02 0.34473888E+02</pdfrwt>
<pdfrwt beam="2">  1       21 0.21149848E-01 0.34473888E+02</pdfrwt>
<totfact> 0.28040402E+07</totfact>
</mgrwt>
</event>
<event>
 4    1  0.3862688E+004  0.2604368E+02  0.7546771E-02  0.1646448E+00
         21   -1    0    0  501  502  0.00000000000E+00  0.00000000000E+00  0.10360651349E+03  0.10360651349E+03  0.00000000000E+00 0.  1.
         21   -1    0    0  502  503 -0.00000000000E+00 -0.00000000000E+00 -0.11035347414E+02  0.11035347414E+02  0.00000000000E+00 0.  1.
          4    1    1    2  501    0  0.19019430801E+01 -0.25974140976E+02  0.82843497821E+02  0.86840765301E+02  0.00000000000E+00 0.  1.
         -4    1    1    2    0  503 -0.19019430801E+01  0.25974140976E+02  0.97276682524E+01  0.27801095600E+02  0.00000000000E+00 0. -1.
<mgrwt>
<rscale>  2 0.26043682E+02</rscale>
<asrwt>0</asrwt>
<pdfrwt beam="1">  1       21 0.15939463E-01 0.26043682E+02</pdfrwt>
<pdfrwt beam="2">  1       21 0.16977458E-02 0.26043682E+02</pdfrwt>
<totfact> 0.42132167E+07</totfact>
</mgrwt>
</event>
<event>
 4    1  0.3862688E+004  0.2057288E+02  0.7546771E-02  0.1734170E+00
         21   -1    0    0  503  502  0.00000000000E+00  0.00000000000E+00  0.19445687724E+01  0.19445687724E+01  0.00000000000E+00 0.  1.
         21   -1    0    0  501  503 -0.00000000000E+00 -0.00000000000E+00 -0.21932470735E+03  0.21932470735E+03  0.00000000000E+00 0.  1.
          4    1    1    2  501    0  0.12010038868E+02  0.16703369571E+02 -0.99034682987E+02  0.10114895957E+03  0.00000000000E+00 0.  1.
         -4    1    1    2    0  502 -0.12010038868E+02 -0.16703369571E+02 -0.11834545559E+03  0.12012031655E+03  0.00000000000E+00 0. -1.
<mgrwt>
<rscale>  2 0.20572885E+02</rscale>
<asrwt>0</asrwt>
<pdfrwt beam="1">  1       21 0.29916457E-03 0.20572885E+02</pdfrwt>
<pdfrwt beam="2">  1       21 0.33742246E-01 0.20572885E+02</pdfrwt>
<totfact> 0.13923690E+08</totfact>
</mgrwt>
</event>
<event>
 4    1  0.3862688E+004  0.3271923E+02  0.7546771E-02  0.1569840E+00
         21   -1    0    0  501  502  0.00000000000E+00  0.00000000000E+00  0.22556260200E+02  0.22556260200E+02  0.00000000000E+00 0. -1.
         21   -1    0    0  502  503 -0.00000000000E+00 -0.00000000000E+00 -0.49796889708E+02  0.49796889708E+02  0.00000000000E+00 0. -1.
          5    1    1    2  501    0  0.32005234520E+02 -0.67980254671E+01 -0.21455147822E+02  0.39126353714E+02  0.00000000000E+00 0.  1.
         -5    1    1    2    0  503 -0.32005234520E+02  0.67980254671E+01 -0.57854816864E+01  0.33226796193E+02  0.00000000000E+00 0. -1.
<mgrwt>
<rscale>  2 0.32719233E+02</rscale>
<asrwt>0</asrwt>
<pdfrwt beam="1">  1       21 0.34701939E-02 0.32719233E+02</pdfrwt>
<pdfrwt beam="2">  1       21 0.76610598E-02 0.32719233E+02</pdfrwt>
<totfact> 0.49868622E+07</totfact>
</mgrwt>
</event>
<event>
 4    1  0.3862688E+004  0.2041866E+02  0.7546771E-02  0.1737128E+00
         21   -1    0    0  501  502  0.00000000000E+00  0.00000000000E+00  0.10594742284E+03  0.10594742284E+03  0.00000000000E+00 0. -1.
         21   -1    0    0  502  503 -0.00000000000E+00 -0.00000000000E+00 -0.39392601099E+01  0.39392601099E+01  0.00000000000E+00 0. -1.
          4    1    1    2  501    0 -0.95892745665E+01  0.18026853502E+02  0.52773446732E+02  0.56585849060E+02  0.00000000000E+00 0.  1.
         -4    1    1    2    0  503  0.95892745665E+01 -0.18026853502E+02  0.49234715999E+02  0.53300833891E+02  0.00000000000E+00 0. -1.
<mgrwt>
<rscale>  2 0.20418659E+02</rscale>
<asrwt>0</asrwt>
<pdfrwt beam="1">  1       21 0.16299601E-01 0.20418659E+02</pdfrwt>
<pdfrwt beam="2">  1       21 0.60604010E-03 0.20418659E+02</pdfrwt>
<totfact> 0.17859944E+08</totfact>
</mgrwt>
</event>
<event>
 4    1  0.3862688E+004  0.2103118E+02  0.7546771E-02  0.1725567E+00
         21   -1    0    0  503  502  0.00000000000E+00  0.00000000000E+00  0.37851774364E+01  0.37851774364E+01  0.00000000000E+00 0. -1.
         21   -1    0    0  501  503 -0.00000000000E+00 -0.00000000000E+00 -0.13107208443E+03  0.13107208443E+03  0.00000000000E+00 0. -1.
          5    1    1    2  501    0  0.82579860222E+01  0.19342088582E+02 -0.41434941151E+02  0.46466816892E+02  0.00000000000E+00 0.  1.
         -5    1    1    2    0  502 -0.82579860222E+01 -0.19342088582E+02 -0.85851965845E+02  0.88390444978E+02  0.00000000000E+00 0. -1.
<mgrwt>
<rscale>  2 0.21031185E+02</rscale>
<asrwt>0</asrwt>
<pdfrwt beam="1">  1       21 0.58233501E-03 0.21031185E+02</pdfrwt>
<pdfrwt beam="2">  1       21 0.20164935E-01 0.21031185E+02</pdfrwt>
<totfact> 0.13249137E+08</totfact>
</mgrwt>
</event>
<event>
 4    1  0.3862688E+004  0.4396328E+02  0.7546771E-02  0.1480919E+00
         21   -1    0    0  503  502  0.00000000000E+00  0.00000000000E+00  0.12432485936E+03  0.12432485936E+03  0.00000000000E+00 0.  1.
         21   -1    0    0  501  503 -0.00000000000E+00 -0.00000000000E+00 -0.15727632248E+02  0.15727632248E+02  0.00000000000E+00 0.  1.
          3    1    1    2  501    0  0.33503695144E+02  0.28465290240E+02  0.46775960504E+02  0.64193152421E+02  0.00000000000E+00 0.  1.
         -3    1    1    2    0  502 -0.33503695144E+02 -0.28465290240E+02  0.61821266610E+02  0.75859339188E+02  0.00000000000E+00 0. -1.
<mgrwt>
<rscale>  2 0.43963284E+02</rscale>
<asrwt>0</asrwt>
<pdfrwt beam="1">  1       21 0.19126901E-01 0.43963284E+02</pdfrwt>
<pdfrwt beam="2">  1       21 0.24196358E-02 0.43963284E+02</pdfrwt>
<totfact> 0.19455204E+07</totfact>
</mgrwt>
</event>
<event>
 4    1  0.3862688E+004  0.2940861E+02  0.7546771E-02  0.1604719E+00
         21   -1    0    0  503  502  0.00000000000E+00  0.00000000000E+00  0.13978345107E+03  0.13978345107E+03  0.00000000000E+00 0.  1.
         21   -1    0    0  501  503 -0.00000000000E+00 -0.00000000000E+00 -0.62960540225E+01  0.62960540225E+01  0.00000000000E+00 0.  1.
          1    1    1    2  501    0 -0.25611533238E+02 -0.14453912518E+02  0.57139191260E+02  0.64263157406E+02  0.00000000000E+00 0.  1.
         -1    1    1    2    0  502  0.25611533238E+02  0.14453912518E+02  0.76348205793E+02  0.81816347692E+02  0.00000000000E+00 0. -1.
<mgrwt>
<rscale>  2 0.29408608E+02</rscale>
<asrwt>0</asrwt>
<pdfrwt beam="1">  1       21 0.21505144E-01 0.29408608E+02</pdfrwt>
<pdfrwt beam="2">  1       21 0.96862380E-03 0.29408608E+02</pdfrwt>
<totfact> 0.60344329E+07</totfact>
</mgrwt>
</event>
<event>
 4    1  0.3862688E+004  0.4160246E+02  0.7546771E-02  0.1496740E+00
         21   -1    0    0  501  502  0.00000000000E+00  0.00000000000E+00  0.13327201270E+03  0.13327201270E+03  0.00000000000E+00 0. -1.
         21   -1    0    0  502  503 -0.00000000000E+00 -0.00000000000E+00 -0.16502900674E+02  0.16502900674E+02  0.00000000000E+00 0. -1.
          1    1    1    2  501    0  0.35438282054E+02 -0.21792039520E+02  0.23817274946E+02  0.47937745120E+02  0.00000000000E+00 0.  1.
         -1    1    1    2    0  503 -0.35438282054E+02  0.21792039520E+02  0.92951837077E+02  0.10183716825E+03  0.00000000000E+00 0. -1.
<mgrwt>
<rscale>  2 0.41602462E+02</rscale>
<asrwt>0</asrwt>
<pdfrwt beam="1">  1       21 0.20503386E-01 0.41602462E+02</pdfrwt>
<pdfrwt beam="2">  1       21 0.25389079E-02 0.41602462E+02</pdfrwt>
<totfact> 0.15797738E+07</totfact>
</mgrwt>
</event>
<event>
 4    1  0.3862688E+004  0.2236913E+02  0.7546771E-02  0.1701945E+00
         21   -1    0    0  503  502  0.00000000000E+00  0.00000000000E+00  0.36047293589E+02  0.36047293589E+02  0.00000000000E+00 0. -1.
         21   -1    0    0  501  503 -0.00000000000E+00 -0.00000000000E+00 -0.13959782778E+02  0.13959782778E+02  0.00000000000E+00 0. -1.
          3    1    1    2  501    0  0.17340431431E+02 -0.14131081505E+02  0.91672344029E+01  0.24174701928E+02  0.00000000000E+00 0. -1.
         -3    1    1    2    0  502 -0.17340431431E+02  0.14131081505E+02  0.12920276408E+02  0.25832374439E+02  0.00000000000E+00 0.  1.
<mgrwt>
<rscale>  2 0.22369131E+02</rscale>
<asrwt>0</asrwt>
<pdfrwt beam="1">  1       21 0.55457374E-02 0.22369131E+02</pdfrwt>
<pdfrwt beam="2">  1       21 0.21476589E-02 0.22369131E+02</pdfrwt>
<totfact> 0.16157193E+08</totfact>
</mgrwt>
</event>
<event>
 4    1  0.3862688E+004  0.2068524E+02  0.7546771E-02  0.1732035E+00
         21   -1    0    0  501  502  0.00000000000E+00  0.00000000000E+00  0.58780195555E+01  0.58780195555E+01  0.00000000000E+00 0.  1.
         21   -1    0    0  502  503 -0.00000000000E+00 -0.00000000000E+00 -0.10945351589E+03  0.10945351589E+03  0.00000000000E+00 0.  1.
          3    1    1    2  501    0  0.19967861097E+02  0.54003512146E+01 -0.85161259993E+02  0.87637431920E+02  0.00000000000E+00 0. -1.
         -3    1    1    2    0  503 -0.19967861097E+02 -0.54003512146E+01 -0.18414236343E+02  0.27694103526E+02  0.00000000000E+00 0.  1.
<mgrwt>
<rscale>  2 0.20685243E+02</rscale>
<asrwt>0</asrwt>
<pdfrwt beam="1">  1       21 0.90431072E-03 0.20685243E+02</pdfrwt>
<pdfrwt beam="2">  1       21 0.16839002E-01 0.20685243E+02</pdfrwt>
<totfact> 0.93646968E+07</totfact>
</mgrwt>
</event>
<event>
 4    1  0.3862688E+004  0.2063167E+02  0.7546771E-02  0.1733051E+00
         21   -1    0    0  501  502  0.00000000000E+00  0.00000000000E+00  0.15183127020E+02  0.15183127020E+02  0.00000000000E+00 0. -1.
         21   -1    0    0  502  503 -0.00000000000E+00 -0.00000000000E+00 -0.45985193569E+02  0.45985193569E+02  0.00000000000E+00 0. -1.
          5    1    1    2  501    0 -0.17771287220E+01 -0.20554989296E+02  0.37070311793E+01  0.20962057428E+02  0.00000000000E+00 0.  1.
         -5    1    1    2    0  503  0.17771287220E+01  0.20554989296E+02 -0.34509097728E+02  0.40206263162E+02  0.00000000000E+00 0. -1.
<mgrwt>
<rscale>  2 0.20631669E+02</rscale>
<asrwt>0</asrwt>
<pdfrwt beam="1">  1       21 0.23358657E-02 0.20631669E+02</pdfrwt>
<pdfrwt beam="2">  1       21 0.70746452E-02 0.20631669E+02</pdfrwt>
<totfact> 0.93759036E+07</totfact>
</mgrwt>
</event>
<event>
 4    1  0.3862688E+004  0.2454183E+02  0.7546771E-02  0.1667671E+00
         21   -1    0    0  501  502  0.00000000000E+00  0.00000000000E+00  0.30879662936E+02  0.30879662936E+02  0.00000000000E+00 0. -1.
         21   -1    0    0  502  503 -0.00000000000E+00 -0.00000000000E+00 -0.20005973946E+02  0.20005973946E+02  0.00000000000E+00 0. -1.
          5    1    1    2  501    0 -0.20848475948E+02  0.12947680221E+02  0.94638618510E+01  0.26303346814E+02  0.00000000000E+00 0. -1.
         -5    1    1    2    0  503  0.20848475948E+02 -0.12947680221E+02  0.14098271393E+01  0.24582290069E+02  0.00000000000E+00 0.  1.
<mgrwt>
<rscale>  2 0.24541829E+02</rscale>
<asrwt>0</asrwt>
<pdfrwt beam="1">  1       21 0.47507174E-02 0.24541829E+02</pdfrwt>
<pdfrwt beam="2">  1       21 0.30778422E-02 0.24541829E+02</pdfrwt>
<totfact> 0.12175584E+08</totfact>
</mgrwt>
</event>
<event>
 4    1  0.3862688E+004  0.3147286E+02  0.7546771E-02  0.1582356E+00
         21   -1    0    0  501  502  0.00000000000E+00  0.00000000000E+00  0.94415184335E+03  0.94415184335E+03  0.00000000000E+00 0. -1.
         21   -1    0    0  502  503 -0.00000000000E+00 -0.00000000000E+00 -0.10711459555E+01  0.10711459555E+01  0.00000000000E+00 0. -1.
          1    1    1    2  501    0 -0.15811793246E+02  0.27212641946E+02  0.53929215720E+03  0.54020974770E+03  0.00000000000E+00 0.  1.
         -1    1    1    2    0  503  0.15811793246E+02 -0.27212641946E+02  0.40378854019E+03  0.40501324161E+03  0.00000000000E+00 0. -1.
<mgrwt>
<rscale>  2 0.31472856E+02</rscale>
<asrwt>0</asrwt>
<pdfrwt beam="1">  1       21 0.14525346E+00 0.31472856E+02</pdfrwt>
<pdfrwt beam="2">  1       21 0.16479244E-03 0.31472856E+02</pdfrwt>
<totfact> 0.17475123E+07</totfact>
</mgrwt>
</event>
<event>
 4    1  0.3862688E+004  0.2130737E+02  0.7546771E-02  0.1720514E+00
         21   -1    0    0  501  502  0.00000000000E+00  0.00000000000E+00  0.34047524876E+03  0.34047524876E+03  0.00000000000E+00 0.  1.
         21   -1    0    0  502  503 -0.00000000000E+00 -0.00000000000E+00 -0.13459437798E+01  0.13459437798E+01  0.00000000000E+00 0.  1.
          2    1    1    2  501    0 -0.11369013357E+02 -0.18020804250E+02  0.18603675010E+03  0.18725297391E+03  0.00000000000E+00 0. -1.
         -2    1    1    2    0  503  0.11369013357E+02  0.18020804250E+02  0.15309255488E+03  0.15456821863E+03  0.00000000000E+00 0.  1.
<mgrwt>
<rscale>  2 0.21307366E+02</rscale>
<asrwt>0</asrwt>
<pdfrwt beam="1">  1       21 0.52380739E-01 0.21307366E+02</pdfrwt>
<pdfrwt beam="2">  1       21 0.20706855E-03 0.21307366E+02</pdfrwt>
<totfact> 0.10425198E+08</totfact>
</mgrwt>
</event>
<event>
 4    1  0.3862688E+004  0.2866248E+02  0.7546771E-02  0.1613362E+00
         21   -1    0    0  503  502  0.00000000000E+00  0.00000000000E+00  0.69485810975E+02  0.69485810975E+02  0.00000000000E+00 0. -1.
         21   -1    0    0  501  503 -0.00000000000E+00 -0.00000000000E+00 -0.11847070480E+02  0.11847070480E+02  0.00000000000E+00 0. -1.
          1    1    1    2  501    0  0.34167692340E+00  0.28660443190E+02  0.30648572968E+02  0.41962754580E+02  0.00000000000E+00 0. -1.
         -1    1    1    2    0  502 -0.34167692340E+00 -0.28660443190E+02  0.26990167527E+02  0.39370126874E+02  0.00000000000E+00 0.  1.
<mgrwt>
<rscale>  2 0.28662480E+02</rscale>
<asrwt>0</asrwt>
<pdfrwt beam="1">  1       21 0.10690125E-01 0.28662480E+02</pdfrwt>
<pdfrwt beam="2">  1       21 0.18226263E-02 0.28662480E+02</pdfrwt>
<totfact> 0.76120919E+07</totfact>
</mgrwt>
</event>
<event>
 4    1  0.3862688E+004  0.2134371E+02  0.7546771E-02  0.1719856E+00
         21   -1    0    0  503  502  0.00000000000E+00  0.00000000000E+00  0.28409663738E+00  0.28409663738E+00  0.00000000000E+00 0. -1.
         21   -1    0    0  501  503 -0.00000000000E+00 -0.00000000000E+00 -0.16552372189E+04  0.16552372189E+04  0.00000000000E+00 0. -1.
          4    1    1    2  501    0  0.53442615986E+01 -0.20663802963E+02 -0.68115665976E+03  0.68149097501E+03  0.00000000000E+00 0.  1.
         -4    1    1    2    0  502 -0.53442615986E+01  0.20663802963E+02 -0.97379646254E+03  0.97403034057E+03  0.00000000000E+00 0. -1.
<mgrwt>
<rscale>  2 0.21343708E+02</rscale>
<asrwt>0</asrwt>
<pdfrwt beam="1">  1       21 0.43706168E-04 0.21343708E+02</pdfrwt>
<pdfrwt beam="2">  1       21 0.25465775E+00 0.21343708E+02</pdfrwt>
<totfact> 0.25808655E+07</totfact>
</mgrwt>
</event>
<event>
 4    1  0.3862688E+004  0.2528386E+02  0.7546771E-02  0.1656958E+00
         21   -1    0    0  501  502  0.00000000000E+00  0.00000000000E+00  0.15120570576E+03  0.15120570576E+03  0.00000000000E+00 0.  1.
         21   -1    0    0  502  503 -0.00000000000E+00 -0.00000000000E+00 -0.49934059360E+01  0.49934059360E+01  0.00000000000E+00 0.  1.
          3    1    1    2  501    0 -0.23416600024E+02 -0.95360575244E+01  0.42525874467E+02  0.49474473711E+02  0.00000000000E+00 0. -1.
         -3    1    1    2    0  503  0.23416600024E+02  0.95360575244E+01  0.10368642536E+03  0.10672463799E+03  0.00000000000E+00 0.  1.
<mgrwt>
<rscale>  2 0.25283859E+02</rscale>
<asrwt>0</asrwt>
<pdfrwt beam="1">  1       21 0.23262413E-01 0.25283859E+02</pdfrwt>
<pdfrwt beam="2">  1       21 0.76821641E-03 0.25283859E+02</pdfrwt>
<totfact> 0.71785343E+07</totfact>
</mgrwt>
</event>
<event>
 4    1  0.3862688E+004  0.2071045E+02  0.7546771E-02  0.1731558E+00
         21   -1    0    0  503  502  0.00000000000E+00  0.00000000000E+00  0.27015082113E+01  0.27015082113E+01  0.00000000000E+00 0. -1.
         21   -1    0    0  501  503 -0.00000000000E+00 -0.00000000000E+00 -0.22015780138E+03  0.22015780138E+03  0.00000000000E+00 0. -1.
          4    1    1    2  501    0  0.19313019701E+02  0.74786488022E+01 -0.16756764288E+03  0.16884264229E+03  0.00000000000E+00 0.  1.
         -4    1    1    2    0  502 -0.19313019701E+02 -0.74786488022E+01 -0.49888650297E+02  0.54016667302E+02  0.00000000000E+00 0. -1.
<mgrwt>
<rscale>  2 0.20710454E+02</rscale>
<asrwt>0</asrwt>
<pdfrwt beam="1">  1       21 0.41561675E-03 0.20710454E+02</pdfrwt>
<pdfrwt beam="2">  1       21 0.33870423E-01 0.20710454E+02</pdfrwt>
<totfact> 0.85799049E+07</totfact>
</mgrwt>
</event>
<event>
 4    1  0.3862688E+004  0.4015340E+02  0.7546771E-02  0.1507086E+00
         21   -1    0    0  501  502  0.00000000000E+00  0.00000000000E+00  0.85980326522E+01  0.85980326522E+01  0.00000000000E+00 0. -1.
         21   -1    0    0  502  503 -0.00000000000E+00 -0.00000000000E+00 -0.23078988684E+03  0.23078988684E+03  0.00000000000E+00 0. -1.
          1    1    1    2  501    0  0.19248970485E+01  0.40107233346E+02 -0.59268313251E+02  0.71589303328E+02  0.00000000000E+00 0.  1.
         -1    1    1    2    0  503 -0.19248970485E+01 -0.40107233346E+02 -0.16292354094E+03  0.16779861616E+03  0.00000000000E+00 0. -1.
<mgrwt>
<rscale>  2 0.40153398E+02</rscale>
<asrwt>0</asrwt>
<pdfrwt beam="1">  1       21 0.13227742E-02 0.40153398E+02</pdfrwt>
<pdfrwt beam="2">  1       21 0.35506139E-01 0.40153398E+02</pdfrwt>
<totfact> 0.15820378E+07</totfact>
</mgrwt>
</event>
<event>
 4    1  0.3862688E+004  0.3739429E+02  0.7546771E-02  0.1528312E+00
         21   -1    0    0  503  502  0.00000000000E+00  0.00000000000E+00  0.71791749658E+02  0.71791749658E+02  0.00000000000E+00 0.  1.
         21   -1    0    0  501  503 -0.00000000000E+00 -0.00000000000E+00 -0.27138184051E+02  0.27138184051E+02  0.00000000000E+00 0.  1.
          1    1    1    2  501    0  0.31228683958E+02 -0.20569444198E+02  0.48607522180E+02  0.61327187680E+02  0.00000000000E+00 0. -1.
         -1    1    1    2    0  502 -0.31228683958E+02  0.20569444198E+02 -0.39539565725E+01  0.37602746029E+02  0.00000000000E+00 0.  1.
<mgrwt>
<rscale>  2 0.37394287E+02</rscale>
<asrwt>0</asrwt>
<pdfrwt beam="1">  1       21 0.11044884E-01 0.37394287E+02</pdfrwt>
<pdfrwt beam="2">  1       21 0.41751053E-02 0.37394287E+02</pdfrwt>
<totfact> 0.20648074E+07</totfact>
</mgrwt>
</event>
<event>
 4    1  0.3862688E+004  0.2280070E+02  0.7546771E-02  0.1694761E+00
         21   -1    0    0  503  502  0.00000000000E+00  0.00000000000E+00  0.18558248835E+03  0.18558248835E+03  0.00000000000E+00 0.  1.
         21   -1    0    0  501  503 -0.00000000000E+00 -0.00000000000E+00 -0.29347747886E+01  0.29347747886E+01  0.00000000000E+00 0.  1.
          5    1    1    2  501    0  0.35867601730E+01  0.22516822461E+02  0.71222096792E+02  0.74782746765E+02  0.00000000000E+00 0.  1.
         -5    1    1    2    0  502 -0.35867601730E+01 -0.22516822461E+02  0.11142561677E+03  0.11373451637E+03  0.00000000000E+00 0. -1.
<mgrwt>
<rscale>  2 0.22800705E+02</rscale>
<asrwt>0</asrwt>
<pdfrwt beam="1">  1       21 0.28551143E-01 0.22800705E+02</pdfrwt>
<pdfrwt beam="2">  1       21 0.45150396E-03 0.22800705E+02</pdfrwt>
<totfact> 0.10647949E+08</totfact>
</mgrwt>
</event>
<event>
 4    1  0.3862688E+004  0.2063422E+02  0.7546771E-02  0.1733002E+00
         21   -1    0    0  501  502  0.00000000000E+00  0.00000000000E+00  0.33210873561E+02  0.33210873561E+02  0.00000000000E+00 0.  1.
         21   -1    0    0  502  503 -0.00000000000E+00 -0.00000000000E+00 -0.13323310834E+02  0.13323310834E+02  0.00000000000E+00 0.  1.
          1    1    1    2  501    0  0.13905330703E+02 -0.15245086103E+02  0.54225465265E+01  0.21334827936E+02  0.00000000000E+00 0. -1.
         -1    1    1    2    0  503 -0.13905330703E+02  0.15245086103E+02  0.14465016201E+02  0.25199356459E+02  0.00000000000E+00 0.  1.
<mgrwt>
<rscale>  2 0.20634216E+02</rscale>
<asrwt>0</asrwt>
<pdfrwt beam="1">  1       21 0.51093652E-02 0.20634216E+02</pdfrwt>
<pdfrwt beam="2">  1       21 0.20497401E-02 0.20634216E+02</pdfrwt>
<totfact> 0.19279027E+08</totfact>
</mgrwt>
</event>
<event>
 4    1  0.3862688E+004  0.3708666E+02  0.7546771E-02  0.1530815E+00
         21   -1    0    0  501  502  0.00000000000E+00  0.00000000000E+00  0.34227548830E+02  0.34227548830E+02  0.00000000000E+00 0.  1.
         21   -1    0    0  502  503 -0.00000000000E+00 -0.00000000000E+00 -0.40981793527E+02  0.40981793527E+02  0.00000000000E+00 0.  1.
          3    1    1    2  501    0 -0.36099014520E+02  0.85018402215E+01 -0.86219348321E+01  0.38075686425E+02  0.00000000000E+00 0.  1.
         -3    1    1    2    0  503  0.36099014520E+02 -0.85018402215E+01  0.18676901348E+01  0.37133655932E+02  0.00000000000E+00 0. -1.
<mgrwt>
<rscale>  2 0.37086657E+02</rscale>
<asrwt>0</asrwt>
<pdfrwt beam="1">  1       21 0.52657768E-02 0.37086657E+02</pdfrwt>
<pdfrwt beam="2">  1       21 0.63048913E-02 0.37086657E+02</pdfrwt>
<totfact> 0.36077461E+07</totfact>
</mgrwt>
</event>
<event>
 4    1  0.3862688E+004  0.3293060E+02  0.7546771E-02  0.1567785E+00
         21   -1    0    0  503  502  0.00000000000E+00  0.00000000000E+00  0.33187443326E+01  0.33187443326E+01  0.00000000000E+00 0.  1.
         21   -1    0    0  501  503 -0.00000000000E+00 -0.00000000000E+00 -0.32749441221E+03  0.32749441221E+03  0.00000000000E+00 0.  1.
          1    1    1    2  501    0 -0.32488802104E+02 -0.53760506320E+01 -0.16993469352E+03  0.17309599719E+03  0.00000000000E+00 0.  1.
         -1    1    1    2    0  502  0.32488802104E+02  0.53760506320E+01 -0.15424097436E+03  0.15771715935E+03  0.00000000000E+00 0. -1.
<mgrwt>
<rscale>  2 0.32930596E+02</rscale>
<asrwt>0</asrwt>
<pdfrwt beam="1">  1       21 0.51057593E-03 0.32930596E+02</pdfrwt>
<pdfrwt beam="2">  1       21 0.50383768E-01 0.32930596E+02</pdfrwt>
<totfact> 0.32985943E+07</totfact>
</mgrwt>
</event>
<event>
 4    1  0.3862688E+004  0.4154553E+02  0.7546771E-02  0.1497137E+00
         21   -1    0    0  501  502  0.00000000000E+00  0.00000000000E+00  0.28045057772E+02  0.28045057772E+02  0.00000000000E+00 0.  1.
         21   -1    0    0  502  503 -0.00000000000E+00 -0.00000000000E+00 -0.62378267918E+02  0.62378267918E+02  0.00000000000E+00 0.  1.
          3    1    1    2  501    0  0.40602412633E+02  0.88019989171E+01 -0.22392306475E+02  0.47195831234E+02  0.00000000000E+00 0.  1.
         -3    1    1    2    0  503 -0.40602412633E+02 -0.88019989171E+01 -0.11940903671E+02  0.43227494457E+02  0.00000000000E+00 0. -1.
<mgrwt>
<rscale>  2 0.41545530E+02</rscale>
<asrwt>0</asrwt>
<pdfrwt beam="1">  1       21 0.43146243E-02 0.41545530E+02</pdfrwt>
<pdfrwt beam="2">  1       21 0.95966566E-02 0.41545530E+02</pdfrwt>
<totfact> 0.25279088E+07</totfact>
</mgrwt>
</event>
<event>
 4    1  0.3862688E+004  0.2074800E+02  0.7546771E-02  0.1730850E+00
         21   -1    0    0  501  502  0.00000000000E+00  0.00000000000E+00  0.10451835647E+02  0.10451835647E+02  0.00000000000E+00 0. -1.
         21   -1    0    0  502  503 -0.00000000000E+00 -0.00000000000E+00 -0.54961418583E+02  0.54961418583E+02  0.00000000000E+00 0. -1.
          2    1    1    2  501    0  0.18120310659E+02 -0.10106130282E+02 -0.58812066605E+01  0.21565438077E+02  0.00000000000E+00 0. -1.
         -2    1    1    2    0  503 -0.18120310659E+02  0.10106130282E+02 -0.38628376276E+02  0.43847816153E+02  0.00000000000E+00 0.  1.
<mgrwt>
<rscale>  2 0.20748001E+02</rscale>
<asrwt>0</asrwt>
<pdfrwt beam="1">  1       21 0.16079747E-02 0.20748001E+02</pdfrwt>
<pdfrwt beam="2">  1       21 0.84556030E-02 0.20748001E+02</pdfrwt>
<totfact> 0.12438217E+08</totfact>
</mgrwt>
</event>
<event>
 4    1  0.3862688E+004  0.2318657E+02  0.7546771E-02  0.1688504E+00
         21   -1    0    0  503  502  0.00000000000E+00  0.00000000000E+00  0.53336851918E+02  0.53336851918E+02  0.00000000000E+00 0. -1.
         21   -1    0    0  501  503 -0.00000000000E+00 -0.00000000000E+00 -0.18389654726E+02  0.18389654726E+02  0.00000000000E+00 0. -1.
          3    1    1    2  501    0 -0.10695910732E+02 -0.20572173303E+02 -0.66345312099E+01  0.24117085752E+02  0.00000000000E+00 0.  1.
         -3    1    1    2    0  502  0.10695910732E+02  0.20572173303E+02  0.41581728402E+02  0.47609420893E+02  0.00000000000E+00 0. -1.
<mgrwt>
<rscale>  2 0.23186566E+02</rscale>
<asrwt>0</asrwt>
<pdfrwt beam="1">  1       21 0.82056695E-02 0.23186566E+02</pdfrwt>
<pdfrwt beam="2">  1       21 0.28291777E-02 0.23186566E+02</pdfrwt>
<totfact> 0.56615664E+07</totfact>
</mgrwt>
</event>
<event>
 4    1  0.3862688E+004  0.2699702E+02  0.7546771E-02  0.1633871E+00
         21   -1    0    0  503  502  0.00000000000E+00  0.00000000000E+00  0.18340976251E+04  0.18340976251E+04  0.00000000000E+00 0.  1.
         21   -1    0    0  501  503 -0.00000000000E+00 -0.00000000000E+00 -0.51077692188E+00  0.51077692188E+00  0.00000000000E+00 0.  1.
          5    1    1    2  501    0 -0.24540425890E+02  0.11251970365E+02  0.48458571550E+03  0.48533715601E+03  0.00000000000E+00 0. -1.
         -5    1    1    2    0  502  0.24540425890E+02 -0.11251970365E+02  0.13490011327E+04  0.13492712460E+04  0.00000000000E+00 0.  1.
<mgrwt>
<rscale>  2 0.26997025E+02</rscale>
<asrwt>0</asrwt>
<pdfrwt beam="1">  1       21 0.28216359E+00 0.26997025E+02</pdfrwt>
<pdfrwt beam="2">  1       21 0.78582533E-04 0.26997025E+02</pdfrwt>
<totfact> 0.83955586E+06</totfact>
</mgrwt>
</event>
<event>
 4    1  0.3862688E+004  0.2180098E+02  0.7546771E-02  0.1711717E+00
         21   -1    0    0  501  502  0.00000000000E+00  0.00000000000E+00  0.29451400974E+03  0.29451400974E+03  0.00000000000E+00 0. -1.
         21   -1    0    0  502  503 -0.00000000000E+00 -0.00000000000E+00 -0.17669598111E+01  0.17669598111E+01  0.00000000000E+00 0. -1.
          2    1    1    2  501    0 -0.17358930041E+02 -0.13189013689E+02  0.10275681208E+03  0.10504401441E+03  0.00000000000E+00 0. -1.
         -2    1    1    2    0  503  0.17358930041E+02  0.13189013689E+02  0.18999023785E+03  0.19123695514E+03  0.00000000000E+00 0.  1.
<mgrwt>
<rscale>  2 0.21800976E+02</rscale>
<asrwt>0</asrwt>
<pdfrwt beam="1">  1       21 0.45309809E-01 0.21800976E+02</pdfrwt>
<pdfrwt beam="2">  1       21 0.27184021E-03 0.21800976E+02</pdfrwt>
<totfact> 0.93625261E+07</totfact>
</mgrwt>
</event>
<event>
 4    1  0.3862688E+004  0.2718344E+02  0.7546771E-02  0.1631486E+00
         21   -1    0    0  503  502  0.00000000000E+00  0.00000000000E+00  0.21675180574E+02  0.21675180574E+02  0.00000000000E+00 0.  1.
         21   -1    0    0  501  503 -0.00000000000E+00 -0.00000000000E+00 -0.36031908928E+02  0.36031908928E+02  0.00000000000E+00 0.  1.
          2    1    1    2  501    0 -0.19564303462E+02 -0.18872668452E+02 -0.48258203132E+00  0.27187726457E+02  0.00000000000E+00 0.  1.
         -2    1    1    2    0  502  0.19564303462E+02  0.18872668452E+02 -0.13874146324E+02  0.30519363045E+02  0.00000000000E+00 0. -1.
<mgrwt>
<rscale>  2 0.27183443E+02</rscale>
<asrwt>0</asrwt>
<pdfrwt beam="1">  1       21 0.33346432E-02 0.27183443E+02</pdfrwt>
<pdfrwt beam="2">  1       21 0.55433706E-02 0.27183443E+02</pdfrwt>
<totfact> 0.86176653E+07</totfact>
</mgrwt>
</event>
<event>
 4    1  0.3862688E+004  0.2840710E+02  0.7546771E-02  0.1616394E+00
         21   -1    0    0  503  502  0.00000000000E+00  0.00000000000E+00  0.61839218511E+01  0.61839218511E+01  0.00000000000E+00 0. -1.
         21   -1    0    0  501  503 -0.00000000000E+00 -0.00000000000E+00 -0.16341793766E+03  0.16341793766E+03  0.00000000000E+00 0. -1.
          4    1    1    2  501    0 -0.59385884070E+01  0.27779426068E+02 -0.11668045179E+03  0.12008868046E+03  0.00000000000E+00 0.  1.
         -4    1    1    2    0  502  0.59385884070E+01 -0.27779426068E+02 -0.40553564015E+02  0.49513179047E+02  0.00000000000E+00 0. -1.
<mgrwt>
<rscale>  2 0.28407100E+02</rscale>
<asrwt>0</asrwt>
<pdfrwt beam="1">  1       21 0.95137265E-03 0.28407100E+02</pdfrwt>
<pdfrwt beam="2">  1       21 0.25141220E-01 0.28407100E+02</pdfrwt>
<totfact> 0.46538412E+07</totfact>
</mgrwt>
</event>
<event>
 4    1  0.3862688E+004  0.2095093E+02  0.7546771E-02  0.1727053E+00
         21   -1    0    0  503  502  0.00000000000E+00  0.00000000000E+00  0.14985243012E+03  0.14985243012E+03  0.00000000000E+00 0. -1.
         21   -1    0    0  501  503 -0.00000000000E+00 -0.00000000000E+00 -0.38298284598E+01  0.38298284598E+01  0.00000000000E+00 0. -1.
          4    1    1    2  501    0  0.19433681980E+02  0.78277295639E+01  0.35747495993E+02  0.41434584771E+02  0.00000000000E+00 0.  1.
         -4    1    1    2    0  502 -0.19433681980E+02 -0.78277295639E+01  0.11027510567E+03  0.11224767381E+03  0.00000000000E+00 0. -1.
<mgrwt>
<rscale>  2 0.20950927E+02</rscale>
<asrwt>0</asrwt>
<pdfrwt beam="1">  1       21 0.23054216E-01 0.20950927E+02</pdfrwt>
<pdfrwt beam="2">  1       21 0.58920449E-03 0.20950927E+02</pdfrwt>
<totfact> 0.10289927E+08</totfact>
</mgrwt>
</event>
<event>
 4    1  0.3862688E+004  0.2310436E+02  0.7546771E-02  0.1689824E+00
         21   -1    0    0  501  502  0.00000000000E+00  0.00000000000E+00  0.26109701567E+03  0.26109701567E+03  0.00000000000E+00 0.  1.
         21   -1    0    0  502  503 -0.00000000000E+00 -0.00000000000E+00 -0.21243496181E+01  0.21243496181E+01  0.00000000000E+00 0.  1.
          2    1    1    2  501    0  0.23102774589E+02  0.27070551817E+00  0.10396937669E+03  0.10650559969E+03  0.00000000000E+00 0.  1.
         -2    1    1    2    0  503 -0.23102774589E+02 -0.27070551817E+00  0.15500328936E+03  0.15671576560E+03  0.00000000000E+00 0. -1.
<mgrwt>
<rscale>  2 0.23104361E+02</rscale>
<asrwt>0</asrwt>
<pdfrwt beam="1">  1       21 0.40168746E-01 0.23104361E+02</pdfrwt>
<pdfrwt beam="2">  1       21 0.32682323E-03 0.23104361E+02</pdfrwt>
<totfact> 0.91383318E+07</totfact>
</mgrwt>
</event>
<event>
 4    1  0.3862688E+004  0.4121650E+02  0.7546771E-02  0.1499445E+00
         21   -1    0    0  501  502  0.00000000000E+00  0.00000000000E+00  0.89342718530E+02  0.89342718530E+02  0.00000000000E+00 0. -1.
         21   -1    0    0  502  503 -0.00000000000E+00 -0.00000000000E+00 -0.33263408702E+02  0.33263408702E+02  0.00000000000E+00 0. -1.
          3    1    1    2  501    0 -0.30969644828E+02  0.27197073676E+02  0.68162421175E+02  0.79654977106E+02  0.00000000000E+00 0.  1.
         -3    1    1    2    0  503  0.30969644828E+02 -0.27197073676E+02 -0.12083111348E+02  0.42951150126E+02  0.00000000000E+00 0. -1.
<mgrwt>
<rscale>  2 0.41216498E+02</rscale>
<asrwt>0</asrwt>
<pdfrwt beam="1">  1       21 0.13745033E-01 0.41216498E+02</pdfrwt>
<pdfrwt beam="2">  1       21 0.51174475E-02 0.41216498E+02</pdfrwt>
<totfact> 0.10366473E+07</totfact>
</mgrwt>
</event>
<event>
 4    1  0.3862688E+004  0.2116259E+02  0.7546771E-02  0.1723150E+00
         21   -1    0    0  501  502  0.00000000000E+00  0.00000000000E+00  0.35693126531E+02  0.35693126531E+02  0.00000000000E+00 0.  1.
         21   -1    0    0  502  503 -0.00000000000E+00 -0.00000000000E+00 -0.12692295894E+02  0.12692295894E+02  0.00000000000E+00 0.  1.
          4    1    1    2  501    0  0.20934595148E+02  0.30980370252E+01  0.89153158035E+01  0.22963840343E+02  0.00000000000E+00 0.  1.
         -4    1    1    2    0  503 -0.20934595148E+02 -0.30980370252E+01  0.14085514833E+02  0.25421582082E+02  0.00000000000E+00 0. -1.
<mgrwt>
<rscale>  2 0.21162587E+02</rscale>
<asrwt>0</asrwt>
<pdfrwt beam="1">  1       21 0.54912502E-02 0.21162587E+02</pdfrwt>
<pdfrwt beam="2">  1       21 0.19526609E-02 0.21162587E+02</pdfrwt>
<totfact> 0.18664867E+08</totfact>
</mgrwt>
</event>
<event>
 4    1  0.3862688E+004  0.2229766E+02  0.7546771E-02  0.1703154E+00
         21   -1    0    0  503  502  0.00000000000E+00  0.00000000000E+00  0.28957029084E+03  0.28957029084E+03  0.00000000000E+00 0.  1.
         21   -1    0    0  501  503 -0.00000000000E+00 -0.00000000000E+00 -0.18818999554E+01  0.18818999554E+01  0.00000000000E+00 0.  1.
          2    1    1    2  501    0 -0.10057337154E+02 -0.19900642557E+02  0.10070428161E+03  0.10314328839E+03  0.00000000000E+00 0.  1.
         -2    1    1    2    0  502  0.10057337154E+02  0.19900642557E+02  0.18698410927E+03  0.18830890241E+03  0.00000000000E+00 0. -1.
<mgrwt>
<rscale>  2 0.22297659E+02</rscale>
<asrwt>0</asrwt>
<pdfrwt beam="1">  1       21 0.44549240E-01 0.22297659E+02</pdfrwt>
<pdfrwt beam="2">  1       21 0.28952330E-03 0.22297659E+02</pdfrwt>
<totfact> 0.88765413E+07</totfact>
</mgrwt>
</event>
<event>
 4    1  0.3862688E+004  0.6440480E+02  0.7546771E-02  0.1380224E+00
         21   -1    0    0  503  502  0.00000000000E+00  0.00000000000E+00  0.19974402159E+03  0.19974402159E+03  0.00000000000E+00 0. -1.
         21   -1    0    0  501  503 -0.00000000000E+00 -0.00000000000E+00 -0.30403840519E+02  0.30403840519E+02  0.00000000000E+00 0. -1.
          2    1    1    2  501    0 -0.52546703026E+02 -0.37240058136E+02  0.19882468674E+02  0.67403935267E+02  0.00000000000E+00 0.  1.
         -2    1    1    2    0  502  0.52546703026E+02  0.37240058136E+02  0.14945771239E+03  0.16274392684E+03  0.00000000000E+00 0. -1.
<mgrwt>
<rscale>  2 0.64404797E+02</rscale>
<asrwt>0</asrwt>
<pdfrwt beam="1">  1       21 0.30729849E-01 0.64404797E+02</pdfrwt>
<pdfrwt beam="2">  1       21 0.46775141E-02 0.64404797E+02</pdfrwt>
<totfact> 0.29329626E+06</totfact>
</mgrwt>
</event>
<event>
 4    1  0.3862688E+004  0.2092805E+02  0.7546771E-02  0.1727479E+00
         21   -1    0    0  501  502  0.00000000000E+00  0.00000000000E+00  0.58289425392E+02  0.58289425392E+02  0.00000000000E+00 0. -1.
         21   -1    0    0  502  503 -0.00000000000E+00 -0.00000000000E+00 -0.78200833273E+01  0.78200833273E+01  0.00000000000E+00 0. -1.
          1    1    1    2  501    0  0.20863109589E+02 -0.16473727124E+01  0.18694464673E+02  0.28061827951E+02  0.00000000000E+00 0.  1.
         -1    1    1    2    0  503 -0.20863109589E+02  0.16473727124E+01  0.31774877392E+02  0.38047680768E+02  0.00000000000E+00 0. -1.
<mgrwt>
<rscale>  2 0.20928048E+02</rscale>
<asrwt>0</asrwt>
<pdfrwt beam="1">  1       21 0.89676036E-02 0.20928048E+02</pdfrwt>
<pdfrwt beam="2">  1       21 0.12030898E-02 0.20928048E+02</pdfrwt>
<totfact> 0.17562122E+08</totfact>
</mgrwt>
</event>
<event>
 4    1  0.3862688E+004  0.2330326E+02  0.7546771E-02  0.1686641E+00
         21   -1    0    0  501  502  0.00000000000E+00  0.00000000000E+00  0.14769301952E+02  0.14769301952E+02  0.00000000000E+00 0.  1.
         21   -1    0    0  502  503 -0.00000000000E+00 -0.00000000000E+00 -0.37880011399E+02  0.37880011399E+02  0.00000000000E+00 0.  1.
          4    1    1    2  501    0 -0.23235376688E+02  0.17774766017E+01 -0.16065113629E+02  0.28304240474E+02  0.00000000000E+00 0. -1.
         -4    1    1    2    0  503  0.23235376688E+02 -0.17774766017E+01 -0.70455958182E+01  0.24345072876E+02  0.00000000000E+00 0.  1.
<mgrwt>
<rscale>  2 0.23303265E+02</rscale>
<asrwt>0</asrwt>
<pdfrwt beam="1">  1       21 0.22722003E-02 0.23303265E+02</pdfrwt>
<pdfrwt beam="2">  1       21 0.58276942E-02 0.23303265E+02</pdfrwt>
<totfact> 0.13854664E+08</totfact>
</mgrwt>
</event>
<event>
 4    1  0.3862688E+004  0.2898985E+02  0.7546771E-02  0.1609531E+00
         21   -1    0    0  503  502  0.00000000000E+00  0.00000000000E+00  0.97208939588E+01  0.97208939588E+01  0.00000000000E+00 0. -1.
         21   -1    0    0  501  503 -0.00000000000E+00 -0.00000000000E+00 -0.11079524098E+03  0.11079524098E+03  0.00000000000E+00 0. -1.
          3    1    1    2  501    0 -0.22757654778E+02  0.17958293091E+02 -0.22293244652E+02  0.36570478516E+02  0.00000000000E+00 0.  1.
         -3    1    1    2    0  502  0.22757654778E+02 -0.17958293091E+02 -0.78781102365E+02  0.83945656419E+02  0.00000000000E+00 0. -1.
<mgrwt>
<rscale>  2 0.28989845E+02</rscale>
<asrwt>0</asrwt>
<pdfrwt beam="1">  1       21 0.14955222E-02 0.28989845E+02</pdfrwt>
<pdfrwt beam="2">  1       21 0.17045421E-01 0.28989845E+02</pdfrwt>
<totfact> 0.46686332E+07</totfact>
</mgrwt>
</event>
<event>
 4    1  0.3862688E+004  0.2398500E+02  0.7546771E-02  0.1676024E+00
         21   -1    0    0  501  502  0.00000000000E+00  0.00000000000E+00  0.67374147399E+01  0.67374147399E+01  0.00000000000E+00 0. -1.
         21   -1    0    0  502  503 -0.00000000000E+00 -0.00000000000E+00 -0.90552574582E+02  0.90552574582E+02  0.00000000000E+00 0. -1.
          4    1    1    2  501    0 -0.21345104988E+02  0.10939223715E+02 -0.30287906301E+02  0.38634665658E+02  0.00000000000E+00 0.  1.
         -4    1    1    2    0  503  0.21345104988E+02 -0.10939223715E+02 -0.53527253541E+02  0.58655323664E+02  0.00000000000E+00 0. -1.
<mgrwt>
<rscale>  2 0.23984998E+02</rscale>
<asrwt>0</asrwt>
<pdfrwt beam="1">  1       21 0.10365254E-02 0.23984998E+02</pdfrwt>
<pdfrwt beam="2">  1       21 0.13931164E-01 0.23984998E+02</pdfrwt>
<totfact> 0.10991759E+08</totfact>
</mgrwt>
</event>
<event>
 4    1  0.3862688E+004  0.2067467E+02  0.7546771E-02  0.1732235E+00
         21   -1    0    0  503  502  0.00000000000E+00  0.00000000000E+00  0.42131188462E+02  0.42131188462E+02  0.00000000000E+00 0. -1.
         21   -1    0    0  501  503 -0.00000000000E+00 -0.00000000000E+00 -0.11227115704E+02  0.11227115704E+02  0.00000000000E+00 0. -1.
          4    1    1    2  501    0  0.12316839902E+02 -0.16605346315E+02  0.23732867820E+02  0.31475245612E+02  0.00000000000E+00 0.  1.
         -4    1    1    2    0  502 -0.12316839902E+02  0.16605346315E+02  0.71712049388E+01  0.21883058554E+02  0.00000000000E+00 0. -1.
<mgrwt>
<rscale>  2 0.20674672E+02</rscale>
<asrwt>0</asrwt>
<pdfrwt beam="1">  1       21 0.64817212E-02 0.20674672E+02</pdfrwt>
<pdfrwt beam="2">  1       21 0.17272486E-02 0.20674672E+02</pdfrwt>
<totfact> 0.17132919E+08</totfact>
</mgrwt>
</event>
<event>
 4    1  0.3862688E+004  0.1191951E+03  0.7546771E-02  0.1244431E+00
         21   -1    0    0  501  502  0.00000000000E+00  0.00000000000E+00  0.26155218089E+03  0.26155218089E+03  0.00000000000E+00 0.  1.
         21   -1    0    0  502  503 -0.00000000000E+00 -0.00000000000E+00 -0.54819214303E+02  0.54819214303E+02  0.00000000000E+00 0.  1.
          1    1    1    2  501    0  0.11594201325E+03 -0.27657293438E+02  0.11846407775E+03  0.16805122443E+03  0.00000000000E+00 0.  1.
         -1    1    1    2    0  503 -0.11594201325E+03  0.27657293438E+02  0.88268888836E+02  0.14832017076E+03  0.00000000000E+00 0. -1.
<mgrwt>
<rscale>  2 0.11919512E+03</rscale>
<asrwt>0</asrwt>
<pdfrwt beam="1">  1       21 0.40238796E-01 0.11919512E+03</pdfrwt>
<pdfrwt beam="2">  1       21 0.84337254E-02 0.11919512E+03</pdfrwt>
<totfact> 0.65525004E+05</totfact>
</mgrwt>
</event>
<event>
 4    1  0.3862688E+004  0.2773582E+02  0.7546771E-02  0.1624555E+00
         21   -1    0    0  501  502  0.00000000000E+00  0.00000000000E+00  0.68151619659E+03  0.68151619659E+03  0.00000000000E+00 0. -1.
         21   -1    0    0  502  503 -0.00000000000E+00 -0.00000000000E+00 -0.11288426927E+01  0.11288426927E+01  0.00000000000E+00 0. -1.
          2    1    1    2  501    0 -0.26686785422E+02  0.75558599558E+01  0.34291886909E+03  0.34403869886E+03  0.00000000000E+00 0. -1.
         -2    1    1    2    0  503  0.26686785422E+02 -0.75558599558E+01  0.33746848480E+03  0.33860634042E+03  0.00000000000E+00 0.  1.
<mgrwt>
<rscale>  2 0.27735817E+02</rscale>
<asrwt>0</asrwt>
<pdfrwt beam="1">  1       21 0.10484832E+00 0.27735817E+02</pdfrwt>
<pdfrwt beam="2">  1       21 0.17366865E-03 0.27735817E+02</pdfrwt>
<totfact> 0.33687461E+07</totfact>
</mgrwt>
</event>
<event>
 4    1  0.3862688E+004  0.3015554E+02  0.7546771E-02  0.1596376E+00
         21   -1    0    0  501  502  0.00000000000E+00  0.00000000000E+00  0.58430649226E+02  0.58430649226E+02  0.00000000000E+00 0. -1.
         21   -1    0    0  502  503 -0.00000000000E+00 -0.00000000000E+00 -0.17381037561E+02  0.17381037561E+02  0.00000000000E+00 0. -1.
          4    1    1    2  501    0  0.25747372833E+01 -0.30045418721E+02  0.82654062513E+01  0.31267769327E+02  0.00000000000E+00 0. -1.
         -4    1    1    2    0  503 -0.25747372833E+01  0.30045418721E+02  0.32784205414E+02  0.44543917461E+02  0.00000000000E+00 0.  1.
<mgrwt>
<rscale>  2 0.30155538E+02</rscale>
<asrwt>0</asrwt>
<pdfrwt beam="1">  1       21 0.89893306E-02 0.30155538E+02</pdfrwt>
<pdfrwt beam="2">  1       21 0.26740058E-02 0.30155538E+02</pdfrwt>
<totfact> 0.56706403E+07</totfact>
</mgrwt>
</event>
<event>
 4    1  0.3862688E+004  0.2429064E+02  0.7546771E-02  0.1671405E+00
         21   -1    0    0  503  502  0.00000000000E+00  0.00000000000E+00  0.26422353111E+03  0.26422353111E+03  0.00000000000E+00 0. -1.
         21   -1    0    0  501  503 -0.00000000000E+00 -0.00000000000E+00 -0.27163149700E+01  0.27163149700E+01  0.00000000000E+00 0. -1.
          1    1    1    2  501    0  0.23969361647E+02 -0.39376459219E+01  0.74458934865E+02  0.78320931649E+02  0.00000000000E+00 0.  1.
         -1    1    1    2    0  502 -0.23969361647E+02  0.39376459219E+01  0.18704828128E+03  0.18861891443E+03  0.00000000000E+00 0. -1.
<mgrwt>
<rscale>  2 0.24290643E+02</rscale>
<asrwt>0</asrwt>
<pdfrwt beam="1">  1       21 0.40649754E-01 0.24290643E+02</pdfrwt>
<pdfrwt beam="2">  1       21 0.41789482E-03 0.24290643E+02</pdfrwt>
<totfact> 0.63112439E+07</totfact>
</mgrwt>
</event>
<event>
 4    1  0.3862688E+004  0.2690019E+02  0.7546771E-02  0.1635119E+00
         21   -1    0    0  501  502  0.00000000000E+00  0.00000000000E+00  0.77672117539E+02  0.77672117539E+02  0.00000000000E+00 0.  1.
         21   -1    0    0  502  503 -0.00000000000E+00 -0.00000000000E+00 -0.11449407469E+02  0.11449407469E+02  0.00000000000E+00 0.  1.
          1    1    1    2  501    0  0.25300600039E+02  0.91378389781E+01  0.13877665249E+02  0.30268961929E+02  0.00000000000E+00 0. -1.
         -1    1    1    2    0  503 -0.25300600039E+02 -0.91378389781E+01  0.52345044822E+02  0.58852563079E+02  0.00000000000E+00 0.  1.
<mgrwt>
<rscale>  2 0.26900194E+02</rscale>
<asrwt>0</asrwt>
<pdfrwt beam="1">  1       21 0.11949556E-01 0.26900194E+02</pdfrwt>
<pdfrwt beam="2">  1       21 0.17614474E-02 0.26900194E+02</pdfrwt>
<totfact> 0.65508709E+07</totfact>
</mgrwt>
</event>
<event>
 4    1  0.3862688E+004  0.2149753E+02  0.7546771E-02  0.1717090E+00
         21   -1    0    0  503  502  0.00000000000E+00  0.00000000000E+00  0.41881790927E+00  0.41881790927E+00  0.00000000000E+00 0. -1.
         21   -1    0    0  501  503 -0.00000000000E+00 -0.00000000000E+00 -0.12796895145E+04  0.12796895145E+04  0.00000000000E+00 0. -1.
          5    1    1    2  501    0 -0.51899454691E+01 -0.20861640997E+02 -0.87716568064E+03  0.87742907114E+03  0.00000000000E+00 0.  1.
         -5    1    1    2    0  502  0.51899454691E+01  0.20861640997E+02 -0.40210501600E+03  0.40267926131E+03  0.00000000000E+00 0. -1.
<mgrwt>
<rscale>  2 0.21497525E+02</rscale>
<asrwt>0</asrwt>
<pdfrwt beam="1">  1       21 0.64434945E-04 0.21497525E+02</pdfrwt>
<pdfrwt beam="2">  1       21 0.19687097E+00 0.21497525E+02</pdfrwt>
<totfact> 0.29870681E+07</totfact>
</mgrwt>
</event>
<event>
 4    1  0.3862688E+004  0.2956654E+02  0.7546771E-02  0.1602930E+00
         21   -1    0    0  501  502  0.00000000000E+00  0.00000000000E+00  0.16645388409E+02  0.16645388409E+02  0.00000000000E+00 0. -1.
         21   -1    0    0  502  503 -0.00000000000E+00 -0.00000000000E+00 -0.55583238644E+02  0.55583238644E+02  0.00000000000E+00 0. -1.
          2    1    1    2  501    0  0.53144372584E+01  0.29084997234E+02 -0.27949962027E+02  0.40686369767E+02  0.00000000000E+00 0. -1.
         -2    1    1    2    0  503 -0.53144372584E+01 -0.29084997234E+02 -0.10987888207E+02  0.31542257286E+02  0.00000000000E+00 0.  1.
<mgrwt>
<rscale>  2 0.29566540E+02</rscale>
<asrwt>0</asrwt>
<pdfrwt beam="1">  1       21 0.25608290E-02 0.29566540E+02</pdfrwt>
<pdfrwt beam="2">  1       21 0.85512676E-02 0.29566540E+02</pdfrwt>
<totfact> 0.65623651E+07</totfact>
</mgrwt>
</event>
<event>
 4    1  0.3862688E+004  0.2059031E+02  0.7546771E-02  0.1733837E+00
         21   -1    0    0  501  502  0.00000000000E+00  0.00000000000E+00  0.32231169103E+02  0.32231169103E+02  0.00000000000E+00 0. -1.
         21   -1    0    0  502  503 -0.00000000000E+00 -0.00000000000E+00 -0.13155071239E+02  0.13155071239E+02  0.00000000000E+00 0. -1.
          4    1    1    2  501    0  0.13157653687E+02 -0.15837838804E+02  0.97648110190E+01  0.22788429581E+02  0.00000000000E+00 0. -1.
         -4    1    1    2    0  503 -0.13157653687E+02  0.15837838804E+02  0.93112868449E+01  0.22597810762E+02  0.00000000000E+00 0.  1.
<mgrwt>
<rscale>  2 0.20590313E+02</rscale>
<asrwt>0</asrwt>
<pdfrwt beam="1">  1       21 0.49586414E-02 0.20590313E+02</pdfrwt>
<pdfrwt beam="2">  1       21 0.20238571E-02 0.20590313E+02</pdfrwt>
<totfact> 0.20598826E+08</totfact>
</mgrwt>
</event>
<event>
 4    1  0.3862688E+004  0.2667580E+02  0.7546771E-02  0.1638036E+00
         21   -1    0    0  503  502  0.00000000000E+00  0.00000000000E+00  0.94804541990E+01  0.94804541990E+01  0.00000000000E+00 0. -1.
         21   -1    0    0  501  503 -0.00000000000E+00 -0.00000000000E+00 -0.75602094865E+02  0.75602094865E+02  0.00000000000E+00 0. -1.
          1    1    1    2  501    0  0.12594948554E+02  0.23515220783E+02 -0.29456913236E+02  0.39740509243E+02  0.00000000000E+00 0. -1.
         -1    1    1    2    0  502 -0.12594948554E+02 -0.23515220783E+02 -0.36664727430E+02  0.45342039820E+02  0.00000000000E+00 0.  1.
<mgrwt>
<rscale>  2 0.26675801E+02</rscale>
<asrwt>0</asrwt>
<pdfrwt beam="1">  1       21 0.14585314E-02 0.26675801E+02</pdfrwt>
<pdfrwt beam="2">  1       21 0.11631091E-01 0.26675801E+02</pdfrwt>
<totfact> 0.91338554E+07</totfact>
</mgrwt>
</event>
<event>
 4    1  0.3862688E+004  0.3221373E+02  0.7546771E-02  0.1574833E+00
         21   -1    0    0  503  502  0.00000000000E+00  0.00000000000E+00  0.12084307287E+03  0.12084307287E+03  0.00000000000E+00 0.  1.
         21   -1    0    0  501  503 -0.00000000000E+00 -0.00000000000E+00 -0.99665254330E+01  0.99665254330E+01  0.00000000000E+00 0.  1.
          1    1    1    2  501    0 -0.45881648717E+01  0.31885313273E+02  0.79768377876E+02  0.86027429163E+02  0.00000000000E+00 0. -1.
         -1    1    1    2    0  502  0.45881648717E+01 -0.31885313273E+02  0.31108169560E+02  0.44782169139E+02  0.00000000000E+00 0.  1.
<mgrwt>
<rscale>  2 0.32213731E+02</rscale>
<asrwt>0</asrwt>
<pdfrwt beam="1">  1       21 0.18591241E-01 0.32213731E+02</pdfrwt>
<pdfrwt beam="2">  1       21 0.15333117E-02 0.32213731E+02</pdfrwt>
<totfact> 0.39463119E+07</totfact>
</mgrwt>
</event>
<event>
 4    1  0.3862688E+004  0.2293812E+02  0.7546771E-02  0.1692515E+00
         21   -1    0    0  503  502  0.00000000000E+00  0.00000000000E+00  0.30478396868E+02  0.30478396868E+02  0.00000000000E+00 0.  1.
         21   -1    0    0  501  503 -0.00000000000E+00 -0.00000000000E+00 -0.27416472180E+02  0.27416472180E+02  0.00000000000E+00 0.  1.
          4    1    1    2  501    0  0.48213953609E+01 -0.22425693035E+02 -0.16084955397E+02  0.28015769692E+02  0.00000000000E+00 0. -1.
         -4    1    1    2    0  502 -0.48213953609E+01  0.22425693035E+02  0.19146880085E+02  0.29879099356E+02  0.00000000000E+00 0.  1.
<mgrwt>
<rscale>  2 0.22938125E+02</rscale>
<asrwt>0</asrwt>
<pdfrwt beam="1">  1       21 0.46889841E-02 0.22938125E+02</pdfrwt>
<pdfrwt beam="2">  1       21 0.42179188E-02 0.22938125E+02</pdfrwt>
<totfact> 0.74340163E+07</totfact>
</mgrwt>
</event>
<event>
 4    1  0.3862688E+004  0.3049338E+02  0.7546771E-02  0.1592698E+00
         21   -1    0    0  503  502  0.00000000000E+00  0.00000000000E+00  0.23925429995E+02  0.23925429995E+02  0.00000000000E+00 0.  1.
         21   -1    0    0  501  503 -0.00000000000E+00 -0.00000000000E+00 -0.39026901729E+02  0.39026901729E+02  0.00000000000E+00 0.  1.
          4    1    1    2  501    0 -0.12567354631E+02 -0.27783232850E+02 -0.95820986814E+01  0.31963464224E+02  0.00000000000E+00 0. -1.
         -4    1    1    2    0  502  0.12567354631E+02  0.27783232850E+02 -0.55193730533E+01  0.30988867500E+02  0.00000000000E+00 0.  1.
<mgrwt>
<rscale>  2 0.30493383E+02</rscale>
<asrwt>0</asrwt>
<pdfrwt beam="1">  1       21 0.36808354E-02 0.30493383E+02</pdfrwt>
<pdfrwt beam="2">  1       21 0.60041386E-02 0.30493383E+02</pdfrwt>
<totfact> 0.66639885E+07</totfact>
</mgrwt>
</event>
<event>
 4    1  0.3862688E+004  0.2882181E+02  0.7546771E-02  0.1611489E+00
         21   -1    0    0  501  502  0.00000000000E+00  0.00000000000E+00  0.21603002574E+01  0.21603002574E+01  0.00000000000E+00 0. -1.
         21   -1    0    0  502  503 -0.00000000000E+00 -0.00000000000E+00 -0.59984034429E+03  0.59984034429E+03  0.00000000000E+00 0. -1.
          2    1    1    2  501    0  0.16480411276E+02 -0.23645139457E+02 -0.47917637858E+03  0.48004239226E+03  0.00000000000E+00 0.  1.
         -2    1    1    2    0  503 -0.16480411276E+02  0.23645139457E+02 -0.11850366545E+03  0.12195825229E+03  0.00000000000E+00 0. -1.
<mgrwt>
<rscale>  2 0.28821807E+02</rscale>
<asrwt>0</asrwt>
<pdfrwt beam="1">  1       21 0.33235366E-03 0.28821807E+02</pdfrwt>
<pdfrwt beam="2">  1       21 0.92283193E-01 0.28821807E+02</pdfrwt>
<totfact> 0.17417697E+07</totfact>
</mgrwt>
</event>
<event>
 4    1  0.3862688E+004  0.2422754E+02  0.7546771E-02  0.1672351E+00
         21   -1    0    0  503  502  0.00000000000E+00  0.00000000000E+00  0.60298647924E+03  0.60298647924E+03  0.00000000000E+00 0.  1.
         21   -1    0    0  501  503 -0.00000000000E+00 -0.00000000000E+00 -0.10025093344E+01  0.10025093344E+01  0.00000000000E+00 0.  1.
          4    1    1    2  501    0 -0.23973513669E+02 -0.34992228484E+01  0.24957126363E+03  0.25074447063E+03  0.00000000000E+00 0. -1.
         -4    1    1    2    0  502  0.23973513669E+02  0.34992228484E+01  0.35241270627E+03  0.35324451794E+03  0.00000000000E+00 0.  1.
<mgrwt>
<rscale>  2 0.24227545E+02</rscale>
<asrwt>0</asrwt>
<pdfrwt beam="1">  1       21 0.92766861E-01 0.24227545E+02</pdfrwt>
<pdfrwt beam="2">  1       21 0.15423269E-03 0.24227545E+02</pdfrwt>
<totfact> 0.50929074E+07</totfact>
</mgrwt>
</event>
<event>
 4    1  0.3862688E+004  0.2167230E+02  0.7546771E-02  0.1713982E+00
         21   -1    0    0  503  502  0.00000000000E+00  0.00000000000E+00  0.23564423893E+01  0.23564423893E+01  0.00000000000E+00 0.  1.
         21   -1    0    0  501  503 -0.00000000000E+00 -0.00000000000E+00 -0.21636032315E+03  0.21636032315E+03  0.00000000000E+00 0.  1.
          1    1    1    2  501    0 -0.18525740923E+02 -0.11246575127E+02 -0.76312495662E+02  0.79330230827E+02  0.00000000000E+00 0. -1.
         -1    1    1    2    0  502  0.18525740923E+02  0.11246575127E+02 -0.13769138510E+03  0.13938653472E+03  0.00000000000E+00 0.  1.
<mgrwt>
<rscale>  2 0.21672299E+02</rscale>
<asrwt>0</asrwt>
<pdfrwt beam="1">  1       21 0.36252968E-03 0.21672299E+02</pdfrwt>
<pdfrwt beam="2">  1       21 0.33286196E-01 0.21672299E+02</pdfrwt>
<totfact> 0.10952138E+08</totfact>
</mgrwt>
</event>
<event>
 4    1  0.3862688E+004  0.2438508E+02  0.7546771E-02  0.1669995E+00
         21   -1    0    0  501  502  0.00000000000E+00  0.00000000000E+00  0.68571030181E+02  0.68571030181E+02  0.00000000000E+00 0. -1.
         21   -1    0    0  502  503 -0.00000000000E+00 -0.00000000000E+00 -0.87405355517E+01  0.87405355517E+01  0.00000000000E+00 0. -1.
          4    1    1    2  501    0  0.17052063211E+02  0.17431561774E+02  0.33343957426E+02  0.41309220550E+02  0.00000000000E+00 0. -1.
         -4    1    1    2    0  503 -0.17052063211E+02 -0.17431561774E+02  0.26486537204E+02  0.36002345183E+02  0.00000000000E+00 0.  1.
<mgrwt>
<rscale>  2 0.24385082E+02</rscale>
<asrwt>0</asrwt>
<pdfrwt beam="1">  1       21 0.10549389E-01 0.24385082E+02</pdfrwt>
<pdfrwt beam="2">  1       21 0.13446978E-02 0.24385082E+02</pdfrwt>
<totfact> 0.11885689E+08</totfact>
</mgrwt>
</event>
<event>
 4    1  0.3862688E+004  0.3164387E+02  0.7546771E-02  0.1580598E+00
         21   -1    0    0  503  502  0.00000000000E+00  0.00000000000E+00  0.64368977368E+02  0.64368977368E+02  0.00000000000E+00 0. -1.
         21   -1    0    0  501  503 -0.00000000000E+00 -0.00000000000E+00 -0.18037873175E+02  0.18037873175E+02  0.00000000000E+00 0. -1.
          2    1    1    2  501    0 -0.24510098196E+02 -0.20014739003E+02  0.78823040763E+01  0.32610817354E+02  0.00000000000E+00 0.  1.
         -2    1    1    2    0  502  0.24510098196E+02  0.20014739003E+02  0.38448800117E+02  0.49796033189E+02  0.00000000000E+00 0. -1.
<mgrwt>
<rscale>  2 0.31643873E+02</rscale>
<asrwt>0</asrwt>
<pdfrwt beam="1">  1       21 0.99029195E-02 0.31643873E+02</pdfrwt>
<pdfrwt beam="2">  1       21 0.27750574E-02 0.31643873E+02</pdfrwt>
<totfact> 0.46001391E+07</totfact>
</mgrwt>
</event>
<event>
 4    1  0.3862688E+004  0.2003830E+02  0.7546771E-02  0.1744568E+00
         21   -1    0    0  503  502  0.00000000000E+00  0.00000000000E+00  0.19806923308E+02  0.19806923308E+02  0.00000000000E+00 0. -1.
         21   -1    0    0  501  503 -0.00000000000E+00 -0.00000000000E+00 -0.20963746468E+02  0.20963746468E+02  0.00000000000E+00 0. -1.
          3    1    1    2  501    0  0.12588772629E+02  0.15590258046E+02 -0.42804393890E+01  0.20490375878E+02  0.00000000000E+00 0. -1.
         -3    1    1    2    0  502 -0.12588772629E+02 -0.15590258046E+02  0.31236162290E+01  0.20280293898E+02  0.00000000000E+00 0.  1.
<mgrwt>
<rscale>  2 0.20038297E+02</rscale>
<asrwt>0</asrwt>
<pdfrwt beam="1">  1       21 0.30472190E-02 0.20038297E+02</pdfrwt>
<pdfrwt beam="2">  1       21 0.32251918E-02 0.20038297E+02</pdfrwt>
<totfact> 0.21349011E+08</totfact>
</mgrwt>
</event>
<event>
 4    1  0.3862688E+004  0.3905906E+02  0.7546771E-02  0.1515252E+00
         21   -1    0    0  501  502  0.00000000000E+00  0.00000000000E+00  0.38798888180E+02  0.38798888180E+02  0.00000000000E+00 0.  1.
         21   -1    0    0  502  503 -0.00000000000E+00 -0.00000000000E+00 -0.39904029489E+02  0.39904029489E+02  0.00000000000E+00 0.  1.
          1    1    1    2  501    0 -0.35112896154E+02  0.17108316486E+02 -0.53092995851E+01  0.39418252516E+02  0.00000000000E+00 0.  1.
         -1    1    1    2    0  503  0.35112896154E+02 -0.17108316486E+02  0.42041582764E+01  0.39284665153E+02  0.00000000000E+00 0. -1.
<mgrwt>
<rscale>  2 0.39059057E+02</rscale>
<asrwt>0</asrwt>
<pdfrwt beam="1">  1       21 0.59690597E-02 0.39059057E+02</pdfrwt>
<pdfrwt beam="2">  1       21 0.61390815E-02 0.39059057E+02</pdfrwt>
<totfact> 0.31009923E+07</totfact>
</mgrwt>
</event>
<event>
 4    1  0.3862688E+004  0.3261890E+02  0.7546771E-02  0.1570822E+00
         21   -1    0    0  501  502  0.00000000000E+00  0.00000000000E+00  0.18591534002E+03  0.18591534002E+03  0.00000000000E+00 0. -1.
         21   -1    0    0  502  503 -0.00000000000E+00 -0.00000000000E+00 -0.66233340782E+01  0.66233340782E+01  0.00000000000E+00 0. -1.
          1    1    1    2  501    0 -0.13724825686E+02  0.29590906383E+02  0.54152188432E+02  0.63217498311E+02  0.00000000000E+00 0.  1.
         -1    1    1    2    0  503  0.13724825686E+02 -0.29590906383E+02  0.12513981751E+03  0.12932117579E+03  0.00000000000E+00 0. -1.
<mgrwt>
<rscale>  2 0.32618899E+02</rscale>
<asrwt>0</asrwt>
<pdfrwt beam="1">  1       21 0.28602356E-01 0.32618899E+02</pdfrwt>
<pdfrwt beam="2">  1       21 0.10189746E-02 0.32618899E+02</pdfrwt>
<totfact> 0.34116303E+07</totfact>
</mgrwt>
</event>
<event>
 4    1  0.3862688E+004  0.2616278E+02  0.7546771E-02  0.1644841E+00
         21   -1    0    0  501  502  0.00000000000E+00  0.00000000000E+00  0.20179456327E+02  0.20179456327E+02  0.00000000000E+00 0. -1.
         21   -1    0    0  502  503 -0.00000000000E+00 -0.00000000000E+00 -0.34880697040E+02  0.34880697040E+02  0.00000000000E+00 0. -1.
          3    1    1    2  501    0 -0.63834181749E+01  0.25372094772E+02 -0.27822367434E+01  0.26310303344E+02  0.00000000000E+00 0. -1.
         -3    1    1    2    0  503  0.63834181749E+01 -0.25372094772E+02 -0.11919003969E+02  0.28749850023E+02  0.00000000000E+00 0.  1.
<mgrwt>
<rscale>  2 0.26162783E+02</rscale>
<asrwt>0</asrwt>
<pdfrwt beam="1">  1       21 0.31045317E-02 0.26162783E+02</pdfrwt>
<pdfrwt beam="2">  1       21 0.53662611E-02 0.26162783E+02</pdfrwt>
<totfact> 0.10057803E+08</totfact>
</mgrwt>
</event>
<event>
 4    1  0.3862688E+004  0.2623828E+02  0.7546771E-02  0.1643828E+00
         21   -1    0    0  503  502  0.00000000000E+00  0.00000000000E+00  0.41677486064E+02  0.41677486064E+02  0.00000000000E+00 0. -1.
         21   -1    0    0  501  503 -0.00000000000E+00 -0.00000000000E+00 -0.19338836529E+02  0.19338836529E+02  0.00000000000E+00 0. -1.
          5    1    1    2  501    0  0.15890431219E+02 -0.20879218084E+02  0.22820105428E+02  0.34773621667E+02  0.00000000000E+00 0.  1.
         -5    1    1    2    0  502 -0.15890431219E+02  0.20879218084E+02 -0.48145589293E+00  0.26242700926E+02  0.00000000000E+00 0. -1.
<mgrwt>
<rscale>  2 0.26238284E+02</rscale>
<asrwt>0</asrwt>
<pdfrwt beam="1">  1       21 0.64119209E-02 0.26238284E+02</pdfrwt>
<pdfrwt beam="2">  1       21 0.29752056E-02 0.26238284E+02</pdfrwt>
<totfact> 0.80737169E+07</totfact>
</mgrwt>
</event>
<event>
 4    1  0.3862688E+004  0.2293186E+02  0.7546771E-02  0.1692617E+00
         21   -1    0    0  501  502  0.00000000000E+00  0.00000000000E+00  0.96554046717E+01  0.96554046717E+01  0.00000000000E+00 0.  1.
         21   -1    0    0  502  503 -0.00000000000E+00 -0.00000000000E+00 -0.61361164089E+02  0.61361164089E+02  0.00000000000E+00 0.  1.
          4    1    1    2  501    0 -0.10828135825E+02 -0.20214395478E+02 -0.13948039956E+02  0.26840605965E+02  0.00000000000E+00 0. -1.
         -4    1    1    2    0  503  0.10828135825E+02  0.20214395478E+02 -0.37757719461E+02  0.44175962795E+02  0.00000000000E+00 0.  1.
<mgrwt>
<rscale>  2 0.22931862E+02</rscale>
<asrwt>0</asrwt>
<pdfrwt beam="1">  1       21 0.14854469E-02 0.22931862E+02</pdfrwt>
<pdfrwt beam="2">  1       21 0.94401791E-02 0.22931862E+02</pdfrwt>
<totfact> 0.12064858E+08</totfact>
</mgrwt>
</event>
<event>
 4    1  0.3862688E+004  0.2138114E+02  0.7546771E-02  0.1719180E+00
         21   -1    0    0  501  502  0.00000000000E+00  0.00000000000E+00  0.23643865774E+00  0.23643865774E+00  0.00000000000E+00 0.  1.
         21   -1    0    0  502  503 -0.00000000000E+00 -0.00000000000E+00 -0.19688114194E+04  0.19688114194E+04  0.00000000000E+00 0.  1.
          2    1    1    2  501    0 -0.32306259181E+01  0.21135665531E+02 -0.11161446573E+04  0.11163494297E+04  0.00000000000E+00 0.  1.
         -2    1    1    2    0  503  0.32306259181E+01 -0.21135665531E+02 -0.85243032347E+03  0.85269842833E+03  0.00000000000E+00 0. -1.
<mgrwt>
<rscale>  2 0.21381144E+02</rscale>
<asrwt>0</asrwt>
<pdfrwt beam="1">  1       21 0.36376152E-04 0.21381144E+02</pdfrwt>
<pdfrwt beam="2">  1       21 0.30288596E+00 0.21381144E+02</pdfrwt>
<totfact> 0.19563121E+07</totfact>
</mgrwt>
</event>
<event>
 4    1  0.3862688E+004  0.3083881E+02  0.7546771E-02  0.1588998E+00
         21   -1    0    0  501  502  0.00000000000E+00  0.00000000000E+00  0.12632301062E+03  0.12632301062E+03  0.00000000000E+00 0.  1.
         21   -1    0    0  502  503 -0.00000000000E+00 -0.00000000000E+00 -0.78752364439E+01  0.78752364439E+01  0.00000000000E+00 0.  1.
          2    1    1    2  501    0  0.30599251760E+02  0.38363835674E+01  0.73301819354E+02  0.79524768266E+02  0.00000000000E+00 0. -1.
         -2    1    1    2    0  503 -0.30599251760E+02 -0.38363835674E+01  0.45145954827E+02  0.54673478803E+02  0.00000000000E+00 0.  1.
<mgrwt>
<rscale>  2 0.30838807E+02</rscale>
<asrwt>0</asrwt>
<pdfrwt beam="1">  1       21 0.19434308E-01 0.30838807E+02</pdfrwt>
<pdfrwt beam="2">  1       21 0.12115749E-02 0.30838807E+02</pdfrwt>
<totfact> 0.51895076E+07</totfact>
</mgrwt>
</event>
<event>
 4    1  0.3862688E+004  0.3723042E+02  0.7546771E-02  0.1529641E+00
         21   -1    0    0  503  502  0.00000000000E+00  0.00000000000E+00  0.66296083906E+01  0.66296083906E+01  0.00000000000E+00 0.  1.
         21   -1    0    0  501  503 -0.00000000000E+00 -0.00000000000E+00 -0.20956316357E+03  0.20956316357E+03  0.00000000000E+00 0.  1.
          4    1    1    2  501    0  0.25357319788E+02  0.27260057545E+02 -0.10666860298E+03  0.11297918068E+03  0.00000000000E+00 0.  1.
         -4    1    1    2    0  502 -0.25357319788E+02 -0.27260057545E+02 -0.96264952193E+02  0.10321359128E+03  0.00000000000E+00 0. -1.
<mgrwt>
<rscale>  2 0.37230423E+02</rscale>
<asrwt>0</asrwt>
<pdfrwt beam="1">  1       21 0.10199398E-02 0.37230423E+02</pdfrwt>
<pdfrwt beam="2">  1       21 0.32240486E-01 0.37230423E+02</pdfrwt>
<totfact> 0.27944757E+07</totfact>
</mgrwt>
</event>
<event>
 4    1  0.3862688E+004  0.2569914E+02  0.7546771E-02  0.1651158E+00
         21   -1    0    0  503  502  0.00000000000E+00  0.00000000000E+00  0.62536993749E+01  0.62536993749E+01  0.00000000000E+00 0. -1.
         21   -1    0    0  501  503 -0.00000000000E+00 -0.00000000000E+00 -0.11335419315E+03  0.11335419315E+03  0.00000000000E+00 0. -1.
          4    1    1    2  501    0  0.85707110935E+01  0.24227853517E+02 -0.69182856736E+02  0.73801853912E+02  0.00000000000E+00 0.  1.
         -4    1    1    2    0  502 -0.85707110935E+01 -0.24227853517E+02 -0.37917637035E+02  0.45806038609E+02  0.00000000000E+00 0. -1.
<mgrwt>
<rscale>  2 0.25699143E+02</rscale>
<asrwt>0</asrwt>
<pdfrwt beam="1">  1       21 0.96210764E-03 0.25699143E+02</pdfrwt>
<pdfrwt beam="2">  1       21 0.17439106E-01 0.25699143E+02</pdfrwt>
<totfact> 0.85219902E+07</totfact>
</mgrwt>
</event>
<event>
 4    1  0.3862688E+004  0.2504083E+02  0.7546771E-02  0.1660416E+00
         21   -1    0    0  503  502  0.00000000000E+00  0.00000000000E+00  0.18953454090E+03  0.18953454090E+03  0.00000000000E+00 0. -1.
         21   -1    0    0  501  503 -0.00000000000E+00 -0.00000000000E+00 -0.33392836000E+01  0.33392836000E+01  0.00000000000E+00 0. -1.
          4    1    1    2  501    0 -0.97919697311E+01  0.23046921173E+02  0.83813183054E+02  0.87473955555E+02  0.00000000000E+00 0.  1.
         -4    1    1    2    0  502  0.97919697311E+01 -0.23046921173E+02  0.10238207424E+03  0.10539986894E+03  0.00000000000E+00 0. -1.
<mgrwt>
<rscale>  2 0.25040832E+02</rscale>
<asrwt>0</asrwt>
<pdfrwt beam="1">  1       21 0.29159152E-01 0.25040832E+02</pdfrwt>
<pdfrwt beam="2">  1       21 0.51373609E-03 0.25040832E+02</pdfrwt>
<totfact> 0.86818300E+07</totfact>
</mgrwt>
</event>
<event>
 4    1  0.3862688E+004  0.3001570E+02  0.7546771E-02  0.1597915E+00
         21   -1    0    0  501  502  0.00000000000E+00  0.00000000000E+00  0.18579195723E+01  0.18579195723E+01  0.00000000000E+00 0.  1.
         21   -1    0    0  502  503 -0.00000000000E+00 -0.00000000000E+00 -0.48545691420E+03  0.48545691420E+03  0.00000000000E+00 0.  1.
          4    1    1    2  501    0 -0.19662765449E+01 -0.29951228030E+02 -0.23369607032E+03  0.23561577958E+03  0.00000000000E+00 0. -1.
         -4    1    1    2    0  503  0.19662765449E+01  0.29951228030E+02 -0.24990292431E+03  0.25169905420E+03  0.00000000000E+00 0.  1.
<mgrwt>
<rscale>  2 0.30015701E+02</rscale>
<asrwt>0</asrwt>
<pdfrwt beam="1">  1       21 0.28583357E-03 0.30015701E+02</pdfrwt>
<pdfrwt beam="2">  1       21 0.74685733E-01 0.30015701E+02</pdfrwt>
<totfact> 0.34385162E+07</totfact>
</mgrwt>
</event>
<event>
 4    1  0.3862688E+004  0.2074065E+02  0.7546771E-02  0.1730988E+00
         21   -1    0    0  503  502  0.00000000000E+00  0.00000000000E+00  0.15109407557E+01  0.15109407557E+01  0.00000000000E+00 0. -1.
         21   -1    0    0  501  503 -0.00000000000E+00 -0.00000000000E+00 -0.30499694958E+03  0.30499694958E+03  0.00000000000E+00 0. -1.
          2    1    1    2  501    0  0.17998261670E+02 -0.10307133971E+02 -0.19127159335E+03  0.19239281914E+03  0.00000000000E+00 0.  1.
         -2    1    1    2    0  502 -0.17998261670E+02  0.10307133971E+02 -0.11221441547E+03  0.11411507119E+03  0.00000000000E+00 0. -1.
<mgrwt>
<rscale>  2 0.20740647E+02</rscale>
<asrwt>0</asrwt>
<pdfrwt beam="1">  1       21 0.23245254E-03 0.20740647E+02</pdfrwt>
<pdfrwt beam="2">  1       21 0.46922585E-01 0.20740647E+02</pdfrwt>
<totfact> 0.10836446E+08</totfact>
</mgrwt>
</event>
<event>
 4    1  0.3862688E+004  0.4461461E+02  0.7546771E-02  0.1476762E+00
         21   -1    0    0  501  502  0.00000000000E+00  0.00000000000E+00  0.17586365132E+02  0.17586365132E+02  0.00000000000E+00 0. -1.
         21   -1    0    0  502  503 -0.00000000000E+00 -0.00000000000E+00 -0.11934980151E+03  0.11934980151E+03  0.00000000000E+00 0. -1.
          3    1    1    2  501    0  0.37893727841E+02 -0.23548433217E+02 -0.66446241758E+02  0.80034782191E+02  0.00000000000E+00 0.  1.
         -3    1    1    2    0  503 -0.37893727841E+02  0.23548433217E+02 -0.35317194623E+02  0.56901384453E+02  0.00000000000E+00 0. -1.
<mgrwt>
<rscale>  2 0.44614609E+02</rscale>
<asrwt>0</asrwt>
<pdfrwt beam="1">  1       21 0.27055948E-02 0.44614609E+02</pdfrwt>
<pdfrwt beam="2">  1       21 0.18361507E-01 0.44614609E+02</pdfrwt>
<totfact> 0.17567325E+07</totfact>
</mgrwt>
</event>
<event>
 4    1  0.3862688E+004  0.2193961E+02  0.7546771E-02  0.1709299E+00
         21   -1    0    0  503  502  0.00000000000E+00  0.00000000000E+00  0.61055910269E+01  0.61055910269E+01  0.00000000000E+00 0. -1.
         21   -1    0    0  501  503 -0.00000000000E+00 -0.00000000000E+00 -0.78839286520E+02  0.78839286520E+02  0.00000000000E+00 0. -1.
          2    1    1    2  501    0 -0.46455817119E+01  0.21442132092E+02 -0.36595755422E+02  0.42668440011E+02  0.00000000000E+00 0.  1.
         -2    1    1    2    0  502  0.46455817119E+01 -0.21442132092E+02 -0.36137940071E+02  0.42276437535E+02  0.00000000000E+00 0. -1.
<mgrwt>
<rscale>  2 0.21939609E+02</rscale>
<asrwt>0</asrwt>
<pdfrwt beam="1">  1       21 0.93932175E-03 0.21939609E+02</pdfrwt>
<pdfrwt beam="2">  1       21 0.12129120E-01 0.21939609E+02</pdfrwt>
<totfact> 0.15677212E+08</totfact>
</mgrwt>
</event>
<event>
 4    1  0.3862688E+004  0.2370657E+02  0.7546771E-02  0.1680306E+00
         21   -1    0    0  503  502  0.00000000000E+00  0.00000000000E+00  0.17610215926E+03  0.17610215926E+03  0.00000000000E+00 0. -1.
         21   -1    0    0  501  503 -0.00000000000E+00 -0.00000000000E+00 -0.33085713795E+01  0.33085713795E+01  0.00000000000E+00 0. -1.
          2    1    1    2  501    0 -0.22326118362E+02 -0.79715549011E+01  0.10328278615E+03  0.10596855743E+03  0.00000000000E+00 0. -1.
         -2    1    1    2    0  502  0.22326118362E+02  0.79715549011E+01  0.69510801727E+02  0.73442173207E+02  0.00000000000E+00 0.  1.
<mgrwt>
<rscale>  2 0.23706566E+02</rscale>
<asrwt>0</asrwt>
<pdfrwt beam="1">  1       21 0.27092633E-01 0.23706566E+02</pdfrwt>
<pdfrwt beam="2">  1       21 0.50901112E-03 0.23706566E+02</pdfrwt>
<totfact> 0.99129493E+07</totfact>
</mgrwt>
</event>
<event>
 4    1  0.3862688E+004  0.2599772E+02  0.7546771E-02  0.1647071E+00
         21   -1    0    0  503  502  0.00000000000E+00  0.00000000000E+00  0.20296369742E+02  0.20296369742E+02  0.00000000000E+00 0. -1.
         21   -1    0    0  501  503 -0.00000000000E+00 -0.00000000000E+00 -0.39226051551E+02  0.39226051551E+02  0.00000000000E+00 0. -1.
          4    1    1    2  501    0  0.10595057449E+02  0.23740814368E+02 -0.21031917909E+02  0.33439842705E+02  0.00000000000E+00 0.  1.
         -4    1    1    2    0  502 -0.10595057449E+02 -0.23740814368E+02  0.21022360991E+01  0.26082578589E+02  0.00000000000E+00 0. -1.
<mgrwt>
<rscale>  2 0.25997721E+02</rscale>
<asrwt>0</asrwt>
<pdfrwt beam="1">  1       21 0.31225185E-02 0.25997721E+02</pdfrwt>
<pdfrwt beam="2">  1       21 0.60347771E-02 0.25997721E+02</pdfrwt>
<totfact> 0.82370212E+07</totfact>
</mgrwt>
</event>
<event>
 4    1  0.3862688E+004  0.2043309E+02  0.7546771E-02  0.1736850E+00
         21   -1    0    0  503  502  0.00000000000E+00  0.00000000000E+00  0.84854339974E+00  0.84854339974E+00  0.00000000000E+00 0.  1.
         21   -1    0    0  501  503 -0.00000000000E+00 -0.00000000000E+00 -0.52304887139E+03  0.52304887139E+03  0.00000000000E+00 0.  1.
          3    1    1    2  501    0 -0.17497320335E+02 -0.10552488912E+02 -0.19731230072E+03  0.19836747530E+03  0.00000000000E+00 0.  1.
         -3    1    1    2    0  502  0.17497320335E+02  0.10552488912E+02 -0.32488802727E+03  0.32552993949E+03  0.00000000000E+00 0. -1.
<mgrwt>
<rscale>  2 0.20433092E+02</rscale>
<asrwt>0</asrwt>
<pdfrwt beam="1">  1       21 0.13054519E-03 0.20433092E+02</pdfrwt>
<pdfrwt beam="2">  1       21 0.80469026E-01 0.20433092E+02</pdfrwt>
<totfact> 0.84010653E+07</totfact>
</mgrwt>
</event>
<event>
 4    1  0.3862688E+004  0.2070892E+02  0.7546771E-02  0.1731587E+00
         21   -1    0    0  503  502  0.00000000000E+00  0.00000000000E+00  0.43922611455E+02  0.43922611455E+02  0.00000000000E+00 0. -1.
         21   -1    0    0  501  503 -0.00000000000E+00 -0.00000000000E+00 -0.11342903130E+02  0.11342903130E+02  0.00000000000E+00 0. -1.
          2    1    1    2  501    0 -0.13187464391E+02  0.15967160688E+02  0.26599477519E+02  0.33710408508E+02  0.00000000000E+00 0. -1.
         -2    1    1    2    0  502  0.13187464391E+02 -0.15967160688E+02  0.59802308054E+01  0.21555106077E+02  0.00000000000E+00 0.  1.
<mgrwt>
<rscale>  2 0.20708922E+02</rscale>
<asrwt>0</asrwt>
<pdfrwt beam="1">  1       21 0.67573247E-02 0.20708922E+02</pdfrwt>
<pdfrwt beam="2">  1       21 0.17450620E-02 0.20708922E+02</pdfrwt>
<totfact> 0.15783565E+08</totfact>
</mgrwt>
</event>
<event>
 4    1  0.3862688E+004  0.2476962E+02  0.7546771E-02  0.1664333E+00
         21   -1    0    0  501  502  0.00000000000E+00  0.00000000000E+00  0.21691903315E+03  0.21691903315E+03  0.00000000000E+00 0. -1.
         21   -1    0    0  502  503 -0.00000000000E+00 -0.00000000000E+00 -0.31057455539E+01  0.31057455539E+01  0.00000000000E+00 0. -1.
          3    1    1    2  501    0  0.21922070819E+02  0.11530701113E+02  0.74031505296E+02  0.78065344639E+02  0.00000000000E+00 0. -1.
         -3    1    1    2    0  503 -0.21922070819E+02 -0.11530701113E+02  0.13978178230E+03  0.14195943407E+03  0.00000000000E+00 0.  1.
<mgrwt>
<rscale>  2 0.24769624E+02</rscale>
<asrwt>0</asrwt>
<pdfrwt beam="1">  1       21 0.33372147E-01 0.24769624E+02</pdfrwt>
<pdfrwt beam="2">  1       21 0.47780718E-03 0.24769624E+02</pdfrwt>
<totfact> 0.75258121E+07</totfact>
</mgrwt>
</event>
<event>
 4    1  0.3862688E+004  0.8942630E+02  0.7546771E-02  0.1304247E+00
         21   -1    0    0  503  502  0.00000000000E+00  0.00000000000E+00  0.64303913763E+02  0.64303913763E+02  0.00000000000E+00 0. -1.
         21   -1    0    0  501  503 -0.00000000000E+00 -0.00000000000E+00 -0.13122179674E+03  0.13122179674E+03  0.00000000000E+00 0. -1.
          1    1    1    2  501    0 -0.59351708926E+02  0.66891243971E+02 -0.55808914745E+02  0.10541204313E+03  0.00000000000E+00 0.  1.
         -1    1    1    2    0  502  0.59351708926E+02 -0.66891243971E+02 -0.11108968236E+02  0.90113667374E+02  0.00000000000E+00 0. -1.
<mgrwt>
<rscale>  2 0.89426304E+02</rscale>
<asrwt>0</asrwt>
<pdfrwt beam="1">  1       21 0.98929098E-02 0.89426304E+02</pdfrwt>
<pdfrwt beam="2">  1       21 0.20187969E-01 0.89426304E+02</pdfrwt>
<totfact> 0.18453360E+06</totfact>
</mgrwt>
</event>
<event>
 4    1  0.3862688E+004  0.2246028E+02  0.7546771E-02  0.1700411E+00
         21   -1    0    0  503  502  0.00000000000E+00  0.00000000000E+00  0.14333767380E+03  0.14333767380E+03  0.00000000000E+00 0. -1.
         21   -1    0    0  501  503 -0.00000000000E+00 -0.00000000000E+00 -0.37156301293E+01  0.37156301293E+01  0.00000000000E+00 0. -1.
          2    1    1    2  501    0  0.64254463811E+01  0.21521565192E+02  0.86707634955E+02  0.89569403755E+02  0.00000000000E+00 0. -1.
         -2    1    1    2    0  502 -0.64254463811E+01 -0.21521565192E+02  0.52914408712E+02  0.57483900171E+02  0.00000000000E+00 0.  1.
<mgrwt>
<rscale>  2 0.22460279E+02</rscale>
<asrwt>0</asrwt>
<pdfrwt beam="1">  1       21 0.22051946E-01 0.22460279E+02</pdfrwt>
<pdfrwt beam="2">  1       21 0.57163552E-03 0.22460279E+02</pdfrwt>
<totfact> 0.11866961E+08</totfact>
</mgrwt>
</event>
<event>
 4    1  0.3862688E+004  0.2554479E+02  0.7546771E-02  0.1653298E+00
         21   -1    0    0  501  502  0.00000000000E+00  0.00000000000E+00  0.14563386892E+04  0.14563386892E+04  0.00000000000E+00 0. -1.
         21   -1    0    0  502  503 -0.00000000000E+00 -0.00000000000E+00 -0.61735864199E+00  0.61735864199E+00  0.00000000000E+00 0. -1.
          1    1    1    2  501    0  0.91005157455E+01  0.23868746550E+02  0.11093357727E+04  0.11096298450E+04  0.00000000000E+00 0.  1.
         -1    1    1    2    0  503 -0.91005157455E+01 -0.23868746550E+02  0.34638555790E+03  0.34732620283E+03  0.00000000000E+00 0. -1.
<mgrwt>
<rscale>  2 0.25544793E+02</rscale>
<asrwt>0</asrwt>
<pdfrwt beam="1">  1       21 0.22404936E+00 0.25544793E+02</pdfrwt>
<pdfrwt beam="2">  1       21 0.94979418E-04 0.25544793E+02</pdfrwt>
<totfact> 0.12540675E+07</totfact>
</mgrwt>
</event>
<event>
 4    1  0.3862688E+004  0.7314527E+02  0.7546771E-02  0.1349713E+00
         21   -1    0    0  501  502  0.00000000000E+00  0.00000000000E+00  0.30550653455E+02  0.30550653455E+02  0.00000000000E+00 0. -1.
         21   -1    0    0  502  503 -0.00000000000E+00 -0.00000000000E+00 -0.18436050050E+03  0.18436050050E+03  0.00000000000E+00 0. -1.
          2    1    1    2  501    0  0.72921731050E+02 -0.57141481548E+01 -0.10095347594E+03  0.12466689478E+03  0.00000000000E+00 0.  1.
         -2    1    1    2    0  503 -0.72921731050E+02  0.57141481548E+01 -0.52856371100E+02  0.90244259177E+02  0.00000000000E+00 0. -1.
<mgrwt>
<rscale>  2 0.73145269E+02</rscale>
<asrwt>0</asrwt>
<pdfrwt beam="1">  1       21 0.47001005E-02 0.73145269E+02</pdfrwt>
<pdfrwt beam="2">  1       21 0.28363154E-01 0.73145269E+02</pdfrwt>
<totfact> 0.34127561E+06</totfact>
</mgrwt>
</event>
<event>
 4    1  0.3862688E+004  0.2381359E+02  0.7546771E-02  0.1678652E+00
         21   -1    0    0  503  502  0.00000000000E+00  0.00000000000E+00  0.24317856105E+03  0.24317856105E+03  0.00000000000E+00 0.  1.
         21   -1    0    0  501  503 -0.00000000000E+00 -0.00000000000E+00 -0.23639285279E+01  0.23639285279E+01  0.00000000000E+00 0.  1.
          5    1    1    2  501    0  0.14383482097E+01  0.23770113543E+02  0.10613429147E+03  0.10877304340E+03  0.00000000000E+00 0. -1.
         -5    1    1    2    0  502 -0.14383482097E+01 -0.23770113543E+02  0.13468034105E+03  0.13676944618E+03  0.00000000000E+00 0.  1.
<mgrwt>
<rscale>  2 0.23813592E+02</rscale>
<asrwt>0</asrwt>
<pdfrwt beam="1">  1       21 0.37412067E-01 0.23813592E+02</pdfrwt>
<pdfrwt beam="2">  1       21 0.36368150E-03 0.23813592E+02</pdfrwt>
<totfact> 0.90026930E+07</totfact>
</mgrwt>
</event>
<event>
 4    1  0.3862688E+004  0.4114517E+02  0.7546771E-02  0.1499949E+00
         21   -1    0    0  501  502  0.00000000000E+00  0.00000000000E+00  0.29475587677E+03  0.29475587677E+03  0.00000000000E+00 0.  1.
         21   -1    0    0  502  503 -0.00000000000E+00 -0.00000000000E+00 -0.66317254447E+01  0.66317254447E+01  0.00000000000E+00 0.  1.
          4    1    1    2  501    0 -0.31780865598E+02  0.26132383579E+02  0.19921242605E+03  0.20341709757E+03  0.00000000000E+00 0. -1.
         -4    1    1    2    0  503  0.31780865598E+02 -0.26132383579E+02  0.88911725278E+02  0.97970504651E+02  0.00000000000E+00 0.  1.
<mgrwt>
<rscale>  2 0.41145168E+02</rscale>
<asrwt>0</asrwt>
<pdfrwt beam="1">  1       21 0.45347048E-01 0.41145168E+02</pdfrwt>
<pdfrwt beam="2">  1       21 0.10202657E-02 0.41145168E+02</pdfrwt>
<totfact> 0.14760868E+07</totfact>
</mgrwt>
</event>
<event>
 4    1  0.3862688E+004  0.4310155E+02  0.7546771E-02  0.1486554E+00
         21   -1    0    0  503  502  0.00000000000E+00  0.00000000000E+00  0.46356813867E+02  0.46356813867E+02  0.00000000000E+00 0.  1.
         21   -1    0    0  501  503 -0.00000000000E+00 -0.00000000000E+00 -0.40082015001E+02  0.40082015001E+02  0.00000000000E+00 0.  1.
          5    1    1    2  501    0 -0.43088418271E+02 -0.10638197533E+01  0.37142536836E+01  0.43261289648E+02  0.00000000000E+00 0. -1.
         -5    1    1    2    0  502  0.43088418271E+02  0.10638197533E+01  0.25605451822E+01  0.43177539221E+02  0.00000000000E+00 0.  1.
<mgrwt>
<rscale>  2 0.43101549E+02</rscale>
<asrwt>0</asrwt>
<pdfrwt beam="1">  1       21 0.71318175E-02 0.43101549E+02</pdfrwt>
<pdfrwt beam="2">  1       21 0.61664638E-02 0.43101549E+02</pdfrwt>
<totfact> 0.23347733E+07</totfact>
</mgrwt>
</event>
<event>
 4    1  0.3862688E+004  0.2483859E+02  0.7546771E-02  0.1663331E+00
         21   -1    0    0  503  502  0.00000000000E+00  0.00000000000E+00  0.85810192431E+01  0.85810192431E+01  0.00000000000E+00 0. -1.
         21   -1    0    0  501  503 -0.00000000000E+00 -0.00000000000E+00 -0.71907524875E+02  0.71907524875E+02  0.00000000000E+00 0. -1.
          4    1    1    2  501    0  0.22418427680E+02 -0.10694366775E+02 -0.32134132286E+02  0.40614749022E+02  0.00000000000E+00 0. -1.
         -4    1    1    2    0  502 -0.22418427680E+02  0.10694366775E+02 -0.31192373346E+02  0.39873795096E+02  0.00000000000E+00 0.  1.
<mgrwt>
<rscale>  2 0.24838587E+02</rscale>
<asrwt>0</asrwt>
<pdfrwt beam="1">  1       21 0.13201568E-02 0.24838587E+02</pdfrwt>
<pdfrwt beam="2">  1       21 0.11062696E-01 0.24838587E+02</pdfrwt>
<totfact> 0.11348229E+08</totfact>
</mgrwt>
</event>
<event>
 4    1  0.3862688E+004  0.2102905E+02  0.7546771E-02  0.1725606E+00
         21   -1    0    0  501  502  0.00000000000E+00  0.00000000000E+00  0.33317106552E+02  0.33317106552E+02  0.00000000000E+00 0.  1.
         21   -1    0    0  502  503 -0.00000000000E+00 -0.00000000000E+00 -0.16313769179E+02  0.16313769179E+02  0.00000000000E+00 0.  1.
          1    1    1    2  501    0  0.17523458826E+02  0.11625376080E+02 -0.22117982553E+01  0.21145047405E+02  0.00000000000E+00 0.  1.
         -1    1    1    2    0  503 -0.17523458826E+02 -0.11625376080E+02  0.19215135629E+02  0.28485828327E+02  0.00000000000E+00 0. -1.
<mgrwt>
<rscale>  2 0.21029051E+02</rscale>
<asrwt>0</asrwt>
<pdfrwt beam="1">  1       21 0.51257087E-02 0.21029051E+02</pdfrwt>
<pdfrwt beam="2">  1       21 0.25098106E-02 0.21029051E+02</pdfrwt>
<totfact> 0.14139929E+08</totfact>
</mgrwt>
</event>
<event>
 4    1  0.3862688E+004  0.2399813E+02  0.7546771E-02  0.1675824E+00
         21   -1    0    0  501  502  0.00000000000E+00  0.00000000000E+00  0.51380022778E+02  0.51380022778E+02  0.00000000000E+00 0.  1.
         21   -1    0    0  502  503 -0.00000000000E+00 -0.00000000000E+00 -0.11334384992E+02  0.11334384992E+02  0.00000000000E+00 0.  1.
          5    1    1    2  501    0  0.21013458462E+02 -0.11590713248E+02  0.16722537383E+02  0.29249843190E+02  0.00000000000E+00 0. -1.
         -5    1    1    2    0  503 -0.21013458462E+02  0.11590713248E+02  0.23323100404E+02  0.33464564580E+02  0.00000000000E+00 0.  1.
<mgrwt>
<rscale>  2 0.23998126E+02</rscale>
<asrwt>0</asrwt>
<pdfrwt beam="1">  1       21 0.79046188E-02 0.23998126E+02</pdfrwt>
<pdfrwt beam="2">  1       21 0.17437516E-02 0.23998126E+02</pdfrwt>
<totfact> 0.12812489E+08</totfact>
</mgrwt>
</event>
<event>
 4    1  0.3862688E+004  0.2330461E+02  0.7546771E-02  0.1686620E+00
         21   -1    0    0  501  502  0.00000000000E+00  0.00000000000E+00  0.22008268314E+02  0.22008268314E+02  0.00000000000E+00 0. -1.
         21   -1    0    0  502  503 -0.00000000000E+00 -0.00000000000E+00 -0.24771728079E+02  0.24771728079E+02  0.00000000000E+00 0. -1.
          3    1    1    2  501    0  0.47582084879E+01 -0.22813685299E+02  0.62337410488E-01  0.23304692036E+02  0.00000000000E+00 0.  1.
         -3    1    1    2    0  503 -0.47582084879E+01  0.22813685299E+02 -0.28257971748E+01  0.23475304357E+02  0.00000000000E+00 0. -1.
<mgrwt>
<rscale>  2 0.23304609E+02</rscale>
<asrwt>0</asrwt>
<pdfrwt beam="1">  1       21 0.33858874E-02 0.23304609E+02</pdfrwt>
<pdfrwt beam="2">  1       21 0.38110351E-02 0.23304609E+02</pdfrwt>
<totfact> 0.14639313E+08</totfact>
</mgrwt>
</event>
<event>
 4    1  0.3862688E+004  0.2363002E+02  0.7546771E-02  0.1681497E+00
         21   -1    0    0  503  502  0.00000000000E+00  0.00000000000E+00  0.14020756898E+01  0.14020756898E+01  0.00000000000E+00 0.  1.
         21   -1    0    0  501  503 -0.00000000000E+00 -0.00000000000E+00 -0.40445582785E+03  0.40445582785E+03  0.00000000000E+00 0.  1.
          4    1    1    2  501    0 -0.22748366480E+02 -0.63944982925E+01 -0.17639182271E+03  0.17796756138E+03  0.00000000000E+00 0.  1.
         -4    1    1    2    0  502  0.22748366480E+02  0.63944982925E+01 -0.22666192945E+03  0.22789034216E+03  0.00000000000E+00 0. -1.
<mgrwt>
<rscale>  2 0.23630019E+02</rscale>
<asrwt>0</asrwt>
<pdfrwt beam="1">  1       21 0.21570396E-03 0.23630019E+02</pdfrwt>
<pdfrwt beam="2">  1       21 0.62223971E-01 0.23630019E+02</pdfrwt>
<totfact> 0.71727976E+07</totfact>
</mgrwt>
</event>
<event>
 4    1  0.3862688E+004  0.2133039E+02  0.7546771E-02  0.1720097E+00
         21   -1    0    0  503  502  0.00000000000E+00  0.00000000000E+00  0.13701857148E+03  0.13701857148E+03  0.00000000000E+00 0. -1.
         21   -1    0    0  501  503 -0.00000000000E+00 -0.00000000000E+00 -0.33246967372E+01  0.33246967372E+01  0.00000000000E+00 0. -1.
          5    1    1    2  501    0  0.15231435439E+02 -0.14932808311E+02  0.64387049086E+02  0.67828294093E+02  0.00000000000E+00 0. -1.
         -5    1    1    2    0  502 -0.15231435439E+02  0.14932808311E+02  0.69306825653E+02  0.72514974120E+02  0.00000000000E+00 0.  1.
<mgrwt>
<rscale>  2 0.21330387E+02</rscale>
<asrwt>0</asrwt>
<pdfrwt beam="1">  1       21 0.21079776E-01 0.21330387E+02</pdfrwt>
<pdfrwt beam="2">  1       21 0.51149191E-03 0.21330387E+02</pdfrwt>
<totfact> 0.14908152E+08</totfact>
</mgrwt>
</event>
<event>
 4    1  0.3862688E+004  0.2910575E+02  0.7546771E-02  0.1608189E+00
         21   -1    0    0  503  502  0.00000000000E+00  0.00000000000E+00  0.36915245747E+02  0.36915245747E+02  0.00000000000E+00 0.  1.
         21   -1    0    0  501  503 -0.00000000000E+00 -0.00000000000E+00 -0.23526078564E+02  0.23526078564E+02  0.00000000000E+00 0.  1.
          4    1    1    2  501    0 -0.36402368454E+01 -0.28877208321E+02  0.19588639622E+01  0.29171589479E+02  0.00000000000E+00 0. -1.
         -4    1    1    2    0  502  0.36402368454E+01  0.28877208321E+02  0.11430303221E+02  0.31269734832E+02  0.00000000000E+00 0.  1.
<mgrwt>
<rscale>  2 0.29105747E+02</rscale>
<asrwt>0</asrwt>
<pdfrwt beam="1">  1       21 0.56792686E-02 0.29105747E+02</pdfrwt>
<pdfrwt beam="2">  1       21 0.36193967E-02 0.29105747E+02</pdfrwt>
<totfact> 0.74086605E+07</totfact>
</mgrwt>
</event>
<event>
 4    1  0.3862688E+004  0.2110751E+02  0.7546771E-02  0.1724160E+00
         21   -1    0    0  503  502  0.00000000000E+00  0.00000000000E+00  0.11708707741E+03  0.11708707741E+03  0.00000000000E+00 0. -1.
         21   -1    0    0  501  503 -0.00000000000E+00 -0.00000000000E+00 -0.76898832164E+01  0.76898832164E+01  0.00000000000E+00 0. -1.
          4    1    1    2  501    0 -0.77029907228E+01  0.19651740477E+02  0.10355253257E+02  0.23510811128E+02  0.00000000000E+00 0. -1.
         -4    1    1    2    0  502  0.77029907228E+01 -0.19651740477E+02  0.99041940938E+02  0.10126614950E+03  0.00000000000E+00 0.  1.
<mgrwt>
<rscale>  2 0.21107510E+02</rscale>
<asrwt>0</asrwt>
<pdfrwt beam="1">  1       21 0.18013395E-01 0.21107510E+02</pdfrwt>
<pdfrwt beam="2">  1       21 0.11830590E-02 0.21107510E+02</pdfrwt>
<totfact> 0.56081615E+07</totfact>
</mgrwt>
</event>
<event>
 4    1  0.3862688E+004  0.2801802E+02  0.7546771E-02  0.1621090E+00
         21   -1    0    0  501  502  0.00000000000E+00  0.00000000000E+00  0.42716678559E+02  0.42716678559E+02  0.00000000000E+00 0.  1.
         21   -1    0    0  502  503 -0.00000000000E+00 -0.00000000000E+00 -0.19936398101E+02  0.19936398101E+02  0.00000000000E+00 0.  1.
          3    1    1    2  501    0  0.27616088342E+02 -0.47287239277E+01  0.20151106935E+02  0.34511972937E+02  0.00000000000E+00 0. -1.
         -3    1    1    2    0  503 -0.27616088342E+02  0.47287239277E+01  0.26291735231E+01  0.28141103722E+02  0.00000000000E+00 0.  1.
<mgrwt>
<rscale>  2 0.28018015E+02</rscale>
<asrwt>0</asrwt>
<pdfrwt beam="1">  1       21 0.65717967E-02 0.28018015E+02</pdfrwt>
<pdfrwt beam="2">  1       21 0.30671382E-02 0.28018015E+02</pdfrwt>
<totfact> 0.75195536E+07</totfact>
</mgrwt>
</event>
<event>
 4    1  0.3862688E+004  0.2091661E+02  0.7546771E-02  0.1727691E+00
         21   -1    0    0  501  502  0.00000000000E+00  0.00000000000E+00  0.76966758772E+01  0.76966758772E+01  0.00000000000E+00 0.  1.
         21   -1    0    0  502  503 -0.00000000000E+00 -0.00000000000E+00 -0.61348943737E+02  0.61348943737E+02  0.00000000000E+00 0.  1.
          5    1    1    2  501    0 -0.19966385393E+02 -0.62328122563E+01 -0.36181930604E+02  0.41792781631E+02  0.00000000000E+00 0. -1.
         -5    1    1    2    0  503  0.19966385393E+02  0.62328122563E+01 -0.17470337256E+02  0.27252837983E+02  0.00000000000E+00 0.  1.
<mgrwt>
<rscale>  2 0.20916608E+02</rscale>
<asrwt>0</asrwt>
<pdfrwt beam="1">  1       21 0.11841040E-02 0.20916608E+02</pdfrwt>
<pdfrwt beam="2">  1       21 0.94382989E-02 0.20916608E+02</pdfrwt>
<totfact> 0.16537893E+08</totfact>
</mgrwt>
</event>
<event>
 4    1  0.3862688E+004  0.2436395E+02  0.7546771E-02  0.1670309E+00
         21   -1    0    0  503  502  0.00000000000E+00  0.00000000000E+00  0.25955711725E+01  0.25955711725E+01  0.00000000000E+00 0.  1.
         21   -1    0    0  501  503 -0.00000000000E+00 -0.00000000000E+00 -0.24723334197E+03  0.24723334197E+03  0.00000000000E+00 0.  1.
          3    1    1    2  501    0  0.40010601119E+01 -0.24033175850E+02 -0.15652148294E+03  0.15840636554E+03  0.00000000000E+00 0.  1.
         -3    1    1    2    0  502 -0.40010601119E+01  0.24033175850E+02 -0.88116287859E+02  0.91422547599E+02  0.00000000000E+00 0. -1.
<mgrwt>
<rscale>  2 0.24363949E+02</rscale>
<asrwt>0</asrwt>
<pdfrwt beam="1">  1       21 0.39931867E-03 0.24363949E+02</pdfrwt>
<pdfrwt beam="2">  1       21 0.38035896E-01 0.24363949E+02</pdfrwt>
<totfact> 0.76536902E+07</totfact>
</mgrwt>
</event>
<event>
 4    1  0.3862688E+004  0.2700349E+02  0.7546771E-02  0.1633788E+00
         21   -1    0    0  501  502  0.00000000000E+00  0.00000000000E+00  0.20040305418E+01  0.20040305418E+01  0.00000000000E+00 0. -1.
         21   -1    0    0  502  503 -0.00000000000E+00 -0.00000000000E+00 -0.36689908019E+03  0.36689908019E+03  0.00000000000E+00 0. -1.
          1    1    1    2  501    0  0.26415087005E+02 -0.56063880984E+01 -0.16566281241E+03  0.16784920561E+03  0.00000000000E+00 0.  1.
         -1    1    1    2    0  503 -0.26415087005E+02  0.56063880984E+01 -0.19923223724E+03  0.20105390513E+03  0.00000000000E+00 0. -1.
<mgrwt>
<rscale>  2 0.27003489E+02</rscale>
<asrwt>0</asrwt>
<pdfrwt beam="1">  1       21 0.30831266E-03 0.27003489E+02</pdfrwt>
<pdfrwt beam="2">  1       21 0.56445963E-01 0.27003489E+02</pdfrwt>
<totfact> 0.53404041E+07</totfact>
</mgrwt>
</event>
<event>
 4    1  0.3862688E+004  0.2117909E+02  0.7546771E-02  0.1722848E+00
         21   -1    0    0  503  502  0.00000000000E+00  0.00000000000E+00  0.87735320323E+00  0.87735320323E+00  0.00000000000E+00 0. -1.
         21   -1    0    0  501  503 -0.00000000000E+00 -0.00000000000E+00 -0.66194148117E+03  0.66194148117E+03  0.00000000000E+00 0. -1.
          1    1    1    2  501    0  0.18391454889E+02  0.10502770265E+02 -0.17241164834E+03  0.17370759994E+03  0.00000000000E+00 0.  1.
         -1    1    1    2    0  502 -0.18391454889E+02 -0.10502770265E+02 -0.48865247963E+03  0.48911123443E+03  0.00000000000E+00 0. -1.
<mgrwt>
<rscale>  2 0.21179089E+02</rscale>
<asrwt>0</asrwt>
<pdfrwt beam="1">  1       21 0.13497707E-03 0.21179089E+02</pdfrwt>
<pdfrwt beam="2">  1       21 0.10183741E+00 0.21179089E+02</pdfrwt>
<totfact> 0.48867144E+07</totfact>
</mgrwt>
</event>
<event>
 4    1  0.3862688E+004  0.2547889E+02  0.7546771E-02  0.1654217E+00
         21   -1    0    0  501  502  0.00000000000E+00  0.00000000000E+00  0.93315824127E+00  0.93315824127E+00  0.00000000000E+00 0. -1.
         21   -1    0    0  502  503 -0.00000000000E+00 -0.00000000000E+00 -0.70046012571E+03  0.70046012571E+03  0.00000000000E+00 0. -1.
          5    1    1    2  501    0  0.91674753278E+01  0.23772484456E+02 -0.37875338853E+03  0.37960940839E+03  0.00000000000E+00 0.  1.
         -5    1    1    2    0  503 -0.91674753278E+01 -0.23772484456E+02 -0.32077357894E+03  0.32178387556E+03  0.00000000000E+00 0. -1.
<mgrwt>
<rscale>  2 0.25478886E+02</rscale>
<asrwt>0</asrwt>
<pdfrwt beam="1">  1       21 0.14356282E-03 0.25478886E+02</pdfrwt>
<pdfrwt beam="2">  1       21 0.10776308E+00 0.25478886E+02</pdfrwt>
<totfact> 0.41048726E+07</totfact>
</mgrwt>
</event>
<event>
 4    1  0.3862688E+004  0.2066619E+02  0.7546771E-02  0.1732396E+00
         21   -1    0    0  503  502  0.00000000000E+00  0.00000000000E+00  0.14997519520E+02  0.14997519520E+02  0.00000000000E+00 0.  1.
         21   -1    0    0  501  503 -0.00000000000E+00 -0.00000000000E+00 -0.32593311312E+02  0.32593311312E+02  0.00000000000E+00 0.  1.
          3    1    1    2  501    0 -0.55606173669E+01  0.19904048058E+02 -0.34203718144E+00  0.20669024748E+02  0.00000000000E+00 0.  1.
         -3    1    1    2    0  502  0.55606173669E+01 -0.19904048058E+02 -0.17253754611E+02  0.26921806083E+02  0.00000000000E+00 0. -1.
<mgrwt>
<rscale>  2 0.20666194E+02</rscale>
<asrwt>0</asrwt>
<pdfrwt beam="1">  1       21 0.23073107E-02 0.20666194E+02</pdfrwt>
<pdfrwt beam="2">  1       21 0.50143556E-02 0.20666194E+02</pdfrwt>
<totfact> 0.16574570E+08</totfact>
</mgrwt>
</event>
<event>
 4    1  0.3862688E+004  0.2183455E+02  0.7546771E-02  0.1711129E+00
         21   -1    0    0  501  502  0.00000000000E+00  0.00000000000E+00  0.19267583449E+02  0.19267583449E+02  0.00000000000E+00 0. -1.
         21   -1    0    0  502  503 -0.00000000000E+00 -0.00000000000E+00 -0.26965215415E+02  0.26965215415E+02  0.00000000000E+00 0. -1.
          4    1    1    2  501    0  0.22797382414E+01  0.21715206049E+02 -0.10484150411E+02  0.24221164093E+02  0.00000000000E+00 0.  1.
         -4    1    1    2    0  503 -0.22797382414E+01 -0.21715206049E+02  0.27865184452E+01  0.22011634770E+02  0.00000000000E+00 0. -1.
<mgrwt>
<rscale>  2 0.21834546E+02</rscale>
<asrwt>0</asrwt>
<pdfrwt beam="1">  1       21 0.29642436E-02 0.21834546E+02</pdfrwt>
<pdfrwt beam="2">  1       21 0.41484947E-02 0.21834546E+02</pdfrwt>
<totfact> 0.15450265E+08</totfact>
</mgrwt>
</event>
<event>
 4    1  0.3862688E+004  0.2059796E+02  0.7546771E-02  0.1733692E+00
         21   -1    0    0  501  502  0.00000000000E+00  0.00000000000E+00  0.26348824636E+01  0.26348824636E+01  0.00000000000E+00 0.  1.
         21   -1    0    0  502  503 -0.00000000000E+00 -0.00000000000E+00 -0.17709241666E+03  0.17709241666E+03  0.00000000000E+00 0.  1.
          4    1    1    2  501    0  0.16845129825E+02 -0.11854008832E+02 -0.11429875093E+03  0.11613991729E+03  0.00000000000E+00 0.  1.
         -4    1    1    2    0  503 -0.16845129825E+02  0.11854008832E+02 -0.60158783262E+02  0.63587381828E+02  0.00000000000E+00 0. -1.
<mgrwt>
<rscale>  2 0.20597959E+02</rscale>
<asrwt>0</asrwt>
<pdfrwt beam="1">  1       21 0.40536660E-03 0.20597959E+02</pdfrwt>
<pdfrwt beam="2">  1       21 0.27244983E-01 0.20597959E+02</pdfrwt>
<totfact> 0.13185269E+08</totfact>
</mgrwt>
</event>
<event>
 4    1  0.3862688E+004  0.3745602E+02  0.7546771E-02  0.1527813E+00
         21   -1    0    0  501  502  0.00000000000E+00  0.00000000000E+00  0.58751189561E+01  0.58751189561E+01  0.00000000000E+00 0. -1.
         21   -1    0    0  502  503 -0.00000000000E+00 -0.00000000000E+00 -0.24527080474E+03  0.24527080474E+03  0.00000000000E+00 0. -1.
          4    1    1    2  501    0 -0.30334088075E+02  0.21972638321E+02 -0.99294880041E+02  0.10612458215E+03  0.00000000000E+00 0. -1.
         -4    1    1    2    0  503  0.30334088075E+02 -0.21972638321E+02 -0.14010080574E+03  0.14502134154E+03  0.00000000000E+00 0.  1.
<mgrwt>
<rscale>  2 0.37456024E+02</rscale>
<asrwt>0</asrwt>
<pdfrwt beam="1">  1       21 0.90386456E-03 0.37456024E+02</pdfrwt>
<pdfrwt beam="2">  1       21 0.37733965E-01 0.37456024E+02</pdfrwt>
<totfact> 0.24985810E+07</totfact>
</mgrwt>
</event>
<event>
 4    1  0.3862688E+004  0.2315599E+02  0.7546771E-02  0.1688994E+00
         21   -1    0    0  501  502  0.00000000000E+00  0.00000000000E+00  0.75781429246E+01  0.75781429246E+01  0.00000000000E+00 0. -1.
         21   -1    0    0  502  503 -0.00000000000E+00 -0.00000000000E+00 -0.71143878683E+02  0.71143878683E+02  0.00000000000E+00 0. -1.
          5    1    1    2  501    0 -0.11254305328E+02 -0.20237107543E+02 -0.28876944552E+02  0.37014562497E+02  0.00000000000E+00 0. -1.
         -5    1    1    2    0  503  0.11254305328E+02  0.20237107543E+02 -0.34688791206E+02  0.41707459111E+02  0.00000000000E+00 0.  1.
<mgrwt>
<rscale>  2 0.23155991E+02</rscale>
<asrwt>0</asrwt>
<pdfrwt beam="1">  1       21 0.11658681E-02 0.23155991E+02</pdfrwt>
<pdfrwt beam="2">  1       21 0.10945212E-01 0.23155991E+02</pdfrwt>
<totfact> 0.13666610E+08</totfact>
</mgrwt>
</event>
<event>
 4    1  0.3862688E+004  0.2832631E+02  0.7546771E-02  0.1617362E+00
         21   -1    0    0  503  502  0.00000000000E+00  0.00000000000E+00  0.51420721444E+01  0.51420721444E+01  0.00000000000E+00 0. -1.
         21   -1    0    0  501  503 -0.00000000000E+00 -0.00000000000E+00 -0.16856398840E+03  0.16856398840E+03  0.00000000000E+00 0. -1.
          4    1    1    2  501    0  0.28204156556E+02 -0.26278235810E+01 -0.58038850655E+02  0.64582413157E+02  0.00000000000E+00 0.  1.
         -4    1    1    2    0  502 -0.28204156556E+02  0.26278235810E+01 -0.10538306560E+03  0.10912364739E+03  0.00000000000E+00 0. -1.
<mgrwt>
<rscale>  2 0.28326311E+02</rscale>
<asrwt>0</asrwt>
<pdfrwt beam="1">  1       21 0.79108809E-03 0.28326311E+02</pdfrwt>
<pdfrwt beam="2">  1       21 0.25932919E-01 0.28326311E+02</pdfrwt>
<totfact> 0.58074794E+07</totfact>
</mgrwt>
</event>
<event>
 4    1  0.3862688E+004  0.2746628E+02  0.7546771E-02  0.1627912E+00
         21   -1    0    0  501  502  0.00000000000E+00  0.00000000000E+00  0.39330538715E+03  0.39330538715E+03  0.00000000000E+00 0.  1.
         21   -1    0    0  502  503 -0.00000000000E+00 -0.00000000000E+00 -0.19295050282E+01  0.19295050282E+01  0.00000000000E+00 0.  1.
          3    1    1    2  501    0  0.16237954047E+02  0.22152316973E+02  0.21088586543E+03  0.21266698036E+03  0.00000000000E+00 0.  1.
         -3    1    1    2    0  503 -0.16237954047E+02 -0.22152316973E+02  0.18049001670E+03  0.18256791182E+03  0.00000000000E+00 0. -1.
<mgrwt>
<rscale>  2 0.27466276E+02</rscale>
<asrwt>0</asrwt>
<pdfrwt beam="1">  1       21 0.60508457E-01 0.27466276E+02</pdfrwt>
<pdfrwt beam="2">  1       21 0.29684724E-03 0.27466276E+02</pdfrwt>
<totfact> 0.49286381E+07</totfact>
</mgrwt>
</event>
<event>
 4    1  0.3862688E+004  0.4064561E+02  0.7546771E-02  0.1503513E+00
         21   -1    0    0  503  502  0.00000000000E+00  0.00000000000E+00  0.11227240264E+02  0.11227240264E+02  0.00000000000E+00 0. -1.
         21   -1    0    0  501  503 -0.00000000000E+00 -0.00000000000E+00 -0.19826093082E+03  0.19826093082E+03  0.00000000000E+00 0. -1.
          3    1    1    2  501    0  0.14009094286E+01  0.40621465405E+02 -0.40333418993E+02  0.57261249433E+02  0.00000000000E+00 0. -1.
         -3    1    1    2    0  502 -0.14009094286E+01 -0.40621465405E+02 -0.14670027157E+03  0.15222692165E+03  0.00000000000E+00 0.  1.
<mgrwt>
<rscale>  2 0.40645615E+02</rscale>
<asrwt>0</asrwt>
<pdfrwt beam="1">  1       21 0.17272679E-02 0.40645615E+02</pdfrwt>
<pdfrwt beam="2">  1       21 0.30501679E-01 0.40645615E+02</pdfrwt>
<totfact> 0.13947936E+07</totfact>
</mgrwt>
</event>
<event>
 4    1  0.3862688E+004  0.4178264E+02  0.7546771E-02  0.1495488E+00
         21   -1    0    0  503  502  0.00000000000E+00  0.00000000000E+00  0.68287638490E+01  0.68287638490E+01  0.00000000000E+00 0. -1.
         21   -1    0    0  501  503 -0.00000000000E+00 -0.00000000000E+00 -0.25826407949E+03  0.25826407949E+03  0.00000000000E+00 0. -1.
          2    1    1    2  501    0 -0.37159104656E+02  0.19104707577E+02 -0.13904696543E+03  0.14518900615E+03  0.00000000000E+00 0.  1.
         -2    1    1    2    0  502  0.37159104656E+02 -0.19104707577E+02 -0.11238835021E+03  0.11990383719E+03  0.00000000000E+00 0. -1.
<mgrwt>
<rscale>  2 0.41782639E+02</rscale>
<asrwt>0</asrwt>
<pdfrwt beam="1">  1       21 0.10505790E-02 0.41782639E+02</pdfrwt>
<pdfrwt beam="2">  1       21 0.39732935E-01 0.41782639E+02</pdfrwt>
<totfact> 0.18289571E+07</totfact>
</mgrwt>
</event>
<event>
 4    1  0.3862688E+004  0.2544348E+02  0.7546771E-02  0.1654713E+00
         21   -1    0    0  503  502  0.00000000000E+00  0.00000000000E+00  0.37136952032E+02  0.37136952032E+02  0.00000000000E+00 0. -1.
         21   -1    0    0  501  503 -0.00000000000E+00 -0.00000000000E+00 -0.17514895722E+02  0.17514895722E+02  0.00000000000E+00 0. -1.
          2    1    1    2  501    0  0.25322268060E+02  0.24805637787E+01  0.11691210653E+02  0.28000979678E+02  0.00000000000E+00 0. -1.
         -2    1    1    2    0  502 -0.25322268060E+02 -0.24805637787E+01  0.79308456566E+01  0.26650868076E+02  0.00000000000E+00 0.  1.
<mgrwt>
<rscale>  2 0.25443476E+02</rscale>
<asrwt>0</asrwt>
<pdfrwt beam="1">  1       21 0.57133772E-02 0.25443476E+02</pdfrwt>
<pdfrwt beam="2">  1       21 0.26945994E-02 0.25443476E+02</pdfrwt>
<totfact> 0.11261118E+08</totfact>
</mgrwt>
</event>
<event>
 4    1  0.3862688E+004  0.3281102E+02  0.7546771E-02  0.1568945E+00
         21   -1    0    0  503  502  0.00000000000E+00  0.00000000000E+00  0.47838065576E+01  0.47838065576E+01  0.00000000000E+00 0.  1.
         21   -1    0    0  501  503 -0.00000000000E+00 -0.00000000000E+00 -0.24899527104E+03  0.24899527104E+03  0.00000000000E+00 0.  1.
          1    1    1    2  501    0 -0.30695868641E+02  0.11589933959E+02 -0.16146094029E+03  0.16476103350E+03  0.00000000000E+00 0.  1.
         -1    1    1    2    0  502  0.30695868641E+02 -0.11589933959E+02 -0.82750524194E+02  0.89018044099E+02  0.00000000000E+00 0. -1.
<mgrwt>
<rscale>  2 0.32811018E+02</rscale>
<asrwt>0</asrwt>
<pdfrwt beam="1">  1       21 0.73597016E-03 0.32811018E+02</pdfrwt>
<pdfrwt beam="2">  1       21 0.38306969E-01 0.32811018E+02</pdfrwt>
<totfact> 0.32390783E+07</totfact>
</mgrwt>
</event>
<event>
 4    1  0.3862688E+004  0.2138953E+02  0.7546771E-02  0.1719029E+00
         21   -1    0    0  501  502  0.00000000000E+00  0.00000000000E+00  0.42779537937E+00  0.42779537937E+00  0.00000000000E+00 0.  1.
         21   -1    0    0  502  503 -0.00000000000E+00 -0.00000000000E+00 -0.11927771816E+04  0.11927771816E+04  0.00000000000E+00 0.  1.
          2    1    1    2  501    0 -0.20040821059E+02  0.74751164805E+01 -0.78800166328E+03  0.78829190863E+03  0.00000000000E+00 0. -1.
         -2    1    1    2    0  503  0.20040821059E+02 -0.74751164805E+01 -0.40434772297E+03  0.40491306839E+03  0.00000000000E+00 0.  1.
<mgrwt>
<rscale>  2 0.21389527E+02</rscale>
<asrwt>0</asrwt>
<pdfrwt beam="1">  1       21 0.65814879E-04 0.21389527E+02</pdfrwt>
<pdfrwt beam="2">  1       21 0.18350361E+00 0.21389527E+02</pdfrwt>
<totfact> 0.34576853E+07</totfact>
</mgrwt>
</event>
<event>
 4    1  0.3862688E+004  0.2007962E+02  0.7546771E-02  0.1743749E+00
         21   -1    0    0  501  502  0.00000000000E+00  0.00000000000E+00  0.16505285610E+02  0.16505285610E+02  0.00000000000E+00 0.  1.
         21   -1    0    0  502  503 -0.00000000000E+00 -0.00000000000E+00 -0.30963389031E+02  0.30963389031E+02  0.00000000000E+00 0.  1.
          3    1    1    2  501    0 -0.28434907181E+01 -0.19877261286E+02 -0.18133128786E+02  0.27055522823E+02  0.00000000000E+00 0. -1.
         -3    1    1    2    0  503  0.28434907181E+01  0.19877261286E+02  0.36750253651E+01  0.20413151818E+02  0.00000000000E+00 0.  1.
<mgrwt>
<rscale>  2 0.20079615E+02</rscale>
<asrwt>0</asrwt>
<pdfrwt beam="1">  1       21 0.25392748E-02 0.20079615E+02</pdfrwt>
<pdfrwt beam="2">  1       21 0.47635982E-02 0.20079615E+02</pdfrwt>
<totfact> 0.15372284E+08</totfact>
</mgrwt>
</event>
<event>
 4    1  0.3862688E+004  0.2332322E+02  0.7546771E-02  0.1686324E+00
         21   -1    0    0  503  502  0.00000000000E+00  0.00000000000E+00  0.11291792009E+03  0.11291792009E+03  0.00000000000E+00 0.  1.
         21   -1    0    0  501  503 -0.00000000000E+00 -0.00000000000E+00 -0.48996028625E+01  0.48996028625E+01  0.00000000000E+00 0.  1.
          2    1    1    2  501    0  0.23317552100E+02  0.51423339934E+00  0.46379609878E+02  0.51913783183E+02  0.00000000000E+00 0.  1.
         -2    1    1    2    0  502 -0.23317552100E+02 -0.51423339934E+00  0.61638707348E+02  0.65903739768E+02  0.00000000000E+00 0. -1.
<mgrwt>
<rscale>  2 0.23323222E+02</rscale>
<asrwt>0</asrwt>
<pdfrwt beam="1">  1       21 0.17371986E-01 0.23323222E+02</pdfrwt>
<pdfrwt beam="2">  1       21 0.75378514E-03 0.23323222E+02</pdfrwt>
<totfact> 0.12050180E+08</totfact>
</mgrwt>
</event>
<event>
 4    1  0.3862688E+004  0.3348128E+02  0.7546771E-02  0.1562516E+00
         21   -1    0    0  501  502  0.00000000000E+00  0.00000000000E+00  0.26947322346E+02  0.26947322346E+02  0.00000000000E+00 0.  1.
         21   -1    0    0  502  503 -0.00000000000E+00 -0.00000000000E+00 -0.46218978197E+02  0.46218978197E+02  0.00000000000E+00 0.  1.
          3    1    1    2  501    0 -0.71985449329E+01  0.32698274809E+02  0.19297008306E+01  0.33536844961E+02  0.00000000000E+00 0. -1.
         -3    1    1    2    0  503  0.71985449329E+01 -0.32698274809E+02 -0.21201356681E+02  0.39629455582E+02  0.00000000000E+00 0.  1.
<mgrwt>
<rscale>  2 0.33481282E+02</rscale>
<asrwt>0</asrwt>
<pdfrwt beam="1">  1       21 0.41457420E-02 0.33481282E+02</pdfrwt>
<pdfrwt beam="2">  1       21 0.71106119E-02 0.33481282E+02</pdfrwt>
<totfact> 0.42675457E+07</totfact>
</mgrwt>
</event>
<event>
 4    1  0.3862688E+004  0.2239713E+02  0.7546771E-02  0.1701473E+00
         21   -1    0    0  501  502  0.00000000000E+00  0.00000000000E+00  0.57155462309E+02  0.57155462309E+02  0.00000000000E+00 0. -1.
         21   -1    0    0  502  503 -0.00000000000E+00 -0.00000000000E+00 -0.93064066030E+01  0.93064066030E+01  0.00000000000E+00 0. -1.
          1    1    1    2  501    0 -0.19092332878E+02 -0.11709571005E+02  0.15995755623E+02  0.27522634790E+02  0.00000000000E+00 0.  1.
         -1    1    1    2    0  503  0.19092332878E+02  0.11709571005E+02  0.31853300083E+02  0.38939234122E+02  0.00000000000E+00 0. -1.
<mgrwt>
<rscale>  2 0.22397125E+02</rscale>
<asrwt>0</asrwt>
<pdfrwt beam="1">  1       21 0.87931478E-02 0.22397125E+02</pdfrwt>
<pdfrwt beam="2">  1       21 0.14317549E-02 0.22397125E+02</pdfrwt>
<totfact> 0.14237501E+08</totfact>
</mgrwt>
</event>
<event>
 4    1  0.3862688E+004  0.2141825E+02  0.7546771E-02  0.1718512E+00
         21   -1    0    0  503  502  0.00000000000E+00  0.00000000000E+00  0.11627248924E+03  0.11627248924E+03  0.00000000000E+00 0.  1.
         21   -1    0    0  501  503 -0.00000000000E+00 -0.00000000000E+00 -0.40917827700E+01  0.40917827700E+01  0.00000000000E+00 0.  1.
          5    1    1    2  501    0  0.19570437581E+02  0.87028439225E+01  0.44707378328E+02  0.49573089438E+02  0.00000000000E+00 0.  1.
         -5    1    1    2    0  502 -0.19570437581E+02 -0.87028439225E+01  0.67473328143E+02  0.70791182574E+02  0.00000000000E+00 0. -1.
<mgrwt>
<rscale>  2 0.21418252E+02</rscale>
<asrwt>0</asrwt>
<pdfrwt beam="1">  1       21 0.17888073E-01 0.21418252E+02</pdfrwt>
<pdfrwt beam="2">  1       21 0.62950513E-03 0.21418252E+02</pdfrwt>
<totfact> 0.14607734E+08</totfact>
</mgrwt>
</event>
<event>
 4    1  0.3862688E+004  0.2096917E+02  0.7546771E-02  0.1726715E+00
         21   -1    0    0  501  502  0.00000000000E+00  0.00000000000E+00  0.22303479642E+02  0.22303479642E+02  0.00000000000E+00 0. -1.
         21   -1    0    0  502  503 -0.00000000000E+00 -0.00000000000E+00 -0.20760407763E+02  0.20760407763E+02  0.00000000000E+00 0. -1.
          1    1    1    2  501    0  0.14640205191E+02  0.15012337870E+02  0.56040735769E+01  0.21705103939E+02  0.00000000000E+00 0.  1.
         -1    1    1    2    0  503 -0.14640205191E+02 -0.15012337870E+02 -0.40610016987E+01  0.21358783466E+02  0.00000000000E+00 0. -1.
<mgrwt>
<rscale>  2 0.20969165E+02</rscale>
<asrwt>0</asrwt>
<pdfrwt beam="1">  1       21 0.34313045E-02 0.20969165E+02</pdfrwt>
<pdfrwt beam="2">  1       21 0.31939089E-02 0.20969165E+02</pdfrwt>
<totfact> 0.18291493E+08</totfact>
</mgrwt>
</event>
<event>
 4    1  0.3862688E+004  0.2160627E+02  0.7546771E-02  0.1715152E+00
         21   -1    0    0  503  502  0.00000000000E+00  0.00000000000E+00  0.33864987632E+00  0.33864987632E+00  0.00000000000E+00 0. -1.
         21   -1    0    0  501  503 -0.00000000000E+00 -0.00000000000E+00 -0.13799530458E+04  0.13799530458E+04  0.00000000000E+00 0. -1.
          2    1    1    2  501    0  0.16061401248E+02  0.14452065619E+02 -0.66745689482E+03  0.66780651184E+03  0.00000000000E+00 0. -1.
         -2    1    1    2    0  502 -0.16061401248E+02 -0.14452065619E+02 -0.71215750114E+03  0.71248518388E+03  0.00000000000E+00 0.  1.
<mgrwt>
<rscale>  2 0.21606268E+02</rscale>
<asrwt>0</asrwt>
<pdfrwt beam="1">  1       21 0.52100691E-04 0.21606268E+02</pdfrwt>
<pdfrwt beam="2">  1       21 0.21229757E+00 0.21606268E+02</pdfrwt>
<totfact> 0.33187943E+07</totfact>
</mgrwt>
</event>
<event>
 4    1  0.3862688E+004  0.3246607E+02  0.7546771E-02  0.1572327E+00
         21   -1    0    0  503  502  0.00000000000E+00  0.00000000000E+00  0.75980083561E+01  0.75980083561E+01  0.00000000000E+00 0.  1.
         21   -1    0    0  501  503 -0.00000000000E+00 -0.00000000000E+00 -0.16908044855E+03  0.16908044855E+03  0.00000000000E+00 0.  1.
          3    1    1    2  501    0  0.13862486681E+02 -0.29357744504E+02 -0.11817071311E+03  0.12254943140E+03  0.00000000000E+00 0.  1.
         -3    1    1    2    0  502 -0.13862486681E+02  0.29357744504E+02 -0.43311727083E+02  0.54129025506E+02  0.00000000000E+00 0. -1.
<mgrwt>
<rscale>  2 0.32466070E+02</rscale>
<asrwt>0</asrwt>
<pdfrwt beam="1">  1       21 0.11689244E-02 0.32466070E+02</pdfrwt>
<pdfrwt beam="2">  1       21 0.26012375E-01 0.32466070E+02</pdfrwt>
<totfact> 0.32884534E+07</totfact>
</mgrwt>
</event>
<event>
 4    1  0.3862688E+004  0.2087454E+02  0.7546771E-02  0.1728476E+00
         21   -1    0    0  501  502  0.00000000000E+00  0.00000000000E+00  0.47403064009E+02  0.47403064009E+02  0.00000000000E+00 0. -1.
         21   -1    0    0  502  503 -0.00000000000E+00 -0.00000000000E+00 -0.92007455416E+01  0.92007455416E+01  0.00000000000E+00 0. -1.
          3    1    1    2  501    0 -0.19350267785E+02 -0.78303068160E+01  0.19954996723E+02  0.28878165842E+02  0.00000000000E+00 0. -1.
         -3    1    1    2    0  503  0.19350267785E+02  0.78303068160E+01  0.18247321745E+02  0.27725643708E+02  0.00000000000E+00 0.  1.
<mgrwt>
<rscale>  2 0.20874544E+02</rscale>
<asrwt>0</asrwt>
<pdfrwt beam="1">  1       21 0.72927789E-02 0.20874544E+02</pdfrwt>
<pdfrwt beam="2">  1       21 0.14154993E-02 0.20874544E+02</pdfrwt>
<totfact> 0.19219169E+08</totfact>
</mgrwt>
</event>
<event>
 4    1  0.3862688E+004  0.2079896E+02  0.7546771E-02  0.1729891E+00
         21   -1    0    0  503  502  0.00000000000E+00  0.00000000000E+00  0.21132729656E+02  0.21132729656E+02  0.00000000000E+00 0.  1.
         21   -1    0    0  501  503 -0.00000000000E+00 -0.00000000000E+00 -0.23241573271E+02  0.23241573271E+02  0.00000000000E+00 0.  1.
          1    1    1    2  501    0  0.20768966804E+02  0.11166546684E+01  0.66067495169E+01  0.21823062088E+02  0.00000000000E+00 0. -1.
         -1    1    1    2    0  502 -0.20768966804E+02 -0.11166546684E+01 -0.87155931313E+01  0.22551240839E+02  0.00000000000E+00 0.  1.
<mgrwt>
<rscale>  2 0.20798964E+02</rscale>
<asrwt>0</asrwt>
<pdfrwt beam="1">  1       21 0.32511892E-02 0.20798964E+02</pdfrwt>
<pdfrwt beam="2">  1       21 0.35756266E-02 0.20798964E+02</pdfrwt>
<totfact> 0.16641293E+08</totfact>
</mgrwt>
</event>
<event>
 4    1  0.3862688E+004  0.3776619E+02  0.7546771E-02  0.1525324E+00
         21   -1    0    0  501  502  0.00000000000E+00  0.00000000000E+00  0.97348276323E+02  0.97348276323E+02  0.00000000000E+00 0.  1.
         21   -1    0    0  502  503 -0.00000000000E+00 -0.00000000000E+00 -0.15320277213E+02  0.15320277213E+02  0.00000000000E+00 0.  1.
          1    1    1    2  501    0  0.36771823768E+02  0.86091760542E+01  0.52785304687E+02  0.64904339812E+02  0.00000000000E+00 0. -1.
         -1    1    1    2    0  503 -0.36771823768E+02 -0.86091760542E+01  0.29242694423E+02  0.47764213724E+02  0.00000000000E+00 0.  1.
<mgrwt>
<rscale>  2 0.37766188E+02</rscale>
<asrwt>0</asrwt>
<pdfrwt beam="1">  1       21 0.14976658E-01 0.37766188E+02</pdfrwt>
<pdfrwt beam="2">  1       21 0.23569658E-02 0.37766188E+02</pdfrwt>
<totfact> 0.30407975E+07</totfact>
</mgrwt>
</event>
<event>
 4    1  0.3862688E+004  0.4019532E+02  0.7546771E-02  0.1506779E+00
         21   -1    0    0  503  502  0.00000000000E+00  0.00000000000E+00  0.73445034877E+02  0.73445034877E+02  0.00000000000E+00 0. -1.
         21   -1    0    0  501  503 -0.00000000000E+00 -0.00000000000E+00 -0.35029466970E+02  0.35029466970E+02  0.00000000000E+00 0. -1.
          4    1    1    2  501    0  0.29086571470E+02 -0.27742297511E+02 -0.13872791681E+02  0.42521971498E+02  0.00000000000E+00 0.  1.
         -4    1    1    2    0  502 -0.29086571470E+02  0.27742297511E+02  0.52288359588E+02  0.65952530349E+02  0.00000000000E+00 0. -1.
<mgrwt>
<rscale>  2 0.40195320E+02</rscale>
<asrwt>0</asrwt>
<pdfrwt beam="1">  1       21 0.11299236E-01 0.40195320E+02</pdfrwt>
<pdfrwt beam="2">  1       21 0.53891488E-02 0.40195320E+02</pdfrwt>
<totfact> 0.13289900E+07</totfact>
</mgrwt>
</event>
<event>
 4    1  0.3862688E+004  0.2403544E+02  0.7546771E-02  0.1675256E+00
         21   -1    0    0  501  502  0.00000000000E+00  0.00000000000E+00  0.37423341429E+01  0.37423341429E+01  0.00000000000E+00 0. -1.
         21   -1    0    0  502  503 -0.00000000000E+00 -0.00000000000E+00 -0.21388002895E+03  0.21388002895E+03  0.00000000000E+00 0. -1.
          3    1    1    2  501    0  0.66865423503E+01 -0.23086626140E+02 -0.47672347796E+02  0.53388715095E+02  0.00000000000E+00 0.  1.
         -3    1    1    2    0  503 -0.66865423503E+01  0.23086626140E+02 -0.16246534701E+03  0.16423364800E+03  0.00000000000E+00 0. -1.
<mgrwt>
<rscale>  2 0.24035435E+02</rscale>
<asrwt>0</asrwt>
<pdfrwt beam="1">  1       21 0.57574344E-03 0.24035435E+02</pdfrwt>
<pdfrwt beam="2">  1       21 0.32904635E-01 0.24035435E+02</pdfrwt>
<totfact> 0.58191906E+07</totfact>
</mgrwt>
</event>
<event>
 4    1  0.3862688E+004  0.2129862E+02  0.7546771E-02  0.1720672E+00
         21   -1    0    0  501  502  0.00000000000E+00  0.00000000000E+00  0.90802736639E+01  0.90802736639E+01  0.00000000000E+00 0. -1.
         21   -1    0    0  502  503 -0.00000000000E+00 -0.00000000000E+00 -0.56489616011E+02  0.56489616011E+02  0.00000000000E+00 0. -1.
          3    1    1    2  501    0 -0.21240309287E+02 -0.15749465524E+01 -0.12556476189E+02  0.24724406758E+02  0.00000000000E+00 0. -1.
         -3    1    1    2    0  503  0.21240309287E+02  0.15749465524E+01 -0.34852866158E+02  0.40845482917E+02  0.00000000000E+00 0.  1.
<mgrwt>
<rscale>  2 0.21298620E+02</rscale>
<asrwt>0</asrwt>
<pdfrwt beam="1">  1       21 0.13969652E-02 0.21298620E+02</pdfrwt>
<pdfrwt beam="2">  1       21 0.86907102E-02 0.21298620E+02</pdfrwt>
<totfact> 0.14836253E+08</totfact>
</mgrwt>
</event>
<event>
 4    1  0.3862688E+004  0.2901389E+02  0.7546771E-02  0.1609252E+00
         21   -1    0    0  503  502  0.00000000000E+00  0.00000000000E+00  0.12432836521E+03  0.12432836521E+03  0.00000000000E+00 0. -1.
         21   -1    0    0  501  503 -0.00000000000E+00 -0.00000000000E+00 -0.84584213635E+01  0.84584213635E+01  0.00000000000E+00 0. -1.
          1    1    1    2  501    0  0.18419051929E+02 -0.22417502409E+02  0.28278860615E+02  0.40515427258E+02  0.00000000000E+00 0. -1.
         -1    1    1    2    0  502 -0.18419051929E+02  0.22417502409E+02  0.87591083232E+02  0.92271359315E+02  0.00000000000E+00 0.  1.
<mgrwt>
<rscale>  2 0.29013891E+02</rscale>
<asrwt>0</asrwt>
<pdfrwt beam="1">  1       21 0.19127439E-01 0.29013891E+02</pdfrwt>
<pdfrwt beam="2">  1       21 0.13012957E-02 0.29013891E+02</pdfrwt>
<totfact> 0.47237893E+07</totfact>
</mgrwt>
</event>
<event>
 4    1  0.3862688E+004  0.2924593E+02  0.7546771E-02  0.1606577E+00
         21   -1    0    0  501  502  0.00000000000E+00  0.00000000000E+00  0.67015040126E+01  0.67015040126E+01  0.00000000000E+00 0.  1.
         21   -1    0    0  502  503 -0.00000000000E+00 -0.00000000000E+00 -0.13740654933E+03  0.13740654933E+03  0.00000000000E+00 0.  1.
          1    1    1    2  501    0  0.54491218736E+00 -0.29240850039E+02 -0.46134445267E+02  0.54623358377E+02  0.00000000000E+00 0.  1.
         -1    1    1    2    0  503 -0.54491218736E+00  0.29240850039E+02 -0.84570600055E+02  0.89484694970E+02  0.00000000000E+00 0. -1.
<mgrwt>
<rscale>  2 0.29245927E+02</rscale>
<asrwt>0</asrwt>
<pdfrwt beam="1">  1       21 0.10310006E-02 0.29245927E+02</pdfrwt>
<pdfrwt beam="2">  1       21 0.21139470E-01 0.29245927E+02</pdfrwt>
<totfact> 0.56525623E+07</totfact>
</mgrwt>
</event>
<event>
 4    1  0.3862688E+004  0.2131868E+02  0.7546771E-02  0.1720309E+00
         21   -1    0    0  501  502  0.00000000000E+00  0.00000000000E+00  0.59158660041E+02  0.59158660041E+02  0.00000000000E+00 0. -1.
         21   -1    0    0  502  503 -0.00000000000E+00 -0.00000000000E+00 -0.82603889824E+01  0.82603889824E+01  0.00000000000E+00 0. -1.
          1    1    1    2  501    0  0.21293131103E+02  0.10433029332E+01  0.16532978404E+02  0.26978237305E+02  0.00000000000E+00 0.  1.
         -1    1    1    2    0  503 -0.21293131103E+02 -0.10433029332E+01  0.34365292655E+02  0.40440811718E+02  0.00000000000E+00 0. -1.
<mgrwt>
<rscale>  2 0.21318675E+02</rscale>
<asrwt>0</asrwt>
<pdfrwt beam="1">  1       21 0.91013320E-02 0.21318675E+02</pdfrwt>
<pdfrwt beam="2">  1       21 0.12708291E-02 0.21318675E+02</pdfrwt>
<totfact> 0.15874558E+08</totfact>
</mgrwt>
</event>
<event>
 4    1  0.3862688E+004  0.2126384E+02  0.7546771E-02  0.1721304E+00
         21   -1    0    0  503  502  0.00000000000E+00  0.00000000000E+00  0.81414281456E+03  0.81414281456E+03  0.00000000000E+00 0. -1.
         21   -1    0    0  501  503 -0.00000000000E+00 -0.00000000000E+00 -0.55572910770E+00  0.55572910770E+00  0.00000000000E+00 0. -1.
          1    1    1    2  501    0  0.21082053337E+02  0.27745060665E+01  0.41714207556E+03  0.41768368661E+03  0.00000000000E+00 0. -1.
         -1    1    1    2    0  502 -0.21082053337E+02 -0.27745060665E+01  0.39644500988E+03  0.39701485705E+03  0.00000000000E+00 0.  1.
<mgrwt>
<rscale>  2 0.21263839E+02</rscale>
<asrwt>0</asrwt>
<pdfrwt beam="1">  1       21 0.12525179E+00 0.21263839E+02</pdfrwt>
<pdfrwt beam="2">  1       21 0.85497437E-04 0.21263839E+02</pdfrwt>
<totfact> 0.59012799E+07</totfact>
</mgrwt>
</event>
<event>
 4    1  0.3862688E+004  0.2436804E+02  0.7546771E-02  0.1670248E+00
         21   -1    0    0  503  502  0.00000000000E+00  0.00000000000E+00  0.76510717769E+02  0.76510717769E+02  0.00000000000E+00 0.  1.
         21   -1    0    0  501  503 -0.00000000000E+00 -0.00000000000E+00 -0.10554901517E+02  0.10554901517E+02  0.00000000000E+00 0.  1.
          4    1    1    2  501    0 -0.89651513028E+01  0.22658934504E+02  0.55375099291E+02  0.60499610513E+02  0.00000000000E+00 0.  1.
         -4    1    1    2    0  502  0.89651513028E+01 -0.22658934504E+02  0.10580716961E+02  0.26566008773E+02  0.00000000000E+00 0. -1.
<mgrwt>
<rscale>  2 0.24368037E+02</rscale>
<asrwt>0</asrwt>
<pdfrwt beam="1">  1       21 0.11770879E-01 0.24368037E+02</pdfrwt>
<pdfrwt beam="2">  1       21 0.16238311E-02 0.24368037E+02</pdfrwt>
<totfact> 0.74259929E+07</totfact>
</mgrwt>
</event>
<event>
 4    1  0.3862688E+004  0.2361076E+02  0.7546771E-02  0.1681797E+00
         21   -1    0    0  501  502  0.00000000000E+00  0.00000000000E+00  0.11629784534E+01  0.11629784534E+01  0.00000000000E+00 0. -1.
         21   -1    0    0  502  503 -0.00000000000E+00 -0.00000000000E+00 -0.53196555907E+03  0.53196555907E+03  0.00000000000E+00 0. -1.
          3    1    1    2  501    0  0.20335199649E+02  0.11997810916E+02 -0.34923877566E+03  0.35003598420E+03  0.00000000000E+00 0. -1.
         -3    1    1    2    0  503 -0.20335199649E+02 -0.11997810916E+02 -0.18156380495E+03  0.18309255332E+03  0.00000000000E+00 0.  1.
<mgrwt>
<rscale>  2 0.23610756E+02</rscale>
<asrwt>0</asrwt>
<pdfrwt beam="1">  1       21 0.17891965E-03 0.23610756E+02</pdfrwt>
<pdfrwt beam="2">  1       21 0.81840905E-01 0.23610756E+02</pdfrwt>
<totfact> 0.53425656E+07</totfact>
</mgrwt>
</event>
<event>
 4    1  0.3862688E+004  0.2109607E+02  0.7546771E-02  0.1724371E+00
         21   -1    0    0  501  502  0.00000000000E+00  0.00000000000E+00  0.12976336377E+04  0.12976336377E+04  0.00000000000E+00 0.  1.
         21   -1    0    0  502  503 -0.00000000000E+00 -0.00000000000E+00 -0.41093182279E+00  0.41093182279E+00  0.00000000000E+00 0.  1.
          2    1    1    2  501    0  0.18152264884E+01 -0.21017831450E+02  0.91256024544E+03  0.91280405665E+03  0.00000000000E+00 0.  1.
         -2    1    1    2    0  503 -0.18152264884E+01  0.21017831450E+02  0.38466246049E+03  0.38524051292E+03  0.00000000000E+00 0. -1.
<mgrwt>
<rscale>  2 0.21096073E+02</rscale>
<asrwt>0</asrwt>
<pdfrwt beam="1">  1       21 0.19963266E+00 0.21096073E+02</pdfrwt>
<pdfrwt beam="2">  1       21 0.63221319E-04 0.21096073E+02</pdfrwt>
<totfact> 0.29517793E+07</totfact>
</mgrwt>
</event>
<event>
 4    1  0.3862688E+004  0.2056142E+02  0.7546771E-02  0.1734389E+00
         21   -1    0    0  503  502  0.00000000000E+00  0.00000000000E+00  0.25072143815E+02  0.25072143815E+02  0.00000000000E+00 0.  1.
         21   -1    0    0  501  503 -0.00000000000E+00 -0.00000000000E+00 -0.19675525915E+02  0.19675525915E+02  0.00000000000E+00 0.  1.
          2    1    1    2  501    0  0.40150886590E+01  0.20165590896E+02 -0.57619911690E+01  0.21353513420E+02  0.00000000000E+00 0.  1.
         -2    1    1    2    0  502 -0.40150886590E+01 -0.20165590896E+02  0.11158609068E+02  0.23394156310E+02  0.00000000000E+00 0. -1.
<mgrwt>
<rscale>  2 0.20561420E+02</rscale>
<asrwt>0</asrwt>
<pdfrwt beam="1">  1       21 0.38572529E-02 0.20561420E+02</pdfrwt>
<pdfrwt beam="2">  1       21 0.30270040E-02 0.20561420E+02</pdfrwt>
<totfact> 0.16455856E+08</totfact>
</mgrwt>
</event>
<event>
 4    1  0.3862688E+004  0.3724906E+02  0.7546771E-02  0.1529490E+00
         21   -1    0    0  503  502  0.00000000000E+00  0.00000000000E+00  0.97644438447E+02  0.97644438447E+02  0.00000000000E+00 0. -1.
         21   -1    0    0  501  503 -0.00000000000E+00 -0.00000000000E+00 -0.15892468058E+02  0.15892468058E+02  0.00000000000E+00 0. -1.
          1    1    1    2  501    0  0.14645730401E+02  0.34249010803E+02  0.22403238749E+02  0.43467197591E+02  0.00000000000E+00 0. -1.
         -1    1    1    2    0  502 -0.14645730401E+02 -0.34249010803E+02  0.59348731640E+02  0.70069708913E+02  0.00000000000E+00 0.  1.
<mgrwt>
<rscale>  2 0.37249056E+02</rscale>
<asrwt>0</asrwt>
<pdfrwt beam="1">  1       21 0.15022221E-01 0.37249056E+02</pdfrwt>
<pdfrwt beam="2">  1       21 0.24449951E-02 0.37249056E+02</pdfrwt>
<totfact> 0.28486554E+07</totfact>
</mgrwt>
</event>
<event>
 4    1  0.3862688E+004  0.2188618E+02  0.7546771E-02  0.1710228E+00
         21   -1    0    0  501  502  0.00000000000E+00  0.00000000000E+00  0.50205396547E+03  0.50205396547E+03  0.00000000000E+00 0.  1.
         21   -1    0    0  502  503 -0.00000000000E+00 -0.00000000000E+00 -0.96567387036E+00  0.96567387036E+00  0.00000000000E+00 0.  1.
          1    1    1    2  501    0  0.21886178826E+02 -0.43020779641E-02  0.27809024106E+03  0.27895015149E+03  0.00000000000E+00 0. -1.
         -1    1    1    2    0  503 -0.21886178826E+02  0.43020779641E-02  0.22299805054E+03  0.22406948785E+03  0.00000000000E+00 0.  1.
<mgrwt>
<rscale>  2 0.21886179E+02</rscale>
<asrwt>0</asrwt>
<pdfrwt beam="1">  1       21 0.77238863E-01 0.21886179E+02</pdfrwt>
<pdfrwt beam="2">  1       21 0.14856561E-03 0.21886179E+02</pdfrwt>
<totfact> 0.77389391E+07</totfact>
</mgrwt>
</event>
<event>
 4    1  0.3862688E+004  0.2213349E+02  0.7546771E-02  0.1705953E+00
         21   -1    0    0  503  502  0.00000000000E+00  0.00000000000E+00  0.39635532404E+02  0.39635532404E+02  0.00000000000E+00 0.  1.
         21   -1    0    0  501  503 -0.00000000000E+00 -0.00000000000E+00 -0.12361941866E+02  0.12361941866E+02  0.00000000000E+00 0.  1.
          1    1    1    2  501    0 -0.11879048493E+02  0.18675644108E+02  0.13970395661E+02  0.26173716413E+02  0.00000000000E+00 0. -1.
         -1    1    1    2    0  502  0.11879048493E+02 -0.18675644108E+02  0.13303194876E+02  0.25823757857E+02  0.00000000000E+00 0.  1.
<mgrwt>
<rscale>  2 0.22133492E+02</rscale>
<asrwt>0</asrwt>
<pdfrwt beam="1">  1       21 0.60977742E-02 0.22133492E+02</pdfrwt>
<pdfrwt beam="2">  1       21 0.19018372E-02 0.22133492E+02</pdfrwt>
<totfact> 0.16667700E+08</totfact>
</mgrwt>
</event>
<event>
 4    1  0.3862688E+004  0.2041738E+02  0.7546771E-02  0.1737153E+00
         21   -1    0    0  503  502  0.00000000000E+00  0.00000000000E+00  0.35194075257E+01  0.35194075257E+01  0.00000000000E+00 0. -1.
         21   -1    0    0  501  503 -0.00000000000E+00 -0.00000000000E+00 -0.11950045810E+03  0.11950045810E+03  0.00000000000E+00 0. -1.
          1    1    1    2  501    0  0.20126127108E+02 -0.34363378508E+01 -0.63760963284E+02  0.66950204249E+02  0.00000000000E+00 0. -1.
         -1    1    1    2    0  502 -0.20126127108E+02  0.34363378508E+01 -0.52220087288E+02  0.56069661373E+02  0.00000000000E+00 0.  1.
<mgrwt>
<rscale>  2 0.20417380E+02</rscale>
<asrwt>0</asrwt>
<pdfrwt beam="1">  1       21 0.54144721E-03 0.20417380E+02</pdfrwt>
<pdfrwt beam="2">  1       21 0.18384689E-01 0.20417380E+02</pdfrwt>
<totfact> 0.17156031E+08</totfact>
</mgrwt>
</event>
<event>
 4    1  0.3862688E+004  0.2302652E+02  0.7546771E-02  0.1691081E+00
         21   -1    0    0  501  502  0.00000000000E+00  0.00000000000E+00  0.36272434559E+01  0.36272434559E+01  0.00000000000E+00 0. -1.
         21   -1    0    0  502  503 -0.00000000000E+00 -0.00000000000E+00 -0.19147393487E+03  0.19147393487E+03  0.00000000000E+00 0. -1.
          1    1    1    2  501    0  0.20507976235E+02  0.10471087584E+02 -0.46476440499E+02  0.51867911910E+02  0.00000000000E+00 0.  1.
         -1    1    1    2    0  503 -0.20507976235E+02 -0.10471087584E+02 -0.14137025091E+03  0.14323326641E+03  0.00000000000E+00 0. -1.
<mgrwt>
<rscale>  2 0.23026523E+02</rscale>
<asrwt>0</asrwt>
<pdfrwt beam="1">  1       21 0.55803739E-03 0.23026523E+02</pdfrwt>
<pdfrwt beam="2">  1       21 0.29457532E-01 0.23026523E+02</pdfrwt>
<totfact> 0.73811300E+07</totfact>
</mgrwt>
</event>
<event>
 4    1  0.3862688E+004  0.2311245E+02  0.7546771E-02  0.1689694E+00
         21   -1    0    0  503  502  0.00000000000E+00  0.00000000000E+00  0.65920865531E+02  0.65920865531E+02  0.00000000000E+00 0.  1.
         21   -1    0    0  501  503 -0.00000000000E+00 -0.00000000000E+00 -0.82404004581E+01  0.82404004581E+01  0.00000000000E+00 0.  1.
          1    1    1    2  501    0  0.15883087848E+02 -0.16790262231E+02  0.33620806447E+02  0.40798823654E+02  0.00000000000E+00 0. -1.
         -1    1    1    2    0  502 -0.15883087848E+02  0.16790262231E+02  0.24059658626E+02  0.33362442336E+02  0.00000000000E+00 0.  1.
<mgrwt>
<rscale>  2 0.23112451E+02</rscale>
<asrwt>0</asrwt>
<pdfrwt beam="1">  1       21 0.10141671E-01 0.23112451E+02</pdfrwt>
<pdfrwt beam="2">  1       21 0.12677540E-02 0.23112451E+02</pdfrwt>
<totfact> 0.13659322E+08</totfact>
</mgrwt>
</event>
<event>
 4    1  0.3862688E+004  0.7468530E+02  0.7546771E-02  0.1344848E+00
         21   -1    0    0  503  502  0.00000000000E+00  0.00000000000E+00  0.34651403081E+02  0.34651403081E+02  0.00000000000E+00 0. -1.
         21   -1    0    0  501  503 -0.00000000000E+00 -0.00000000000E+00 -0.16561567898E+03  0.16561567898E+03  0.00000000000E+00 0. -1.
          4    1    1    2  501    0  0.59260540186E+01  0.74449823393E+02 -0.48714370465E+02  0.89168291501E+02  0.00000000000E+00 0. -1.
         -4    1    1    2    0  502 -0.59260540186E+01 -0.74449823393E+02 -0.82249905433E+02  0.11109879056E+03  0.00000000000E+00 0.  1.
<mgrwt>
<rscale>  2 0.74685302E+02</rscale>
<asrwt>0</asrwt>
<pdfrwt beam="1">  1       21 0.53309851E-02 0.74685302E+02</pdfrwt>
<pdfrwt beam="2">  1       21 0.25479335E-01 0.74685302E+02</pdfrwt>
<totfact> 0.33918688E+06</totfact>
</mgrwt>
</event>
<event>
 4    1  0.3862688E+004  0.2709566E+02  0.7546771E-02  0.1632606E+00
         21   -1    0    0  503  502  0.00000000000E+00  0.00000000000E+00  0.59131015534E+01  0.59131015534E+01  0.00000000000E+00 0. -1.
         21   -1    0    0  501  503 -0.00000000000E+00 -0.00000000000E+00 -0.13215202565E+03  0.13215202565E+03  0.00000000000E+00 0. -1.
          1    1    1    2  501    0  0.21609654750E+02  0.16346174354E+02 -0.80095157582E+02  0.84554177085E+02  0.00000000000E+00 0.  1.
         -1    1    1    2    0  502 -0.21609654750E+02 -0.16346174354E+02 -0.46143766514E+02  0.53510950118E+02  0.00000000000E+00 0. -1.
<mgrwt>
<rscale>  2 0.27095656E+02</rscale>
<asrwt>0</asrwt>
<pdfrwt beam="1">  1       21 0.90970794E-03 0.27095656E+02</pdfrwt>
<pdfrwt beam="2">  1       21 0.20331081E-01 0.27095656E+02</pdfrwt>
<totfact> 0.71864152E+07</totfact>
</mgrwt>
</event>
<event>
 4    1  0.3862688E+004  0.2002815E+02  0.7546771E-02  0.1744769E+00
         21   -1    0    0  501  502  0.00000000000E+00  0.00000000000E+00  0.46992346183E+01  0.46992346183E+01  0.00000000000E+00 0.  1.
         21   -1    0    0  502  503 -0.00000000000E+00 -0.00000000000E+00 -0.11522649414E+03  0.11522649414E+03  0.00000000000E+00 0.  1.
          2    1    1    2  501    0  0.18591741298E+02  0.74480799606E+01 -0.85791619516E+02  0.88098403610E+02  0.00000000000E+00 0.  1.
         -2    1    1    2    0  503 -0.18591741298E+02 -0.74480799606E+01 -0.24735640010E+02  0.31827325151E+02  0.00000000000E+00 0. -1.
<mgrwt>
<rscale>  2 0.20028149E+02</rscale>
<asrwt>0</asrwt>
<pdfrwt beam="1">  1       21 0.72295924E-03 0.20028149E+02</pdfrwt>
<pdfrwt beam="2">  1       21 0.17727151E-01 0.20028149E+02</pdfrwt>
<totfact> 0.11847895E+08</totfact>
</mgrwt>
</event>
<event>
 4    1  0.3862688E+004  0.4120508E+02  0.7546771E-02  0.1499526E+00
         21   -1    0    0  503  502  0.00000000000E+00  0.00000000000E+00  0.15110780568E+02  0.15110780568E+02  0.00000000000E+00 0. -1.
         21   -1    0    0  501  503 -0.00000000000E+00 -0.00000000000E+00 -0.12107120337E+03  0.12107120337E+03  0.00000000000E+00 0. -1.
          2    1    1    2  501    0  0.18011165110E+02  0.37060179872E+02 -0.71243921824E+02  0.82301612363E+02  0.00000000000E+00 0. -1.
         -2    1    1    2    0  502 -0.18011165110E+02 -0.37060179872E+02 -0.34716500978E+02  0.53880371574E+02  0.00000000000E+00 0.  1.
<mgrwt>
<rscale>  2 0.41205085E+02</rscale>
<asrwt>0</asrwt>
<pdfrwt beam="1">  1       21 0.23247355E-02 0.41205085E+02</pdfrwt>
<pdfrwt beam="2">  1       21 0.18626339E-01 0.41205085E+02</pdfrwt>
<totfact> 0.21507471E+07</totfact>
</mgrwt>
</event>
<event>
 4    1  0.3862688E+004  0.4063943E+02  0.7546771E-02  0.1503558E+00
         21   -1    0    0  503  502  0.00000000000E+00  0.00000000000E+00  0.12349135219E+03  0.12349135219E+03  0.00000000000E+00 0. -1.
         21   -1    0    0  501  503 -0.00000000000E+00 -0.00000000000E+00 -0.19249928006E+02  0.19249928006E+02  0.00000000000E+00 0. -1.
          4    1    1    2  501    0  0.38786158654E+02  0.12132471199E+02  0.91552491655E+02  0.10016696905E+03  0.00000000000E+00 0.  1.
         -4    1    1    2    0  502 -0.38786158654E+02 -0.12132471199E+02  0.12688932525E+02  0.42574311141E+02  0.00000000000E+00 0. -1.
<mgrwt>
<rscale>  2 0.40639426E+02</rscale>
<asrwt>0</asrwt>
<pdfrwt beam="1">  1       21 0.18998669E-01 0.40639426E+02</pdfrwt>
<pdfrwt beam="2">  1       21 0.29615275E-02 0.40639426E+02</pdfrwt>
<totfact> 0.14132739E+07</totfact>
</mgrwt>
</event>
<event>
 4    1  0.3862688E+004  0.2152059E+02  0.7546771E-02  0.1716678E+00
         21   -1    0    0  501  502  0.00000000000E+00  0.00000000000E+00  0.19741256128E+03  0.19741256128E+03  0.00000000000E+00 0.  1.
         21   -1    0    0  502  503 -0.00000000000E+00 -0.00000000000E+00 -0.39881369883E+01  0.39881369883E+01  0.00000000000E+00 0.  1.
          1    1    1    2  501    0 -0.16103061657E+02 -0.14276799222E+02  0.32095210587E+02  0.38642439537E+02  0.00000000000E+00 0. -1.
         -1    1    1    2    0  503  0.16103061657E+02  0.14276799222E+02  0.16132921371E+03  0.16275825873E+03  0.00000000000E+00 0.  1.
<mgrwt>
<rscale>  2 0.21520585E+02</rscale>
<asrwt>0</asrwt>
<pdfrwt beam="1">  1       21 0.30371156E-01 0.21520585E+02</pdfrwt>
<pdfrwt beam="2">  1       21 0.61355969E-03 0.21520585E+02</pdfrwt>
<totfact> 0.59639590E+07</totfact>
</mgrwt>
</event>
<event>
 4    1  0.3862688E+004  0.2168708E+02  0.7546771E-02  0.1713721E+00
         21   -1    0    0  501  502  0.00000000000E+00  0.00000000000E+00  0.41047447564E+02  0.41047447564E+02  0.00000000000E+00 0.  1.
         21   -1    0    0  502  503 -0.00000000000E+00 -0.00000000000E+00 -0.12127217964E+02  0.12127217964E+02  0.00000000000E+00 0.  1.
          4    1    1    2  501    0  0.17997313461E+02  0.12100658333E+02  0.20704908964E+02  0.29983703559E+02  0.00000000000E+00 0. -1.
         -4    1    1    2    0  503 -0.17997313461E+02 -0.12100658333E+02  0.82153206362E+01  0.23190961969E+02  0.00000000000E+00 0.  1.
<mgrwt>
<rscale>  2 0.21687075E+02</rscale>
<asrwt>0</asrwt>
<pdfrwt beam="1">  1       21 0.63149919E-02 0.21687075E+02</pdfrwt>
<pdfrwt beam="2">  1       21 0.18657259E-02 0.21687075E+02</pdfrwt>
<totfact> 0.16123042E+08</totfact>
</mgrwt>
</event>
<event>
 4    1  0.3862688E+004  0.3231530E+02  0.7546771E-02  0.1573821E+00
         21   -1    0    0  501  502  0.00000000000E+00  0.00000000000E+00  0.75474114591E+02  0.75474114591E+02  0.00000000000E+00 0. -1.
         21   -1    0    0  502  503 -0.00000000000E+00 -0.00000000000E+00 -0.24553951180E+02  0.24553951180E+02  0.00000000000E+00 0. -1.
          4    1    1    2  501    0 -0.26432596153E+02 -0.18590221467E+02 -0.75831160164E+01  0.33193103532E+02  0.00000000000E+00 0.  1.
         -4    1    1    2    0  503  0.26432596153E+02  0.18590221467E+02  0.58503279427E+02  0.66834962238E+02  0.00000000000E+00 0. -1.
<mgrwt>
<rscale>  2 0.32315298E+02</rscale>
<asrwt>0</asrwt>
<pdfrwt beam="1">  1       21 0.11611402E-01 0.32315298E+02</pdfrwt>
<pdfrwt beam="2">  1       21 0.37775310E-02 0.32315298E+02</pdfrwt>
<totfact> 0.21698712E+07</totfact>
</mgrwt>
</event>
<event>
 4    1  0.3862688E+004  0.2481467E+02  0.7546771E-02  0.1663678E+00
         21   -1    0    0  503  502  0.00000000000E+00  0.00000000000E+00  0.23960608546E+03  0.23960608546E+03  0.00000000000E+00 0.  1.
         21   -1    0    0  501  503 -0.00000000000E+00 -0.00000000000E+00 -0.26371486924E+01  0.26371486924E+01  0.00000000000E+00 0.  1.
          4    1    1    2  501    0  0.15934760448E+02  0.19022384479E+02  0.13782382646E+03  0.14003990447E+03  0.00000000000E+00 0.  1.
         -4    1    1    2    0  502 -0.15934760448E+02 -0.19022384479E+02  0.99145110303E+02  0.10220332969E+03  0.00000000000E+00 0. -1.
<mgrwt>
<rscale>  2 0.24814667E+02</rscale>
<asrwt>0</asrwt>
<pdfrwt beam="1">  1       21 0.36862458E-01 0.24814667E+02</pdfrwt>
<pdfrwt beam="2">  1       21 0.40571537E-03 0.24814667E+02</pdfrwt>
<totfact> 0.79642040E+07</totfact>
</mgrwt>
</event>
<event>
 4    1  0.3862688E+004  0.3540305E+02  0.7546771E-02  0.1545050E+00
         21   -1    0    0  501  502  0.00000000000E+00  0.00000000000E+00  0.26453692320E+03  0.26453692320E+03  0.00000000000E+00 0.  1.
         21   -1    0    0  502  503 -0.00000000000E+00 -0.00000000000E+00 -0.49335151614E+01  0.49335151614E+01  0.00000000000E+00 0.  1.
          1    1    1    2  501    0  0.35232400887E+02  0.34718492819E+01  0.15662385953E+03  0.16057524461E+03  0.00000000000E+00 0.  1.
         -1    1    1    2    0  503 -0.35232400887E+02 -0.34718492819E+01  0.10297954852E+03  0.10889519375E+03  0.00000000000E+00 0. -1.
<mgrwt>
<rscale>  2 0.35403048E+02</rscale>
<asrwt>0</asrwt>
<pdfrwt beam="1">  1       21 0.40697977E-01 0.35403048E+02</pdfrwt>
<pdfrwt beam="2">  1       21 0.75900254E-03 0.35403048E+02</pdfrwt>
<totfact> 0.27917379E+07</totfact>
</mgrwt>
</event>
<event>
 4    1  0.3862688E+004  0.3891796E+02  0.7546771E-02  0.1516328E+00
         21   -1    0    0  501  502  0.00000000000E+00  0.00000000000E+00  0.40309856556E+02  0.40309856556E+02  0.00000000000E+00 0. -1.
         21   -1    0    0  502  503 -0.00000000000E+00 -0.00000000000E+00 -0.50812861671E+02  0.50812861671E+02  0.00000000000E+00 0. -1.
          2    1    1    2  501    0 -0.20308192847E+02  0.33199175434E+02  0.18004387747E+02  0.42880833998E+02  0.00000000000E+00 0.  1.
         -2    1    1    2    0  503  0.20308192847E+02 -0.33199175434E+02 -0.28507392862E+02  0.48241884230E+02  0.00000000000E+00 0. -1.
<mgrwt>
<rscale>  2 0.38917964E+02</rscale>
<asrwt>0</asrwt>
<pdfrwt beam="1">  1       21 0.62015164E-02 0.38917964E+02</pdfrwt>
<pdfrwt beam="2">  1       21 0.78173633E-02 0.38917964E+02</pdfrwt>
<totfact> 0.19532358E+07</totfact>
</mgrwt>
</event>
<event>
 4    1  0.3862688E+004  0.2117131E+02  0.7546771E-02  0.1722991E+00
         21   -1    0    0  501  502  0.00000000000E+00  0.00000000000E+00  0.11453876607E+03  0.11453876607E+03  0.00000000000E+00 0.  1.
         21   -1    0    0  502  503 -0.00000000000E+00 -0.00000000000E+00 -0.39641091533E+01  0.39641091533E+01  0.00000000000E+00 0.  1.
          4    1    1    2  501    0  0.13798863026E+02 -0.16056639725E+02  0.61995536383E+02  0.65510845144E+02  0.00000000000E+00 0. -1.
         -4    1    1    2    0  503 -0.13798863026E+02  0.16056639725E+02  0.48579120537E+02  0.52992030082E+02  0.00000000000E+00 0.  1.
<mgrwt>
<rscale>  2 0.21171308E+02</rscale>
<asrwt>0</asrwt>
<pdfrwt beam="1">  1       21 0.17621346E-01 0.21171308E+02</pdfrwt>
<pdfrwt beam="2">  1       21 0.60986303E-03 0.21171308E+02</pdfrwt>
<totfact> 0.15655382E+08</totfact>
</mgrwt>
</event>
<event>
 4    1  0.3862688E+004  0.2237910E+02  0.7546771E-02  0.1701777E+00
         21   -1    0    0  501  502  0.00000000000E+00  0.00000000000E+00  0.99392487147E+01  0.99392487147E+01  0.00000000000E+00 0. -1.
         21   -1    0    0  502  503 -0.00000000000E+00 -0.00000000000E+00 -0.51709161967E+02  0.51709161967E+02  0.00000000000E+00 0. -1.
          5    1    1    2  501    0  0.14990500772E+02  0.16616527855E+02 -0.25811013079E+02  0.34161857495E+02  0.00000000000E+00 0. -1.
         -5    1    1    2    0  503 -0.14990500772E+02 -0.16616527855E+02 -0.15958900174E+02  0.27486553187E+02  0.00000000000E+00 0.  1.
<mgrwt>
<rscale>  2 0.22379100E+02</rscale>
<asrwt>0</asrwt>
<pdfrwt beam="1">  1       21 0.15291152E-02 0.22379100E+02</pdfrwt>
<pdfrwt beam="2">  1       21 0.79552555E-02 0.22379100E+02</pdfrwt>
<totfact> 0.15171228E+08</totfact>
</mgrwt>
</event>
<event>
 4    1  0.3862688E+004  0.3857500E+02  0.7546771E-02  0.1518968E+00
         21   -1    0    0  501  502  0.00000000000E+00  0.00000000000E+00  0.31488006135E+03  0.31488006135E+03  0.00000000000E+00 0. -1.
         21   -1    0    0  502  503 -0.00000000000E+00 -0.00000000000E+00 -0.47715343003E+01  0.47715343003E+01  0.00000000000E+00 0. -1.
          4    1    1    2  501    0  0.18601810099E+02 -0.33793538835E+02  0.17071761054E+03  0.17502152198E+03  0.00000000000E+00 0.  1.
         -4    1    1    2    0  503 -0.18601810099E+02  0.33793538835E+02  0.13939091651E+03  0.14463007368E+03  0.00000000000E+00 0. -1.
<mgrwt>
<rscale>  2 0.38575000E+02</rscale>
<asrwt>0</asrwt>
<pdfrwt beam="1">  1       21 0.48443070E-01 0.38575000E+02</pdfrwt>
<pdfrwt beam="2">  1       21 0.73408245E-03 0.38575000E+02</pdfrwt>
<totfact> 0.21197880E+07</totfact>
</mgrwt>
</event>
<event>
 4    1  0.3862688E+004  0.4713776E+02  0.7546771E-02  0.1461421E+00
         21   -1    0    0  503  502  0.00000000000E+00  0.00000000000E+00  0.35921222883E+02  0.35921222883E+02  0.00000000000E+00 0.  1.
         21   -1    0    0  501  503 -0.00000000000E+00 -0.00000000000E+00 -0.20829512014E+03  0.20829512014E+03  0.00000000000E+00 0.  1.
          1    1    1    2  501    0  0.43554376639E+02 -0.18027327653E+02  0.16197194353E+02  0.49842926997E+02  0.00000000000E+00 0.  1.
         -1    1    1    2    0  502 -0.43554376639E+02  0.18027327653E+02 -0.18857109161E+03  0.19437341603E+03  0.00000000000E+00 0. -1.
<mgrwt>
<rscale>  2 0.47137758E+02</rscale>
<asrwt>0</asrwt>
<pdfrwt beam="1">  1       21 0.55263419E-02 0.47137758E+02</pdfrwt>
<pdfrwt beam="2">  1       21 0.32045404E-01 0.47137758E+02</pdfrwt>
<totfact> 0.20183947E+06</totfact>
</mgrwt>
</event>
<event>
 4    1  0.3862688E+004  0.2165468E+02  0.7546771E-02  0.1714293E+00
         21   -1    0    0  503  502  0.00000000000E+00  0.00000000000E+00  0.24967554634E+01  0.24967554634E+01  0.00000000000E+00 0. -1.
         21   -1    0    0  501  503 -0.00000000000E+00 -0.00000000000E+00 -0.18850294761E+03  0.18850294761E+03  0.00000000000E+00 0. -1.
          3    1    1    2  501    0  0.69112023131E+01 -0.20522194069E+02 -0.87228850336E+02  0.89876568124E+02  0.00000000000E+00 0. -1.
         -3    1    1    2    0  502 -0.69112023131E+01  0.20522194069E+02 -0.98777341810E+02  0.10112313495E+03  0.00000000000E+00 0.  1.
<mgrwt>
<rscale>  2 0.21654680E+02</rscale>
<asrwt>0</asrwt>
<pdfrwt beam="1">  1       21 0.38411621E-03 0.21654680E+02</pdfrwt>
<pdfrwt beam="2">  1       21 0.29000454E-01 0.21654680E+02</pdfrwt>
<totfact> 0.12933768E+08</totfact>
</mgrwt>
</event>
<event>
 4    1  0.3862688E+004  0.2518112E+02  0.7546771E-02  0.1658414E+00
         21   -1    0    0  503  502  0.00000000000E+00  0.00000000000E+00  0.26686357038E+02  0.26686357038E+02  0.00000000000E+00 0. -1.
         21   -1    0    0  501  503 -0.00000000000E+00 -0.00000000000E+00 -0.23859215596E+02  0.23859215596E+02  0.00000000000E+00 0. -1.
          5    1    1    2  501    0  0.24680669655E+02  0.49953313747E+01 -0.20969738724E+00  0.25181992835E+02  0.00000000000E+00 0. -1.
         -5    1    1    2    0  502 -0.24680669655E+02 -0.49953313747E+01  0.30368388294E+01  0.25363579799E+02  0.00000000000E+00 0.  1.
<mgrwt>
<rscale>  2 0.25181120E+02</rscale>
<asrwt>0</asrwt>
<pdfrwt beam="1">  1       21 0.41055934E-02 0.25181120E+02</pdfrwt>
<pdfrwt beam="2">  1       21 0.36706485E-02 0.25181120E+02</pdfrwt>
<totfact> 0.11725878E+08</totfact>
</mgrwt>
</event>
<event>
 4    1  0.3862688E+004  0.3197759E+02  0.7546771E-02  0.1577204E+00
         21   -1    0    0  503  502  0.00000000000E+00  0.00000000000E+00  0.38436457845E+02  0.38436457845E+02  0.00000000000E+00 0. -1.
         21   -1    0    0  501  503 -0.00000000000E+00 -0.00000000000E+00 -0.29416348683E+02  0.29416348683E+02  0.00000000000E+00 0. -1.
          3    1    1    2  501    0  0.22063637267E+02  0.23146538030E+02  0.14999980469E+02  0.35320896454E+02  0.00000000000E+00 0. -1.
         -3    1    1    2    0  502 -0.22063637267E+02 -0.23146538030E+02 -0.59798713063E+01  0.32531910074E+02  0.00000000000E+00 0.  1.
<mgrwt>
<rscale>  2 0.31977591E+02</rscale>
<asrwt>0</asrwt>
<pdfrwt beam="1">  1       21 0.59133012E-02 0.31977591E+02</pdfrwt>
<pdfrwt beam="2">  1       21 0.45255921E-02 0.31977591E+02</pdfrwt>
<totfact> 0.49645596E+07</totfact>
</mgrwt>
</event>
<event>
 4    1  0.3862688E+004  0.2742390E+02  0.7546771E-02  0.1628444E+00
         21   -1    0    0  501  502  0.00000000000E+00  0.00000000000E+00  0.15144303987E+01  0.15144303987E+01  0.00000000000E+00 0. -1.
         21   -1    0    0  502  503 -0.00000000000E+00 -0.00000000000E+00 -0.50989262653E+03  0.50989262653E+03  0.00000000000E+00 0. -1.
          1    1    1    2  501    0  0.16103373563E+02  0.22198013478E+02 -0.21290751930E+03  0.21466644408E+03  0.00000000000E+00 0. -1.
         -1    1    1    2    0  503 -0.16103373563E+02 -0.22198013478E+02 -0.29547067683E+03  0.29674061284E+03  0.00000000000E+00 0.  1.
<mgrwt>
<rscale>  2 0.27423903E+02</rscale>
<asrwt>0</asrwt>
<pdfrwt beam="1">  1       21 0.23298926E-03 0.27423903E+02</pdfrwt>
<pdfrwt beam="2">  1       21 0.78445031E-01 0.27423903E+02</pdfrwt>
<totfact> 0.41107936E+07</totfact>
</mgrwt>
</event>
<event>
 4    1  0.3862688E+004  0.2627723E+02  0.7546771E-02  0.1643306E+00
         21   -1    0    0  501  502  0.00000000000E+00  0.00000000000E+00  0.10657258425E+01  0.10657258425E+01  0.00000000000E+00 0.  1.
         21   -1    0    0  502  503 -0.00000000000E+00 -0.00000000000E+00 -0.67983716550E+03  0.67983716550E+03  0.00000000000E+00 0.  1.
          3    1    1    2  501    0 -0.14733936772E+02 -0.21757844254E+02 -0.41316664366E+03  0.41400141076E+03  0.00000000000E+00 0.  1.
         -3    1    1    2    0  503  0.14733936772E+02  0.21757844254E+02 -0.26560479599E+03  0.26690148057E+03  0.00000000000E+00 0. -1.
<mgrwt>
<rscale>  2 0.26277227E+02</rscale>
<asrwt>0</asrwt>
<pdfrwt beam="1">  1       21 0.16395782E-03 0.26277227E+02</pdfrwt>
<pdfrwt beam="2">  1       21 0.10459033E+00 0.26277227E+02</pdfrwt>
<totfact> 0.36445353E+07</totfact>
</mgrwt>
</event>
<event>
 4    1  0.3862688E+004  0.2360350E+02  0.7546771E-02  0.1681910E+00
         21   -1    0    0  501  502  0.00000000000E+00  0.00000000000E+00  0.22081802924E+03  0.22081802924E+03  0.00000000000E+00 0. -1.
         21   -1    0    0  502  503 -0.00000000000E+00 -0.00000000000E+00 -0.26103685005E+01  0.26103685005E+01  0.00000000000E+00 0. -1.
          2    1    1    2  501    0  0.21492655033E+02  0.97565856608E+01  0.12954097954E+03  0.13167380364E+03  0.00000000000E+00 0.  1.
         -2    1    1    2    0  503 -0.21492655033E+02 -0.97565856608E+01  0.88666681205E+02  0.91754594108E+02  0.00000000000E+00 0. -1.
<mgrwt>
<rscale>  2 0.23603499E+02</rscale>
<asrwt>0</asrwt>
<pdfrwt beam="1">  1       21 0.33971990E-01 0.23603499E+02</pdfrwt>
<pdfrwt beam="2">  1       21 0.40159533E-03 0.23603499E+02</pdfrwt>
<totfact> 0.92911224E+07</totfact>
</mgrwt>
</event>
<event>
 4    1  0.3862688E+004  0.2090591E+02  0.7546771E-02  0.1727891E+00
         21   -1    0    0  501  502  0.00000000000E+00  0.00000000000E+00  0.29079280906E+02  0.29079280906E+02  0.00000000000E+00 0. -1.
         21   -1    0    0  502  503 -0.00000000000E+00 -0.00000000000E+00 -0.17824885288E+02  0.17824885288E+02  0.00000000000E+00 0. -1.
          5    1    1    2  501    0  0.10913580296E+02 -0.17831170234E+02  0.14913924639E+02  0.25680381908E+02  0.00000000000E+00 0.  1.
         -5    1    1    2    0  503 -0.10913580296E+02  0.17831170234E+02 -0.36595290212E+01  0.21223784287E+02  0.00000000000E+00 0. -1.
<mgrwt>
<rscale>  2 0.20905905E+02</rscale>
<asrwt>0</asrwt>
<pdfrwt beam="1">  1       21 0.44737355E-02 0.20905905E+02</pdfrwt>
<pdfrwt beam="2">  1       21 0.27422900E-02 0.20905905E+02</pdfrwt>
<totfact> 0.15268290E+08</totfact>
</mgrwt>
</event>
<event>
 4    1  0.3862688E+004  0.2747142E+02  0.7546771E-02  0.1627848E+00
         21   -1    0    0  501  502  0.00000000000E+00  0.00000000000E+00  0.41930162207E+03  0.41930162207E+03  0.00000000000E+00 0.  1.
         21   -1    0    0  502  503 -0.00000000000E+00 -0.00000000000E+00 -0.40933609465E+01  0.40933609465E+01  0.00000000000E+00 0.  1.
          4    1    1    2  501    0 -0.13949593054E+02 -0.23666178777E+02  0.49141706977E+02  0.56299081066E+02  0.00000000000E+00 0. -1.
         -4    1    1    2    0  503  0.13949593054E+02  0.23666178777E+02  0.36606655415E+03  0.36709590195E+03  0.00000000000E+00 0.  1.
<mgrwt>
<rscale>  2 0.27471425E+02</rscale>
<asrwt>0</asrwt>
<pdfrwt beam="1">  1       21 0.64507908E-01 0.27471425E+02</pdfrwt>
<pdfrwt beam="2">  1       21 0.62974817E-03 0.27471425E+02</pdfrwt>
<totfact> 0.14238994E+07</totfact>
</mgrwt>
</event>
<event>
 4    1  0.3862688E+004  0.2389853E+02  0.7546771E-02  0.1677346E+00
         21   -1    0    0  501  502  0.00000000000E+00  0.00000000000E+00  0.10842265801E+02  0.10842265801E+02  0.00000000000E+00 0.  1.
         21   -1    0    0  502  503 -0.00000000000E+00 -0.00000000000E+00 -0.53159207535E+02  0.53159207535E+02  0.00000000000E+00 0.  1.
          5    1    1    2  501    0  0.15390574329E+02 -0.18283049636E+02 -0.18111141998E+02  0.29985882455E+02  0.00000000000E+00 0.  1.
         -5    1    1    2    0  503 -0.15390574329E+02  0.18283049636E+02 -0.24205799735E+02  0.34015590881E+02  0.00000000000E+00 0. -1.
<mgrwt>
<rscale>  2 0.23898529E+02</rscale>
<asrwt>0</asrwt>
<pdfrwt beam="1">  1       21 0.16680409E-02 0.23898529E+02</pdfrwt>
<pdfrwt beam="2">  1       21 0.81783396E-02 0.23898529E+02</pdfrwt>
<totfact> 0.12953892E+08</totfact>
</mgrwt>
</event>
<event>
 4    1  0.3862688E+004  0.2817295E+02  0.7546771E-02  0.1619209E+00
         21   -1    0    0  501  502  0.00000000000E+00  0.00000000000E+00  0.21268758643E+02  0.21268758643E+02  0.00000000000E+00 0. -1.
         21   -1    0    0  502  503 -0.00000000000E+00 -0.00000000000E+00 -0.46773209498E+02  0.46773209498E+02  0.00000000000E+00 0. -1.
          5    1    1    2  501    0  0.26110284877E+02 -0.10581488226E+02 -0.28048157421E+02  0.39754421190E+02  0.00000000000E+00 0. -1.
         -5    1    1    2    0  503 -0.26110284877E+02  0.10581488226E+02  0.25437065660E+01  0.28287546952E+02  0.00000000000E+00 0.  1.
<mgrwt>
<rscale>  2 0.28172946E+02</rscale>
<asrwt>0</asrwt>
<pdfrwt beam="1">  1       21 0.32721167E-02 0.28172946E+02</pdfrwt>
<pdfrwt beam="2">  1       21 0.71958783E-02 0.28172946E+02</pdfrwt>
<totfact> 0.58660833E+07</totfact>
</mgrwt>
</event>
<event>
 4    1  0.3862688E+004  0.2051563E+02  0.7546771E-02  0.1735264E+00
         21   -1    0    0  503  502  0.00000000000E+00  0.00000000000E+00  0.21674792270E+02  0.21674792270E+02  0.00000000000E+00 0. -1.
         21   -1    0    0  501  503 -0.00000000000E+00 -0.00000000000E+00 -0.20061732370E+02  0.20061732370E+02  0.00000000000E+00 0. -1.
          1    1    1    2  501    0  0.16551699996E+02  0.12121566721E+02 -0.29302583550E+01  0.20723840535E+02  0.00000000000E+00 0.  1.
         -1    1    1    2    0  502 -0.16551699996E+02 -0.12121566721E+02  0.45433182559E+01  0.21012684105E+02  0.00000000000E+00 0. -1.
<mgrwt>
<rscale>  2 0.20515632E+02</rscale>
<asrwt>0</asrwt>
<pdfrwt beam="1">  1       21 0.33345834E-02 0.20515632E+02</pdfrwt>
<pdfrwt beam="2">  1       21 0.30864204E-02 0.20515632E+02</pdfrwt>
<totfact> 0.20028839E+08</totfact>
</mgrwt>
</event>
<event>
 4    1  0.3862688E+004  0.3688876E+02  0.7546771E-02  0.1532440E+00
         21   -1    0    0  501  502  0.00000000000E+00  0.00000000000E+00  0.22859438749E+02  0.22859438749E+02  0.00000000000E+00 0.  1.
         21   -1    0    0  502  503 -0.00000000000E+00 -0.00000000000E+00 -0.80593010824E+02  0.80593010824E+02  0.00000000000E+00 0.  1.
          1    1    1    2  501    0 -0.11720466804E+02  0.34977292494E+02 -0.24219253050E+01  0.36968176239E+02  0.00000000000E+00 0. -1.
         -1    1    1    2    0  503  0.11720466804E+02 -0.34977292494E+02 -0.55311646770E+02  0.66484273333E+02  0.00000000000E+00 0.  1.
<mgrwt>
<rscale>  2 0.36888756E+02</rscale>
<asrwt>0</asrwt>
<pdfrwt beam="1">  1       21 0.35168367E-02 0.36888756E+02</pdfrwt>
<pdfrwt beam="2">  1       21 0.12398925E-01 0.36888756E+02</pdfrwt>
<totfact> 0.22265478E+07</totfact>
</mgrwt>
</event>
<event>
 4    1  0.3862688E+004  0.2020342E+02  0.7546771E-02  0.1741313E+00
         21   -1    0    0  501  502  0.00000000000E+00  0.00000000000E+00  0.30487426850E+01  0.30487426850E+01  0.00000000000E+00 0. -1.
         21   -1    0    0  502  503 -0.00000000000E+00 -0.00000000000E+00 -0.16777564137E+03  0.16777564137E+03  0.00000000000E+00 0. -1.
          1    1    1    2  501    0 -0.81661405856E+01 -0.18479509527E+02 -0.43974946831E+02  0.48393946659E+02  0.00000000000E+00 0. -1.
         -1    1    1    2    0  503  0.81661405856E+01  0.18479509527E+02 -0.12075195185E+03  0.12243043740E+03  0.00000000000E+00 0.  1.
<mgrwt>
<rscale>  2 0.20203419E+02</rscale>
<asrwt>0</asrwt>
<pdfrwt beam="1">  1       21 0.46903742E-03 0.20203419E+02</pdfrwt>
<pdfrwt beam="2">  1       21 0.25811632E-01 0.20203419E+02</pdfrwt>
<totfact> 0.11662353E+08</totfact>
</mgrwt>
</event>
<event>
 4    1  0.3862688E+004  0.3748685E+02  0.7546771E-02  0.1527564E+00
         21   -1    0    0  501  502  0.00000000000E+00  0.00000000000E+00  0.31939981964E+03  0.31939981964E+03  0.00000000000E+00 0. -1.
         21   -1    0    0  502  503 -0.00000000000E+00 -0.00000000000E+00 -0.50455044501E+01  0.50455044501E+01  0.00000000000E+00 0. -1.
          5    1    1    2  501    0  0.33873255647E+02  0.16058229364E+02  0.21521468610E+03  0.21845508758E+03  0.00000000000E+00 0. -1.
         -5    1    1    2    0  503 -0.33873255647E+02 -0.16058229364E+02  0.99139629095E+02  0.10599023651E+03  0.00000000000E+00 0.  1.
<mgrwt>
<rscale>  2 0.37486853E+02</rscale>
<asrwt>0</asrwt>
<pdfrwt beam="1">  1       21 0.49138418E-01 0.37486853E+02</pdfrwt>
<pdfrwt beam="2">  1       21 0.77623170E-03 0.37486853E+02</pdfrwt>
<totfact> 0.18856989E+07</totfact>
</mgrwt>
</event>
<event>
 4    1  0.3862688E+004  0.2520405E+02  0.7546771E-02  0.1658088E+00
         21   -1    0    0  501  502  0.00000000000E+00  0.00000000000E+00  0.38783887898E+03  0.38783887898E+03  0.00000000000E+00 0. -1.
         21   -1    0    0  502  503 -0.00000000000E+00 -0.00000000000E+00 -0.16388295598E+01  0.16388295598E+01  0.00000000000E+00 0. -1.
          4    1    1    2  501    0  0.16738706960E+02 -0.18843025442E+02  0.18847896688E+03  0.19015668506E+03  0.00000000000E+00 0.  1.
         -4    1    1    2    0  503 -0.16738706960E+02  0.18843025442E+02  0.19772108254E+03  0.19932102348E+03  0.00000000000E+00 0. -1.
<mgrwt>
<rscale>  2 0.25204046E+02</rscale>
<asrwt>0</asrwt>
<pdfrwt beam="1">  1       21 0.59667447E-01 0.25204046E+02</pdfrwt>
<pdfrwt beam="2">  1       21 0.25212793E-03 0.25204046E+02</pdfrwt>
<totfact> 0.63159663E+07</totfact>
</mgrwt>
</event>
<event>
 4    1  0.3862688E+004  0.2552223E+02  0.7546771E-02  0.1653612E+00
         21   -1    0    0  503  502  0.00000000000E+00  0.00000000000E+00  0.41768094509E+01  0.41768094509E+01  0.00000000000E+00 0.  1.
         21   -1    0    0  501  503 -0.00000000000E+00 -0.00000000000E+00 -0.15622546051E+03  0.15622546051E+03  0.00000000000E+00 0.  1.
          3    1    1    2  501    0  0.14724210236E+02  0.20846631172E+02 -0.72672703824E+02  0.77024062990E+02  0.00000000000E+00 0. -1.
         -3    1    1    2    0  502 -0.14724210236E+02 -0.20846631172E+02 -0.79375947232E+02  0.83378206968E+02  0.00000000000E+00 0.  1.
<mgrwt>
<rscale>  2 0.25522233E+02</rscale>
<asrwt>0</asrwt>
<pdfrwt beam="1">  1       21 0.64258614E-03 0.25522233E+02</pdfrwt>
<pdfrwt beam="2">  1       21 0.24034684E-01 0.25522233E+02</pdfrwt>
<totfact> 0.88623335E+07</totfact>
</mgrwt>
</event>
<event>
 4    1  0.3862688E+004  0.3215838E+02  0.7546771E-02  0.1575387E+00
         21   -1    0    0  501  502  0.00000000000E+00  0.00000000000E+00  0.90867272850E+03  0.90867272850E+03  0.00000000000E+00 0. -1.
         21   -1    0    0  502  503 -0.00000000000E+00 -0.00000000000E+00 -0.11405097945E+01  0.11405097945E+01  0.00000000000E+00 0. -1.
          2    1    1    2  501    0 -0.35038404939E+01  0.31966927748E+02  0.47467206187E+03  0.47576015774E+03  0.00000000000E+00 0.  1.
         -2    1    1    2    0  503  0.35038404939E+01 -0.31966927748E+02  0.43286015683E+03  0.43405308055E+03  0.00000000000E+00 0. -1.
<mgrwt>
<rscale>  2 0.32158379E+02</rscale>
<asrwt>0</asrwt>
<pdfrwt beam="1">  1       21 0.13979523E+00 0.32158379E+02</pdfrwt>
<pdfrwt beam="2">  1       21 0.17546377E-03 0.32158379E+02</pdfrwt>
<totfact> 0.17531644E+07</totfact>
</mgrwt>
</event>
<event>
 4    1  0.3862688E+004  0.3269593E+02  0.7546771E-02  0.1570068E+00
         21   -1    0    0  503  502  0.00000000000E+00  0.00000000000E+00  0.10384177695E+03  0.10384177695E+03  0.00000000000E+00 0.  1.
         21   -1    0    0  501  503 -0.00000000000E+00 -0.00000000000E+00 -0.21650167337E+02  0.21650167337E+02  0.00000000000E+00 0.  1.
          5    1    1    2  501    0 -0.28197533252E+02  0.16550623217E+02  0.86537757008E+02  0.92508417986E+02  0.00000000000E+00 0.  1.
         -5    1    1    2    0  502  0.28197533252E+02 -0.16550623217E+02 -0.43461473913E+01  0.32983526305E+02  0.00000000000E+00 0. -1.
<mgrwt>
<rscale>  2 0.32695933E+02</rscale>
<asrwt>0</asrwt>
<pdfrwt beam="1">  1       21 0.15975658E-01 0.32695933E+02</pdfrwt>
<pdfrwt beam="2">  1       21 0.33307950E-02 0.32695933E+02</pdfrwt>
<totfact> 0.15368307E+07</totfact>
</mgrwt>
</event>
<event>
 4    1  0.3862688E+004  0.2017659E+02  0.7546771E-02  0.1741839E+00
         21   -1    0    0  501  502  0.00000000000E+00  0.00000000000E+00  0.37220832290E+03  0.37220832290E+03  0.00000000000E+00 0.  1.
         21   -1    0    0  502  503 -0.00000000000E+00 -0.00000000000E+00 -0.14516963146E+01  0.14516963146E+01  0.00000000000E+00 0.  1.
          5    1    1    2  501    0 -0.15646694327E+02 -0.12738749807E+02  0.27815328660E+03  0.27888410789E+03  0.00000000000E+00 0.  1.
         -5    1    1    2    0  503  0.15646694327E+02  0.12738749807E+02  0.92603339984E+02  0.94775911318E+02  0.00000000000E+00 0. -1.
<mgrwt>
<rscale>  2 0.20176590E+02</rscale>
<asrwt>0</asrwt>
<pdfrwt beam="1">  1       21 0.57262743E-01 0.20176590E+02</pdfrwt>
<pdfrwt beam="2">  1       21 0.22333819E-03 0.20176590E+02</pdfrwt>
<totfact> 0.77371071E+07</totfact>
</mgrwt>
</event>
<event>
 4    1  0.3862688E+004  0.2669668E+02  0.7546771E-02  0.1637763E+00
         21   -1    0    0  501  502  0.00000000000E+00  0.00000000000E+00  0.20371661353E+01  0.20371661353E+01  0.00000000000E+00 0.  1.
         21   -1    0    0  502  503 -0.00000000000E+00 -0.00000000000E+00 -0.37442553768E+03  0.37442553768E+03  0.00000000000E+00 0.  1.
          4    1    1    2  501    0  0.34747354324E+01 -0.26469588307E+02 -0.13797543188E+03  0.14053445377E+03  0.00000000000E+00 0.  1.
         -4    1    1    2    0  503 -0.34747354324E+01  0.26469588307E+02 -0.23441293966E+03  0.23592825005E+03  0.00000000000E+00 0. -1.
<mgrwt>
<rscale>  2 0.26696683E+02</rscale>
<asrwt>0</asrwt>
<pdfrwt beam="1">  1       21 0.31341016E-03 0.26696683E+02</pdfrwt>
<pdfrwt beam="2">  1       21 0.57603932E-01 0.26696683E+02</pdfrwt>
<totfact> 0.49943294E+07</totfact>
</mgrwt>
</event>
<event>
 4    1  0.3862688E+004  0.2417396E+02  0.7546771E-02  0.1673158E+00
         21   -1    0    0  501  502  0.00000000000E+00  0.00000000000E+00  0.14022538746E+03  0.14022538746E+03  0.00000000000E+00 0.  1.
         21   -1    0    0  502  503 -0.00000000000E+00 -0.00000000000E+00 -0.41812778463E+01  0.41812778463E+01  0.00000000000E+00 0.  1.
          4    1    1    2  501    0 -0.24159220134E+02 -0.84413403515E+00  0.63867899380E+02  0.68289743380E+02  0.00000000000E+00 0. -1.
         -4    1    1    2    0  503  0.24159220134E+02  0.84413403515E+00  0.72176210232E+02  0.76116921924E+02  0.00000000000E+00 0.  1.
<mgrwt>
<rscale>  2 0.24173963E+02</rscale>
<asrwt>0</asrwt>
<pdfrwt beam="1">  1       21 0.21573133E-01 0.24173963E+02</pdfrwt>
<pdfrwt beam="2">  1       21 0.64327362E-03 0.24173963E+02</pdfrwt>
<totfact> 0.10567472E+08</totfact>
</mgrwt>
</event>
<event>
 4    1  0.3862688E+004  0.2106162E+02  0.7546771E-02  0.1725005E+00
         21   -1    0    0  501  502  0.00000000000E+00  0.00000000000E+00  0.24497478355E+02  0.24497478355E+02  0.00000000000E+00 0.  1.
         21   -1    0    0  502  503 -0.00000000000E+00 -0.00000000000E+00 -0.23382031482E+02  0.23382031482E+02  0.00000000000E+00 0.  1.
          3    1    1    2  501    0 -0.20324258791E+02 -0.55241474704E+01 -0.10812381029E+02  0.23674866086E+02  0.00000000000E+00 0.  1.
         -3    1    1    2    0  503  0.20324258791E+02  0.55241474704E+01  0.11927827902E+02  0.24204643751E+02  0.00000000000E+00 0. -1.
<mgrwt>
<rscale>  2 0.21061617E+02</rscale>
<asrwt>0</asrwt>
<pdfrwt beam="1">  1       21 0.37688428E-02 0.21061617E+02</pdfrwt>
<pdfrwt beam="2">  1       21 0.35972356E-02 0.21061617E+02</pdfrwt>
<totfact> 0.13140604E+08</totfact>
</mgrwt>
</event>
<event>
 4    1  0.3862688E+004  0.3748383E+02  0.7546771E-02  0.1527589E+00
         21   -1    0    0  503  502  0.00000000000E+00  0.00000000000E+00  0.56553409944E+02  0.56553409944E+02  0.00000000000E+00 0. -1.
         21   -1    0    0  501  503 -0.00000000000E+00 -0.00000000000E+00 -0.25490173092E+02  0.25490173092E+02  0.00000000000E+00 0. -1.
          3    1    1    2  501    0  0.19562909763E+02 -0.31973893965E+02  0.90024551977E+01  0.38549728057E+02  0.00000000000E+00 0. -1.
         -3    1    1    2    0  502 -0.19562909763E+02  0.31973893965E+02  0.22060781655E+02  0.43493854979E+02  0.00000000000E+00 0.  1.
<mgrwt>
<rscale>  2 0.37483828E+02</rscale>
<asrwt>0</asrwt>
<pdfrwt beam="1">  1       21 0.87005246E-02 0.37483828E+02</pdfrwt>
<pdfrwt beam="2">  1       21 0.39215651E-02 0.37483828E+02</pdfrwt>
<totfact> 0.34130886E+07</totfact>
</mgrwt>
</event>
<event>
 4    1  0.3862688E+004  0.2170642E+02  0.7546771E-02  0.1713379E+00
         21   -1    0    0  503  502  0.00000000000E+00  0.00000000000E+00  0.51778254728E+02  0.51778254728E+02  0.00000000000E+00 0.  1.
         21   -1    0    0  501  503 -0.00000000000E+00 -0.00000000000E+00 -0.10292042780E+02  0.10292042780E+02  0.00000000000E+00 0.  1.
          5    1    1    2  501    0 -0.15457948488E+02  0.15238783740E+02  0.31306321907E+02  0.38095334264E+02  0.00000000000E+00 0. -1.
         -5    1    1    2    0  502  0.15457948488E+02 -0.15238783740E+02  0.10179890041E+02  0.23974963245E+02  0.00000000000E+00 0.  1.
<mgrwt>
<rscale>  2 0.21706421E+02</rscale>
<asrwt>0</asrwt>
<pdfrwt beam="1">  1       21 0.79658852E-02 0.21706421E+02</pdfrwt>
<pdfrwt beam="2">  1       21 0.15833912E-02 0.21706421E+02</pdfrwt>
<totfact> 0.14224486E+08</totfact>
</mgrwt>
</event>
<event>
 4    1  0.3862688E+004  0.2020200E+02  0.7546771E-02  0.1741341E+00
         21   -1    0    0  503  502  0.00000000000E+00  0.00000000000E+00  0.69670879888E+02  0.69670879888E+02  0.00000000000E+00 0. -1.
         21   -1    0    0  501  503 -0.00000000000E+00 -0.00000000000E+00 -0.59322934643E+01  0.59322934643E+01  0.00000000000E+00 0. -1.
          4    1    1    2  501    0 -0.20115966257E+02 -0.18623962002E+01  0.36104275449E+02  0.41371963016E+02  0.00000000000E+00 0. -1.
         -4    1    1    2    0  502  0.20115966257E+02  0.18623962002E+01  0.27634310975E+02  0.34231210337E+02  0.00000000000E+00 0.  1.
<mgrwt>
<rscale>  2 0.20201995E+02</rscale>
<asrwt>0</asrwt>
<pdfrwt beam="1">  1       21 0.10718596E-01 0.20201995E+02</pdfrwt>
<pdfrwt beam="2">  1       21 0.91266058E-03 0.20201995E+02</pdfrwt>
<totfact> 0.19592131E+08</totfact>
</mgrwt>
</event>
<event>
 4    1  0.3862688E+004  0.2272178E+02  0.7546771E-02  0.1696060E+00
         21   -1    0    0  501  502  0.00000000000E+00  0.00000000000E+00  0.22767549602E+02  0.22767549602E+02  0.00000000000E+00 0.  1.
         21   -1    0    0  502  503 -0.00000000000E+00 -0.00000000000E+00 -0.23291989970E+02  0.23291989970E+02  0.00000000000E+00 0.  1.
          2    1    1    2  501    0 -0.21861944688E+02 -0.61915129794E+01  0.34826291520E+01  0.22987130407E+02  0.00000000000E+00 0.  1.
         -2    1    1    2    0  503  0.21861944688E+02  0.61915129794E+01 -0.40070695203E+01  0.23072409165E+02  0.00000000000E+00 0. -1.
<mgrwt>
<rscale>  2 0.22721784E+02</rscale>
<asrwt>0</asrwt>
<pdfrwt beam="1">  1       21 0.35026999E-02 0.22721784E+02</pdfrwt>
<pdfrwt beam="2">  1       21 0.35833831E-02 0.22721784E+02</pdfrwt>
<totfact> 0.15174499E+08</totfact>
</mgrwt>
</event>
<event>
 4    1  0.3862688E+004  0.2068674E+02  0.7546771E-02  0.1732006E+00
         21   -1    0    0  503  502  0.00000000000E+00  0.00000000000E+00  0.83141532496E+03  0.83141532496E+03  0.00000000000E+00 0.  1.
         21   -1    0    0  501  503 -0.00000000000E+00 -0.00000000000E+00 -0.73336946153E+00  0.73336946153E+00  0.00000000000E+00 0.  1.
          5    1    1    2  501    0 -0.18887181021E+02  0.84389313977E+01  0.64253119136E+03  0.64286411709E+03  0.00000000000E+00 0.  1.
         -5    1    1    2    0  502  0.18887181021E+02 -0.84389313977E+01  0.18815076413E+03  0.18928457733E+03  0.00000000000E+00 0. -1.
<mgrwt>
<rscale>  2 0.20686739E+02</rscale>
<asrwt>0</asrwt>
<pdfrwt beam="1">  1       21 0.12790930E+00 0.20686739E+02</pdfrwt>
<pdfrwt beam="2">  1       21 0.11282674E-03 0.20686739E+02</pdfrwt>
<totfact> 0.37723750E+07</totfact>
</mgrwt>
</event>
<event>
 4    1  0.3862688E+004  0.2803459E+02  0.7546771E-02  0.1620888E+00
         21   -1    0    0  501  502  0.00000000000E+00  0.00000000000E+00  0.20980432398E+02  0.20980432398E+02  0.00000000000E+00 0. -1.
         21   -1    0    0  502  503 -0.00000000000E+00 -0.00000000000E+00 -0.56373100994E+02  0.56373100994E+02  0.00000000000E+00 0. -1.
          2    1    1    2  501    0  0.18361639916E+02  0.21184625291E+02 -0.40098471634E+02  0.48926737031E+02  0.00000000000E+00 0. -1.
         -2    1    1    2    0  503 -0.18361639916E+02 -0.21184625291E+02  0.47058030381E+01  0.28426796361E+02  0.00000000000E+00 0.  1.
<mgrwt>
<rscale>  2 0.28034589E+02</rscale>
<asrwt>0</asrwt>
<pdfrwt beam="1">  1       21 0.32277589E-02 0.28034589E+02</pdfrwt>
<pdfrwt beam="2">  1       21 0.86727847E-02 0.28034589E+02</pdfrwt>
<totfact> 0.44048073E+07</totfact>
</mgrwt>
</event>
<event>
 4    1  0.3862688E+004  0.2191949E+02  0.7546771E-02  0.1709648E+00
         21   -1    0    0  501  502  0.00000000000E+00  0.00000000000E+00  0.24792394223E+02  0.24792394223E+02  0.00000000000E+00 0.  1.
         21   -1    0    0  502  503 -0.00000000000E+00 -0.00000000000E+00 -0.20121113513E+02  0.20121113513E+02  0.00000000000E+00 0.  1.
          1    1    1    2  501    0 -0.21020534203E+02 -0.62129709772E+01  0.66469952542E+01  0.22905161263E+02  0.00000000000E+00 0.  1.
         -1    1    1    2    0  503  0.21020534203E+02  0.62129709772E+01 -0.19757145439E+01  0.22008346474E+02  0.00000000000E+00 0. -1.
<mgrwt>
<rscale>  2 0.21919486E+02</rscale>
<asrwt>0</asrwt>
<pdfrwt beam="1">  1       21 0.38142145E-02 0.21919486E+02</pdfrwt>
<pdfrwt beam="2">  1       21 0.30955559E-02 0.21919486E+02</pdfrwt>
<totfact> 0.16502565E+08</totfact>
</mgrwt>
</event>
<event>
 4    1  0.3862688E+004  0.2333642E+02  0.7546771E-02  0.1686114E+00
         21   -1    0    0  501  502  0.00000000000E+00  0.00000000000E+00  0.16356448625E+03  0.16356448625E+03  0.00000000000E+00 0. -1.
         21   -1    0    0  502  503 -0.00000000000E+00 -0.00000000000E+00 -0.38207175831E+01  0.38207175831E+01  0.00000000000E+00 0. -1.
          2    1    1    2  501    0 -0.22328199867E+02  0.67852748549E+01  0.10988079167E+03  0.11233154874E+03  0.00000000000E+00 0.  1.
         -2    1    1    2    0  503  0.22328199867E+02 -0.67852748549E+01  0.49862976994E+02  0.55053655091E+02  0.00000000000E+00 0. -1.
<mgrwt>
<rscale>  2 0.23336419E+02</rscale>
<asrwt>0</asrwt>
<pdfrwt beam="1">  1       21 0.25163762E-01 0.23336419E+02</pdfrwt>
<pdfrwt beam="2">  1       21 0.58780283E-03 0.23336419E+02</pdfrwt>
<totfact> 0.91076324E+07</totfact>
</mgrwt>
</event>
<event>
 4    1  0.3862688E+004  0.2018405E+02  0.7546771E-02  0.1741693E+00
         21   -1    0    0  503  502  0.00000000000E+00  0.00000000000E+00  0.30014391750E+01  0.30014391750E+01  0.00000000000E+00 0.  1.
         21   -1    0    0  501  503 -0.00000000000E+00 -0.00000000000E+00 -0.17707544385E+03  0.17707544385E+03  0.00000000000E+00 0.  1.
          3    1    1    2  501    0 -0.17067820575E+02 -0.10774286712E+02 -0.13054252647E+03  0.13209370527E+03  0.00000000000E+00 0. -1.
         -3    1    1    2    0  502  0.17067820575E+02  0.10774286712E+02 -0.43531478208E+02  0.47983177763E+02  0.00000000000E+00 0.  1.
<mgrwt>
<rscale>  2 0.20184047E+02</rscale>
<asrwt>0</asrwt>
<pdfrwt beam="1">  1       21 0.46175969E-03 0.20184047E+02</pdfrwt>
<pdfrwt beam="2">  1       21 0.27242387E-01 0.20184047E+02</pdfrwt>
<totfact> 0.10834931E+08</totfact>
</mgrwt>
</event>
<event>
 4    1  0.3862688E+004  0.2537228E+02  0.7546771E-02  0.1655712E+00
         21   -1    0    0  503  502  0.00000000000E+00  0.00000000000E+00  0.30940568761E+01  0.30940568761E+01  0.00000000000E+00 0.  1.
         21   -1    0    0  501  503 -0.00000000000E+00 -0.00000000000E+00 -0.20807842239E+03  0.20807842239E+03  0.00000000000E+00 0.  1.
          3    1    1    2  501    0 -0.24790972241E+02  0.54000404800E+01 -0.10345677763E+03  0.10652256841E+03  0.00000000000E+00 0. -1.
         -3    1    1    2    0  502  0.24790972241E+02 -0.54000404800E+01 -0.10152758788E+03  0.10464991085E+03  0.00000000000E+00 0.  1.
<mgrwt>
<rscale>  2 0.25372283E+02</rscale>
<asrwt>0</asrwt>
<pdfrwt beam="1">  1       21 0.47600857E-03 0.25372283E+02</pdfrwt>
<pdfrwt beam="2">  1       21 0.32012077E-01 0.25372283E+02</pdfrwt>
<totfact> 0.82189033E+07</totfact>
</mgrwt>
</event>
<event>
 4    1  0.3862688E+004  0.2349425E+02  0.7546771E-02  0.1683621E+00
         21   -1    0    0  503  502  0.00000000000E+00  0.00000000000E+00  0.14091517262E+02  0.14091517262E+02  0.00000000000E+00 0. -1.
         21   -1    0    0  501  503 -0.00000000000E+00 -0.00000000000E+00 -0.40730349988E+02  0.40730349988E+02  0.00000000000E+00 0. -1.
          1    1    1    2  501    0  0.23426592484E+02 -0.17817597555E+01 -0.79561930711E+01  0.24804856610E+02  0.00000000000E+00 0. -1.
         -1    1    1    2    0  502 -0.23426592484E+02  0.17817597555E+01 -0.18682639656E+02  0.30017010640E+02  0.00000000000E+00 0.  1.
<mgrwt>
<rscale>  2 0.23494253E+02</rscale>
<asrwt>0</asrwt>
<pdfrwt beam="1">  1       21 0.21679258E-02 0.23494253E+02</pdfrwt>
<pdfrwt beam="2">  1       21 0.62662076E-02 0.23494253E+02</pdfrwt>
<totfact> 0.13287107E+08</totfact>
</mgrwt>
</event>
<event>
 4    1  0.3862688E+004  0.2902056E+02  0.7546771E-02  0.1609174E+00
         21   -1    0    0  503  502  0.00000000000E+00  0.00000000000E+00  0.33388573176E+02  0.33388573176E+02  0.00000000000E+00 0.  1.
         21   -1    0    0  501  503 -0.00000000000E+00 -0.00000000000E+00 -0.26146540220E+02  0.26146540220E+02  0.00000000000E+00 0.  1.
          4    1    1    2  501    0 -0.22436050956E+02  0.18406973811E+02 -0.19705161191E+01  0.29087385602E+02  0.00000000000E+00 0.  1.
         -4    1    1    2    0  502  0.22436050956E+02 -0.18406973811E+02  0.92125490749E+01  0.30447727794E+02  0.00000000000E+00 0. -1.
<mgrwt>
<rscale>  2 0.29020563E+02</rscale>
<asrwt>0</asrwt>
<pdfrwt beam="1">  1       21 0.51367036E-02 0.29020563E+02</pdfrwt>
<pdfrwt beam="2">  1       21 0.40225447E-02 0.29020563E+02</pdfrwt>
<totfact> 0.73615630E+07</totfact>
</mgrwt>
</event>
<event>
 4    1  0.3862688E+004  0.3379392E+02  0.7546771E-02  0.1559579E+00
         21   -1    0    0  501  502  0.00000000000E+00  0.00000000000E+00  0.54920370372E+01  0.54920370372E+01  0.00000000000E+00 0.  1.
         21   -1    0    0  502  503 -0.00000000000E+00 -0.00000000000E+00 -0.20918713969E+03  0.20918713969E+03  0.00000000000E+00 0.  1.
          2    1    1    2  501    0 -0.23435710381E+02 -0.24347417282E+02 -0.93568668100E+02  0.99484294738E+02  0.00000000000E+00 0.  1.
         -2    1    1    2    0  503  0.23435710381E+02  0.24347417282E+02 -0.11012643455E+03  0.11519488199E+03  0.00000000000E+00 0. -1.
<mgrwt>
<rscale>  2 0.33793923E+02</rscale>
<asrwt>0</asrwt>
<pdfrwt beam="1">  1       21 0.84492868E-03 0.33793923E+02</pdfrwt>
<pdfrwt beam="2">  1       21 0.32182640E-01 0.33793923E+02</pdfrwt>
<totfact> 0.36692805E+07</totfact>
</mgrwt>
</event>
<event>
 4    1  0.3862688E+004  0.2568149E+02  0.7546771E-02  0.1651402E+00
         21   -1    0    0  501  502  0.00000000000E+00  0.00000000000E+00  0.75606482154E+02  0.75606482154E+02  0.00000000000E+00 0. -1.
         21   -1    0    0  502  503 -0.00000000000E+00 -0.00000000000E+00 -0.98656068284E+01  0.98656068284E+01  0.00000000000E+00 0. -1.
          3    1    1    2  501    0  0.20368154496E+02 -0.15642161541E+02  0.47412349950E+02  0.53920959404E+02  0.00000000000E+00 0.  1.
         -3    1    1    2    0  503 -0.20368154496E+02  0.15642161541E+02  0.18328525376E+02  0.31551129579E+02  0.00000000000E+00 0. -1.
<mgrwt>
<rscale>  2 0.25681490E+02</rscale>
<asrwt>0</asrwt>
<pdfrwt beam="1">  1       21 0.11631766E-01 0.25681490E+02</pdfrwt>
<pdfrwt beam="2">  1       21 0.15177857E-02 0.25681490E+02</pdfrwt>
<totfact> 0.85113350E+07</totfact>
</mgrwt>
</event>
<event>
 4    1  0.3862688E+004  0.2817258E+02  0.7546771E-02  0.1619214E+00
         21   -1    0    0  503  502  0.00000000000E+00  0.00000000000E+00  0.17965276563E+02  0.17965276563E+02  0.00000000000E+00 0. -1.
         21   -1    0    0  501  503 -0.00000000000E+00 -0.00000000000E+00 -0.68442289269E+02  0.68442289269E+02  0.00000000000E+00 0. -1.
          5    1    1    2  501    0  0.23720635642E+02 -0.15199533750E+02 -0.50962070782E+02  0.58230808340E+02  0.00000000000E+00 0.  1.
         -5    1    1    2    0  502 -0.23720635642E+02  0.15199533750E+02  0.48505807580E+00  0.28176757493E+02  0.00000000000E+00 0. -1.
<mgrwt>
<rscale>  2 0.28172582E+02</rscale>
<asrwt>0</asrwt>
<pdfrwt beam="1">  1       21 0.27638887E-02 0.28172582E+02</pdfrwt>
<pdfrwt beam="2">  1       21 0.10529583E-01 0.28172582E+02</pdfrwt>
<totfact> 0.40738957E+07</totfact>
</mgrwt>
</event>
<event>
 4    1  0.3862688E+004  0.2492696E+02  0.7546771E-02  0.1662053E+00
         21   -1    0    0  501  502  0.00000000000E+00  0.00000000000E+00  0.85948534146E+02  0.85948534146E+02  0.00000000000E+00 0.  1.
         21   -1    0    0  502  503 -0.00000000000E+00 -0.00000000000E+00 -0.77100642101E+01  0.77100642101E+01  0.00000000000E+00 0.  1.
          1    1    1    2  501    0 -0.15754749645E+02 -0.19316864916E+02  0.50812207625E+02  0.56597118745E+02  0.00000000000E+00 0.  1.
         -1    1    1    2    0  503  0.15754749645E+02  0.19316864916E+02  0.27426262311E+02  0.37061479611E+02  0.00000000000E+00 0. -1.
<mgrwt>
<rscale>  2 0.24926961E+02</rscale>
<asrwt>0</asrwt>
<pdfrwt beam="1">  1       21 0.13222851E-01 0.24926961E+02</pdfrwt>
<pdfrwt beam="2">  1       21 0.11861638E-02 0.24926961E+02</pdfrwt>
<totfact> 0.98987612E+07</totfact>
</mgrwt>
</event>
<event>
 4    1  0.3862688E+004  0.2205622E+02  0.7546771E-02  0.1707281E+00
         21   -1    0    0  501  502  0.00000000000E+00  0.00000000000E+00  0.24435999726E+02  0.24435999726E+02  0.00000000000E+00 0.  1.
         21   -1    0    0  502  503 -0.00000000000E+00 -0.00000000000E+00 -0.23050888756E+02  0.23050888756E+02  0.00000000000E+00 0.  1.
          1    1    1    2  501    0 -0.14618205293E+02  0.16516205958E+02 -0.80744233360E+01  0.23487726528E+02  0.00000000000E+00 0.  1.
         -1    1    1    2    0  503  0.14618205293E+02 -0.16516205958E+02  0.94595343059E+01  0.23999161955E+02  0.00000000000E+00 0. -1.
<mgrwt>
<rscale>  2 0.22056223E+02</rscale>
<asrwt>0</asrwt>
<pdfrwt beam="1">  1       21 0.37593846E-02 0.22056223E+02</pdfrwt>
<pdfrwt beam="2">  1       21 0.35462906E-02 0.22056223E+02</pdfrwt>
<totfact> 0.13680777E+08</totfact>
</mgrwt>
</event>
<event>
 4    1  0.3862688E+004  0.3166907E+02  0.7546771E-02  0.1580340E+00
         21   -1    0    0  503  502  0.00000000000E+00  0.00000000000E+00  0.65891747969E+01  0.65891747969E+01  0.00000000000E+00 0. -1.
         21   -1    0    0  501  503 -0.00000000000E+00 -0.00000000000E+00 -0.16050970153E+03  0.16050970153E+03  0.00000000000E+00 0. -1.
          1    1    1    2  501    0 -0.22980829633E+02  0.21790170965E+02 -0.57960125949E+02  0.66047757580E+02  0.00000000000E+00 0.  1.
         -1    1    1    2    0  502  0.22980829633E+02 -0.21790170965E+02 -0.95960400782E+02  0.10105111874E+03  0.00000000000E+00 0. -1.
<mgrwt>
<rscale>  2 0.31669071E+02</rscale>
<asrwt>0</asrwt>
<pdfrwt beam="1">  1       21 0.10137193E-02 0.31669071E+02</pdfrwt>
<pdfrwt beam="2">  1       21 0.24693799E-01 0.31669071E+02</pdfrwt>
<totfact> 0.44664991E+07</totfact>
</mgrwt>
</event>
<event>
 4    1  0.3862688E+004  0.4367872E+02  0.7546771E-02  0.1482763E+00
         21   -1    0    0  501  502  0.00000000000E+00  0.00000000000E+00  0.28258638290E+02  0.28258638290E+02  0.00000000000E+00 0. -1.
         21   -1    0    0  502  503 -0.00000000000E+00 -0.00000000000E+00 -0.69873771382E+02  0.69873771382E+02  0.00000000000E+00 0. -1.
          3    1    1    2  501    0  0.43292318119E+02  0.57970657063E+01 -0.29826080567E+02  0.52890697300E+02  0.00000000000E+00 0. -1.
         -3    1    1    2    0  503 -0.43292318119E+02 -0.57970657063E+01 -0.11789052525E+02  0.45241712372E+02  0.00000000000E+00 0.  1.
<mgrwt>
<rscale>  2 0.43678722E+02</rscale>
<asrwt>0</asrwt>
<pdfrwt beam="1">  1       21 0.43474828E-02 0.43678722E+02</pdfrwt>
<pdfrwt beam="2">  1       21 0.10749811E-01 0.43678722E+02</pdfrwt>
<totfact> 0.20768252E+07</totfact>
</mgrwt>
</event>
<event>
 4    1  0.3862688E+004  0.3176048E+02  0.7546771E-02  0.1579406E+00
         21   -1    0    0  501  502  0.00000000000E+00  0.00000000000E+00  0.22591642395E+03  0.22591642395E+03  0.00000000000E+00 0.  1.
         21   -1    0    0  502  503 -0.00000000000E+00 -0.00000000000E+00 -0.76412822987E+01  0.76412822987E+01  0.00000000000E+00 0.  1.
          5    1    1    2  501    0  0.27169436085E+02  0.16448399564E+02  0.18442755736E+03  0.18714233091E+03  0.00000000000E+00 0.  1.
         -5    1    1    2    0  503 -0.27169436085E+02 -0.16448399564E+02  0.33847584296E+02  0.46415375341E+02  0.00000000000E+00 0. -1.
<mgrwt>
<rscale>  2 0.31760480E+02</rscale>
<asrwt>0</asrwt>
<pdfrwt beam="1">  1       21 0.34756368E-01 0.31760480E+02</pdfrwt>
<pdfrwt beam="2">  1       21 0.11755821E-02 0.31760480E+02</pdfrwt>
<totfact> 0.19024712E+07</totfact>
</mgrwt>
</event>
<event>
 4    1  0.3862688E+004  0.2145886E+02  0.7546771E-02  0.1717782E+00
         21   -1    0    0  501  502  0.00000000000E+00  0.00000000000E+00  0.15328553706E+04  0.15328553706E+04  0.00000000000E+00 0. -1.
         21   -1    0    0  502  503 -0.00000000000E+00 -0.00000000000E+00 -0.50268859562E+00  0.50268859562E+00  0.00000000000E+00 0. -1.
          1    1    1    2  501    0  0.19584087783E+02  0.87719027312E+01  0.12525170806E+04  0.12527008900E+04  0.00000000000E+00 0.  1.
         -1    1    1    2    0  503 -0.19584087783E+02 -0.87719027312E+01  0.27983560144E+03  0.28065716916E+03  0.00000000000E+00 0. -1.
<mgrwt>
<rscale>  2 0.21458862E+02</rscale>
<asrwt>0</asrwt>
<pdfrwt beam="1">  1       21 0.23582016E+00 0.21458862E+02</pdfrwt>
<pdfrwt beam="2">  1       21 0.77337934E-04 0.21458862E+02</pdfrwt>
<totfact> 0.14340619E+07</totfact>
</mgrwt>
</event>
<event>
 4    1  0.3862688E+004  0.3924093E+02  0.7546771E-02  0.1513873E+00
         21   -1    0    0  501  502  0.00000000000E+00  0.00000000000E+00  0.64559392261E+03  0.64559392261E+03  0.00000000000E+00 0.  1.
         21   -1    0    0  502  503 -0.00000000000E+00 -0.00000000000E+00 -0.26581600802E+01  0.26581600802E+01  0.00000000000E+00 0.  1.
          3    1    1    2  501    0 -0.35484896587E+02  0.16753285704E+02  0.42533970677E+03  0.42714601323E+03  0.00000000000E+00 0.  1.
         -3    1    1    2    0  503  0.35484896587E+02 -0.16753285704E+02  0.21759605577E+03  0.22110606946E+03  0.00000000000E+00 0. -1.
<mgrwt>
<rscale>  2 0.39240928E+02</rscale>
<asrwt>0</asrwt>
<pdfrwt beam="1">  1       21 0.99322017E-01 0.39240928E+02</pdfrwt>
<pdfrwt beam="2">  1       21 0.40894822E-03 0.39240928E+02</pdfrwt>
<totfact> 0.11367109E+07</totfact>
</mgrwt>
</event>
<event>
 4    1  0.3862688E+004  0.2148863E+02  0.7546771E-02  0.1717249E+00
         21   -1    0    0  503  502  0.00000000000E+00  0.00000000000E+00  0.28656004814E+02  0.28656004814E+02  0.00000000000E+00 0.  1.
         21   -1    0    0  501  503 -0.00000000000E+00 -0.00000000000E+00 -0.17129758732E+02  0.17129758732E+02  0.00000000000E+00 0.  1.
          1    1    1    2  501    0  0.13766441580E+02  0.16499882498E+02  0.18826592005E+00  0.21489450442E+02  0.00000000000E+00 0.  1.
         -1    1    1    2    0  502 -0.13766441580E+02 -0.16499882498E+02  0.11337980162E+02  0.24296313103E+02  0.00000000000E+00 0. -1.
<mgrwt>
<rscale>  2 0.21488626E+02</rscale>
<asrwt>0</asrwt>
<pdfrwt beam="1">  1       21 0.44086161E-02 0.21488626E+02</pdfrwt>
<pdfrwt beam="2">  1       21 0.26353475E-02 0.21488626E+02</pdfrwt>
<totfact> 0.16759745E+08</totfact>
</mgrwt>
</event>
<event>
 4    1  0.3862688E+004  0.2034138E+02  0.7546771E-02  0.1738623E+00
         21   -1    0    0  501  502  0.00000000000E+00  0.00000000000E+00  0.21250111054E+01  0.21250111054E+01  0.00000000000E+00 0.  1.
         21   -1    0    0  502  503 -0.00000000000E+00 -0.00000000000E+00 -0.24525946775E+03  0.24525946775E+03  0.00000000000E+00 0.  1.
          2    1    1    2  501    0 -0.61655603504E+01  0.19384470306E+02 -0.17771930173E+03  0.17887963000E+03  0.00000000000E+00 0.  1.
         -2    1    1    2    0  503  0.61655603504E+01 -0.19384470306E+02 -0.65415154916E+02  0.68504848851E+02  0.00000000000E+00 0. -1.
<mgrwt>
<rscale>  2 0.20341382E+02</rscale>
<asrwt>0</asrwt>
<pdfrwt beam="1">  1       21 0.32692496E-03 0.20341382E+02</pdfrwt>
<pdfrwt beam="2">  1       21 0.37732205E-01 0.20341382E+02</pdfrwt>
<totfact> 0.99250276E+07</totfact>
</mgrwt>
</event>
<event>
 4    1  0.3862688E+004  0.4678728E+02  0.7546771E-02  0.1463483E+00
         21   -1    0    0  501  502  0.00000000000E+00  0.00000000000E+00  0.20185976049E+02  0.20185976049E+02  0.00000000000E+00 0. -1.
         21   -1    0    0  502  503 -0.00000000000E+00 -0.00000000000E+00 -0.11044820104E+03  0.11044820104E+03  0.00000000000E+00 0. -1.
          3    1    1    2  501    0  0.18038671125E+02 -0.43170083899E+02 -0.53929607751E+02  0.71396445233E+02  0.00000000000E+00 0. -1.
         -3    1    1    2    0  503 -0.18038671125E+02  0.43170083899E+02 -0.36332617238E+02  0.59237731853E+02  0.00000000000E+00 0.  1.
<mgrwt>
<rscale>  2 0.46787282E+02</rscale>
<asrwt>0</asrwt>
<pdfrwt beam="1">  1       21 0.31055349E-02 0.46787282E+02</pdfrwt>
<pdfrwt beam="2">  1       21 0.16992030E-01 0.46787282E+02</pdfrwt>
<totfact> 0.16288131E+07</totfact>
</mgrwt>
</event>
<event>
 4    1  0.3862688E+004  0.2436103E+02  0.7546771E-02  0.1670353E+00
         21   -1    0    0  501  502  0.00000000000E+00  0.00000000000E+00  0.89710705858E+01  0.89710705858E+01  0.00000000000E+00 0.  1.
         21   -1    0    0  502  503 -0.00000000000E+00 -0.00000000000E+00 -0.79926272672E+02  0.79926272672E+02  0.00000000000E+00 0.  1.
          2    1    1    2  501    0  0.12380774013E+02 -0.20980374933E+02 -0.17025798808E+02  0.29720994643E+02  0.00000000000E+00 0. -1.
         -2    1    1    2    0  503 -0.12380774013E+02  0.20980374933E+02 -0.53929403278E+02  0.59176348615E+02  0.00000000000E+00 0.  1.
<mgrwt>
<rscale>  2 0.24361028E+02</rscale>
<asrwt>0</asrwt>
<pdfrwt beam="1">  1       21 0.13801648E-02 0.24361028E+02</pdfrwt>
<pdfrwt beam="2">  1       21 0.12296349E-01 0.24361028E+02</pdfrwt>
<totfact> 0.88395710E+07</totfact>
</mgrwt>
</event>
<event>
 4    1  0.3862688E+004  0.3296944E+02  0.7546771E-02  0.1567409E+00
         21   -1    0    0  501  502  0.00000000000E+00  0.00000000000E+00  0.28643776379E+03  0.28643776379E+03  0.00000000000E+00 0. -1.
         21   -1    0    0  502  503 -0.00000000000E+00 -0.00000000000E+00 -0.50326962494E+01  0.50326962494E+01  0.00000000000E+00 0. -1.
          2    1    1    2  501    0  0.18825750810E+02  0.27066123934E+02  0.68425514796E+02  0.75954164030E+02  0.00000000000E+00 0. -1.
         -2    1    1    2    0  503 -0.18825750810E+02 -0.27066123934E+02  0.21297955275E+03  0.21551629601E+03  0.00000000000E+00 0.  1.
<mgrwt>
<rscale>  2 0.32969440E+02</rscale>
<asrwt>0</asrwt>
<pdfrwt beam="1">  1       21 0.44067336E-01 0.32969440E+02</pdfrwt>
<pdfrwt beam="2">  1       21 0.77426119E-03 0.32969440E+02</pdfrwt>
<totfact> 0.22951307E+07</totfact>
</mgrwt>
</event>
<event>
 4    1  0.3862688E+004  0.3112935E+02  0.7546771E-02  0.1585930E+00
         21   -1    0    0  503  502  0.00000000000E+00  0.00000000000E+00  0.21423602204E+03  0.21423602204E+03  0.00000000000E+00 0. -1.
         21   -1    0    0  501  503 -0.00000000000E+00 -0.00000000000E+00 -0.65345934949E+01  0.65345934949E+01  0.00000000000E+00 0. -1.
          2    1    1    2  501    0 -0.65590892347E+01 -0.30430492192E+02  0.16509258146E+03  0.16800177665E+03  0.00000000000E+00 0. -1.
         -2    1    1    2    0  502  0.65590892347E+01  0.30430492192E+02  0.42608847085E+02  0.52768838879E+02  0.00000000000E+00 0.  1.
<mgrwt>
<rscale>  2 0.31129351E+02</rscale>
<asrwt>0</asrwt>
<pdfrwt beam="1">  1       21 0.32959383E-01 0.31129351E+02</pdfrwt>
<pdfrwt beam="2">  1       21 0.10053222E-02 0.31129351E+02</pdfrwt>
<totfact> 0.26561729E+07</totfact>
</mgrwt>
</event>
<event>
 4    1  0.3862688E+004  0.2492262E+02  0.7546771E-02  0.1662116E+00
         21   -1    0    0  501  502  0.00000000000E+00  0.00000000000E+00  0.22007472487E+03  0.22007472487E+03  0.00000000000E+00 0. -1.
         21   -1    0    0  502  503 -0.00000000000E+00 -0.00000000000E+00 -0.28899868718E+01  0.28899868718E+01  0.00000000000E+00 0. -1.
          3    1    1    2  501    0  0.24853516893E+02 -0.18545957552E+01  0.91542553554E+02  0.94874527343E+02  0.00000000000E+00 0.  1.
         -3    1    1    2    0  503 -0.24853516893E+02  0.18545957552E+01  0.12564218445E+03  0.12809018440E+03  0.00000000000E+00 0. -1.
<mgrwt>
<rscale>  2 0.24922617E+02</rscale>
<asrwt>0</asrwt>
<pdfrwt beam="1">  1       21 0.33857637E-01 0.24922617E+02</pdfrwt>
<pdfrwt beam="2">  1       21 0.44461354E-03 0.24922617E+02</pdfrwt>
<totfact> 0.81610495E+07</totfact>
</mgrwt>
</event>
<event>
 4    1  0.3862688E+004  0.2135489E+02  0.7546771E-02  0.1719654E+00
         21   -1    0    0  501  502  0.00000000000E+00  0.00000000000E+00  0.99584602684E+01  0.99584602684E+01  0.00000000000E+00 0.  1.
         21   -1    0    0  502  503 -0.00000000000E+00 -0.00000000000E+00 -0.46865761636E+02  0.46865761636E+02  0.00000000000E+00 0.  1.
          5    1    1    2  501    0 -0.19161890087E+02  0.94261949577E+01 -0.14155734768E+02  0.25620616892E+02  0.00000000000E+00 0. -1.
         -5    1    1    2    0  503  0.19161890087E+02 -0.94261949577E+01 -0.22751566600E+02  0.31203605013E+02  0.00000000000E+00 0.  1.
<mgrwt>
<rscale>  2 0.21354887E+02</rscale>
<asrwt>0</asrwt>
<pdfrwt beam="1">  1       21 0.15320708E-02 0.21354887E+02</pdfrwt>
<pdfrwt beam="2">  1       21 0.72101171E-02 0.21354887E+02</pdfrwt>
<totfact> 0.17490580E+08</totfact>
</mgrwt>
</event>
<event>
 4    1  0.3862688E+004  0.2493192E+02  0.7546771E-02  0.1661982E+00
         21   -1    0    0  501  502  0.00000000000E+00  0.00000000000E+00  0.20262151870E+02  0.20262151870E+02  0.00000000000E+00 0. -1.
         21   -1    0    0  502  503 -0.00000000000E+00 -0.00000000000E+00 -0.30959820706E+02  0.30959820706E+02  0.00000000000E+00 0. -1.
          5    1    1    2  501    0 -0.20951733202E+02 -0.13513909634E+02 -0.77926443397E+01  0.26121374075E+02  0.00000000000E+00 0.  1.
         -5    1    1    2    0  503  0.20951733202E+02  0.13513909634E+02 -0.29050244964E+01  0.25100598501E+02  0.00000000000E+00 0. -1.
<mgrwt>
<rscale>  2 0.24931925E+02</rscale>
<asrwt>0</asrwt>
<pdfrwt beam="1">  1       21 0.31172541E-02 0.24931925E+02</pdfrwt>
<pdfrwt beam="2">  1       21 0.47630494E-02 0.24931925E+02</pdfrwt>
<totfact> 0.11937957E+08</totfact>
</mgrwt>
</event>
<event>
 4    1  0.3862688E+004  0.2355753E+02  0.7546771E-02  0.1682629E+00
         21   -1    0    0  503  502  0.00000000000E+00  0.00000000000E+00  0.39114003880E+03  0.39114003880E+03  0.00000000000E+00 0.  1.
         21   -1    0    0  501  503 -0.00000000000E+00 -0.00000000000E+00 -0.15015123770E+01  0.15015123770E+01  0.00000000000E+00 0.  1.
          2    1    1    2  501    0  0.12050686769E+02 -0.20241993513E+02  0.14874756174E+03  0.15060144248E+03  0.00000000000E+00 0. -1.
         -2    1    1    2    0  502 -0.12050686769E+02  0.20241993513E+02  0.24089096468E+03  0.24204010870E+03  0.00000000000E+00 0.  1.
<mgrwt>
<rscale>  2 0.23557533E+02</rscale>
<asrwt>0</asrwt>
<pdfrwt beam="1">  1       21 0.60175309E-01 0.23557533E+02</pdfrwt>
<pdfrwt beam="2">  1       21 0.23100222E-03 0.23557533E+02</pdfrwt>
<totfact> 0.69414644E+07</totfact>
</mgrwt>
</event>
<event>
 4    1  0.3862688E+004  0.2004390E+02  0.7546771E-02  0.1744457E+00
         21   -1    0    0  501  502  0.00000000000E+00  0.00000000000E+00  0.71247595655E+00  0.71247595655E+00  0.00000000000E+00 0. -1.
         21   -1    0    0  502  503 -0.00000000000E+00 -0.00000000000E+00 -0.62923833100E+03  0.62923833100E+03  0.00000000000E+00 0. -1.
          3    1    1    2  501    0 -0.15458470755E+02  0.12759054239E+02 -0.21275788202E+03  0.21369996290E+03  0.00000000000E+00 0. -1.
         -3    1    1    2    0  503  0.15458470755E+02 -0.12759054239E+02 -0.41576797302E+03  0.41625084405E+03  0.00000000000E+00 0.  1.
<mgrwt>
<rscale>  2 0.20043896E+02</rscale>
<asrwt>0</asrwt>
<pdfrwt beam="1">  1       21 0.10961218E-03 0.20043896E+02</pdfrwt>
<pdfrwt beam="2">  1       21 0.96805463E-01 0.20043896E+02</pdfrwt>
<totfact> 0.72417214E+07</totfact>
</mgrwt>
</event>
<event>
 4    1  0.3862688E+004  0.2424105E+02  0.7546771E-02  0.1672148E+00
         21   -1    0    0  503  502  0.00000000000E+00  0.00000000000E+00  0.10698789570E+02  0.10698789570E+02  0.00000000000E+00 0.  1.
         21   -1    0    0  501  503 -0.00000000000E+00 -0.00000000000E+00 -0.60200165185E+02  0.60200165185E+02  0.00000000000E+00 0.  1.
          1    1    1    2  501    0  0.15387108111E+02  0.18731406540E+02 -0.14256761931E+02  0.28122658974E+02  0.00000000000E+00 0.  1.
         -1    1    1    2    0  502 -0.15387108111E+02 -0.18731406540E+02 -0.35244613684E+02  0.42776295781E+02  0.00000000000E+00 0. -1.
<mgrwt>
<rscale>  2 0.24241054E+02</rscale>
<asrwt>0</asrwt>
<pdfrwt beam="1">  1       21 0.16459676E-02 0.24241054E+02</pdfrwt>
<pdfrwt beam="2">  1       21 0.92615639E-02 0.24241054E+02</pdfrwt>
<totfact> 0.10821268E+08</totfact>
</mgrwt>
</event>
<event>
 4    1  0.3862688E+004  0.2405471E+02  0.7546771E-02  0.1674963E+00
         21   -1    0    0  501  502  0.00000000000E+00  0.00000000000E+00  0.16633797459E+02  0.16633797459E+02  0.00000000000E+00 0. -1.
         21   -1    0    0  502  503 -0.00000000000E+00 -0.00000000000E+00 -0.36536920931E+02  0.36536920931E+02  0.00000000000E+00 0. -1.
          2    1    1    2  501    0 -0.23922800674E+02 -0.25156854425E+01 -0.15770807196E+02  0.28763647629E+02  0.00000000000E+00 0.  1.
         -2    1    1    2    0  503  0.23922800674E+02  0.25156854425E+01 -0.41323162764E+01  0.24407070761E+02  0.00000000000E+00 0. -1.
<mgrwt>
<rscale>  2 0.24054710E+02</rscale>
<asrwt>0</asrwt>
<pdfrwt beam="1">  1       21 0.25590458E-02 0.24054710E+02</pdfrwt>
<pdfrwt beam="2">  1       21 0.56210647E-02 0.24054710E+02</pdfrwt>
<totfact> 0.12331274E+08</totfact>
</mgrwt>
</event>
<event>
 4    1  0.3862688E+004  0.2214458E+02  0.7546771E-02  0.1705763E+00
         21   -1    0    0  503  502  0.00000000000E+00  0.00000000000E+00  0.17952500083E+02  0.17952500083E+02  0.00000000000E+00 0. -1.
         21   -1    0    0  501  503 -0.00000000000E+00 -0.00000000000E+00 -0.37550420840E+02  0.37550420840E+02  0.00000000000E+00 0. -1.
          3    1    1    2  501    0 -0.21533758652E+02  0.51652426948E+01  0.46894095967E+01  0.22635658951E+02  0.00000000000E+00 0. -1.
         -3    1    1    2    0  502  0.21533758652E+02 -0.51652426948E+01 -0.24287330354E+02  0.32867261972E+02  0.00000000000E+00 0.  1.
<mgrwt>
<rscale>  2 0.22144582E+02</rscale>
<asrwt>0</asrwt>
<pdfrwt beam="1">  1       21 0.27619231E-02 0.22144582E+02</pdfrwt>
<pdfrwt beam="2">  1       21 0.57769878E-02 0.22144582E+02</pdfrwt>
<totfact> 0.10235106E+08</totfact>
</mgrwt>
</event>
<event>
 4    1  0.3862688E+004  0.3166978E+02  0.7546771E-02  0.1580332E+00
         21   -1    0    0  503  502  0.00000000000E+00  0.00000000000E+00  0.21311905075E+01  0.21311905075E+01  0.00000000000E+00 0.  1.
         21   -1    0    0  501  503 -0.00000000000E+00 -0.00000000000E+00 -0.47248274368E+03  0.47248274368E+03  0.00000000000E+00 0.  1.
          1    1    1    2  501    0  0.31552443094E+02  0.27236588187E+01 -0.25008710125E+03  0.25208437713E+03  0.00000000000E+00 0. -1.
         -1    1    1    2    0  502 -0.31552443094E+02 -0.27236588187E+01 -0.22026445193E+03  0.22252955706E+03  0.00000000000E+00 0.  1.
<mgrwt>
<rscale>  2 0.31669780E+02</rscale>
<asrwt>0</asrwt>
<pdfrwt beam="1">  1       21 0.32787552E-03 0.31669780E+02</pdfrwt>
<pdfrwt beam="2">  1       21 0.72689640E-01 0.31669780E+02</pdfrwt>
<totfact> 0.30020592E+07</totfact>
</mgrwt>
</event>
<event>
 4    1  0.3862688E+004  0.2087123E+02  0.7546771E-02  0.1728538E+00
         21   -1    0    0  501  502  0.00000000000E+00  0.00000000000E+00  0.95874934678E+02  0.95874934678E+02  0.00000000000E+00 0.  1.
         21   -1    0    0  502  503 -0.00000000000E+00 -0.00000000000E+00 -0.51743204782E+01  0.51743204782E+01  0.00000000000E+00 0.  1.
          2    1    1    2  501    0  0.13161139177E+02  0.16198535313E+02  0.27709110491E+02  0.34690098515E+02  0.00000000000E+00 0. -1.
         -2    1    1    2    0  503 -0.13161139177E+02 -0.16198535313E+02  0.62991503708E+02  0.66359156641E+02  0.00000000000E+00 0.  1.
<mgrwt>
<rscale>  2 0.20871227E+02</rscale>
<asrwt>0</asrwt>
<pdfrwt beam="1">  1       21 0.14749989E-01 0.20871227E+02</pdfrwt>
<pdfrwt beam="2">  1       21 0.79604938E-03 0.20871227E+02</pdfrwt>
<totfact> 0.14223939E+08</totfact>
</mgrwt>
</event>
<event>
 4    1  0.3862688E+004  0.4489927E+02  0.7546771E-02  0.1474971E+00
         21   -1    0    0  503  502  0.00000000000E+00  0.00000000000E+00  0.24942645681E+03  0.24942645681E+03  0.00000000000E+00 0.  1.
         21   -1    0    0  501  503 -0.00000000000E+00 -0.00000000000E+00 -0.81637609581E+01  0.81637609581E+01  0.00000000000E+00 0.  1.
          2    1    1    2  501    0 -0.28529761289E+02  0.34669828196E+02  0.10776730358E+03  0.11674646028E+03  0.00000000000E+00 0. -1.
         -2    1    1    2    0  502  0.28529761289E+02 -0.34669828196E+02  0.13349539227E+03  0.14084375748E+03  0.00000000000E+00 0.  1.
<mgrwt>
<rscale>  2 0.44899268E+02</rscale>
<asrwt>0</asrwt>
<pdfrwt beam="1">  1       21 0.38373295E-01 0.44899268E+02</pdfrwt>
<pdfrwt beam="2">  1       21 0.12559634E-02 0.44899268E+02</pdfrwt>
<totfact> 0.15004833E+07</totfact>
</mgrwt>
</event>
<event>
 4    1  0.3862688E+004  0.2088902E+02  0.7546771E-02  0.1728206E+00
         21   -1    0    0  503  502  0.00000000000E+00  0.00000000000E+00  0.27725006791E+02  0.27725006791E+02  0.00000000000E+00 0.  1.
         21   -1    0    0  501  503 -0.00000000000E+00 -0.00000000000E+00 -0.19997407935E+02  0.19997407935E+02  0.00000000000E+00 0.  1.
          2    1    1    2  501    0  0.89362655894E+01  0.18881054901E+02  0.14875458153E+02  0.25644304087E+02  0.00000000000E+00 0.  1.
         -2    1    1    2    0  502 -0.89362655894E+01 -0.18881054901E+02 -0.71478592963E+01  0.22078110639E+02  0.00000000000E+00 0. -1.
<mgrwt>
<rscale>  2 0.20889018E+02</rscale>
<asrwt>0</asrwt>
<pdfrwt beam="1">  1       21 0.42653857E-02 0.20889018E+02</pdfrwt>
<pdfrwt beam="2">  1       21 0.30765243E-02 0.20889018E+02</pdfrwt>
<totfact> 0.13769995E+08</totfact>
</mgrwt>
</event>
<event>
 4    1  0.3862688E+004  0.2119436E+02  0.7546771E-02  0.1722569E+00
         21   -1    0    0  503  502  0.00000000000E+00  0.00000000000E+00  0.40505311694E+01  0.40505311694E+01  0.00000000000E+00 0. -1.
         21   -1    0    0  501  503 -0.00000000000E+00 -0.00000000000E+00 -0.11094279385E+03  0.11094279385E+03  0.00000000000E+00 0. -1.
          5    1    1    2  501    0 -0.79676459191E+01  0.19639688947E+02 -0.52306705238E+02  0.56437506822E+02  0.00000000000E+00 0.  1.
         -5    1    1    2    0  502  0.79676459191E+01 -0.19639688947E+02 -0.54585557444E+02  0.58555818199E+02  0.00000000000E+00 0. -1.
<mgrwt>
<rscale>  2 0.21194357E+02</rscale>
<asrwt>0</asrwt>
<pdfrwt beam="1">  1       21 0.62315873E-03 0.21194357E+02</pdfrwt>
<pdfrwt beam="2">  1       21 0.17068120E-01 0.21194357E+02</pdfrwt>
<totfact> 0.16022828E+08</totfact>
</mgrwt>
</event>
<event>
 4    1  0.3862688E+004  0.3757168E+02  0.7546771E-02  0.1526881E+00
         21   -1    0    0  501  502  0.00000000000E+00  0.00000000000E+00  0.95709234465E+02  0.95709234465E+02  0.00000000000E+00 0.  1.
         21   -1    0    0  502  503 -0.00000000000E+00 -0.00000000000E+00 -0.15142502530E+02  0.15142502530E+02  0.00000000000E+00 0.  1.
          3    1    1    2  501    0  0.14828873497E+02 -0.34521527978E+02  0.31350396649E+02  0.48933411420E+02  0.00000000000E+00 0. -1.
         -3    1    1    2    0  503 -0.14828873497E+02  0.34521527978E+02  0.49216335286E+02  0.61918325576E+02  0.00000000000E+00 0.  1.
<mgrwt>
<rscale>  2 0.37571683E+02</rscale>
<asrwt>0</asrwt>
<pdfrwt beam="1">  1       21 0.14724497E-01 0.37571683E+02</pdfrwt>
<pdfrwt beam="2">  1       21 0.23296158E-02 0.37571683E+02</pdfrwt>
<totfact> 0.31867012E+07</totfact>
</mgrwt>
</event>
<event>
 4    1  0.3862688E+004  0.2364605E+02  0.7546771E-02  0.1681247E+00
         21   -1    0    0  501  502  0.00000000000E+00  0.00000000000E+00  0.12738433461E+01  0.12738433461E+01  0.00000000000E+00 0. -1.
         21   -1    0    0  502  503 -0.00000000000E+00 -0.00000000000E+00 -0.49285211851E+03  0.49285211851E+03  0.00000000000E+00 0. -1.
          5    1    1    2  501    0  0.21722237030E+02  0.93423879430E+01 -0.16407289578E+03  0.16576806365E+03  0.00000000000E+00 0.  1.
         -5    1    1    2    0  503 -0.21722237030E+02 -0.93423879430E+01 -0.32750537938E+03  0.32835789821E+03  0.00000000000E+00 0. -1.
<mgrwt>
<rscale>  2 0.23646052E+02</rscale>
<asrwt>0</asrwt>
<pdfrwt beam="1">  1       21 0.19597592E-03 0.23646052E+02</pdfrwt>
<pdfrwt beam="2">  1       21 0.75823396E-01 0.23646052E+02</pdfrwt>
<totfact> 0.54992613E+07</totfact>
</mgrwt>
</event>
<event>
 4    1  0.3862688E+004  0.2623023E+02  0.7546771E-02  0.1643935E+00
         21   -1    0    0  503  502  0.00000000000E+00  0.00000000000E+00  0.10831380608E+02  0.10831380608E+02  0.00000000000E+00 0.  1.
         21   -1    0    0  501  503 -0.00000000000E+00 -0.00000000000E+00 -0.63671592230E+02  0.63671592230E+02  0.00000000000E+00 0.  1.
          5    1    1    2  501    0  0.24435418807E+01 -0.26116167173E+02 -0.24611220222E+02  0.35968559125E+02  0.00000000000E+00 0. -1.
         -5    1    1    2    0  502 -0.24435418807E+01  0.26116167173E+02 -0.28228991400E+02  0.38534413713E+02  0.00000000000E+00 0.  1.
<mgrwt>
<rscale>  2 0.26230232E+02</rscale>
<asrwt>0</asrwt>
<pdfrwt beam="1">  1       21 0.16663663E-02 0.26230232E+02</pdfrwt>
<pdfrwt beam="2">  1       21 0.97956293E-02 0.26230232E+02</pdfrwt>
<totfact> 0.98831130E+07</totfact>
</mgrwt>
</event>
<event>
 4    1  0.3862688E+004  0.2088874E+02  0.7546771E-02  0.1728211E+00
         21   -1    0    0  501  502  0.00000000000E+00  0.00000000000E+00  0.20481115304E+03  0.20481115304E+03  0.00000000000E+00 0. -1.
         21   -1    0    0  502  503 -0.00000000000E+00 -0.00000000000E+00 -0.21386427393E+01  0.21386427393E+01  0.00000000000E+00 0. -1.
          4    1    1    2  501    0 -0.19835119236E+02 -0.65503748771E+01  0.94930766818E+02  0.97201799648E+02  0.00000000000E+00 0. -1.
         -4    1    1    2    0  503  0.19835119236E+02  0.65503748771E+01  0.10774174348E+03  0.10974799613E+03  0.00000000000E+00 0.  1.
<mgrwt>
<rscale>  2 0.20888738E+02</rscale>
<asrwt>0</asrwt>
<pdfrwt beam="1">  1       21 0.31509393E-01 0.20888738E+02</pdfrwt>
<pdfrwt beam="2">  1       21 0.32902212E-03 0.20888738E+02</pdfrwt>
<totfact> 0.13802967E+08</totfact>
</mgrwt>
</event>
<event>
 4    1  0.3862688E+004  0.2305122E+02  0.7546771E-02  0.1690681E+00
         21   -1    0    0  501  502  0.00000000000E+00  0.00000000000E+00  0.13611369800E+03  0.13611369800E+03  0.00000000000E+00 0.  1.
         21   -1    0    0  502  503 -0.00000000000E+00 -0.00000000000E+00 -0.46773055444E+01  0.46773055444E+01  0.00000000000E+00 0.  1.
          3    1    1    2  501    0 -0.16301073345E+02  0.16298275099E+02  0.94345645487E+02  0.97120850417E+02  0.00000000000E+00 0.  1.
         -3    1    1    2    0  503  0.16301073345E+02 -0.16298275099E+02  0.37090746964E+02  0.43670153123E+02  0.00000000000E+00 0. -1.
<mgrwt>
<rscale>  2 0.23051220E+02</rscale>
<asrwt>0</asrwt>
<pdfrwt beam="1">  1       21 0.20940566E-01 0.23051220E+02</pdfrwt>
<pdfrwt beam="2">  1       21 0.71958557E-03 0.23051220E+02</pdfrwt>
<totfact> 0.93024652E+07</totfact>
</mgrwt>
</event>
<event>
 4    1  0.3862688E+004  0.2506913E+02  0.7546771E-02  0.1660011E+00
         21   -1    0    0  501  502  0.00000000000E+00  0.00000000000E+00  0.40287143191E+02  0.40287143191E+02  0.00000000000E+00 0. -1.
         21   -1    0    0  502  503 -0.00000000000E+00 -0.00000000000E+00 -0.18092521861E+02  0.18092521861E+02  0.00000000000E+00 0. -1.
          4    1    1    2  501    0 -0.23103464210E+02 -0.97309293812E+01  0.26200170507E+00  0.25070494411E+02  0.00000000000E+00 0.  1.
         -4    1    1    2    0  503  0.23103464210E+02  0.97309293812E+01  0.21932619626E+02  0.33309170641E+02  0.00000000000E+00 0. -1.
<mgrwt>
<rscale>  2 0.25069125E+02</rscale>
<asrwt>0</asrwt>
<pdfrwt beam="1">  1       21 0.61980220E-02 0.25069125E+02</pdfrwt>
<pdfrwt beam="2">  1       21 0.27834649E-02 0.25069125E+02</pdfrwt>
<totfact> 0.93528240E+07</totfact>
</mgrwt>
</event>
<event>
 4    1  0.3862688E+004  0.2636488E+02  0.7546771E-02  0.1642138E+00
         21   -1    0    0  503  502  0.00000000000E+00  0.00000000000E+00  0.35394960788E+03  0.35394960788E+03  0.00000000000E+00 0. -1.
         21   -1    0    0  501  503 -0.00000000000E+00 -0.00000000000E+00 -0.20893666483E+01  0.20893666483E+01  0.00000000000E+00 0. -1.
          5    1    1    2  501    0  0.17388268496E+02  0.19818049620E+02  0.13229903180E+03  0.13490048476E+03  0.00000000000E+00 0. -1.
         -5    1    1    2    0  502 -0.17388268496E+02 -0.19818049620E+02  0.21956120943E+03  0.22113848977E+03  0.00000000000E+00 0.  1.
<mgrwt>
<rscale>  2 0.26364881E+02</rscale>
<asrwt>0</asrwt>
<pdfrwt beam="1">  1       21 0.54453738E-01 0.26364881E+02</pdfrwt>
<pdfrwt beam="2">  1       21 0.32144130E-03 0.26364881E+02</pdfrwt>
<totfact> 0.53676834E+07</totfact>
</mgrwt>
</event>
<event>
 4    1  0.3862688E+004  0.2833021E+02  0.7546771E-02  0.1617315E+00
         21   -1    0    0  501  502  0.00000000000E+00  0.00000000000E+00  0.10100463709E+02  0.10100463709E+02  0.00000000000E+00 0.  1.
         21   -1    0    0  502  503 -0.00000000000E+00 -0.00000000000E+00 -0.10413099976E+03  0.10413099976E+03  0.00000000000E+00 0.  1.
          3    1    1    2  501    0  0.21366262980E+01  0.28249524862E+02 -0.19215355364E+02  0.34232012921E+02  0.00000000000E+00 0.  1.
         -3    1    1    2    0  503 -0.21366262980E+01 -0.28249524862E+02 -0.74815180689E+02  0.79999450550E+02  0.00000000000E+00 0. -1.
<mgrwt>
<rscale>  2 0.28330210E+02</rscale>
<asrwt>0</asrwt>
<pdfrwt beam="1">  1       21 0.15539174E-02 0.28330210E+02</pdfrwt>
<pdfrwt beam="2">  1       21 0.16020155E-01 0.28330210E+02</pdfrwt>
<totfact> 0.48761539E+07</totfact>
</mgrwt>
</event>
<event>
 4    1  0.3862688E+004  0.2703215E+02  0.7546771E-02  0.1633420E+00
         21   -1    0    0  503  502  0.00000000000E+00  0.00000000000E+00  0.47158121996E+01  0.47158121996E+01  0.00000000000E+00 0.  1.
         21   -1    0    0  501  503 -0.00000000000E+00 -0.00000000000E+00 -0.15909031782E+03  0.15909031782E+03  0.00000000000E+00 0.  1.
          3    1    1    2  501    0 -0.24090216226E+02 -0.12263722243E+02 -0.90392512912E+02  0.94347993045E+02  0.00000000000E+00 0.  1.
         -3    1    1    2    0  502  0.24090216226E+02  0.12263722243E+02 -0.63981992705E+02  0.69458136972E+02  0.00000000000E+00 0. -1.
<mgrwt>
<rscale>  2 0.27032155E+02</rscale>
<asrwt>0</asrwt>
<pdfrwt beam="1">  1       21 0.72550964E-03 0.27032155E+02</pdfrwt>
<pdfrwt beam="2">  1       21 0.24475431E-01 0.27032155E+02</pdfrwt>
<totfact> 0.72577725E+07</totfact>
</mgrwt>
</event>
<event>
 4    1  0.3862688E+004  0.2410378E+02  0.7546771E-02  0.1674219E+00
         21   -1    0    0  503  502  0.00000000000E+00  0.00000000000E+00  0.27283435317E+02  0.27283435317E+02  0.00000000000E+00 0.  1.
         21   -1    0    0  501  503 -0.00000000000E+00 -0.00000000000E+00 -0.21391175394E+02  0.21391175394E+02  0.00000000000E+00 0.  1.
          5    1    1    2  501    0  0.60192686862E+01 -0.23340109321E+02  0.13116265355E+01  0.24139442057E+02  0.00000000000E+00 0.  1.
         -5    1    1    2    0  502 -0.60192686862E+01  0.23340109321E+02  0.45806333878E+01  0.24535168654E+02  0.00000000000E+00 0. -1.
<mgrwt>
<rscale>  2 0.24103782E+02</rscale>
<asrwt>0</asrwt>
<pdfrwt beam="1">  1       21 0.41974516E-02 0.24103782E+02</pdfrwt>
<pdfrwt beam="2">  1       21 0.32909500E-02 0.24103782E+02</pdfrwt>
<totfact> 0.13276626E+08</totfact>
</mgrwt>
</event>
<event>
 4    1  0.3862688E+004  0.2778552E+02  0.7546771E-02  0.1623941E+00
         21   -1    0    0  501  502  0.00000000000E+00  0.00000000000E+00  0.59954789179E+01  0.59954789179E+01  0.00000000000E+00 0. -1.
         21   -1    0    0  502  503 -0.00000000000E+00 -0.00000000000E+00 -0.14723251332E+03  0.14723251332E+03  0.00000000000E+00 0. -1.
          2    1    1    2  501    0  0.19877692990E+02  0.19414239551E+02 -0.97748933542E+02  0.10162130379E+03  0.00000000000E+00 0.  1.
         -2    1    1    2    0  503 -0.19877692990E+02 -0.19414239551E+02 -0.43488100865E+02  0.51606688450E+02  0.00000000000E+00 0. -1.
<mgrwt>
<rscale>  2 0.27785525E+02</rscale>
<asrwt>0</asrwt>
<pdfrwt beam="1">  1       21 0.92238152E-03 0.27785525E+02</pdfrwt>
<pdfrwt beam="2">  1       21 0.22651152E-01 0.27785525E+02</pdfrwt>
<totfact> 0.58477236E+07</totfact>
</mgrwt>
</event>
<event>
 4    1  0.3862688E+004  0.2860377E+02  0.7546771E-02  0.1614055E+00
         21   -1    0    0  503  502  0.00000000000E+00  0.00000000000E+00  0.12523069946E+03  0.12523069946E+03  0.00000000000E+00 0. -1.
         21   -1    0    0  501  503 -0.00000000000E+00 -0.00000000000E+00 -0.12580027454E+02  0.12580027454E+02  0.00000000000E+00 0. -1.
          1    1    1    2  501    0 -0.25206422760E+02  0.13520794269E+02  0.85536312804E+01  0.29855321705E+02  0.00000000000E+00 0. -1.
         -1    1    1    2    0  502  0.25206422760E+02 -0.13520794269E+02  0.10409704073E+03  0.10795540521E+03  0.00000000000E+00 0.  1.
<mgrwt>
<rscale>  2 0.28603769E+02</rscale>
<asrwt>0</asrwt>
<pdfrwt beam="1">  1       21 0.19266261E-01 0.28603769E+02</pdfrwt>
<pdfrwt beam="2">  1       21 0.19353889E-02 0.28603769E+02</pdfrwt>
<totfact> 0.25283613E+07</totfact>
</mgrwt>
</event>
<event>
 4    1  0.3862688E+004  0.3124536E+02  0.7546771E-02  0.1584717E+00
         21   -1    0    0  501  502  0.00000000000E+00  0.00000000000E+00  0.23766528493E+03  0.23766528493E+03  0.00000000000E+00 0.  1.
         21   -1    0    0  502  503 -0.00000000000E+00 -0.00000000000E+00 -0.41110830355E+01  0.41110830355E+01  0.00000000000E+00 0.  1.
          5    1    1    2  501    0  0.29363090808E+02  0.10680902399E+02  0.12021225093E+03  0.12420651373E+03  0.00000000000E+00 0.  1.
         -5    1    1    2    0  503 -0.29363090808E+02 -0.10680902399E+02  0.11334195096E+03  0.11756985423E+03  0.00000000000E+00 0. -1.
<mgrwt>
<rscale>  2 0.31245364E+02</rscale>
<asrwt>0</asrwt>
<pdfrwt beam="1">  1       21 0.36563879E-01 0.31245364E+02</pdfrwt>
<pdfrwt beam="2">  1       21 0.63247450E-03 0.31245364E+02</pdfrwt>
<totfact> 0.44013424E+07</totfact>
</mgrwt>
</event>
<event>
 4    1  0.3862688E+004  0.2364774E+02  0.7546771E-02  0.1681221E+00
         21   -1    0    0  503  502  0.00000000000E+00  0.00000000000E+00  0.36573483319E+01  0.36573483319E+01  0.00000000000E+00 0.  1.
         21   -1    0    0  501  503 -0.00000000000E+00 -0.00000000000E+00 -0.15365059913E+03  0.15365059913E+03  0.00000000000E+00 0.  1.
          1    1    1    2  501    0 -0.76161745443E+01  0.22387709565E+02 -0.80486920357E+02  0.83888974263E+02  0.00000000000E+00 0.  1.
         -1    1    1    2    0  502  0.76161745443E+01 -0.22387709565E+02 -0.69506330441E+02  0.73418973199E+02  0.00000000000E+00 0. -1.
<mgrwt>
<rscale>  2 0.23647741E+02</rscale>
<asrwt>0</asrwt>
<pdfrwt beam="1">  1       21 0.56266899E-03 0.23647741E+02</pdfrwt>
<pdfrwt beam="2">  1       21 0.23638553E-01 0.23647741E+02</pdfrwt>
<totfact> 0.10899660E+08</totfact>
</mgrwt>
</event>
<event>
 4    1  0.3862688E+004  0.2918485E+02  0.7546771E-02  0.1607278E+00
         21   -1    0    0  503  502  0.00000000000E+00  0.00000000000E+00  0.32277349184E+02  0.32277349184E+02  0.00000000000E+00 0.  1.
         21   -1    0    0  501  503 -0.00000000000E+00 -0.00000000000E+00 -0.35835538096E+02  0.35835538096E+02  0.00000000000E+00 0.  1.
          4    1    1    2  501    0  0.28976677716E+02 -0.34796318546E+01 -0.19264942568E+02  0.34969897075E+02  0.00000000000E+00 0.  1.
         -4    1    1    2    0  502 -0.28976677716E+02  0.34796318546E+01  0.15706753656E+02  0.33142990205E+02  0.00000000000E+00 0. -1.
<mgrwt>
<rscale>  2 0.29184854E+02</rscale>
<asrwt>0</asrwt>
<pdfrwt beam="1">  1       21 0.49657460E-02 0.29184854E+02</pdfrwt>
<pdfrwt beam="2">  1       21 0.55131598E-02 0.29184854E+02</pdfrwt>
<totfact> 0.46976190E+07</totfact>
</mgrwt>
</event>
<event>
 4    1  0.3862688E+004  0.2517081E+02  0.7546771E-02  0.1658561E+00
         21   -1    0    0  501  502  0.00000000000E+00  0.00000000000E+00  0.18029201306E+03  0.18029201306E+03  0.00000000000E+00 0.  1.
         21   -1    0    0  502  503 -0.00000000000E+00 -0.00000000000E+00 -0.42453484432E+01  0.42453484432E+01  0.00000000000E+00 0.  1.
          2    1    1    2  501    0 -0.39426325027E+01 -0.24860117057E+02  0.49730201025E+02  0.55737444013E+02  0.00000000000E+00 0.  1.
         -2    1    1    2    0  503  0.39426325027E+01  0.24860117057E+02  0.12631646359E+03  0.12879991749E+03  0.00000000000E+00 0. -1.
<mgrwt>
<rscale>  2 0.25170812E+02</rscale>
<asrwt>0</asrwt>
<pdfrwt beam="1">  1       21 0.27737227E-01 0.25170812E+02</pdfrwt>
<pdfrwt beam="2">  1       21 0.65313067E-03 0.25170812E+02</pdfrwt>
<totfact> 0.66645771E+07</totfact>
</mgrwt>
</event>
<event>
 4    1  0.3862688E+004  0.3281564E+02  0.7546771E-02  0.1568900E+00
         21   -1    0    0  503  502  0.00000000000E+00  0.00000000000E+00  0.31836778105E+02  0.31836778105E+02  0.00000000000E+00 0. -1.
         21   -1    0    0  501  503 -0.00000000000E+00 -0.00000000000E+00 -0.48390265468E+02  0.48390265468E+02  0.00000000000E+00 0. -1.
          3    1    1    2  501    0  0.32572461252E+02 -0.39875761865E+01  0.13731079660E+02  0.35572581358E+02  0.00000000000E+00 0.  1.
         -3    1    1    2    0  502 -0.32572461252E+02  0.39875761865E+01 -0.30284567023E+02  0.44654462214E+02  0.00000000000E+00 0. -1.
<mgrwt>
<rscale>  2 0.32815636E+02</rscale>
<asrwt>0</asrwt>
<pdfrwt beam="1">  1       21 0.48979659E-02 0.32815636E+02</pdfrwt>
<pdfrwt beam="2">  1       21 0.74446562E-02 0.32815636E+02</pdfrwt>
<totfact> 0.30151219E+07</totfact>
</mgrwt>
</event>
<event>
 4    1  0.3862688E+004  0.3290134E+02  0.7546771E-02  0.1568068E+00
         21   -1    0    0  501  502  0.00000000000E+00  0.00000000000E+00  0.12194673065E+01  0.12194673065E+01  0.00000000000E+00 0.  1.
         21   -1    0    0  502  503 -0.00000000000E+00 -0.00000000000E+00 -0.97497249744E+03  0.97497249744E+03  0.00000000000E+00 0.  1.
          5    1    1    2  501    0  0.31564156643E+02  0.92845123748E+01 -0.34082884894E+03  0.34241320422E+03  0.00000000000E+00 0. -1.
         -5    1    1    2    0  503 -0.31564156643E+02 -0.92845123748E+01 -0.63292418120E+03  0.63377876053E+03  0.00000000000E+00 0.  1.
<mgrwt>
<rscale>  2 0.32901340E+02</rscale>
<asrwt>0</asrwt>
<pdfrwt beam="1">  1       21 0.18761066E-03 0.32901340E+02</pdfrwt>
<pdfrwt beam="2">  1       21 0.14999552E+00 0.32901340E+02</pdfrwt>
<totfact> 0.13467651E+07</totfact>
</mgrwt>
</event>
<event>
 4    1  0.3862688E+004  0.2502298E+02  0.7546771E-02  0.1660672E+00
         21   -1    0    0  503  502  0.00000000000E+00  0.00000000000E+00  0.30527878659E+02  0.30527878659E+02  0.00000000000E+00 0.  1.
         21   -1    0    0  501  503 -0.00000000000E+00 -0.00000000000E+00 -0.24298520971E+02  0.24298520971E+02  0.00000000000E+00 0.  1.
          2    1    1    2  501    0 -0.22806533577E+02 -0.10296195286E+02  0.13938031531E+02  0.28642945626E+02  0.00000000000E+00 0. -1.
         -2    1    1    2    0  502  0.22806533577E+02  0.10296195286E+02 -0.77086738429E+01  0.26183454004E+02  0.00000000000E+00 0.  1.
<mgrwt>
<rscale>  2 0.25022982E+02</rscale>
<asrwt>0</asrwt>
<pdfrwt beam="1">  1       21 0.46965967E-02 0.25022982E+02</pdfrwt>
<pdfrwt beam="2">  1       21 0.37382340E-02 0.25022982E+02</pdfrwt>
<totfact> 0.91872218E+07</totfact>
</mgrwt>
</event>
<event>
 4    1  0.3862688E+004  0.2074040E+02  0.7546771E-02  0.1730993E+00
         21   -1    0    0  501  502  0.00000000000E+00  0.00000000000E+00  0.71597097248E+01  0.71597097248E+01  0.00000000000E+00 0.  1.
         21   -1    0    0  502  503 -0.00000000000E+00 -0.00000000000E+00 -0.60763842083E+02  0.60763842083E+02  0.00000000000E+00 0.  1.
          3    1    1    2  501    0 -0.20552478664E+02  0.27856092077E+01 -0.30401732673E+02  0.36802572565E+02  0.00000000000E+00 0.  1.
         -3    1    1    2    0  503  0.20552478664E+02 -0.27856092077E+01 -0.23202399686E+02  0.31120979243E+02  0.00000000000E+00 0. -1.
<mgrwt>
<rscale>  2 0.20740395E+02</rscale>
<asrwt>0</asrwt>
<pdfrwt beam="1">  1       21 0.11014938E-02 0.20740395E+02</pdfrwt>
<pdfrwt beam="2">  1       21 0.93482838E-02 0.20740395E+02</pdfrwt>
<totfact> 0.18678472E+08</totfact>
</mgrwt>
</event>
<event>
 4    1  0.3862688E+004  0.4538534E+02  0.7546771E-02  0.1471950E+00
         21   -1    0    0  501  502  0.00000000000E+00  0.00000000000E+00  0.10746745184E+04  0.10746745184E+04  0.00000000000E+00 0.  1.
         21   -1    0    0  502  503 -0.00000000000E+00 -0.00000000000E+00 -0.25504321590E+01  0.25504321590E+01  0.00000000000E+00 0.  1.
          4    1    1    2  501    0 -0.29307309855E+02 -0.34654154626E+02  0.26757561855E+03  0.27139738482E+03  0.00000000000E+00 0.  1.
         -4    1    1    2    0  503  0.29307309855E+02  0.34654154626E+02  0.80454846766E+03  0.80582756571E+03  0.00000000000E+00 0. -1.
<mgrwt>
<rscale>  2 0.45385337E+02</rscale>
<asrwt>0</asrwt>
<pdfrwt beam="1">  1       21 0.16533418E+00 0.45385337E+02</pdfrwt>
<pdfrwt beam="2">  1       21 0.39237504E-03 0.45385337E+02</pdfrwt>
<totfact> 0.36550415E+06</totfact>
</mgrwt>
</event>
<event>
 4    1  0.3862688E+004  0.2894253E+02  0.7546771E-02  0.1610080E+00
         21   -1    0    0  501  502  0.00000000000E+00  0.00000000000E+00  0.17407475614E+04  0.17407475614E+04  0.00000000000E+00 0. -1.
         21   -1    0    0  502  503 -0.00000000000E+00 -0.00000000000E+00 -0.50151430501E+00  0.50151430501E+00  0.00000000000E+00 0. -1.
          5    1    1    2  501    0 -0.31670835525E+01 -0.28768730650E+02  0.69495627107E+03  0.69555868838E+03  0.00000000000E+00 0. -1.
         -5    1    1    2    0  503  0.31670835525E+01  0.28768730650E+02  0.10452897760E+04  0.10456903873E+04  0.00000000000E+00 0.  1.
<mgrwt>
<rscale>  2 0.28942534E+02</rscale>
<asrwt>0</asrwt>
<pdfrwt beam="1">  1       21 0.26780248E+00 0.28942534E+02</pdfrwt>
<pdfrwt beam="2">  1       21 0.77157441E-04 0.28942534E+02</pdfrwt>
<totfact> 0.10175677E+07</totfact>
</mgrwt>
</event>
<event>
 4    1  0.3862688E+004  0.3525066E+02  0.7546771E-02  0.1546386E+00
         21   -1    0    0  503  502  0.00000000000E+00  0.00000000000E+00  0.43558162270E+02  0.43558162270E+02  0.00000000000E+00 0. -1.
         21   -1    0    0  501  503 -0.00000000000E+00 -0.00000000000E+00 -0.32807444258E+02  0.32807444258E+02  0.00000000000E+00 0. -1.
          3    1    1    2  501    0 -0.29953218415E+02  0.18585318172E+02 -0.84156536693E+01  0.36241310292E+02  0.00000000000E+00 0.  1.
         -3    1    1    2    0  502  0.29953218415E+02 -0.18585318172E+02  0.19166371681E+02  0.40124296236E+02  0.00000000000E+00 0. -1.
<mgrwt>
<rscale>  2 0.35250664E+02</rscale>
<asrwt>0</asrwt>
<pdfrwt beam="1">  1       21 0.67012558E-02 0.35250664E+02</pdfrwt>
<pdfrwt beam="2">  1       21 0.50472991E-02 0.35250664E+02</pdfrwt>
<totfact> 0.34634606E+07</totfact>
</mgrwt>
</event>
<event>
 4    1  0.3862688E+004  0.2021993E+02  0.7546771E-02  0.1740989E+00
         21   -1    0    0  501  502  0.00000000000E+00  0.00000000000E+00  0.95014143533E+02  0.95014143533E+02  0.00000000000E+00 0.  1.
         21   -1    0    0  502  503 -0.00000000000E+00 -0.00000000000E+00 -0.47773226140E+01  0.47773226140E+01  0.00000000000E+00 0.  1.
          5    1    1    2  501    0 -0.10081290819E+02  0.17527501787E+02  0.60840439628E+02  0.64112439024E+02  0.00000000000E+00 0. -1.
         -5    1    1    2    0  503  0.10081290819E+02 -0.17527501787E+02  0.29396381291E+02  0.35679027123E+02  0.00000000000E+00 0.  1.
<mgrwt>
<rscale>  2 0.20219934E+02</rscale>
<asrwt>0</asrwt>
<pdfrwt beam="1">  1       21 0.14617559E-01 0.20219934E+02</pdfrwt>
<pdfrwt beam="2">  1       21 0.73497278E-03 0.20219934E+02</pdfrwt>
<totfact> 0.16104408E+08</totfact>
</mgrwt>
</event>
<event>
 4    1  0.3862688E+004  0.3688735E+02  0.7546771E-02  0.1532452E+00
         21   -1    0    0  503  502  0.00000000000E+00  0.00000000000E+00  0.10663322203E+03  0.10663322203E+03  0.00000000000E+00 0. -1.
         21   -1    0    0  501  503 -0.00000000000E+00 -0.00000000000E+00 -0.13492693417E+02  0.13492693417E+02  0.00000000000E+00 0. -1.
          1    1    1    2  501    0  0.26402394950E+02  0.25760246441E+02  0.60563434334E+02  0.70912666951E+02  0.00000000000E+00 0.  1.
         -1    1    1    2    0  502 -0.26402394950E+02 -0.25760246441E+02  0.32577094278E+02  0.49213248495E+02  0.00000000000E+00 0. -1.
<mgrwt>
<rscale>  2 0.36887352E+02</rscale>
<asrwt>0</asrwt>
<pdfrwt beam="1">  1       21 0.16405110E-01 0.36887352E+02</pdfrwt>
<pdfrwt beam="2">  1       21 0.20757991E-02 0.36887352E+02</pdfrwt>
<totfact> 0.31527033E+07</totfact>
</mgrwt>
</event>
<event>
 4    1  0.3862688E+004  0.2439931E+02  0.7546771E-02  0.1669783E+00
         21   -1    0    0  503  502  0.00000000000E+00  0.00000000000E+00  0.24510974471E+02  0.24510974471E+02  0.00000000000E+00 0.  1.
         21   -1    0    0  501  503 -0.00000000000E+00 -0.00000000000E+00 -0.24300812867E+02  0.24300812867E+02  0.00000000000E+00 0.  1.
          5    1    1    2  501    0 -0.47750158797E+01  0.23927501745E+02 -0.45213829639E+00  0.24403494534E+02  0.00000000000E+00 0. -1.
         -5    1    1    2    0  502  0.47750158797E+01 -0.23927501745E+02  0.66229990032E+00  0.24408292804E+02  0.00000000000E+00 0.  1.
<mgrwt>
<rscale>  2 0.24399306E+02</rscale>
<asrwt>0</asrwt>
<pdfrwt beam="1">  1       21 0.37709192E-02 0.24399306E+02</pdfrwt>
<pdfrwt beam="2">  1       21 0.37385866E-02 0.24399306E+02</pdfrwt>
<totfact> 0.12916672E+08</totfact>
</mgrwt>
</event>
<event>
 4    1  0.3862688E+004  0.2222158E+02  0.7546771E-02  0.1704448E+00
         21   -1    0    0  503  502  0.00000000000E+00  0.00000000000E+00  0.59762234988E+02  0.59762234988E+02  0.00000000000E+00 0. -1.
         21   -1    0    0  501  503 -0.00000000000E+00 -0.00000000000E+00 -0.14056638099E+02  0.14056638099E+02  0.00000000000E+00 0. -1.
          2    1    1    2  501    0 -0.10280300898E+01 -0.22197785203E+02  0.46549228469E+02  0.51581287157E+02  0.00000000000E+00 0.  1.
         -2    1    1    2    0  502  0.10280300898E+01  0.22197785203E+02 -0.84363157977E+00  0.22237585930E+02  0.00000000000E+00 0. -1.
<mgrwt>
<rscale>  2 0.22221578E+02</rscale>
<asrwt>0</asrwt>
<pdfrwt beam="1">  1       21 0.91941898E-02 0.22221578E+02</pdfrwt>
<pdfrwt beam="2">  1       21 0.21625597E-02 0.22221578E+02</pdfrwt>
<totfact> 0.70358961E+07</totfact>
</mgrwt>
</event>
<event>
 4    1  0.3862688E+004  0.3031225E+02  0.7546771E-02  0.1594663E+00
         21   -1    0    0  501  502  0.00000000000E+00  0.00000000000E+00  0.27403577408E+03  0.27403577408E+03  0.00000000000E+00 0. -1.
         21   -1    0    0  502  503 -0.00000000000E+00 -0.00000000000E+00 -0.45175702569E+01  0.45175702569E+01  0.00000000000E+00 0. -1.
          3    1    1    2  501    0 -0.27525791852E+02 -0.12695015636E+02  0.20547468168E+03  0.20769852539E+03  0.00000000000E+00 0. -1.
         -3    1    1    2    0  503  0.27525791852E+02  0.12695015636E+02  0.64043522147E+02  0.70854818947E+02  0.00000000000E+00 0.  1.
<mgrwt>
<rscale>  2 0.30312252E+02</rscale>
<asrwt>0</asrwt>
<pdfrwt beam="1">  1       21 0.42159337E-01 0.30312252E+02</pdfrwt>
<pdfrwt beam="2">  1       21 0.69501102E-03 0.30312252E+02</pdfrwt>
<totfact> 0.28974522E+07</totfact>
</mgrwt>
</event>
<event>
 4    1  0.3862688E+004  0.3451006E+02  0.7546771E-02  0.1552995E+00
         21   -1    0    0  503  502  0.00000000000E+00  0.00000000000E+00  0.33484569677E+04  0.33484569677E+04  0.00000000000E+00 0.  1.
         21   -1    0    0  501  503 -0.00000000000E+00 -0.00000000000E+00 -0.42258606934E+00  0.42258606934E+00  0.00000000000E+00 0.  1.
          2    1    1    2  501    0  0.32267466642E+02 -0.12237444015E+02  0.10077040675E+04  0.10082948141E+04  0.00000000000E+00 0.  1.
         -2    1    1    2    0  502 -0.32267466642E+02  0.12237444015E+02  0.23403303142E+04  0.23405847397E+04  0.00000000000E+00 0. -1.
<mgrwt>
<rscale>  2 0.34510063E+02</rscale>
<asrwt>0</asrwt>
<pdfrwt beam="1">  1       21 0.51512598E+00 0.34510063E+02</pdfrwt>
<pdfrwt beam="2">  1       21 0.65015923E-04 0.34510063E+02</pdfrwt>
<totfact> 0.51202663E+05</totfact>
</mgrwt>
</event>
<event>
 4    1  0.3862688E+004  0.2568133E+02  0.7546771E-02  0.1651404E+00
         21   -1    0    0  503  502  0.00000000000E+00  0.00000000000E+00  0.59942412771E+01  0.59942412771E+01  0.00000000000E+00 0. -1.
         21   -1    0    0  501  503 -0.00000000000E+00 -0.00000000000E+00 -0.12673415386E+03  0.12673415386E+03  0.00000000000E+00 0. -1.
          5    1    1    2  501    0 -0.22485839042E+01 -0.25582705483E+02 -0.84465275730E+02  0.88283145354E+02  0.00000000000E+00 0.  1.
         -5    1    1    2    0  502  0.22485839042E+01  0.25582705483E+02 -0.36274636848E+02  0.44445249778E+02  0.00000000000E+00 0. -1.
<mgrwt>
<rscale>  2 0.25681335E+02</rscale>
<asrwt>0</asrwt>
<pdfrwt beam="1">  1       21 0.92219117E-03 0.25681335E+02</pdfrwt>
<pdfrwt beam="2">  1       21 0.19497558E-01 0.25681335E+02</pdfrwt>
<totfact> 0.74790351E+07</totfact>
</mgrwt>
</event>
<event>
 4    1  0.3862688E+004  0.2499977E+02  0.7546771E-02  0.1661005E+00
         21   -1    0    0  503  502  0.00000000000E+00  0.00000000000E+00  0.10187495828E+01  0.10187495828E+01  0.00000000000E+00 0. -1.
         21   -1    0    0  501  503 -0.00000000000E+00 -0.00000000000E+00 -0.64959266883E+03  0.64959266883E+03  0.00000000000E+00 0. -1.
          3    1    1    2  501    0 -0.90619843598E+01 -0.23299544911E+02 -0.24759208665E+03  0.24885101914E+03  0.00000000000E+00 0. -1.
         -3    1    1    2    0  502  0.90619843598E+01  0.23299544911E+02 -0.40098183260E+03  0.40176039928E+03  0.00000000000E+00 0.  1.
<mgrwt>
<rscale>  2 0.24999767E+02</rscale>
<asrwt>0</asrwt>
<pdfrwt beam="1">  1       21 0.15673043E-03 0.24999767E+02</pdfrwt>
<pdfrwt beam="2">  1       21 0.99937507E-01 0.24999767E+02</pdfrwt>
<totfact> 0.42597461E+07</totfact>
</mgrwt>
</event>
<event>
 4    1  0.3862688E+004  0.3388713E+02  0.7546771E-02  0.1558711E+00
         21   -1    0    0  503  502  0.00000000000E+00  0.00000000000E+00  0.57879686717E+02  0.57879686717E+02  0.00000000000E+00 0.  1.
         21   -1    0    0  501  503 -0.00000000000E+00 -0.00000000000E+00 -0.24539927376E+02  0.24539927376E+02  0.00000000000E+00 0.  1.
          5    1    1    2  501    0  0.28823566236E+02  0.17819636674E+02 -0.13646979778E+01  0.33914596007E+02  0.00000000000E+00 0. -1.
         -5    1    1    2    0  502 -0.28823566236E+02 -0.17819636674E+02  0.34704457319E+02  0.48505018086E+02  0.00000000000E+00 0.  1.
<mgrwt>
<rscale>  2 0.33887128E+02</rscale>
<asrwt>0</asrwt>
<pdfrwt beam="1">  1       21 0.89045672E-02 0.33887128E+02</pdfrwt>
<pdfrwt beam="2">  1       21 0.37753735E-02 0.33887128E+02</pdfrwt>
<totfact> 0.34230603E+07</totfact>
</mgrwt>
</event>
<event>
 4    1  0.3862688E+004  0.3011000E+02  0.7546771E-02  0.1596876E+00
         21   -1    0    0  503  502  0.00000000000E+00  0.00000000000E+00  0.32427830707E+03  0.32427830707E+03  0.00000000000E+00 0. -1.
         21   -1    0    0  501  503 -0.00000000000E+00 -0.00000000000E+00 -0.34777660930E+01  0.34777660930E+01  0.00000000000E+00 0. -1.
          1    1    1    2  501    0 -0.36804619458E+00 -0.30107753212E+02  0.87830308247E+02  0.92848130343E+02  0.00000000000E+00 0.  1.
         -1    1    1    2    0  502  0.36804619458E+00  0.30107753212E+02  0.23297023273E+03  0.23490794282E+03  0.00000000000E+00 0. -1.
<mgrwt>
<rscale>  2 0.30110003E+02</rscale>
<asrwt>0</asrwt>
<pdfrwt beam="1">  1       21 0.49888947E-01 0.30110003E+02</pdfrwt>
<pdfrwt beam="2">  1       21 0.53504119E-03 0.30110003E+02</pdfrwt>
<totfact> 0.30860515E+07</totfact>
</mgrwt>
</event>
<event>
 4    1  0.3862688E+004  0.2888546E+02  0.7546771E-02  0.1610746E+00
         21   -1    0    0  501  502  0.00000000000E+00  0.00000000000E+00  0.42618445975E+01  0.42618445975E+01  0.00000000000E+00 0.  1.
         21   -1    0    0  502  503 -0.00000000000E+00 -0.00000000000E+00 -0.20675440005E+03  0.20675440005E+03  0.00000000000E+00 0.  1.
          1    1    1    2  501    0  0.14203468487E+02  0.25152161024E+02 -0.76934602253E+02  0.82178481034E+02  0.00000000000E+00 0.  1.
         -1    1    1    2    0  503 -0.14203468487E+02 -0.25152161024E+02 -0.12555795320E+03  0.12883776361E+03  0.00000000000E+00 0. -1.
<mgrwt>
<rscale>  2 0.28885459E+02</rscale>
<asrwt>0</asrwt>
<pdfrwt beam="1">  1       21 0.65566848E-03 0.28885459E+02</pdfrwt>
<pdfrwt beam="2">  1       21 0.31808365E-01 0.28885459E+02</pdfrwt>
<totfact> 0.53228031E+07</totfact>
</mgrwt>
</event>
<event>
 4    1  0.3862688E+004  0.2468312E+02  0.7546771E-02  0.1665595E+00
         21   -1    0    0  501  502  0.00000000000E+00  0.00000000000E+00  0.18505951179E+04  0.18505951179E+04  0.00000000000E+00 0. -1.
         21   -1    0    0  502  503 -0.00000000000E+00 -0.00000000000E+00 -0.33765515171E+00  0.33765515171E+00  0.00000000000E+00 0. -1.
          1    1    1    2  501    0 -0.17937156293E+02 -0.16956269394E+02  0.10713863889E+04  0.10716706821E+04  0.00000000000E+00 0.  1.
         -1    1    1    2    0  503  0.17937156293E+02  0.16956269394E+02  0.77887107386E+03  0.77926209092E+03  0.00000000000E+00 0. -1.
<mgrwt>
<rscale>  2 0.24683125E+02</rscale>
<asrwt>0</asrwt>
<pdfrwt beam="1">  1       21 0.28469882E+00 0.24683125E+02</pdfrwt>
<pdfrwt beam="2">  1       21 0.51948428E-04 0.24683125E+02</pdfrwt>
<totfact> 0.14615573E+07</totfact>
</mgrwt>
</event>
<event>
 4    1  0.3862688E+004  0.2301247E+02  0.7546771E-02  0.1691308E+00
         21   -1    0    0  503  502  0.00000000000E+00  0.00000000000E+00  0.21563702484E+01  0.21563702484E+01  0.00000000000E+00 0. -1.
         21   -1    0    0  501  503 -0.00000000000E+00 -0.00000000000E+00 -0.26948145205E+03  0.26948145205E+03  0.00000000000E+00 0. -1.
          4    1    1    2  501    0  0.10503727547E+02 -0.20475489619E+02 -0.93218455730E+02  0.96016948797E+02  0.00000000000E+00 0. -1.
         -4    1    1    2    0  502 -0.10503727547E+02  0.20475489619E+02 -0.17410662607E+03  0.17562087350E+03  0.00000000000E+00 0.  1.
<mgrwt>
<rscale>  2 0.23012474E+02</rscale>
<asrwt>0</asrwt>
<pdfrwt beam="1">  1       21 0.33174941E-03 0.23012474E+02</pdfrwt>
<pdfrwt beam="2">  1       21 0.41458667E-01 0.23012474E+02</pdfrwt>
<totfact> 0.84137529E+07</totfact>
</mgrwt>
</event>
<event>
 4    1  0.3862688E+004  0.3214076E+02  0.7546771E-02  0.1575563E+00
         21   -1    0    0  503  502  0.00000000000E+00  0.00000000000E+00  0.19334559887E+03  0.19334559887E+03  0.00000000000E+00 0. -1.
         21   -1    0    0  501  503 -0.00000000000E+00 -0.00000000000E+00 -0.54812816723E+01  0.54812816723E+01  0.00000000000E+00 0. -1.
          3    1    1    2  501    0  0.30784621448E+02 -0.92377312574E+01  0.78137003988E+02  0.84489170837E+02  0.00000000000E+00 0.  1.
         -3    1    1    2    0  502 -0.30784621448E+02  0.92377312574E+01  0.10972731321E+03  0.11433770970E+03  0.00000000000E+00 0. -1.
<mgrwt>
<rscale>  2 0.32140762E+02</rscale>
<asrwt>0</asrwt>
<pdfrwt beam="1">  1       21 0.29745472E-01 0.32140762E+02</pdfrwt>
<pdfrwt beam="2">  1       21 0.84327425E-03 0.32140762E+02</pdfrwt>
<totfact> 0.42172482E+07</totfact>
</mgrwt>
</event>
<event>
 4    1  0.3862688E+004  0.3763246E+02  0.7546771E-02  0.1526394E+00
         21   -1    0    0  503  502  0.00000000000E+00  0.00000000000E+00  0.87339928212E+03  0.87339928212E+03  0.00000000000E+00 0. -1.
         21   -1    0    0  501  503 -0.00000000000E+00 -0.00000000000E+00 -0.18325598880E+01  0.18325598880E+01  0.00000000000E+00 0. -1.
          4    1    1    2  501    0 -0.24215085630E+02  0.28806802954E+02  0.28726362994E+03  0.28971813087E+03  0.00000000000E+00 0. -1.
         -4    1    1    2    0  502  0.24215085630E+02 -0.28806802954E+02  0.58430309229E+03  0.58551371113E+03  0.00000000000E+00 0.  1.
<mgrwt>
<rscale>  2 0.37632463E+02</rscale>
<asrwt>0</asrwt>
<pdfrwt beam="1">  1       21 0.13436879E+00 0.37632463E+02</pdfrwt>
<pdfrwt beam="2">  1       21 0.28193299E-03 0.37632463E+02</pdfrwt>
<totfact> 0.97923763E+06</totfact>
</mgrwt>
</event>
<event>
 4    1  0.3862688E+004  0.3024562E+02  0.7546771E-02  0.1595389E+00
         21   -1    0    0  503  502  0.00000000000E+00  0.00000000000E+00  0.54935253701E+01  0.54935253701E+01  0.00000000000E+00 0. -1.
         21   -1    0    0  501  503 -0.00000000000E+00 -0.00000000000E+00 -0.17888936847E+03  0.17888936847E+03  0.00000000000E+00 0. -1.
          2    1    1    2  501    0  0.10678232496E+02  0.28297929314E+02 -0.11093734278E+03  0.11498648389E+03  0.00000000000E+00 0. -1.
         -2    1    1    2    0  502 -0.10678232496E+02 -0.28297929314E+02 -0.62458500314E+02  0.69396409951E+02  0.00000000000E+00 0.  1.
<mgrwt>
<rscale>  2 0.30245619E+02</rscale>
<asrwt>0</asrwt>
<pdfrwt beam="1">  1       21 0.84515786E-03 0.30245619E+02</pdfrwt>
<pdfrwt beam="2">  1       21 0.27521438E-01 0.30245619E+02</pdfrwt>
<totfact> 0.47875352E+07</totfact>
</mgrwt>
</event>
<event>
 4    1  0.3862688E+004  0.3629951E+02  0.7546771E-02  0.1537354E+00
         21   -1    0    0  503  502  0.00000000000E+00  0.00000000000E+00  0.81661459228E+01  0.81661459228E+01  0.00000000000E+00 0. -1.
         21   -1    0    0  501  503 -0.00000000000E+00 -0.00000000000E+00 -0.16309511213E+03  0.16309511213E+03  0.00000000000E+00 0. -1.
          5    1    1    2  501    0  0.17182908486E+02  0.31975024677E+02 -0.86307581837E+02  0.93630407613E+02  0.00000000000E+00 0. -1.
         -5    1    1    2    0  502 -0.17182908486E+02 -0.31975024677E+02 -0.68621384368E+02  0.77630850438E+02  0.00000000000E+00 0.  1.
<mgrwt>
<rscale>  2 0.36299512E+02</rscale>
<asrwt>0</asrwt>
<pdfrwt beam="1">  1       21 0.12563301E-02 0.36299512E+02</pdfrwt>
<pdfrwt beam="2">  1       21 0.25091557E-01 0.36299512E+02</pdfrwt>
<totfact> 0.32097595E+07</totfact>
</mgrwt>
</event>
<event>
 4    1  0.3862688E+004  0.2285805E+02  0.7546771E-02  0.1693821E+00
         21   -1    0    0  503  502  0.00000000000E+00  0.00000000000E+00  0.26139256991E+01  0.26139256991E+01  0.00000000000E+00 0.  1.
         21   -1    0    0  501  503 -0.00000000000E+00 -0.00000000000E+00 -0.20280910725E+03  0.20280910725E+03  0.00000000000E+00 0.  1.
          4    1    1    2  501    0  0.22398321070E+02  0.45613213957E+01 -0.87769258093E+02  0.90696929969E+02  0.00000000000E+00 0. -1.
         -4    1    1    2    0  502 -0.22398321070E+02 -0.45613213957E+01 -0.11242592346E+03  0.11472610298E+03  0.00000000000E+00 0.  1.
<mgrwt>
<rscale>  2 0.22858050E+02</rscale>
<asrwt>0</asrwt>
<pdfrwt beam="1">  1       21 0.40214248E-03 0.22858050E+02</pdfrwt>
<pdfrwt beam="2">  1       21 0.31201396E-01 0.22858050E+02</pdfrwt>
<totfact> 0.10748615E+08</totfact>
</mgrwt>
</event>
<event>
 4    1  0.3862688E+004  0.2412297E+02  0.7546771E-02  0.1673928E+00
         21   -1    0    0  503  502  0.00000000000E+00  0.00000000000E+00  0.84443739888E+00  0.84443739888E+00  0.00000000000E+00 0. -1.
         21   -1    0    0  501  503 -0.00000000000E+00 -0.00000000000E+00 -0.96174957682E+03  0.96174957682E+03  0.00000000000E+00 0. -1.
          5    1    1    2  501    0 -0.20819189427E+02  0.12185196389E+02 -0.22419917606E+03  0.22549321100E+03  0.00000000000E+00 0. -1.
         -5    1    1    2    0  502  0.20819189427E+02 -0.12185196389E+02 -0.73670596336E+03  0.73710080322E+03  0.00000000000E+00 0.  1.
<mgrwt>
<rscale>  2 0.24122970E+02</rscale>
<asrwt>0</asrwt>
<pdfrwt beam="1">  1       21 0.12991330E-03 0.24122970E+02</pdfrwt>
<pdfrwt beam="2">  1       21 0.14796163E+00 0.24122970E+02</pdfrwt>
<totfact> 0.22643716E+07</totfact>
</mgrwt>
</event>
<event>
 4    1  0.3862688E+004  0.2803396E+02  0.7546771E-02  0.1620896E+00
         21   -1    0    0  501  502  0.00000000000E+00  0.00000000000E+00  0.28787710734E+03  0.28787710734E+03  0.00000000000E+00 0.  1.
         21   -1    0    0  502  503 -0.00000000000E+00 -0.00000000000E+00 -0.36217997348E+01  0.36217997348E+01  0.00000000000E+00 0.  1.
          2    1    1    2  501    0 -0.17390339153E+02 -0.21988154497E+02  0.21445121456E+03  0.21627581062E+03  0.00000000000E+00 0.  1.
         -2    1    1    2    0  503  0.17390339153E+02  0.21988154497E+02  0.69804093045E+02  0.75223096452E+02  0.00000000000E+00 0. -1.
<mgrwt>
<rscale>  2 0.28033959E+02</rscale>
<asrwt>0</asrwt>
<pdfrwt beam="1">  1       21 0.44288768E-01 0.28033959E+02</pdfrwt>
<pdfrwt beam="2">  1       21 0.55720019E-03 0.28033959E+02</pdfrwt>
<totfact> 0.36117208E+07</totfact>
</mgrwt>
</event>
<event>
 4    1  0.3862688E+004  0.2240287E+02  0.7546771E-02  0.1701376E+00
         21   -1    0    0  503  502  0.00000000000E+00  0.00000000000E+00  0.70882947321E+01  0.70882947321E+01  0.00000000000E+00 0.  1.
         21   -1    0    0  501  503 -0.00000000000E+00 -0.00000000000E+00 -0.87722034350E+02  0.87722034350E+02  0.00000000000E+00 0.  1.
          5    1    1    2  501    0 -0.18317989415E+02 -0.12897273318E+02 -0.61134456027E+02  0.65109984710E+02  0.00000000000E+00 0. -1.
         -5    1    1    2    0  502  0.18317989415E+02  0.12897273318E+02 -0.19499283591E+02  0.29700344372E+02  0.00000000000E+00 0.  1.
<mgrwt>
<rscale>  2 0.22402866E+02</rscale>
<asrwt>0</asrwt>
<pdfrwt beam="1">  1       21 0.10905069E-02 0.22402866E+02</pdfrwt>
<pdfrwt beam="2">  1       21 0.13495697E-01 0.22402866E+02</pdfrwt>
<totfact> 0.10539147E+08</totfact>
</mgrwt>
</event>
<event>
 4    1  0.3862688E+004  0.3838937E+02  0.7546771E-02  0.1520410E+00
         21   -1    0    0  503  502  0.00000000000E+00  0.00000000000E+00  0.21479411253E+03  0.21479411253E+03  0.00000000000E+00 0.  1.
         21   -1    0    0  501  503 -0.00000000000E+00 -0.00000000000E+00 -0.10161260399E+02  0.10161260399E+02  0.00000000000E+00 0.  1.
          1    1    1    2  501    0 -0.38104380188E+02 -0.46690570329E+01  0.38217023372E+02  0.54169038745E+02  0.00000000000E+00 0. -1.
         -1    1    1    2    0  502  0.38104380188E+02  0.46690570329E+01  0.16641582876E+03  0.17078633419E+03  0.00000000000E+00 0.  1.
<mgrwt>
<rscale>  2 0.38389372E+02</rscale>
<asrwt>0</asrwt>
<pdfrwt beam="1">  1       21 0.33045245E-01 0.38389372E+02</pdfrwt>
<pdfrwt beam="2">  1       21 0.15632710E-02 0.38389372E+02</pdfrwt>
<totfact> 0.13904655E+07</totfact>
</mgrwt>
</event>
<event>
 4    1  0.3862688E+004  0.2310949E+02  0.7546771E-02  0.1689741E+00
         21   -1    0    0  501  502  0.00000000000E+00  0.00000000000E+00  0.44513443190E+02  0.44513443190E+02  0.00000000000E+00 0.  1.
         21   -1    0    0  502  503 -0.00000000000E+00 -0.00000000000E+00 -0.12658669461E+02  0.12658669461E+02  0.00000000000E+00 0.  1.
          5    1    1    2  501    0 -0.22001130280E+02 -0.70709861449E+01  0.93941658486E+01  0.24945920121E+02  0.00000000000E+00 0.  1.
         -5    1    1    2    0  503  0.22001130280E+02  0.70709861449E+01  0.22460607881E+02  0.32226192531E+02  0.00000000000E+00 0. -1.
<mgrwt>
<rscale>  2 0.23109491E+02</rscale>
<asrwt>0</asrwt>
<pdfrwt beam="1">  1       21 0.68482220E-02 0.23109491E+02</pdfrwt>
<pdfrwt beam="2">  1       21 0.19474876E-02 0.23109491E+02</pdfrwt>
<totfact> 0.13507264E+08</totfact>
</mgrwt>
</event>
<event>
 4    1  0.3862688E+004  0.2885876E+02  0.7546771E-02  0.1611057E+00
         21   -1    0    0  501  502  0.00000000000E+00  0.00000000000E+00  0.49727485783E+03  0.49727485783E+03  0.00000000000E+00 0.  1.
         21   -1    0    0  502  503 -0.00000000000E+00 -0.00000000000E+00 -0.18486800017E+01  0.18486800017E+01  0.00000000000E+00 0.  1.
          3    1    1    2  501    0 -0.28242371732E+02  0.59326545723E+01  0.32425372070E+03  0.32553541027E+03  0.00000000000E+00 0.  1.
         -3    1    1    2    0  503  0.28242371732E+02 -0.59326545723E+01  0.17117245713E+03  0.17358812757E+03  0.00000000000E+00 0. -1.
<mgrwt>
<rscale>  2 0.28858759E+02</rscale>
<asrwt>0</asrwt>
<pdfrwt beam="1">  1       21 0.76503718E-01 0.28858759E+02</pdfrwt>
<pdfrwt beam="2">  1       21 0.28441270E-03 0.28858759E+02</pdfrwt>
<totfact> 0.32695551E+07</totfact>
</mgrwt>
</event>
<event>
 4    1  0.3862688E+004  0.4327426E+02  0.7546771E-02  0.1485412E+00
         21   -1    0    0  503  502  0.00000000000E+00  0.00000000000E+00  0.10276985328E+01  0.10276985328E+01  0.00000000000E+00 0.  1.
         21   -1    0    0  501  503 -0.00000000000E+00 -0.00000000000E+00 -0.18314663802E+04  0.18314663802E+04  0.00000000000E+00 0.  1.
          4    1    1    2  501    0  0.72785489704E+01  0.42657753384E+02 -0.85000841204E+03  0.85110925370E+03  0.00000000000E+00 0.  1.
         -4    1    1    2    0  502 -0.72785489704E+01 -0.42657753384E+02 -0.98043026960E+03  0.98138482500E+03  0.00000000000E+00 0. -1.
<mgrwt>
<rscale>  2 0.43274256E+02</rscale>
<asrwt>0</asrwt>
<pdfrwt beam="1">  1       21 0.15811040E-03 0.43274256E+02</pdfrwt>
<pdfrwt beam="2">  1       21 0.28175884E+00 0.43274256E+02</pdfrwt>
<totfact> 0.30713424E+06</totfact>
</mgrwt>
</event>
<event>
 4    1  0.3862688E+004  0.3071051E+02  0.7546771E-02  0.1590365E+00
         21   -1    0    0  503  502  0.00000000000E+00  0.00000000000E+00  0.49997751895E+02  0.49997751895E+02  0.00000000000E+00 0.  1.
         21   -1    0    0  501  503 -0.00000000000E+00 -0.00000000000E+00 -0.27828274693E+02  0.27828274693E+02  0.00000000000E+00 0.  1.
          2    1    1    2  501    0  0.96476496616E+01  0.29155760036E+02 -0.11001410970E+02  0.32621565422E+02  0.00000000000E+00 0.  1.
         -2    1    1    2    0  502 -0.96476496616E+01 -0.29155760036E+02  0.33170888172E+02  0.45204461166E+02  0.00000000000E+00 0. -1.
<mgrwt>
<rscale>  2 0.30710511E+02</rscale>
<asrwt>0</asrwt>
<pdfrwt beam="1">  1       21 0.76919618E-02 0.30710511E+02</pdfrwt>
<pdfrwt beam="2">  1       21 0.42812730E-02 0.30710511E+02</pdfrwt>
<totfact> 0.34994155E+07</totfact>
</mgrwt>
</event>
<event>
 4    1  0.3862688E+004  0.4169986E+02  0.7546771E-02  0.1496062E+00
         21   -1    0    0  501  502  0.00000000000E+00  0.00000000000E+00  0.37238860476E+01  0.37238860476E+01  0.00000000000E+00 0. -1.
         21   -1    0    0  502  503 -0.00000000000E+00 -0.00000000000E+00 -0.46708807221E+03  0.46708807221E+03  0.00000000000E+00 0. -1.
          3    1    1    2  501    0  0.34215170855E+02  0.23836956563E+02 -0.23569059177E+03  0.23935106739E+03  0.00000000000E+00 0.  1.
         -3    1    1    2    0  503 -0.34215170855E+02 -0.23836956563E+02 -0.22767359440E+03  0.23146089087E+03  0.00000000000E+00 0. -1.
<mgrwt>
<rscale>  2 0.41699861E+02</rscale>
<asrwt>0</asrwt>
<pdfrwt beam="1">  1       21 0.57290521E-03 0.41699861E+02</pdfrwt>
<pdfrwt beam="2">  1       21 0.71859746E-01 0.41699861E+02</pdfrwt>
<totfact> 0.13941034E+07</totfact>
</mgrwt>
</event>
<event>
 4    1  0.3862688E+004  0.2533434E+02  0.7546771E-02  0.1656246E+00
         21   -1    0    0  501  502  0.00000000000E+00  0.00000000000E+00  0.11410877561E+02  0.11410877561E+02  0.00000000000E+00 0. -1.
         21   -1    0    0  502  503 -0.00000000000E+00 -0.00000000000E+00 -0.65307293566E+02  0.65307293566E+02  0.00000000000E+00 0. -1.
          2    1    1    2  501    0  0.25240865028E+02  0.21743101509E+01 -0.12660719732E+02  0.28321771063E+02  0.00000000000E+00 0. -1.
         -2    1    1    2    0  503 -0.25240865028E+02 -0.21743101509E+01 -0.41235696274E+02  0.48396400064E+02  0.00000000000E+00 0.  1.
<mgrwt>
<rscale>  2 0.25334342E+02</rscale>
<asrwt>0</asrwt>
<pdfrwt beam="1">  1       21 0.17555196E-02 0.25334342E+02</pdfrwt>
<pdfrwt beam="2">  1       21 0.10047276E-01 0.25334342E+02</pdfrwt>
<totfact> 0.86695335E+07</totfact>
</mgrwt>
</event>
<event>
 4    1  0.3862688E+004  0.2972384E+02  0.7546771E-02  0.1601161E+00
         21   -1    0    0  503  502  0.00000000000E+00  0.00000000000E+00  0.53227681153E+02  0.53227681153E+02  0.00000000000E+00 0.  1.
         21   -1    0    0  501  503 -0.00000000000E+00 -0.00000000000E+00 -0.16773770698E+02  0.16773770698E+02  0.00000000000E+00 0.  1.
          3    1    1    2  501    0  0.84859395682E+00 -0.29711719635E+02  0.21803467022E+02  0.36863227877E+02  0.00000000000E+00 0.  1.
         -3    1    1    2    0  502 -0.84859395682E+00  0.29711719635E+02  0.14650443433E+02  0.33138223974E+02  0.00000000000E+00 0. -1.
<mgrwt>
<rscale>  2 0.29723835E+02</rscale>
<asrwt>0</asrwt>
<pdfrwt beam="1">  1       21 0.81888739E-02 0.29723835E+02</pdfrwt>
<pdfrwt beam="2">  1       21 0.25805801E-02 0.29723835E+02</pdfrwt>
<totfact> 0.69733914E+07</totfact>
</mgrwt>
</event>
<event>
 4    1  0.3862688E+004  0.2733450E+02  0.7546771E-02  0.1629571E+00
         21   -1    0    0  501  502  0.00000000000E+00  0.00000000000E+00  0.59372041737E+02  0.59372041737E+02  0.00000000000E+00 0. -1.
         21   -1    0    0  502  503 -0.00000000000E+00 -0.00000000000E+00 -0.12587453396E+02  0.12587453396E+02  0.00000000000E+00 0. -1.
          1    1    1    2  501    0 -0.98415770025E+01  0.25501336471E+02  0.23931760138E+02  0.36330482284E+02  0.00000000000E+00 0.  1.
         -1    1    1    2    0  503  0.98415770025E+01 -0.25501336471E+02  0.22852828203E+02  0.35629012849E+02  0.00000000000E+00 0. -1.
<mgrwt>
<rscale>  2 0.27334498E+02</rscale>
<asrwt>0</asrwt>
<pdfrwt beam="1">  1       21 0.91341601E-02 0.27334498E+02</pdfrwt>
<pdfrwt beam="2">  1       21 0.19365313E-02 0.27334498E+02</pdfrwt>
<totfact> 0.89035476E+07</totfact>
</mgrwt>
</event>
<event>
 4    1  0.3862688E+004  0.3069401E+02  0.7546771E-02  0.1590542E+00
         21   -1    0    0  501  502  0.00000000000E+00  0.00000000000E+00  0.10119727946E+02  0.10119727946E+02  0.00000000000E+00 0. -1.
         21   -1    0    0  502  503 -0.00000000000E+00 -0.00000000000E+00 -0.12206804868E+03  0.12206804868E+03  0.00000000000E+00 0. -1.
          4    1    1    2  501    0  0.50986427821E+01 -0.30267576713E+02 -0.88172830226E+02  0.93362574666E+02  0.00000000000E+00 0.  1.
         -4    1    1    2    0  503 -0.50986427821E+01  0.30267576713E+02 -0.23775490508E+02  0.38825201960E+02  0.00000000000E+00 0. -1.
<mgrwt>
<rscale>  2 0.30694012E+02</rscale>
<asrwt>0</asrwt>
<pdfrwt beam="1">  1       21 0.15568814E-02 0.30694012E+02</pdfrwt>
<pdfrwt beam="2">  1       21 0.18779698E-01 0.30694012E+02</pdfrwt>
<totfact> 0.37507029E+07</totfact>
</mgrwt>
</event>
<event>
 4    1  0.3862688E+004  0.2118691E+02  0.7546771E-02  0.1722706E+00
         21   -1    0    0  503  502  0.00000000000E+00  0.00000000000E+00  0.16018178411E+02  0.16018178411E+02  0.00000000000E+00 0. -1.
         21   -1    0    0  501  503 -0.00000000000E+00 -0.00000000000E+00 -0.34709299200E+02  0.34709299200E+02  0.00000000000E+00 0. -1.
          1    1    1    2  501    0 -0.14965453531E+02 -0.14997338454E+02  0.17863051497E+01  0.21262075303E+02  0.00000000000E+00 0.  1.
         -1    1    1    2    0  502  0.14965453531E+02  0.14997338454E+02 -0.20477425939E+02  0.29465402308E+02  0.00000000000E+00 0. -1.
<mgrwt>
<rscale>  2 0.21186905E+02</rscale>
<asrwt>0</asrwt>
<pdfrwt beam="1">  1       21 0.24643351E-02 0.21186905E+02</pdfrwt>
<pdfrwt beam="2">  1       21 0.53398922E-02 0.21186905E+02</pdfrwt>
<totfact> 0.13658886E+08</totfact>
</mgrwt>
</event>
<event>
 4    1  0.3862688E+004  0.2384282E+02  0.7546771E-02  0.1678202E+00
         21   -1    0    0  501  502  0.00000000000E+00  0.00000000000E+00  0.49199859403E+02  0.49199859403E+02  0.00000000000E+00 0. -1.
         21   -1    0    0  502  503 -0.00000000000E+00 -0.00000000000E+00 -0.12173517795E+02  0.12173517795E+02  0.00000000000E+00 0. -1.
          1    1    1    2  501    0  0.12747668729E+02 -0.20148867740E+02  0.11593388221E+02  0.26512008217E+02  0.00000000000E+00 0.  1.
         -1    1    1    2    0  503 -0.12747668729E+02  0.20148867740E+02  0.25432953387E+02  0.34861368981E+02  0.00000000000E+00 0. -1.
<mgrwt>
<rscale>  2 0.23842817E+02</rscale>
<asrwt>0</asrwt>
<pdfrwt beam="1">  1       21 0.75692090E-02 0.23842817E+02</pdfrwt>
<pdfrwt beam="2">  1       21 0.18728489E-02 0.23842817E+02</pdfrwt>
<totfact> 0.12303356E+08</totfact>
</mgrwt>
</event>
<event>
 4    1  0.3862688E+004  0.2421090E+02  0.7546771E-02  0.1672602E+00
         21   -1    0    0  501  502  0.00000000000E+00  0.00000000000E+00  0.24829674216E+02  0.24829674216E+02  0.00000000000E+00 0.  1.
         21   -1    0    0  502  503 -0.00000000000E+00 -0.00000000000E+00 -0.25309373556E+02  0.25309373556E+02  0.00000000000E+00 0.  1.
          4    1    1    2  501    0 -0.87059293643E+01 -0.22591468350E+02  0.62608979725E+01  0.25007328760E+02  0.00000000000E+00 0. -1.
         -4    1    1    2    0  503  0.87059293643E+01  0.22591468350E+02 -0.67405973127E+01  0.25131719011E+02  0.00000000000E+00 0.  1.
<mgrwt>
<rscale>  2 0.24210899E+02</rscale>
<asrwt>0</asrwt>
<pdfrwt beam="1">  1       21 0.38199499E-02 0.24210899E+02</pdfrwt>
<pdfrwt beam="2">  1       21 0.38937498E-02 0.24210899E+02</pdfrwt>
<totfact> 0.11843740E+08</totfact>
</mgrwt>
</event>
<event>
 4    1  0.3862688E+004  0.2152555E+02  0.7546771E-02  0.1716589E+00
         21   -1    0    0  501  502  0.00000000000E+00  0.00000000000E+00  0.61608646582E+01  0.61608646582E+01  0.00000000000E+00 0.  1.
         21   -1    0    0  502  503 -0.00000000000E+00 -0.00000000000E+00 -0.79347531416E+02  0.79347531416E+02  0.00000000000E+00 0.  1.
          5    1    1    2  501    0 -0.18614948875E+02  0.10808920905E+02 -0.26828520079E+02  0.34396490844E+02  0.00000000000E+00 0.  1.
         -5    1    1    2    0  503  0.18614948875E+02 -0.10808920905E+02 -0.46358146678E+02  0.51111905230E+02  0.00000000000E+00 0. -1.
<mgrwt>
<rscale>  2 0.21525545E+02</rscale>
<asrwt>0</asrwt>
<pdfrwt beam="1">  1       21 0.94782541E-03 0.21525545E+02</pdfrwt>
<pdfrwt beam="2">  1       21 0.12207312E-01 0.21525545E+02</pdfrwt>
<totfact> 0.15214038E+08</totfact>
</mgrwt>
</event>
<event>
 4    1  0.3862688E+004  0.2469643E+02  0.7546771E-02  0.1665401E+00
         21   -1    0    0  501  502  0.00000000000E+00  0.00000000000E+00  0.21626046803E+02  0.21626046803E+02  0.00000000000E+00 0. -1.
         21   -1    0    0  502  503 -0.00000000000E+00 -0.00000000000E+00 -0.32031384487E+02  0.32031384487E+02  0.00000000000E+00 0. -1.
          1    1    1    2  501    0  0.84495968112E+00 -0.24681973851E+02  0.40727709120E+01  0.25030007051E+02  0.00000000000E+00 0.  1.
         -1    1    1    2    0  503 -0.84495968112E+00  0.24681973851E+02 -0.14478108596E+02  0.28627424239E+02  0.00000000000E+00 0. -1.
<mgrwt>
<rscale>  2 0.24696433E+02</rscale>
<asrwt>0</asrwt>
<pdfrwt beam="1">  1       21 0.33270841E-02 0.24696433E+02</pdfrwt>
<pdfrwt beam="2">  1       21 0.49279053E-02 0.24696433E+02</pdfrwt>
<totfact> 0.10184629E+08</totfact>
</mgrwt>
</event>
<event>
 4    1  0.3862688E+004  0.2285666E+02  0.7546771E-02  0.1693844E+00
         21   -1    0    0  501  502  0.00000000000E+00  0.00000000000E+00  0.19049684795E+04  0.19049684795E+04  0.00000000000E+00 0. -1.
         21   -1    0    0  502  503 -0.00000000000E+00 -0.00000000000E+00 -0.33159219132E+00  0.33159219132E+00  0.00000000000E+00 0. -1.
          3    1    1    2  501    0 -0.22387294726E+02 -0.46082274336E+01  0.13484961297E+04  0.13486898230E+04  0.00000000000E+00 0. -1.
         -3    1    1    2    0  503  0.22387294726E+02  0.46082274336E+01  0.55614075752E+03  0.55661024865E+03  0.00000000000E+00 0.  1.
<mgrwt>
<rscale>  2 0.22856656E+02</rscale>
<asrwt>0</asrwt>
<pdfrwt beam="1">  1       21 0.29306331E+00 0.22856656E+02</pdfrwt>
<pdfrwt beam="2">  1       21 0.51015709E-04 0.22856656E+02</pdfrwt>
<totfact> 0.13611265E+07</totfact>
</mgrwt>
</event>
<event>
 4    1  0.3862688E+004  0.2908223E+02  0.7546771E-02  0.1608461E+00
         21   -1    0    0  503  502  0.00000000000E+00  0.00000000000E+00  0.79873901897E+01  0.79873901897E+01  0.00000000000E+00 0.  1.
         21   -1    0    0  501  503 -0.00000000000E+00 -0.00000000000E+00 -0.10597352412E+03  0.10597352412E+03  0.00000000000E+00 0.  1.
          2    1    1    2  501    0  0.24992067432E+02 -0.14871874374E+02 -0.50603102640E+02  0.58364801710E+02  0.00000000000E+00 0. -1.
         -2    1    1    2    0  502 -0.24992067432E+02  0.14871874374E+02 -0.47383031290E+02  0.55596112599E+02  0.00000000000E+00 0.  1.
<mgrwt>
<rscale>  2 0.29082230E+02</rscale>
<asrwt>0</asrwt>
<pdfrwt beam="1">  1       21 0.12288292E-02 0.29082230E+02</pdfrwt>
<pdfrwt beam="2">  1       21 0.16303619E-01 0.29082230E+02</pdfrwt>
<totfact> 0.68127438E+07</totfact>
</mgrwt>
</event>
<event>
 4    1  0.3862688E+004  0.2044672E+02  0.7546771E-02  0.1736588E+00
         21   -1    0    0  503  502  0.00000000000E+00  0.00000000000E+00  0.37494257759E+03  0.37494257759E+03  0.00000000000E+00 0.  1.
         21   -1    0    0  501  503 -0.00000000000E+00 -0.00000000000E+00 -0.12715086961E+01  0.12715086961E+01  0.00000000000E+00 0.  1.
          1    1    1    2  501    0  0.92634183636E+00 -0.20425720278E+02  0.25282704059E+03  0.25365248000E+03  0.00000000000E+00 0.  1.
         -1    1    1    2    0  502 -0.92634183636E+00  0.20425720278E+02  0.12084402831E+03  0.12256160629E+03  0.00000000000E+00 0. -1.
<mgrwt>
<rscale>  2 0.20446715E+02</rscale>
<asrwt>0</asrwt>
<pdfrwt beam="1">  1       21 0.57683385E-01 0.20446715E+02</pdfrwt>
<pdfrwt beam="2">  1       21 0.19561702E-03 0.20446715E+02</pdfrwt>
<totfact> 0.92611253E+07</totfact>
</mgrwt>
</event>
<event>
 4    1  0.3862688E+004  0.2283139E+02  0.7546771E-02  0.1694258E+00
         21   -1    0    0  501  502  0.00000000000E+00  0.00000000000E+00  0.46125639951E+00  0.46125639951E+00  0.00000000000E+00 0.  1.
         21   -1    0    0  502  503 -0.00000000000E+00 -0.00000000000E+00 -0.12117897519E+04  0.12117897519E+04  0.00000000000E+00 0.  1.
          5    1    1    2  501    0  0.13193427141E+01  0.22793235989E+02 -0.44830374411E+03  0.44888475052E+03  0.00000000000E+00 0.  1.
         -5    1    1    2    0  503 -0.13193427141E+01 -0.22793235989E+02 -0.76302475139E+03  0.76336625778E+03  0.00000000000E+00 0. -1.
<mgrwt>
<rscale>  2 0.22831388E+02</rscale>
<asrwt>0</asrwt>
<pdfrwt beam="1">  1       21 0.70962967E-04 0.22831388E+02</pdfrwt>
<pdfrwt beam="2">  1       21 0.18642803E+00 0.22831388E+02</pdfrwt>
<totfact> 0.30215681E+07</totfact>
</mgrwt>
</event>
<event>
 4    1  0.3862688E+004  0.2067896E+02  0.7546771E-02  0.1732154E+00
         21   -1    0    0  503  502  0.00000000000E+00  0.00000000000E+00  0.14278694686E+03  0.14278694686E+03  0.00000000000E+00 0.  1.
         21   -1    0    0  501  503 -0.00000000000E+00 -0.00000000000E+00 -0.30180725535E+01  0.30180725535E+01  0.00000000000E+00 0.  1.
          1    1    1    2  501    0 -0.13563563263E+02 -0.15609268301E+02  0.63483787563E+02  0.66766838990E+02  0.00000000000E+00 0. -1.
         -1    1    1    2    0  502  0.13563563263E+02  0.15609268301E+02  0.76285086742E+02  0.79038180423E+02  0.00000000000E+00 0.  1.
<mgrwt>
<rscale>  2 0.20678963E+02</rscale>
<asrwt>0</asrwt>
<pdfrwt beam="1">  1       21 0.21967217E-01 0.20678963E+02</pdfrwt>
<pdfrwt beam="2">  1       21 0.46431897E-03 0.20678963E+02</pdfrwt>
<totfact> 0.15842668E+08</totfact>
</mgrwt>
</event>
<event>
 4    1  0.3862688E+004  0.2021408E+02  0.7546771E-02  0.1741104E+00
         21   -1    0    0  501  502  0.00000000000E+00  0.00000000000E+00  0.13599515312E+04  0.13599515312E+04  0.00000000000E+00 0. -1.
         21   -1    0    0  502  503 -0.00000000000E+00 -0.00000000000E+00 -0.30644726399E+00  0.30644726399E+00  0.00000000000E+00 0. -1.
          3    1    1    2  501    0  0.46122870441E+01  0.19680847717E+02  0.77490119874E+03  0.77516480620E+03  0.00000000000E+00 0. -1.
         -3    1    1    2    0  503 -0.46122870441E+01 -0.19680847717E+02  0.58474388515E+03  0.58509317223E+03  0.00000000000E+00 0.  1.
<mgrwt>
<rscale>  2 0.20214078E+02</rscale>
<asrwt>0</asrwt>
<pdfrwt beam="1">  1       21 0.20921848E+00 0.20214078E+02</pdfrwt>
<pdfrwt beam="2">  1       21 0.47146822E-04 0.20214078E+02</pdfrwt>
<totfact> 0.39226143E+07</totfact>
</mgrwt>
</event>
<event>
 4    1  0.3862688E+004  0.2249732E+02  0.7546771E-02  0.1699790E+00
         21   -1    0    0  503  502  0.00000000000E+00  0.00000000000E+00  0.16890743249E+04  0.16890743249E+04  0.00000000000E+00 0.  1.
         21   -1    0    0  501  503 -0.00000000000E+00 -0.00000000000E+00 -0.44198632196E+00  0.44198632196E+00  0.00000000000E+00 0.  1.
          1    1    1    2  501    0  0.19971635878E+02  0.10356798045E+02  0.36492800462E+03  0.36562081185E+03  0.00000000000E+00 0.  1.
         -1    1    1    2    0  502 -0.19971635878E+02 -0.10356798045E+02  0.13237043339E+04  0.13238954994E+04  0.00000000000E+00 0. -1.
<mgrwt>
<rscale>  2 0.22497322E+02</rscale>
<asrwt>0</asrwt>
<pdfrwt beam="1">  1       21 0.25985242E+00 0.22497322E+02</pdfrwt>
<pdfrwt beam="2">  1       21 0.67999248E-04 0.22497322E+02</pdfrwt>
<totfact> 0.13130901E+07</totfact>
</mgrwt>
</event>
<event>
 4    1  0.3862688E+004  0.3503034E+02  0.7546771E-02  0.1548331E+00
         21   -1    0    0  503  502  0.00000000000E+00  0.00000000000E+00  0.12458728510E+03  0.12458728510E+03  0.00000000000E+00 0. -1.
         21   -1    0    0  501  503 -0.00000000000E+00 -0.00000000000E+00 -0.10580713353E+02  0.10580713353E+02  0.00000000000E+00 0. -1.
          1    1    1    2  501    0  0.17174409680E+02  0.30531362650E+02  0.39236710215E+02  0.52598896201E+02  0.00000000000E+00 0. -1.
         -1    1    1    2    0  502 -0.17174409680E+02 -0.30531362650E+02  0.74769861537E+02  0.82569102256E+02  0.00000000000E+00 0.  1.
<mgrwt>
<rscale>  2 0.35030336E+02</rscale>
<asrwt>0</asrwt>
<pdfrwt beam="1">  1       21 0.19167274E-01 0.35030336E+02</pdfrwt>
<pdfrwt beam="2">  1       21 0.16278021E-02 0.35030336E+02</pdfrwt>
<totfact> 0.34666682E+07</totfact>
</mgrwt>
</event>
<event>
 4    1  0.3862688E+004  0.2146366E+02  0.7546771E-02  0.1717696E+00
         21   -1    0    0  501  502  0.00000000000E+00  0.00000000000E+00  0.38285372597E+01  0.38285372597E+01  0.00000000000E+00 0.  1.
         21   -1    0    0  502  503 -0.00000000000E+00 -0.00000000000E+00 -0.23477491702E+03  0.23477491702E+03  0.00000000000E+00 0.  1.
          5    1    1    2  501    0 -0.19047307312E+02  0.98938752609E+01 -0.32178226144E+02  0.38679799913E+02  0.00000000000E+00 0.  1.
         -5    1    1    2    0  503  0.19047307312E+02 -0.98938752609E+01 -0.19876815362E+03  0.19992365437E+03  0.00000000000E+00 0. -1.
<mgrwt>
<rscale>  2 0.21463660E+02</rscale>
<asrwt>0</asrwt>
<pdfrwt beam="1">  1       21 0.58900570E-03 0.21463660E+02</pdfrwt>
<pdfrwt beam="2">  1       21 0.36119220E-01 0.21463660E+02</pdfrwt>
<totfact> 0.46063840E+07</totfact>
</mgrwt>
</event>
<event>
 4    1  0.3862688E+004  0.2019845E+02  0.7546771E-02  0.1741410E+00
         21   -1    0    0  503  502  0.00000000000E+00  0.00000000000E+00  0.34782151374E+02  0.34782151374E+02  0.00000000000E+00 0. -1.
         21   -1    0    0  501  503 -0.00000000000E+00 -0.00000000000E+00 -0.12464750787E+02  0.12464750787E+02  0.00000000000E+00 0. -1.
          3    1    1    2  501    0  0.66202976204E+01 -0.19082689667E+02  0.16896139471E+02  0.26333570107E+02  0.00000000000E+00 0. -1.
         -3    1    1    2    0  502 -0.66202976204E+01  0.19082689667E+02  0.54212611157E+01  0.20913332054E+02  0.00000000000E+00 0.  1.
<mgrwt>
<rscale>  2 0.20198450E+02</rscale>
<asrwt>0</asrwt>
<pdfrwt beam="1">  1       21 0.53511002E-02 0.20198450E+02</pdfrwt>
<pdfrwt beam="2">  1       21 0.19176540E-02 0.20198450E+02</pdfrwt>
<totfact> 0.19696397E+08</totfact>
</mgrwt>
</event>
<event>
 4    1  0.3862688E+004  0.3257053E+02  0.7546771E-02  0.1571298E+00
         21   -1    0    0  503  502  0.00000000000E+00  0.00000000000E+00  0.32125886388E+03  0.32125886388E+03  0.00000000000E+00 0. -1.
         21   -1    0    0  501  503 -0.00000000000E+00 -0.00000000000E+00 -0.42413678406E+01  0.42413678406E+01  0.00000000000E+00 0. -1.
          2    1    1    2  501    0 -0.31328215720E+02 -0.89096779761E+01  0.23509581864E+03  0.23734128045E+03  0.00000000000E+00 0. -1.
         -2    1    1    2    0  502  0.31328215720E+02  0.89096779761E+01  0.81921677399E+02  0.88158951274E+02  0.00000000000E+00 0.  1.
<mgrwt>
<rscale>  2 0.32570531E+02</rscale>
<asrwt>0</asrwt>
<pdfrwt beam="1">  1       21 0.49424421E-01 0.32570531E+02</pdfrwt>
<pdfrwt beam="2">  1       21 0.65251838E-03 0.32570531E+02</pdfrwt>
<totfact> 0.23683908E+07</totfact>
</mgrwt>
</event>
<event>
 4    1  0.3862688E+004  0.2567230E+02  0.7546771E-02  0.1651529E+00
         21   -1    0    0  503  502  0.00000000000E+00  0.00000000000E+00  0.12723865875E+02  0.12723865875E+02  0.00000000000E+00 0. -1.
         21   -1    0    0  501  503 -0.00000000000E+00 -0.00000000000E+00 -0.59901837129E+02  0.59901837129E+02  0.00000000000E+00 0. -1.
          1    1    1    2  501    0  0.19084022375E+02 -0.17171699084E+02 -0.10232465867E+02  0.27636398411E+02  0.00000000000E+00 0.  1.
         -1    1    1    2    0  502 -0.19084022375E+02  0.17171699084E+02 -0.36945505387E+02  0.44989304593E+02  0.00000000000E+00 0. -1.
<mgrwt>
<rscale>  2 0.25672303E+02</rscale>
<asrwt>0</asrwt>
<pdfrwt beam="1">  1       21 0.19575178E-02 0.25672303E+02</pdfrwt>
<pdfrwt beam="2">  1       21 0.92156672E-02 0.25672303E+02</pdfrwt>
<totfact> 0.84916995E+07</totfact>
</mgrwt>
</event>
<event>
 4    1  0.3862688E+004  0.2070334E+02  0.7546771E-02  0.1731693E+00
         21   -1    0    0  501  502  0.00000000000E+00  0.00000000000E+00  0.67110082281E+02  0.67110082281E+02  0.00000000000E+00 0. -1.
         21   -1    0    0  502  503 -0.00000000000E+00 -0.00000000000E+00 -0.64929236903E+01  0.64929236903E+01  0.00000000000E+00 0. -1.
          5    1    1    2  501    0 -0.19625366982E+02  0.65934168442E+01  0.25606805934E+02  0.32929267909E+02  0.00000000000E+00 0.  1.
         -5    1    1    2    0  503  0.19625366982E+02 -0.65934168442E+01  0.35010352656E+02  0.40673738062E+02  0.00000000000E+00 0. -1.
<mgrwt>
<rscale>  2 0.20703337E+02</rscale>
<asrwt>0</asrwt>
<pdfrwt beam="1">  1       21 0.10324628E-01 0.20703337E+02</pdfrwt>
<pdfrwt beam="2">  1       21 0.99891138E-03 0.20703337E+02</pdfrwt>
<totfact> 0.18354203E+08</totfact>
</mgrwt>
</event>
<event>
 4    1  0.3862688E+004  0.2466511E+02  0.7546771E-02  0.1665859E+00
         21   -1    0    0  501  502  0.00000000000E+00  0.00000000000E+00  0.55630086884E+01  0.55630086884E+01  0.00000000000E+00 0. -1.
         21   -1    0    0  502  503 -0.00000000000E+00 -0.00000000000E+00 -0.13869929428E+03  0.13869929428E+03  0.00000000000E+00 0. -1.
          4    1    1    2  501    0  0.86242635248E+01  0.23108213431E+02 -0.99743438529E+02  0.10274785146E+03  0.00000000000E+00 0. -1.
         -4    1    1    2    0  503 -0.86242635248E+01 -0.23108213431E+02 -0.33392847060E+02  0.41514451509E+02  0.00000000000E+00 0.  1.
<mgrwt>
<rscale>  2 0.24665106E+02</rscale>
<asrwt>0</asrwt>
<pdfrwt beam="1">  1       21 0.85584741E-03 0.24665106E+02</pdfrwt>
<pdfrwt beam="2">  1       21 0.21338355E-01 0.24665106E+02</pdfrwt>
<totfact> 0.70710865E+07</totfact>
</mgrwt>
</event>
<event>
 4    1  0.3862688E+004  0.3115653E+02  0.7546771E-02  0.1585646E+00
         21   -1    0    0  501  502  0.00000000000E+00  0.00000000000E+00  0.56550227926E+01  0.56550227926E+01  0.00000000000E+00 0.  1.
         21   -1    0    0  502  503 -0.00000000000E+00 -0.00000000000E+00 -0.17172936597E+03  0.17172936597E+03  0.00000000000E+00 0.  1.
          5    1    1    2  501    0 -0.29403434756E+02 -0.10303744655E+02 -0.81227397666E+02  0.86997811817E+02  0.00000000000E+00 0.  1.
         -5    1    1    2    0  503  0.29403434756E+02  0.10303744655E+02 -0.84846945516E+02  0.90386576950E+02  0.00000000000E+00 0. -1.
<mgrwt>
<rscale>  2 0.31156526E+02</rscale>
<asrwt>0</asrwt>
<pdfrwt beam="1">  1       21 0.87000359E-03 0.31156526E+02</pdfrwt>
<pdfrwt beam="2">  1       21 0.26419900E-01 0.31156526E+02</pdfrwt>
<totfact> 0.49660944E+07</totfact>
</mgrwt>
</event>
<event>
 4    1  0.3862688E+004  0.4876622E+02  0.7546771E-02  0.1452112E+00
         21   -1    0    0  503  502  0.00000000000E+00  0.00000000000E+00  0.57937931622E+02  0.57937931622E+02  0.00000000000E+00 0. -1.
         21   -1    0    0  501  503 -0.00000000000E+00 -0.00000000000E+00 -0.54510840645E+02  0.54510840645E+02  0.00000000000E+00 0. -1.
          1    1    1    2  501    0  0.44537565614E+02 -0.19863263086E+02 -0.26229730112E+02  0.55372761472E+02  0.00000000000E+00 0. -1.
         -1    1    1    2    0  502 -0.44537565614E+02  0.19863263086E+02  0.29656821089E+02  0.57076010796E+02  0.00000000000E+00 0.  1.
<mgrwt>
<rscale>  2 0.48766218E+02</rscale>
<asrwt>0</asrwt>
<pdfrwt beam="1">  1       21 0.89135280E-02 0.48766218E+02</pdfrwt>
<pdfrwt beam="2">  1       21 0.83862831E-02 0.48766218E+02</pdfrwt>
<totfact> 0.98050808E+06</totfact>
</mgrwt>
</event>
<event>
 4    1  0.3862688E+004  0.2423969E+02  0.7546771E-02  0.1672169E+00
         21   -1    0    0  501  502  0.00000000000E+00  0.00000000000E+00  0.31086276121E+02  0.31086276121E+02  0.00000000000E+00 0.  1.
         21   -1    0    0  502  503 -0.00000000000E+00 -0.00000000000E+00 -0.19827851499E+02  0.19827851499E+02  0.00000000000E+00 0.  1.
          2    1    1    2  501    0 -0.32544049638E+01  0.24020226414E+02  0.11133106886E+02  0.26674116622E+02  0.00000000000E+00 0.  1.
         -2    1    1    2    0  503  0.32544049638E+01 -0.24020226414E+02  0.12531773605E+00  0.24240010998E+02  0.00000000000E+00 0. -1.
<mgrwt>
<rscale>  2 0.24239687E+02</rscale>
<asrwt>0</asrwt>
<pdfrwt beam="1">  1       21 0.47825040E-02 0.24239687E+02</pdfrwt>
<pdfrwt beam="2">  1       21 0.30504387E-02 0.24239687E+02</pdfrwt>
<totfact> 0.12173313E+08</totfact>
</mgrwt>
</event>
<event>
 4    1  0.3862688E+004  0.2144263E+02  0.7546771E-02  0.1718074E+00
         21   -1    0    0  501  502  0.00000000000E+00  0.00000000000E+00  0.63581395941E+02  0.63581395941E+02  0.00000000000E+00 0. -1.
         21   -1    0    0  502  503 -0.00000000000E+00 -0.00000000000E+00 -0.72896545260E+01  0.72896545260E+01  0.00000000000E+00 0. -1.
          2    1    1    2  501    0  0.19180587039E+02  0.95860034138E+01  0.24979782587E+02  0.32920752098E+02  0.00000000000E+00 0.  1.
         -2    1    1    2    0  503 -0.19180587039E+02 -0.95860034138E+01  0.31311958829E+02  0.37950298369E+02  0.00000000000E+00 0. -1.
<mgrwt>
<rscale>  2 0.21442630E+02</rscale>
<asrwt>0</asrwt>
<pdfrwt beam="1">  1       21 0.97817529E-02 0.21442630E+02</pdfrwt>
<pdfrwt beam="2">  1       21 0.11214854E-02 0.21442630E+02</pdfrwt>
<totfact> 0.17051868E+08</totfact>
</mgrwt>
</event>
<event>
 4    1  0.3862688E+004  0.2662484E+02  0.7546771E-02  0.1638704E+00
         21   -1    0    0  501  502  0.00000000000E+00  0.00000000000E+00  0.67146244312E+01  0.67146244312E+01  0.00000000000E+00 0.  1.
         21   -1    0    0  502  503 -0.00000000000E+00 -0.00000000000E+00 -0.12071015955E+03  0.12071015955E+03  0.00000000000E+00 0.  1.
          4    1    1    2  501    0 -0.12441165148E+02 -0.23539323224E+02 -0.79559670388E+02  0.83896504578E+02  0.00000000000E+00 0.  1.
         -4    1    1    2    0  503  0.12441165148E+02  0.23539323224E+02 -0.34435864731E+02  0.43528279404E+02  0.00000000000E+00 0. -1.
<mgrwt>
<rscale>  2 0.26624844E+02</rscale>
<asrwt>0</asrwt>
<pdfrwt beam="1">  1       21 0.10330191E-02 0.26624844E+02</pdfrwt>
<pdfrwt beam="2">  1       21 0.18570794E-01 0.26624844E+02</pdfrwt>
<totfact> 0.69228664E+07</totfact>
</mgrwt>
</event>
<event>
 4    1  0.3862688E+004  0.2228988E+02  0.7546771E-02  0.1703286E+00
         21   -1    0    0  501  502  0.00000000000E+00  0.00000000000E+00  0.22764725447E+01  0.22764725447E+01  0.00000000000E+00 0. -1.
         21   -1    0    0  502  503 -0.00000000000E+00 -0.00000000000E+00 -0.25937788716E+03  0.25937788716E+03  0.00000000000E+00 0. -1.
          1    1    1    2  501    0  0.16707569211E+02  0.14754528120E+02 -0.18064647050E+03  0.18201644506E+03  0.00000000000E+00 0. -1.
         -1    1    1    2    0  503 -0.16707569211E+02 -0.14754528120E+02 -0.76454944118E+02  0.79637914645E+02  0.00000000000E+00 0.  1.
<mgrwt>
<rscale>  2 0.22289885E+02</rscale>
<asrwt>0</asrwt>
<pdfrwt beam="1">  1       21 0.35022668E-03 0.22289885E+02</pdfrwt>
<pdfrwt beam="2">  1       21 0.39904275E-01 0.22289885E+02</pdfrwt>
<totfact> 0.82860015E+07</totfact>
</mgrwt>
</event>
<event>
 4    1  0.3862688E+004  0.4617716E+02  0.7546771E-02  0.1467124E+00
         21   -1    0    0  503  502  0.00000000000E+00  0.00000000000E+00  0.70220107922E+02  0.70220107922E+02  0.00000000000E+00 0.  1.
         21   -1    0    0  501  503 -0.00000000000E+00 -0.00000000000E+00 -0.30479759203E+02  0.30479759203E+02  0.00000000000E+00 0.  1.
          1    1    1    2  501    0  0.16292426629E+02  0.43207489279E+02  0.22941068854E+02  0.51561836036E+02  0.00000000000E+00 0.  1.
         -1    1    1    2    0  502 -0.16292426629E+02 -0.43207489279E+02  0.16799279865E+02  0.49138031088E+02  0.00000000000E+00 0. -1.
<mgrwt>
<rscale>  2 0.46177162E+02</rscale>
<asrwt>0</asrwt>
<pdfrwt beam="1">  1       21 0.10803093E-01 0.46177162E+02</pdfrwt>
<pdfrwt beam="2">  1       21 0.46891938E-02 0.46177162E+02</pdfrwt>
<totfact> 0.18363048E+07</totfact>
</mgrwt>
</event>
<event>
 4    1  0.3862688E+004  0.2141611E+02  0.7546771E-02  0.1718550E+00
         21   -1    0    0  503  502  0.00000000000E+00  0.00000000000E+00  0.74173482192E+02  0.74173482192E+02  0.00000000000E+00 0. -1.
         21   -1    0    0  501  503 -0.00000000000E+00 -0.00000000000E+00 -0.71575937710E+01  0.71575937710E+01  0.00000000000E+00 0. -1.
          1    1    1    2  501    0  0.14318917659E+01  0.21368188942E+02  0.48509943333E+02  0.53027015896E+02  0.00000000000E+00 0. -1.
         -1    1    1    2    0  502 -0.14318917659E+01 -0.21368188942E+02  0.18505945089E+02  0.28304060067E+02  0.00000000000E+00 0.  1.
<mgrwt>
<rscale>  2 0.21416111E+02</rscale>
<asrwt>0</asrwt>
<pdfrwt beam="1">  1       21 0.11411304E-01 0.21416111E+02</pdfrwt>
<pdfrwt beam="2">  1       21 0.11011683E-02 0.21416111E+02</pdfrwt>
<totfact> 0.13576189E+08</totfact>
</mgrwt>
</event>
<event>
 4    1  0.3862688E+004  0.2198821E+02  0.7546771E-02  0.1708456E+00
         21   -1    0    0  501  502  0.00000000000E+00  0.00000000000E+00  0.39928186202E+02  0.39928186202E+02  0.00000000000E+00 0.  1.
         21   -1    0    0  502  503 -0.00000000000E+00 -0.00000000000E+00 -0.14051887923E+02  0.14051887923E+02  0.00000000000E+00 0.  1.
          3    1    1    2  501    0  0.19760750627E+02  0.96433461453E+01  0.29015806227E+01  0.22178831357E+02  0.00000000000E+00 0.  1.
         -3    1    1    2    0  503 -0.19760750627E+02 -0.96433461453E+01  0.22974717657E+02  0.31801242769E+02  0.00000000000E+00 0. -1.
<mgrwt>
<rscale>  2 0.21988210E+02</rscale>
<asrwt>0</asrwt>
<pdfrwt beam="1">  1       21 0.61427978E-02 0.21988210E+02</pdfrwt>
<pdfrwt beam="2">  1       21 0.21618289E-02 0.21988210E+02</pdfrwt>
<totfact> 0.13507679E+08</totfact>
</mgrwt>
</event>
<event>
 4    1  0.3862688E+004  0.3022987E+02  0.7546771E-02  0.1595562E+00
         21   -1    0    0  503  502  0.00000000000E+00  0.00000000000E+00  0.18050384897E+02  0.18050384897E+02  0.00000000000E+00 0.  1.
         21   -1    0    0  501  503 -0.00000000000E+00 -0.00000000000E+00 -0.65602606913E+02  0.65602606913E+02  0.00000000000E+00 0.  1.
          4    1    1    2  501    0  0.29498906496E+02 -0.66075570132E+01 -0.43759831880E+02  0.53186165309E+02  0.00000000000E+00 0. -1.
         -4    1    1    2    0  502 -0.29498906496E+02  0.66075570132E+01 -0.37923901366E+01  0.30466826501E+02  0.00000000000E+00 0.  1.
<mgrwt>
<rscale>  2 0.30229874E+02</rscale>
<asrwt>0</asrwt>
<pdfrwt beam="1">  1       21 0.27769823E-02 0.30229874E+02</pdfrwt>
<pdfrwt beam="2">  1       21 0.10092709E-01 0.30229874E+02</pdfrwt>
<totfact> 0.44088518E+07</totfact>
</mgrwt>
</event>
<event>
 4    1  0.3862688E+004  0.2201780E+02  0.7546771E-02  0.1707944E+00
         21   -1    0    0  501  502  0.00000000000E+00  0.00000000000E+00  0.38575516875E+02  0.38575516875E+02  0.00000000000E+00 0.  1.
         21   -1    0    0  502  503 -0.00000000000E+00 -0.00000000000E+00 -0.14749240169E+02  0.14749240169E+02  0.00000000000E+00 0.  1.
          5    1    1    2  501    0  0.16624189095E+02 -0.14436747764E+02  0.22168544942E+02  0.31244643283E+02  0.00000000000E+00 0.  1.
         -5    1    1    2    0  503 -0.16624189095E+02  0.14436747764E+02  0.16577317641E+01  0.22080113760E+02  0.00000000000E+00 0. -1.
<mgrwt>
<rscale>  2 0.22017796E+02</rscale>
<asrwt>0</asrwt>
<pdfrwt beam="1">  1       21 0.59346949E-02 0.22017796E+02</pdfrwt>
<pdfrwt beam="2">  1       21 0.22691139E-02 0.22017796E+02</pdfrwt>
<totfact> 0.13256392E+08</totfact>
</mgrwt>
</event>
<event>
 4    1  0.3862688E+004  0.1128660E+03  0.7546771E-02  0.1255353E+00
         21   -1    0    0  503  502  0.00000000000E+00  0.00000000000E+00  0.92368606222E+02  0.92368606222E+02  0.00000000000E+00 0.  1.
         21   -1    0    0  501  503 -0.00000000000E+00 -0.00000000000E+00 -0.14591342148E+03  0.14591342148E+03  0.00000000000E+00 0.  1.
          1    1    1    2  501    0 -0.10739713917E+03 -0.34707169097E+02  0.11272611053E+01  0.11287162533E+03  0.00000000000E+00 0. -1.
         -1    1    1    2    0  502  0.10739713917E+03  0.34707169097E+02 -0.54672076366E+02  0.12541040237E+03  0.00000000000E+00 0.  1.
<mgrwt>
<rscale>  2 0.11286600E+03</rscale>
<asrwt>0</asrwt>
<pdfrwt beam="1">  1       21 0.14210555E-01 0.11286600E+03</pdfrwt>
<pdfrwt beam="2">  1       21 0.22448219E-01 0.11286600E+03</pdfrwt>
<totfact> 0.80621597E+05</totfact>
</mgrwt>
</event>
<event>
 4    1  0.3862688E+004  0.2331839E+02  0.7546771E-02  0.1686401E+00
         21   -1    0    0  501  502  0.00000000000E+00  0.00000000000E+00  0.22514203457E+03  0.22514203457E+03  0.00000000000E+00 0. -1.
         21   -1    0    0  502  503 -0.00000000000E+00 -0.00000000000E+00 -0.24381573937E+01  0.24381573937E+01  0.00000000000E+00 0. -1.
          1    1    1    2  501    0  0.12193682603E+02  0.19876150410E+02  0.12241046613E+03  0.12461167468E+03  0.00000000000E+00 0.  1.
         -1    1    1    2    0  503 -0.12193682603E+02 -0.19876150410E+02  0.10029341105E+03  0.10296851728E+03  0.00000000000E+00 0. -1.
<mgrwt>
<rscale>  2 0.23318389E+02</rscale>
<asrwt>0</asrwt>
<pdfrwt beam="1">  1       21 0.34637220E-01 0.23318389E+02</pdfrwt>
<pdfrwt beam="2">  1       21 0.37510132E-03 0.23318389E+02</pdfrwt>
<totfact> 0.98759435E+07</totfact>
</mgrwt>
</event>
<event>
 4    1  0.3862688E+004  0.2117644E+02  0.7546771E-02  0.1722897E+00
         21   -1    0    0  501  502  0.00000000000E+00  0.00000000000E+00  0.23470109358E+02  0.23470109358E+02  0.00000000000E+00 0. -1.
         21   -1    0    0  502  503 -0.00000000000E+00 -0.00000000000E+00 -0.29374894455E+02  0.29374894455E+02  0.00000000000E+00 0. -1.
          3    1    1    2  501    0 -0.20454067119E+02  0.54838806920E+01  0.12669293067E+02  0.24676968938E+02  0.00000000000E+00 0.  1.
         -3    1    1    2    0  503  0.20454067119E+02 -0.54838806920E+01 -0.18574078163E+02  0.28168034875E+02  0.00000000000E+00 0. -1.
<mgrwt>
<rscale>  2 0.21176445E+02</rscale>
<asrwt>0</asrwt>
<pdfrwt beam="1">  1       21 0.36107861E-02 0.21176445E+02</pdfrwt>
<pdfrwt beam="2">  1       21 0.45192145E-02 0.21176445E+02</pdfrwt>
<totfact> 0.98345996E+07</totfact>
</mgrwt>
</event>
<event>
 4    1  0.3862688E+004  0.2270258E+02  0.7546771E-02  0.1696377E+00
         21   -1    0    0  503  502  0.00000000000E+00  0.00000000000E+00  0.51511027599E+02  0.51511027599E+02  0.00000000000E+00 0.  1.
         21   -1    0    0  501  503 -0.00000000000E+00 -0.00000000000E+00 -0.30816797267E+02  0.30816797267E+02  0.00000000000E+00 0.  1.
          3    1    1    2  501    0  0.20460277593E+02  0.98378914139E+01  0.44174602556E+02  0.49666916329E+02  0.00000000000E+00 0.  1.
         -3    1    1    2    0  502 -0.20460277593E+02 -0.98378914139E+01 -0.23480372224E+02  0.32660908537E+02  0.00000000000E+00 0. -1.
<mgrwt>
<rscale>  2 0.22702578E+02</rscale>
<asrwt>0</asrwt>
<pdfrwt beam="1">  1       21 0.79247734E-02 0.22702578E+02</pdfrwt>
<pdfrwt beam="2">  1       21 0.47410458E-02 0.22702578E+02</pdfrwt>
<totfact> 0.26503371E+07</totfact>
</mgrwt>
</event>
<event>
 4    1  0.3862688E+004  0.2920467E+02  0.7546771E-02  0.1607050E+00
         21   -1    0    0  501  502  0.00000000000E+00  0.00000000000E+00  0.83333961698E+02  0.83333961698E+02  0.00000000000E+00 0.  1.
         21   -1    0    0  502  503 -0.00000000000E+00 -0.00000000000E+00 -0.10241434282E+02  0.10241434282E+02  0.00000000000E+00 0.  1.
          2    1    1    2  501    0  0.15558698887E+02  0.24715171736E+02  0.37730183578E+02  0.47712467740E+02  0.00000000000E+00 0. -1.
         -2    1    1    2    0  503 -0.15558698887E+02 -0.24715171736E+02  0.35362343838E+02  0.45862928239E+02  0.00000000000E+00 0.  1.
<mgrwt>
<rscale>  2 0.29204671E+02</rscale>
<asrwt>0</asrwt>
<pdfrwt beam="1">  1       21 0.12820609E-01 0.29204671E+02</pdfrwt>
<pdfrwt beam="2">  1       21 0.15756053E-02 0.29204671E+02</pdfrwt>
<totfact> 0.70409455E+07</totfact>
</mgrwt>
</event>
<event>
 4    1  0.3862688E+004  0.2083620E+02  0.7546771E-02  0.1729193E+00
         21   -1    0    0  503  502  0.00000000000E+00  0.00000000000E+00  0.82755144471E+02  0.82755144471E+02  0.00000000000E+00 0.  1.
         21   -1    0    0  501  503 -0.00000000000E+00 -0.00000000000E+00 -0.52963284789E+01  0.52963284789E+01  0.00000000000E+00 0.  1.
          2    1    1    2  501    0  0.12481853552E+02  0.16683839240E+02  0.34444790196E+02  0.40256561348E+02  0.00000000000E+00 0. -1.
         -2    1    1    2    0  502 -0.12481853552E+02 -0.16683839240E+02  0.43014025797E+02  0.47794911603E+02  0.00000000000E+00 0.  1.
<mgrwt>
<rscale>  2 0.20836198E+02</rscale>
<asrwt>0</asrwt>
<pdfrwt beam="1">  1       21 0.12731560E-01 0.20836198E+02</pdfrwt>
<pdfrwt beam="2">  1       21 0.81481983E-03 0.20836198E+02</pdfrwt>
<totfact> 0.17593503E+08</totfact>
</mgrwt>
</event>
<event>
 4    1  0.3862688E+004  0.2781845E+02  0.7546771E-02  0.1623535E+00
         21   -1    0    0  503  502  0.00000000000E+00  0.00000000000E+00  0.91238915865E+01  0.91238915865E+01  0.00000000000E+00 0. -1.
         21   -1    0    0  501  503 -0.00000000000E+00 -0.00000000000E+00 -0.87051162585E+02  0.87051162585E+02  0.00000000000E+00 0. -1.
          1    1    1    2  501    0 -0.26578399225E+02 -0.82130876206E+01 -0.31260824119E+02  0.41846209365E+02  0.00000000000E+00 0.  1.
         -1    1    1    2    0  502  0.26578399225E+02  0.82130876206E+01 -0.46666446880E+02  0.54328844806E+02  0.00000000000E+00 0. -1.
<mgrwt>
<rscale>  2 0.27818449E+02</rscale>
<asrwt>0</asrwt>
<pdfrwt beam="1">  1       21 0.14036756E-02 0.27818449E+02</pdfrwt>
<pdfrwt beam="2">  1       21 0.13392487E-01 0.27818449E+02</pdfrwt>
<totfact> 0.77107835E+07</totfact>
</mgrwt>
</event>
<event>
 4    1  0.3862688E+004  0.2512946E+02  0.7546771E-02  0.1659149E+00
         21   -1    0    0  501  502  0.00000000000E+00  0.00000000000E+00  0.10905180898E+04  0.10905180898E+04  0.00000000000E+00 0. -1.
         21   -1    0    0  502  503 -0.00000000000E+00 -0.00000000000E+00 -0.63805344236E+00  0.63805344236E+00  0.00000000000E+00 0. -1.
          2    1    1    2  501    0 -0.16929992291E+02  0.18570543088E+02  0.37906462706E+03  0.37989667174E+03  0.00000000000E+00 0.  1.
         -2    1    1    2    0  503  0.16929992291E+02 -0.18570543088E+02  0.71081540934E+03  0.71125947155E+03  0.00000000000E+00 0. -1.
<mgrwt>
<rscale>  2 0.25129459E+02</rscale>
<asrwt>0</asrwt>
<pdfrwt beam="1">  1       21 0.16777052E+00 0.25129459E+02</pdfrwt>
<pdfrwt beam="2">  1       21 0.98162941E-04 0.25129459E+02</pdfrwt>
<totfact> 0.25140215E+07</totfact>
</mgrwt>
</event>
<event>
 4    1  0.3862688E+004  0.3662182E+02  0.7546771E-02  0.1534653E+00
         21   -1    0    0  503  502  0.00000000000E+00  0.00000000000E+00  0.75468136740E+01  0.75468136740E+01  0.00000000000E+00 0. -1.
         21   -1    0    0  501  503 -0.00000000000E+00 -0.00000000000E+00 -0.18324159194E+03  0.18324159194E+03  0.00000000000E+00 0. -1.
          5    1    1    2  501    0 -0.21205183532E+02  0.29857962254E+02 -0.10441901020E+03  0.11065481196E+03  0.00000000000E+00 0.  1.
         -5    1    1    2    0  502  0.21205183532E+02 -0.29857962254E+02 -0.71275768063E+02  0.80133593651E+02  0.00000000000E+00 0. -1.
<mgrwt>
<rscale>  2 0.36621820E+02</rscale>
<asrwt>0</asrwt>
<pdfrwt beam="1">  1       21 0.11610483E-02 0.36621820E+02</pdfrwt>
<pdfrwt beam="2">  1       21 0.28191013E-01 0.36621820E+02</pdfrwt>
<totfact> 0.29320871E+07</totfact>
</mgrwt>
</event>
<event>
 4    1  0.3862688E+004  0.2156792E+02  0.7546771E-02  0.1715834E+00
         21   -1    0    0  501  502  0.00000000000E+00  0.00000000000E+00  0.47092280842E+01  0.47092280842E+01  0.00000000000E+00 0.  1.
         21   -1    0    0  502  503 -0.00000000000E+00 -0.00000000000E+00 -0.10079554833E+03  0.10079554833E+03  0.00000000000E+00 0.  1.
          1    1    1    2  501    0  0.20907670496E+02  0.52956955161E+01 -0.40582544926E+02  0.45957785295E+02  0.00000000000E+00 0. -1.
         -1    1    1    2    0  503 -0.20907670496E+02 -0.52956955161E+01 -0.55503775319E+02  0.59546991119E+02  0.00000000000E+00 0.  1.
<mgrwt>
<rscale>  2 0.21567918E+02</rscale>
<asrwt>0</asrwt>
<pdfrwt beam="1">  1       21 0.72449660E-03 0.21567918E+02</pdfrwt>
<pdfrwt beam="2">  1       21 0.15507008E-01 0.21567918E+02</pdfrwt>
<totfact> 0.15177177E+08</totfact>
</mgrwt>
</event>
<event>
 4    1  0.3862688E+004  0.2085042E+02  0.7546771E-02  0.1728927E+00
         21   -1    0    0  503  502  0.00000000000E+00  0.00000000000E+00  0.40300836474E+01  0.40300836474E+01  0.00000000000E+00 0. -1.
         21   -1    0    0  501  503 -0.00000000000E+00 -0.00000000000E+00 -0.13666765049E+03  0.13666765049E+03  0.00000000000E+00 0. -1.
          2    1    1    2  501    0  0.12410172343E+02  0.16754926923E+02 -0.98609302105E+02  0.10078955509E+03  0.00000000000E+00 0.  1.
         -2    1    1    2    0  502 -0.12410172343E+02 -0.16754926923E+02 -0.34028264741E+02  0.39908179050E+02  0.00000000000E+00 0. -1.
<mgrwt>
<rscale>  2 0.20850419E+02</rscale>
<asrwt>0</asrwt>
<pdfrwt beam="1">  1       21 0.62001294E-03 0.20850419E+02</pdfrwt>
<pdfrwt beam="2">  1       21 0.21025790E-01 0.20850419E+02</pdfrwt>
<totfact> 0.11200989E+08</totfact>
</mgrwt>
</event>
<event>
 4    1  0.3862688E+004  0.2141605E+02  0.7546771E-02  0.1718551E+00
         21   -1    0    0  503  502  0.00000000000E+00  0.00000000000E+00  0.39355772236E+03  0.39355772236E+03  0.00000000000E+00 0. -1.
         21   -1    0    0  501  503 -0.00000000000E+00 -0.00000000000E+00 -0.11900235279E+01  0.11900235279E+01  0.00000000000E+00 0. -1.
          3    1    1    2  501    0 -0.18446186202E+02 -0.10880513383E+02  0.16778538594E+03  0.16914663192E+03  0.00000000000E+00 0.  1.
         -3    1    1    2    0  502  0.18446186202E+02  0.10880513383E+02  0.22458231290E+03  0.22560111397E+03  0.00000000000E+00 0. -1.
<mgrwt>
<rscale>  2 0.21416054E+02</rscale>
<asrwt>0</asrwt>
<pdfrwt beam="1">  1       21 0.60547238E-01 0.21416054E+02</pdfrwt>
<pdfrwt beam="2">  1       21 0.18308086E-03 0.21416054E+02</pdfrwt>
<totfact> 0.93650334E+07</totfact>
</mgrwt>
</event>
<event>
 4    1  0.3862688E+004  0.2824008E+02  0.7546771E-02  0.1618399E+00
         21   -1    0    0  503  502  0.00000000000E+00  0.00000000000E+00  0.91444564236E+01  0.91444564236E+01  0.00000000000E+00 0. -1.
         21   -1    0    0  501  503 -0.00000000000E+00 -0.00000000000E+00 -0.14527593468E+03  0.14527593468E+03  0.00000000000E+00 0. -1.
          1    1    1    2  501    0  0.29531015794E+01  0.28085247690E+02 -0.19253038248E+02  0.34178669204E+02  0.00000000000E+00 0.  1.
         -1    1    1    2    0  502 -0.29531015794E+01 -0.28085247690E+02 -0.11687844001E+03  0.12024172190E+03  0.00000000000E+00 0. -1.
<mgrwt>
<rscale>  2 0.28240077E+02</rscale>
<asrwt>0</asrwt>
<pdfrwt beam="1">  1       21 0.14068395E-02 0.28240077E+02</pdfrwt>
<pdfrwt beam="2">  1       21 0.22350142E-01 0.28240077E+02</pdfrwt>
<totfact> 0.31665453E+07</totfact>
</mgrwt>
</event>
<event>
 4    1  0.3862688E+004  0.2152258E+02  0.7546771E-02  0.1716642E+00
         21   -1    0    0  503  502  0.00000000000E+00  0.00000000000E+00  0.10553815068E+02  0.10553815068E+02  0.00000000000E+00 0.  1.
         21   -1    0    0  501  503 -0.00000000000E+00 -0.00000000000E+00 -0.43937049296E+02  0.43937049296E+02  0.00000000000E+00 0.  1.
          1    1    1    2  501    0 -0.20622304512E+02  0.61597132076E+01 -0.17570010920E+02  0.27783570575E+02  0.00000000000E+00 0.  1.
         -1    1    1    2    0  502  0.20622304512E+02 -0.61597132076E+01 -0.15813223307E+02  0.26707293789E+02  0.00000000000E+00 0. -1.
<mgrwt>
<rscale>  2 0.21522581E+02</rscale>
<asrwt>0</asrwt>
<pdfrwt beam="1">  1       21 0.16236639E-02 0.21522581E+02</pdfrwt>
<pdfrwt beam="2">  1       21 0.67595460E-02 0.21522581E+02</pdfrwt>
<totfact> 0.17816570E+08</totfact>
</mgrwt>
</event>
<event>
 4    1  0.3862688E+004  0.4401050E+02  0.7546771E-02  0.1480615E+00
         21   -1    0    0  503  502  0.00000000000E+00  0.00000000000E+00  0.17179670063E+02  0.17179670063E+02  0.00000000000E+00 0.  1.
         21   -1    0    0  501  503 -0.00000000000E+00 -0.00000000000E+00 -0.11409993605E+03  0.11409993605E+03  0.00000000000E+00 0.  1.
          3    1    1    2  501    0 -0.23539830302E+02  0.37186024882E+02 -0.41307534368E+02  0.60359228397E+02  0.00000000000E+00 0.  1.
         -3    1    1    2    0  502  0.23539830302E+02 -0.37186024882E+02 -0.55612731619E+02  0.70920377715E+02  0.00000000000E+00 0. -1.
<mgrwt>
<rscale>  2 0.44010499E+02</rscale>
<asrwt>0</asrwt>
<pdfrwt beam="1">  1       21 0.26430261E-02 0.44010499E+02</pdfrwt>
<pdfrwt beam="2">  1       21 0.17553837E-01 0.44010499E+02</pdfrwt>
<totfact> 0.19705694E+07</totfact>
</mgrwt>
</event>
<event>
 4    1  0.3862688E+004  0.2218353E+02  0.7546771E-02  0.1705097E+00
         21   -1    0    0  501  502  0.00000000000E+00  0.00000000000E+00  0.17327775032E+01  0.17327775032E+01  0.00000000000E+00 0.  1.
         21   -1    0    0  502  503 -0.00000000000E+00 -0.00000000000E+00 -0.28828619742E+03  0.28828619742E+03  0.00000000000E+00 0.  1.
          5    1    1    2  501    0  0.22177257382E+02 -0.52738981590E+00 -0.12559523819E+03  0.12753929881E+03  0.00000000000E+00 0.  1.
         -5    1    1    2    0  503 -0.22177257382E+02  0.52738981590E+00 -0.16095818173E+03  0.16247967612E+03  0.00000000000E+00 0. -1.
<mgrwt>
<rscale>  2 0.22183527E+02</rscale>
<asrwt>0</asrwt>
<pdfrwt beam="1">  1       21 0.26658092E-03 0.22183527E+02</pdfrwt>
<pdfrwt beam="2">  1       21 0.44351762E-01 0.22183527E+02</pdfrwt>
<totfact> 0.10079371E+08</totfact>
</mgrwt>
</event>
<event>
 4    1  0.3862688E+004  0.2391307E+02  0.7546771E-02  0.1677123E+00
         21   -1    0    0  503  502  0.00000000000E+00  0.00000000000E+00  0.65725394765E+01  0.65725394765E+01  0.00000000000E+00 0.  1.
         21   -1    0    0  501  503 -0.00000000000E+00 -0.00000000000E+00 -0.10949314818E+03  0.10949314818E+03  0.00000000000E+00 0.  1.
          5    1    1    2  501    0  0.96218072796E+01  0.21891912592E+02 -0.77761175576E+02  0.81354996400E+02  0.00000000000E+00 0.  1.
         -5    1    1    2    0  502 -0.96218072796E+01 -0.21891912592E+02 -0.25159433129E+02  0.34710691258E+02  0.00000000000E+00 0. -1.
<mgrwt>
<rscale>  2 0.23913072E+02</rscale>
<asrwt>0</asrwt>
<pdfrwt beam="1">  1       21 0.10111600E-02 0.23913072E+02</pdfrwt>
<pdfrwt beam="2">  1       21 0.16845099E-01 0.23913072E+02</pdfrwt>
<totfact> 0.82409095E+07</totfact>
</mgrwt>
</event>
<event>
 4    1  0.3862688E+004  0.2076029E+02  0.7546771E-02  0.1730618E+00
         21   -1    0    0  501  502  0.00000000000E+00  0.00000000000E+00  0.74234143473E+01  0.74234143473E+01  0.00000000000E+00 0. -1.
         21   -1    0    0  502  503 -0.00000000000E+00 -0.00000000000E+00 -0.58326401202E+02  0.58326401202E+02  0.00000000000E+00 0. -1.
          4    1    1    2  501    0  0.96214660762E+01  0.18396110499E+02 -0.23221898396E+02  0.31148772947E+02  0.00000000000E+00 0. -1.
         -4    1    1    2    0  503 -0.96214660762E+01 -0.18396110499E+02 -0.27681088458E+02  0.34601042603E+02  0.00000000000E+00 0.  1.
<mgrwt>
<rscale>  2 0.20760286E+02</rscale>
<asrwt>0</asrwt>
<pdfrwt beam="1">  1       21 0.11420638E-02 0.20760286E+02</pdfrwt>
<pdfrwt beam="2">  1       21 0.89732924E-02 0.20760286E+02</pdfrwt>
<totfact> 0.18924097E+08</totfact>
</mgrwt>
</event>
<event>
 4    1  0.3862688E+004  0.2626953E+02  0.7546771E-02  0.1643409E+00
         21   -1    0    0  501  502  0.00000000000E+00  0.00000000000E+00  0.14372602935E+04  0.14372602935E+04  0.00000000000E+00 0. -1.
         21   -1    0    0  502  503 -0.00000000000E+00 -0.00000000000E+00 -0.60521259552E+00  0.60521259552E+00  0.00000000000E+00 0. -1.
          3    1    1    2  501    0 -0.89807565663E+01 -0.24686717670E+02  0.39150415494E+03  0.39238449428E+03  0.00000000000E+00 0. -1.
         -3    1    1    2    0  503  0.89807565663E+01  0.24686717670E+02  0.10451509260E+04  0.10454810118E+04  0.00000000000E+00 0.  1.
<mgrwt>
<rscale>  2 0.26269526E+02</rscale>
<asrwt>0</asrwt>
<pdfrwt beam="1">  1       21 0.22111424E+00 0.26269526E+02</pdfrwt>
<pdfrwt beam="2">  1       21 0.93110781E-04 0.26269526E+02</pdfrwt>
<totfact> 0.13408878E+07</totfact>
</mgrwt>
</event>
<event>
 4    1  0.3862688E+004  0.2667516E+02  0.7546771E-02  0.1638045E+00
         21   -1    0    0  501  502  0.00000000000E+00  0.00000000000E+00  0.19960042173E+03  0.19960042173E+03  0.00000000000E+00 0. -1.
         21   -1    0    0  502  503 -0.00000000000E+00 -0.00000000000E+00 -0.35746717402E+01  0.35746717402E+01  0.00000000000E+00 0. -1.
          2    1    1    2  501    0 -0.68649155633E+01 -0.25776680205E+02  0.10331231963E+03  0.10670051404E+03  0.00000000000E+00 0.  1.
         -2    1    1    2    0  503  0.68649155633E+01  0.25776680205E+02  0.92713430357E+02  0.96474579432E+02  0.00000000000E+00 0. -1.
<mgrwt>
<rscale>  2 0.26675163E+02</rscale>
<asrwt>0</asrwt>
<pdfrwt beam="1">  1       21 0.30707748E-01 0.26675163E+02</pdfrwt>
<pdfrwt beam="2">  1       21 0.54994965E-03 0.26675163E+02</pdfrwt>
<totfact> 0.72491605E+07</totfact>
</mgrwt>
</event>
<event>
 4    1  0.3862688E+004  0.2288714E+02  0.7546771E-02  0.1693346E+00
         21   -1    0    0  503  502  0.00000000000E+00  0.00000000000E+00  0.19918385365E+03  0.19918385365E+03  0.00000000000E+00 0. -1.
         21   -1    0    0  501  503 -0.00000000000E+00 -0.00000000000E+00 -0.27482273293E+01  0.27482273293E+01  0.00000000000E+00 0. -1.
          3    1    1    2  501    0  0.21894110860E+02  0.66685205878E+01  0.11917366753E+03  0.12135149067E+03  0.00000000000E+00 0.  1.
         -3    1    1    2    0  502 -0.21894110860E+02 -0.66685205878E+01  0.77261958793E+02  0.80580590304E+02  0.00000000000E+00 0. -1.
<mgrwt>
<rscale>  2 0.22887142E+02</rscale>
<asrwt>0</asrwt>
<pdfrwt beam="1">  1       21 0.30643659E-01 0.22887142E+02</pdfrwt>
<pdfrwt beam="2">  1       21 0.42280436E-03 0.22887142E+02</pdfrwt>
<totfact> 0.10324298E+08</totfact>
</mgrwt>
</event>
<event>
 4    1  0.3862688E+004  0.2016963E+02  0.7546771E-02  0.1741976E+00
         21   -1    0    0  503  502  0.00000000000E+00  0.00000000000E+00  0.10491113651E+02  0.10491113651E+02  0.00000000000E+00 0. -1.
         21   -1    0    0  501  503 -0.00000000000E+00 -0.00000000000E+00 -0.38926583840E+02  0.38926583840E+02  0.00000000000E+00 0. -1.
          1    1    1    2  501    0 -0.20109746553E+02  0.15530194007E+01 -0.15749495523E+02  0.25590240033E+02  0.00000000000E+00 0. -1.
         -1    1    1    2    0  502  0.20109746553E+02 -0.15530194007E+01 -0.12685974667E+02  0.23827457459E+02  0.00000000000E+00 0.  1.
<mgrwt>
<rscale>  2 0.20169625E+02</rscale>
<asrwt>0</asrwt>
<pdfrwt beam="1">  1       21 0.16140175E-02 0.20169625E+02</pdfrwt>
<pdfrwt beam="2">  1       21 0.59887051E-02 0.20169625E+02</pdfrwt>
<totfact> 0.21384783E+08</totfact>
</mgrwt>
</event>
<event>
 4    1  0.3862688E+004  0.2007458E+02  0.7546771E-02  0.1743849E+00
         21   -1    0    0  503  502  0.00000000000E+00  0.00000000000E+00  0.74913508405E+01  0.74913508405E+01  0.00000000000E+00 0.  1.
         21   -1    0    0  501  503 -0.00000000000E+00 -0.00000000000E+00 -0.71012590817E+02  0.71012590817E+02  0.00000000000E+00 0.  1.
          2    1    1    2  501    0  0.12870849174E+02 -0.15405513362E+02 -0.12432283036E+02  0.23612502237E+02  0.00000000000E+00 0.  1.
         -2    1    1    2    0  502 -0.12870849174E+02  0.15405513362E+02 -0.51088956940E+02  0.54891439420E+02  0.00000000000E+00 0. -1.
<mgrwt>
<rscale>  2 0.20074576E+02</rscale>
<asrwt>0</asrwt>
<pdfrwt beam="1">  1       21 0.11525155E-02 0.20074576E+02</pdfrwt>
<pdfrwt beam="2">  1       21 0.10925014E-01 0.20074576E+02</pdfrwt>
<totfact> 0.13362971E+08</totfact>
</mgrwt>
</event>
<event>
 4    1  0.3862688E+004  0.2460383E+02  0.7546771E-02  0.1666758E+00
         21   -1    0    0  503  502  0.00000000000E+00  0.00000000000E+00  0.52646663979E+01  0.52646663979E+01  0.00000000000E+00 0.  1.
         21   -1    0    0  501  503 -0.00000000000E+00 -0.00000000000E+00 -0.12185151506E+03  0.12185151506E+03  0.00000000000E+00 0.  1.
          2    1    1    2  501    0  0.22649054140E+02  0.96108607456E+01 -0.43203751297E+02  0.49718330863E+02  0.00000000000E+00 0. -1.
         -2    1    1    2    0  502 -0.22649054140E+02 -0.96108607456E+01 -0.73383097366E+02  0.77397850595E+02  0.00000000000E+00 0.  1.
<mgrwt>
<rscale>  2 0.24603827E+02</rscale>
<asrwt>0</asrwt>
<pdfrwt beam="1">  1       21 0.80994864E-03 0.24603827E+02</pdfrwt>
<pdfrwt beam="2">  1       21 0.18746388E-01 0.24603827E+02</pdfrwt>
<totfact> 0.96274064E+07</totfact>
</mgrwt>
</event>
<event>
 4    1  0.3862688E+004  0.2476805E+02  0.7546771E-02  0.1664356E+00
         21   -1    0    0  503  502  0.00000000000E+00  0.00000000000E+00  0.21121423234E+02  0.21121423234E+02  0.00000000000E+00 0. -1.
         21   -1    0    0  501  503 -0.00000000000E+00 -0.00000000000E+00 -0.43995735991E+02  0.43995735991E+02  0.00000000000E+00 0. -1.
          2    1    1    2  501    0 -0.22399914252E+02 -0.10568834923E+02  0.75430953931E+01  0.25891209285E+02  0.00000000000E+00 0.  1.
         -2    1    1    2    0  502  0.22399914252E+02  0.10568834923E+02 -0.30417408150E+02  0.39225949940E+02  0.00000000000E+00 0. -1.
<mgrwt>
<rscale>  2 0.24768053E+02</rscale>
<asrwt>0</asrwt>
<pdfrwt beam="1">  1       21 0.32494497E-02 0.24768053E+02</pdfrwt>
<pdfrwt beam="2">  1       21 0.67685748E-02 0.24768053E+02</pdfrwt>
<totfact> 0.63489630E+07</totfact>
</mgrwt>
</event>
<event>
 4    1  0.3862688E+004  0.2004396E+02  0.7546771E-02  0.1744455E+00
         21   -1    0    0  501  502  0.00000000000E+00  0.00000000000E+00  0.84824963664E+01  0.84824963664E+01  0.00000000000E+00 0.  1.
         21   -1    0    0  502  503 -0.00000000000E+00 -0.00000000000E+00 -0.61855218654E+02  0.61855218654E+02  0.00000000000E+00 0.  1.
          4    1    1    2  501    0 -0.17270781921E+02 -0.10172532298E+02 -0.96635715231E+01  0.22251852420E+02  0.00000000000E+00 0. -1.
         -4    1    1    2    0  503  0.17270781921E+02  0.10172532298E+02 -0.43709150764E+02  0.48085862601E+02  0.00000000000E+00 0.  1.
<mgrwt>
<rscale>  2 0.20043960E+02</rscale>
<asrwt>0</asrwt>
<pdfrwt beam="1">  1       21 0.13049994E-02 0.20043960E+02</pdfrwt>
<pdfrwt beam="2">  1       21 0.95161879E-02 0.20043960E+02</pdfrwt>
<totfact> 0.13909311E+08</totfact>
</mgrwt>
</event>
<event>
 4    1  0.3862688E+004  0.3308569E+02  0.7546771E-02  0.1566288E+00
         21   -1    0    0  503  502  0.00000000000E+00  0.00000000000E+00  0.11797335772E+02  0.11797335772E+02  0.00000000000E+00 0.  1.
         21   -1    0    0  501  503 -0.00000000000E+00 -0.00000000000E+00 -0.92788981736E+02  0.92788981736E+02  0.00000000000E+00 0.  1.
          4    1    1    2  501    0  0.30721514163E+02 -0.12282155385E+02 -0.40496374173E+02  0.52293585596E+02  0.00000000000E+00 0.  1.
         -4    1    1    2    0  502 -0.30721514163E+02  0.12282155385E+02 -0.40495271791E+02  0.52292731912E+02  0.00000000000E+00 0. -1.
<mgrwt>
<rscale>  2 0.33085688E+02</rscale>
<asrwt>0</asrwt>
<pdfrwt beam="1">  1       21 0.18149747E-02 0.33085688E+02</pdfrwt>
<pdfrwt beam="2">  1       21 0.14275228E-01 0.33085688E+02</pdfrwt>
<totfact> 0.48408919E+07</totfact>
</mgrwt>
</event>
<event>
 4    1  0.3862688E+004  0.4027012E+02  0.7546771E-02  0.1506233E+00
         21   -1    0    0  501  502  0.00000000000E+00  0.00000000000E+00  0.47894252303E+03  0.47894252303E+03  0.00000000000E+00 0. -1.
         21   -1    0    0  502  503 -0.00000000000E+00 -0.00000000000E+00 -0.35023687167E+01  0.35023687167E+01  0.00000000000E+00 0. -1.
          1    1    1    2  501    0 -0.24649855203E+02 -0.31844420423E+02  0.19374356537E+03  0.19788444001E+03  0.00000000000E+00 0. -1.
         -1    1    1    2    0  503  0.24649855203E+02  0.31844420423E+02  0.28169658894E+03  0.28456045174E+03  0.00000000000E+00 0.  1.
<mgrwt>
<rscale>  2 0.40270119E+02</rscale>
<asrwt>0</asrwt>
<pdfrwt beam="1">  1       21 0.73683413E-01 0.40270119E+02</pdfrwt>
<pdfrwt beam="2">  1       21 0.53882634E-03 0.40270119E+02</pdfrwt>
<totfact> 0.14435852E+07</totfact>
</mgrwt>
</event>
<event>
 4    1  0.3862688E+004  0.2594751E+02  0.7546771E-02  0.1647754E+00
         21   -1    0    0  503  502  0.00000000000E+00  0.00000000000E+00  0.19906097341E+01  0.19906097341E+01  0.00000000000E+00 0. -1.
         21   -1    0    0  501  503 -0.00000000000E+00 -0.00000000000E+00 -0.34077980680E+03  0.34077980680E+03  0.00000000000E+00 0. -1.
          2    1    1    2  501    0 -0.13712544363E+02  0.22028145219E+02 -0.15455388325E+03  0.15671686534E+03  0.00000000000E+00 0.  1.
         -2    1    1    2    0  502  0.13712544363E+02 -0.22028145219E+02 -0.18423531381E+03  0.18605355119E+03  0.00000000000E+00 0. -1.
<mgrwt>
<rscale>  2 0.25947506E+02</rscale>
<asrwt>0</asrwt>
<pdfrwt beam="1">  1       21 0.30624781E-03 0.25947506E+02</pdfrwt>
<pdfrwt beam="2">  1       21 0.52427635E-01 0.25947506E+02</pdfrwt>
<totfact> 0.61882072E+07</totfact>
</mgrwt>
</event>
<event>
 4    1  0.3862688E+004  0.2173989E+02  0.7546771E-02  0.1712790E+00
         21   -1    0    0  503  502  0.00000000000E+00  0.00000000000E+00  0.79959630795E+02  0.79959630795E+02  0.00000000000E+00 0.  1.
         21   -1    0    0  501  503 -0.00000000000E+00 -0.00000000000E+00 -0.68333243726E+01  0.68333243726E+01  0.00000000000E+00 0.  1.
          5    1    1    2  501    0 -0.20846251595E+02  0.61690023477E+01  0.20617768170E+02  0.29961895131E+02  0.00000000000E+00 0. -1.
         -5    1    1    2    0  502  0.20846251595E+02 -0.61690023477E+01  0.52508538253E+02  0.56831060037E+02  0.00000000000E+00 0.  1.
<mgrwt>
<rscale>  2 0.21739890E+02</rscale>
<asrwt>0</asrwt>
<pdfrwt beam="1">  1       21 0.12301481E-01 0.21739890E+02</pdfrwt>
<pdfrwt beam="2">  1       21 0.10512807E-02 0.21739890E+02</pdfrwt>
<totfact> 0.12898119E+08</totfact>
</mgrwt>
</event>
<event>
 4    1  0.3862688E+004  0.2266876E+02  0.7546771E-02  0.1696936E+00
         21   -1    0    0  503  502  0.00000000000E+00  0.00000000000E+00  0.99667103782E+01  0.99667103782E+01  0.00000000000E+00 0.  1.
         21   -1    0    0  501  503 -0.00000000000E+00 -0.00000000000E+00 -0.51872427863E+02  0.51872427863E+02  0.00000000000E+00 0.  1.
          2    1    1    2  501    0  0.63029233805E+01  0.21774892294E+02 -0.23356626616E+02  0.32548498958E+02  0.00000000000E+00 0. -1.
         -2    1    1    2    0  502 -0.63029233805E+01 -0.21774892294E+02 -0.18549090868E+02  0.29290639283E+02  0.00000000000E+00 0.  1.
<mgrwt>
<rscale>  2 0.22668762E+02</rscale>
<asrwt>0</asrwt>
<pdfrwt beam="1">  1       21 0.15333401E-02 0.22668762E+02</pdfrwt>
<pdfrwt beam="2">  1       21 0.79803735E-02 0.22668762E+02</pdfrwt>
<totfact> 0.15089050E+08</totfact>
</mgrwt>
</event>
<event>
 4    1  0.3862688E+004  0.2562367E+02  0.7546771E-02  0.1652202E+00
         21   -1    0    0  501  502  0.00000000000E+00  0.00000000000E+00  0.26997481268E+02  0.26997481268E+02  0.00000000000E+00 0.  1.
         21   -1    0    0  502  503 -0.00000000000E+00 -0.00000000000E+00 -0.24552757488E+02  0.24552757488E+02  0.00000000000E+00 0.  1.
          3    1    1    2  501    0 -0.29749706499E+01  0.25450385520E+02  0.37331815428E+01  0.25894192745E+02  0.00000000000E+00 0.  1.
         -3    1    1    2    0  503  0.29749706499E+01 -0.25450385520E+02 -0.12884577626E+01  0.25656046010E+02  0.00000000000E+00 0. -1.
<mgrwt>
<rscale>  2 0.25623672E+02</rscale>
<asrwt>0</asrwt>
<pdfrwt beam="1">  1       21 0.41534586E-02 0.25623672E+02</pdfrwt>
<pdfrwt beam="2">  1       21 0.37773473E-02 0.25623672E+02</pdfrwt>
<totfact> 0.11055886E+08</totfact>
</mgrwt>
</event>
<event>
 4    1  0.3862688E+004  0.2308727E+02  0.7546771E-02  0.1690099E+00
         21   -1    0    0  501  502  0.00000000000E+00  0.00000000000E+00  0.77914292975E+02  0.77914292975E+02  0.00000000000E+00 0.  1.
         21   -1    0    0  502  503 -0.00000000000E+00 -0.00000000000E+00 -0.86765445573E+01  0.86765445573E+01  0.00000000000E+00 0.  1.
          5    1    1    2  501    0  0.14406139861E+02 -0.18041209216E+02  0.54531805339E+02  0.59217732895E+02  0.00000000000E+00 0.  1.
         -5    1    1    2    0  503 -0.14406139861E+02  0.18041209216E+02  0.14705943079E+02  0.27373104638E+02  0.00000000000E+00 0. -1.
<mgrwt>
<rscale>  2 0.23087271E+02</rscale>
<asrwt>0</asrwt>
<pdfrwt beam="1">  1       21 0.11986814E-01 0.23087271E+02</pdfrwt>
<pdfrwt beam="2">  1       21 0.13348531E-02 0.23087271E+02</pdfrwt>
<totfact> 0.95611902E+07</totfact>
</mgrwt>
</event>
<event>
 4    1  0.3862688E+004  0.3115144E+02  0.7546771E-02  0.1585699E+00
         21   -1    0    0  503  502  0.00000000000E+00  0.00000000000E+00  0.84409170662E+03  0.84409170662E+03  0.00000000000E+00 0.  1.
         21   -1    0    0  501  503 -0.00000000000E+00 -0.00000000000E+00 -0.12764587102E+01  0.12764587102E+01  0.00000000000E+00 0.  1.
          1    1    1    2  501    0 -0.22889186388E+02 -0.21130488408E+02  0.28818368929E+03  0.28986246940E+03  0.00000000000E+00 0.  1.
         -1    1    1    2    0  502  0.22889186388E+02  0.21130488408E+02  0.55463155862E+03  0.55550569593E+03  0.00000000000E+00 0. -1.
<mgrwt>
<rscale>  2 0.31151443E+02</rscale>
<asrwt>0</asrwt>
<pdfrwt beam="1">  1       21 0.12985982E+00 0.31151443E+02</pdfrwt>
<pdfrwt beam="2">  1       21 0.19637894E-03 0.31151443E+02</pdfrwt>
<totfact> 0.17626353E+07</totfact>
</mgrwt>
</event>
<event>
 4    1  0.3862688E+004  0.2096990E+02  0.7546771E-02  0.1726701E+00
         21   -1    0    0  501  502  0.00000000000E+00  0.00000000000E+00  0.55901603958E+03  0.55901603958E+03  0.00000000000E+00 0.  1.
         21   -1    0    0  502  503 -0.00000000000E+00 -0.00000000000E+00 -0.89882908168E+00  0.89882908168E+00  0.00000000000E+00 0.  1.
          5    1    1    2  501    0  0.19125790054E+02  0.85988900030E+01  0.37797200646E+03  0.37855326497E+03  0.00000000000E+00 0.  1.
         -5    1    1    2    0  503 -0.19125790054E+02 -0.85988900030E+01  0.18014520404E+03  0.18136160369E+03  0.00000000000E+00 0. -1.
<mgrwt>
<rscale>  2 0.20969901E+02</rscale>
<asrwt>0</asrwt>
<pdfrwt beam="1">  1       21 0.86002190E-01 0.20969901E+02</pdfrwt>
<pdfrwt beam="2">  1       21 0.13828184E-03 0.20969901E+02</pdfrwt>
<totfact> 0.67730411E+07</totfact>
</mgrwt>
</event>
<event>
 4    1  0.3862688E+004  0.2252171E+02  0.7546771E-02  0.1699382E+00
         21   -1    0    0  503  502  0.00000000000E+00  0.00000000000E+00  0.53579693728E+03  0.53579693728E+03  0.00000000000E+00 0.  1.
         21   -1    0    0  501  503 -0.00000000000E+00 -0.00000000000E+00 -0.97249357910E+00  0.97249357910E+00  0.00000000000E+00 0.  1.
          1    1    1    2  501    0  0.39007763849E+01  0.22181327671E+02  0.22368493742E+03  0.22481587707E+03  0.00000000000E+00 0.  1.
         -1    1    1    2    0  502 -0.39007763849E+01 -0.22181327671E+02  0.31113950628E+03  0.31195355379E+03  0.00000000000E+00 0. -1.
<mgrwt>
<rscale>  2 0.22521708E+02</rscale>
<asrwt>0</asrwt>
<pdfrwt beam="1">  1       21 0.82430062E-01 0.22521708E+02</pdfrwt>
<pdfrwt beam="2">  1       21 0.14961483E-03 0.22521708E+02</pdfrwt>
<totfact> 0.67322857E+07</totfact>
</mgrwt>
</event>
<event>
 4    1  0.3862688E+004  0.3316096E+02  0.7546771E-02  0.1565566E+00
         21   -1    0    0  501  502  0.00000000000E+00  0.00000000000E+00  0.18639266283E+02  0.18639266283E+02  0.00000000000E+00 0.  1.
         21   -1    0    0  502  503 -0.00000000000E+00 -0.00000000000E+00 -0.65449853540E+02  0.65449853540E+02  0.00000000000E+00 0.  1.
          2    1    1    2  501    0  0.33053284096E+02  0.26701533017E+01 -0.36607669987E+02  0.49394036179E+02  0.00000000000E+00 0.  1.
         -2    1    1    2    0  503 -0.33053284096E+02 -0.26701533017E+01 -0.10202917270E+02  0.34695083644E+02  0.00000000000E+00 0. -1.
<mgrwt>
<rscale>  2 0.33160961E+02</rscale>
<asrwt>0</asrwt>
<pdfrwt beam="1">  1       21 0.28675793E-02 0.33160961E+02</pdfrwt>
<pdfrwt beam="2">  1       21 0.10069209E-01 0.33160961E+02</pdfrwt>
<totfact> 0.42902358E+07</totfact>
</mgrwt>
</event>
<event>
 4    1  0.3862688E+004  0.3616462E+02  0.7546771E-02  0.1538495E+00
         21   -1    0    0  503  502  0.00000000000E+00  0.00000000000E+00  0.61306870791E+01  0.61306870791E+01  0.00000000000E+00 0.  1.
         21   -1    0    0  501  503 -0.00000000000E+00 -0.00000000000E+00 -0.21900415591E+03  0.21900415591E+03  0.00000000000E+00 0.  1.
          1    1    1    2  501    0  0.53918899317E+01  0.35760410344E+02 -0.12455066088E+03  0.12969482084E+03  0.00000000000E+00 0. -1.
         -1    1    1    2    0  502 -0.53918899317E+01 -0.35760410344E+02 -0.88322807951E+02  0.95440022157E+02  0.00000000000E+00 0.  1.
<mgrwt>
<rscale>  2 0.36164616E+02</rscale>
<asrwt>0</asrwt>
<pdfrwt beam="1">  1       21 0.94318265E-03 0.36164616E+02</pdfrwt>
<pdfrwt beam="2">  1       21 0.33692946E-01 0.36164616E+02</pdfrwt>
<totfact> 0.28849156E+07</totfact>
</mgrwt>
</event>
<event>
 4    1  0.3862688E+004  0.2279772E+02  0.7546771E-02  0.1694810E+00
         21   -1    0    0  501  502  0.00000000000E+00  0.00000000000E+00  0.43797654147E+01  0.43797654147E+01  0.00000000000E+00 0.  1.
         21   -1    0    0  502  503 -0.00000000000E+00 -0.00000000000E+00 -0.11940339122E+03  0.11940339122E+03  0.00000000000E+00 0.  1.
          4    1    1    2  501    0  0.18972387589E+02 -0.12640590974E+02 -0.52653166365E+02  0.57376754520E+02  0.00000000000E+00 0. -1.
         -4    1    1    2    0  503 -0.18972387589E+02  0.12640590974E+02 -0.62370459439E+02  0.66406402114E+02  0.00000000000E+00 0.  1.
<mgrwt>
<rscale>  2 0.22797720E+02</rscale>
<asrwt>0</asrwt>
<pdfrwt beam="1">  1       21 0.67381001E-03 0.22797720E+02</pdfrwt>
<pdfrwt beam="2">  1       21 0.18369754E-01 0.22797720E+02</pdfrwt>
<totfact> 0.12846229E+08</totfact>
</mgrwt>
</event>
<event>
 4    1  0.3862688E+004  0.3076535E+02  0.7546771E-02  0.1589780E+00
         21   -1    0    0  503  502  0.00000000000E+00  0.00000000000E+00  0.79815557981E+02  0.79815557981E+02  0.00000000000E+00 0. -1.
         21   -1    0    0  501  503 -0.00000000000E+00 -0.00000000000E+00 -0.21904337270E+02  0.21904337270E+02  0.00000000000E+00 0. -1.
          3    1    1    2  501    0  0.85430220789E+01 -0.29555427024E+02  0.63398549891E+02  0.70469018874E+02  0.00000000000E+00 0. -1.
         -3    1    1    2    0  502 -0.85430220789E+01  0.29555427024E+02 -0.54873291791E+01  0.31250876377E+02  0.00000000000E+00 0.  1.
<mgrwt>
<rscale>  2 0.30765346E+02</rscale>
<asrwt>0</asrwt>
<pdfrwt beam="1">  1       21 0.12279316E-01 0.30765346E+02</pdfrwt>
<pdfrwt beam="2">  1       21 0.33698981E-02 0.30765346E+02</pdfrwt>
<totfact> 0.23442301E+07</totfact>
</mgrwt>
</event>
<event>
 4    1  0.3862688E+004  0.2017153E+02  0.7546771E-02  0.1741938E+00
         21   -1    0    0  501  502  0.00000000000E+00  0.00000000000E+00  0.14739185164E+03  0.14739185164E+03  0.00000000000E+00 0.  1.
         21   -1    0    0  502  503 -0.00000000000E+00 -0.00000000000E+00 -0.29391911955E+01  0.29391911955E+01  0.00000000000E+00 0.  1.
          3    1    1    2  501    0 -0.15390240830E+02  0.13039603655E+02  0.90754303910E+02  0.92968997276E+02  0.00000000000E+00 0.  1.
         -3    1    1    2    0  503  0.15390240830E+02 -0.13039603655E+02  0.53698356539E+02  0.57362045564E+02  0.00000000000E+00 0. -1.
<mgrwt>
<rscale>  2 0.20171534E+02</rscale>
<asrwt>0</asrwt>
<pdfrwt beam="1">  1       21 0.22675664E-01 0.20171534E+02</pdfrwt>
<pdfrwt beam="2">  1       21 0.45218338E-03 0.20171534E+02</pdfrwt>
<totfact> 0.15461696E+08</totfact>
</mgrwt>
</event>
<event>
 4    1  0.3862688E+004  0.2827442E+02  0.7546771E-02  0.1617985E+00
         21   -1    0    0  501  502  0.00000000000E+00  0.00000000000E+00  0.19449290071E+01  0.19449290071E+01  0.00000000000E+00 0.  1.
         21   -1    0    0  502  503 -0.00000000000E+00 -0.00000000000E+00 -0.55470329776E+03  0.55470329776E+03  0.00000000000E+00 0.  1.
          5    1    1    2  501    0  0.62174494946E+01 -0.27582351389E+02 -0.41802182778E+03  0.41897695795E+03  0.00000000000E+00 0. -1.
         -5    1    1    2    0  503 -0.62174494946E+01  0.27582351389E+02 -0.13473654097E+03  0.13767126882E+03  0.00000000000E+00 0.  1.
<mgrwt>
<rscale>  2 0.28274419E+02</rscale>
<asrwt>0</asrwt>
<pdfrwt beam="1">  1       21 0.29921976E-03 0.28274419E+02</pdfrwt>
<pdfrwt beam="2">  1       21 0.85338993E-01 0.28274419E+02</pdfrwt>
<totfact> 0.23981370E+07</totfact>
</mgrwt>
</event>
<event>
 4    1  0.3862688E+004  0.2211787E+02  0.7546771E-02  0.1706221E+00
         21   -1    0    0  503  502  0.00000000000E+00  0.00000000000E+00  0.96428145533E+02  0.96428145533E+02  0.00000000000E+00 0.  1.
         21   -1    0    0  501  503 -0.00000000000E+00 -0.00000000000E+00 -0.56352818468E+01  0.56352818468E+01  0.00000000000E+00 0.  1.
          3    1    1    2  501    0 -0.15995661619E+02  0.15275435068E+02  0.29279634353E+02  0.36694646680E+02  0.00000000000E+00 0. -1.
         -3    1    1    2    0  502  0.15995661619E+02 -0.15275435068E+02  0.61513229333E+02  0.65368780699E+02  0.00000000000E+00 0.  1.
<mgrwt>
<rscale>  2 0.22117869E+02</rscale>
<asrwt>0</asrwt>
<pdfrwt beam="1">  1       21 0.14835098E-01 0.22117869E+02</pdfrwt>
<pdfrwt beam="2">  1       21 0.86696651E-03 0.22117869E+02</pdfrwt>
<totfact> 0.12617840E+08</totfact>
</mgrwt>
</event>
<event>
 4    1  0.3862688E+004  0.2539998E+02  0.7546771E-02  0.1655322E+00
         21   -1    0    0  501  502  0.00000000000E+00  0.00000000000E+00  0.20753240130E+01  0.20753240130E+01  0.00000000000E+00 0. -1.
         21   -1    0    0  502  503 -0.00000000000E+00 -0.00000000000E+00 -0.32174663401E+03  0.32174663401E+03  0.00000000000E+00 0. -1.
          3    1    1    2  501    0  0.23746519019E+02 -0.90145359514E+01 -0.13006850702E+03  0.13252537698E+03  0.00000000000E+00 0. -1.
         -3    1    1    2    0  503 -0.23746519019E+02  0.90145359514E+01 -0.18960280297E+03  0.19129658104E+03  0.00000000000E+00 0.  1.
<mgrwt>
<rscale>  2 0.25399981E+02</rscale>
<asrwt>0</asrwt>
<pdfrwt beam="1">  1       21 0.31928094E-03 0.25399981E+02</pdfrwt>
<pdfrwt beam="2">  1       21 0.49499432E-01 0.25399981E+02</pdfrwt>
<totfact> 0.64842486E+07</totfact>
</mgrwt>
</event>
<event>
 4    1  0.3862688E+004  0.2035611E+02  0.7546771E-02  0.1738338E+00
         21   -1    0    0  503  502  0.00000000000E+00  0.00000000000E+00  0.31647287364E+02  0.31647287364E+02  0.00000000000E+00 0. -1.
         21   -1    0    0  501  503 -0.00000000000E+00 -0.00000000000E+00 -0.13181099910E+02  0.13181099910E+02  0.00000000000E+00 0. -1.
          1    1    1    2  501    0  0.39893983465E+01 -0.19961360524E+02  0.11061186762E+02  0.23167241219E+02  0.00000000000E+00 0. -1.
         -1    1    1    2    0  502 -0.39893983465E+01  0.19961360524E+02  0.74050006918E+01  0.21661146054E+02  0.00000000000E+00 0.  1.
<mgrwt>
<rscale>  2 0.20356110E+02</rscale>
<asrwt>0</asrwt>
<pdfrwt beam="1">  1       21 0.48688134E-02 0.20356110E+02</pdfrwt>
<pdfrwt beam="2">  1       21 0.20278615E-02 0.20356110E+02</pdfrwt>
<totfact> 0.21061495E+08</totfact>
</mgrwt>
</event>
<event>
 4    1  0.3862688E+004  0.2153418E+02  0.7546771E-02  0.1716435E+00
         21   -1    0    0  503  502  0.00000000000E+00  0.00000000000E+00  0.15487838735E+02  0.15487838735E+02  0.00000000000E+00 0.  1.
         21   -1    0    0  501  503 -0.00000000000E+00 -0.00000000000E+00 -0.36363496043E+02  0.36363496043E+02  0.00000000000E+00 0.  1.
          3    1    1    2  501    0  0.21157275652E+02  0.40113223310E+01 -0.21333395707E+02  0.30312287810E+02  0.00000000000E+00 0. -1.
         -3    1    1    2    0  502 -0.21157275652E+02 -0.40113223310E+01  0.45773839953E+00  0.21539046968E+02  0.00000000000E+00 0.  1.
<mgrwt>
<rscale>  2 0.21534183E+02</rscale>
<asrwt>0</asrwt>
<pdfrwt beam="1">  1       21 0.23827444E-02 0.21534183E+02</pdfrwt>
<pdfrwt beam="2">  1       21 0.55943840E-02 0.21534183E+02</pdfrwt>
<totfact> 0.13423299E+08</totfact>
</mgrwt>
</event>
<event>
 4    1  0.3862688E+004  0.2131455E+02  0.7546771E-02  0.1720383E+00
         21   -1    0    0  503  502  0.00000000000E+00  0.00000000000E+00  0.25309317924E+02  0.25309317924E+02  0.00000000000E+00 0. -1.
         21   -1    0    0  501  503 -0.00000000000E+00 -0.00000000000E+00 -0.19459392026E+02  0.19459392026E+02  0.00000000000E+00 0. -1.
          5    1    1    2  501    0 -0.14740324920E+02  0.15395871684E+02 -0.33086051613E+01  0.21569814829E+02  0.00000000000E+00 0.  1.
         -5    1    1    2    0  502  0.14740324920E+02 -0.15395871684E+02  0.91585310592E+01  0.23198895120E+02  0.00000000000E+00 0. -1.
<mgrwt>
<rscale>  2 0.21314550E+02</rscale>
<asrwt>0</asrwt>
<pdfrwt beam="1">  1       21 0.38937412E-02 0.21314550E+02</pdfrwt>
<pdfrwt beam="2">  1       21 0.29937526E-02 0.21314550E+02</pdfrwt>
<totfact> 0.16682654E+08</totfact>
</mgrwt>
</event>
<event>
 4    1  0.3862688E+004  0.2390261E+02  0.7546771E-02  0.1677283E+00
         21   -1    0    0  501  502  0.00000000000E+00  0.00000000000E+00  0.11335746613E+01  0.11335746613E+01  0.00000000000E+00 0.  1.
         21   -1    0    0  502  503 -0.00000000000E+00 -0.00000000000E+00 -0.66376230133E+03  0.66376230133E+03  0.00000000000E+00 0.  1.
          5    1    1    2  501    0 -0.20202135202E+02 -0.12775309083E+02 -0.49440864218E+03  0.49498610107E+03  0.00000000000E+00 0.  1.
         -5    1    1    2    0  503  0.20202135202E+02  0.12775309083E+02 -0.16822008449E+03  0.16990977492E+03  0.00000000000E+00 0. -1.
<mgrwt>
<rscale>  2 0.23902611E+02</rscale>
<asrwt>0</asrwt>
<pdfrwt beam="1">  1       21 0.17439564E-03 0.23902611E+02</pdfrwt>
<pdfrwt beam="2">  1       21 0.10211755E+00 0.23902611E+02</pdfrwt>
<totfact> 0.34513529E+07</totfact>
</mgrwt>
</event>
<event>
 4    1  0.3862688E+004  0.2273883E+02  0.7546771E-02  0.1695779E+00
         21   -1    0    0  503  502  0.00000000000E+00  0.00000000000E+00  0.49931854901E+01  0.49931854901E+01  0.00000000000E+00 0.  1.
         21   -1    0    0  501  503 -0.00000000000E+00 -0.00000000000E+00 -0.15740807429E+03  0.15740807429E+03  0.00000000000E+00 0.  1.
          4    1    1    2  501    0  0.53041964338E+01  0.22111529138E+02 -0.12370413400E+03  0.12577665518E+03  0.00000000000E+00 0.  1.
         -4    1    1    2    0  502 -0.53041964338E+01 -0.22111529138E+02 -0.28710754799E+02  0.36624604595E+02  0.00000000000E+00 0. -1.
<mgrwt>
<rscale>  2 0.22738826E+02</rscale>
<asrwt>0</asrwt>
<pdfrwt beam="1">  1       21 0.76818241E-03 0.22738826E+02</pdfrwt>
<pdfrwt beam="2">  1       21 0.24216626E-01 0.22738826E+02</pdfrwt>
<totfact> 0.65069390E+07</totfact>
</mgrwt>
</event>
<event>
 4    1  0.3862688E+004  0.2845802E+02  0.7546771E-02  0.1615786E+00
         21   -1    0    0  503  502  0.00000000000E+00  0.00000000000E+00  0.26851608882E+02  0.26851608882E+02  0.00000000000E+00 0.  1.
         21   -1    0    0  501  503 -0.00000000000E+00 -0.00000000000E+00 -0.21268515259E+03  0.21268515259E+03  0.00000000000E+00 0.  1.
          1    1    1    2  501    0  0.28408619365E+02  0.16760648588E+01  0.18035019086E+02  0.33691553260E+02  0.00000000000E+00 0.  1.
         -1    1    1    2    0  502 -0.28408619365E+02 -0.16760648588E+01 -0.20386856279E+03  0.20584520821E+03  0.00000000000E+00 0. -1.
<mgrwt>
<rscale>  2 0.28458019E+02</rscale>
<asrwt>0</asrwt>
<pdfrwt beam="1">  1       21 0.41310168E-02 0.28458019E+02</pdfrwt>
<pdfrwt beam="2">  1       21 0.32720792E-01 0.28458019E+02</pdfrwt>
<totfact> 0.29662496E+06</totfact>
</mgrwt>
</event>
<event>
 4    1  0.3862688E+004  0.2161296E+02  0.7546771E-02  0.1715033E+00
         21   -1    0    0  503  502  0.00000000000E+00  0.00000000000E+00  0.31000571617E+03  0.31000571617E+03  0.00000000000E+00 0. -1.
         21   -1    0    0  501  503 -0.00000000000E+00 -0.00000000000E+00 -0.23666771290E+01  0.23666771290E+01  0.00000000000E+00 0. -1.
          5    1    1    2  501    0  0.14989857612E+02  0.15569972460E+02  0.24796266078E+03  0.24890279431E+03  0.00000000000E+00 0.  1.
         -5    1    1    2    0  502 -0.14989857612E+02 -0.15569972460E+02  0.59676378261E+02  0.63469598990E+02  0.00000000000E+00 0. -1.
<mgrwt>
<rscale>  2 0.21612956E+02</rscale>
<asrwt>0</asrwt>
<pdfrwt beam="1">  1       21 0.47693155E-01 0.21612956E+02</pdfrwt>
<pdfrwt beam="2">  1       21 0.36410442E-03 0.21612956E+02</pdfrwt>
<totfact> 0.55328816E+07</totfact>
</mgrwt>
</event>
<event>
 4    1  0.3862688E+004  0.2123279E+02  0.7546771E-02  0.1721868E+00
         21   -1    0    0  503  502  0.00000000000E+00  0.00000000000E+00  0.16287264856E+02  0.16287264856E+02  0.00000000000E+00 0.  1.
         21   -1    0    0  501  503 -0.00000000000E+00 -0.00000000000E+00 -0.28317886796E+02  0.28317886796E+02  0.00000000000E+00 0.  1.
          5    1    1    2  501    0 -0.15987720382E+02  0.13972270762E+02 -0.93626146333E+01  0.23205389591E+02  0.00000000000E+00 0. -1.
         -5    1    1    2    0  502  0.15987720382E+02 -0.13972270762E+02 -0.26680073066E+01  0.21399762061E+02  0.00000000000E+00 0.  1.
<mgrwt>
<rscale>  2 0.21232794E+02</rscale>
<asrwt>0</asrwt>
<pdfrwt beam="1">  1       21 0.25057331E-02 0.21232794E+02</pdfrwt>
<pdfrwt beam="2">  1       21 0.43565979E-02 0.21232794E+02</pdfrwt>
<totfact> 0.18389553E+08</totfact>
</mgrwt>
</event>
<event>
 4    1  0.3862688E+004  0.2802481E+02  0.7546771E-02  0.1621007E+00
         21   -1    0    0  501  502  0.00000000000E+00  0.00000000000E+00  0.11313545500E+02  0.11313545500E+02  0.00000000000E+00 0. -1.
         21   -1    0    0  502  503 -0.00000000000E+00 -0.00000000000E+00 -0.89734180618E+02  0.89734180618E+02  0.00000000000E+00 0. -1.
          2    1    1    2  501    0 -0.27164476636E+02  0.68906665454E+01 -0.63249168932E+02  0.69179819651E+02  0.00000000000E+00 0. -1.
         -2    1    1    2    0  503  0.27164476636E+02 -0.68906665454E+01 -0.15171466186E+02  0.31867906467E+02  0.00000000000E+00 0.  1.
<mgrwt>
<rscale>  2 0.28024812E+02</rscale>
<asrwt>0</asrwt>
<pdfrwt beam="1">  1       21 0.17405454E-02 0.28024812E+02</pdfrwt>
<pdfrwt beam="2">  1       21 0.13805259E-01 0.28024812E+02</pdfrwt>
<totfact> 0.52751867E+07</totfact>
</mgrwt>
</event>
<event>
 4    1  0.3862688E+004  0.2053195E+02  0.7546771E-02  0.1734952E+00
         21   -1    0    0  503  502  0.00000000000E+00  0.00000000000E+00  0.21538777866E+03  0.21538777866E+03  0.00000000000E+00 0. -1.
         21   -1    0    0  501  503 -0.00000000000E+00 -0.00000000000E+00 -0.49248073594E+01  0.49248073594E+01  0.00000000000E+00 0. -1.
          1    1    1    2  501    0  0.16589553146E+02 -0.12097430060E+02  0.19074140692E+03  0.19184328344E+03  0.00000000000E+00 0.  1.
         -1    1    1    2    0  502 -0.16589553146E+02  0.12097430060E+02  0.19721564378E+02  0.28469302576E+02  0.00000000000E+00 0. -1.
<mgrwt>
<rscale>  2 0.20531953E+02</rscale>
<asrwt>0</asrwt>
<pdfrwt beam="1">  1       21 0.33136574E-01 0.20531953E+02</pdfrwt>
<pdfrwt beam="2">  1       21 0.75766284E-03 0.20531953E+02</pdfrwt>
<totfact> 0.36785670E+07</totfact>
</mgrwt>
</event>
<event>
 4    1  0.3862688E+004  0.2782182E+02  0.7546771E-02  0.1623494E+00
         21   -1    0    0  501  502  0.00000000000E+00  0.00000000000E+00  0.74052932122E+02  0.74052932122E+02  0.00000000000E+00 0. -1.
         21   -1    0    0  502  503 -0.00000000000E+00 -0.00000000000E+00 -0.16645791226E+02  0.16645791226E+02  0.00000000000E+00 0. -1.
          2    1    1    2  501    0  0.17916386136E+02 -0.21285127179E+02  0.10422770290E+01  0.27841333887E+02  0.00000000000E+00 0. -1.
         -2    1    1    2    0  503 -0.17916386136E+02  0.21285127179E+02  0.56364863866E+02  0.62857389461E+02  0.00000000000E+00 0.  1.
<mgrwt>
<rscale>  2 0.27821818E+02</rscale>
<asrwt>0</asrwt>
<pdfrwt beam="1">  1       21 0.11392759E-01 0.27821818E+02</pdfrwt>
<pdfrwt beam="2">  1       21 0.25608910E-02 0.27821818E+02</pdfrwt>
<totfact> 0.40097242E+07</totfact>
</mgrwt>
</event>
<event>
 4    1  0.3862688E+004  0.2525238E+02  0.7546771E-02  0.1657403E+00
         21   -1    0    0  503  502  0.00000000000E+00  0.00000000000E+00  0.30832752430E+02  0.30832752430E+02  0.00000000000E+00 0.  1.
         21   -1    0    0  501  503 -0.00000000000E+00 -0.00000000000E+00 -0.29618973207E+02  0.29618973207E+02  0.00000000000E+00 0.  1.
          1    1    1    2  501    0 -0.22234352527E+02  0.11971474345E+02  0.17209990832E+02  0.30559227980E+02  0.00000000000E+00 0. -1.
         -1    1    1    2    0  502  0.22234352527E+02 -0.11971474345E+02 -0.15996211609E+02  0.29892497656E+02  0.00000000000E+00 0.  1.
<mgrwt>
<rscale>  2 0.25252379E+02</rscale>
<asrwt>0</asrwt>
<pdfrwt beam="1">  1       21 0.47435004E-02 0.25252379E+02</pdfrwt>
<pdfrwt beam="2">  1       21 0.45567651E-02 0.25252379E+02</pdfrwt>
<totfact> 0.66246220E+07</totfact>
</mgrwt>
</event>
<event>
 4    1  0.3862688E+004  0.2880404E+02  0.7546771E-02  0.1611697E+00
         21   -1    0    0  503  502  0.00000000000E+00  0.00000000000E+00  0.11635719696E+01  0.11635719696E+01  0.00000000000E+00 0. -1.
         21   -1    0    0  501  503 -0.00000000000E+00 -0.00000000000E+00 -0.78014988806E+03  0.78014988806E+03  0.00000000000E+00 0. -1.
          3    1    1    2  501    0  0.63727326648E+01 -0.28090232139E+02 -0.50407107333E+03  0.50489337471E+03  0.00000000000E+00 0.  1.
         -3    1    1    2    0  502 -0.63727326648E+01  0.28090232139E+02 -0.27491524277E+03  0.27642008532E+03  0.00000000000E+00 0. -1.
<mgrwt>
<rscale>  2 0.28804042E+02</rscale>
<asrwt>0</asrwt>
<pdfrwt beam="1">  1       21 0.17901125E-03 0.28804042E+02</pdfrwt>
<pdfrwt beam="2">  1       21 0.12002294E+00 0.28804042E+02</pdfrwt>
<totfact> 0.23919245E+07</totfact>
</mgrwt>
</event>
<event>
 4    1  0.3862688E+004  0.2699093E+02  0.7546771E-02  0.1633949E+00
         21   -1    0    0  503  502  0.00000000000E+00  0.00000000000E+00  0.11642182513E+03  0.11642182513E+03  0.00000000000E+00 0.  1.
         21   -1    0    0  501  503 -0.00000000000E+00 -0.00000000000E+00 -0.62626611628E+01  0.62626611628E+01  0.00000000000E+00 0.  1.
          5    1    1    2  501    0 -0.12528333753E+02  0.23907133667E+02  0.53319506753E+02  0.59761860640E+02  0.00000000000E+00 0.  1.
         -5    1    1    2    0  502  0.12528333753E+02 -0.23907133667E+02  0.56839657217E+02  0.62922625656E+02  0.00000000000E+00 0. -1.
<mgrwt>
<rscale>  2 0.26990928E+02</rscale>
<asrwt>0</asrwt>
<pdfrwt beam="1">  1       21 0.17911048E-01 0.26990928E+02</pdfrwt>
<pdfrwt beam="2">  1       21 0.96348642E-03 0.26990928E+02</pdfrwt>
<totfact> 0.82182367E+07</totfact>
</mgrwt>
</event>
<event>
 4    1  0.3862688E+004  0.2567548E+02  0.7546771E-02  0.1651485E+00
         21   -1    0    0  501  502  0.00000000000E+00  0.00000000000E+00  0.16045867197E+02  0.16045867197E+02  0.00000000000E+00 0.  1.
         21   -1    0    0  502  503 -0.00000000000E+00 -0.00000000000E+00 -0.42022219891E+02  0.42022219891E+02  0.00000000000E+00 0.  1.
          2    1    1    2  501    0 -0.25669180154E+02 -0.56857047039E+00 -0.86501099443E+01  0.27093439874E+02  0.00000000000E+00 0. -1.
         -2    1    1    2    0  503  0.25669180154E+02  0.56857047039E+00 -0.17326242750E+02  0.30974647213E+02  0.00000000000E+00 0.  1.
<mgrwt>
<rscale>  2 0.25675476E+02</rscale>
<asrwt>0</asrwt>
<pdfrwt beam="1">  1       21 0.24685949E-02 0.25675476E+02</pdfrwt>
<pdfrwt beam="2">  1       21 0.64649570E-02 0.25675476E+02</pdfrwt>
<totfact> 0.10595887E+08</totfact>
</mgrwt>
</event>
<event>
 4    1  0.3862688E+004  0.3831982E+02  0.7546771E-02  0.1520953E+00
         21   -1    0    0  501  502  0.00000000000E+00  0.00000000000E+00  0.97959803748E+01  0.97959803748E+01  0.00000000000E+00 0.  1.
         21   -1    0    0  502  503 -0.00000000000E+00 -0.00000000000E+00 -0.15257655999E+03  0.15257655999E+03  0.00000000000E+00 0.  1.
          1    1    1    2  501    0  0.29744914564E+02 -0.24158824660E+02 -0.60635565849E+02  0.71729217180E+02  0.00000000000E+00 0.  1.
         -1    1    1    2    0  503 -0.29744914564E+02  0.24158824660E+02 -0.82145013764E+02  0.90643323183E+02  0.00000000000E+00 0. -1.
<mgrwt>
<rscale>  2 0.38319822E+02</rscale>
<asrwt>0</asrwt>
<pdfrwt beam="1">  1       21 0.15070739E-02 0.38319822E+02</pdfrwt>
<pdfrwt beam="2">  1       21 0.23473317E-01 0.38319822E+02</pdfrwt>
<totfact> 0.27617659E+07</totfact>
</mgrwt>
</event>
<event>
 4    1  0.3862688E+004  0.3069728E+02  0.7546771E-02  0.1590507E+00
         21   -1    0    0  503  502  0.00000000000E+00  0.00000000000E+00  0.55899513656E+01  0.55899513656E+01  0.00000000000E+00 0. -1.
         21   -1    0    0  501  503 -0.00000000000E+00 -0.00000000000E+00 -0.18988603696E+03  0.18988603696E+03  0.00000000000E+00 0. -1.
          3    1    1    2  501    0 -0.16311219639E+02  0.26005133044E+02 -0.12489154043E+03  0.12860878548E+03  0.00000000000E+00 0.  1.
         -3    1    1    2    0  502  0.16311219639E+02 -0.26005133044E+02 -0.59404545166E+02  0.66867202851E+02  0.00000000000E+00 0. -1.
<mgrwt>
<rscale>  2 0.30697277E+02</rscale>
<asrwt>0</asrwt>
<pdfrwt beam="1">  1       21 0.85999254E-03 0.30697277E+02</pdfrwt>
<pdfrwt beam="2">  1       21 0.29213236E-01 0.30697277E+02</pdfrwt>
<totfact> 0.41939244E+07</totfact>
</mgrwt>
</event>
<event>
 4    1  0.3862688E+004  0.2164682E+02  0.7546771E-02  0.1714433E+00
         21   -1    0    0  501  502  0.00000000000E+00  0.00000000000E+00  0.12822785320E+03  0.12822785320E+03  0.00000000000E+00 0. -1.
         21   -1    0    0  502  503 -0.00000000000E+00 -0.00000000000E+00 -0.51602837280E+01  0.51602837280E+01  0.00000000000E+00 0. -1.
          5    1    1    2  501    0 -0.14763960608E+02 -0.15830678478E+02  0.97563303165E+02  0.99935894645E+02  0.00000000000E+00 0.  1.
         -5    1    1    2    0  503  0.14763960608E+02  0.15830678478E+02  0.25504266306E+02  0.33452242282E+02  0.00000000000E+00 0. -1.
<mgrwt>
<rscale>  2 0.21646822E+02</rscale>
<asrwt>0</asrwt>
<pdfrwt beam="1">  1       21 0.19727360E-01 0.21646822E+02</pdfrwt>
<pdfrwt beam="2">  1       21 0.79388990E-03 0.21646822E+02</pdfrwt>
<totfact> 0.87657917E+07</totfact>
</mgrwt>
</event>
<event>
 4    1  0.3862688E+004  0.2430316E+02  0.7546771E-02  0.1671217E+00
         21   -1    0    0  501  502  0.00000000000E+00  0.00000000000E+00  0.78476822407E+01  0.78476822407E+01  0.00000000000E+00 0.  1.
         21   -1    0    0  502  503 -0.00000000000E+00 -0.00000000000E+00 -0.76118243385E+02  0.76118243385E+02  0.00000000000E+00 0.  1.
          2    1    1    2  501    0  0.22846143681E+02 -0.82883870110E+01 -0.29686312701E+02  0.38365620054E+02  0.00000000000E+00 0. -1.
         -2    1    1    2    0  503 -0.22846143681E+02  0.82883870110E+01 -0.38584248444E+02  0.45600305572E+02  0.00000000000E+00 0.  1.
<mgrwt>
<rscale>  2 0.24303161E+02</rscale>
<asrwt>0</asrwt>
<pdfrwt beam="1">  1       21 0.12073357E-02 0.24303161E+02</pdfrwt>
<pdfrwt beam="2">  1       21 0.11710499E-01 0.24303161E+02</pdfrwt>
<totfact> 0.11743853E+08</totfact>
</mgrwt>
</event>
<event>
 4    1  0.3862688E+004  0.2355820E+02  0.7546771E-02  0.1682618E+00
         21   -1    0    0  503  502  0.00000000000E+00  0.00000000000E+00  0.14608134757E+01  0.14608134757E+01  0.00000000000E+00 0. -1.
         21   -1    0    0  501  503 -0.00000000000E+00 -0.00000000000E+00 -0.39193501872E+03  0.39193501872E+03  0.00000000000E+00 0. -1.
          1    1    1    2  501    0 -0.19021024568E+02 -0.13899256197E+02 -0.22967994275E+03  0.23088496010E+03  0.00000000000E+00 0. -1.
         -1    1    1    2    0  502  0.19021024568E+02  0.13899256197E+02 -0.16079426249E+03  0.16251087210E+03  0.00000000000E+00 0.  1.
<mgrwt>
<rscale>  2 0.23558198E+02</rscale>
<asrwt>0</asrwt>
<pdfrwt beam="1">  1       21 0.22474031E-03 0.23558198E+02</pdfrwt>
<pdfrwt beam="2">  1       21 0.60297756E-01 0.23558198E+02</pdfrwt>
<totfact> 0.71942078E+07</totfact>
</mgrwt>
</event>
<event>
 4    1  0.3862688E+004  0.2023587E+02  0.7546771E-02  0.1740678E+00
         21   -1    0    0  501  502  0.00000000000E+00  0.00000000000E+00  0.46387217955E+01  0.46387217955E+01  0.00000000000E+00 0.  1.
         21   -1    0    0  502  503 -0.00000000000E+00 -0.00000000000E+00 -0.89122395878E+02  0.89122395878E+02  0.00000000000E+00 0.  1.
          2    1    1    2  501    0 -0.18078737141E+02 -0.90911832631E+01 -0.37674686293E+02  0.42765316987E+02  0.00000000000E+00 0.  1.
         -2    1    1    2    0  503  0.18078737141E+02  0.90911832631E+01 -0.46808987789E+02  0.50995800686E+02  0.00000000000E+00 0. -1.
<mgrwt>
<rscale>  2 0.20235868E+02</rscale>
<asrwt>0</asrwt>
<pdfrwt beam="1">  1       21 0.71364948E-03 0.20235868E+02</pdfrwt>
<pdfrwt beam="2">  1       21 0.13711138E-01 0.20235868E+02</pdfrwt>
<totfact> 0.18744405E+08</totfact>
</mgrwt>
</event>
<event>
 4    1  0.3862688E+004  0.6972096E+02  0.7546771E-02  0.1361045E+00
         21   -1    0    0  503  502  0.00000000000E+00  0.00000000000E+00  0.11448184389E+03  0.11448184389E+03  0.00000000000E+00 0. -1.
         21   -1    0    0  501  503 -0.00000000000E+00 -0.00000000000E+00 -0.46683122794E+02  0.46683122794E+02  0.00000000000E+00 0. -1.
          3    1    1    2  501    0  0.90217693234E+01 -0.69134794267E+02  0.58133454599E+02  0.90777258406E+02  0.00000000000E+00 0.  1.
         -3    1    1    2    0  502 -0.90217693234E+01  0.69134794267E+02  0.96652664952E+01  0.70387708277E+02  0.00000000000E+00 0. -1.
<mgrwt>
<rscale>  2 0.69720959E+02</rscale>
<asrwt>0</asrwt>
<pdfrwt beam="1">  1       21 0.17612591E-01 0.69720959E+02</pdfrwt>
<pdfrwt beam="2">  1       21 0.71820190E-02 0.69720959E+02</pdfrwt>
<totfact> 0.40289412E+06</totfact>
</mgrwt>
</event>
<event>
 4    1  0.3862688E+004  0.3871638E+02  0.7546771E-02  0.1517876E+00
         21   -1    0    0  503  502  0.00000000000E+00  0.00000000000E+00  0.82712231415E+01  0.82712231415E+01  0.00000000000E+00 0. -1.
         21   -1    0    0  501  503 -0.00000000000E+00 -0.00000000000E+00 -0.19957574791E+03  0.19957574791E+03  0.00000000000E+00 0. -1.
          1    1    1    2  501    0 -0.20045584417E+02  0.33122995582E+02 -0.12716443147E+03  0.13292761534E+03  0.00000000000E+00 0.  1.
         -1    1    1    2    0  502  0.20045584417E+02 -0.33122995582E+02 -0.64140093308E+02  0.74919355713E+02  0.00000000000E+00 0. -1.
<mgrwt>
<rscale>  2 0.38716383E+02</rscale>
<asrwt>0</asrwt>
<pdfrwt beam="1">  1       21 0.12724959E-02 0.38716383E+02</pdfrwt>
<pdfrwt beam="2">  1       21 0.30703960E-01 0.38716383E+02</pdfrwt>
<totfact> 0.21946065E+07</totfact>
</mgrwt>
</event>
<event>
 4    1  0.3862688E+004  0.3126099E+02  0.7546771E-02  0.1584554E+00
         21   -1    0    0  501  502  0.00000000000E+00  0.00000000000E+00  0.30340871052E+01  0.30340871052E+01  0.00000000000E+00 0. -1.
         21   -1    0    0  502  503 -0.00000000000E+00 -0.00000000000E+00 -0.32602150281E+03  0.32602150281E+03  0.00000000000E+00 0. -1.
          2    1    1    2  501    0 -0.23778061583E+02  0.20294171285E+02 -0.17956073174E+03  0.18226164156E+03  0.00000000000E+00 0. -1.
         -2    1    1    2    0  503  0.23778061583E+02 -0.20294171285E+02 -0.14342668396E+03  0.14679394835E+03  0.00000000000E+00 0.  1.
<mgrwt>
<rscale>  2 0.31260992E+02</rscale>
<asrwt>0</asrwt>
<pdfrwt beam="1">  1       21 0.46678272E-03 0.31260992E+02</pdfrwt>
<pdfrwt beam="2">  1       21 0.50157145E-01 0.31260992E+02</pdfrwt>
<totfact> 0.37677150E+07</totfact>
</mgrwt>
</event>
<event>
 4    1  0.3862688E+004  0.2202695E+02  0.7546771E-02  0.1707786E+00
         21   -1    0    0  501  502  0.00000000000E+00  0.00000000000E+00  0.57510557244E+01  0.57510557244E+01  0.00000000000E+00 0.  1.
         21   -1    0    0  502  503 -0.00000000000E+00 -0.00000000000E+00 -0.18941967587E+03  0.18941967587E+03  0.00000000000E+00 0.  1.
          4    1    1    2  501    0  0.21904537208E+02 -0.23190028565E+01 -0.19160102055E+02  0.29194109599E+02  0.00000000000E+00 0.  1.
         -4    1    1    2    0  503 -0.21904537208E+02  0.23190028565E+01 -0.16450851809E+03  0.16597662199E+03  0.00000000000E+00 0. -1.
<mgrwt>
<rscale>  2 0.22026950E+02</rscale>
<asrwt>0</asrwt>
<pdfrwt beam="1">  1       21 0.88477777E-03 0.22026950E+02</pdfrwt>
<pdfrwt beam="2">  1       21 0.29141490E-01 0.22026950E+02</pdfrwt>
<totfact> 0.37516896E+07</totfact>
</mgrwt>
</event>
<event>
 4    1  0.3862688E+004  0.2373298E+02  0.7546771E-02  0.1679897E+00
         21   -1    0    0  501  502  0.00000000000E+00  0.00000000000E+00  0.87413480716E+02  0.87413480716E+02  0.00000000000E+00 0. -1.
         21   -1    0    0  502  503 -0.00000000000E+00 -0.00000000000E+00 -0.11023079825E+02  0.11023079825E+02  0.00000000000E+00 0. -1.
          1    1    1    2  501    0 -0.23211191280E+01  0.23619207695E+02  0.64714424909E+01  0.24599474264E+02  0.00000000000E+00 0.  1.
         -1    1    1    2    0  503  0.23211191280E+01 -0.23619207695E+02  0.69918958400E+02  0.73837086277E+02  0.00000000000E+00 0. -1.
<mgrwt>
<rscale>  2 0.23732985E+02</rscale>
<asrwt>0</asrwt>
<pdfrwt beam="1">  1       21 0.13448227E-01 0.23732985E+02</pdfrwt>
<pdfrwt beam="2">  1       21 0.16958585E-02 0.23732985E+02</pdfrwt>
<totfact> 0.55150089E+07</totfact>
</mgrwt>
</event>
<event>
 4    1  0.3862688E+004  0.2372611E+02  0.7546771E-02  0.1680003E+00
         21   -1    0    0  503  502  0.00000000000E+00  0.00000000000E+00  0.21182758356E+03  0.21182758356E+03  0.00000000000E+00 0. -1.
         21   -1    0    0  501  503 -0.00000000000E+00 -0.00000000000E+00 -0.26748704018E+01  0.26748704018E+01  0.00000000000E+00 0. -1.
          3    1    1    2  501    0 -0.22504872639E+02  0.75139328451E+01  0.95929626388E+02  0.98820148241E+02  0.00000000000E+00 0.  1.
         -3    1    1    2    0  502  0.22504872639E+02 -0.75139328451E+01  0.11322308677E+03  0.11568230572E+03  0.00000000000E+00 0. -1.
<mgrwt>
<rscale>  2 0.23726114E+02</rscale>
<asrwt>0</asrwt>
<pdfrwt beam="1">  1       21 0.32588846E-01 0.23726114E+02</pdfrwt>
<pdfrwt beam="2">  1       21 0.41151869E-03 0.23726114E+02</pdfrwt>
<totfact> 0.96908972E+07</totfact>
</mgrwt>
</event>
<event>
 4    1  0.3862688E+004  0.3768374E+02  0.7546771E-02  0.1525983E+00
         21   -1    0    0  501  502  0.00000000000E+00  0.00000000000E+00  0.39944736876E+02  0.39944736876E+02  0.00000000000E+00 0.  1.
         21   -1    0    0  502  503 -0.00000000000E+00 -0.00000000000E+00 -0.50109278943E+02  0.50109278943E+02  0.00000000000E+00 0.  1.
          3    1    1    2  501    0  0.27000794687E+02 -0.26287277814E+02  0.19187926239E+02  0.42287591584E+02  0.00000000000E+00 0.  1.
         -3    1    1    2    0  503 -0.27000794687E+02  0.26287277814E+02 -0.29352468306E+02  0.47766424236E+02  0.00000000000E+00 0. -1.
<mgrwt>
<rscale>  2 0.37683735E+02</rscale>
<asrwt>0</asrwt>
<pdfrwt beam="1">  1       21 0.61453441E-02 0.37683735E+02</pdfrwt>
<pdfrwt beam="2">  1       21 0.77091198E-02 0.37683735E+02</pdfrwt>
<totfact> 0.20184113E+07</totfact>
</mgrwt>
</event>
<event>
 4    1  0.3862688E+004  0.2585740E+02  0.7546771E-02  0.1648984E+00
         21   -1    0    0  501  502  0.00000000000E+00  0.00000000000E+00  0.76267199680E+03  0.76267199680E+03  0.00000000000E+00 0.  1.
         21   -1    0    0  502  503 -0.00000000000E+00 -0.00000000000E+00 -0.96843193131E+00  0.96843193131E+00  0.00000000000E+00 0.  1.
          2    1    1    2  501    0 -0.17520218448E+02  0.19017021617E+02  0.26331446148E+03  0.26458100988E+03  0.00000000000E+00 0.  1.
         -2    1    1    2    0  503  0.17520218448E+02 -0.19017021617E+02  0.49838910339E+03  0.49905941885E+03  0.00000000000E+00 0. -1.
<mgrwt>
<rscale>  2 0.25857401E+02</rscale>
<asrwt>0</asrwt>
<pdfrwt beam="1">  1       21 0.11733367E+00 0.25857401E+02</pdfrwt>
<pdfrwt beam="2">  1       21 0.14899014E-03 0.25857401E+02</pdfrwt>
<totfact> 0.32236848E+07</totfact>
</mgrwt>
</event>
<event>
 4    1  0.3862688E+004  0.4724613E+02  0.7546771E-02  0.1460788E+00
         21   -1    0    0  503  502  0.00000000000E+00  0.00000000000E+00  0.15953045890E+04  0.15953045890E+04  0.00000000000E+00 0.  1.
         21   -1    0    0  501  503 -0.00000000000E+00 -0.00000000000E+00 -0.22119677399E+01  0.22119677399E+01  0.00000000000E+00 0.  1.
          1    1    1    2  501    0 -0.27795570340E+02 -0.38204745787E+02  0.31237229584E+03  0.31592506634E+03  0.00000000000E+00 0.  1.
         -1    1    1    2    0  502  0.27795570340E+02  0.38204745787E+02  0.12807203254E+04  0.12815914904E+04  0.00000000000E+00 0. -1.
<mgrwt>
<rscale>  2 0.47246125E+02</rscale>
<asrwt>0</asrwt>
<pdfrwt beam="1">  1       21 0.24543056E+00 0.47246125E+02</pdfrwt>
<pdfrwt beam="2">  1       21 0.34030400E-03 0.47246125E+02</pdfrwt>
<totfact> 0.15309179E+06</totfact>
</mgrwt>
</event>
<event>
 4    1  0.3862688E+004  0.2499600E+02  0.7546771E-02  0.1661059E+00
         21   -1    0    0  501  502  0.00000000000E+00  0.00000000000E+00  0.69452803357E+01  0.69452803357E+01  0.00000000000E+00 0. -1.
         21   -1    0    0  502  503 -0.00000000000E+00 -0.00000000000E+00 -0.17885500800E+03  0.17885500800E+03  0.00000000000E+00 0. -1.
          5    1    1    2  501    0 -0.19214320863E+02  0.15987800721E+02 -0.15144918576E+03  0.15349806437E+03  0.00000000000E+00 0.  1.
         -5    1    1    2    0  503  0.19214320863E+02 -0.15987800721E+02 -0.20460541905E+02  0.32302223966E+02  0.00000000000E+00 0. -1.
<mgrwt>
<rscale>  2 0.24995998E+02</rscale>
<asrwt>0</asrwt>
<pdfrwt beam="1">  1       21 0.10685049E-02 0.24995998E+02</pdfrwt>
<pdfrwt beam="2">  1       21 0.27516150E-01 0.24995998E+02</pdfrwt>
<totfact> 0.32278232E+07</totfact>
</mgrwt>
</event>
<event>
 4    1  0.3862688E+004  0.2060433E+02  0.7546771E-02  0.1733571E+00
         21   -1    0    0  503  502  0.00000000000E+00  0.00000000000E+00  0.34158779443E+03  0.34158779443E+03  0.00000000000E+00 0. -1.
         21   -1    0    0  501  503 -0.00000000000E+00 -0.00000000000E+00 -0.12457758139E+01  0.12457758139E+01  0.00000000000E+00 0. -1.
          2    1    1    2  501    0  0.18035747149E+02 -0.99624425926E+01  0.17849466027E+03  0.17967994374E+03  0.00000000000E+00 0.  1.
         -2    1    1    2    0  502 -0.18035747149E+02  0.99624425926E+01  0.16184735835E+03  0.16315362650E+03  0.00000000000E+00 0. -1.
<mgrwt>
<rscale>  2 0.20604331E+02</rscale>
<asrwt>0</asrwt>
<pdfrwt beam="1">  1       21 0.52551894E-01 0.20604331E+02</pdfrwt>
<pdfrwt beam="2">  1       21 0.19165809E-03 0.20604331E+02</pdfrwt>
<totfact> 0.11473955E+08</totfact>
</mgrwt>
</event>
<event>
 4    1  0.3862688E+004  0.2858341E+02  0.7546771E-02  0.1614296E+00
         21   -1    0    0  501  502  0.00000000000E+00  0.00000000000E+00  0.67105371707E+02  0.67105371707E+02  0.00000000000E+00 0. -1.
         21   -1    0    0  502  503 -0.00000000000E+00 -0.00000000000E+00 -0.13820401548E+02  0.13820401548E+02  0.00000000000E+00 0. -1.
          4    1    1    2  501    0 -0.27067482795E+02  0.91849239211E+01  0.40603773431E+02  0.49655592526E+02  0.00000000000E+00 0. -1.
         -4    1    1    2    0  503  0.27067482795E+02 -0.91849239211E+01  0.12681196728E+02  0.31270180728E+02  0.00000000000E+00 0.  1.
<mgrwt>
<rscale>  2 0.28583412E+02</rscale>
<asrwt>0</asrwt>
<pdfrwt beam="1">  1       21 0.10323903E-01 0.28583412E+02</pdfrwt>
<pdfrwt beam="2">  1       21 0.21262157E-02 0.28583412E+02</pdfrwt>
<totfact> 0.63553493E+07</totfact>
</mgrwt>
</event>
<event>
 4    1  0.3862688E+004  0.2713523E+02  0.7546771E-02  0.1632100E+00
         21   -1    0    0  501  502  0.00000000000E+00  0.00000000000E+00  0.12403851665E+02  0.12403851665E+02  0.00000000000E+00 0. -1.
         21   -1    0    0  502  503 -0.00000000000E+00 -0.00000000000E+00 -0.64876838563E+02  0.64876838563E+02  0.00000000000E+00 0. -1.
          3    1    1    2  501    0  0.11970397175E+02 -0.24352215024E+02 -0.14970955156E+02  0.30991132335E+02  0.00000000000E+00 0.  1.
         -3    1    1    2    0  503 -0.11970397175E+02  0.24352215024E+02 -0.37502031742E+02  0.46289557893E+02  0.00000000000E+00 0. -1.
<mgrwt>
<rscale>  2 0.27135231E+02</rscale>
<asrwt>0</asrwt>
<pdfrwt beam="1">  1       21 0.19082848E-02 0.27135231E+02</pdfrwt>
<pdfrwt beam="2">  1       21 0.99810522E-02 0.27135231E+02</pdfrwt>
<totfact> 0.78459705E+07</totfact>
</mgrwt>
</event>
<event>
 4    1  0.3862688E+004  0.2839119E+02  0.7546771E-02  0.1616584E+00
         21   -1    0    0  503  502  0.00000000000E+00  0.00000000000E+00  0.81786627398E+01  0.81786627398E+01  0.00000000000E+00 0. -1.
         21   -1    0    0  501  503 -0.00000000000E+00 -0.00000000000E+00 -0.11534736550E+03  0.11534736550E+03  0.00000000000E+00 0. -1.
          4    1    1    2  501    0 -0.10211060567E+02  0.26491392577E+02 -0.77149074804E+02  0.82207295185E+02  0.00000000000E+00 0. -1.
         -4    1    1    2    0  502  0.10211060567E+02 -0.26491392577E+02 -0.30019627956E+02  0.41318733054E+02  0.00000000000E+00 0.  1.
<mgrwt>
<rscale>  2 0.28391189E+02</rscale>
<asrwt>0</asrwt>
<pdfrwt beam="1">  1       21 0.12582558E-02 0.28391189E+02</pdfrwt>
<pdfrwt beam="2">  1       21 0.17745748E-01 0.28391189E+02</pdfrwt>
<totfact> 0.56405596E+07</totfact>
</mgrwt>
</event>
<event>
 4    1  0.3862688E+004  0.3005275E+02  0.7546771E-02  0.1597506E+00
         21   -1    0    0  503  502  0.00000000000E+00  0.00000000000E+00  0.71129253186E+02  0.71129253186E+02  0.00000000000E+00 0. -1.
         21   -1    0    0  501  503 -0.00000000000E+00 -0.00000000000E+00 -0.12716720860E+02  0.12716720860E+02  0.00000000000E+00 0. -1.
          4    1    1    2  501    0  0.29230913148E+02  0.69800947814E+01  0.27578977015E+02  0.40789312078E+02  0.00000000000E+00 0. -1.
         -4    1    1    2    0  502 -0.29230913148E+02 -0.69800947814E+01  0.30833555311E+02  0.43056661967E+02  0.00000000000E+00 0.  1.
<mgrwt>
<rscale>  2 0.30052754E+02</rscale>
<asrwt>0</asrwt>
<pdfrwt beam="1">  1       21 0.10942962E-01 0.30052754E+02</pdfrwt>
<pdfrwt beam="2">  1       21 0.19564186E-02 0.30052754E+02</pdfrwt>
<totfact> 0.66344644E+07</totfact>
</mgrwt>
</event>
<event>
 4    1  0.3862688E+004  0.2678238E+02  0.7546771E-02  0.1636646E+00
         21   -1    0    0  501  502  0.00000000000E+00  0.00000000000E+00  0.29679657834E+02  0.29679657834E+02  0.00000000000E+00 0.  1.
         21   -1    0    0  502  503 -0.00000000000E+00 -0.00000000000E+00 -0.25434690004E+02  0.25434690004E+02  0.00000000000E+00 0.  1.
          2    1    1    2  501    0 -0.13568133918E+02  0.23091158639E+02 -0.40274264178E+01  0.27083501045E+02  0.00000000000E+00 0.  1.
         -2    1    1    2    0  503  0.13568133918E+02 -0.23091158639E+02  0.82723942472E+01  0.28030846792E+02  0.00000000000E+00 0. -1.
<mgrwt>
<rscale>  2 0.26782380E+02</rscale>
<asrwt>0</asrwt>
<pdfrwt beam="1">  1       21 0.45661012E-02 0.26782380E+02</pdfrwt>
<pdfrwt beam="2">  1       21 0.39130292E-02 0.26782380E+02</pdfrwt>
<totfact> 0.90999407E+07</totfact>
</mgrwt>
</event>
<event>
 4    1  0.3862688E+004  0.2004905E+02  0.7546771E-02  0.1744354E+00
         21   -1    0    0  501  502  0.00000000000E+00  0.00000000000E+00  0.60610831352E+01  0.60610831352E+01  0.00000000000E+00 0. -1.
         21   -1    0    0  502  503 -0.00000000000E+00 -0.00000000000E+00 -0.12269599775E+03  0.12269599775E+03  0.00000000000E+00 0. -1.
          5    1    1    2  501    0 -0.19706196031E+02  0.36919419336E+01 -0.14678221300E+02  0.24847832457E+02  0.00000000000E+00 0. -1.
         -5    1    1    2    0  503  0.19706196031E+02 -0.36919419336E+01 -0.10195669331E+03  0.10390924843E+03  0.00000000000E+00 0.  1.
<mgrwt>
<rscale>  2 0.20049055E+02</rscale>
<asrwt>0</asrwt>
<pdfrwt beam="1">  1       21 0.93247429E-03 0.20049055E+02</pdfrwt>
<pdfrwt beam="2">  1       21 0.18876308E-01 0.20049055E+02</pdfrwt>
<totfact> 0.72873156E+07</totfact>
</mgrwt>
</event>
<event>
 4    1  0.3862688E+004  0.2092846E+02  0.7546771E-02  0.1727471E+00
         21   -1    0    0  503  502  0.00000000000E+00  0.00000000000E+00  0.11625111084E+01  0.11625111084E+01  0.00000000000E+00 0. -1.
         21   -1    0    0  501  503 -0.00000000000E+00 -0.00000000000E+00 -0.38319514266E+03  0.38319514266E+03  0.00000000000E+00 0. -1.
          2    1    1    2  501    0  0.87046260797E+01 -0.19032339375E+02 -0.16613326754E+03  0.16744629897E+03  0.00000000000E+00 0.  1.
         -2    1    1    2    0  502 -0.87046260797E+01  0.19032339375E+02 -0.21589936402E+03  0.21691135480E+03  0.00000000000E+00 0. -1.
<mgrwt>
<rscale>  2 0.20928460E+02</rscale>
<asrwt>0</asrwt>
<pdfrwt beam="1">  1       21 0.17884790E-03 0.20928460E+02</pdfrwt>
<pdfrwt beam="2">  1       21 0.58953087E-01 0.20928460E+02</pdfrwt>
<totfact> 0.10151693E+08</totfact>
</mgrwt>
</event>
<event>
 4    1  0.3862688E+004  0.2788774E+02  0.7546771E-02  0.1622683E+00
         21   -1    0    0  501  502  0.00000000000E+00  0.00000000000E+00  0.70199674999E+02  0.70199674999E+02  0.00000000000E+00 0. -1.
         21   -1    0    0  502  503 -0.00000000000E+00 -0.00000000000E+00 -0.11916972036E+02  0.11916972036E+02  0.00000000000E+00 0. -1.
          5    1    1    2  501    0 -0.12130272463E+00  0.27887475731E+02  0.40030470438E+02  0.48786930427E+02  0.00000000000E+00 0.  1.
         -5    1    1    2    0  503  0.12130272463E+00 -0.27887475731E+02  0.18252232525E+02  0.33329716607E+02  0.00000000000E+00 0. -1.
<mgrwt>
<rscale>  2 0.27887740E+02</rscale>
<asrwt>0</asrwt>
<pdfrwt beam="1">  1       21 0.10799950E-01 0.27887740E+02</pdfrwt>
<pdfrwt beam="2">  1       21 0.18333803E-02 0.27887740E+02</pdfrwt>
<totfact> 0.73653605E+07</totfact>
</mgrwt>
</event>
<event>
 4    1  0.3862688E+004  0.2262653E+02  0.7546771E-02  0.1697636E+00
         21   -1    0    0  503  502  0.00000000000E+00  0.00000000000E+00  0.11851564398E+01  0.11851564398E+01  0.00000000000E+00 0. -1.
         21   -1    0    0  501  503 -0.00000000000E+00 -0.00000000000E+00 -0.44173494847E+03  0.44173494847E+03  0.00000000000E+00 0. -1.
          1    1    1    2  501    0  0.58617015385E+01  0.21854067643E+02 -0.25319060984E+03  0.25419961591E+03  0.00000000000E+00 0.  1.
         -1    1    1    2    0  502 -0.58617015385E+01 -0.21854067643E+02 -0.18735918219E+03  0.18872048900E+03  0.00000000000E+00 0. -1.
<mgrwt>
<rscale>  2 0.22626529E+02</rscale>
<asrwt>0</asrwt>
<pdfrwt beam="1">  1       21 0.18233150E-03 0.22626529E+02</pdfrwt>
<pdfrwt beam="2">  1       21 0.67959320E-01 0.22626529E+02</pdfrwt>
<totfact> 0.75672509E+07</totfact>
</mgrwt>
</event>
<event>
 4    1  0.3862688E+004  0.3207334E+02  0.7546771E-02  0.1576240E+00
         21   -1    0    0  501  502  0.00000000000E+00  0.00000000000E+00  0.65836317780E+01  0.65836317780E+01  0.00000000000E+00 0.  1.
         21   -1    0    0  502  503 -0.00000000000E+00 -0.00000000000E+00 -0.25109245106E+03  0.25109245106E+03  0.00000000000E+00 0.  1.
          2    1    1    2  501    0  0.31342362669E+02  0.68085046279E+01 -0.43072449675E+02  0.53702284438E+02  0.00000000000E+00 0. -1.
         -2    1    1    2    0  503 -0.31342362669E+02 -0.68085046279E+01 -0.20143636960E+03  0.20397379840E+03  0.00000000000E+00 0.  1.
<mgrwt>
<rscale>  2 0.32073345E+02</rscale>
<asrwt>0</asrwt>
<pdfrwt beam="1">  1       21 0.10128664E-02 0.32073345E+02</pdfrwt>
<pdfrwt beam="2">  1       21 0.38629607E-01 0.32073345E+02</pdfrwt>
<totfact> 0.19584253E+07</totfact>
</mgrwt>
</event>
<event>
 4    1  0.3862688E+004  0.2429052E+02  0.7546771E-02  0.1671407E+00
         21   -1    0    0  503  502  0.00000000000E+00  0.00000000000E+00  0.24247343357E+02  0.24247343357E+02  0.00000000000E+00 0. -1.
         21   -1    0    0  501  503 -0.00000000000E+00 -0.00000000000E+00 -0.24485356471E+02  0.24485356471E+02  0.00000000000E+00 0. -1.
          3    1    1    2  501    0 -0.23402896397E+02  0.65064510262E+01  0.17981445909E+01  0.24356986445E+02  0.00000000000E+00 0. -1.
         -3    1    1    2    0  502  0.23402896397E+02 -0.65064510262E+01 -0.20361577051E+01  0.24375713383E+02  0.00000000000E+00 0.  1.
<mgrwt>
<rscale>  2 0.24290522E+02</rscale>
<asrwt>0</asrwt>
<pdfrwt beam="1">  1       21 0.37303605E-02 0.24290522E+02</pdfrwt>
<pdfrwt beam="2">  1       21 0.37669779E-02 0.24290522E+02</pdfrwt>
<totfact> 0.12965766E+08</totfact>
</mgrwt>
</event>
<event>
 4    1  0.3862688E+004  0.2013361E+02  0.7546771E-02  0.1742684E+00
         21   -1    0    0  501  502  0.00000000000E+00  0.00000000000E+00  0.92912542209E+00  0.92912542209E+00  0.00000000000E+00 0.  1.
         21   -1    0    0  502  503 -0.00000000000E+00 -0.00000000000E+00 -0.47936609099E+03  0.47936609099E+03  0.00000000000E+00 0.  1.
          3    1    1    2  501    0 -0.15194732230E+02 -0.13209183584E+02 -0.31121205801E+03  0.31186264199E+03  0.00000000000E+00 0.  1.
         -3    1    1    2    0  503  0.15194732230E+02  0.13209183584E+02 -0.16722490755E+03  0.16843257442E+03  0.00000000000E+00 0. -1.
<mgrwt>
<rscale>  2 0.20133614E+02</rscale>
<asrwt>0</asrwt>
<pdfrwt beam="1">  1       21 0.14294279E-03 0.20133614E+02</pdfrwt>
<pdfrwt beam="2">  1       21 0.73748414E-01 0.20133614E+02</pdfrwt>
<totfact> 0.88096337E+07</totfact>
</mgrwt>
</event>
<event>
 4    1  0.3862688E+004  0.2678861E+02  0.7546771E-02  0.1636565E+00
         21   -1    0    0  503  502  0.00000000000E+00  0.00000000000E+00  0.23295391218E+01  0.23295391218E+01  0.00000000000E+00 0. -1.
         21   -1    0    0  501  503 -0.00000000000E+00 -0.00000000000E+00 -0.36639395201E+03  0.36639395201E+03  0.00000000000E+00 0. -1.
          2    1    1    2  501    0  0.16041099271E+02 -0.21454895367E+02 -0.25559713524E+03  0.25699713022E+03  0.00000000000E+00 0.  1.
         -2    1    1    2    0  502 -0.16041099271E+02  0.21454895367E+02 -0.10846727765E+03  0.11172636091E+03  0.00000000000E+00 0. -1.
<mgrwt>
<rscale>  2 0.26788606E+02</rscale>
<asrwt>0</asrwt>
<pdfrwt beam="1">  1       21 0.35839095E-03 0.26788606E+02</pdfrwt>
<pdfrwt beam="2">  1       21 0.56368251E-01 0.26788606E+02</pdfrwt>
<totfact> 0.42862061E+07</totfact>
</mgrwt>
</event>
<event>
 4    1  0.3862688E+004  0.2434467E+02  0.7546771E-02  0.1670597E+00
         21   -1    0    0  501  502  0.00000000000E+00  0.00000000000E+00  0.40916635854E+03  0.40916635854E+03  0.00000000000E+00 0. -1.
         21   -1    0    0  502  503 -0.00000000000E+00 -0.00000000000E+00 -0.14488682676E+01  0.14488682676E+01  0.00000000000E+00 0. -1.
          3    1    1    2  501    0 -0.24134543105E+02 -0.31916792126E+01  0.20043184901E+03  0.20190490109E+03  0.00000000000E+00 0.  1.
         -3    1    1    2    0  503  0.24134543105E+02  0.31916792126E+01  0.20728564126E+03  0.20871032572E+03  0.00000000000E+00 0. -1.
<mgrwt>
<rscale>  2 0.24344671E+02</rscale>
<asrwt>0</asrwt>
<pdfrwt beam="1">  1       21 0.62948578E-01 0.24344671E+02</pdfrwt>
<pdfrwt beam="2">  1       21 0.22290314E-03 0.24344671E+02</pdfrwt>
<totfact> 0.67292665E+07</totfact>
</mgrwt>
</event>
<event>
 4    1  0.3862688E+004  0.2105615E+02  0.7546771E-02  0.1725106E+00
         21   -1    0    0  503  502  0.00000000000E+00  0.00000000000E+00  0.60559244549E+03  0.60559244549E+03  0.00000000000E+00 0.  1.
         21   -1    0    0  501  503 -0.00000000000E+00 -0.00000000000E+00 -0.73932700686E+00  0.73932700686E+00  0.00000000000E+00 0.  1.
          4    1    1    2  501    0 -0.91822583580E+01  0.18948547238E+02  0.27247705513E+03  0.27328941963E+03  0.00000000000E+00 0.  1.
         -4    1    1    2    0  502  0.91822583580E+01 -0.18948547238E+02  0.33237606335E+03  0.33304235286E+03  0.00000000000E+00 0. -1.
<mgrwt>
<rscale>  2 0.21056147E+02</rscale>
<asrwt>0</asrwt>
<pdfrwt beam="1">  1       21 0.93167672E-01 0.21056147E+02</pdfrwt>
<pdfrwt beam="2">  1       21 0.11374310E-03 0.21056147E+02</pdfrwt>
<totfact> 0.75528045E+07</totfact>
</mgrwt>
</event>
<event>
 4    1  0.3862688E+004  0.2614331E+02  0.7546771E-02  0.1645103E+00
         21   -1    0    0  501  502  0.00000000000E+00  0.00000000000E+00  0.25355222267E+01  0.25355222267E+01  0.00000000000E+00 0.  1.
         21   -1    0    0  502  503 -0.00000000000E+00 -0.00000000000E+00 -0.28451431481E+03  0.28451431481E+03  0.00000000000E+00 0.  1.
          4    1    1    2  501    0  0.24698727357E+02 -0.85700250095E+01 -0.17389540213E+03  0.17584960433E+03  0.00000000000E+00 0. -1.
         -4    1    1    2    0  503 -0.24698727357E+02  0.85700250095E+01 -0.10808339046E+03  0.11120023271E+03  0.00000000000E+00 0.  1.
<mgrwt>
<rscale>  2 0.26143306E+02</rscale>
<asrwt>0</asrwt>
<pdfrwt beam="1">  1       21 0.39008029E-03 0.26143306E+02</pdfrwt>
<pdfrwt beam="2">  1       21 0.43771439E-01 0.26143306E+02</pdfrwt>
<totfact> 0.61696257E+07</totfact>
</mgrwt>
</event>
<event>
 4    1  0.3862688E+004  0.2133764E+02  0.7546771E-02  0.1719965E+00
         21   -1    0    0  501  502  0.00000000000E+00  0.00000000000E+00  0.21551363950E+02  0.21551363950E+02  0.00000000000E+00 0.  1.
         21   -1    0    0  502  503 -0.00000000000E+00 -0.00000000000E+00 -0.21302990989E+02  0.21302990989E+02  0.00000000000E+00 0.  1.
          5    1    1    2  501    0 -0.19958860825E+02 -0.75457809981E+01 -0.18286841890E+01  0.21415859127E+02  0.00000000000E+00 0.  1.
         -5    1    1    2    0  503  0.19958860825E+02  0.75457809981E+01  0.20770571502E+01  0.21438495812E+02  0.00000000000E+00 0. -1.
<mgrwt>
<rscale>  2 0.21337641E+02</rscale>
<asrwt>0</asrwt>
<pdfrwt beam="1">  1       21 0.33155944E-02 0.21337641E+02</pdfrwt>
<pdfrwt beam="2">  1       21 0.32773832E-02 0.21337641E+02</pdfrwt>
<totfact> 0.18639901E+08</totfact>
</mgrwt>
</event>
<event>
 4    1  0.3862688E+004  0.3187352E+02  0.7546771E-02  0.1578257E+00
         21   -1    0    0  501  502  0.00000000000E+00  0.00000000000E+00  0.14885944703E+03  0.14885944703E+03  0.00000000000E+00 0.  1.
         21   -1    0    0  502  503 -0.00000000000E+00 -0.00000000000E+00 -0.77286118641E+01  0.77286118641E+01  0.00000000000E+00 0.  1.
          5    1    1    2  501    0  0.12534055928E+02 -0.29305606821E+02  0.97341116065E+02  0.10242662752E+03  0.00000000000E+00 0.  1.
         -5    1    1    2    0  503 -0.12534055928E+02  0.29305606821E+02  0.43789719103E+02  0.54161431372E+02  0.00000000000E+00 0. -1.
<mgrwt>
<rscale>  2 0.31873518E+02</rscale>
<asrwt>0</asrwt>
<pdfrwt beam="1">  1       21 0.22901451E-01 0.31873518E+02</pdfrwt>
<pdfrwt beam="2">  1       21 0.11890173E-02 0.31873518E+02</pdfrwt>
<totfact> 0.40168550E+07</totfact>
</mgrwt>
</event>
<event>
 4    1  0.3862688E+004  0.2462410E+02  0.7546771E-02  0.1666461E+00
         21   -1    0    0  503  502  0.00000000000E+00  0.00000000000E+00  0.11234022376E+04  0.11234022376E+04  0.00000000000E+00 0.  1.
         21   -1    0    0  501  503 -0.00000000000E+00 -0.00000000000E+00 -0.88925986484E+00  0.88925986484E+00  0.00000000000E+00 0.  1.
          1    1    1    2  501    0  0.21041914274E+02 -0.12790001477E+02  0.91368405404E+03  0.91401580780E+03  0.00000000000E+00 0.  1.
         -1    1    1    2    0  502 -0.21041914274E+02  0.12790001477E+02  0.20882892373E+03  0.21027568970E+03  0.00000000000E+00 0. -1.
<mgrwt>
<rscale>  2 0.24624100E+02</rscale>
<asrwt>0</asrwt>
<pdfrwt beam="1">  1       21 0.17282998E+00 0.24624100E+02</pdfrwt>
<pdfrwt beam="2">  1       21 0.13681011E-03 0.24624100E+02</pdfrwt>
<totfact> 0.14486446E+07</totfact>
</mgrwt>
</event>
<event>
 4    1  0.3862688E+004  0.2103421E+02  0.7546771E-02  0.1725511E+00
         21   -1    0    0  501  502  0.00000000000E+00  0.00000000000E+00  0.20769703720E+02  0.20769703720E+02  0.00000000000E+00 0. -1.
         21   -1    0    0  502  503 -0.00000000000E+00 -0.00000000000E+00 -0.22820449037E+02  0.22820449037E+02  0.00000000000E+00 0. -1.
          4    1    1    2  501    0  0.20734248613E+02  0.35396359920E+01 -0.66472790064E+01  0.22059564970E+02  0.00000000000E+00 0. -1.
         -4    1    1    2    0  503 -0.20734248613E+02 -0.35396359920E+01  0.45965336889E+01  0.21530587787E+02  0.00000000000E+00 0.  1.
<mgrwt>
<rscale>  2 0.21034212E+02</rscale>
<asrwt>0</asrwt>
<pdfrwt beam="1">  1       21 0.31953391E-02 0.21034212E+02</pdfrwt>
<pdfrwt beam="2">  1       21 0.35108383E-02 0.21034212E+02</pdfrwt>
<totfact> 0.17653931E+08</totfact>
</mgrwt>
</event>
<event>
 4    1  0.3862688E+004  0.2026839E+02  0.7546771E-02  0.1740043E+00
         21   -1    0    0  501  502  0.00000000000E+00  0.00000000000E+00  0.60868544423E+02  0.60868544423E+02  0.00000000000E+00 0.  1.
         21   -1    0    0  502  503 -0.00000000000E+00 -0.00000000000E+00 -0.93505250486E+01  0.93505250486E+01  0.00000000000E+00 0.  1.
          4    1    1    2  501    0  0.72411663549E+01 -0.18930742929E+02  0.72401923232E+01  0.21522729913E+02  0.00000000000E+00 0.  1.
         -4    1    1    2    0  503 -0.72411663549E+01  0.18930742929E+02  0.44277827052E+02  0.48696339559E+02  0.00000000000E+00 0. -1.
<mgrwt>
<rscale>  2 0.20268387E+02</rscale>
<asrwt>0</asrwt>
<pdfrwt beam="1">  1       21 0.93643912E-02 0.20268387E+02</pdfrwt>
<pdfrwt beam="2">  1       21 0.14385424E-02 0.20268387E+02</pdfrwt>
<totfact> 0.12373038E+08</totfact>
</mgrwt>
</event>
<event>
 4    1  0.3862688E+004  0.2096232E+02  0.7546771E-02  0.1726842E+00
         21   -1    0    0  501  502  0.00000000000E+00  0.00000000000E+00  0.21394158750E+02  0.21394158750E+02  0.00000000000E+00 0.  1.
         21   -1    0    0  502  503 -0.00000000000E+00 -0.00000000000E+00 -0.20988543158E+02  0.20988543158E+02  0.00000000000E+00 0.  1.
          1    1    1    2  501    0  0.10779646457E+02 -0.17978271065E+02 -0.28978528716E+01  0.21161676670E+02  0.00000000000E+00 0. -1.
         -1    1    1    2    0  503 -0.10779646457E+02  0.17978271065E+02  0.33034684641E+01  0.21221025237E+02  0.00000000000E+00 0.  1.
<mgrwt>
<rscale>  2 0.20962324E+02</rscale>
<asrwt>0</asrwt>
<pdfrwt beam="1">  1       21 0.32914091E-02 0.20962324E+02</pdfrwt>
<pdfrwt beam="2">  1       21 0.32290066E-02 0.20962324E+02</pdfrwt>
<totfact> 0.19186498E+08</totfact>
</mgrwt>
</event>
<event>
 4    1  0.3862688E+004  0.2220110E+02  0.7546771E-02  0.1704797E+00
         21   -1    0    0  501  502  0.00000000000E+00  0.00000000000E+00  0.46987788183E+01  0.46987788183E+01  0.00000000000E+00 0. -1.
         21   -1    0    0  502  503 -0.00000000000E+00 -0.00000000000E+00 -0.11577278529E+03  0.11577278529E+03  0.00000000000E+00 0. -1.
          1    1    1    2  501    0 -0.16865044960E+02 -0.14438119134E+02 -0.73998904513E+02  0.77257536168E+02  0.00000000000E+00 0.  1.
         -1    1    1    2    0  503  0.16865044960E+02  0.14438119134E+02 -0.37075101961E+02  0.43214027943E+02  0.00000000000E+00 0. -1.
<mgrwt>
<rscale>  2 0.22201104E+02</rscale>
<asrwt>0</asrwt>
<pdfrwt beam="1">  1       21 0.72288907E-03 0.22201104E+02</pdfrwt>
<pdfrwt beam="2">  1       21 0.17811197E-01 0.22201104E+02</pdfrwt>
<totfact> 0.12112893E+08</totfact>
</mgrwt>
</event>
<event>
 4    1  0.3862688E+004  0.2939089E+02  0.7546771E-02  0.1604921E+00
         21   -1    0    0  501  502  0.00000000000E+00  0.00000000000E+00  0.12999806686E+04  0.12999806686E+04  0.00000000000E+00 0.  1.
         21   -1    0    0  502  503 -0.00000000000E+00 -0.00000000000E+00 -0.87805121355E+00  0.87805121355E+00  0.00000000000E+00 0.  1.
          1    1    1    2  501    0  0.27597605831E+02  0.10109234846E+02  0.32877583797E+03  0.33008692205E+03  0.00000000000E+00 0.  1.
         -1    1    1    2    0  503 -0.27597605831E+02 -0.10109234846E+02  0.97032677940E+03  0.97077179774E+03  0.00000000000E+00 0. -1.
<mgrwt>
<rscale>  2 0.29390891E+02</rscale>
<asrwt>0</asrwt>
<pdfrwt beam="1">  1       21 0.19999549E+00 0.29390891E+02</pdfrwt>
<pdfrwt beam="2">  1       21 0.13508584E-03 0.29390891E+02</pdfrwt>
<totfact> 0.10383681E+07</totfact>
</mgrwt>
</event>
<event>
 4    1  0.3862688E+004  0.2206931E+02  0.7546771E-02  0.1707056E+00
         21   -1    0    0  503  502  0.00000000000E+00  0.00000000000E+00  0.29537816943E+02  0.29537816943E+02  0.00000000000E+00 0. -1.
         21   -1    0    0  501  503 -0.00000000000E+00 -0.00000000000E+00 -0.21269669237E+02  0.21269669237E+02  0.00000000000E+00 0. -1.
          1    1    1    2  501    0 -0.16008348381E+02 -0.15191679496E+02  0.16177597579E+02  0.27363643895E+02  0.00000000000E+00 0. -1.
         -1    1    1    2    0  502  0.16008348381E+02  0.15191679496E+02 -0.79094498728E+01  0.23443842285E+02  0.00000000000E+00 0.  1.
<mgrwt>
<rscale>  2 0.22069308E+02</rscale>
<asrwt>0</asrwt>
<pdfrwt beam="1">  1       21 0.45442795E-02 0.22069308E+02</pdfrwt>
<pdfrwt beam="2">  1       21 0.32722568E-02 0.22069308E+02</pdfrwt>
<totfact> 0.11508686E+08</totfact>
</mgrwt>
</event>
<event>
 4    1  0.3862688E+004  0.2139980E+02  0.7546771E-02  0.1718844E+00
         21   -1    0    0  503  502  0.00000000000E+00  0.00000000000E+00  0.53425584597E+01  0.53425584597E+01  0.00000000000E+00 0.  1.
         21   -1    0    0  501  503 -0.00000000000E+00 -0.00000000000E+00 -0.85861540656E+02  0.85861540656E+02  0.00000000000E+00 0.  1.
          2    1    1    2  501    0  0.11578980173E+02  0.17996634812E+02 -0.42126196652E+02  0.47250059162E+02  0.00000000000E+00 0.  1.
         -2    1    1    2    0  502 -0.11578980173E+02 -0.17996634812E+02 -0.38392785544E+02  0.43954039954E+02  0.00000000000E+00 0. -1.
<mgrwt>
<rscale>  2 0.21399805E+02</rscale>
<asrwt>0</asrwt>
<pdfrwt beam="1">  1       21 0.82193206E-03 0.21399805E+02</pdfrwt>
<pdfrwt beam="2">  1       21 0.13209468E-01 0.21399805E+02</pdfrwt>
<totfact> 0.16460463E+08</totfact>
</mgrwt>
</event>
<event>
 4    1  0.3862688E+004  0.2201865E+02  0.7546771E-02  0.1707930E+00
         21   -1    0    0  501  502  0.00000000000E+00  0.00000000000E+00  0.34849765426E+01  0.34849765426E+01  0.00000000000E+00 0. -1.
         21   -1    0    0  502  503 -0.00000000000E+00 -0.00000000000E+00 -0.15479590419E+03  0.15479590419E+03  0.00000000000E+00 0. -1.
          4    1    1    2  501    0 -0.17161148047E+02  0.13795501529E+02 -0.50468774420E+02  0.55062855503E+02  0.00000000000E+00 0. -1.
         -4    1    1    2    0  503  0.17161148047E+02 -0.13795501529E+02 -0.10084215323E+03  0.10321802523E+03  0.00000000000E+00 0.  1.
<mgrwt>
<rscale>  2 0.22018648E+02</rscale>
<asrwt>0</asrwt>
<pdfrwt beam="1">  1       21 0.53615010E-03 0.22018648E+02</pdfrwt>
<pdfrwt beam="2">  1       21 0.23814760E-01 0.22018648E+02</pdfrwt>
<totfact> 0.11325839E+08</totfact>
</mgrwt>
</event>
<event>
 4    1  0.3862688E+004  0.2817283E+02  0.7546771E-02  0.1619211E+00
         21   -1    0    0  501  502  0.00000000000E+00  0.00000000000E+00  0.34326341789E+01  0.34326341789E+01  0.00000000000E+00 0. -1.
         21   -1    0    0  502  503 -0.00000000000E+00 -0.00000000000E+00 -0.23156326393E+03  0.23156326393E+03  0.00000000000E+00 0. -1.
          1    1    1    2  501    0  0.26960118822E+02 -0.81768299781E+01 -0.11856052260E+03  0.12186183190E+03  0.00000000000E+00 0.  1.
         -1    1    1    2    0  503 -0.26960118822E+02  0.81768299781E+01 -0.10957010715E+03  0.11313406620E+03  0.00000000000E+00 0. -1.
<mgrwt>
<rscale>  2 0.28172834E+02</rscale>
<asrwt>0</asrwt>
<pdfrwt beam="1">  1       21 0.52809742E-03 0.28172834E+02</pdfrwt>
<pdfrwt beam="2">  1       21 0.35625127E-01 0.28172834E+02</pdfrwt>
<totfact> 0.59201608E+07</totfact>
</mgrwt>
</event>
<event>
 4    1  0.3862688E+004  0.5815133E+02  0.7546771E-02  0.1405758E+00
         21   -1    0    0  503  502  0.00000000000E+00  0.00000000000E+00  0.24118104015E+03  0.24118104015E+03  0.00000000000E+00 0.  1.
         21   -1    0    0  501  503 -0.00000000000E+00 -0.00000000000E+00 -0.39806391200E+02  0.39806391200E+02  0.00000000000E+00 0.  1.
          5    1    1    2  501    0  0.34740631199E+02 -0.46633307644E+02  0.21376272742E+03  0.22153121783E+03  0.00000000000E+00 0. -1.
         -5    1    1    2    0  502 -0.34740631199E+02  0.46633307644E+02 -0.12388078473E+02  0.59456213520E+02  0.00000000000E+00 0.  1.
<mgrwt>
<rscale>  2 0.58151327E+02</rscale>
<asrwt>0</asrwt>
<pdfrwt beam="1">  1       21 0.37104775E-01 0.58151327E+02</pdfrwt>
<pdfrwt beam="2">  1       21 0.61240603E-02 0.58151327E+02</pdfrwt>
<totfact> 0.13030507E+06</totfact>
</mgrwt>
</event>
<event>
 4    1  0.3862688E+004  0.2713962E+02  0.7546771E-02  0.1632044E+00
         21   -1    0    0  503  502  0.00000000000E+00  0.00000000000E+00  0.50772467709E+01  0.50772467709E+01  0.00000000000E+00 0.  1.
         21   -1    0    0  501  503 -0.00000000000E+00 -0.00000000000E+00 -0.14562166993E+03  0.14562166993E+03  0.00000000000E+00 0.  1.
          1    1    1    2  501    0  0.17411640791E+00  0.27139062278E+02 -0.74907613240E+02  0.79672514326E+02  0.00000000000E+00 0. -1.
         -1    1    1    2    0  502 -0.17411640791E+00 -0.27139062278E+02 -0.65636809920E+02  0.71026402375E+02  0.00000000000E+00 0.  1.
<mgrwt>
<rscale>  2 0.27139621E+02</rscale>
<asrwt>0</asrwt>
<pdfrwt beam="1">  1       21 0.78111487E-03 0.27139621E+02</pdfrwt>
<pdfrwt beam="2">  1       21 0.22403334E-01 0.27139621E+02</pdfrwt>
<totfact> 0.76149514E+07</totfact>
</mgrwt>
</event>
<event>
 4    1  0.3862688E+004  0.3259039E+02  0.7546771E-02  0.1571102E+00
         21   -1    0    0  501  502  0.00000000000E+00  0.00000000000E+00  0.32024608401E+02  0.32024608401E+02  0.00000000000E+00 0.  1.
         21   -1    0    0  502  503 -0.00000000000E+00 -0.00000000000E+00 -0.69693245897E+02  0.69693245897E+02  0.00000000000E+00 0.  1.
          3    1    1    2  501    0 -0.28784229520E+02  0.15284040015E+02 -0.55653936534E+02  0.64494142370E+02  0.00000000000E+00 0.  1.
         -3    1    1    2    0  503  0.28784229520E+02 -0.15284040015E+02  0.17985299039E+02  0.37223711929E+02  0.00000000000E+00 0. -1.
<mgrwt>
<rscale>  2 0.32590393E+02</rscale>
<asrwt>0</asrwt>
<pdfrwt beam="1">  1       21 0.49268629E-02 0.32590393E+02</pdfrwt>
<pdfrwt beam="2">  1       21 0.10722038E-01 0.32590393E+02</pdfrwt>
<totfact> 0.16246856E+07</totfact>
</mgrwt>
</event>
<event>
 4    1  0.3862688E+004  0.2802362E+02  0.7546771E-02  0.1621022E+00
         21   -1    0    0  501  502  0.00000000000E+00  0.00000000000E+00  0.22448262707E+02  0.22448262707E+02  0.00000000000E+00 0. -1.
         21   -1    0    0  502  503 -0.00000000000E+00 -0.00000000000E+00 -0.36014506417E+02  0.36014506417E+02  0.00000000000E+00 0. -1.
          2    1    1    2  501    0  0.16500451082E+02 -0.22650795576E+02 -0.18377618302E+01  0.28083817310E+02  0.00000000000E+00 0.  1.
         -2    1    1    2    0  503 -0.16500451082E+02  0.22650795576E+02 -0.11728481880E+02  0.30378951814E+02  0.00000000000E+00 0. -1.
<mgrwt>
<rscale>  2 0.28023623E+02</rscale>
<asrwt>0</asrwt>
<pdfrwt beam="1">  1       21 0.34535789E-02 0.28023623E+02</pdfrwt>
<pdfrwt beam="2">  1       21 0.55406932E-02 0.28023623E+02</pdfrwt>
<totfact> 0.82246377E+07</totfact>
</mgrwt>
</event>
<event>
 4    1  0.3862688E+004  0.2267976E+02  0.7546771E-02  0.1696754E+00
         21   -1    0    0  501  502  0.00000000000E+00  0.00000000000E+00  0.46369838657E+01  0.46369838657E+01  0.00000000000E+00 0. -1.
         21   -1    0    0  502  503 -0.00000000000E+00 -0.00000000000E+00 -0.11396588333E+03  0.11396588333E+03  0.00000000000E+00 0. -1.
          4    1    1    2  501    0  0.85600314036E+01 -0.21002322314E+02 -0.64346295481E+02  0.68226222396E+02  0.00000000000E+00 0.  1.
         -4    1    1    2    0  503 -0.85600314036E+01  0.21002322314E+02 -0.44982603980E+02  0.50376644797E+02  0.00000000000E+00 0. -1.
<mgrwt>
<rscale>  2 0.22679764E+02</rscale>
<asrwt>0</asrwt>
<pdfrwt beam="1">  1       21 0.71338215E-03 0.22679764E+02</pdfrwt>
<pdfrwt beam="2">  1       21 0.17533212E-01 0.22679764E+02</pdfrwt>
<totfact> 0.12771376E+08</totfact>
</mgrwt>
</event>
<event>
 4    1  0.3862688E+004  0.2255378E+02  0.7546771E-02  0.1698847E+00
         21   -1    0    0  503  502  0.00000000000E+00  0.00000000000E+00  0.96384893247E+02  0.96384893247E+02  0.00000000000E+00 0.  1.
         21   -1    0    0  501  503 -0.00000000000E+00 -0.00000000000E+00 -0.69103800361E+01  0.69103800361E+01  0.00000000000E+00 0.  1.
          2    1    1    2  501    0 -0.39437751047E+01  0.22206294276E+02  0.69843077629E+02  0.73394334660E+02  0.00000000000E+00 0.  1.
         -2    1    1    2    0  502  0.39437751047E+01 -0.22206294276E+02  0.19631435582E+02  0.29900938623E+02  0.00000000000E+00 0. -1.
<mgrwt>
<rscale>  2 0.22553777E+02</rscale>
<asrwt>0</asrwt>
<pdfrwt beam="1">  1       21 0.14828444E-01 0.22553777E+02</pdfrwt>
<pdfrwt beam="2">  1       21 0.10631355E-02 0.22553777E+02</pdfrwt>
<totfact> 0.93534843E+07</totfact>
</mgrwt>
</event>
<event>
 4    1  0.3862688E+004  0.2139148E+02  0.7546771E-02  0.1718994E+00
         21   -1    0    0  501  502  0.00000000000E+00  0.00000000000E+00  0.26900667196E+01  0.26900667196E+01  0.00000000000E+00 0. -1.
         21   -1    0    0  502  503 -0.00000000000E+00 -0.00000000000E+00 -0.22687284027E+03  0.22687284027E+03  0.00000000000E+00 0. -1.
          5    1    1    2  501    0 -0.98834115344E+01 -0.18971383442E+02 -0.54675821988E+02  0.58711504182E+02  0.00000000000E+00 0.  1.
         -5    1    1    2    0  503  0.98834115344E+01  0.18971383442E+02 -0.16950695157E+03  0.17085140281E+03  0.00000000000E+00 0. -1.
<mgrwt>
<rscale>  2 0.21391475E+02</rscale>
<asrwt>0</asrwt>
<pdfrwt beam="1">  1       21 0.41385641E-03 0.21391475E+02</pdfrwt>
<pdfrwt beam="2">  1       21 0.34903515E-01 0.21391475E+02</pdfrwt>
<totfact> 0.82400391E+07</totfact>
</mgrwt>
</event>
<event>
 4    1  0.3862688E+004  0.5796056E+02  0.7546771E-02  0.1406595E+00
         21   -1    0    0  501  502  0.00000000000E+00  0.00000000000E+00  0.20625826004E+03  0.20625826004E+03  0.00000000000E+00 0. -1.
         21   -1    0    0  502  503 -0.00000000000E+00 -0.00000000000E+00 -0.16306614388E+02  0.16306614388E+02  0.00000000000E+00 0. -1.
          2    1    1    2  501    0 -0.12739749873E+02  0.56543132484E+02  0.98787924965E+02  0.11453593836E+03  0.00000000000E+00 0.  1.
         -2    1    1    2    0  503  0.12739749873E+02 -0.56543132484E+02  0.91163720690E+02  0.10802893607E+03  0.00000000000E+00 0. -1.
<mgrwt>
<rscale>  2 0.57960565E+02</rscale>
<asrwt>0</asrwt>
<pdfrwt beam="1">  1       21 0.31732038E-01 0.57960565E+02</pdfrwt>
<pdfrwt beam="2">  1       21 0.25087101E-02 0.57960565E+02</pdfrwt>
<totfact> 0.74982217E+06</totfact>
</mgrwt>
</event>
<event>
 4    1  0.3862688E+004  0.2068944E+02  0.7546771E-02  0.1731955E+00
         21   -1    0    0  503  502  0.00000000000E+00  0.00000000000E+00  0.15521865844E+03  0.15521865844E+03  0.00000000000E+00 0. -1.
         21   -1    0    0  501  503 -0.00000000000E+00 -0.00000000000E+00 -0.78370822963E+01  0.78370822963E+01  0.00000000000E+00 0. -1.
          5    1    1    2  501    0  0.18304151171E+02 -0.96442118943E+01  0.80562224223E+01  0.22202601038E+02  0.00000000000E+00 0.  1.
         -5    1    1    2    0  502 -0.18304151171E+02  0.96442118943E+01  0.13932535373E+03  0.14085313970E+03  0.00000000000E+00 0. -1.
<mgrwt>
<rscale>  2 0.20689436E+02</rscale>
<asrwt>0</asrwt>
<pdfrwt beam="1">  1       21 0.23879791E-01 0.20689436E+02</pdfrwt>
<pdfrwt beam="2">  1       21 0.12057051E-02 0.20689436E+02</pdfrwt>
<totfact> 0.33170882E+07</totfact>
</mgrwt>
</event>
<event>
 4    1  0.3862688E+004  0.2206637E+02  0.7546771E-02  0.1707107E+00
         21   -1    0    0  501  502  0.00000000000E+00  0.00000000000E+00  0.31013248779E+01  0.31013248779E+01  0.00000000000E+00 0. -1.
         21   -1    0    0  502  503 -0.00000000000E+00 -0.00000000000E+00 -0.17582901726E+03  0.17582901726E+03  0.00000000000E+00 0. -1.
          3    1    1    2  501    0 -0.12164018009E+02  0.18410903128E+02 -0.11563639276E+03  0.11772297999E+03  0.00000000000E+00 0. -1.
         -3    1    1    2    0  503  0.12164018009E+02 -0.18410903128E+02 -0.57091299625E+02  0.61207362147E+02  0.00000000000E+00 0.  1.
<mgrwt>
<rscale>  2 0.22066370E+02</rscale>
<asrwt>0</asrwt>
<pdfrwt beam="1">  1       21 0.47712683E-03 0.22066370E+02</pdfrwt>
<pdfrwt beam="2">  1       21 0.27050622E-01 0.22066370E+02</pdfrwt>
<totfact> 0.10723415E+08</totfact>
</mgrwt>
</event>
<event>
 4    1  0.3862688E+004  0.2054440E+02  0.7546771E-02  0.1734714E+00
         21   -1    0    0  503  502  0.00000000000E+00  0.00000000000E+00  0.21223134044E+02  0.21223134044E+02  0.00000000000E+00 0.  1.
         21   -1    0    0  501  503 -0.00000000000E+00 -0.00000000000E+00 -0.19965240011E+02  0.19965240011E+02  0.00000000000E+00 0.  1.
          2    1    1    2  501    0 -0.15211446949E+02  0.13808851941E+02  0.19150253306E+01  0.20633463893E+02  0.00000000000E+00 0. -1.
         -2    1    1    2    0  502  0.15211446949E+02 -0.13808851941E+02 -0.65713129815E+00  0.20554910162E+02  0.00000000000E+00 0.  1.
<mgrwt>
<rscale>  2 0.20544403E+02</rscale>
<asrwt>0</asrwt>
<pdfrwt beam="1">  1       21 0.32650975E-02 0.20544403E+02</pdfrwt>
<pdfrwt beam="2">  1       21 0.30715754E-02 0.20544403E+02</pdfrwt>
<totfact> 0.20860987E+08</totfact>
</mgrwt>
</event>
<event>
 4    1  0.3862688E+004  0.3233230E+02  0.7546771E-02  0.1573652E+00
         21   -1    0    0  503  502  0.00000000000E+00  0.00000000000E+00  0.13250832584E+01  0.13250832584E+01  0.00000000000E+00 0.  1.
         21   -1    0    0  501  503 -0.00000000000E+00 -0.00000000000E+00 -0.10017628446E+04  0.10017628446E+04  0.00000000000E+00 0.  1.
          5    1    1    2  501    0 -0.31776950376E+02  0.59668319890E+01 -0.73140485588E+03  0.73211914390E+03  0.00000000000E+00 0.  1.
         -5    1    1    2    0  502  0.31776950376E+02 -0.59668319890E+01 -0.26903290549E+03  0.27096878398E+03  0.00000000000E+00 0. -1.
<mgrwt>
<rscale>  2 0.32332301E+02</rscale>
<asrwt>0</asrwt>
<pdfrwt beam="1">  1       21 0.20385916E-03 0.32332301E+02</pdfrwt>
<pdfrwt beam="2">  1       21 0.15411721E+00 0.32332301E+02</pdfrwt>
<totfact> 0.11148843E+07</totfact>
</mgrwt>
</event>
<event>
 4    1  0.3862688E+004  0.2661242E+02  0.7546771E-02  0.1638867E+00
         21   -1    0    0  501  502  0.00000000000E+00  0.00000000000E+00  0.11169960015E+02  0.11169960015E+02  0.00000000000E+00 0. -1.
         21   -1    0    0  502  503 -0.00000000000E+00 -0.00000000000E+00 -0.68822131801E+02  0.68822131801E+02  0.00000000000E+00 0. -1.
          3    1    1    2  501    0  0.15757100343E+02  0.21446084374E+02 -0.17603947436E+02  0.31907988209E+02  0.00000000000E+00 0.  1.
         -3    1    1    2    0  503 -0.15757100343E+02 -0.21446084374E+02 -0.40048224350E+02  0.48084103608E+02  0.00000000000E+00 0. -1.
<mgrwt>
<rscale>  2 0.26612417E+02</rscale>
<asrwt>0</asrwt>
<pdfrwt beam="1">  1       21 0.17184554E-02 0.26612417E+02</pdfrwt>
<pdfrwt beam="2">  1       21 0.10588020E-01 0.26612417E+02</pdfrwt>
<totfact> 0.83126851E+07</totfact>
</mgrwt>
</event>
<event>
 4    1  0.3862688E+004  0.2039850E+02  0.7546771E-02  0.1737518E+00
         21   -1    0    0  503  502  0.00000000000E+00  0.00000000000E+00  0.23901439658E+02  0.23901439658E+02  0.00000000000E+00 0.  1.
         21   -1    0    0  501  503 -0.00000000000E+00 -0.00000000000E+00 -0.18821915928E+02  0.18821915928E+02  0.00000000000E+00 0.  1.
          3    1    1    2  501    0  0.27990733971E+01 -0.20205543343E+02  0.83926525226E+01  0.22057547688E+02  0.00000000000E+00 0. -1.
         -3    1    1    2    0  502 -0.27990733971E+01  0.20205543343E+02 -0.33131287920E+01  0.20665807897E+02  0.00000000000E+00 0.  1.
<mgrwt>
<rscale>  2 0.20398500E+02</rscale>
<asrwt>0</asrwt>
<pdfrwt beam="1">  1       21 0.36771446E-02 0.20398500E+02</pdfrwt>
<pdfrwt beam="2">  1       21 0.28956794E-02 0.20398500E+02</pdfrwt>
<totfact> 0.18947690E+08</totfact>
</mgrwt>
</event>
<event>
 4    1  0.3862688E+004  0.2007014E+02  0.7546771E-02  0.1743937E+00
         21   -1    0    0  503  502  0.00000000000E+00  0.00000000000E+00  0.11287396040E+02  0.11287396040E+02  0.00000000000E+00 0. -1.
         21   -1    0    0  501  503 -0.00000000000E+00 -0.00000000000E+00 -0.36167231782E+02  0.36167231782E+02  0.00000000000E+00 0. -1.
          3    1    1    2  501    0 -0.40123390515E+01  0.19664990440E+02 -0.97051524904E+01  0.22293512476E+02  0.00000000000E+00 0. -1.
         -3    1    1    2    0  502  0.40123390515E+01 -0.19664990440E+02 -0.15174683251E+02  0.25161115346E+02  0.00000000000E+00 0.  1.
<mgrwt>
<rscale>  2 0.20070145E+02</rscale>
<asrwt>0</asrwt>
<pdfrwt beam="1">  1       21 0.17365225E-02 0.20070145E+02</pdfrwt>
<pdfrwt beam="2">  1       21 0.55641895E-02 0.20070145E+02</pdfrwt>
<totfact> 0.21480687E+08</totfact>
</mgrwt>
</event>
<event>
 4    1  0.3862688E+004  0.2556060E+02  0.7546771E-02  0.1653078E+00
         21   -1    0    0  501  502  0.00000000000E+00  0.00000000000E+00  0.14426827115E+01  0.14426827115E+01  0.00000000000E+00 0.  1.
         21   -1    0    0  502  503 -0.00000000000E+00 -0.00000000000E+00 -0.46640984004E+03  0.46640984004E+03  0.00000000000E+00 0.  1.
          3    1    1    2  501    0  0.14419479937E+02 -0.21105039821E+02 -0.27234401461E+03  0.27354086788E+03  0.00000000000E+00 0.  1.
         -3    1    1    2    0  503 -0.14419479937E+02  0.21105039821E+02 -0.19262314272E+03  0.19431165487E+03  0.00000000000E+00 0. -1.
<mgrwt>
<rscale>  2 0.25560597E+02</rscale>
<asrwt>0</asrwt>
<pdfrwt beam="1">  1       21 0.22195111E-03 0.25560597E+02</pdfrwt>
<pdfrwt beam="2">  1       21 0.71755384E-01 0.25560597E+02</pdfrwt>
<totfact> 0.52374724E+07</totfact>
</mgrwt>
</event>
<event>
 4    1  0.3862688E+004  0.2095515E+02  0.7546771E-02  0.1726975E+00
         21   -1    0    0  501  502  0.00000000000E+00  0.00000000000E+00  0.44398437601E+03  0.44398437601E+03  0.00000000000E+00 0.  1.
         21   -1    0    0  502  503 -0.00000000000E+00 -0.00000000000E+00 -0.11821721232E+01  0.11821721232E+01  0.00000000000E+00 0.  1.
          4    1    1    2  501    0 -0.10666761167E+02 -0.18037138284E+02  0.13143480982E+03  0.13309480600E+03  0.00000000000E+00 0. -1.
         -4    1    1    2    0  503  0.10666761167E+02  0.18037138284E+02  0.31136739407E+03  0.31207174213E+03  0.00000000000E+00 0.  1.
<mgrwt>
<rscale>  2 0.20955146E+02</rscale>
<asrwt>0</asrwt>
<pdfrwt beam="1">  1       21 0.68305156E-01 0.20955146E+02</pdfrwt>
<pdfrwt beam="2">  1       21 0.18187299E-03 0.20955146E+02</pdfrwt>
<totfact> 0.73747539E+07</totfact>
</mgrwt>
</event>
<event>
 4    1  0.3862688E+004  0.4154399E+02  0.7546771E-02  0.1497147E+00
         21   -1    0    0  501  502  0.00000000000E+00  0.00000000000E+00  0.17319887702E+02  0.17319887702E+02  0.00000000000E+00 0.  1.
         21   -1    0    0  502  503 -0.00000000000E+00 -0.00000000000E+00 -0.10064474955E+03  0.10064474955E+03  0.00000000000E+00 0.  1.
          4    1    1    2  501    0 -0.40339747601E+02  0.99301503817E+01 -0.35794547410E+02  0.54837512228E+02  0.00000000000E+00 0. -1.
         -4    1    1    2    0  503  0.40339747601E+02 -0.99301503817E+01 -0.47530314433E+02  0.63127125019E+02  0.00000000000E+00 0.  1.
<mgrwt>
<rscale>  2 0.41543990E+02</rscale>
<asrwt>0</asrwt>
<pdfrwt beam="1">  1       21 0.26645982E-02 0.41543990E+02</pdfrwt>
<pdfrwt beam="2">  1       21 0.15483807E-01 0.41543990E+02</pdfrwt>
<totfact> 0.24036171E+07</totfact>
</mgrwt>
</event>
<event>
 4    1  0.3862688E+004  0.2385515E+02  0.7546771E-02  0.1678012E+00
         21   -1    0    0  501  502  0.00000000000E+00  0.00000000000E+00  0.70855613481E+01  0.70855613481E+01  0.00000000000E+00 0.  1.
         21   -1    0    0  502  503 -0.00000000000E+00 -0.00000000000E+00 -0.80333594168E+02  0.80333594168E+02  0.00000000000E+00 0.  1.
          2    1    1    2  501    0  0.13875546527E+02 -0.19404566279E+02 -0.35936989849E+02  0.43133921956E+02  0.00000000000E+00 0. -1.
         -2    1    1    2    0  503 -0.13875546527E+02  0.19404566279E+02 -0.37311042971E+02  0.44285233561E+02  0.00000000000E+00 0.  1.
<mgrwt>
<rscale>  2 0.23855146E+02</rscale>
<asrwt>0</asrwt>
<pdfrwt beam="1">  1       21 0.10900864E-02 0.23855146E+02</pdfrwt>
<pdfrwt beam="2">  1       21 0.12359014E-01 0.23855146E+02</pdfrwt>
<totfact> 0.12451465E+08</totfact>
</mgrwt>
</event>
<event>
 4    1  0.3862688E+004  0.2343985E+02  0.7546771E-02  0.1684478E+00
         21   -1    0    0  503  502  0.00000000000E+00  0.00000000000E+00  0.15876792266E+03  0.15876792266E+03  0.00000000000E+00 0. -1.
         21   -1    0    0  501  503 -0.00000000000E+00 -0.00000000000E+00 -0.39175998883E+01  0.39175998883E+01  0.00000000000E+00 0. -1.
          4    1    1    2  501    0  0.17161228908E+02 -0.15966180845E+02  0.49641877780E+02  0.54897565865E+02  0.00000000000E+00 0.  1.
         -4    1    1    2    0  502 -0.17161228908E+02  0.15966180845E+02  0.10520844499E+03  0.10778795669E+03  0.00000000000E+00 0. -1.
<mgrwt>
<rscale>  2 0.23439853E+02</rscale>
<asrwt>0</asrwt>
<pdfrwt beam="1">  1       21 0.24425829E-01 0.23439853E+02</pdfrwt>
<pdfrwt beam="2">  1       21 0.60270780E-03 0.23439853E+02</pdfrwt>
<totfact> 0.92650138E+07</totfact>
</mgrwt>
</event>
<event>
 4    1  0.3862688E+004  0.2147258E+02  0.7546771E-02  0.1717536E+00
         21   -1    0    0  503  502  0.00000000000E+00  0.00000000000E+00  0.54586252904E+00  0.54586252904E+00  0.00000000000E+00 0. -1.
         21   -1    0    0  501  503 -0.00000000000E+00 -0.00000000000E+00 -0.88021005186E+03  0.88021005186E+03  0.00000000000E+00 0. -1.
          3    1    1    2  501    0 -0.91610916209E+00 -0.21453028685E+02 -0.52832610953E+03  0.52876228091E+03  0.00000000000E+00 0.  1.
         -3    1    1    2    0  502  0.91610916209E+00  0.21453028685E+02 -0.35133807980E+03  0.35199363349E+03  0.00000000000E+00 0. -1.
<mgrwt>
<rscale>  2 0.21472580E+02</rscale>
<asrwt>0</asrwt>
<pdfrwt beam="1">  1       21 0.83978571E-04 0.21472580E+02</pdfrwt>
<pdfrwt beam="2">  1       21 0.13541738E+00 0.21472580E+02</pdfrwt>
<totfact> 0.50730098E+07</totfact>
</mgrwt>
</event>
<event>
 4    1  0.3862688E+004  0.2460185E+02  0.7546771E-02  0.1666787E+00
         21   -1    0    0  503  502  0.00000000000E+00  0.00000000000E+00  0.20101881950E+03  0.20101881950E+03  0.00000000000E+00 0. -1.
         21   -1    0    0  501  503 -0.00000000000E+00 -0.00000000000E+00 -0.30204793625E+01  0.30204793625E+01  0.00000000000E+00 0. -1.
          5    1    1    2  501    0  0.23953490788E+02  0.56108216007E+01  0.93259038754E+02  0.96449465261E+02  0.00000000000E+00 0. -1.
         -5    1    1    2    0  502 -0.23953490788E+02 -0.56108216007E+01  0.10473930138E+03  0.10758983360E+03  0.00000000000E+00 0.  1.
<mgrwt>
<rscale>  2 0.24601850E+02</rscale>
<asrwt>0</asrwt>
<pdfrwt beam="1">  1       21 0.30925962E-01 0.24601850E+02</pdfrwt>
<pdfrwt beam="2">  1       21 0.46468929E-03 0.24601850E+02</pdfrwt>
<totfact> 0.90049332E+07</totfact>
</mgrwt>
</event>
<event>
 4    1  0.3862688E+004  0.2178159E+02  0.7546771E-02  0.1712057E+00
         21   -1    0    0  501  502  0.00000000000E+00  0.00000000000E+00  0.42539607878E+02  0.42539607878E+02  0.00000000000E+00 0.  1.
         21   -1    0    0  502  503 -0.00000000000E+00 -0.00000000000E+00 -0.12022517673E+02  0.12022517673E+02  0.00000000000E+00 0.  1.
          2    1    1    2  501    0 -0.74107967970E+01  0.20482131173E+02  0.22595937706E+02  0.31384932808E+02  0.00000000000E+00 0. -1.
         -2    1    1    2    0  503  0.74107967970E+01 -0.20482131173E+02  0.79211524981E+01  0.23177192743E+02  0.00000000000E+00 0.  1.
<mgrwt>
<rscale>  2 0.21781589E+02</rscale>
<asrwt>0</asrwt>
<pdfrwt beam="1">  1       21 0.65445550E-02 0.21781589E+02</pdfrwt>
<pdfrwt beam="2">  1       21 0.18496181E-02 0.21781589E+02</pdfrwt>
<totfact> 0.15446761E+08</totfact>
</mgrwt>
</event>
<event>
 4    1  0.3862688E+004  0.2800181E+02  0.7546771E-02  0.1621288E+00
         21   -1    0    0  503  502  0.00000000000E+00  0.00000000000E+00  0.16075385966E+01  0.16075385966E+01  0.00000000000E+00 0. -1.
         21   -1    0    0  501  503 -0.00000000000E+00 -0.00000000000E+00 -0.60464010748E+03  0.60464010748E+03  0.00000000000E+00 0. -1.
          1    1    1    2  501    0  0.27088706693E+02  0.70924844761E+01 -0.16824632808E+03  0.17056062933E+03  0.00000000000E+00 0. -1.
         -1    1    1    2    0  502 -0.27088706693E+02 -0.70924844761E+01 -0.43478624081E+03  0.43568701675E+03  0.00000000000E+00 0.  1.
<mgrwt>
<rscale>  2 0.28001810E+02</rscale>
<asrwt>0</asrwt>
<pdfrwt beam="1">  1       21 0.24731369E-03 0.28001810E+02</pdfrwt>
<pdfrwt beam="2">  1       21 0.93021531E-01 0.28001810E+02</pdfrwt>
<totfact> 0.26269350E+07</totfact>
</mgrwt>
</event>
<event>
 4    1  0.3862688E+004  0.2486475E+02  0.7546771E-02  0.1662952E+00
         21   -1    0    0  503  502  0.00000000000E+00  0.00000000000E+00  0.78515023385E+01  0.78515023385E+01  0.00000000000E+00 0. -1.
         21   -1    0    0  501  503 -0.00000000000E+00 -0.00000000000E+00 -0.79120184375E+02  0.79120184375E+02  0.00000000000E+00 0. -1.
          1    1    1    2  501    0 -0.23385309149E+02 -0.84488650907E+01 -0.32634469468E+02  0.41027607812E+02  0.00000000000E+00 0. -1.
         -1    1    1    2    0  502  0.23385309149E+02  0.84488650907E+01 -0.38634212568E+02  0.45944078901E+02  0.00000000000E+00 0.  1.
<mgrwt>
<rscale>  2 0.24864754E+02</rscale>
<asrwt>0</asrwt>
<pdfrwt beam="1">  1       21 0.12079234E-02 0.24864754E+02</pdfrwt>
<pdfrwt beam="2">  1       21 0.12172336E-01 0.24864754E+02</pdfrwt>
<totfact> 0.11065771E+08</totfact>
</mgrwt>
</event>
<event>
 4    1  0.3862688E+004  0.2139766E+02  0.7546771E-02  0.1718882E+00
         21   -1    0    0  503  502  0.00000000000E+00  0.00000000000E+00  0.13114849894E+03  0.13114849894E+03  0.00000000000E+00 0.  1.
         21   -1    0    0  501  503 -0.00000000000E+00 -0.00000000000E+00 -0.73500279838E+01  0.73500279838E+01  0.00000000000E+00 0.  1.
          5    1    1    2  501    0  0.10388021445E+02  0.18706924102E+02  0.11207578491E+03  0.11410013831E+03  0.00000000000E+00 0. -1.
         -5    1    1    2    0  502 -0.10388021445E+02 -0.18706924102E+02  0.11722686047E+02  0.24398388616E+02  0.00000000000E+00 0.  1.
<mgrwt>
<rscale>  2 0.21397663E+02</rscale>
<asrwt>0</asrwt>
<pdfrwt beam="1">  1       21 0.20176690E-01 0.21397663E+02</pdfrwt>
<pdfrwt beam="2">  1       21 0.11307736E-02 0.21397663E+02</pdfrwt>
<totfact> 0.49499964E+07</totfact>
</mgrwt>
</event>
<event>
 4    1  0.3862688E+004  0.2041715E+02  0.7546771E-02  0.1737158E+00
         21   -1    0    0  501  502  0.00000000000E+00  0.00000000000E+00  0.61857790336E+02  0.61857790336E+02  0.00000000000E+00 0. -1.
         21   -1    0    0  502  503 -0.00000000000E+00 -0.00000000000E+00 -0.69021384732E+01  0.69021384732E+01  0.00000000000E+00 0. -1.
          3    1    1    2  501    0 -0.17875614177E+02  0.98652090858E+01  0.22192330691E+02  0.30155587774E+02  0.00000000000E+00 0.  1.
         -3    1    1    2    0  503  0.17875614177E+02 -0.98652090858E+01  0.32763321173E+02  0.38604341035E+02  0.00000000000E+00 0. -1.
<mgrwt>
<rscale>  2 0.20417148E+02</rscale>
<asrwt>0</asrwt>
<pdfrwt beam="1">  1       21 0.95165827E-02 0.20417148E+02</pdfrwt>
<pdfrwt beam="2">  1       21 0.10618675E-02 0.20417148E+02</pdfrwt>
<totfact> 0.19069029E+08</totfact>
</mgrwt>
</event>
<event>
 4    1  0.3862688E+004  0.3707742E+02  0.7546771E-02  0.1530890E+00
         21   -1    0    0  501  502  0.00000000000E+00  0.00000000000E+00  0.16166822783E+03  0.16166822783E+03  0.00000000000E+00 0. -1.
         21   -1    0    0  502  503 -0.00000000000E+00 -0.00000000000E+00 -0.89707916435E+01  0.89707916435E+01  0.00000000000E+00 0. -1.
          1    1    1    2  501    0  0.41751167696E+01  0.36841600526E+02  0.95822825994E+02  0.10274604183E+03  0.00000000000E+00 0.  1.
         -1    1    1    2    0  503 -0.41751167696E+01 -0.36841600526E+02  0.56874610191E+02  0.67892977646E+02  0.00000000000E+00 0. -1.
<mgrwt>
<rscale>  2 0.37077421E+02</rscale>
<asrwt>0</asrwt>
<pdfrwt beam="1">  1       21 0.24872033E-01 0.37077421E+02</pdfrwt>
<pdfrwt beam="2">  1       21 0.13801219E-02 0.37077421E+02</pdfrwt>
<totfact> 0.28328297E+07</totfact>
</mgrwt>
</event>
<event>
 4    1  0.3862688E+004  0.2436482E+02  0.7546771E-02  0.1670296E+00
         21   -1    0    0  501  502  0.00000000000E+00  0.00000000000E+00  0.67550749072E+01  0.67550749072E+01  0.00000000000E+00 0.  1.
         21   -1    0    0  502  503 -0.00000000000E+00 -0.00000000000E+00 -0.88009196329E+02  0.88009196329E+02  0.00000000000E+00 0.  1.
          4    1    1    2  501    0 -0.17200267838E+02 -0.17256751424E+02 -0.42433402858E+02  0.48930955044E+02  0.00000000000E+00 0.  1.
         -4    1    1    2    0  503  0.17200267838E+02  0.17256751424E+02 -0.38820718563E+02  0.45833316192E+02  0.00000000000E+00 0. -1.
<mgrwt>
<rscale>  2 0.24364825E+02</rscale>
<asrwt>0</asrwt>
<pdfrwt beam="1">  1       21 0.10392424E-02 0.24364825E+02</pdfrwt>
<pdfrwt beam="2">  1       21 0.13539875E-01 0.24364825E+02</pdfrwt>
<totfact> 0.11541262E+08</totfact>
</mgrwt>
</event>
<event>
 4    1  0.3862688E+004  0.2096098E+02  0.7546771E-02  0.1726867E+00
         21   -1    0    0  501  502  0.00000000000E+00  0.00000000000E+00  0.10147680963E+02  0.10147680963E+02  0.00000000000E+00 0. -1.
         21   -1    0    0  502  503 -0.00000000000E+00 -0.00000000000E+00 -0.43741959195E+02  0.43741959195E+02  0.00000000000E+00 0. -1.
          4    1    1    2  501    0  0.20651797449E+02 -0.35869089393E+01 -0.19515191754E+02  0.28639227692E+02  0.00000000000E+00 0. -1.
         -4    1    1    2    0  503 -0.20651797449E+02  0.35869089393E+01 -0.14079086478E+02  0.25250412466E+02  0.00000000000E+00 0.  1.
<mgrwt>
<rscale>  2 0.20960979E+02</rscale>
<asrwt>0</asrwt>
<pdfrwt beam="1">  1       21 0.15611817E-02 0.20960979E+02</pdfrwt>
<pdfrwt beam="2">  1       21 0.67295321E-02 0.20960979E+02</pdfrwt>
<totfact> 0.18888373E+08</totfact>
</mgrwt>
</event>
<event>
 4    1  0.3862688E+004  0.2704511E+02  0.7546771E-02  0.1633253E+00
         21   -1    0    0  501  502  0.00000000000E+00  0.00000000000E+00  0.87809625985E+02  0.87809625985E+02  0.00000000000E+00 0.  1.
         21   -1    0    0  502  503 -0.00000000000E+00 -0.00000000000E+00 -0.87548459814E+01  0.87548459814E+01  0.00000000000E+00 0.  1.
          2    1    1    2  501    0 -0.22250611185E+01  0.26953427234E+02  0.28889089167E+02  0.39572940370E+02  0.00000000000E+00 0. -1.
         -2    1    1    2    0  503  0.22250611185E+01 -0.26953427234E+02  0.50165690837E+02  0.56991531597E+02  0.00000000000E+00 0.  1.
<mgrwt>
<rscale>  2 0.27045113E+02</rscale>
<asrwt>0</asrwt>
<pdfrwt beam="1">  1       21 0.13509173E-01 0.27045113E+02</pdfrwt>
<pdfrwt beam="2">  1       21 0.13468994E-02 0.27045113E+02</pdfrwt>
<totfact> 0.80354617E+07</totfact>
</mgrwt>
</event>
<event>
 4    1  0.3862688E+004  0.2793181E+02  0.7546771E-02  0.1622143E+00
         21   -1    0    0  501  502  0.00000000000E+00  0.00000000000E+00  0.28528368133E+03  0.28528368133E+03  0.00000000000E+00 0.  1.
         21   -1    0    0  502  503 -0.00000000000E+00 -0.00000000000E+00 -0.29556930606E+01  0.29556930606E+01  0.00000000000E+00 0.  1.
          2    1    1    2  501    0 -0.16945896781E+02 -0.22204118012E+02  0.10176268498E+03  0.10552644374E+03  0.00000000000E+00 0. -1.
         -2    1    1    2    0  503  0.16945896781E+02  0.22204118012E+02  0.18056530329E+03  0.18271293065E+03  0.00000000000E+00 0.  1.
<mgrwt>
<rscale>  2 0.27931815E+02</rscale>
<asrwt>0</asrwt>
<pdfrwt beam="1">  1       21 0.43889775E-01 0.27931815E+02</pdfrwt>
<pdfrwt beam="2">  1       21 0.45472223E-03 0.27931815E+02</pdfrwt>
<totfact> 0.49659289E+07</totfact>
</mgrwt>
</event>
<event>
 4    1  0.3862688E+004  0.2504620E+02  0.7546771E-02  0.1660339E+00
         21   -1    0    0  503  502  0.00000000000E+00  0.00000000000E+00  0.40019787580E+02  0.40019787580E+02  0.00000000000E+00 0.  1.
         21   -1    0    0  501  503 -0.00000000000E+00 -0.00000000000E+00 -0.21424839146E+02  0.21424839146E+02  0.00000000000E+00 0.  1.
          2    1    1    2  501    0 -0.17370761165E+02  0.18043531686E+02  0.25212996420E+02  0.35538817758E+02  0.00000000000E+00 0. -1.
         -2    1    1    2    0  502  0.17370761165E+02 -0.18043531686E+02 -0.66180479857E+01  0.25905808968E+02  0.00000000000E+00 0.  1.
<mgrwt>
<rscale>  2 0.25046205E+02</rscale>
<asrwt>0</asrwt>
<pdfrwt beam="1">  1       21 0.61568904E-02 0.25046205E+02</pdfrwt>
<pdfrwt beam="2">  1       21 0.32961291E-02 0.25046205E+02</pdfrwt>
<totfact> 0.72570244E+07</totfact>
</mgrwt>
</event>
<event>
 4    1  0.3862688E+004  0.2243900E+02  0.7546771E-02  0.1700768E+00
         21   -1    0    0  501  502  0.00000000000E+00  0.00000000000E+00  0.30184400691E+03  0.30184400691E+03  0.00000000000E+00 0.  1.
         21   -1    0    0  502  503 -0.00000000000E+00 -0.00000000000E+00 -0.18379454628E+01  0.18379454628E+01  0.00000000000E+00 0.  1.
          5    1    1    2  501    0 -0.16959360127E+02  0.14693161642E+02  0.19616000569E+03  0.19743924820E+03  0.00000000000E+00 0.  1.
         -5    1    1    2    0  503  0.16959360127E+02 -0.14693161642E+02  0.10384605575E+03  0.10624270418E+03  0.00000000000E+00 0. -1.
<mgrwt>
<rscale>  2 0.22439004E+02</rscale>
<asrwt>0</asrwt>
<pdfrwt beam="1">  1       21 0.46437500E-01 0.22439004E+02</pdfrwt>
<pdfrwt beam="2">  1       21 0.28276108E-03 0.22439004E+02</pdfrwt>
<totfact> 0.84986534E+07</totfact>
</mgrwt>
</event>
<event>
 4    1  0.3862688E+004  0.2090621E+02  0.7546771E-02  0.1727885E+00
         21   -1    0    0  501  502  0.00000000000E+00  0.00000000000E+00  0.37589195497E+03  0.37589195497E+03  0.00000000000E+00 0.  1.
         21   -1    0    0  502  503 -0.00000000000E+00 -0.00000000000E+00 -0.12223660291E+01  0.12223660291E+01  0.00000000000E+00 0.  1.
          5    1    1    2  501    0  0.16093092125E+02 -0.13344740759E+02  0.14569478309E+03  0.14718709026E+03  0.00000000000E+00 0.  1.
         -5    1    1    2    0  503 -0.16093092125E+02  0.13344740759E+02  0.22897480585E+03  0.22992723074E+03  0.00000000000E+00 0. -1.
<mgrwt>
<rscale>  2 0.20906212E+02</rscale>
<asrwt>0</asrwt>
<pdfrwt beam="1">  1       21 0.57829439E-01 0.20906212E+02</pdfrwt>
<pdfrwt beam="2">  1       21 0.18805661E-03 0.20906212E+02</pdfrwt>
<totfact> 0.98097972E+07</totfact>
</mgrwt>
</event>
<event>
 4    1  0.3862688E+004  0.2383389E+02  0.7546771E-02  0.1678339E+00
         21   -1    0    0  501  502  0.00000000000E+00  0.00000000000E+00  0.32346818430E+01  0.32346818430E+01  0.00000000000E+00 0.  1.
         21   -1    0    0  502  503 -0.00000000000E+00 -0.00000000000E+00 -0.17620460448E+03  0.17620460448E+03  0.00000000000E+00 0.  1.
          5    1    1    2  501    0 -0.22150529341E+02 -0.87982061766E+01 -0.91680671389E+02  0.94728031165E+02  0.00000000000E+00 0. -1.
         -5    1    1    2    0  503  0.22150529341E+02  0.87982061766E+01 -0.81289251244E+02  0.84711255154E+02  0.00000000000E+00 0.  1.
<mgrwt>
<rscale>  2 0.23833891E+02</rscale>
<asrwt>0</asrwt>
<pdfrwt beam="1">  1       21 0.49764327E-03 0.23833891E+02</pdfrwt>
<pdfrwt beam="2">  1       21 0.27108406E-01 0.23833891E+02</pdfrwt>
<totfact> 0.10253204E+08</totfact>
</mgrwt>
</event>
<event>
 4    1  0.3862688E+004  0.3401033E+02  0.7546771E-02  0.1557569E+00
         21   -1    0    0  503  502  0.00000000000E+00  0.00000000000E+00  0.21564622245E+03  0.21564622245E+03  0.00000000000E+00 0. -1.
         21   -1    0    0  501  503 -0.00000000000E+00 -0.00000000000E+00 -0.54155163330E+01  0.54155163330E+01  0.00000000000E+00 0. -1.
          5    1    1    2  501    0 -0.38869097288E+01 -0.33787491385E+02  0.11590727509E+03  0.12079403570E+03  0.00000000000E+00 0. -1.
         -5    1    1    2    0  502  0.38869097288E+01  0.33787491385E+02  0.94323431027E+02  0.10026770309E+03  0.00000000000E+00 0.  1.
<mgrwt>
<rscale>  2 0.34010331E+02</rscale>
<asrwt>0</asrwt>
<pdfrwt beam="1">  1       21 0.33176335E-01 0.34010331E+02</pdfrwt>
<pdfrwt beam="2">  1       21 0.83315653E-03 0.34010331E+02</pdfrwt>
<totfact> 0.35455032E+07</totfact>
</mgrwt>
</event>
<event>
 4    1  0.3862688E+004  0.2145684E+02  0.7546771E-02  0.1717818E+00
         21   -1    0    0  501  502  0.00000000000E+00  0.00000000000E+00  0.79595543533E+03  0.79595543533E+03  0.00000000000E+00 0.  1.
         21   -1    0    0  502  503 -0.00000000000E+00 -0.00000000000E+00 -0.10886886021E+01  0.10886886021E+01  0.00000000000E+00 0.  1.
          4    1    1    2  501    0  0.12570889394E+00  0.21456473971E+02  0.67026844889E+03  0.67061180250E+03  0.00000000000E+00 0.  1.
         -4    1    1    2    0  503 -0.12570889394E+00 -0.21456473971E+02  0.12459829783E+03  0.12643232142E+03  0.00000000000E+00 0. -1.
<mgrwt>
<rscale>  2 0.21456842E+02</rscale>
<asrwt>0</asrwt>
<pdfrwt beam="1">  1       21 0.12245422E+00 0.21456842E+02</pdfrwt>
<pdfrwt beam="2">  1       21 0.16749119E-03 0.21456842E+02</pdfrwt>
<totfact> 0.23869985E+07</totfact>
</mgrwt>
</event>
<event>
 4    1  0.3862688E+004  0.2796282E+02  0.7546771E-02  0.1621764E+00
         21   -1    0    0  503  502  0.00000000000E+00  0.00000000000E+00  0.66173955411E+03  0.66173955411E+03  0.00000000000E+00 0. -1.
         21   -1    0    0  501  503 -0.00000000000E+00 -0.00000000000E+00 -0.23326833889E+01  0.23326833889E+01  0.00000000000E+00 0. -1.
          3    1    1    2  501    0  0.14994164711E+02 -0.23602848357E+02  0.96460471250E+02  0.10043177754E+03  0.00000000000E+00 0. -1.
         -3    1    1    2    0  502 -0.14994164711E+02  0.23602848357E+02  0.56294639947E+03  0.56364045996E+03  0.00000000000E+00 0.  1.
<mgrwt>
<rscale>  2 0.27962822E+02</rscale>
<asrwt>0</asrwt>
<pdfrwt beam="1">  1       21 0.10180594E+00 0.27962822E+02</pdfrwt>
<pdfrwt beam="2">  1       21 0.35887489E-03 0.27962822E+02</pdfrwt>
<totfact> 0.12481438E+07</totfact>
</mgrwt>
</event>
<event>
 4    1  0.3862688E+004  0.2164693E+02  0.7546771E-02  0.1714431E+00
         21   -1    0    0  503  502  0.00000000000E+00  0.00000000000E+00  0.40445606391E+03  0.40445606391E+03  0.00000000000E+00 0.  1.
         21   -1    0    0  501  503 -0.00000000000E+00 -0.00000000000E+00 -0.11764682712E+01  0.11764682712E+01  0.00000000000E+00 0.  1.
          3    1    1    2  501    0 -0.10951285348E+02 -0.18672409432E+02  0.17662181297E+03  0.17794340207E+03  0.00000000000E+00 0.  1.
         -3    1    1    2    0  502  0.10951285348E+02  0.18672409432E+02  0.22665778267E+03  0.22768913011E+03  0.00000000000E+00 0. -1.
<mgrwt>
<rscale>  2 0.21646929E+02</rscale>
<asrwt>0</asrwt>
<pdfrwt beam="1">  1       21 0.62223899E-01 0.21646929E+02</pdfrwt>
<pdfrwt beam="2">  1       21 0.18099544E-03 0.21646929E+02</pdfrwt>
<totfact> 0.90392898E+07</totfact>
</mgrwt>
</event>
<event>
 4    1  0.3862688E+004  0.3210916E+02  0.7546771E-02  0.1575880E+00
         21   -1    0    0  501  502  0.00000000000E+00  0.00000000000E+00  0.76427606166E+03  0.76427606166E+03  0.00000000000E+00 0.  1.
         21   -1    0    0  502  503 -0.00000000000E+00 -0.00000000000E+00 -0.14142005914E+01  0.14142005914E+01  0.00000000000E+00 0.  1.
          1    1    1    2  501    0  0.26472313434E+02  0.18171804102E+02  0.29921813438E+03  0.30093602274E+03  0.00000000000E+00 0. -1.
         -1    1    1    2    0  503 -0.26472313434E+02 -0.18171804102E+02  0.46364372669E+03  0.46475423951E+03  0.00000000000E+00 0.  1.
<mgrwt>
<rscale>  2 0.32109155E+02</rscale>
<asrwt>0</asrwt>
<pdfrwt beam="1">  1       21 0.11758060E+00 0.32109155E+02</pdfrwt>
<pdfrwt beam="2">  1       21 0.21756993E-03 0.32109155E+02</pdfrwt>
<totfact> 0.19188704E+07</totfact>
</mgrwt>
</event>
<event>
 4    1  0.3862688E+004  0.4443699E+02  0.7546771E-02  0.1477887E+00
         21   -1    0    0  501  502  0.00000000000E+00  0.00000000000E+00  0.37005582805E+02  0.37005582805E+02  0.00000000000E+00 0.  1.
         21   -1    0    0  502  503 -0.00000000000E+00 -0.00000000000E+00 -0.70085661053E+02  0.70085661053E+02  0.00000000000E+00 0.  1.
          4    1    1    2  501    0 -0.44404132356E+02  0.17084649792E+01  0.96171594227E+01  0.45465762703E+02  0.00000000000E+00 0.  1.
         -4    1    1    2    0  503  0.44404132356E+02 -0.17084649792E+01 -0.42697237670E+02  0.61625481154E+02  0.00000000000E+00 0. -1.
<mgrwt>
<rscale>  2 0.44436987E+02</rscale>
<asrwt>0</asrwt>
<pdfrwt beam="1">  1       21 0.56931666E-02 0.44436987E+02</pdfrwt>
<pdfrwt beam="2">  1       21 0.10782409E-01 0.44436987E+02</pdfrwt>
<totfact> 0.13347562E+07</totfact>
</mgrwt>
</event>
<event>
 4    1  0.3862688E+004  0.2429808E+02  0.7546771E-02  0.1671293E+00
         21   -1    0    0  501  502  0.00000000000E+00  0.00000000000E+00  0.19673487834E+02  0.19673487834E+02  0.00000000000E+00 0.  1.
         21   -1    0    0  502  503 -0.00000000000E+00 -0.00000000000E+00 -0.31085013600E+02  0.31085013600E+02  0.00000000000E+00 0.  1.
          3    1    1    2  501    0 -0.11201820606E+02  0.21561913938E+02 -0.98561121587E+00  0.24318066268E+02  0.00000000000E+00 0. -1.
         -3    1    1    2    0  503  0.11201820606E+02 -0.21561913938E+02 -0.10425914551E+02  0.26440435166E+02  0.00000000000E+00 0.  1.
<mgrwt>
<rscale>  2 0.24298085E+02</rscale>
<asrwt>0</asrwt>
<pdfrwt beam="1">  1       21 0.30266905E-02 0.24298085E+02</pdfrwt>
<pdfrwt beam="2">  1       21 0.47823098E-02 0.24298085E+02</pdfrwt>
<totfact> 0.12332280E+08</totfact>
</mgrwt>
</event>
<event>
 4    1  0.3862688E+004  0.2253664E+02  0.7546771E-02  0.1699133E+00
         21   -1    0    0  503  502  0.00000000000E+00  0.00000000000E+00  0.10132690525E+01  0.10132690525E+01  0.00000000000E+00 0. -1.
         21   -1    0    0  501  503 -0.00000000000E+00 -0.00000000000E+00 -0.73328338698E+03  0.73328338698E+03  0.00000000000E+00 0. -1.
          5    1    1    2  501    0  0.20131053337E+02 -0.10131192286E+02 -0.15960581205E+03  0.16118906789E+03  0.00000000000E+00 0.  1.
         -5    1    1    2    0  502 -0.20131053337E+02  0.10131192286E+02 -0.57266430587E+03  0.57310758814E+03  0.00000000000E+00 0. -1.
<mgrwt>
<rscale>  2 0.22536645E+02</rscale>
<asrwt>0</asrwt>
<pdfrwt beam="1">  1       21 0.15588800E-03 0.22536645E+02</pdfrwt>
<pdfrwt beam="2">  1       21 0.11281250E+00 0.22536645E+02</pdfrwt>
<totfact> 0.32131294E+07</totfact>
</mgrwt>
</event>
<event>
 4    1  0.3862688E+004  0.2904091E+02  0.7546771E-02  0.1608939E+00
         21   -1    0    0  501  502  0.00000000000E+00  0.00000000000E+00  0.55320377965E+02  0.55320377965E+02  0.00000000000E+00 0. -1.
         21   -1    0    0  502  503 -0.00000000000E+00 -0.00000000000E+00 -0.15248473414E+02  0.15248473414E+02  0.00000000000E+00 0. -1.
          2    1    1    2  501    0  0.72776444517E+01 -0.28114234677E+02  0.19524824847E+02  0.34994186453E+02  0.00000000000E+00 0. -1.
         -2    1    1    2    0  503 -0.72776444517E+01  0.28114234677E+02  0.20547079704E+02  0.35574664926E+02  0.00000000000E+00 0.  1.
<mgrwt>
<rscale>  2 0.29040907E+02</rscale>
<asrwt>0</asrwt>
<pdfrwt beam="1">  1       21 0.85108273E-02 0.29040907E+02</pdfrwt>
<pdfrwt beam="2">  1       21 0.23459190E-02 0.29040907E+02</pdfrwt>
<totfact> 0.75497458E+07</totfact>
</mgrwt>
</event>
<event>
 4    1  0.3862688E+004  0.2715696E+02  0.7546771E-02  0.1631823E+00
         21   -1    0    0  501  502  0.00000000000E+00  0.00000000000E+00  0.49031397079E+01  0.49031397079E+01  0.00000000000E+00 0.  1.
         21   -1    0    0  502  503 -0.00000000000E+00 -0.00000000000E+00 -0.15399368169E+03  0.15399368169E+03  0.00000000000E+00 0.  1.
          1    1    1    2  501    0 -0.26906718001E+02 -0.36781700814E+01 -0.86658543892E+02  0.90814115853E+02  0.00000000000E+00 0. -1.
         -1    1    1    2    0  503  0.26906718001E+02  0.36781700814E+01 -0.62431998087E+02  0.68082705542E+02  0.00000000000E+00 0.  1.
<mgrwt>
<rscale>  2 0.27156959E+02</rscale>
<asrwt>0</asrwt>
<pdfrwt beam="1">  1       21 0.75432923E-03 0.27156959E+02</pdfrwt>
<pdfrwt beam="2">  1       21 0.23691334E-01 0.27156959E+02</pdfrwt>
<totfact> 0.72648540E+07</totfact>
</mgrwt>
</event>
<event>
 4    1  0.3862688E+004  0.2020120E+02  0.7546771E-02  0.1741356E+00
         21   -1    0    0  503  502  0.00000000000E+00  0.00000000000E+00  0.16067664513E+03  0.16067664513E+03  0.00000000000E+00 0.  1.
         21   -1    0    0  501  503 -0.00000000000E+00 -0.00000000000E+00 -0.36459315631E+01  0.36459315631E+01  0.00000000000E+00 0.  1.
          4    1    1    2  501    0  0.25450300110E+01 -0.20040240003E+02  0.33260612838E+02  0.38914737099E+02  0.00000000000E+00 0.  1.
         -4    1    1    2    0  502 -0.25450300110E+01  0.20040240003E+02  0.12377010073E+03  0.12540783959E+03  0.00000000000E+00 0. -1.
<mgrwt>
<rscale>  2 0.20201198E+02</rscale>
<asrwt>0</asrwt>
<pdfrwt beam="1">  1       21 0.24719478E-01 0.20201198E+02</pdfrwt>
<pdfrwt beam="2">  1       21 0.56091267E-03 0.20201198E+02</pdfrwt>
<totfact> 0.96818241E+07</totfact>
</mgrwt>
</event>
<event>
 4    1  0.3862688E+004  0.3221815E+02  0.7546771E-02  0.1574789E+00
         21   -1    0    0  501  502  0.00000000000E+00  0.00000000000E+00  0.13604668706E+01  0.13604668706E+01  0.00000000000E+00 0. -1.
         21   -1    0    0  502  503 -0.00000000000E+00 -0.00000000000E+00 -0.81445193738E+03  0.81445193738E+03  0.00000000000E+00 0. -1.
          4    1    1    2  501    0 -0.29548390441E+02  0.12841409101E+02 -0.50909023325E+03  0.51010868916E+03  0.00000000000E+00 0. -1.
         -4    1    1    2    0  503  0.29548390441E+02 -0.12841409101E+02 -0.30400123726E+03  0.30570371509E+03  0.00000000000E+00 0.  1.
<mgrwt>
<rscale>  2 0.32218150E+02</rscale>
<asrwt>0</asrwt>
<pdfrwt beam="1">  1       21 0.20930220E-03 0.32218150E+02</pdfrwt>
<pdfrwt beam="2">  1       21 0.12530053E+00 0.32218150E+02</pdfrwt>
<totfact> 0.17538967E+07</totfact>
</mgrwt>
</event>
<event>
 4    1  0.3862688E+004  0.2182803E+02  0.7546771E-02  0.1711243E+00
         21   -1    0    0  503  502  0.00000000000E+00  0.00000000000E+00  0.10082463738E+02  0.10082463738E+02  0.00000000000E+00 0.  1.
         21   -1    0    0  501  503 -0.00000000000E+00 -0.00000000000E+00 -0.47529147390E+02  0.47529147390E+02  0.00000000000E+00 0.  1.
          2    1    1    2  501    0 -0.19641660012E+02  0.95219706412E+01 -0.20904758575E+02  0.30223693752E+02  0.00000000000E+00 0.  1.
         -2    1    1    2    0  502  0.19641660012E+02 -0.95219706412E+01 -0.16541925076E+02  0.27387917375E+02  0.00000000000E+00 0. -1.
<mgrwt>
<rscale>  2 0.21828026E+02</rscale>
<asrwt>0</asrwt>
<pdfrwt beam="1">  1       21 0.15511483E-02 0.21828026E+02</pdfrwt>
<pdfrwt beam="2">  1       21 0.73121765E-02 0.21828026E+02</pdfrwt>
<totfact> 0.16893895E+08</totfact>
</mgrwt>
</event>
<event>
 4    1  0.3862688E+004  0.4363384E+02  0.7546771E-02  0.1483055E+00
         21   -1    0    0  501  502  0.00000000000E+00  0.00000000000E+00  0.47368575489E+02  0.47368575489E+02  0.00000000000E+00 0.  1.
         21   -1    0    0  502  503 -0.00000000000E+00 -0.00000000000E+00 -0.57231249759E+02  0.57231249759E+02  0.00000000000E+00 0.  1.
          5    1    1    2  501    0 -0.32861865107E+02  0.28705564416E+02 -0.33467115378E+02  0.54990539355E+02  0.00000000000E+00 0.  1.
         -5    1    1    2    0  503  0.32861865107E+02 -0.28705564416E+02  0.23604441109E+02  0.49609285893E+02  0.00000000000E+00 0. -1.
<mgrwt>
<rscale>  2 0.43633836E+02</rscale>
<asrwt>0</asrwt>
<pdfrwt beam="1">  1       21 0.72874732E-02 0.43633836E+02</pdfrwt>
<pdfrwt beam="2">  1       21 0.88048076E-02 0.43633836E+02</pdfrwt>
<totfact> 0.12480296E+07</totfact>
</mgrwt>
</event>
<event>
 4    1  0.3862688E+004  0.2347673E+02  0.7546771E-02  0.1683897E+00
         21   -1    0    0  503  502  0.00000000000E+00  0.00000000000E+00  0.26617571359E+01  0.26617571359E+01  0.00000000000E+00 0.  1.
         21   -1    0    0  501  503 -0.00000000000E+00 -0.00000000000E+00 -0.23562084783E+03  0.23562084783E+03  0.00000000000E+00 0.  1.
          2    1    1    2  501    0  0.22272847798E+02  0.74213951753E+01 -0.15795610158E+03  0.15969122356E+03  0.00000000000E+00 0.  1.
         -2    1    1    2    0  502 -0.22272847798E+02 -0.74213951753E+01 -0.75002989109E+02  0.78591381402E+02  0.00000000000E+00 0. -1.
<mgrwt>
<rscale>  2 0.23476730E+02</rscale>
<asrwt>0</asrwt>
<pdfrwt beam="1">  1       21 0.40950102E-03 0.23476730E+02</pdfrwt>
<pdfrwt beam="2">  1       21 0.36249368E-01 0.23476730E+02</pdfrwt>
<totfact> 0.79939992E+07</totfact>
</mgrwt>
</event>
<event>
 4    1  0.3862688E+004  0.2137304E+02  0.7546771E-02  0.1719326E+00
         21   -1    0    0  503  502  0.00000000000E+00  0.00000000000E+00  0.65495270075E+00  0.65495270075E+00  0.00000000000E+00 0. -1.
         21   -1    0    0  501  503 -0.00000000000E+00 -0.00000000000E+00 -0.74804746507E+03  0.74804746507E+03  0.00000000000E+00 0. -1.
          3    1    1    2  501    0  0.18695960186E+02 -0.10357026219E+02 -0.27635152092E+03  0.27717678480E+03  0.00000000000E+00 0. -1.
         -3    1    1    2    0  502 -0.18695960186E+02  0.10357026219E+02 -0.47104099145E+03  0.47152563297E+03  0.00000000000E+00 0.  1.
<mgrwt>
<rscale>  2 0.21373042E+02</rscale>
<asrwt>0</asrwt>
<pdfrwt beam="1">  1       21 0.10076178E-03 0.21373042E+02</pdfrwt>
<pdfrwt beam="2">  1       21 0.11508443E+00 0.21373042E+02</pdfrwt>
<totfact> 0.56655196E+07</totfact>
</mgrwt>
</event>
<event>
 4    1  0.3862688E+004  0.2040785E+02  0.7546771E-02  0.1737337E+00
         21   -1    0    0  503  502  0.00000000000E+00  0.00000000000E+00  0.23299983079E+02  0.23299983079E+02  0.00000000000E+00 0.  1.
         21   -1    0    0  501  503 -0.00000000000E+00 -0.00000000000E+00 -0.20606409121E+02  0.20606409121E+02  0.00000000000E+00 0.  1.
          2    1    1    2  501    0  0.20370437201E+02 -0.12351440755E+01  0.93398554599E+01  0.22443555704E+02  0.00000000000E+00 0. -1.
         -2    1    1    2    0  502 -0.20370437201E+02  0.12351440755E+01 -0.66462815020E+01  0.21462836496E+02  0.00000000000E+00 0.  1.
<mgrwt>
<rscale>  2 0.20407849E+02</rscale>
<asrwt>0</asrwt>
<pdfrwt beam="1">  1       21 0.35846128E-02 0.20407849E+02</pdfrwt>
<pdfrwt beam="2">  1       21 0.31702168E-02 0.20407849E+02</pdfrwt>
<totfact> 0.17135943E+08</totfact>
</mgrwt>
</event>
<event>
 4    1  0.3862688E+004  0.2477600E+02  0.7546771E-02  0.1664240E+00
         21   -1    0    0  503  502  0.00000000000E+00  0.00000000000E+00  0.39156762975E+01  0.39156762975E+01  0.00000000000E+00 0. -1.
         21   -1    0    0  501  503 -0.00000000000E+00 -0.00000000000E+00 -0.15750347184E+03  0.15750347184E+03  0.00000000000E+00 0. -1.
          2    1    1    2  501    0  0.24655179392E+02 -0.24438662749E+01 -0.71276388853E+02  0.75459750604E+02  0.00000000000E+00 0. -1.
         -2    1    1    2    0  502 -0.24655179392E+02  0.24438662749E+01 -0.82311406691E+02  0.85959397535E+02  0.00000000000E+00 0.  1.
<mgrwt>
<rscale>  2 0.24776004E+02</rscale>
<asrwt>0</asrwt>
<pdfrwt beam="1">  1       21 0.60241173E-03 0.24776004E+02</pdfrwt>
<pdfrwt beam="2">  1       21 0.24231304E-01 0.24776004E+02</pdfrwt>
<totfact> 0.95435690E+07</totfact>
</mgrwt>
</event>
<event>
 4    1  0.3862688E+004  0.2110153E+02  0.7546771E-02  0.1724270E+00
         21   -1    0    0  503  502  0.00000000000E+00  0.00000000000E+00  0.55196721783E+01  0.55196721783E+01  0.00000000000E+00 0. -1.
         21   -1    0    0  501  503 -0.00000000000E+00 -0.00000000000E+00 -0.90144769852E+02  0.90144769852E+02  0.00000000000E+00 0. -1.
          3    1    1    2  501    0 -0.17799798578E+02  0.11333218546E+02 -0.26805707926E+02  0.34114815688E+02  0.00000000000E+00 0. -1.
         -3    1    1    2    0  502  0.17799798578E+02 -0.11333218546E+02 -0.57819389748E+02  0.61549626342E+02  0.00000000000E+00 0.  1.
<mgrwt>
<rscale>  2 0.21101532E+02</rscale>
<asrwt>0</asrwt>
<pdfrwt beam="1">  1       21 0.84918039E-03 0.21101532E+02</pdfrwt>
<pdfrwt beam="2">  1       21 0.13868425E-01 0.21101532E+02</pdfrwt>
<totfact> 0.14384471E+08</totfact>
</mgrwt>
</event>
<event>
 4    1  0.3862688E+004  0.2354589E+02  0.7546771E-02  0.1682811E+00
         21   -1    0    0  501  502  0.00000000000E+00  0.00000000000E+00  0.63398602324E+01  0.63398602324E+01  0.00000000000E+00 0. -1.
         21   -1    0    0  502  503 -0.00000000000E+00 -0.00000000000E+00 -0.87622674993E+02  0.87622674993E+02  0.00000000000E+00 0. -1.
          4    1    1    2  501    0 -0.20169219325E+02 -0.12149547526E+02 -0.42738279016E+02  0.48795178107E+02  0.00000000000E+00 0.  1.
         -4    1    1    2    0  503  0.20169219325E+02  0.12149547526E+02 -0.38544535745E+02  0.45167357118E+02  0.00000000000E+00 0. -1.
<mgrwt>
<rscale>  2 0.23545890E+02</rscale>
<asrwt>0</asrwt>
<pdfrwt beam="1">  1       21 0.97536321E-03 0.23545890E+02</pdfrwt>
<pdfrwt beam="2">  1       21 0.13480410E-01 0.23545890E+02</pdfrwt>
<totfact> 0.12667443E+08</totfact>
</mgrwt>
</event>
<event>
 4    1  0.3862688E+004  0.3335767E+02  0.7546771E-02  0.1563688E+00
         21   -1    0    0  503  502  0.00000000000E+00  0.00000000000E+00  0.86976378392E+02  0.86976378392E+02  0.00000000000E+00 0. -1.
         21   -1    0    0  501  503 -0.00000000000E+00 -0.00000000000E+00 -0.12819273518E+02  0.12819273518E+02  0.00000000000E+00 0. -1.
          3    1    1    2  501    0 -0.26731661512E+01 -0.33250388261E+02  0.39314998745E+02  0.51559705809E+02  0.00000000000E+00 0. -1.
         -3    1    1    2    0  502  0.26731661512E+01  0.33250388261E+02  0.34842106128E+02  0.48235946101E+02  0.00000000000E+00 0.  1.
<mgrwt>
<rscale>  2 0.33357670E+02</rscale>
<asrwt>0</asrwt>
<pdfrwt beam="1">  1       21 0.13380981E-01 0.33357670E+02</pdfrwt>
<pdfrwt beam="2">  1       21 0.19721960E-02 0.33357670E+02</pdfrwt>
<totfact> 0.47636348E+07</totfact>
</mgrwt>
</event>
<event>
 4    1  0.3862688E+004  0.2035624E+02  0.7546771E-02  0.1738335E+00
         21   -1    0    0  503  502  0.00000000000E+00  0.00000000000E+00  0.39423251366E+02  0.39423251366E+02  0.00000000000E+00 0.  1.
         21   -1    0    0  501  503 -0.00000000000E+00 -0.00000000000E+00 -0.13156563266E+02  0.13156563266E+02  0.00000000000E+00 0.  1.
          2    1    1    2  501    0  0.25567695019E+01  0.20195037159E+02  0.24922410018E+02  0.32179234256E+02  0.00000000000E+00 0. -1.
         -2    1    1    2    0  502 -0.25567695019E+01 -0.20195037159E+02  0.13442780818E+01  0.20400580377E+02  0.00000000000E+00 0.  1.
<mgrwt>
<rscale>  2 0.20356242E+02</rscale>
<asrwt>0</asrwt>
<pdfrwt beam="1">  1       21 0.60651155E-02 0.20356242E+02</pdfrwt>
<pdfrwt beam="2">  1       21 0.20240867E-02 0.20356242E+02</pdfrwt>
<totfact> 0.14892845E+08</totfact>
</mgrwt>
</event>
<event>
 4    1  0.3862688E+004  0.3279948E+02  0.7546771E-02  0.1569058E+00
         21   -1    0    0  503  502  0.00000000000E+00  0.00000000000E+00  0.30512853339E+03  0.30512853339E+03  0.00000000000E+00 0.  1.
         21   -1    0    0  501  503 -0.00000000000E+00 -0.00000000000E+00 -0.35257493599E+01  0.35257493599E+01  0.00000000000E+00 0.  1.
          1    1    1    2  501    0  0.29632813605E+02  0.14060656063E+02  0.15064963864E+03  0.15417885495E+03  0.00000000000E+00 0. -1.
         -1    1    1    2    0  502 -0.29632813605E+02 -0.14060656063E+02  0.15095314539E+03  0.15447542780E+03  0.00000000000E+00 0.  1.
<mgrwt>
<rscale>  2 0.32799477E+02</rscale>
<asrwt>0</asrwt>
<pdfrwt beam="1">  1       21 0.46942831E-01 0.32799477E+02</pdfrwt>
<pdfrwt beam="2">  1       21 0.54242321E-03 0.32799477E+02</pdfrwt>
<totfact> 0.34603110E+07</totfact>
</mgrwt>
</event>
<event>
 4    1  0.3862688E+004  0.2200934E+02  0.7546771E-02  0.1708091E+00
         21   -1    0    0  503  502  0.00000000000E+00  0.00000000000E+00  0.45166661884E+01  0.45166661884E+01  0.00000000000E+00 0. -1.
         21   -1    0    0  501  503 -0.00000000000E+00 -0.00000000000E+00 -0.12531599519E+03  0.12531599519E+03  0.00000000000E+00 0. -1.
          5    1    1    2  501    0  0.20836327093E+02 -0.70893246778E+01 -0.85047873886E+02  0.87849598198E+02  0.00000000000E+00 0.  1.
         -5    1    1    2    0  502 -0.20836327093E+02  0.70893246778E+01 -0.35751455116E+02  0.41983063181E+02  0.00000000000E+00 0. -1.
<mgrwt>
<rscale>  2 0.22009340E+02</rscale>
<asrwt>0</asrwt>
<pdfrwt beam="1">  1       21 0.69487178E-03 0.22009340E+02</pdfrwt>
<pdfrwt beam="2">  1       21 0.19279382E-01 0.22009340E+02</pdfrwt>
<totfact> 0.11173212E+08</totfact>
</mgrwt>
</event>
<event>
 4    1  0.3862688E+004  0.3273961E+02  0.7546771E-02  0.1569641E+00
         21   -1    0    0  501  502  0.00000000000E+00  0.00000000000E+00  0.22309367894E+03  0.22309367894E+03  0.00000000000E+00 0.  1.
         21   -1    0    0  502  503 -0.00000000000E+00 -0.00000000000E+00 -0.49668223228E+01  0.49668223228E+01  0.00000000000E+00 0.  1.
          5    1    1    2  501    0 -0.29565052188E+02  0.14063766147E+02  0.12966974810E+03  0.13373901974E+03  0.00000000000E+00 0.  1.
         -5    1    1    2    0  503  0.29565052188E+02 -0.14063766147E+02  0.88457108518E+02  0.94321481522E+02  0.00000000000E+00 0. -1.
<mgrwt>
<rscale>  2 0.32739606E+02</rscale>
<asrwt>0</asrwt>
<pdfrwt beam="1">  1       21 0.34322097E-01 0.32739606E+02</pdfrwt>
<pdfrwt beam="2">  1       21 0.76412668E-03 0.32739606E+02</pdfrwt>
<totfact> 0.37644972E+07</totfact>
</mgrwt>
</event>
<event>
 4    1  0.3862688E+004  0.2035302E+02  0.7546771E-02  0.1738398E+00
         21   -1    0    0  501  502  0.00000000000E+00  0.00000000000E+00  0.67052117688E+03  0.67052117688E+03  0.00000000000E+00 0.  1.
         21   -1    0    0  502  503 -0.00000000000E+00 -0.00000000000E+00 -0.66549362142E+00  0.66549362142E+00  0.00000000000E+00 0.  1.
          5    1    1    2  501    0 -0.56560454194E+01  0.19551333792E+02  0.24508398847E+03  0.24592764567E+03  0.00000000000E+00 0. -1.
         -5    1    1    2    0  503  0.56560454194E+01 -0.19551333792E+02  0.42477169479E+03  0.42525902483E+03  0.00000000000E+00 0.  1.
<mgrwt>
<rscale>  2 0.20353022E+02</rscale>
<asrwt>0</asrwt>
<pdfrwt beam="1">  1       21 0.10315656E+00 0.20353022E+02</pdfrwt>
<pdfrwt beam="2">  1       21 0.10238417E-03 0.20353022E+02</pdfrwt>
<totfact> 0.69745846E+07</totfact>
</mgrwt>
</event>
<event>
 4    1  0.3862688E+004  0.2395712E+02  0.7546771E-02  0.1676449E+00
         21   -1    0    0  503  502  0.00000000000E+00  0.00000000000E+00  0.30549936677E+00  0.30549936677E+00  0.00000000000E+00 0. -1.
         21   -1    0    0  501  503 -0.00000000000E+00 -0.00000000000E+00 -0.21718337233E+04  0.21718337233E+04  0.00000000000E+00 0. -1.
          3    1    1    2  501    0  0.92228818495E+01  0.22110674847E+02 -0.14847640490E+04  0.14849573141E+04  0.00000000000E+00 0. -1.
         -3    1    1    2    0  502 -0.92228818495E+01 -0.22110674847E+02 -0.68676417492E+03  0.68718190856E+03  0.00000000000E+00 0.  1.
<mgrwt>
<rscale>  2 0.23957118E+02</rscale>
<asrwt>0</asrwt>
<pdfrwt beam="1">  1       21 0.46999984E-04 0.23957118E+02</pdfrwt>
<pdfrwt beam="2">  1       21 0.33412769E+00 0.23957118E+02</pdfrwt>
<totfact> 0.96529241E+06</totfact>
</mgrwt>
</event>
<event>
 4    1  0.3862688E+004  0.6396650E+02  0.7546771E-02  0.1381902E+00
         21   -1    0    0  503  502  0.00000000000E+00  0.00000000000E+00  0.49685158408E+01  0.49685158408E+01  0.00000000000E+00 0. -1.
         21   -1    0    0  501  503 -0.00000000000E+00 -0.00000000000E+00 -0.87997257629E+03  0.87997257629E+03  0.00000000000E+00 0. -1.
          5    1    1    2  501    0 -0.46399046780E+02  0.44032275066E+02 -0.32543955068E+03  0.33166641967E+03  0.00000000000E+00 0.  1.
         -5    1    1    2    0  502  0.46399046780E+02 -0.44032275066E+02 -0.54956450977E+03  0.55327467246E+03  0.00000000000E+00 0. -1.
<mgrwt>
<rscale>  2 0.63966497E+02</rscale>
<asrwt>0</asrwt>
<pdfrwt beam="1">  1       21 0.76438838E-03 0.63966497E+02</pdfrwt>
<pdfrwt beam="2">  1       21 0.13538016E+00 0.63966497E+02</pdfrwt>
<totfact> 0.22169267E+06</totfact>
</mgrwt>
</event>
<event>
 4    1  0.3862688E+004  0.2216578E+02  0.7546771E-02  0.1705401E+00
         21   -1    0    0  503  502  0.00000000000E+00  0.00000000000E+00  0.29159932465E+01  0.29159932465E+01  0.00000000000E+00 0. -1.
         21   -1    0    0  501  503 -0.00000000000E+00 -0.00000000000E+00 -0.17241973918E+03  0.17241973918E+03  0.00000000000E+00 0. -1.
          4    1    1    2  501    0  0.16473687643E+02 -0.14830361326E+02 -0.71520363228E+02  0.74876460640E+02  0.00000000000E+00 0.  1.
         -4    1    1    2    0  502 -0.16473687643E+02  0.14830361326E+02 -0.97983382702E+02  0.10045927178E+03  0.00000000000E+00 0. -1.
<mgrwt>
<rscale>  2 0.22165784E+02</rscale>
<asrwt>0</asrwt>
<pdfrwt beam="1">  1       21 0.44861424E-03 0.22165784E+02</pdfrwt>
<pdfrwt beam="2">  1       21 0.26526120E-01 0.22165784E+02</pdfrwt>
<totfact> 0.12174863E+08</totfact>
</mgrwt>
</event>
<event>
 4    1  0.3862688E+004  0.2431991E+02  0.7546771E-02  0.1670967E+00
         21   -1    0    0  501  502  0.00000000000E+00  0.00000000000E+00  0.42430000609E+03  0.42430000609E+03  0.00000000000E+00 0.  1.
         21   -1    0    0  502  503 -0.00000000000E+00 -0.00000000000E+00 -0.14672135476E+01  0.14672135476E+01  0.00000000000E+00 0.  1.
          4    1    1    2  501    0  0.27155582655E+01 -0.24167825022E+02  0.25898324689E+03  0.26012262530E+03  0.00000000000E+00 0. -1.
         -4    1    1    2    0  503 -0.27155582655E+01  0.24167825022E+02  0.16384954566E+03  0.16564459434E+03  0.00000000000E+00 0.  1.
<mgrwt>
<rscale>  2 0.24319910E+02</rscale>
<asrwt>0</asrwt>
<pdfrwt beam="1">  1       21 0.65276826E-01 0.24319910E+02</pdfrwt>
<pdfrwt beam="2">  1       21 0.22572550E-03 0.24319910E+02</pdfrwt>
<totfact> 0.61374520E+07</totfact>
</mgrwt>
</event>
<event>
 4    1  0.3862688E+004  0.4431644E+02  0.7546771E-02  0.1478655E+00
         21   -1    0    0  503  502  0.00000000000E+00  0.00000000000E+00  0.46935365577E+02  0.46935365577E+02  0.00000000000E+00 0.  1.
         21   -1    0    0  501  503 -0.00000000000E+00 -0.00000000000E+00 -0.42341418568E+02  0.42341418568E+02  0.00000000000E+00 0.  1.
          2    1    1    2  501    0 -0.23554909507E+02 -0.37538154841E+02 -0.25429805546E+01  0.44389340847E+02  0.00000000000E+00 0. -1.
         -2    1    1    2    0  502  0.23554909507E+02  0.37538154841E+02  0.71369275634E+01  0.44887443298E+02  0.00000000000E+00 0.  1.
<mgrwt>
<rscale>  2 0.44316440E+02</rscale>
<asrwt>0</asrwt>
<pdfrwt beam="1">  1       21 0.72208255E-02 0.44316440E+02</pdfrwt>
<pdfrwt beam="2">  1       21 0.65140644E-02 0.44316440E+02</pdfrwt>
<totfact> 0.20981902E+07</totfact>
</mgrwt>
</event>
<event>
 4    1  0.3862688E+004  0.2556430E+02  0.7546771E-02  0.1653026E+00
         21   -1    0    0  501  502  0.00000000000E+00  0.00000000000E+00  0.72971591259E+01  0.72971591259E+01  0.00000000000E+00 0. -1.
         21   -1    0    0  502  503 -0.00000000000E+00 -0.00000000000E+00 -0.11181577158E+03  0.11181577158E+03  0.00000000000E+00 0. -1.
          3    1    1    2  501    0 -0.16514078495E+02  0.19514578249E+02 -0.25688866937E+02  0.36241570568E+02  0.00000000000E+00 0. -1.
         -3    1    1    2    0  503  0.16514078495E+02 -0.19514578249E+02 -0.78829745522E+02  0.82871360143E+02  0.00000000000E+00 0.  1.
<mgrwt>
<rscale>  2 0.25564302E+02</rscale>
<asrwt>0</asrwt>
<pdfrwt beam="1">  1       21 0.11226399E-02 0.25564302E+02</pdfrwt>
<pdfrwt beam="2">  1       21 0.17202426E-01 0.25564302E+02</pdfrwt>
<totfact> 0.69039107E+07</totfact>
</mgrwt>
</event>
<event>
 4    1  0.3862688E+004  0.2177854E+02  0.7546771E-02  0.1712110E+00
         21   -1    0    0  501  502  0.00000000000E+00  0.00000000000E+00  0.31999291445E+02  0.31999291445E+02  0.00000000000E+00 0.  1.
         21   -1    0    0  502  503 -0.00000000000E+00 -0.00000000000E+00 -0.15342367483E+02  0.15342367483E+02  0.00000000000E+00 0.  1.
          3    1    1    2  501    0 -0.13308253143E+02 -0.17239356632E+02  0.12686309864E+02  0.25204116266E+02  0.00000000000E+00 0. -1.
         -3    1    1    2    0  503  0.13308253143E+02  0.17239356632E+02  0.39706140979E+01  0.22137542662E+02  0.00000000000E+00 0.  1.
<mgrwt>
<rscale>  2 0.21778545E+02</rscale>
<asrwt>0</asrwt>
<pdfrwt beam="1">  1       21 0.49229679E-02 0.21778545E+02</pdfrwt>
<pdfrwt beam="2">  1       21 0.23603642E-02 0.21778545E+02</pdfrwt>
<totfact> 0.16751769E+08</totfact>
</mgrwt>
</event>
<event>
 4    1  0.3862688E+004  0.3280496E+02  0.7546771E-02  0.1569004E+00
         21   -1    0    0  501  502  0.00000000000E+00  0.00000000000E+00  0.79026262461E+02  0.79026262461E+02  0.00000000000E+00 0.  1.
         21   -1    0    0  502  503 -0.00000000000E+00 -0.00000000000E+00 -0.15249428831E+02  0.15249428831E+02  0.00000000000E+00 0.  1.
          4    1    1    2  501    0  0.18443746357E+02 -0.27129197857E+02  0.16469587350E+02  0.36707117341E+02  0.00000000000E+00 0.  1.
         -4    1    1    2    0  503 -0.18443746357E+02  0.27129197857E+02  0.47307246280E+02  0.57568573950E+02  0.00000000000E+00 0. -1.
<mgrwt>
<rscale>  2 0.32804956E+02</rscale>
<asrwt>0</asrwt>
<pdfrwt beam="1">  1       21 0.12157886E-01 0.32804956E+02</pdfrwt>
<pdfrwt beam="2">  1       21 0.23460660E-02 0.32804956E+02</pdfrwt>
<totfact> 0.42657764E+07</totfact>
</mgrwt>
</event>
<event>
 4    1  0.3862688E+004  0.3247272E+02  0.7546771E-02  0.1572261E+00
         21   -1    0    0  501  502  0.00000000000E+00  0.00000000000E+00  0.12835341836E+01  0.12835341836E+01  0.00000000000E+00 0. -1.
         21   -1    0    0  502  503 -0.00000000000E+00 -0.00000000000E+00 -0.82161151755E+03  0.82161151755E+03  0.00000000000E+00 0. -1.
          4    1    1    2  501    0  0.82087146546E+01 -0.31418058025E+02 -0.40638199331E+03  0.40767732566E+03  0.00000000000E+00 0. -1.
         -4    1    1    2    0  503 -0.82087146546E+01  0.31418058025E+02 -0.41394599005E+03  0.41521772607E+03  0.00000000000E+00 0.  1.
<mgrwt>
<rscale>  2 0.32472717E+02</rscale>
<asrwt>0</asrwt>
<pdfrwt beam="1">  1       21 0.19746672E-03 0.32472717E+02</pdfrwt>
<pdfrwt beam="2">  1       21 0.12640182E+00 0.32472717E+02</pdfrwt>
<totfact> 0.18729889E+07</totfact>
</mgrwt>
</event>
<event>
 4    1  0.3862688E+004  0.2369600E+02  0.7546771E-02  0.1680470E+00
         21   -1    0    0  503  502  0.00000000000E+00  0.00000000000E+00  0.55166756602E+01  0.55166756602E+01  0.00000000000E+00 0.  1.
         21   -1    0    0  501  503 -0.00000000000E+00 -0.00000000000E+00 -0.10892617896E+03  0.10892617896E+03  0.00000000000E+00 0.  1.
          2    1    1    2  501    0  0.99484237467E+01 -0.21506490796E+02 -0.66358802642E+02  0.70462692040E+02  0.00000000000E+00 0. -1.
         -2    1    1    2    0  502 -0.99484237467E+01  0.21506490796E+02 -0.37050700660E+02  0.43980162583E+02  0.00000000000E+00 0.  1.
<mgrwt>
<rscale>  2 0.23695997E+02</rscale>
<asrwt>0</asrwt>
<pdfrwt beam="1">  1       21 0.84871942E-03 0.23695997E+02</pdfrwt>
<pdfrwt beam="2">  1       21 0.16757872E-01 0.23695997E+02</pdfrwt>
<totfact> 0.10786732E+08</totfact>
</mgrwt>
</event>
<event>
 4    1  0.3862688E+004  0.3175547E+02  0.7546771E-02  0.1579457E+00
         21   -1    0    0  503  502  0.00000000000E+00  0.00000000000E+00  0.10053123938E+02  0.10053123938E+02  0.00000000000E+00 0.  1.
         21   -1    0    0  501  503 -0.00000000000E+00 -0.00000000000E+00 -0.10052092069E+03  0.10052092069E+03  0.00000000000E+00 0.  1.
          4    1    1    2  501    0  0.18967166989E+02 -0.25468729206E+02 -0.42689886198E+02  0.53205600969E+02  0.00000000000E+00 0. -1.
         -4    1    1    2    0  502 -0.18967166989E+02  0.25468729206E+02 -0.47777910555E+02  0.57368443660E+02  0.00000000000E+00 0.  1.
<mgrwt>
<rscale>  2 0.31755466E+02</rscale>
<asrwt>0</asrwt>
<pdfrwt beam="1">  1       21 0.15466344E-02 0.31755466E+02</pdfrwt>
<pdfrwt beam="2">  1       21 0.15464757E-01 0.31755466E+02</pdfrwt>
<totfact> 0.53515745E+07</totfact>
</mgrwt>
</event>
<event>
 4    1  0.3862688E+004  0.2753891E+02  0.7546771E-02  0.1627003E+00
         21   -1    0    0  503  502  0.00000000000E+00  0.00000000000E+00  0.30429976956E+01  0.30429976956E+01  0.00000000000E+00 0. -1.
         21   -1    0    0  501  503 -0.00000000000E+00 -0.00000000000E+00 -0.26690969543E+03  0.26690969543E+03  0.00000000000E+00 0. -1.
          5    1    1    2  501    0 -0.11389099939E+02  0.25073493091E+02 -0.97189969634E+02  0.10101624548E+03  0.00000000000E+00 0. -1.
         -5    1    1    2    0  502  0.11389099939E+02 -0.25073493091E+02 -0.16667672810E+03  0.16893644765E+03  0.00000000000E+00 0.  1.
<mgrwt>
<rscale>  2 0.27538912E+02</rscale>
<asrwt>0</asrwt>
<pdfrwt beam="1">  1       21 0.46815346E-03 0.27538912E+02</pdfrwt>
<pdfrwt beam="2">  1       21 0.41063033E-01 0.27538912E+02</pdfrwt>
<totfact> 0.53864470E+07</totfact>
</mgrwt>
</event>
<event>
 4    1  0.3862688E+004  0.2763159E+02  0.7546771E-02  0.1625848E+00
         21   -1    0    0  501  502  0.00000000000E+00  0.00000000000E+00  0.10412846590E+02  0.10412846590E+02  0.00000000000E+00 0.  1.
         21   -1    0    0  502  503 -0.00000000000E+00 -0.00000000000E+00 -0.80409840951E+02  0.80409840951E+02  0.00000000000E+00 0.  1.
          3    1    1    2  501    0 -0.27603116614E+02  0.12541432466E+01 -0.48479586816E+02  0.55801211994E+02  0.00000000000E+00 0.  1.
         -3    1    1    2    0  503  0.27603116614E+02 -0.12541432466E+01 -0.21517407545E+02  0.35021475547E+02  0.00000000000E+00 0. -1.
<mgrwt>
<rscale>  2 0.27631593E+02</rscale>
<asrwt>0</asrwt>
<pdfrwt beam="1">  1       21 0.16019764E-02 0.27631593E+02</pdfrwt>
<pdfrwt beam="2">  1       21 0.12370744E-01 0.27631593E+02</pdfrwt>
<totfact> 0.71946691E+07</totfact>
</mgrwt>
</event>
<event>
 4    1  0.3862688E+004  0.4152679E+02  0.7546771E-02  0.1497267E+00
         21   -1    0    0  501  502  0.00000000000E+00  0.00000000000E+00  0.12925840487E+03  0.12925840487E+03  0.00000000000E+00 0. -1.
         21   -1    0    0  502  503 -0.00000000000E+00 -0.00000000000E+00 -0.13794970506E+02  0.13794970506E+02  0.00000000000E+00 0. -1.
          2    1    1    2  501    0 -0.40576719175E+02  0.88319858423E+01  0.44760466148E+02  0.61057132612E+02  0.00000000000E+00 0. -1.
         -2    1    1    2    0  503  0.40576719175E+02 -0.88319858423E+01  0.70702968213E+02  0.81996242762E+02  0.00000000000E+00 0.  1.
<mgrwt>
<rscale>  2 0.41526788E+02</rscale>
<asrwt>0</asrwt>
<pdfrwt beam="1">  1       21 0.19885908E-01 0.41526788E+02</pdfrwt>
<pdfrwt beam="2">  1       21 0.21223032E-02 0.41526788E+02</pdfrwt>
<totfact> 0.22117515E+07</totfact>
</mgrwt>
</event>
<event>
 4    1  0.3862688E+004  0.2074167E+02  0.7546771E-02  0.1730969E+00
         21   -1    0    0  501  502  0.00000000000E+00  0.00000000000E+00  0.53038268640E+02  0.53038268640E+02  0.00000000000E+00 0.  1.
         21   -1    0    0  502  503 -0.00000000000E+00 -0.00000000000E+00 -0.85096431316E+01  0.85096431316E+01  0.00000000000E+00 0.  1.
          4    1    1    2  501    0  0.52816463465E+01 -0.20057946751E+02  0.28921290222E+02  0.35590139704E+02  0.00000000000E+00 0.  1.
         -4    1    1    2    0  503 -0.52816463465E+01  0.20057946751E+02  0.15607335286E+02  0.25957772068E+02  0.00000000000E+00 0. -1.
<mgrwt>
<rscale>  2 0.20741673E+02</rscale>
<asrwt>0</asrwt>
<pdfrwt beam="1">  1       21 0.81597334E-02 0.20741673E+02</pdfrwt>
<pdfrwt beam="2">  1       21 0.13091759E-02 0.20741673E+02</pdfrwt>
<totfact> 0.17987031E+08</totfact>
</mgrwt>
</event>
<event>
 4    1  0.3862688E+004  0.2133328E+02  0.7546771E-02  0.1720044E+00
         21   -1    0    0  501  502  0.00000000000E+00  0.00000000000E+00  0.13541326236E+01  0.13541326236E+01  0.00000000000E+00 0.  1.
         21   -1    0    0  502  503 -0.00000000000E+00 -0.00000000000E+00 -0.38175956708E+03  0.38175956708E+03  0.00000000000E+00 0.  1.
          1    1    1    2  501    0  0.20462967526E+02  0.60312471715E+01 -0.25645811476E+03  0.25734388201E+03  0.00000000000E+00 0.  1.
         -1    1    1    2    0  503 -0.20462967526E+02 -0.60312471715E+01 -0.12394731970E+03  0.12576981770E+03  0.00000000000E+00 0. -1.
<mgrwt>
<rscale>  2 0.21333283E+02</rscale>
<asrwt>0</asrwt>
<pdfrwt beam="1">  1       21 0.20832820E-03 0.21333283E+02</pdfrwt>
<pdfrwt beam="2">  1       21 0.58732213E-01 0.21333283E+02</pdfrwt>
<totfact> 0.82532417E+07</totfact>
</mgrwt>
</event>
<event>
 4    1  0.3862688E+004  0.2632560E+02  0.7546771E-02  0.1642661E+00
         21   -1    0    0  501  502  0.00000000000E+00  0.00000000000E+00  0.22319273204E+01  0.22319273204E+01  0.00000000000E+00 0. -1.
         21   -1    0    0  502  503 -0.00000000000E+00 -0.00000000000E+00 -0.34301659102E+03  0.34301659102E+03  0.00000000000E+00 0. -1.
          3    1    1    2  501    0 -0.96208022378E+01 -0.24504641357E+02 -0.22353280224E+03  0.22507765540E+03  0.00000000000E+00 0.  1.
         -3    1    1    2    0  503  0.96208022378E+01  0.24504641357E+02 -0.11725186146E+03  0.12017086294E+03  0.00000000000E+00 0. -1.
<mgrwt>
<rscale>  2 0.26325601E+02</rscale>
<asrwt>0</asrwt>
<pdfrwt beam="1">  1       21 0.34337332E-03 0.26325601E+02</pdfrwt>
<pdfrwt beam="2">  1       21 0.52771801E-01 0.26325601E+02</pdfrwt>
<totfact> 0.51821038E+07</totfact>
</mgrwt>
</event>
<event>
 4    1  0.3862688E+004  0.2039129E+02  0.7546771E-02  0.1737657E+00
         21   -1    0    0  501  502  0.00000000000E+00  0.00000000000E+00  0.36260624019E+03  0.36260624019E+03  0.00000000000E+00 0. -1.
         21   -1    0    0  502  503 -0.00000000000E+00 -0.00000000000E+00 -0.11903454168E+01  0.11903454168E+01  0.00000000000E+00 0. -1.
          5    1    1    2  501    0  0.10195415689E+02 -0.17659511707E+02  0.21553387735E+03  0.21649632130E+03  0.00000000000E+00 0. -1.
         -5    1    1    2    0  503 -0.10195415689E+02  0.17659511707E+02  0.14588201743E+03  0.14730026431E+03  0.00000000000E+00 0.  1.
<mgrwt>
<rscale>  2 0.20391294E+02</rscale>
<asrwt>0</asrwt>
<pdfrwt beam="1">  1       21 0.55785487E-01 0.20391294E+02</pdfrwt>
<pdfrwt beam="2">  1       21 0.18313035E-03 0.20391294E+02</pdfrwt>
<totfact> 0.10867313E+08</totfact>
</mgrwt>
</event>
<event>
 4    1  0.3862688E+004  0.3350534E+02  0.7546771E-02  0.1562289E+00
         21   -1    0    0  503  502  0.00000000000E+00  0.00000000000E+00  0.10779566376E+04  0.10779566376E+04  0.00000000000E+00 0. -1.
         21   -1    0    0  501  503 -0.00000000000E+00 -0.00000000000E+00 -0.13152916693E+01  0.13152916693E+01  0.00000000000E+00 0. -1.
          2    1    1    2  501    0 -0.16372395974E+02 -0.29232730521E+02  0.29207890132E+03  0.29399437491E+03  0.00000000000E+00 0. -1.
         -2    1    1    2    0  502  0.16372395974E+02  0.29232730521E+02  0.78456244461E+03  0.78527755436E+03  0.00000000000E+00 0.  1.
<mgrwt>
<rscale>  2 0.33505341E+02</rscale>
<asrwt>0</asrwt>
<pdfrwt beam="1">  1       21 0.16583878E+00 0.33505341E+02</pdfrwt>
<pdfrwt beam="2">  1       21 0.20235343E-03 0.33505341E+02</pdfrwt>
<totfact> 0.94424126E+06</totfact>
</mgrwt>
</event>
<event>
 4    1  0.3862688E+004  0.2181035E+02  0.7546771E-02  0.1711553E+00
         21   -1    0    0  501  502  0.00000000000E+00  0.00000000000E+00  0.53401486867E+01  0.53401486867E+01  0.00000000000E+00 0.  1.
         21   -1    0    0  502  503 -0.00000000000E+00 -0.00000000000E+00 -0.11517794366E+03  0.11517794366E+03  0.00000000000E+00 0.  1.
          4    1    1    2  501    0  0.21800948650E+02  0.64038255782E+00 -0.83603890544E+02  0.86401978947E+02  0.00000000000E+00 0.  1.
         -4    1    1    2    0  503 -0.21800948650E+02 -0.64038255782E+00 -0.26233904428E+02  0.34116113398E+02  0.00000000000E+00 0. -1.
<mgrwt>
<rscale>  2 0.21810352E+02</rscale>
<asrwt>0</asrwt>
<pdfrwt beam="1">  1       21 0.82156138E-03 0.21810352E+02</pdfrwt>
<pdfrwt beam="2">  1       21 0.17719683E-01 0.21810352E+02</pdfrwt>
<totfact> 0.10050010E+08</totfact>
</mgrwt>
</event>
<event>
 4    1  0.3862688E+004  0.2062144E+02  0.7546771E-02  0.1733245E+00
         21   -1    0    0  503  502  0.00000000000E+00  0.00000000000E+00  0.26817843647E+01  0.26817843647E+01  0.00000000000E+00 0. -1.
         21   -1    0    0  501  503 -0.00000000000E+00 -0.00000000000E+00 -0.15945173672E+03  0.15945173672E+03  0.00000000000E+00 0. -1.
          3    1    1    2  501    0 -0.20291707834E+02 -0.36729453496E+01 -0.72348214498E+02  0.75229702082E+02  0.00000000000E+00 0. -1.
         -3    1    1    2    0  502  0.20291707834E+02  0.36729453496E+01 -0.84421737857E+02  0.86903819002E+02  0.00000000000E+00 0.  1.
<mgrwt>
<rscale>  2 0.20621444E+02</rscale>
<asrwt>0</asrwt>
<pdfrwt beam="1">  1       21 0.41258216E-03 0.20621444E+02</pdfrwt>
<pdfrwt beam="2">  1       21 0.24531039E-01 0.20621444E+02</pdfrwt>
<totfact> 0.15494178E+08</totfact>
</mgrwt>
</event>
<event>
 4    1  0.3862688E+004  0.2331774E+02  0.7546771E-02  0.1686411E+00
         21   -1    0    0  501  502  0.00000000000E+00  0.00000000000E+00  0.28005620551E+03  0.28005620551E+03  0.00000000000E+00 0. -1.
         21   -1    0    0  502  503 -0.00000000000E+00 -0.00000000000E+00 -0.23777692383E+01  0.23777692383E+01  0.00000000000E+00 0. -1.
          3    1    1    2  501    0 -0.28803534535E+01 -0.23139152968E+02  0.78346761460E+02  0.81743084523E+02  0.00000000000E+00 0.  1.
         -3    1    1    2    0  503  0.28803534535E+01  0.23139152968E+02  0.19933167481E+03  0.20069089023E+03  0.00000000000E+00 0. -1.
<mgrwt>
<rscale>  2 0.23317737E+02</rscale>
<asrwt>0</asrwt>
<pdfrwt beam="1">  1       21 0.43085544E-01 0.23317737E+02</pdfrwt>
<pdfrwt beam="2">  1       21 0.36581087E-03 0.23317737E+02</pdfrwt>
<totfact> 0.68016224E+07</totfact>
</mgrwt>
</event>
<event>
 4    1  0.3862688E+004  0.2472974E+02  0.7546771E-02  0.1664914E+00
         21   -1    0    0  501  502  0.00000000000E+00  0.00000000000E+00  0.14109551333E+03  0.14109551333E+03  0.00000000000E+00 0. -1.
         21   -1    0    0  502  503 -0.00000000000E+00 -0.00000000000E+00 -0.43934964036E+01  0.43934964036E+01  0.00000000000E+00 0. -1.
          3    1    1    2  501    0 -0.27766144769E+01  0.24573363738E+02  0.59911924032E+02  0.64815109616E+02  0.00000000000E+00 0. -1.
         -3    1    1    2    0  503  0.27766144769E+01 -0.24573363738E+02  0.76790092890E+02  0.80673900113E+02  0.00000000000E+00 0.  1.
<mgrwt>
<rscale>  2 0.24729735E+02</rscale>
<asrwt>0</asrwt>
<pdfrwt beam="1">  1       21 0.21706999E-01 0.24729735E+02</pdfrwt>
<pdfrwt beam="2">  1       21 0.67592263E-03 0.24729735E+02</pdfrwt>
<totfact> 0.97687444E+07</totfact>
</mgrwt>
</event>
<event>
 4    1  0.3862688E+004  0.8106517E+02  0.7546771E-02  0.1326056E+00
         21   -1    0    0  503  502  0.00000000000E+00  0.00000000000E+00  0.57958941672E+01  0.57958941672E+01  0.00000000000E+00 0. -1.
         21   -1    0    0  501  503 -0.00000000000E+00 -0.00000000000E+00 -0.13146611986E+04  0.13146611986E+04  0.00000000000E+00 0. -1.
          1    1    1    2  501    0  0.51696738814E+02 -0.62442048989E+02 -0.89929573318E+03  0.90294206791E+03  0.00000000000E+00 0. -1.
         -1    1    1    2    0  502 -0.51696738814E+02  0.62442048989E+02 -0.40956957130E+03  0.41751502490E+03  0.00000000000E+00 0.  1.
<mgrwt>
<rscale>  2 0.81065173E+02</rscale>
<asrwt>0</asrwt>
<pdfrwt beam="1">  1       21 0.89167526E-03 0.81065173E+02</pdfrwt>
<pdfrwt beam="2">  1       21 0.20225574E+00 0.81065173E+02</pdfrwt>
<totfact> 0.61137984E+05</totfact>
</mgrwt>
</event>
<event>
 4    1  0.3862688E+004  0.2878003E+02  0.7546771E-02  0.1611979E+00
         21   -1    0    0  501  502  0.00000000000E+00  0.00000000000E+00  0.16122756099E+03  0.16122756099E+03  0.00000000000E+00 0.  1.
         21   -1    0    0  502  503 -0.00000000000E+00 -0.00000000000E+00 -0.98277931895E+01  0.98277931895E+01  0.00000000000E+00 0.  1.
          1    1    1    2  501    0  0.11975672657E+02 -0.26170090363E+02  0.16614055569E+02  0.33231268523E+02  0.00000000000E+00 0. -1.
         -1    1    1    2    0  503 -0.11975672657E+02  0.26170090363E+02  0.13478571223E+03  0.13782408565E+03  0.00000000000E+00 0.  1.
<mgrwt>
<rscale>  2 0.28780034E+02</rscale>
<asrwt>0</asrwt>
<pdfrwt beam="1">  1       21 0.24804238E-01 0.28780034E+02</pdfrwt>
<pdfrwt beam="2">  1       21 0.15119683E-02 0.28780034E+02</pdfrwt>
<totfact> 0.23629672E+07</totfact>
</mgrwt>
</event>
<event>
 4    1  0.3862688E+004  0.2010811E+02  0.7546771E-02  0.1743187E+00
         21   -1    0    0  501  502  0.00000000000E+00  0.00000000000E+00  0.26784553509E+01  0.26784553509E+01  0.00000000000E+00 0.  1.
         21   -1    0    0  502  503 -0.00000000000E+00 -0.00000000000E+00 -0.17239811802E+03  0.17239811802E+03  0.00000000000E+00 0.  1.
          3    1    1    2  501    0  0.18210748499E+02 -0.85267097810E+01 -0.53989714903E+02  0.57612719567E+02  0.00000000000E+00 0.  1.
         -3    1    1    2    0  503 -0.18210748499E+02  0.85267097810E+01 -0.11572994777E+03  0.11746385381E+03  0.00000000000E+00 0. -1.
<mgrwt>
<rscale>  2 0.20108111E+02</rscale>
<asrwt>0</asrwt>
<pdfrwt beam="1">  1       21 0.41207004E-03 0.20108111E+02</pdfrwt>
<pdfrwt beam="2">  1       21 0.26522788E-01 0.20108111E+02</pdfrwt>
<totfact> 0.13410414E+08</totfact>
</mgrwt>
</event>
<event>
 4    1  0.3862688E+004  0.3493254E+02  0.7546771E-02  0.1549200E+00
         21   -1    0    0  503  502  0.00000000000E+00  0.00000000000E+00  0.18724576367E+01  0.18724576367E+01  0.00000000000E+00 0.  1.
         21   -1    0    0  501  503 -0.00000000000E+00 -0.00000000000E+00 -0.68310624077E+03  0.68310624077E+03  0.00000000000E+00 0.  1.
          4    1    1    2  501    0  0.30224261278E+02 -0.17515042489E+02 -0.41405193965E+03  0.41552291323E+03  0.00000000000E+00 0. -1.
         -4    1    1    2    0  502 -0.30224261278E+02  0.17515042489E+02 -0.26718184348E+03  0.26945578518E+03  0.00000000000E+00 0.  1.
<mgrwt>
<rscale>  2 0.34932545E+02</rscale>
<asrwt>0</asrwt>
<pdfrwt beam="1">  1       21 0.28807047E-03 0.34932545E+02</pdfrwt>
<pdfrwt beam="2">  1       21 0.10509324E+00 0.34932545E+02</pdfrwt>
<totfact> 0.16590634E+07</totfact>
</mgrwt>
</event>
<event>
 4    1  0.3862688E+004  0.2484318E+02  0.7546771E-02  0.1663265E+00
         21   -1    0    0  503  502  0.00000000000E+00  0.00000000000E+00  0.32454875432E+03  0.32454875432E+03  0.00000000000E+00 0.  1.
         21   -1    0    0  501  503 -0.00000000000E+00 -0.00000000000E+00 -0.19029910255E+01  0.19029910255E+01  0.00000000000E+00 0.  1.
          1    1    1    2  501    0 -0.11549395256E+01 -0.24816316717E+02  0.15701645088E+03  0.15896964902E+03  0.00000000000E+00 0.  1.
         -1    1    1    2    0  502  0.11549395256E+01  0.24816316717E+02  0.16562931242E+03  0.16748209633E+03  0.00000000000E+00 0. -1.
<mgrwt>
<rscale>  2 0.24843177E+02</rscale>
<asrwt>0</asrwt>
<pdfrwt beam="1">  1       21 0.49930534E-01 0.24843177E+02</pdfrwt>
<pdfrwt beam="2">  1       21 0.29276811E-03 0.24843177E+02</pdfrwt>
<totfact> 0.72001836E+07</totfact>
</mgrwt>
</event>
<event>
 4    1  0.3862688E+004  0.3488339E+02  0.7546771E-02  0.1549639E+00
         21   -1    0    0  503  502  0.00000000000E+00  0.00000000000E+00  0.61492781985E+01  0.61492781985E+01  0.00000000000E+00 0. -1.
         21   -1    0    0  501  503 -0.00000000000E+00 -0.00000000000E+00 -0.27827179825E+03  0.27827179825E+03  0.00000000000E+00 0. -1.
          1    1    1    2  501    0  0.24463624600E+02 -0.24867287266E+02 -0.59626815386E+02  0.69081169776E+02  0.00000000000E+00 0. -1.
         -1    1    1    2    0  502 -0.24463624600E+02  0.24867287266E+02 -0.21249570467E+03  0.21533990668E+03  0.00000000000E+00 0.  1.
<mgrwt>
<rscale>  2 0.34883390E+02</rscale>
<asrwt>0</asrwt>
<pdfrwt beam="1">  1       21 0.94604264E-03 0.34883390E+02</pdfrwt>
<pdfrwt beam="2">  1       21 0.42811053E-01 0.34883390E+02</pdfrwt>
<totfact> 0.18087421E+07</totfact>
</mgrwt>
</event>
<event>
 4    1  0.3862688E+004  0.2205849E+02  0.7546771E-02  0.1707242E+00
         21   -1    0    0  501  502  0.00000000000E+00  0.00000000000E+00  0.71816089719E+02  0.71816089719E+02  0.00000000000E+00 0.  1.
         21   -1    0    0  502  503 -0.00000000000E+00 -0.00000000000E+00 -0.67866461065E+01  0.67866461065E+01  0.00000000000E+00 0.  1.
          2    1    1    2  501    0  0.12563239263E+02 -0.18131243104E+02  0.34120290366E+02  0.40629683384E+02  0.00000000000E+00 0. -1.
         -2    1    1    2    0  503 -0.12563239263E+02  0.18131243104E+02  0.30909153247E+02  0.37973052442E+02  0.00000000000E+00 0.  1.
<mgrwt>
<rscale>  2 0.22058489E+02</rscale>
<asrwt>0</asrwt>
<pdfrwt beam="1">  1       21 0.11048629E-01 0.22058489E+02</pdfrwt>
<pdfrwt beam="2">  1       21 0.10440995E-02 0.22058489E+02</pdfrwt>
<totfact> 0.15655868E+08</totfact>
</mgrwt>
</event>
<event>
 4    1  0.3862688E+004  0.2303522E+02  0.7546771E-02  0.1690940E+00
         21   -1    0    0  503  502  0.00000000000E+00  0.00000000000E+00  0.66244769791E+02  0.66244769791E+02  0.00000000000E+00 0.  1.
         21   -1    0    0  501  503 -0.00000000000E+00 -0.00000000000E+00 -0.87162920594E+01  0.87162920594E+01  0.00000000000E+00 0.  1.
          5    1    1    2  501    0  0.82071496371E+01 -0.21523569892E+02  0.18095121768E+02  0.29292572401E+02  0.00000000000E+00 0. -1.
         -5    1    1    2    0  502 -0.82071496371E+01  0.21523569892E+02  0.39433355963E+02  0.45668489449E+02  0.00000000000E+00 0.  1.
<mgrwt>
<rscale>  2 0.23035220E+02</rscale>
<asrwt>0</asrwt>
<pdfrwt beam="1">  1       21 0.10191503E-01 0.23035220E+02</pdfrwt>
<pdfrwt beam="2">  1       21 0.13409681E-02 0.23035220E+02</pdfrwt>
<totfact> 0.12432776E+08</totfact>
</mgrwt>
</event>
<event>
 4    1  0.3862688E+004  0.2990664E+02  0.7546771E-02  0.1599123E+00
         21   -1    0    0  501  502  0.00000000000E+00  0.00000000000E+00  0.40897217896E+02  0.40897217896E+02  0.00000000000E+00 0. -1.
         21   -1    0    0  502  503 -0.00000000000E+00 -0.00000000000E+00 -0.29593147795E+02  0.29593147795E+02  0.00000000000E+00 0. -1.
          5    1    1    2  501    0 -0.46670128695E+01 -0.29540248803E+02  0.23657799572E+02  0.38132647286E+02  0.00000000000E+00 0.  1.
         -5    1    1    2    0  503  0.46670128695E+01  0.29540248803E+02 -0.12353729471E+02  0.32357718404E+02  0.00000000000E+00 0. -1.
<mgrwt>
<rscale>  2 0.29906643E+02</rscale>
<asrwt>0</asrwt>
<pdfrwt beam="1">  1       21 0.62918797E-02 0.29906643E+02</pdfrwt>
<pdfrwt beam="2">  1       21 0.45527920E-02 0.29906643E+02</pdfrwt>
<totfact> 0.43822519E+07</totfact>
</mgrwt>
</event>
<event>
 4    1  0.3862688E+004  0.3062309E+02  0.7546771E-02  0.1591302E+00
         21   -1    0    0  501  502  0.00000000000E+00  0.00000000000E+00  0.19646266473E+02  0.19646266473E+02  0.00000000000E+00 0.  1.
         21   -1    0    0  502  503 -0.00000000000E+00 -0.00000000000E+00 -0.48399232934E+02  0.48399232934E+02  0.00000000000E+00 0.  1.
          1    1    1    2  501    0  0.29875148516E+02  0.67267364155E+01 -0.18368499919E+02  0.35709596342E+02  0.00000000000E+00 0. -1.
         -1    1    1    2    0  503 -0.29875148516E+02 -0.67267364155E+01 -0.10384466542E+02  0.32335903065E+02  0.00000000000E+00 0.  1.
<mgrwt>
<rscale>  2 0.30623087E+02</rscale>
<asrwt>0</asrwt>
<pdfrwt beam="1">  1       21 0.30225026E-02 0.30623087E+02</pdfrwt>
<pdfrwt beam="2">  1       21 0.74460357E-02 0.30623087E+02</pdfrwt>
<totfact> 0.64078327E+07</totfact>
</mgrwt>
</event>
<event>
 4    1  0.3862688E+004  0.2881069E+02  0.7546771E-02  0.1611620E+00
         21   -1    0    0  503  502  0.00000000000E+00  0.00000000000E+00  0.19433064050E+03  0.19433064050E+03  0.00000000000E+00 0.  1.
         21   -1    0    0  501  503 -0.00000000000E+00 -0.00000000000E+00 -0.54842106303E+01  0.54842106303E+01  0.00000000000E+00 0.  1.
          4    1    1    2  501    0  0.91234959491E+01 -0.27327960275E+02  0.47439770158E+02  0.55503039410E+02  0.00000000000E+00 0. -1.
         -4    1    1    2    0  502 -0.91234959491E+01  0.27327960275E+02  0.14140665971E+03  0.14431181172E+03  0.00000000000E+00 0.  1.
<mgrwt>
<rscale>  2 0.28810685E+02</rscale>
<asrwt>0</asrwt>
<pdfrwt beam="1">  1       21 0.29897016E-01 0.28810685E+02</pdfrwt>
<pdfrwt beam="2">  1       21 0.84372486E-03 0.28810685E+02</pdfrwt>
<totfact> 0.40837834E+07</totfact>
</mgrwt>
</event>
<event>
 4    1  0.3862688E+004  0.2095870E+02  0.7546771E-02  0.1726909E+00
         21   -1    0    0  501  502  0.00000000000E+00  0.00000000000E+00  0.23498956826E+02  0.23498956826E+02  0.00000000000E+00 0.  1.
         21   -1    0    0  502  503 -0.00000000000E+00 -0.00000000000E+00 -0.24454989238E+02  0.24454989238E+02  0.00000000000E+00 0.  1.
          4    1    1    2  501    0 -0.32541752686E+01 -0.20704526970E+02 -0.12116464569E+02  0.24209002610E+02  0.00000000000E+00 0. -1.
         -4    1    1    2    0  503  0.32541752686E+01  0.20704526970E+02  0.11160432157E+02  0.23744943454E+02  0.00000000000E+00 0.  1.
<mgrwt>
<rscale>  2 0.20958700E+02</rscale>
<asrwt>0</asrwt>
<pdfrwt beam="1">  1       21 0.36152241E-02 0.20958700E+02</pdfrwt>
<pdfrwt beam="2">  1       21 0.37623061E-02 0.20958700E+02</pdfrwt>
<totfact> 0.13054529E+08</totfact>
</mgrwt>
</event>
<event>
 4    1  0.3862688E+004  0.2146047E+02  0.7546771E-02  0.1717754E+00
         21   -1    0    0  503  502  0.00000000000E+00  0.00000000000E+00  0.60374340707E+01  0.60374340707E+01  0.00000000000E+00 0. -1.
         21   -1    0    0  501  503 -0.00000000000E+00 -0.00000000000E+00 -0.76705749441E+02  0.76705749441E+02  0.00000000000E+00 0. -1.
          2    1    1    2  501    0 -0.16103664171E+02  0.14185330237E+02 -0.38406707955E+02  0.43995758996E+02  0.00000000000E+00 0. -1.
         -2    1    1    2    0  502  0.16103664171E+02 -0.14185330237E+02 -0.32261607415E+02  0.38747424516E+02  0.00000000000E+00 0.  1.
<mgrwt>
<rscale>  2 0.21460466E+02</rscale>
<asrwt>0</asrwt>
<pdfrwt beam="1">  1       21 0.92883606E-03 0.21460466E+02</pdfrwt>
<pdfrwt beam="2">  1       21 0.11800884E-01 0.21460466E+02</pdfrwt>
<totfact> 0.16578339E+08</totfact>
</mgrwt>
</event>
<event>
 4    1  0.3862688E+004  0.2371996E+02  0.7546771E-02  0.1680099E+00
         21   -1    0    0  503  502  0.00000000000E+00  0.00000000000E+00  0.70631920380E+02  0.70631920380E+02  0.00000000000E+00 0.  1.
         21   -1    0    0  501  503 -0.00000000000E+00 -0.00000000000E+00 -0.80330822296E+01  0.80330822296E+01  0.00000000000E+00 0.  1.
          2    1    1    2  501    0  0.27443849964E+01 -0.23560667747E+02  0.34900222415E+02  0.42197893767E+02  0.00000000000E+00 0. -1.
         -2    1    1    2    0  502 -0.27443849964E+01  0.23560667747E+02  0.27698615735E+02  0.36467108843E+02  0.00000000000E+00 0.  1.
<mgrwt>
<rscale>  2 0.23719964E+02</rscale>
<asrwt>0</asrwt>
<pdfrwt beam="1">  1       21 0.10866449E-01 0.23719964E+02</pdfrwt>
<pdfrwt beam="2">  1       21 0.12358589E-02 0.23719964E+02</pdfrwt>
<totfact> 0.12755321E+08</totfact>
</mgrwt>
</event>
<event>
 4    1  0.3862688E+004  0.3169951E+02  0.7546771E-02  0.1580028E+00
         21   -1    0    0  501  502  0.00000000000E+00  0.00000000000E+00  0.13096226734E+03  0.13096226734E+03  0.00000000000E+00 0. -1.
         21   -1    0    0  502  503 -0.00000000000E+00 -0.00000000000E+00 -0.76953727628E+01  0.76953727628E+01  0.00000000000E+00 0. -1.
          3    1    1    2  501    0 -0.29905795258E+02  0.10512016849E+02  0.57886111807E+02  0.65997431983E+02  0.00000000000E+00 0. -1.
         -3    1    1    2    0  503  0.29905795258E+02 -0.10512016849E+02  0.65380782766E+02  0.72660208116E+02  0.00000000000E+00 0.  1.
<mgrwt>
<rscale>  2 0.31699512E+02</rscale>
<asrwt>0</asrwt>
<pdfrwt beam="1">  1       21 0.20148040E-01 0.31699512E+02</pdfrwt>
<pdfrwt beam="2">  1       21 0.11839036E-02 0.31699512E+02</pdfrwt>
<totfact> 0.50731954E+07</totfact>
</mgrwt>
</event>
<event>
 4    1  0.3862688E+004  0.2296425E+02  0.7546771E-02  0.1692090E+00
         21   -1    0    0  503  502  0.00000000000E+00  0.00000000000E+00  0.18005827860E+02  0.18005827860E+02  0.00000000000E+00 0. -1.
         21   -1    0    0  501  503 -0.00000000000E+00 -0.00000000000E+00 -0.31616688856E+02  0.31616688856E+02  0.00000000000E+00 0. -1.
          4    1    1    2  501    0 -0.13336060837E+02 -0.18695081480E+02 -0.71998616640E-01  0.22964358776E+02  0.00000000000E+00 0. -1.
         -4    1    1    2    0  502  0.13336060837E+02  0.18695081480E+02 -0.13538862380E+02  0.26658157940E+02  0.00000000000E+00 0.  1.
<mgrwt>
<rscale>  2 0.22964246E+02</rscale>
<asrwt>0</asrwt>
<pdfrwt beam="1">  1       21 0.27701274E-02 0.22964246E+02</pdfrwt>
<pdfrwt beam="2">  1       21 0.48641059E-02 0.22964246E+02</pdfrwt>
<totfact> 0.13549409E+08</totfact>
</mgrwt>
</event>
<event>
 4    1  0.3862688E+004  0.3494580E+02  0.7546771E-02  0.1549082E+00
         21   -1    0    0  503  502  0.00000000000E+00  0.00000000000E+00  0.38045921065E+03  0.38045921065E+03  0.00000000000E+00 0. -1.
         21   -1    0    0  501  503 -0.00000000000E+00 -0.00000000000E+00 -0.33342691942E+01  0.33342691942E+01  0.00000000000E+00 0. -1.
          1    1    1    2  501    0 -0.17686157673E+02 -0.30139817355E+02  0.15149023934E+03  0.15546865079E+03  0.00000000000E+00 0. -1.
         -1    1    1    2    0  502  0.17686157673E+02  0.30139817355E+02  0.22563470211E+03  0.22832482905E+03  0.00000000000E+00 0.  1.
<mgrwt>
<rscale>  2 0.34945798E+02</rscale>
<asrwt>0</asrwt>
<pdfrwt beam="1">  1       21 0.58532152E-01 0.34945798E+02</pdfrwt>
<pdfrwt beam="2">  1       21 0.51296479E-03 0.34945798E+02</pdfrwt>
<totfact> 0.24521665E+07</totfact>
</mgrwt>
</event>
<event>
 4    1  0.3862688E+004  0.2431201E+02  0.7546771E-02  0.1671085E+00
         21   -1    0    0  501  502  0.00000000000E+00  0.00000000000E+00  0.22154110627E+00  0.22154110627E+00  0.00000000000E+00 0.  1.
         21   -1    0    0  502  503 -0.00000000000E+00 -0.00000000000E+00 -0.27064247433E+04  0.27064247433E+04  0.00000000000E+00 0.  1.
          1    1    1    2  501    0  0.72845719845E+01  0.23195018416E+02 -0.11918689581E+04  0.11921168933E+04  0.00000000000E+00 0.  1.
         -1    1    1    2    0  503 -0.72845719845E+01 -0.23195018416E+02 -0.15143342440E+04  0.15145293911E+04  0.00000000000E+00 0. -1.
<mgrwt>
<rscale>  2 0.24312011E+02</rscale>
<asrwt>0</asrwt>
<pdfrwt beam="1">  1       21 0.34083590E-04 0.24312011E+02</pdfrwt>
<pdfrwt beam="2">  1       21 0.41636885E+00 0.24312011E+02</pdfrwt>
<totfact> 0.56149007E+06</totfact>
</mgrwt>
</event>
<event>
 4    1  0.3862688E+004  0.2748287E+02  0.7546771E-02  0.1627704E+00
         21   -1    0    0  501  502  0.00000000000E+00  0.00000000000E+00  0.10427452658E+02  0.10427452658E+02  0.00000000000E+00 0.  1.
         21   -1    0    0  502  503 -0.00000000000E+00 -0.00000000000E+00 -0.78217179340E+02  0.78217179340E+02  0.00000000000E+00 0.  1.
          5    1    1    2  501    0  0.48787886118E-01 -0.27482830761E+02 -0.21843611725E+02  0.35106292030E+02  0.00000000000E+00 0. -1.
         -5    1    1    2    0  503 -0.48787886118E-01  0.27482830761E+02 -0.45946114958E+02  0.53538339969E+02  0.00000000000E+00 0.  1.
<mgrwt>
<rscale>  2 0.27482874E+02</rscale>
<asrwt>0</asrwt>
<pdfrwt beam="1">  1       21 0.16042235E-02 0.27482874E+02</pdfrwt>
<pdfrwt beam="2">  1       21 0.12033412E-01 0.27482874E+02</pdfrwt>
<totfact> 0.75123794E+07</totfact>
</mgrwt>
</event>
<event>
 4    1  0.3862688E+004  0.3010321E+02  0.7546771E-02  0.1596951E+00
         21   -1    0    0  503  502  0.00000000000E+00  0.00000000000E+00  0.13316403484E+03  0.13316403484E+03  0.00000000000E+00 0.  1.
         21   -1    0    0  501  503 -0.00000000000E+00 -0.00000000000E+00 -0.69873529256E+01  0.69873529256E+01  0.00000000000E+00 0.  1.
          4    1    1    2  501    0  0.27076769030E+02  0.13154913490E+02  0.74403779538E+02  0.80262853049E+02  0.00000000000E+00 0. -1.
         -4    1    1    2    0  502 -0.27076769030E+02 -0.13154913490E+02  0.51772902378E+02  0.59888534718E+02  0.00000000000E+00 0.  1.
<mgrwt>
<rscale>  2 0.30103209E+02</rscale>
<asrwt>0</asrwt>
<pdfrwt beam="1">  1       21 0.20486773E-01 0.30103209E+02</pdfrwt>
<pdfrwt beam="2">  1       21 0.10749775E-02 0.30103209E+02</pdfrwt>
<totfact> 0.56436276E+07</totfact>
</mgrwt>
</event>
<event>
 4    1  0.3862688E+004  0.4405108E+02  0.7546771E-02  0.1480354E+00
         21   -1    0    0  503  502  0.00000000000E+00  0.00000000000E+00  0.88136811457E+03  0.88136811457E+03  0.00000000000E+00 0.  1.
         21   -1    0    0  501  503 -0.00000000000E+00 -0.00000000000E+00 -0.23104187382E+01  0.23104187382E+01  0.00000000000E+00 0.  1.
          4    1    1    2  501    0  0.40800053661E+02 -0.16608823922E+02  0.34367808798E+03  0.34648971928E+03  0.00000000000E+00 0.  1.
         -4    1    1    2    0  502 -0.40800053661E+02  0.16608823922E+02  0.53537960785E+03  0.53718881403E+03  0.00000000000E+00 0. -1.
<mgrwt>
<rscale>  2 0.44051077E+02</rscale>
<asrwt>0</asrwt>
<pdfrwt beam="1">  1       21 0.13559483E+00 0.44051077E+02</pdfrwt>
<pdfrwt beam="2">  1       21 0.35544974E-03 0.44051077E+02</pdfrwt>
<totfact> 0.68943217E+06</totfact>
</mgrwt>
</event>
<event>
 4    1  0.3862688E+004  0.2708873E+02  0.7546771E-02  0.1632695E+00
         21   -1    0    0  501  502  0.00000000000E+00  0.00000000000E+00  0.30912052972E+01  0.30912052972E+01  0.00000000000E+00 0.  1.
         21   -1    0    0  502  503 -0.00000000000E+00 -0.00000000000E+00 -0.27901995453E+03  0.27901995453E+03  0.00000000000E+00 0.  1.
          4    1    1    2  501    0 -0.26957362941E+02 -0.26645890953E+01 -0.83474934525E+02  0.87760265187E+02  0.00000000000E+00 0.  1.
         -4    1    1    2    0  503  0.26957362941E+02  0.26645890953E+01 -0.19245381470E+03  0.19435089464E+03  0.00000000000E+00 0. -1.
<mgrwt>
<rscale>  2 0.27088733E+02</rscale>
<asrwt>0</asrwt>
<pdfrwt beam="1">  1       21 0.47556999E-03 0.27088733E+02</pdfrwt>
<pdfrwt beam="2">  1       21 0.42926152E-01 0.27088733E+02</pdfrwt>
<totfact> 0.48174508E+07</totfact>
</mgrwt>
</event>
<event>
 4    1  0.3862688E+004  0.5981848E+02  0.7546771E-02  0.1398595E+00
         21   -1    0    0  501  502  0.00000000000E+00  0.00000000000E+00  0.22597294725E+03  0.22597294725E+03  0.00000000000E+00 0. -1.
         21   -1    0    0  502  503 -0.00000000000E+00 -0.00000000000E+00 -0.16858423996E+02  0.16858423996E+02  0.00000000000E+00 0. -1.
          3    1    1    2  501    0  0.48185562939E+02 -0.35445761297E+02  0.13447462764E+03  0.14717906083E+03  0.00000000000E+00 0.  1.
         -3    1    1    2    0  503 -0.48185562939E+02  0.35445761297E+02  0.74639895616E+02  0.95652310413E+02  0.00000000000E+00 0. -1.
<mgrwt>
<rscale>  2 0.59818479E+02</rscale>
<asrwt>0</asrwt>
<pdfrwt beam="1">  1       21 0.34765067E-01 0.59818479E+02</pdfrwt>
<pdfrwt beam="2">  1       21 0.25936039E-02 0.59818479E+02</pdfrwt>
<totfact> 0.59918103E+06</totfact>
</mgrwt>
</event>
<event>
 4    1  0.3862688E+004  0.2236203E+02  0.7546771E-02  0.1702065E+00
         21   -1    0    0  503  502  0.00000000000E+00  0.00000000000E+00  0.27936548768E+03  0.27936548768E+03  0.00000000000E+00 0.  1.
         21   -1    0    0  501  503 -0.00000000000E+00 -0.00000000000E+00 -0.22363183125E+01  0.22363183125E+01  0.00000000000E+00 0.  1.
          1    1    1    2  501    0  0.20209617870E+02  0.95724366823E+01  0.20146709706E+03  0.20270434479E+03  0.00000000000E+00 0. -1.
         -1    1    1    2    0  502 -0.20209617870E+02 -0.95724366823E+01  0.75662072307E+02  0.78897461203E+02  0.00000000000E+00 0.  1.
<mgrwt>
<rscale>  2 0.22362026E+02</rscale>
<asrwt>0</asrwt>
<pdfrwt beam="1">  1       21 0.42979278E-01 0.22362026E+02</pdfrwt>
<pdfrwt beam="2">  1       21 0.34404919E-03 0.22362026E+02</pdfrwt>
<totfact> 0.73966692E+07</totfact>
</mgrwt>
</event>
<event>
 4    1  0.3862688E+004  0.2558679E+02  0.7546771E-02  0.1652714E+00
         21   -1    0    0  503  502  0.00000000000E+00  0.00000000000E+00  0.10715733521E+02  0.10715733521E+02  0.00000000000E+00 0.  1.
         21   -1    0    0  501  503 -0.00000000000E+00 -0.00000000000E+00 -0.73039494308E+02  0.73039494308E+02  0.00000000000E+00 0.  1.
          5    1    1    2  501    0 -0.11906720727E+01  0.25559068673E+02 -0.48096554200E+02  0.54479007125E+02  0.00000000000E+00 0.  1.
         -5    1    1    2    0  502  0.11906720727E+01 -0.25559068673E+02 -0.14227206588E+02  0.29276220704E+02  0.00000000000E+00 0. -1.
<mgrwt>
<rscale>  2 0.25586787E+02</rscale>
<asrwt>0</asrwt>
<pdfrwt beam="1">  1       21 0.16485743E-02 0.25586787E+02</pdfrwt>
<pdfrwt beam="2">  1       21 0.11236846E-01 0.25586787E+02</pdfrwt>
<totfact> 0.79407900E+07</totfact>
</mgrwt>
</event>
<event>
 4    1  0.3862688E+004  0.4789297E+02  0.7546771E-02  0.1457049E+00
         21   -1    0    0  501  502  0.00000000000E+00  0.00000000000E+00  0.78638261479E+03  0.78638261479E+03  0.00000000000E+00 0. -1.
         21   -1    0    0  502  503 -0.00000000000E+00 -0.00000000000E+00 -0.29549622690E+01  0.29549622690E+01  0.00000000000E+00 0. -1.
          3    1    1    2  501    0 -0.44407194741E+02  0.17937041855E+02  0.34687430499E+03  0.35016498951E+03  0.00000000000E+00 0.  1.
         -3    1    1    2    0  503  0.44407194741E+02 -0.17937041855E+02  0.43655334753E+03  0.43917258755E+03  0.00000000000E+00 0. -1.
<mgrwt>
<rscale>  2 0.47892968E+02</rscale>
<asrwt>0</asrwt>
<pdfrwt beam="1">  1       21 0.12098177E+00 0.47892968E+02</pdfrwt>
<pdfrwt beam="2">  1       21 0.45461021E-03 0.47892968E+02</pdfrwt>
<totfact> 0.62942238E+06</totfact>
</mgrwt>
</event>
<event>
 4    1  0.3862688E+004  0.2597034E+02  0.7546771E-02  0.1647443E+00
         21   -1    0    0  501  502  0.00000000000E+00  0.00000000000E+00  0.32038547642E+01  0.32038547642E+01  0.00000000000E+00 0. -1.
         21   -1    0    0  502  503 -0.00000000000E+00 -0.00000000000E+00 -0.21437472979E+03  0.21437472979E+03  0.00000000000E+00 0. -1.
          3    1    1    2  501    0 -0.11425805897E+02 -0.23321871811E+02 -0.12018335182E+03  0.12295729665E+03  0.00000000000E+00 0.  1.
         -3    1    1    2    0  503  0.11425805897E+02  0.23321871811E+02 -0.90987523198E+02  0.94621287895E+02  0.00000000000E+00 0. -1.
<mgrwt>
<rscale>  2 0.25970344E+02</rscale>
<asrwt>0</asrwt>
<pdfrwt beam="1">  1       21 0.49290075E-03 0.25970344E+02</pdfrwt>
<pdfrwt beam="2">  1       21 0.32980726E-01 0.25970344E+02</pdfrwt>
<totfact> 0.74294738E+07</totfact>
</mgrwt>
</event>
<event>
 4    1  0.3862688E+004  0.2507662E+02  0.7546771E-02  0.1659904E+00
         21   -1    0    0  501  502  0.00000000000E+00  0.00000000000E+00  0.12931706698E+02  0.12931706698E+02  0.00000000000E+00 0.  1.
         21   -1    0    0  502  503 -0.00000000000E+00 -0.00000000000E+00 -0.49573009730E+02  0.49573009730E+02  0.00000000000E+00 0.  1.
          5    1    1    2  501    0  0.23228605834E+01 -0.24968802317E+02 -0.22636732116E+02  0.33782516356E+02  0.00000000000E+00 0.  1.
         -5    1    1    2    0  503 -0.23228605834E+01  0.24968802317E+02 -0.14004570916E+02  0.28722200072E+02  0.00000000000E+00 0. -1.
<mgrwt>
<rscale>  2 0.25076618E+02</rscale>
<asrwt>0</asrwt>
<pdfrwt beam="1">  1       21 0.19894934E-02 0.25076618E+02</pdfrwt>
<pdfrwt beam="2">  1       21 0.76266168E-02 0.25076618E+02</pdfrwt>
<totfact> 0.11233396E+08</totfact>
</mgrwt>
</event>
<event>
 4    1  0.3862688E+004  0.2015911E+02  0.7546771E-02  0.1742182E+00
         21   -1    0    0  501  502  0.00000000000E+00  0.00000000000E+00  0.57372789907E+03  0.57372789907E+03  0.00000000000E+00 0. -1.
         21   -1    0    0  502  503 -0.00000000000E+00 -0.00000000000E+00 -0.71526488247E+00  0.71526488247E+00  0.00000000000E+00 0. -1.
          4    1    1    2  501    0  0.59766113640E+01 -0.19252787713E+02  0.31478418471E+03  0.31542902952E+03  0.00000000000E+00 0. -1.
         -4    1    1    2    0  503 -0.59766113640E+01  0.19252787713E+02  0.25822844948E+03  0.25901413444E+03  0.00000000000E+00 0.  1.
<mgrwt>
<rscale>  2 0.20159110E+02</rscale>
<asrwt>0</asrwt>
<pdfrwt beam="1">  1       21 0.88265463E-01 0.20159110E+02</pdfrwt>
<pdfrwt beam="2">  1       21 0.11004121E-03 0.20159110E+02</pdfrwt>
<totfact> 0.87874583E+07</totfact>
</mgrwt>
</event>
<event>
 4    1  0.3862688E+004  0.2639372E+02  0.7546771E-02  0.1641754E+00
         21   -1    0    0  501  502  0.00000000000E+00  0.00000000000E+00  0.31308937849E+03  0.31308937849E+03  0.00000000000E+00 0.  1.
         21   -1    0    0  502  503 -0.00000000000E+00 -0.00000000000E+00 -0.22339816603E+01  0.22339816603E+01  0.00000000000E+00 0.  1.
          2    1    1    2  501    0  0.10475658533E+02 -0.24225790648E+02  0.16541660361E+03  0.16750904783E+03  0.00000000000E+00 0. -1.
         -2    1    1    2    0  503 -0.10475658533E+02  0.24225790648E+02  0.14543879322E+03  0.14781431232E+03  0.00000000000E+00 0.  1.
<mgrwt>
<rscale>  2 0.26393718E+02</rscale>
<asrwt>0</asrwt>
<pdfrwt beam="1">  1       21 0.48167562E-01 0.26393718E+02</pdfrwt>
<pdfrwt beam="2">  1       21 0.34368973E-03 0.26393718E+02</pdfrwt>
<totfact> 0.61911458E+07</totfact>
</mgrwt>
</event>
<event>
 4    1  0.3862688E+004  0.2011478E+02  0.7546771E-02  0.1743055E+00
         21   -1    0    0  501  502  0.00000000000E+00  0.00000000000E+00  0.67418695384E+01  0.67418695384E+01  0.00000000000E+00 0.  1.
         21   -1    0    0  502  503 -0.00000000000E+00 -0.00000000000E+00 -0.60491323924E+02  0.60491323924E+02  0.00000000000E+00 0.  1.
          2    1    1    2  501    0  0.18640556963E+02  0.75587043969E+01 -0.29861904593E+02  0.36004690278E+02  0.00000000000E+00 0.  1.
         -2    1    1    2    0  503 -0.18640556963E+02 -0.75587043969E+01 -0.23887549792E+02  0.31228503185E+02  0.00000000000E+00 0. -1.
<mgrwt>
<rscale>  2 0.20114780E+02</rscale>
<asrwt>0</asrwt>
<pdfrwt beam="1">  1       21 0.10372107E-02 0.20114780E+02</pdfrwt>
<pdfrwt beam="2">  1       21 0.93063575E-02 0.20114780E+02</pdfrwt>
<totfact> 0.20388741E+08</totfact>
</mgrwt>
</event>
<event>
 4    1  0.3862688E+004  0.2042776E+02  0.7546771E-02  0.1736953E+00
         21   -1    0    0  503  502  0.00000000000E+00  0.00000000000E+00  0.15354243246E+01  0.15354243246E+01  0.00000000000E+00 0.  1.
         21   -1    0    0  501  503 -0.00000000000E+00 -0.00000000000E+00 -0.30576332401E+03  0.30576332401E+03  0.00000000000E+00 0.  1.
          5    1    1    2  501    0  0.12856265453E+02  0.15874813649E+02 -0.20333979633E+03  0.20436331873E+03  0.00000000000E+00 0. -1.
         -5    1    1    2    0  502 -0.12856265453E+02 -0.15874813649E+02 -0.10088810335E+03  0.10293542961E+03  0.00000000000E+00 0.  1.
<mgrwt>
<rscale>  2 0.20427757E+02</rscale>
<asrwt>0</asrwt>
<pdfrwt beam="1">  1       21 0.23621938E-03 0.20427757E+02</pdfrwt>
<pdfrwt beam="2">  1       21 0.47040461E-01 0.20427757E+02</pdfrwt>
<totfact> 0.10493338E+08</totfact>
</mgrwt>
</event>
<event>
 4    1  0.3862688E+004  0.2303396E+02  0.7546771E-02  0.1690960E+00
         21   -1    0    0  503  502  0.00000000000E+00  0.00000000000E+00  0.42523934807E+03  0.42523934807E+03  0.00000000000E+00 0.  1.
         21   -1    0    0  501  503 -0.00000000000E+00 -0.00000000000E+00 -0.12910107655E+01  0.12910107655E+01  0.00000000000E+00 0.  1.
          4    1    1    2  501    0  0.16174220015E+02 -0.16399931419E+02  0.25104450464E+03  0.25209900129E+03  0.00000000000E+00 0. -1.
         -4    1    1    2    0  502 -0.16174220015E+02  0.16399931419E+02  0.17290383266E+03  0.17443135754E+03  0.00000000000E+00 0.  1.
<mgrwt>
<rscale>  2 0.23033956E+02</rscale>
<asrwt>0</asrwt>
<pdfrwt beam="1">  1       21 0.65421326E-01 0.23033956E+02</pdfrwt>
<pdfrwt beam="2">  1       21 0.19861738E-03 0.23033956E+02</pdfrwt>
<totfact> 0.72586277E+07</totfact>
</mgrwt>
</event>
<event>
 4    1  0.3862688E+004  0.2169851E+02  0.7546771E-02  0.1713519E+00
         21   -1    0    0  503  502  0.00000000000E+00  0.00000000000E+00  0.45754062126E+03  0.45754062126E+03  0.00000000000E+00 0. -1.
         21   -1    0    0  501  503 -0.00000000000E+00 -0.00000000000E+00 -0.14319213978E+01  0.14319213978E+01  0.00000000000E+00 0. -1.
          1    1    1    2  501    0  0.11512892381E+02  0.18392357583E+02  0.34978170697E+03  0.35045408835E+03  0.00000000000E+00 0. -1.
         -1    1    1    2    0  502 -0.11512892381E+02 -0.18392357583E+02  0.10632699288E+03  0.10851845430E+03  0.00000000000E+00 0.  1.
<mgrwt>
<rscale>  2 0.21698514E+02</rscale>
<asrwt>0</asrwt>
<pdfrwt beam="1">  1       21 0.70390748E-01 0.21698514E+02</pdfrwt>
<pdfrwt beam="2">  1       21 0.22029596E-03 0.21698514E+02</pdfrwt>
<totfact> 0.53078435E+07</totfact>
</mgrwt>
</event>
<event>
 4    1  0.3862688E+004  0.2918918E+02  0.7546771E-02  0.1607228E+00
         21   -1    0    0  501  502  0.00000000000E+00  0.00000000000E+00  0.49616520285E+01  0.49616520285E+01  0.00000000000E+00 0. -1.
         21   -1    0    0  502  503 -0.00000000000E+00 -0.00000000000E+00 -0.19976407790E+03  0.19976407790E+03  0.00000000000E+00 0. -1.
          3    1    1    2  501    0 -0.16029449255E+02 -0.24393954901E+02 -0.59046862821E+02  0.65867596647E+02  0.00000000000E+00 0. -1.
         -3    1    1    2    0  503  0.16029449255E+02  0.24393954901E+02 -0.13575556306E+03  0.13885813329E+03  0.00000000000E+00 0.  1.
<mgrwt>
<rscale>  2 0.29189181E+02</rscale>
<asrwt>0</asrwt>
<pdfrwt beam="1">  1       21 0.76333113E-03 0.29189181E+02</pdfrwt>
<pdfrwt beam="2">  1       21 0.30732933E-01 0.29189181E+02</pdfrwt>
<totfact> 0.45256548E+07</totfact>
</mgrwt>
</event>
<event>
 4    1  0.3862688E+004  0.2146981E+02  0.7546771E-02  0.1717586E+00
         21   -1    0    0  501  502  0.00000000000E+00  0.00000000000E+00  0.43512590088E+03  0.43512590088E+03  0.00000000000E+00 0.  1.
         21   -1    0    0  502  503 -0.00000000000E+00 -0.00000000000E+00 -0.14626011417E+01  0.14626011417E+01  0.00000000000E+00 0.  1.
          5    1    1    2  501    0  0.65511153478E+00  0.21459812133E+02  0.33145274855E+03  0.33214737275E+03  0.00000000000E+00 0.  1.
         -5    1    1    2    0  503 -0.65511153478E+00 -0.21459812133E+02  0.10221055119E+03  0.10444112927E+03  0.00000000000E+00 0. -1.
<mgrwt>
<rscale>  2 0.21469809E+02</rscale>
<asrwt>0</asrwt>
<pdfrwt beam="1">  1       21 0.66942343E-01 0.21469809E+02</pdfrwt>
<pdfrwt beam="2">  1       21 0.22501591E-03 0.21469809E+02</pdfrwt>
<totfact> 0.56882101E+07</totfact>
</mgrwt>
</event>
<event>
 4    1  0.3862688E+004  0.2366338E+02  0.7546771E-02  0.1680977E+00
         21   -1    0    0  503  502  0.00000000000E+00  0.00000000000E+00  0.27708631668E+03  0.27708631668E+03  0.00000000000E+00 0. -1.
         21   -1    0    0  501  503 -0.00000000000E+00 -0.00000000000E+00 -0.21613669265E+01  0.21613669265E+01  0.00000000000E+00 0. -1.
          3    1    1    2  501    0  0.23299632197E+02 -0.41331299575E+01  0.10186430798E+03  0.10457673194E+03  0.00000000000E+00 0.  1.
         -3    1    1    2    0  502 -0.23299632197E+02  0.41331299575E+01  0.17306064177E+03  0.17467095166E+03  0.00000000000E+00 0. -1.
<mgrwt>
<rscale>  2 0.23663381E+02</rscale>
<asrwt>0</asrwt>
<pdfrwt beam="1">  1       21 0.42628636E-01 0.23663381E+02</pdfrwt>
<pdfrwt beam="2">  1       21 0.33251821E-03 0.23663381E+02</pdfrwt>
<totfact> 0.80106171E+07</totfact>
</mgrwt>
</event>
<event>
 4    1  0.3862688E+004  0.2101098E+02  0.7546771E-02  0.1725940E+00
         21   -1    0    0  501  502  0.00000000000E+00  0.00000000000E+00  0.39427762707E+02  0.39427762707E+02  0.00000000000E+00 0. -1.
         21   -1    0    0  502  503 -0.00000000000E+00 -0.00000000000E+00 -0.11197759246E+02  0.11197759246E+02  0.00000000000E+00 0. -1.
          2    1    1    2  501    0 -0.20469435646E+02  0.47395875974E+01  0.13870750441E+02  0.25176560608E+02  0.00000000000E+00 0.  1.
         -2    1    1    2    0  503  0.20469435646E+02 -0.47395875974E+01  0.14359253019E+02  0.25448961344E+02  0.00000000000E+00 0. -1.
<mgrwt>
<rscale>  2 0.21010985E+02</rscale>
<asrwt>0</asrwt>
<pdfrwt beam="1">  1       21 0.60658096E-02 0.21010985E+02</pdfrwt>
<pdfrwt beam="2">  1       21 0.17227322E-02 0.21010985E+02</pdfrwt>
<totfact> 0.19229361E+08</totfact>
</mgrwt>
</event>
<event>
 4    1  0.3862688E+004  0.2168885E+02  0.7546771E-02  0.1713689E+00
         21   -1    0    0  501  502  0.00000000000E+00  0.00000000000E+00  0.33252677859E+03  0.33252677859E+03  0.00000000000E+00 0. -1.
         21   -1    0    0  502  503 -0.00000000000E+00 -0.00000000000E+00 -0.18450562588E+01  0.18450562588E+01  0.00000000000E+00 0. -1.
          5    1    1    2  501    0  0.10501352322E+02  0.18977037362E+02  0.24609005785E+03  0.24704396961E+03  0.00000000000E+00 0.  1.
         -5    1    1    2    0  503 -0.10501352322E+02 -0.18977037362E+02  0.84591664482E+02  0.87327865241E+02  0.00000000000E+00 0. -1.
<mgrwt>
<rscale>  2 0.21688853E+02</rscale>
<asrwt>0</asrwt>
<pdfrwt beam="1">  1       21 0.51157918E-01 0.21688853E+02</pdfrwt>
<pdfrwt beam="2">  1       21 0.28385507E-03 0.21688853E+02</pdfrwt>
<totfact> 0.69483334E+07</totfact>
</mgrwt>
</event>
<event>
 4    1  0.3862688E+004  0.2188223E+02  0.7546771E-02  0.1710297E+00
         21   -1    0    0  503  502  0.00000000000E+00  0.00000000000E+00  0.39614790970E+01  0.39614790970E+01  0.00000000000E+00 0. -1.
         21   -1    0    0  501  503 -0.00000000000E+00 -0.00000000000E+00 -0.12566797222E+03  0.12566797222E+03  0.00000000000E+00 0. -1.
          5    1    1    2  501    0 -0.17335144843E+02 -0.13353835155E+02 -0.48191408446E+02  0.52926779688E+02  0.00000000000E+00 0. -1.
         -5    1    1    2    0  502  0.17335144843E+02  0.13353835155E+02 -0.73515084679E+02  0.76702671632E+02  0.00000000000E+00 0.  1.
<mgrwt>
<rscale>  2 0.21882234E+02</rscale>
<asrwt>0</asrwt>
<pdfrwt beam="1">  1       21 0.60945838E-03 0.21882234E+02</pdfrwt>
<pdfrwt beam="2">  1       21 0.19333532E-01 0.21882234E+02</pdfrwt>
<totfact> 0.13482556E+08</totfact>
</mgrwt>
</event>
<event>
 4    1  0.3862688E+004  0.2406146E+02  0.7546771E-02  0.1674860E+00
         21   -1    0    0  501  502  0.00000000000E+00  0.00000000000E+00  0.23652197604E+04  0.23652197604E+04  0.00000000000E+00 0. -1.
         21   -1    0    0  502  503 -0.00000000000E+00 -0.00000000000E+00 -0.28715228244E+00  0.28715228244E+00  0.00000000000E+00 0. -1.
          1    1    1    2  501    0 -0.23626365681E+02 -0.45550975166E+01  0.72811832071E+03  0.72851578090E+03  0.00000000000E+00 0. -1.
         -1    1    1    2    0  503  0.23626365681E+02  0.45550975166E+01  0.16368142874E+04  0.16369911318E+04  0.00000000000E+00 0.  1.
<mgrwt>
<rscale>  2 0.24061464E+02</rscale>
<asrwt>0</asrwt>
<pdfrwt beam="1">  1       21 0.36386436E+00 0.24061464E+02</pdfrwt>
<pdfrwt beam="2">  1       21 0.44179168E-04 0.24061464E+02</pdfrwt>
<totfact> 0.74648435E+06</totfact>
</mgrwt>
</event>
<event>
 4    1  0.3862688E+004  0.2386336E+02  0.7546771E-02  0.1677886E+00
         21   -1    0    0  503  502  0.00000000000E+00  0.00000000000E+00  0.39290089467E+02  0.39290089467E+02  0.00000000000E+00 0.  1.
         21   -1    0    0  501  503 -0.00000000000E+00 -0.00000000000E+00 -0.14494177034E+02  0.14494177034E+02  0.00000000000E+00 0.  1.
          3    1    1    2  501    0  0.21416730252E+02  0.10525383624E+02  0.12248977523E+02  0.26823450290E+02  0.00000000000E+00 0.  1.
         -3    1    1    2    0  502 -0.21416730252E+02 -0.10525383624E+02  0.12546934910E+02  0.26960816211E+02  0.00000000000E+00 0. -1.
<mgrwt>
<rscale>  2 0.23863362E+02</rscale>
<asrwt>0</asrwt>
<pdfrwt beam="1">  1       21 0.60446291E-02 0.23863362E+02</pdfrwt>
<pdfrwt beam="2">  1       21 0.22298734E-02 0.23863362E+02</pdfrwt>
<totfact> 0.13544568E+08</totfact>
</mgrwt>
</event>
<event>
 4    1  0.3862688E+004  0.2725799E+02  0.7546771E-02  0.1630539E+00
         21   -1    0    0  501  502  0.00000000000E+00  0.00000000000E+00  0.85032788894E+02  0.85032788894E+02  0.00000000000E+00 0.  1.
         21   -1    0    0  502  503 -0.00000000000E+00 -0.00000000000E+00 -0.36833461415E+02  0.36833461415E+02  0.00000000000E+00 0.  1.
          2    1    1    2  501    0  0.25549969233E+02 -0.94972165129E+01  0.77316854909E+02  0.81981059412E+02  0.00000000000E+00 0.  1.
         -2    1    1    2    0  503 -0.25549969233E+02  0.94972165129E+01 -0.29117527430E+02  0.39885190897E+02  0.00000000000E+00 0. -1.
<mgrwt>
<rscale>  2 0.27257991E+02</rscale>
<asrwt>0</asrwt>
<pdfrwt beam="1">  1       21 0.13081967E-01 0.27257991E+02</pdfrwt>
<pdfrwt beam="2">  1       21 0.56666864E-02 0.27257991E+02</pdfrwt>
<totfact> 0.89857101E+06</totfact>
</mgrwt>
</event>
<event>
 4    1  0.3862688E+004  0.3154124E+02  0.7546771E-02  0.1581652E+00
         21   -1    0    0  501  502  0.00000000000E+00  0.00000000000E+00  0.31268584045E+02  0.31268584045E+02  0.00000000000E+00 0. -1.
         21   -1    0    0  502  503 -0.00000000000E+00 -0.00000000000E+00 -0.32100024787E+02  0.32100024787E+02  0.00000000000E+00 0. -1.
          2    1    1    2  501    0 -0.28391361336E+02  0.13739741733E+02  0.25631970731E+01  0.31645218922E+02  0.00000000000E+00 0.  1.
         -2    1    1    2    0  503  0.28391361336E+02 -0.13739741733E+02 -0.33946378150E+01  0.31723389909E+02  0.00000000000E+00 0. -1.
<mgrwt>
<rscale>  2 0.31541241E+02</rscale>
<asrwt>0</asrwt>
<pdfrwt beam="1">  1       21 0.48105514E-02 0.31541241E+02</pdfrwt>
<pdfrwt beam="2">  1       21 0.49384654E-02 0.31541241E+02</pdfrwt>
<totfact> 0.60053982E+07</totfact>
</mgrwt>
</event>
<event>
 4    1  0.3862688E+004  0.2078726E+02  0.7546771E-02  0.1730111E+00
         21   -1    0    0  501  502  0.00000000000E+00  0.00000000000E+00  0.20198451950E+02  0.20198451950E+02  0.00000000000E+00 0. -1.
         21   -1    0    0  502  503 -0.00000000000E+00 -0.00000000000E+00 -0.22804247600E+02  0.22804247600E+02  0.00000000000E+00 0. -1.
          4    1    1    2  501    0 -0.10524191210E+02  0.17926284584E+02  0.40454902559E+01  0.21177258345E+02  0.00000000000E+00 0. -1.
         -4    1    1    2    0  503  0.10524191210E+02 -0.17926284584E+02 -0.66512859053E+01  0.21825441205E+02  0.00000000000E+00 0.  1.
<mgrwt>
<rscale>  2 0.20787262E+02</rscale>
<asrwt>0</asrwt>
<pdfrwt beam="1">  1       21 0.31074541E-02 0.20787262E+02</pdfrwt>
<pdfrwt beam="2">  1       21 0.35083458E-02 0.20787262E+02</pdfrwt>
<totfact> 0.18387458E+08</totfact>
</mgrwt>
</event>
<event>
 4    1  0.3862688E+004  0.2183126E+02  0.7546771E-02  0.1711187E+00
         21   -1    0    0  501  502  0.00000000000E+00  0.00000000000E+00  0.23959834665E+02  0.23959834665E+02  0.00000000000E+00 0.  1.
         21   -1    0    0  502  503 -0.00000000000E+00 -0.00000000000E+00 -0.25505809872E+02  0.25505809872E+02  0.00000000000E+00 0.  1.
          3    1    1    2  501    0  0.20981578588E+02 -0.60313438195E+01  0.10830578911E+02  0.24370170042E+02  0.00000000000E+00 0. -1.
         -3    1    1    2    0  503 -0.20981578588E+02  0.60313438195E+01 -0.12376554118E+02  0.25095474496E+02  0.00000000000E+00 0.  1.
<mgrwt>
<rscale>  2 0.21831256E+02</rscale>
<asrwt>0</asrwt>
<pdfrwt beam="1">  1       21 0.36861284E-02 0.21831256E+02</pdfrwt>
<pdfrwt beam="2">  1       21 0.39239707E-02 0.21831256E+02</pdfrwt>
<totfact> 0.12001811E+08</totfact>
</mgrwt>
</event>
<event>
 4    1  0.3862688E+004  0.2487261E+02  0.7546771E-02  0.1662838E+00
         21   -1    0    0  503  502  0.00000000000E+00  0.00000000000E+00  0.13196579517E+02  0.13196579517E+02  0.00000000000E+00 0. -1.
         21   -1    0    0  501  503 -0.00000000000E+00 -0.00000000000E+00 -0.47123342841E+02  0.47123342841E+02  0.00000000000E+00 0. -1.
          2    1    1    2  501    0 -0.72412107042E+01  0.23795202428E+02 -0.19133683248E+02  0.31380640938E+02  0.00000000000E+00 0. -1.
         -2    1    1    2    0  502  0.72412107042E+01 -0.23795202428E+02 -0.14793080076E+02  0.28939281421E+02  0.00000000000E+00 0.  1.
<mgrwt>
<rscale>  2 0.24872611E+02</rscale>
<asrwt>0</asrwt>
<pdfrwt beam="1">  1       21 0.20302430E-02 0.24872611E+02</pdfrwt>
<pdfrwt beam="2">  1       21 0.72497450E-02 0.24872611E+02</pdfrwt>
<totfact> 0.11799988E+08</totfact>
</mgrwt>
</event>
<event>
 4    1  0.3862688E+004  0.2335166E+02  0.7546771E-02  0.1685872E+00
         21   -1    0    0  501  502  0.00000000000E+00  0.00000000000E+00  0.66937280866E+01  0.66937280866E+01  0.00000000000E+00 0.  1.
         21   -1    0    0  502  503 -0.00000000000E+00 -0.00000000000E+00 -0.86518259192E+02  0.86518259192E+02  0.00000000000E+00 0.  1.
          1    1    1    2  501    0 -0.23010850683E+02 -0.39750116411E+01 -0.51176538073E+02  0.56252448977E+02  0.00000000000E+00 0. -1.
         -1    1    1    2    0  503  0.23010850683E+02  0.39750116411E+01 -0.28647993032E+02  0.36959538301E+02  0.00000000000E+00 0.  1.
<mgrwt>
<rscale>  2 0.23351659E+02</rscale>
<asrwt>0</asrwt>
<pdfrwt beam="1">  1       21 0.10298043E-02 0.23351659E+02</pdfrwt>
<pdfrwt beam="2">  1       21 0.13310501E-01 0.23351659E+02</pdfrwt>
<totfact> 0.11898828E+08</totfact>
</mgrwt>
</event>
<event>
 4    1  0.3862688E+004  0.2167170E+02  0.7546771E-02  0.1713992E+00
         21   -1    0    0  503  502  0.00000000000E+00  0.00000000000E+00  0.54823968185E+02  0.54823968185E+02  0.00000000000E+00 0. -1.
         21   -1    0    0  501  503 -0.00000000000E+00 -0.00000000000E+00 -0.10126142171E+02  0.10126142171E+02  0.00000000000E+00 0. -1.
          3    1    1    2  501    0  0.21268916945E+02 -0.41588279928E+01  0.35092948197E+02  0.41245335390E+02  0.00000000000E+00 0.  1.
         -3    1    1    2    0  502 -0.21268916945E+02  0.41588279928E+01  0.96048778171E+01  0.23704774966E+02  0.00000000000E+00 0. -1.
<mgrwt>
<rscale>  2 0.21671702E+02</rscale>
<asrwt>0</asrwt>
<pdfrwt beam="1">  1       21 0.84344565E-02 0.21671702E+02</pdfrwt>
<pdfrwt beam="2">  1       21 0.15578681E-02 0.21671702E+02</pdfrwt>
<totfact> 0.13276618E+08</totfact>
</mgrwt>
</event>
<event>
 4    1  0.3862688E+004  0.2011151E+02  0.7546771E-02  0.1743120E+00
         21   -1    0    0  503  502  0.00000000000E+00  0.00000000000E+00  0.11102668494E+01  0.11102668494E+01  0.00000000000E+00 0.  1.
         21   -1    0    0  501  503 -0.00000000000E+00 -0.00000000000E+00 -0.58682807174E+03  0.58682807174E+03  0.00000000000E+00 0.  1.
          4    1    1    2  501    0  0.21519146079E+01  0.19996050002E+02 -0.11183475298E+03  0.11362871436E+03  0.00000000000E+00 0. -1.
         -4    1    1    2    0  502 -0.21519146079E+01 -0.19996050002E+02 -0.47388305191E+03  0.47430962423E+03  0.00000000000E+00 0.  1.
<mgrwt>
<rscale>  2 0.20111508E+02</rscale>
<asrwt>0</asrwt>
<pdfrwt beam="1">  1       21 0.17081032E-03 0.20111508E+02</pdfrwt>
<pdfrwt beam="2">  1       21 0.90281223E-01 0.20111508E+02</pdfrwt>
<totfact> 0.44715145E+07</totfact>
</mgrwt>
</event>
<event>
 4    1  0.3862688E+004  0.2582646E+02  0.7546771E-02  0.1649407E+00
         21   -1    0    0  503  502  0.00000000000E+00  0.00000000000E+00  0.13307607490E+02  0.13307607490E+02  0.00000000000E+00 0. -1.
         21   -1    0    0  501  503 -0.00000000000E+00 -0.00000000000E+00 -0.56674192382E+02  0.56674192382E+02  0.00000000000E+00 0. -1.
          5    1    1    2  501    0 -0.25676198740E+02 -0.27818547279E+01 -0.33580657692E+02  0.42363503968E+02  0.00000000000E+00 0. -1.
         -5    1    1    2    0  502  0.25676198740E+02  0.27818547279E+01 -0.97859272003E+01  0.27618295904E+02  0.00000000000E+00 0.  1.
<mgrwt>
<rscale>  2 0.25826457E+02</rscale>
<asrwt>0</asrwt>
<pdfrwt beam="1">  1       21 0.20473242E-02 0.25826457E+02</pdfrwt>
<pdfrwt beam="2">  1       21 0.87191065E-02 0.25826457E+02</pdfrwt>
<totfact> 0.86965597E+07</totfact>
</mgrwt>
</event>
<event>
 4    1  0.3862688E+004  0.2384784E+02  0.7546771E-02  0.1678124E+00
         21   -1    0    0  503  502  0.00000000000E+00  0.00000000000E+00  0.10840868116E+03  0.10840868116E+03  0.00000000000E+00 0. -1.
         21   -1    0    0  501  503 -0.00000000000E+00 -0.00000000000E+00 -0.54902343783E+01  0.54902343783E+01  0.00000000000E+00 0. -1.
          4    1    1    2  501    0 -0.23737859920E+02  0.22876723887E+01  0.39449415703E+02  0.46097460210E+02  0.00000000000E+00 0.  1.
         -4    1    1    2    0  502  0.23737859920E+02 -0.22876723887E+01  0.63469031082E+02  0.67801455331E+02  0.00000000000E+00 0. -1.
<mgrwt>
<rscale>  2 0.23847839E+02</rscale>
<asrwt>0</asrwt>
<pdfrwt beam="1">  1       21 0.16678257E-01 0.23847839E+02</pdfrwt>
<pdfrwt beam="2">  1       21 0.84465152E-03 0.23847839E+02</pdfrwt>
<totfact> 0.10973526E+08</totfact>
</mgrwt>
</event>
<event>
 4    1  0.3862688E+004  0.5096496E+02  0.7546771E-02  0.1440205E+00
         21   -1    0    0  501  502  0.00000000000E+00  0.00000000000E+00  0.11143722643E+03  0.11143722643E+03  0.00000000000E+00 0. -1.
         21   -1    0    0  502  503 -0.00000000000E+00 -0.00000000000E+00 -0.24225114042E+02  0.24225114042E+02  0.00000000000E+00 0. -1.
          4    1    1    2  501    0  0.46377575585E+01 -0.50753510366E+02  0.30411205167E+02  0.59348706889E+02  0.00000000000E+00 0.  1.
         -4    1    1    2    0  503 -0.46377575585E+01  0.50753510366E+02  0.56800907225E+02  0.76313633587E+02  0.00000000000E+00 0. -1.
<mgrwt>
<rscale>  2 0.50964965E+02</rscale>
<asrwt>0</asrwt>
<pdfrwt beam="1">  1       21 0.17144188E-01 0.50964965E+02</pdfrwt>
<pdfrwt beam="2">  1       21 0.37269407E-02 0.50964965E+02</pdfrwt>
<totfact> 0.12097318E+07</totfact>
</mgrwt>
</event>
<event>
 4    1  0.3862688E+004  0.2649681E+02  0.7546771E-02  0.1640389E+00
         21   -1    0    0  503  502  0.00000000000E+00  0.00000000000E+00  0.47224302997E+02  0.47224302997E+02  0.00000000000E+00 0. -1.
         21   -1    0    0  501  503 -0.00000000000E+00 -0.00000000000E+00 -0.30417668887E+02  0.30417668887E+02  0.00000000000E+00 0. -1.
          4    1    1    2  501    0  0.18505118960E+02  0.18964213478E+02 -0.19354096073E+02  0.32812525892E+02  0.00000000000E+00 0.  1.
         -4    1    1    2    0  502 -0.18505118960E+02 -0.18964213478E+02  0.36160730183E+02  0.44829445992E+02  0.00000000000E+00 0. -1.
<mgrwt>
<rscale>  2 0.26496808E+02</rscale>
<asrwt>0</asrwt>
<pdfrwt beam="1">  1       21 0.72652773E-02 0.26496808E+02</pdfrwt>
<pdfrwt beam="2">  1       21 0.46796414E-02 0.26496808E+02</pdfrwt>
<totfact> 0.32295361E+07</totfact>
</mgrwt>
</event>
<event>
 4    1  0.3862688E+004  0.3529027E+02  0.7546771E-02  0.1546038E+00
         21   -1    0    0  503  502  0.00000000000E+00  0.00000000000E+00  0.12832046203E+03  0.12832046203E+03  0.00000000000E+00 0.  1.
         21   -1    0    0  501  503 -0.00000000000E+00 -0.00000000000E+00 -0.98208450679E+01  0.98208450679E+01  0.00000000000E+00 0.  1.
          3    1    1    2  501    0  0.26746655998E+02  0.23022146828E+02  0.51761465525E+02  0.62647044343E+02  0.00000000000E+00 0.  1.
         -3    1    1    2    0  502 -0.26746655998E+02 -0.23022146828E+02  0.66738151441E+02  0.75494262759E+02  0.00000000000E+00 0. -1.
<mgrwt>
<rscale>  2 0.35290266E+02</rscale>
<asrwt>0</asrwt>
<pdfrwt beam="1">  1       21 0.19741608E-01 0.35290266E+02</pdfrwt>
<pdfrwt beam="2">  1       21 0.15108993E-02 0.35290266E+02</pdfrwt>
<totfact> 0.36967360E+07</totfact>
</mgrwt>
</event>
<event>
 4    1  0.3862688E+004  0.2641425E+02  0.7546771E-02  0.1641482E+00
         21   -1    0    0  501  502  0.00000000000E+00  0.00000000000E+00  0.60933045407E+02  0.60933045407E+02  0.00000000000E+00 0. -1.
         21   -1    0    0  502  503 -0.00000000000E+00 -0.00000000000E+00 -0.11465034923E+02  0.11465034923E+02  0.00000000000E+00 0. -1.
          5    1    1    2  501    0  0.19095549666E+02 -0.18250283015E+02  0.26023614522E+02  0.37080201725E+02  0.00000000000E+00 0.  1.
         -5    1    1    2    0  503 -0.19095549666E+02  0.18250283015E+02  0.23444395962E+02  0.35317878606E+02  0.00000000000E+00 0. -1.
<mgrwt>
<rscale>  2 0.26414255E+02</rscale>
<asrwt>0</asrwt>
<pdfrwt beam="1">  1       21 0.93743145E-02 0.26414255E+02</pdfrwt>
<pdfrwt beam="2">  1       21 0.17638516E-02 0.26414255E+02</pdfrwt>
<totfact> 0.97606796E+07</totfact>
</mgrwt>
</event>
<event>
 4    1  0.3862688E+004  0.2697356E+02  0.7546771E-02  0.1634173E+00
         21   -1    0    0  503  502  0.00000000000E+00  0.00000000000E+00  0.58773036228E+02  0.58773036228E+02  0.00000000000E+00 0.  1.
         21   -1    0    0  501  503 -0.00000000000E+00 -0.00000000000E+00 -0.15034086296E+02  0.15034086296E+02  0.00000000000E+00 0.  1.
          1    1    1    2  501    0 -0.14374015505E+02 -0.22824560132E+02  0.63620664866E+01  0.27713692590E+02  0.00000000000E+00 0. -1.
         -1    1    1    2    0  502  0.14374015505E+02  0.22824560132E+02  0.37376883445E+02  0.46093429934E+02  0.00000000000E+00 0.  1.
<mgrwt>
<rscale>  2 0.26973559E+02</rscale>
<asrwt>0</asrwt>
<pdfrwt beam="1">  1       21 0.90420054E-02 0.26973559E+02</pdfrwt>
<pdfrwt beam="2">  1       21 0.23129364E-02 0.26973559E+02</pdfrwt>
<totfact> 0.68562955E+07</totfact>
</mgrwt>
</event>
<event>
 4    1  0.3862688E+004  0.2864681E+02  0.7546771E-02  0.1613547E+00
         21   -1    0    0  503  502  0.00000000000E+00  0.00000000000E+00  0.55013689985E+00  0.55013689985E+00  0.00000000000E+00 0.  1.
         21   -1    0    0  501  503 -0.00000000000E+00 -0.00000000000E+00 -0.14931727135E+04  0.14931727135E+04  0.00000000000E+00 0.  1.
          3    1    1    2  501    0 -0.65903746235E+01  0.27878427087E+02 -0.72286336184E+03  0.72343077044E+03  0.00000000000E+00 0.  1.
         -3    1    1    2    0  502  0.65903746235E+01 -0.27878427087E+02 -0.76975921474E+03  0.77029207994E+03  0.00000000000E+00 0. -1.
<mgrwt>
<rscale>  2 0.28646810E+02</rscale>
<asrwt>0</asrwt>
<pdfrwt beam="1">  1       21 0.84637261E-04 0.28646810E+02</pdfrwt>
<pdfrwt beam="2">  1       21 0.22971667E+00 0.28646810E+02</pdfrwt>
<totfact> 0.13946907E+07</totfact>
</mgrwt>
</event>
<event>
 4    1  0.3862688E+004  0.2787077E+02  0.7546771E-02  0.1622892E+00
         21   -1    0    0  503  502  0.00000000000E+00  0.00000000000E+00  0.82432534012E+01  0.82432534012E+01  0.00000000000E+00 0. -1.
         21   -1    0    0  501  503 -0.00000000000E+00 -0.00000000000E+00 -0.10056087930E+03  0.10056087930E+03  0.00000000000E+00 0. -1.
          4    1    1    2  501    0 -0.85726098879E+01 -0.26519622967E+02 -0.59806430027E+02  0.65981733193E+02  0.00000000000E+00 0. -1.
         -4    1    1    2    0  502  0.85726098879E+01  0.26519622967E+02 -0.32511195871E+02  0.42822399507E+02  0.00000000000E+00 0.  1.
<mgrwt>
<rscale>  2 0.27870774E+02</rscale>
<asrwt>0</asrwt>
<pdfrwt beam="1">  1       21 0.12681928E-02 0.27870774E+02</pdfrwt>
<pdfrwt beam="2">  1       21 0.15470905E-01 0.27870774E+02</pdfrwt>
<totfact> 0.70360072E+07</totfact>
</mgrwt>
</event>
<event>
 4    1  0.3862688E+004  0.2689861E+02  0.7546771E-02  0.1635139E+00
         21   -1    0    0  503  502  0.00000000000E+00  0.00000000000E+00  0.12327561068E+03  0.12327561068E+03  0.00000000000E+00 0.  1.
         21   -1    0    0  501  503 -0.00000000000E+00 -0.00000000000E+00 -0.58998509930E+01  0.58998509930E+01  0.00000000000E+00 0.  1.
          5    1    1    2  501    0 -0.45245889375E+01 -0.26515336999E+02  0.63339657543E+02  0.68814585801E+02  0.00000000000E+00 0.  1.
         -5    1    1    2    0  502  0.45245889375E+01  0.26515336999E+02  0.54036102143E+02  0.60360875871E+02  0.00000000000E+00 0. -1.
<mgrwt>
<rscale>  2 0.26898606E+02</rscale>
<asrwt>0</asrwt>
<pdfrwt beam="1">  1       21 0.18965477E-01 0.26898606E+02</pdfrwt>
<pdfrwt beam="2">  1       21 0.90766947E-03 0.26898606E+02</pdfrwt>
<totfact> 0.81314620E+07</totfact>
</mgrwt>
</event>
<event>
 4    1  0.3862688E+004  0.2529968E+02  0.7546771E-02  0.1656735E+00
         21   -1    0    0  501  502  0.00000000000E+00  0.00000000000E+00  0.13000098972E+02  0.13000098972E+02  0.00000000000E+00 0. -1.
         21   -1    0    0  502  503 -0.00000000000E+00 -0.00000000000E+00 -0.51261505257E+02  0.51261505257E+02  0.00000000000E+00 0. -1.
          4    1    1    2  501    0  0.20729066724E+02  0.14504460373E+02 -0.25517553839E+02  0.35933537703E+02  0.00000000000E+00 0.  1.
         -4    1    1    2    0  503 -0.20729066724E+02 -0.14504460373E+02 -0.12743852446E+02  0.28328066526E+02  0.00000000000E+00 0. -1.
<mgrwt>
<rscale>  2 0.25299675E+02</rscale>
<asrwt>0</asrwt>
<pdfrwt beam="1">  1       21 0.20000152E-02 0.25299675E+02</pdfrwt>
<pdfrwt beam="2">  1       21 0.78863855E-02 0.25299675E+02</pdfrwt>
<totfact> 0.10573877E+08</totfact>
</mgrwt>
</event>
<event>
 4    1  0.3862688E+004  0.2394659E+02  0.7546771E-02  0.1676610E+00
         21   -1    0    0  501  502  0.00000000000E+00  0.00000000000E+00  0.40938058149E+02  0.40938058149E+02  0.00000000000E+00 0.  1.
         21   -1    0    0  502  503 -0.00000000000E+00 -0.00000000000E+00 -0.14294428098E+02  0.14294428098E+02  0.00000000000E+00 0.  1.
          4    1    1    2  501    0  0.22546156167E+02 -0.80690779998E+01  0.94090824645E+01  0.25728777867E+02  0.00000000000E+00 0. -1.
         -4    1    1    2    0  503 -0.22546156167E+02  0.80690779998E+01  0.17234547586E+02  0.29503708380E+02  0.00000000000E+00 0.  1.
<mgrwt>
<rscale>  2 0.23946590E+02</rscale>
<asrwt>0</asrwt>
<pdfrwt beam="1">  1       21 0.62981627E-02 0.23946590E+02</pdfrwt>
<pdfrwt beam="2">  1       21 0.21991428E-02 0.23946590E+02</pdfrwt>
<totfact> 0.12964537E+08</totfact>
</mgrwt>
</event>
<event>
 4    1  0.3862688E+004  0.2007818E+02  0.7546771E-02  0.1743778E+00
         21   -1    0    0  503  502  0.00000000000E+00  0.00000000000E+00  0.47876341585E+01  0.47876341585E+01  0.00000000000E+00 0.  1.
         21   -1    0    0  501  503 -0.00000000000E+00 -0.00000000000E+00 -0.86461437187E+02  0.86461437187E+02  0.00000000000E+00 0.  1.
          5    1    1    2  501    0  0.19644660452E+02 -0.41497788320E+01 -0.48210634937E+02  0.52224502580E+02  0.00000000000E+00 0. -1.
         -5    1    1    2    0  502 -0.19644660452E+02  0.41497788320E+01 -0.33463168091E+02  0.39024568765E+02  0.00000000000E+00 0.  1.
<mgrwt>
<rscale>  2 0.20078181E+02</rscale>
<asrwt>0</asrwt>
<pdfrwt beam="1">  1       21 0.73655915E-03 0.20078181E+02</pdfrwt>
<pdfrwt beam="2">  1       21 0.13301759E-01 0.20078181E+02</pdfrwt>
<totfact> 0.18772435E+08</totfact>
</mgrwt>
</event>
<event>
 4    1  0.3862688E+004  0.3993321E+02  0.7546771E-02  0.1508704E+00
         21   -1    0    0  503  502  0.00000000000E+00  0.00000000000E+00  0.19343914414E+04  0.19343914414E+04  0.00000000000E+00 0.  1.
         21   -1    0    0  501  503 -0.00000000000E+00 -0.00000000000E+00 -0.87261021132E+00  0.87261021132E+00  0.00000000000E+00 0.  1.
          3    1    1    2  501    0 -0.39608694599E+02  0.50806061998E+01  0.11942631126E+04  0.11949305601E+04  0.00000000000E+00 0. -1.
         -3    1    1    2    0  502  0.39608694599E+02 -0.50806061998E+01  0.73925571861E+03  0.74033349157E+03  0.00000000000E+00 0.  1.
<mgrwt>
<rscale>  2 0.39933210E+02</rscale>
<asrwt>0</asrwt>
<pdfrwt beam="1">  1       21 0.29759525E+00 0.39933210E+02</pdfrwt>
<pdfrwt beam="2">  1       21 0.13424927E-03 0.39933210E+02</pdfrwt>
<totfact> 0.32426818E+06</totfact>
</mgrwt>
</event>
<event>
 4    1  0.3862688E+004  0.2863187E+02  0.7546771E-02  0.1613723E+00
         21   -1    0    0  501  502  0.00000000000E+00  0.00000000000E+00  0.17204147400E+02  0.17204147400E+02  0.00000000000E+00 0. -1.
         21   -1    0    0  502  503 -0.00000000000E+00 -0.00000000000E+00 -0.47655718004E+02  0.47655718004E+02  0.00000000000E+00 0. -1.
          4    1    1    2  501    0 -0.19222354697E+02  0.21219922932E+02 -0.14882352187E+02  0.32268691575E+02  0.00000000000E+00 0. -1.
         -4    1    1    2    0  503  0.19222354697E+02 -0.21219922932E+02 -0.15569218417E+02  0.32591173828E+02  0.00000000000E+00 0.  1.
<mgrwt>
<rscale>  2 0.28631871E+02</rscale>
<asrwt>0</asrwt>
<pdfrwt beam="1">  1       21 0.26467919E-02 0.28631871E+02</pdfrwt>
<pdfrwt beam="2">  1       21 0.73316489E-02 0.28631871E+02</pdfrwt>
<totfact> 0.79660806E+07</totfact>
</mgrwt>
</event>
<event>
 4    1  0.3862688E+004  0.3654399E+02  0.7546771E-02  0.1535302E+00
         21   -1    0    0  503  502  0.00000000000E+00  0.00000000000E+00  0.82925916716E+02  0.82925916716E+02  0.00000000000E+00 0. -1.
         21   -1    0    0  501  503 -0.00000000000E+00 -0.00000000000E+00 -0.16328345637E+02  0.16328345637E+02  0.00000000000E+00 0. -1.
          5    1    1    2  501    0  0.29782393148E+01 -0.36422431415E+02  0.27485505514E+02  0.45726539700E+02  0.00000000000E+00 0. -1.
         -5    1    1    2    0  502 -0.29782393148E+01  0.36422431415E+02  0.39112065565E+02  0.53527722653E+02  0.00000000000E+00 0.  1.
<mgrwt>
<rscale>  2 0.36543993E+02</rscale>
<asrwt>0</asrwt>
<pdfrwt beam="1">  1       21 0.12757833E-01 0.36543993E+02</pdfrwt>
<pdfrwt beam="2">  1       21 0.25120532E-02 0.36543993E+02</pdfrwt>
<totfact> 0.36059739E+07</totfact>
</mgrwt>
</event>
<event>
 4    1  0.3862688E+004  0.2092810E+02  0.7546771E-02  0.1727478E+00
         21   -1    0    0  501  502  0.00000000000E+00  0.00000000000E+00  0.38080617295E+01  0.38080617295E+01  0.00000000000E+00 0.  1.
         21   -1    0    0  502  503 -0.00000000000E+00 -0.00000000000E+00 -0.12485189381E+03  0.12485189381E+03  0.00000000000E+00 0.  1.
          3    1    1    2  501    0 -0.11052281281E+02 -0.17771678496E+02 -0.78578580662E+02  0.81317764461E+02  0.00000000000E+00 0. -1.
         -3    1    1    2    0  503  0.11052281281E+02  0.17771678496E+02 -0.42465251416E+02  0.47342191077E+02  0.00000000000E+00 0.  1.
<mgrwt>
<rscale>  2 0.20928103E+02</rscale>
<asrwt>0</asrwt>
<pdfrwt beam="1">  1       21 0.58585558E-03 0.20928103E+02</pdfrwt>
<pdfrwt beam="2">  1       21 0.19207986E-01 0.20928103E+02</pdfrwt>
<totfact> 0.14267222E+08</totfact>
</mgrwt>
</event>
<event>
 4    1  0.3862688E+004  0.2267917E+02  0.7546771E-02  0.1696764E+00
         21   -1    0    0  501  502  0.00000000000E+00  0.00000000000E+00  0.18552529740E+02  0.18552529740E+02  0.00000000000E+00 0. -1.
         21   -1    0    0  502  503 -0.00000000000E+00 -0.00000000000E+00 -0.29482973771E+02  0.29482973771E+02  0.00000000000E+00 0. -1.
          3    1    1    2  501    0  0.20918963880E+02  0.87602389950E+01 -0.11332179864E+02  0.25352773764E+02  0.00000000000E+00 0.  1.
         -3    1    1    2    0  503 -0.20918963880E+02 -0.87602389950E+01  0.40173583346E+00  0.22682729746E+02  0.00000000000E+00 0. -1.
<mgrwt>
<rscale>  2 0.22679172E+02</rscale>
<asrwt>0</asrwt>
<pdfrwt beam="1">  1       21 0.28542354E-02 0.22679172E+02</pdfrwt>
<pdfrwt beam="2">  1       21 0.45358421E-02 0.22679172E+02</pdfrwt>
<totfact> 0.14396746E+08</totfact>
</mgrwt>
</event>
<event>
 4    1  0.3862688E+004  0.2405725E+02  0.7546771E-02  0.1674924E+00
         21   -1    0    0  503  502  0.00000000000E+00  0.00000000000E+00  0.15774303543E+03  0.15774303543E+03  0.00000000000E+00 0. -1.
         21   -1    0    0  501  503 -0.00000000000E+00 -0.00000000000E+00 -0.57129406961E+01  0.57129406961E+01  0.00000000000E+00 0. -1.
          2    1    1    2  501    0  0.23002649946E+02 -0.70448228478E+01  0.12490057691E+03  0.12719632678E+03  0.00000000000E+00 0.  1.
         -2    1    1    2    0  502 -0.23002649946E+02  0.70448228478E+01  0.27129517826E+02  0.36259649350E+02  0.00000000000E+00 0. -1.
<mgrwt>
<rscale>  2 0.24057253E+02</rscale>
<asrwt>0</asrwt>
<pdfrwt beam="1">  1       21 0.24268156E-01 0.24057253E+02</pdfrwt>
<pdfrwt beam="2">  1       21 0.87891407E-03 0.24057253E+02</pdfrwt>
<totfact> 0.53770298E+07</totfact>
</mgrwt>
</event>
<event>
 4    1  0.3862688E+004  0.2397363E+02  0.7546771E-02  0.1676197E+00
         21   -1    0    0  503  502  0.00000000000E+00  0.00000000000E+00  0.18157332121E+01  0.18157332121E+01  0.00000000000E+00 0.  1.
         21   -1    0    0  501  503 -0.00000000000E+00 -0.00000000000E+00 -0.32299490716E+03  0.32299490716E+03  0.00000000000E+00 0.  1.
          2    1    1    2  501    0  0.11149611485E+02  0.21223130232E+02 -0.18356503350E+03  0.18512389532E+03  0.00000000000E+00 0.  1.
         -2    1    1    2    0  502 -0.11149611485E+02 -0.21223130232E+02 -0.13761414044E+03  0.13968674505E+03  0.00000000000E+00 0. -1.
<mgrwt>
<rscale>  2 0.23973633E+02</rscale>
<asrwt>0</asrwt>
<pdfrwt beam="1">  1       21 0.27934377E-03 0.23973633E+02</pdfrwt>
<pdfrwt beam="2">  1       21 0.49691489E-01 0.23973633E+02</pdfrwt>
<totfact> 0.77164585E+07</totfact>
</mgrwt>
</event>
<event>
 4    1  0.3862688E+004  0.2765145E+02  0.7546771E-02  0.1625601E+00
         21   -1    0    0  501  502  0.00000000000E+00  0.00000000000E+00  0.10692405153E+02  0.10692405153E+02  0.00000000000E+00 0. -1.
         21   -1    0    0  502  503 -0.00000000000E+00 -0.00000000000E+00 -0.74893469344E+02  0.74893469344E+02  0.00000000000E+00 0. -1.
          1    1    1    2  501    0 -0.13192031230E+02  0.24301711766E+02 -0.23003550436E+02  0.35968961834E+02  0.00000000000E+00 0.  1.
         -1    1    1    2    0  503  0.13192031230E+02 -0.24301711766E+02 -0.41197513755E+02  0.49616912664E+02  0.00000000000E+00 0. -1.
<mgrwt>
<rscale>  2 0.27651454E+02</rscale>
<asrwt>0</asrwt>
<pdfrwt beam="1">  1       21 0.16449855E-02 0.27651454E+02</pdfrwt>
<pdfrwt beam="2">  1       21 0.11522072E-01 0.27651454E+02</pdfrwt>
<totfact> 0.77891353E+07</totfact>
</mgrwt>
</event>
<event>
 4    1  0.3862688E+004  0.3690908E+02  0.7546771E-02  0.1532273E+00
         21   -1    0    0  503  502  0.00000000000E+00  0.00000000000E+00  0.13134804179E+04  0.13134804179E+04  0.00000000000E+00 0.  1.
         21   -1    0    0  501  503 -0.00000000000E+00 -0.00000000000E+00 -0.11968262045E+01  0.11968262045E+01  0.00000000000E+00 0.  1.
          4    1    1    2  501    0  0.93027956173E+01  0.35717481461E+02  0.41604338705E+03  0.41767736399E+03  0.00000000000E+00 0.  1.
         -4    1    1    2    0  502 -0.93027956173E+01 -0.35717481461E+02  0.89624020465E+03  0.89699988011E+03  0.00000000000E+00 0. -1.
<mgrwt>
<rscale>  2 0.36909084E+02</rscale>
<asrwt>0</asrwt>
<pdfrwt beam="1">  1       21 0.20207276E+00 0.36909084E+02</pdfrwt>
<pdfrwt beam="2">  1       21 0.18412816E-03 0.36909084E+02</pdfrwt>
<totfact> 0.65569498E+06</totfact>
</mgrwt>
</event>
<event>
 4    1  0.3862688E+004  0.2570258E+02  0.7546771E-02  0.1651111E+00
         21   -1    0    0  503  502  0.00000000000E+00  0.00000000000E+00  0.15243436800E+04  0.15243436800E+04  0.00000000000E+00 0.  1.
         21   -1    0    0  501  503 -0.00000000000E+00 -0.00000000000E+00 -0.56583244581E+00  0.56583244581E+00  0.00000000000E+00 0.  1.
          5    1    1    2  501    0  0.25701585344E+02 -0.22606397743E+00  0.39299846338E+03  0.39383805658E+03  0.00000000000E+00 0. -1.
         -5    1    1    2    0  502 -0.25701585344E+02  0.22606397743E+00  0.11307793842E+04  0.11310714559E+04  0.00000000000E+00 0.  1.
<mgrwt>
<rscale>  2 0.25702580E+02</rscale>
<asrwt>0</asrwt>
<pdfrwt beam="1">  1       21 0.23451113E+00 0.25702580E+02</pdfrwt>
<pdfrwt beam="2">  1       21 0.87052366E-04 0.25702580E+02</pdfrwt>
<totfact> 0.12532149E+07</totfact>
</mgrwt>
</event>
<event>
 4    1  0.3862688E+004  0.6398795E+02  0.7546771E-02  0.1381819E+00
         21   -1    0    0  503  502  0.00000000000E+00  0.00000000000E+00  0.24933257149E+02  0.24933257149E+02  0.00000000000E+00 0.  1.
         21   -1    0    0  501  503 -0.00000000000E+00 -0.00000000000E+00 -0.20942992231E+03  0.20942992231E+03  0.00000000000E+00 0.  1.
          4    1    1    2  501    0  0.23163301458E+02 -0.59648296778E+02 -0.14669516612E+03  0.16004352410E+03  0.00000000000E+00 0. -1.
         -4    1    1    2    0  502 -0.23163301458E+02  0.59648296778E+02 -0.37801499040E+02  0.74319655359E+02  0.00000000000E+00 0.  1.
<mgrwt>
<rscale>  2 0.63987951E+02</rscale>
<asrwt>0</asrwt>
<pdfrwt beam="1">  1       21 0.38358857E-02 0.63987951E+02</pdfrwt>
<pdfrwt beam="2">  1       21 0.32219988E-01 0.63987951E+02</pdfrwt>
<totfact> 0.37062620E+06</totfact>
</mgrwt>
</event>
<event>
 4    1  0.3862688E+004  0.2702754E+02  0.7546771E-02  0.1633479E+00
         21   -1    0    0  503  502  0.00000000000E+00  0.00000000000E+00  0.27255013713E+03  0.27255013713E+03  0.00000000000E+00 0. -1.
         21   -1    0    0  501  503 -0.00000000000E+00 -0.00000000000E+00 -0.29369266932E+01  0.29369266932E+01  0.00000000000E+00 0. -1.
          1    1    1    2  501    0 -0.27007776361E+02 -0.10333317337E+01  0.17553184479E+03  0.17760044001E+03  0.00000000000E+00 0.  1.
         -1    1    1    2    0  502  0.27007776361E+02  0.10333317337E+01  0.94081365648E+02  0.97886623808E+02  0.00000000000E+00 0. -1.
<mgrwt>
<rscale>  2 0.27027537E+02</rscale>
<asrwt>0</asrwt>
<pdfrwt beam="1">  1       21 0.41930770E-01 0.27027537E+02</pdfrwt>
<pdfrwt beam="2">  1       21 0.45183509E-03 0.27027537E+02</pdfrwt>
<totfact> 0.54325078E+07</totfact>
</mgrwt>
</event>
<event>
 4    1  0.3862688E+004  0.2458373E+02  0.7546771E-02  0.1667054E+00
         21   -1    0    0  503  502  0.00000000000E+00  0.00000000000E+00  0.42651577851E+01  0.42651577851E+01  0.00000000000E+00 0.  1.
         21   -1    0    0  501  503 -0.00000000000E+00 -0.00000000000E+00 -0.14353223354E+03  0.14353223354E+03  0.00000000000E+00 0.  1.
          3    1    1    2  501    0 -0.19473223650E+02  0.15005115587E+02 -0.77989785754E+02  0.81772652000E+02  0.00000000000E+00 0.  1.
         -3    1    1    2    0  502  0.19473223650E+02 -0.15005115587E+02 -0.61277289999E+02  0.66024739323E+02  0.00000000000E+00 0. -1.
<mgrwt>
<rscale>  2 0.24583733E+02</rscale>
<asrwt>0</asrwt>
<pdfrwt beam="1">  1       21 0.65617824E-03 0.24583733E+02</pdfrwt>
<pdfrwt beam="2">  1       21 0.22081878E-01 0.24583733E+02</pdfrwt>
<totfact> 0.98907611E+07</totfact>
</mgrwt>
</event>
<event>
 4    1  0.3862688E+004  0.2005923E+02  0.7546771E-02  0.1744153E+00
         21   -1    0    0  501  502  0.00000000000E+00  0.00000000000E+00  0.54801505614E+02  0.54801505614E+02  0.00000000000E+00 0. -1.
         21   -1    0    0  502  503 -0.00000000000E+00 -0.00000000000E+00 -0.88325110488E+01  0.88325110488E+01  0.00000000000E+00 0. -1.
          2    1    1    2  501    0 -0.53818865339E+01 -0.19323772361E+02  0.36053157565E+02  0.41257763528E+02  0.00000000000E+00 0. -1.
         -2    1    1    2    0  503  0.53818865339E+01  0.19323772361E+02  0.99158370003E+01  0.22376253135E+02  0.00000000000E+00 0.  1.
<mgrwt>
<rscale>  2 0.20059234E+02</rscale>
<asrwt>0</asrwt>
<pdfrwt beam="1">  1       21 0.84310007E-02 0.20059234E+02</pdfrwt>
<pdfrwt beam="2">  1       21 0.13588479E-02 0.20059234E+02</pdfrwt>
<totfact> 0.15952842E+08</totfact>
</mgrwt>
</event>
<event>
 4    1  0.3862688E+004  0.2023541E+02  0.7546771E-02  0.1740687E+00
         21   -1    0    0  501  502  0.00000000000E+00  0.00000000000E+00  0.37995381958E+02  0.37995381958E+02  0.00000000000E+00 0. -1.
         21   -1    0    0  502  503 -0.00000000000E+00 -0.00000000000E+00 -0.12177855527E+02  0.12177855527E+02  0.00000000000E+00 0. -1.
          1    1    1    2  501    0 -0.40540110654E+01  0.19825152747E+02  0.43998923406E+01  0.20708228793E+02  0.00000000000E+00 0.  1.
         -1    1    1    2    0  503  0.40540110654E+01 -0.19825152747E+02  0.21417634091E+02  0.29465008692E+02  0.00000000000E+00 0. -1.
<mgrwt>
<rscale>  2 0.20235407E+02</rscale>
<asrwt>0</asrwt>
<pdfrwt beam="1">  1       21 0.58454433E-02 0.20235407E+02</pdfrwt>
<pdfrwt beam="2">  1       21 0.18735162E-02 0.20235407E+02</pdfrwt>
<totfact> 0.17740805E+08</totfact>
</mgrwt>
</event>
<event>
 4    1  0.3862688E+004  0.2130408E+02  0.7546771E-02  0.1720573E+00
         21   -1    0    0  503  502  0.00000000000E+00  0.00000000000E+00  0.12959479529E+02  0.12959479529E+02  0.00000000000E+00 0.  1.
         21   -1    0    0  501  503 -0.00000000000E+00 -0.00000000000E+00 -0.41057487783E+02  0.41057487783E+02  0.00000000000E+00 0.  1.
          5    1    1    2  501    0 -0.69252242490E+01  0.20147082011E+02 -0.24404459931E+02  0.32395081555E+02  0.00000000000E+00 0.  1.
         -5    1    1    2    0  502  0.69252242490E+01 -0.20147082011E+02 -0.36935483224E+01  0.21621885757E+02  0.00000000000E+00 0. -1.
<mgrwt>
<rscale>  2 0.21304076E+02</rscale>
<asrwt>0</asrwt>
<pdfrwt beam="1">  1       21 0.19937661E-02 0.21304076E+02</pdfrwt>
<pdfrwt beam="2">  1       21 0.63165365E-02 0.21304076E+02</pdfrwt>
<totfact> 0.14482111E+08</totfact>
</mgrwt>
</event>
<event>
 4    1  0.3862688E+004  0.2639404E+02  0.7546771E-02  0.1641750E+00
         21   -1    0    0  501  502  0.00000000000E+00  0.00000000000E+00  0.26233794570E+02  0.26233794570E+02  0.00000000000E+00 0.  1.
         21   -1    0    0  502  503 -0.00000000000E+00 -0.00000000000E+00 -0.26579695005E+02  0.26579695005E+02  0.00000000000E+00 0.  1.
          5    1    1    2  501    0 -0.22786673275E+02 -0.13319634933E+02 -0.97365758803E+00  0.26411988997E+02  0.00000000000E+00 0.  1.
         -5    1    1    2    0  503  0.22786673275E+02  0.13319634933E+02  0.62775715288E+00  0.26401500577E+02  0.00000000000E+00 0. -1.
<mgrwt>
<rscale>  2 0.26394036E+02</rscale>
<asrwt>0</asrwt>
<pdfrwt beam="1">  1       21 0.40359684E-02 0.26394036E+02</pdfrwt>
<pdfrwt beam="2">  1       21 0.40891838E-02 0.26394036E+02</pdfrwt>
<totfact> 0.10286717E+08</totfact>
</mgrwt>
</event>
<event>
 4    1  0.3862688E+004  0.2218839E+02  0.7546771E-02  0.1705014E+00
         21   -1    0    0  503  502  0.00000000000E+00  0.00000000000E+00  0.26305843873E+01  0.26305843873E+01  0.00000000000E+00 0.  1.
         21   -1    0    0  501  503 -0.00000000000E+00 -0.00000000000E+00 -0.29220034539E+03  0.29220034539E+03  0.00000000000E+00 0.  1.
          2    1    1    2  501    0  0.12383452290E+02 -0.18411269999E+02 -0.23317279204E+03  0.23422612088E+03  0.00000000000E+00 0.  1.
         -2    1    1    2    0  502 -0.12383452290E+02  0.18411269999E+02 -0.56396968961E+02  0.60604808899E+02  0.00000000000E+00 0. -1.
<mgrwt>
<rscale>  2 0.22188392E+02</rscale>
<asrwt>0</asrwt>
<pdfrwt beam="1">  1       21 0.40470529E-03 0.22188392E+02</pdfrwt>
<pdfrwt beam="2">  1       21 0.44953899E-01 0.22188392E+02</pdfrwt>
<totfact> 0.53437680E+07</totfact>
</mgrwt>
</event>
<event>
 4    1  0.3862688E+004  0.2058828E+02  0.7546771E-02  0.1733876E+00
         21   -1    0    0  503  502  0.00000000000E+00  0.00000000000E+00  0.13336713105E+03  0.13336713105E+03  0.00000000000E+00 0.  1.
         21   -1    0    0  501  503 -0.00000000000E+00 -0.00000000000E+00 -0.32787251284E+01  0.32787251284E+01  0.00000000000E+00 0.  1.
          5    1    1    2  501    0  0.11602284855E+02  0.17007772339E+02  0.77003085088E+02  0.79707919599E+02  0.00000000000E+00 0. -1.
         -5    1    1    2    0  502 -0.11602284855E+02 -0.17007772339E+02  0.53085320829E+02  0.56937936574E+02  0.00000000000E+00 0.  1.
<mgrwt>
<rscale>  2 0.20588281E+02</rscale>
<asrwt>0</asrwt>
<pdfrwt beam="1">  1       21 0.20518016E-01 0.20588281E+02</pdfrwt>
<pdfrwt beam="2">  1       21 0.50441935E-03 0.20588281E+02</pdfrwt>
<totfact> 0.15783269E+08</totfact>
</mgrwt>
</event>
<event>
 4    1  0.3862688E+004  0.7056726E+02  0.7546771E-02  0.1358175E+00
         21   -1    0    0  501  502  0.00000000000E+00  0.00000000000E+00  0.18646311255E+03  0.18646311255E+03  0.00000000000E+00 0.  1.
         21   -1    0    0  502  503 -0.00000000000E+00 -0.00000000000E+00 -0.27670528005E+02  0.27670528005E+02  0.00000000000E+00 0.  1.
          2    1    1    2  501    0  0.40417052453E+02 -0.57846351166E+02  0.99382835338E+02  0.12188800774E+03  0.00000000000E+00 0.  1.
         -2    1    1    2    0  503 -0.40417052453E+02  0.57846351166E+02  0.59409749211E+02  0.92245632815E+02  0.00000000000E+00 0. -1.
<mgrwt>
<rscale>  2 0.70567262E+02</rscale>
<asrwt>0</asrwt>
<pdfrwt beam="1">  1       21 0.28686632E-01 0.70567262E+02</pdfrwt>
<pdfrwt beam="2">  1       21 0.42570044E-02 0.70567262E+02</pdfrwt>
<totfact> 0.39221659E+06</totfact>
</mgrwt>
</event>
<event>
 4    1  0.3862688E+004  0.2351577E+02  0.7546771E-02  0.1683284E+00
         21   -1    0    0  503  502  0.00000000000E+00  0.00000000000E+00  0.39767489655E+02  0.39767489655E+02  0.00000000000E+00 0.  1.
         21   -1    0    0  501  503 -0.00000000000E+00 -0.00000000000E+00 -0.14406561535E+02  0.14406561535E+02  0.00000000000E+00 0.  1.
          1    1    1    2  501    0  0.69504914493E+01 -0.22465131682E+02  0.76294793911E+01  0.24722468094E+02  0.00000000000E+00 0. -1.
         -1    1    1    2    0  502 -0.69504914493E+01  0.22465131682E+02  0.17731448729E+02  0.29451583096E+02  0.00000000000E+00 0.  1.
<mgrwt>
<rscale>  2 0.23515771E+02</rscale>
<asrwt>0</asrwt>
<pdfrwt beam="1">  1       21 0.61180753E-02 0.23515771E+02</pdfrwt>
<pdfrwt beam="2">  1       21 0.22163941E-02 0.23515771E+02</pdfrwt>
<totfact> 0.13350206E+08</totfact>
</mgrwt>
</event>
<event>
 4    1  0.3862688E+004  0.2281037E+02  0.7546771E-02  0.1694603E+00
         21   -1    0    0  501  502  0.00000000000E+00  0.00000000000E+00  0.54409166788E+02  0.54409166788E+02  0.00000000000E+00 0.  1.
         21   -1    0    0  502  503 -0.00000000000E+00 -0.00000000000E+00 -0.10067020648E+02  0.10067020648E+02  0.00000000000E+00 0.  1.
          1    1    1    2  501    0 -0.89627660080E+01  0.20975740396E+02  0.14957359528E+02  0.27277013468E+02  0.00000000000E+00 0.  1.
         -1    1    1    2    0  503  0.89627660080E+01 -0.20975740396E+02  0.29384786612E+02  0.37199173968E+02  0.00000000000E+00 0. -1.
<mgrwt>
<rscale>  2 0.22810367E+02</rscale>
<asrwt>0</asrwt>
<pdfrwt beam="1">  1       21 0.83706409E-02 0.22810367E+02</pdfrwt>
<pdfrwt beam="2">  1       21 0.15487724E-02 0.22810367E+02</pdfrwt>
<totfact> 0.13772190E+08</totfact>
</mgrwt>
</event>
<event>
 4    1  0.3862688E+004  0.2674909E+02  0.7546771E-02  0.1637080E+00
         21   -1    0    0  503  502  0.00000000000E+00  0.00000000000E+00  0.17245231231E+03  0.17245231231E+03  0.00000000000E+00 0.  1.
         21   -1    0    0  501  503 -0.00000000000E+00 -0.00000000000E+00 -0.42464373440E+01  0.42464373440E+01  0.00000000000E+00 0.  1.
          4    1    1    2  501    0  0.16640234270E+02  0.20943167221E+02  0.97482361715E+02  0.10108572845E+03  0.00000000000E+00 0.  1.
         -4    1    1    2    0  502 -0.16640234270E+02 -0.20943167221E+02  0.70723513255E+02  0.75613021213E+02  0.00000000000E+00 0. -1.
<mgrwt>
<rscale>  2 0.26749087E+02</rscale>
<asrwt>0</asrwt>
<pdfrwt beam="1">  1       21 0.26531120E-01 0.26749087E+02</pdfrwt>
<pdfrwt beam="2">  1       21 0.65329819E-03 0.26749087E+02</pdfrwt>
<totfact> 0.73247569E+07</totfact>
</mgrwt>
</event>
<event>
 4    1  0.3862688E+004  0.3140262E+02  0.7546771E-02  0.1583083E+00
         21   -1    0    0  501  502  0.00000000000E+00  0.00000000000E+00  0.14742108533E+01  0.14742108533E+01  0.00000000000E+00 0.  1.
         21   -1    0    0  502  503 -0.00000000000E+00 -0.00000000000E+00 -0.70189909230E+03  0.70189909230E+03  0.00000000000E+00 0.  1.
          3    1    1    2  501    0  0.12030278076E+02  0.29006845137E+02 -0.27397683575E+03  0.27577061334E+03  0.00000000000E+00 0.  1.
         -3    1    1    2    0  503 -0.12030278076E+02 -0.29006845137E+02 -0.42644804569E+03  0.42760268981E+03  0.00000000000E+00 0. -1.
<mgrwt>
<rscale>  2 0.31402622E+02</rscale>
<asrwt>0</asrwt>
<pdfrwt beam="1">  1       21 0.22680179E-03 0.31402622E+02</pdfrwt>
<pdfrwt beam="2">  1       21 0.10798442E+00 0.31402622E+02</pdfrwt>
<totfact> 0.21832006E+07</totfact>
</mgrwt>
</event>
<event>
 4    1  0.3862688E+004  0.2161303E+02  0.7546771E-02  0.1715032E+00
         21   -1    0    0  503  502  0.00000000000E+00  0.00000000000E+00  0.38714910238E+03  0.38714910238E+03  0.00000000000E+00 0. -1.
         21   -1    0    0  501  503 -0.00000000000E+00 -0.00000000000E+00 -0.18418927303E+01  0.18418927303E+01  0.00000000000E+00 0. -1.
          2    1    1    2  501    0 -0.11108388822E+02  0.18539866971E+02  0.78425187147E+02  0.81348834955E+02  0.00000000000E+00 0.  1.
         -2    1    1    2    0  502  0.11108388822E+02 -0.18539866971E+02  0.30688202250E+03  0.30764216016E+03  0.00000000000E+00 0. -1.
<mgrwt>
<rscale>  2 0.21613028E+02</rscale>
<asrwt>0</asrwt>
<pdfrwt beam="1">  1       21 0.59561336E-01 0.21613028E+02</pdfrwt>
<pdfrwt beam="2">  1       21 0.28336842E-03 0.21613028E+02</pdfrwt>
<totfact> 0.51596702E+07</totfact>
</mgrwt>
</event>
<event>
 4    1  0.3862688E+004  0.2549853E+02  0.7546771E-02  0.1653943E+00
         21   -1    0    0  503  502  0.00000000000E+00  0.00000000000E+00  0.19077370011E+04  0.19077370011E+04  0.00000000000E+00 0.  1.
         21   -1    0    0  501  503 -0.00000000000E+00 -0.00000000000E+00 -0.70640060249E+00  0.70640060249E+00  0.00000000000E+00 0.  1.
          5    1    1    2  501    0  0.23935787975E+02  0.87893685720E+01  0.16399852820E+04  0.16401834959E+04  0.00000000000E+00 0.  1.
         -5    1    1    2    0  502 -0.23935787975E+02 -0.87893685720E+01  0.26704531841E+03  0.26825990575E+03  0.00000000000E+00 0. -1.
<mgrwt>
<rscale>  2 0.25498528E+02</rscale>
<asrwt>0</asrwt>
<pdfrwt beam="1">  1       21 0.29349388E+00 0.25498528E+02</pdfrwt>
<pdfrwt beam="2">  1       21 0.10867854E-03 0.25498528E+02</pdfrwt>
<totfact> 0.46447810E+06</totfact>
</mgrwt>
</event>
<event>
 4    1  0.3862688E+004  0.2100760E+02  0.7546771E-02  0.1726003E+00
         21   -1    0    0  501  502  0.00000000000E+00  0.00000000000E+00  0.25921972784E+01  0.25921972784E+01  0.00000000000E+00 0. -1.
         21   -1    0    0  502  503 -0.00000000000E+00 -0.00000000000E+00 -0.18696788816E+03  0.18696788816E+03  0.00000000000E+00 0. -1.
          4    1    1    2  501    0  0.37280128441E+01 -0.20674164879E+02 -0.12053021714E+03  0.12234726158E+03  0.00000000000E+00 0. -1.
         -4    1    1    2    0  503 -0.37280128441E+01  0.20674164879E+02 -0.63845473742E+02  0.67212823855E+02  0.00000000000E+00 0.  1.
<mgrwt>
<rscale>  2 0.21007598E+02</rscale>
<asrwt>0</asrwt>
<pdfrwt beam="1">  1       21 0.39879943E-03 0.21007598E+02</pdfrwt>
<pdfrwt beam="2">  1       21 0.28764302E-01 0.21007598E+02</pdfrwt>
<totfact> 0.12318681E+08</totfact>
</mgrwt>
</event>
<event>
 4    1  0.3862688E+004  0.2730076E+02  0.7546771E-02  0.1629997E+00
         21   -1    0    0  501  502  0.00000000000E+00  0.00000000000E+00  0.42922337356E+02  0.42922337356E+02  0.00000000000E+00 0. -1.
         21   -1    0    0  502  503 -0.00000000000E+00 -0.00000000000E+00 -0.31464714256E+02  0.31464714256E+02  0.00000000000E+00 0. -1.
          1    1    1    2  501    0  0.27287936176E+02  0.83665452020E+00 -0.19169274795E+02  0.33358545348E+02  0.00000000000E+00 0.  1.
         -1    1    1    2    0  503 -0.27287936176E+02 -0.83665452020E+00  0.30626897896E+02  0.41028506264E+02  0.00000000000E+00 0. -1.
<mgrwt>
<rscale>  2 0.27300759E+02</rscale>
<asrwt>0</asrwt>
<pdfrwt beam="1">  1       21 0.66034365E-02 0.27300759E+02</pdfrwt>
<pdfrwt beam="2">  1       21 0.48407253E-02 0.27300759E+02</pdfrwt>
<totfact> 0.35983148E+07</totfact>
</mgrwt>
</event>
<event>
 4    1  0.3862688E+004  0.2104385E+02  0.7546771E-02  0.1725333E+00
         21   -1    0    0  503  502  0.00000000000E+00  0.00000000000E+00  0.28968681725E+01  0.28968681725E+01  0.00000000000E+00 0.  1.
         21   -1    0    0  501  503 -0.00000000000E+00 -0.00000000000E+00 -0.17561212355E+03  0.17561212355E+03  0.00000000000E+00 0.  1.
          4    1    1    2  501    0 -0.11576088730E+02  0.17573782934E+02 -0.11847723368E+03  0.12033161919E+03  0.00000000000E+00 0. -1.
         -4    1    1    2    0  502  0.11576088730E+02 -0.17573782934E+02 -0.54238021693E+02  0.58177372526E+02  0.00000000000E+00 0.  1.
<mgrwt>
<rscale>  2 0.21043851E+02</rscale>
<asrwt>0</asrwt>
<pdfrwt beam="1">  1       21 0.44567205E-03 0.21043851E+02</pdfrwt>
<pdfrwt beam="2">  1       21 0.27017248E-01 0.21043851E+02</pdfrwt>
<totfact> 0.11722385E+08</totfact>
</mgrwt>
</event>
<event>
 4    1  0.3862688E+004  0.2349976E+02  0.7546771E-02  0.1683535E+00
         21   -1    0    0  501  502  0.00000000000E+00  0.00000000000E+00  0.23290998230E+01  0.23290998230E+01  0.00000000000E+00 0. -1.
         21   -1    0    0  502  503 -0.00000000000E+00 -0.00000000000E+00 -0.25399789842E+03  0.25399789842E+03  0.00000000000E+00 0. -1.
          3    1    1    2  501    0  0.23492897201E+02  0.56797793144E+00 -0.15888768223E+03  0.16061610872E+03  0.00000000000E+00 0. -1.
         -3    1    1    2    0  503 -0.23492897201E+02 -0.56797793144E+00 -0.92781116364E+02  0.95710889514E+02  0.00000000000E+00 0.  1.
<mgrwt>
<rscale>  2 0.23499762E+02</rscale>
<asrwt>0</asrwt>
<pdfrwt beam="1">  1       21 0.35832318E-03 0.23499762E+02</pdfrwt>
<pdfrwt beam="2">  1       21 0.39076586E-01 0.23499762E+02</pdfrwt>
<totfact> 0.84504908E+07</totfact>
</mgrwt>
</event>
<event>
 4    1  0.3862688E+004  0.2367800E+02  0.7546771E-02  0.1680750E+00
         21   -1    0    0  501  502  0.00000000000E+00  0.00000000000E+00  0.16838726714E+03  0.16838726714E+03  0.00000000000E+00 0.  1.
         21   -1    0    0  502  503 -0.00000000000E+00 -0.00000000000E+00 -0.33438963914E+01  0.33438963914E+01  0.00000000000E+00 0.  1.
          1    1    1    2  501    0  0.28560041784E+01 -0.23505123772E+02  0.88153166120E+02  0.91277753589E+02  0.00000000000E+00 0. -1.
         -1    1    1    2    0  503 -0.28560041784E+01  0.23505123772E+02  0.76890204630E+02  0.80453409943E+02  0.00000000000E+00 0.  1.
<mgrwt>
<rscale>  2 0.23677998E+02</rscale>
<asrwt>0</asrwt>
<pdfrwt beam="1">  1       21 0.25905727E-01 0.23677998E+02</pdfrwt>
<pdfrwt beam="2">  1       21 0.51444573E-03 0.23677998E+02</pdfrwt>
<totfact> 0.10572771E+08</totfact>
</mgrwt>
</event>
<event>
 4    1  0.3862688E+004  0.3129719E+02  0.7546771E-02  0.1584177E+00
         21   -1    0    0  503  502  0.00000000000E+00  0.00000000000E+00  0.21057720516E+02  0.21057720516E+02  0.00000000000E+00 0. -1.
         21   -1    0    0  501  503 -0.00000000000E+00 -0.00000000000E+00 -0.46594648272E+02  0.46594648272E+02  0.00000000000E+00 0. -1.
          2    1    1    2  501    0 -0.22982450888E+02  0.21244316002E+02 -0.14161089993E+02  0.34351862846E+02  0.00000000000E+00 0.  1.
         -2    1    1    2    0  502  0.22982450888E+02 -0.21244316002E+02 -0.11375837763E+02  0.33300505942E+02  0.00000000000E+00 0. -1.
<mgrwt>
<rscale>  2 0.31297189E+02</rscale>
<asrwt>0</asrwt>
<pdfrwt beam="1">  1       21 0.32396494E-02 0.31297189E+02</pdfrwt>
<pdfrwt beam="2">  1       21 0.71684073E-02 0.31297189E+02</pdfrwt>
<totfact> 0.61432933E+07</totfact>
</mgrwt>
</event>
<event>
 4    1  0.3862688E+004  0.2519780E+02  0.7546771E-02  0.1658177E+00
         21   -1    0    0  503  502  0.00000000000E+00  0.00000000000E+00  0.17842050153E+03  0.17842050153E+03  0.00000000000E+00 0.  1.
         21   -1    0    0  501  503 -0.00000000000E+00 -0.00000000000E+00 -0.20439420840E+02  0.20439420840E+02  0.00000000000E+00 0.  1.
          2    1    1    2  501    0 -0.11233920949E+02 -0.22555005481E+02  0.16935124504E+03  0.17121557595E+03  0.00000000000E+00 0. -1.
         -2    1    1    2    0  502  0.11233920949E+02  0.22555005481E+02 -0.11370164341E+02  0.27644346425E+02  0.00000000000E+00 0.  1.
<mgrwt>
<rscale>  2 0.25197803E+02</rscale>
<asrwt>0</asrwt>
<pdfrwt beam="1">  1       21 0.27449307E-01 0.25197803E+02</pdfrwt>
<pdfrwt beam="2">  1       21 0.31445264E-02 0.25197803E+02</pdfrwt>
<totfact> 0.61887394E+06</totfact>
</mgrwt>
</event>
<event>
 4    1  0.3862688E+004  0.2272997E+02  0.7546771E-02  0.1695925E+00
         21   -1    0    0  503  502  0.00000000000E+00  0.00000000000E+00  0.59426582259E+03  0.59426582259E+03  0.00000000000E+00 0.  1.
         21   -1    0    0  501  503 -0.00000000000E+00 -0.00000000000E+00 -0.87868641406E+00  0.87868641406E+00  0.00000000000E+00 0.  1.
          1    1    1    2  501    0 -0.17111955182E+01  0.22665468667E+02  0.26609371587E+03  0.26706275908E+03  0.00000000000E+00 0. -1.
         -1    1    1    2    0  502  0.17111955182E+01 -0.22665468667E+02  0.32729342031E+03  0.32808174993E+03  0.00000000000E+00 0.  1.
<mgrwt>
<rscale>  2 0.22729973E+02</rscale>
<asrwt>0</asrwt>
<pdfrwt beam="1">  1       21 0.91425190E-01 0.22729973E+02</pdfrwt>
<pdfrwt beam="2">  1       21 0.13518300E-03 0.22729973E+02</pdfrwt>
<totfact> 0.62599070E+07</totfact>
</mgrwt>
</event>
<event>
 4    1  0.3862688E+004  0.3875364E+02  0.7546771E-02  0.1517589E+00
         21   -1    0    0  501  502  0.00000000000E+00  0.00000000000E+00  0.63144185479E+03  0.63144185479E+03  0.00000000000E+00 0.  1.
         21   -1    0    0  502  503 -0.00000000000E+00 -0.00000000000E+00 -0.52287730274E+01  0.52287730274E+01  0.00000000000E+00 0.  1.
          2    1    1    2  501    0 -0.90885501286E+00 -0.38742977824E+02  0.54814178670E+03  0.54951002054E+03  0.00000000000E+00 0. -1.
         -2    1    1    2    0  503  0.90885501286E+00  0.38742977824E+02  0.78071295066E+02  0.87160607280E+02  0.00000000000E+00 0.  1.
<mgrwt>
<rscale>  2 0.38753637E+02</rscale>
<asrwt>0</asrwt>
<pdfrwt beam="1">  1       21 0.97144841E-01 0.38753637E+02</pdfrwt>
<pdfrwt beam="2">  1       21 0.80442712E-03 0.38753637E+02</pdfrwt>
<totfact> 0.43088162E+06</totfact>
</mgrwt>
</event>
<event>
 4    1  0.3862688E+004  0.2284343E+02  0.7546771E-02  0.1694061E+00
         21   -1    0    0  503  502  0.00000000000E+00  0.00000000000E+00  0.19809999090E+02  0.19809999090E+02  0.00000000000E+00 0.  1.
         21   -1    0    0  501  503 -0.00000000000E+00 -0.00000000000E+00 -0.34158329765E+02  0.34158329765E+02  0.00000000000E+00 0.  1.
          5    1    1    2  501    0  0.21314762192E+02 -0.82160258775E+01  0.57344626856E+01  0.23552202249E+02  0.00000000000E+00 0. -1.
         -5    1    1    2    0  502 -0.21314762192E+02  0.82160258775E+01 -0.20082793361E+02  0.30416126606E+02  0.00000000000E+00 0.  1.
<mgrwt>
<rscale>  2 0.22843427E+02</rscale>
<asrwt>0</asrwt>
<pdfrwt beam="1">  1       21 0.30476922E-02 0.22843427E+02</pdfrwt>
<pdfrwt beam="2">  1       21 0.52551276E-02 0.22843427E+02</pdfrwt>
<totfact> 0.10310424E+08</totfact>
</mgrwt>
</event>
<event>
 4    1  0.3862688E+004  0.3855715E+02  0.7546771E-02  0.1519106E+00
         21   -1    0    0  503  502  0.00000000000E+00  0.00000000000E+00  0.29223058668E+03  0.29223058668E+03  0.00000000000E+00 0. -1.
         21   -1    0    0  501  503 -0.00000000000E+00 -0.00000000000E+00 -0.51141745795E+01  0.51141745795E+01  0.00000000000E+00 0. -1.
          5    1    1    2  501    0  0.16257987288E+02 -0.34961863171E+02  0.15434288586E+03  0.15908607872E+03  0.00000000000E+00 0. -1.
         -5    1    1    2    0  502 -0.16257987288E+02  0.34961863171E+02  0.13277352624E+03  0.13825868254E+03  0.00000000000E+00 0.  1.
<mgrwt>
<rscale>  2 0.38557153E+02</rscale>
<asrwt>0</asrwt>
<pdfrwt beam="1">  1       21 0.44958539E-01 0.38557153E+02</pdfrwt>
<pdfrwt beam="2">  1       21 0.78679632E-03 0.38557153E+02</pdfrwt>
<totfact> 0.22096290E+07</totfact>
</mgrwt>
</event>
<event>
 4    1  0.3862688E+004  0.2113123E+02  0.7546771E-02  0.1723725E+00
         21   -1    0    0  503  502  0.00000000000E+00  0.00000000000E+00  0.19254542593E+02  0.19254542593E+02  0.00000000000E+00 0.  1.
         21   -1    0    0  501  503 -0.00000000000E+00 -0.00000000000E+00 -0.34779829695E+02  0.34779829695E+02  0.00000000000E+00 0.  1.
          4    1    1    2  501    0  0.17174269437E+02 -0.12311513056E+02 -0.23358143673E+02  0.31498123123E+02  0.00000000000E+00 0.  1.
         -4    1    1    2    0  502 -0.17174269437E+02  0.12311513056E+02  0.78328565709E+01  0.22536249166E+02  0.00000000000E+00 0. -1.
<mgrwt>
<rscale>  2 0.21131230E+02</rscale>
<asrwt>0</asrwt>
<pdfrwt beam="1">  1       21 0.29622373E-02 0.21131230E+02</pdfrwt>
<pdfrwt beam="2">  1       21 0.53507430E-02 0.21131230E+02</pdfrwt>
<totfact> 0.10235689E+08</totfact>
</mgrwt>
</event>
<event>
 4    1  0.3862688E+004  0.2677941E+02  0.7546771E-02  0.1636685E+00
         21   -1    0    0  501  502  0.00000000000E+00  0.00000000000E+00  0.10128303812E+02  0.10128303812E+02  0.00000000000E+00 0.  1.
         21   -1    0    0  502  503 -0.00000000000E+00 -0.00000000000E+00 -0.10587180555E+03  0.10587180555E+03  0.00000000000E+00 0.  1.
          2    1    1    2  501    0 -0.20120804481E+02  0.17671722351E+02 -0.14491843464E+02  0.30449139081E+02  0.00000000000E+00 0. -1.
         -2    1    1    2    0  503  0.20120804481E+02 -0.17671722351E+02 -0.81251658270E+02  0.85550970278E+02  0.00000000000E+00 0.  1.
<mgrwt>
<rscale>  2 0.26779405E+02</rscale>
<asrwt>0</asrwt>
<pdfrwt beam="1">  1       21 0.15582006E-02 0.26779405E+02</pdfrwt>
<pdfrwt beam="2">  1       21 0.16287969E-01 0.26779405E+02</pdfrwt>
<totfact> 0.46584332E+07</totfact>
</mgrwt>
</event>
<event>
 4    1  0.3862688E+004  0.2957494E+02  0.7546771E-02  0.1602835E+00
         21   -1    0    0  503  502  0.00000000000E+00  0.00000000000E+00  0.30536198732E+02  0.30536198732E+02  0.00000000000E+00 0.  1.
         21   -1    0    0  501  503 -0.00000000000E+00 -0.00000000000E+00 -0.36852310082E+02  0.36852310082E+02  0.00000000000E+00 0.  1.
          1    1    1    2  501    0  0.28517084465E+02  0.78392046231E+01 -0.19060057211E+02  0.35184698612E+02  0.00000000000E+00 0. -1.
         -1    1    1    2    0  502 -0.28517084465E+02 -0.78392046231E+01  0.12743945861E+02  0.32203810203E+02  0.00000000000E+00 0.  1.
<mgrwt>
<rscale>  2 0.29574943E+02</rscale>
<asrwt>0</asrwt>
<pdfrwt beam="1">  1       21 0.46978768E-02 0.29574943E+02</pdfrwt>
<pdfrwt beam="2">  1       21 0.56695861E-02 0.29574943E+02</pdfrwt>
<totfact> 0.49226176E+07</totfact>
</mgrwt>
</event>
<event>
 4    1  0.3862688E+004  0.2050515E+02  0.7546771E-02  0.1735465E+00
         21   -1    0    0  501  502  0.00000000000E+00  0.00000000000E+00  0.34092073323E+03  0.34092073323E+03  0.00000000000E+00 0.  1.
         21   -1    0    0  502  503 -0.00000000000E+00 -0.00000000000E+00 -0.15151689153E+01  0.15151689153E+01  0.00000000000E+00 0.  1.
          3    1    1    2  501    0 -0.12701591797E+02 -0.16097542126E+02  0.95855609353E+02  0.98024278325E+02  0.00000000000E+00 0. -1.
         -3    1    1    2    0  503  0.12701591797E+02  0.16097542126E+02  0.24354995496E+03  0.24441162382E+03  0.00000000000E+00 0.  1.
<mgrwt>
<rscale>  2 0.20505153E+02</rscale>
<asrwt>0</asrwt>
<pdfrwt beam="1">  1       21 0.52449282E-01 0.20505153E+02</pdfrwt>
<pdfrwt beam="2">  1       21 0.23310318E-03 0.20505153E+02</pdfrwt>
<totfact> 0.86768736E+07</totfact>
</mgrwt>
</event>
<event>
 4    1  0.3862688E+004  0.2440931E+02  0.7546771E-02  0.1669634E+00
         21   -1    0    0  501  502  0.00000000000E+00  0.00000000000E+00  0.66218362782E+03  0.66218362782E+03  0.00000000000E+00 0.  1.
         21   -1    0    0  502  503 -0.00000000000E+00 -0.00000000000E+00 -0.10064101746E+01  0.10064101746E+01  0.00000000000E+00 0.  1.
          3    1    1    2  501    0  0.17966190693E+01  0.24343102304E+02  0.22265013372E+03  0.22398414344E+03  0.00000000000E+00 0.  1.
         -3    1    1    2    0  503 -0.17966190693E+01 -0.24343102304E+02  0.43852708393E+03  0.43920589455E+03  0.00000000000E+00 0. -1.
<mgrwt>
<rscale>  2 0.24409311E+02</rscale>
<asrwt>0</asrwt>
<pdfrwt beam="1">  1       21 0.10187406E+00 0.24409311E+02</pdfrwt>
<pdfrwt beam="2">  1       21 0.15483286E-03 0.24409311E+02</pdfrwt>
<totfact> 0.41355856E+07</totfact>
</mgrwt>
</event>
<event>
 4    1  0.3862688E+004  0.2323118E+02  0.7546771E-02  0.1687790E+00
         21   -1    0    0  501  502  0.00000000000E+00  0.00000000000E+00  0.15999191167E+03  0.15999191167E+03  0.00000000000E+00 0.  1.
         21   -1    0    0  502  503 -0.00000000000E+00 -0.00000000000E+00 -0.35063288099E+01  0.35063288099E+01  0.00000000000E+00 0.  1.
          5    1    1    2  501    0  0.15925966948E+02  0.16913047492E+02  0.62314712243E+02  0.66504217615E+02  0.00000000000E+00 0.  1.
         -5    1    1    2    0  503 -0.15925966948E+02 -0.16913047492E+02  0.94170870615E+02  0.96994022863E+02  0.00000000000E+00 0. -1.
<mgrwt>
<rscale>  2 0.23231177E+02</rscale>
<asrwt>0</asrwt>
<pdfrwt beam="1">  1       21 0.24614135E-01 0.23231177E+02</pdfrwt>
<pdfrwt beam="2">  1       21 0.53943533E-03 0.23231177E+02</pdfrwt>
<totfact> 0.10743856E+08</totfact>
</mgrwt>
</event>
<event>
 4    1  0.3862688E+004  0.3472602E+02  0.7546771E-02  0.1551047E+00
         21   -1    0    0  501  502  0.00000000000E+00  0.00000000000E+00  0.33269601074E+02  0.33269601074E+02  0.00000000000E+00 0. -1.
         21   -1    0    0  502  503 -0.00000000000E+00 -0.00000000000E+00 -0.39450216468E+02  0.39450216468E+02  0.00000000000E+00 0. -1.
          4    1    1    2  501    0 -0.34711962823E+02 -0.98805563546E+00 -0.13452352227E+02  0.37240601464E+02  0.00000000000E+00 0.  1.
         -4    1    1    2    0  503  0.34711962823E+02  0.98805563546E+00  0.72717368332E+01  0.35479216078E+02  0.00000000000E+00 0. -1.
<mgrwt>
<rscale>  2 0.34726022E+02</rscale>
<asrwt>0</asrwt>
<pdfrwt beam="1">  1       21 0.51184002E-02 0.34726022E+02</pdfrwt>
<pdfrwt beam="2">  1       21 0.60692641E-02 0.34726022E+02</pdfrwt>
<totfact> 0.39701503E+07</totfact>
</mgrwt>
</event>
<event>
 4    1  0.3862688E+004  0.2429299E+02  0.7546771E-02  0.1671370E+00
         21   -1    0    0  501  502  0.00000000000E+00  0.00000000000E+00  0.51797387560E+01  0.51797387560E+01  0.00000000000E+00 0. -1.
         21   -1    0    0  502  503 -0.00000000000E+00 -0.00000000000E+00 -0.11421504702E+03  0.11421504702E+03  0.00000000000E+00 0. -1.
          1    1    1    2  501    0  0.19991124759E+02  0.13802328607E+02 -0.57477953773E+02  0.62400837446E+02  0.00000000000E+00 0.  1.
         -1    1    1    2    0  503 -0.19991124759E+02 -0.13802328607E+02 -0.51557354493E+02  0.56993948332E+02  0.00000000000E+00 0. -1.
<mgrwt>
<rscale>  2 0.24292990E+02</rscale>
<asrwt>0</asrwt>
<pdfrwt beam="1">  1       21 0.79688293E-03 0.24292990E+02</pdfrwt>
<pdfrwt beam="2">  1       21 0.17571545E-01 0.24292990E+02</pdfrwt>
<totfact> 0.10998758E+08</totfact>
</mgrwt>
</event>
<event>
 4    1  0.3862688E+004  0.2012131E+02  0.7546771E-02  0.1742926E+00
         21   -1    0    0  501  502  0.00000000000E+00  0.00000000000E+00  0.53623149856E+02  0.53623149856E+02  0.00000000000E+00 0. -1.
         21   -1    0    0  502  503 -0.00000000000E+00 -0.00000000000E+00 -0.77680203184E+01  0.77680203184E+01  0.00000000000E+00 0. -1.
          2    1    1    2  501    0  0.40253482169E+01  0.19714556101E+02  0.17787845965E+02  0.26856556268E+02  0.00000000000E+00 0.  1.
         -2    1    1    2    0  503 -0.40253482169E+01 -0.19714556101E+02  0.28067283572E+02  0.34534613906E+02  0.00000000000E+00 0. -1.
<mgrwt>
<rscale>  2 0.20121311E+02</rscale>
<asrwt>0</asrwt>
<pdfrwt beam="1">  1       21 0.82497151E-02 0.20121311E+02</pdfrwt>
<pdfrwt beam="2">  1       21 0.11950801E-02 0.20121311E+02</pdfrwt>
<totfact> 0.20071313E+08</totfact>
</mgrwt>
</event>
<event>
 4    1  0.3862688E+004  0.2005239E+02  0.7546771E-02  0.1744288E+00
         21   -1    0    0  503  502  0.00000000000E+00  0.00000000000E+00  0.60913419921E+00  0.60913419921E+00  0.00000000000E+00 0.  1.
         21   -1    0    0  501  503 -0.00000000000E+00 -0.00000000000E+00 -0.90282250618E+03  0.90282250618E+03  0.00000000000E+00 0.  1.
          3    1    1    2  501    0  0.19841985572E+02 -0.28972070897E+01 -0.21689619985E+03  0.21782116451E+03  0.00000000000E+00 0. -1.
         -3    1    1    2    0  502 -0.19841985572E+02  0.28972070897E+01 -0.68531717214E+03  0.68561047587E+03  0.00000000000E+00 0.  1.
<mgrwt>
<rscale>  2 0.20052386E+02</rscale>
<asrwt>0</asrwt>
<pdfrwt beam="1">  1       21 0.93713296E-04 0.20052386E+02</pdfrwt>
<pdfrwt beam="2">  1       21 0.13889526E+00 0.20052386E+02</pdfrwt>
<totfact> 0.40358993E+07</totfact>
</mgrwt>
</event>
<event>
 4    1  0.3862688E+004  0.2811322E+02  0.7546771E-02  0.1619933E+00
         21   -1    0    0  501  502  0.00000000000E+00  0.00000000000E+00  0.53497843639E+01  0.53497843639E+01  0.00000000000E+00 0.  1.
         21   -1    0    0  502  503 -0.00000000000E+00 -0.00000000000E+00 -0.16615289377E+03  0.16615289377E+03  0.00000000000E+00 0.  1.
          4    1    1    2  501    0  0.32620466609E+01 -0.27923330061E+02 -0.10895118632E+03  0.11251983963E+03  0.00000000000E+00 0.  1.
         -4    1    1    2    0  503 -0.32620466609E+01  0.27923330061E+02 -0.51851923086E+02  0.58982838502E+02  0.00000000000E+00 0. -1.
<mgrwt>
<rscale>  2 0.28113223E+02</rscale>
<asrwt>0</asrwt>
<pdfrwt beam="1">  1       21 0.82304394E-03 0.28113223E+02</pdfrwt>
<pdfrwt beam="2">  1       21 0.25561978E-01 0.28113223E+02</pdfrwt>
<totfact> 0.56062376E+07</totfact>
</mgrwt>
</event>
<event>
 4    1  0.3862688E+004  0.2343107E+02  0.7546771E-02  0.1684616E+00
         21   -1    0    0  503  502  0.00000000000E+00  0.00000000000E+00  0.54250059202E+03  0.54250059202E+03  0.00000000000E+00 0.  1.
         21   -1    0    0  501  503 -0.00000000000E+00 -0.00000000000E+00 -0.10230016290E+01  0.10230016290E+01  0.00000000000E+00 0.  1.
          5    1    1    2  501    0  0.16580279754E+02 -0.16556244634E+02  0.29891105783E+03  0.29982800971E+03  0.00000000000E+00 0.  1.
         -5    1    1    2    0  502 -0.16580279754E+02  0.16556244634E+02  0.24256653256E+03  0.24369558394E+03  0.00000000000E+00 0. -1.
<mgrwt>
<rscale>  2 0.23431067E+02</rscale>
<asrwt>0</asrwt>
<pdfrwt beam="1">  1       21 0.83461400E-01 0.23431067E+02</pdfrwt>
<pdfrwt beam="2">  1       21 0.15738530E-03 0.23431067E+02</pdfrwt>
<totfact> 0.61544564E+07</totfact>
</mgrwt>
</event>
<event>
 4    1  0.3862688E+004  0.6111058E+02  0.7546771E-02  0.1393229E+00
         21   -1    0    0  501  502  0.00000000000E+00  0.00000000000E+00  0.10529592536E+03  0.10529592536E+03  0.00000000000E+00 0.  1.
         21   -1    0    0  502  503 -0.00000000000E+00 -0.00000000000E+00 -0.51935564304E+02  0.51935564304E+02  0.00000000000E+00 0.  1.
          2    1    1    2  501    0 -0.67186536209E+01  0.60740121817E+02 -0.17589711952E+02  0.63591671399E+02  0.00000000000E+00 0. -1.
         -2    1    1    2    0  503  0.67186536209E+01 -0.60740121817E+02  0.70950073010E+02  0.93639818267E+02  0.00000000000E+00 0.  1.
<mgrwt>
<rscale>  2 0.61110578E+02</rscale>
<asrwt>0</asrwt>
<pdfrwt beam="1">  1       21 0.16199373E-01 0.61110578E+02</pdfrwt>
<pdfrwt beam="2">  1       21 0.79900868E-02 0.61110578E+02</pdfrwt>
<totfact> 0.38705697E+06</totfact>
</mgrwt>
</event>
<event>
 4    1  0.3862688E+004  0.2934943E+02  0.7546771E-02  0.1605393E+00
         21   -1    0    0  503  502  0.00000000000E+00  0.00000000000E+00  0.31003784027E+01  0.31003784027E+01  0.00000000000E+00 0. -1.
         21   -1    0    0  501  503 -0.00000000000E+00 -0.00000000000E+00 -0.27909275511E+03  0.27909275511E+03  0.00000000000E+00 0. -1.
          1    1    1    2  501    0  0.99760733665E+01 -0.27601937423E+02 -0.12851858192E+03  0.13182721603E+03  0.00000000000E+00 0.  1.
         -1    1    1    2    0  502 -0.99760733665E+01  0.27601937423E+02 -0.14747379479E+03  0.15036591748E+03  0.00000000000E+00 0. -1.
<mgrwt>
<rscale>  2 0.29349429E+02</rscale>
<asrwt>0</asrwt>
<pdfrwt beam="1">  1       21 0.47698113E-03 0.29349429E+02</pdfrwt>
<pdfrwt beam="2">  1       21 0.42937361E-01 0.29349429E+02</pdfrwt>
<totfact> 0.48765167E+07</totfact>
</mgrwt>
</event>
<event>
 4    1  0.3862688E+004  0.3536937E+02  0.7546771E-02  0.1545345E+00
         21   -1    0    0  501  502  0.00000000000E+00  0.00000000000E+00  0.44785292647E+02  0.44785292647E+02  0.00000000000E+00 0.  1.
         21   -1    0    0  502  503 -0.00000000000E+00 -0.00000000000E+00 -0.37287791492E+02  0.37287791492E+02  0.00000000000E+00 0.  1.
          4    1    1    2  501    0  0.32430060422E+02  0.14116776067E+02  0.24303022416E+02  0.42914206086E+02  0.00000000000E+00 0.  1.
         -4    1    1    2    0  503 -0.32430060422E+02 -0.14116776067E+02 -0.16805521261E+02  0.39158878052E+02  0.00000000000E+00 0. -1.
<mgrwt>
<rscale>  2 0.35369368E+02</rscale>
<asrwt>0</asrwt>
<pdfrwt beam="1">  1       21 0.68900450E-02 0.35369368E+02</pdfrwt>
<pdfrwt beam="2">  1       21 0.57365833E-02 0.35369368E+02</pdfrwt>
<totfact> 0.26897739E+07</totfact>
</mgrwt>
</event>
<event>
 4    1  0.3862688E+004  0.2032479E+02  0.7546771E-02  0.1738945E+00
         21   -1    0    0  503  502  0.00000000000E+00  0.00000000000E+00  0.12633118208E+04  0.12633118208E+04  0.00000000000E+00 0. -1.
         21   -1    0    0  501  503 -0.00000000000E+00 -0.00000000000E+00 -0.43896312960E+00  0.43896312960E+00  0.00000000000E+00 0. -1.
          4    1    1    2  501    0 -0.47208203491E+01 -0.19768941385E+02  0.31230924170E+03  0.31296990213E+03  0.00000000000E+00 0.  1.
         -4    1    1    2    0  502  0.47208203491E+01  0.19768941385E+02  0.95056361602E+03  0.95078088185E+03  0.00000000000E+00 0. -1.
<mgrwt>
<rscale>  2 0.20324792E+02</rscale>
<asrwt>0</asrwt>
<pdfrwt beam="1">  1       21 0.19435276E+00 0.20324792E+02</pdfrwt>
<pdfrwt beam="2">  1       21 0.67533800E-04 0.20324792E+02</pdfrwt>
<totfact> 0.28610548E+07</totfact>
</mgrwt>
</event>
<event>
 4    1  0.3862688E+004  0.2014300E+02  0.7546771E-02  0.1742499E+00
         21   -1    0    0  501  502  0.00000000000E+00  0.00000000000E+00  0.43167532758E+02  0.43167532758E+02  0.00000000000E+00 0.  1.
         21   -1    0    0  502  503 -0.00000000000E+00 -0.00000000000E+00 -0.95017659385E+01  0.95017659385E+01  0.00000000000E+00 0.  1.
          4    1    1    2  501    0 -0.13777433240E+02  0.14694310765E+02  0.19568901893E+02  0.28083489044E+02  0.00000000000E+00 0. -1.
         -4    1    1    2    0  503  0.13777433240E+02 -0.14694310765E+02  0.14096864926E+02  0.24585809653E+02  0.00000000000E+00 0.  1.
<mgrwt>
<rscale>  2 0.20143000E+02</rscale>
<asrwt>0</asrwt>
<pdfrwt beam="1">  1       21 0.66411587E-02 0.20143000E+02</pdfrwt>
<pdfrwt beam="2">  1       21 0.14618102E-02 0.20143000E+02</pdfrwt>
<totfact> 0.21041965E+08</totfact>
</mgrwt>
</event>
<event>
 4    1  0.3862688E+004  0.2167916E+02  0.7546771E-02  0.1713861E+00
         21   -1    0    0  503  502  0.00000000000E+00  0.00000000000E+00  0.64133744944E+03  0.64133744944E+03  0.00000000000E+00 0.  1.
         21   -1    0    0  501  503 -0.00000000000E+00 -0.00000000000E+00 -0.88627146425E+00  0.88627146425E+00  0.00000000000E+00 0.  1.
          3    1    1    2  501    0 -0.21526024403E+02  0.25721658539E+01  0.18661016394E+03  0.18786521511E+03  0.00000000000E+00 0.  1.
         -3    1    1    2    0  502  0.21526024403E+02 -0.25721658539E+01  0.45384101404E+03  0.45435850580E+03  0.00000000000E+00 0. -1.
<mgrwt>
<rscale>  2 0.21679155E+02</rscale>
<asrwt>0</asrwt>
<pdfrwt beam="1">  1       21 0.98666929E-01 0.21679155E+02</pdfrwt>
<pdfrwt beam="2">  1       21 0.13634997E-03 0.21679155E+02</pdfrwt>
<totfact> 0.51883056E+07</totfact>
</mgrwt>
</event>
<event>
 4    1  0.3862688E+004  0.2730456E+02  0.7546771E-02  0.1629949E+00
         21   -1    0    0  503  502  0.00000000000E+00  0.00000000000E+00  0.71443200900E+02  0.71443200900E+02  0.00000000000E+00 0. -1.
         21   -1    0    0  501  503 -0.00000000000E+00 -0.00000000000E+00 -0.10885071323E+02  0.10885071323E+02  0.00000000000E+00 0. -1.
          1    1    1    2  501    0  0.25685844001E+02 -0.92615533784E+01  0.38645627675E+02  0.47318320886E+02  0.00000000000E+00 0.  1.
         -1    1    1    2    0  502 -0.25685844001E+02  0.92615533784E+01  0.21912501902E+02  0.35009951337E+02  0.00000000000E+00 0. -1.
<mgrwt>
<rscale>  2 0.27304559E+02</rscale>
<asrwt>0</asrwt>
<pdfrwt beam="1">  1       21 0.10991261E-01 0.27304559E+02</pdfrwt>
<pdfrwt beam="2">  1       21 0.16746264E-02 0.27304559E+02</pdfrwt>
<totfact> 0.81773362E+07</totfact>
</mgrwt>
</event>
<event>
 4    1  0.3862688E+004  0.2023574E+02  0.7546771E-02  0.1740680E+00
         21   -1    0    0  503  502  0.00000000000E+00  0.00000000000E+00  0.42898998771E+02  0.42898998771E+02  0.00000000000E+00 0.  1.
         21   -1    0    0  501  503 -0.00000000000E+00 -0.00000000000E+00 -0.12525299364E+02  0.12525299364E+02  0.00000000000E+00 0.  1.
          4    1    1    2  501    0  0.14500754800E+02 -0.14114300009E+02  0.16698091629E+01  0.20304522086E+02  0.00000000000E+00 0.  1.
         -4    1    1    2    0  502 -0.14500754800E+02  0.14114300009E+02  0.28703890244E+02  0.35119776048E+02  0.00000000000E+00 0. -1.
<mgrwt>
<rscale>  2 0.20235744E+02</rscale>
<asrwt>0</asrwt>
<pdfrwt beam="1">  1       21 0.65998459E-02 0.20235744E+02</pdfrwt>
<pdfrwt beam="2">  1       21 0.19269692E-02 0.20235744E+02</pdfrwt>
<totfact> 0.13994882E+08</totfact>
</mgrwt>
</event>
<event>
 4    1  0.3862688E+004  0.2541001E+02  0.7546771E-02  0.1655182E+00
         21   -1    0    0  503  502  0.00000000000E+00  0.00000000000E+00  0.37438859591E+03  0.37438859591E+03  0.00000000000E+00 0. -1.
         21   -1    0    0  501  503 -0.00000000000E+00 -0.00000000000E+00 -0.21388696775E+01  0.21388696775E+01  0.00000000000E+00 0. -1.
          2    1    1    2  501    0 -0.18814448972E+02 -0.17078788069E+02  0.10326981201E+03  0.10635000030E+03  0.00000000000E+00 0. -1.
         -2    1    1    2    0  502  0.18814448972E+02  0.17078788069E+02  0.26897991422E+03  0.27017746528E+03  0.00000000000E+00 0.  1.
<mgrwt>
<rscale>  2 0.25410008E+02</rscale>
<asrwt>0</asrwt>
<pdfrwt beam="1">  1       21 0.57598193E-01 0.25410008E+02</pdfrwt>
<pdfrwt beam="2">  1       21 0.32905717E-03 0.25410008E+02</pdfrwt>
<totfact> 0.46024516E+07</totfact>
</mgrwt>
</event>
<event>
 4    1  0.3862688E+004  0.2074706E+02  0.7546771E-02  0.1730867E+00
         21   -1    0    0  503  502  0.00000000000E+00  0.00000000000E+00  0.13235804047E+04  0.13235804047E+04  0.00000000000E+00 0. -1.
         21   -1    0    0  501  503 -0.00000000000E+00 -0.00000000000E+00 -0.39812022284E+00  0.39812022284E+00  0.00000000000E+00 0. -1.
          2    1    1    2  501    0  0.18155884009E+02 -0.10040136806E+02  0.37829507780E+03  0.37886357222E+03  0.00000000000E+00 0.  1.
         -2    1    1    2    0  502 -0.18155884009E+02  0.10040136806E+02  0.94488720669E+03  0.94511495271E+03  0.00000000000E+00 0. -1.
<mgrwt>
<rscale>  2 0.20747059E+02</rscale>
<asrwt>0</asrwt>
<pdfrwt beam="1">  1       21 0.20362423E+00 0.20747059E+02</pdfrwt>
<pdfrwt beam="2">  1       21 0.61250325E-04 0.20747059E+02</pdfrwt>
<totfact> 0.29256075E+07</totfact>
</mgrwt>
</event>
<event>
 4    1  0.3862688E+004  0.2080661E+02  0.7546771E-02  0.1729748E+00
         21   -1    0    0  501  502  0.00000000000E+00  0.00000000000E+00  0.28953986839E+02  0.28953986839E+02  0.00000000000E+00 0. -1.
         21   -1    0    0  502  503 -0.00000000000E+00 -0.00000000000E+00 -0.31490655998E+02  0.31490655998E+02  0.00000000000E+00 0. -1.
          1    1    1    2  501    0 -0.45325958416E+01 -0.20306908067E+02 -0.23170616897E+02  0.31141490455E+02  0.00000000000E+00 0.  1.
         -1    1    1    2    0  503  0.45325958416E+01  0.20306908067E+02  0.20633947738E+02  0.29303152383E+02  0.00000000000E+00 0. -1.
<mgrwt>
<rscale>  2 0.20806608E+02</rscale>
<asrwt>0</asrwt>
<pdfrwt beam="1">  1       21 0.44544595E-02 0.20806608E+02</pdfrwt>
<pdfrwt beam="2">  1       21 0.48447163E-02 0.20806608E+02</pdfrwt>
<totfact> 0.63040676E+07</totfact>
</mgrwt>
</event>
<event>
 4    1  0.3862688E+004  0.2444707E+02  0.7546771E-02  0.1669073E+00
         21   -1    0    0  501  502  0.00000000000E+00  0.00000000000E+00  0.19304394876E+03  0.19304394876E+03  0.00000000000E+00 0.  1.
         21   -1    0    0  502  503 -0.00000000000E+00 -0.00000000000E+00 -0.32675309982E+01  0.32675309982E+01  0.00000000000E+00 0.  1.
          2    1    1    2  501    0 -0.12739879234E+02 -0.20865154388E+02  0.11737922703E+03  0.11989804889E+03  0.00000000000E+00 0.  1.
         -2    1    1    2    0  503  0.12739879234E+02  0.20865154388E+02  0.72397190733E+02  0.76413430864E+02  0.00000000000E+00 0. -1.
<mgrwt>
<rscale>  2 0.24447069E+02</rscale>
<asrwt>0</asrwt>
<pdfrwt beam="1">  1       21 0.29699060E-01 0.24447069E+02</pdfrwt>
<pdfrwt beam="2">  1       21 0.50269723E-03 0.24447069E+02</pdfrwt>
<totfact> 0.86194937E+07</totfact>
</mgrwt>
</event>
<event>
 4    1  0.3862688E+004  0.2097119E+02  0.7546771E-02  0.1726677E+00
         21   -1    0    0  503  502  0.00000000000E+00  0.00000000000E+00  0.12112127254E+02  0.12112127254E+02  0.00000000000E+00 0.  1.
         21   -1    0    0  501  503 -0.00000000000E+00 -0.00000000000E+00 -0.38407941271E+02  0.38407941271E+02  0.00000000000E+00 0.  1.
          3    1    1    2  501    0 -0.17119525231E+02  0.12112498378E+02 -0.19051617280E+02  0.28332929289E+02  0.00000000000E+00 0.  1.
         -3    1    1    2    0  502  0.17119525231E+02 -0.12112498378E+02 -0.72441967374E+01  0.22187139236E+02  0.00000000000E+00 0. -1.
<mgrwt>
<rscale>  2 0.20971189E+02</rscale>
<asrwt>0</asrwt>
<pdfrwt beam="1">  1       21 0.18634042E-02 0.20971189E+02</pdfrwt>
<pdfrwt beam="2">  1       21 0.59089140E-02 0.20971189E+02</pdfrwt>
<totfact> 0.17781984E+08</totfact>
</mgrwt>
</event>
<event>
 4    1  0.3862688E+004  0.2683747E+02  0.7546771E-02  0.1635931E+00
         21   -1    0    0  503  502  0.00000000000E+00  0.00000000000E+00  0.17415484971E+01  0.17415484971E+01  0.00000000000E+00 0. -1.
         21   -1    0    0  501  503 -0.00000000000E+00 -0.00000000000E+00 -0.48633114996E+03  0.48633114996E+03  0.00000000000E+00 0. -1.
          2    1    1    2  501    0  0.12512921405E+02 -0.23741872707E+02 -0.14790120715E+03  0.15031638899E+03  0.00000000000E+00 0.  1.
         -2    1    1    2    0  502 -0.12512921405E+02  0.23741872707E+02 -0.33668839432E+03  0.33775630947E+03  0.00000000000E+00 0. -1.
<mgrwt>
<rscale>  2 0.26837469E+02</rscale>
<asrwt>0</asrwt>
<pdfrwt beam="1">  1       21 0.26793018E-03 0.26837469E+02</pdfrwt>
<pdfrwt beam="2">  1       21 0.74820277E-01 0.26837469E+02</pdfrwt>
<totfact> 0.36866486E+07</totfact>
</mgrwt>
</event>
<event>
 4    1  0.3862688E+004  0.2039055E+02  0.7546771E-02  0.1737671E+00
         21   -1    0    0  501  502  0.00000000000E+00  0.00000000000E+00  0.14670896031E+03  0.14670896031E+03  0.00000000000E+00 0. -1.
         21   -1    0    0  502  503 -0.00000000000E+00 -0.00000000000E+00 -0.28825739943E+01  0.28825739943E+01  0.00000000000E+00 0. -1.
          4    1    1    2  501    0 -0.77214758982E+01  0.18872027980E+02  0.81621531811E+02  0.84129953556E+02  0.00000000000E+00 0. -1.
         -4    1    1    2    0  503  0.77214758982E+01 -0.18872027980E+02  0.62204854501E+02  0.65461580745E+02  0.00000000000E+00 0.  1.
<mgrwt>
<rscale>  2 0.20390552E+02</rscale>
<asrwt>0</asrwt>
<pdfrwt beam="1">  1       21 0.22570603E-01 0.20390552E+02</pdfrwt>
<pdfrwt beam="2">  1       21 0.44347304E-03 0.20390552E+02</pdfrwt>
<totfact> 0.16091529E+08</totfact>
</mgrwt>
</event>
<event>
 4    1  0.3862688E+004  0.2138636E+02  0.7546771E-02  0.1719086E+00
         21   -1    0    0  503  502  0.00000000000E+00  0.00000000000E+00  0.16823099307E+02  0.16823099307E+02  0.00000000000E+00 0.  1.
         21   -1    0    0  501  503 -0.00000000000E+00 -0.00000000000E+00 -0.29113439184E+02  0.29113439184E+02  0.00000000000E+00 0.  1.
          2    1    1    2  501    0  0.12604178304E+02  0.17277474684E+02 -0.12052800420E+02  0.24548858225E+02  0.00000000000E+00 0. -1.
         -2    1    1    2    0  502 -0.12604178304E+02 -0.17277474684E+02 -0.23753945711E+00  0.21387680267E+02  0.00000000000E+00 0.  1.
<mgrwt>
<rscale>  2 0.21386361E+02</rscale>
<asrwt>0</asrwt>
<pdfrwt beam="1">  1       21 0.25881692E-02 0.21386361E+02</pdfrwt>
<pdfrwt beam="2">  1       21 0.44789906E-02 0.21386361E+02</pdfrwt>
<totfact> 0.16783336E+08</totfact>
</mgrwt>
</event>
<event>
 4    1  0.3862688E+004  0.2627224E+02  0.7546771E-02  0.1643373E+00
         21   -1    0    0  501  502  0.00000000000E+00  0.00000000000E+00  0.13634262096E+03  0.13634262096E+03  0.00000000000E+00 0.  1.
         21   -1    0    0  502  503 -0.00000000000E+00 -0.00000000000E+00 -0.51807831339E+01  0.51807831339E+01  0.00000000000E+00 0.  1.
          2    1    1    2  501    0 -0.21630514222E+02  0.14911449648E+02  0.76274333374E+02  0.80672203439E+02  0.00000000000E+00 0. -1.
         -2    1    1    2    0  503  0.21630514222E+02 -0.14911449648E+02  0.54887504449E+02  0.60851200652E+02  0.00000000000E+00 0.  1.
<mgrwt>
<rscale>  2 0.26272238E+02</rscale>
<asrwt>0</asrwt>
<pdfrwt beam="1">  1       21 0.20975785E-01 0.26272238E+02</pdfrwt>
<pdfrwt beam="2">  1       21 0.79704366E-03 0.26272238E+02</pdfrwt>
<totfact> 0.82351306E+07</totfact>
</mgrwt>
</event>
<event>
 4    1  0.3862688E+004  0.2372088E+02  0.7546771E-02  0.1680084E+00
         21   -1    0    0  503  502  0.00000000000E+00  0.00000000000E+00  0.14239017173E+02  0.14239017173E+02  0.00000000000E+00 0. -1.
         21   -1    0    0  501  503 -0.00000000000E+00 -0.00000000000E+00 -0.41017264546E+02  0.41017264546E+02  0.00000000000E+00 0. -1.
          1    1    1    2  501    0 -0.66462749879E+01 -0.22770750627E+02 -0.18673389112E+02  0.30188996609E+02  0.00000000000E+00 0.  1.
         -1    1    1    2    0  502  0.66462749879E+01  0.22770750627E+02 -0.81048582610E+01  0.25067285110E+02  0.00000000000E+00 0. -1.
<mgrwt>
<rscale>  2 0.23720878E+02</rscale>
<asrwt>0</asrwt>
<pdfrwt beam="1">  1       21 0.21906181E-02 0.23720878E+02</pdfrwt>
<pdfrwt beam="2">  1       21 0.63103483E-02 0.23720878E+02</pdfrwt>
<totfact> 0.12965423E+08</totfact>
</mgrwt>
</event>
<event>
 4    1  0.3862688E+004  0.2187208E+02  0.7546771E-02  0.1710474E+00
         21   -1    0    0  501  502  0.00000000000E+00  0.00000000000E+00  0.19541898694E+02  0.19541898694E+02  0.00000000000E+00 0.  1.
         21   -1    0    0  502  503 -0.00000000000E+00 -0.00000000000E+00 -0.24619819783E+02  0.24619819783E+02  0.00000000000E+00 0.  1.
          1    1    1    2  501    0  0.17594991945E+01 -0.21801195076E+02 -0.42022883074E+01  0.22272116450E+02  0.00000000000E+00 0.  1.
         -1    1    1    2    0  503 -0.17594991945E+01  0.21801195076E+02 -0.87563278177E+00  0.21889602027E+02  0.00000000000E+00 0. -1.
<mgrwt>
<rscale>  2 0.21872081E+02</rscale>
<asrwt>0</asrwt>
<pdfrwt beam="1">  1       21 0.30064459E-02 0.21872081E+02</pdfrwt>
<pdfrwt beam="2">  1       21 0.37876646E-02 0.21872081E+02</pdfrwt>
<totfact> 0.17448121E+08</totfact>
</mgrwt>
</event>
<event>
 4    1  0.3862688E+004  0.4571287E+02  0.7546771E-02  0.1469940E+00
         21   -1    0    0  501  502  0.00000000000E+00  0.00000000000E+00  0.62014361253E+01  0.62014361253E+01  0.00000000000E+00 0.  1.
         21   -1    0    0  502  503 -0.00000000000E+00 -0.00000000000E+00 -0.40141744181E+03  0.40141744181E+03  0.00000000000E+00 0.  1.
          2    1    1    2  501    0  0.39688283866E+02 -0.22682729317E+02 -0.27927494925E+03  0.28299145458E+03  0.00000000000E+00 0.  1.
         -2    1    1    2    0  503 -0.39688283866E+02  0.22682729317E+02 -0.11594105643E+03  0.12462742336E+03  0.00000000000E+00 0. -1.
<mgrwt>
<rscale>  2 0.45712866E+02</rscale>
<asrwt>0</asrwt>
<pdfrwt beam="1">  1       21 0.95406712E-03 0.45712866E+02</pdfrwt>
<pdfrwt beam="2">  1       21 0.61756528E-01 0.45712866E+02</pdfrwt>
<totfact> 0.89040445E+06</totfact>
</mgrwt>
</event>
<event>
 4    1  0.3862688E+004  0.2404098E+02  0.7546771E-02  0.1675171E+00
         21   -1    0    0  501  502  0.00000000000E+00  0.00000000000E+00  0.46281887880E+02  0.46281887880E+02  0.00000000000E+00 0.  1.
         21   -1    0    0  502  503 -0.00000000000E+00 -0.00000000000E+00 -0.12499383033E+02  0.12499383033E+02  0.00000000000E+00 0.  1.
          5    1    1    2  501    0  0.23760622712E+02  0.36607893681E+01  0.17777892741E+02  0.29900201350E+02  0.00000000000E+00 0.  1.
         -5    1    1    2    0  503 -0.23760622712E+02 -0.36607893681E+01  0.16004612107E+02  0.28881069563E+02  0.00000000000E+00 0. -1.
<mgrwt>
<rscale>  2 0.24040977E+02</rscale>
<asrwt>0</asrwt>
<pdfrwt beam="1">  1       21 0.71202903E-02 0.24040977E+02</pdfrwt>
<pdfrwt beam="2">  1       21 0.19229820E-02 0.24040977E+02</pdfrwt>
<totfact> 0.13081847E+08</totfact>
</mgrwt>
</event>
<event>
 4    1  0.3862688E+004  0.2404719E+02  0.7546771E-02  0.1675077E+00
         21   -1    0    0  503  502  0.00000000000E+00  0.00000000000E+00  0.10775345724E+02  0.10775345724E+02  0.00000000000E+00 0. -1.
         21   -1    0    0  501  503 -0.00000000000E+00 -0.00000000000E+00 -0.55172310735E+02  0.55172310735E+02  0.00000000000E+00 0. -1.
          4    1    1    2  501    0 -0.16452979424E+02  0.17537581600E+02 -0.16749715707E+02  0.29305635577E+02  0.00000000000E+00 0. -1.
         -4    1    1    2    0  502  0.16452979424E+02 -0.17537581600E+02 -0.27647249304E+02  0.36642020883E+02  0.00000000000E+00 0.  1.
<mgrwt>
<rscale>  2 0.24047189E+02</rscale>
<asrwt>0</asrwt>
<pdfrwt beam="1">  1       21 0.16577455E-02 0.24047189E+02</pdfrwt>
<pdfrwt beam="2">  1       21 0.84880479E-02 0.24047189E+02</pdfrwt>
<totfact> 0.12326772E+08</totfact>
</mgrwt>
</event>
<event>
 4    1  0.3862688E+004  0.2384957E+02  0.7546771E-02  0.1678098E+00
         21   -1    0    0  501  502  0.00000000000E+00  0.00000000000E+00  0.50154868822E+03  0.50154868822E+03  0.00000000000E+00 0.  1.
         21   -1    0    0  502  503 -0.00000000000E+00 -0.00000000000E+00 -0.13451401080E+01  0.13451401080E+01  0.00000000000E+00 0.  1.
          3    1    1    2  501    0  0.14781350578E+02  0.18716668818E+02  0.34970054397E+03  0.35051287062E+03  0.00000000000E+00 0.  1.
         -3    1    1    2    0  503 -0.14781350578E+02 -0.18716668818E+02  0.15050300414E+03  0.15238095770E+03  0.00000000000E+00 0. -1.
<mgrwt>
<rscale>  2 0.23849571E+02</rscale>
<asrwt>0</asrwt>
<pdfrwt beam="1">  1       21 0.77161188E-01 0.23849571E+02</pdfrwt>
<pdfrwt beam="2">  1       21 0.20694503E-03 0.23849571E+02</pdfrwt>
<totfact> 0.49103945E+07</totfact>
</mgrwt>
</event>
<event>
 4    1  0.3862688E+004  0.2204903E+02  0.7546771E-02  0.1707405E+00
         21   -1    0    0  501  502  0.00000000000E+00  0.00000000000E+00  0.29210909988E+02  0.29210909988E+02  0.00000000000E+00 0. -1.
         21   -1    0    0  502  503 -0.00000000000E+00 -0.00000000000E+00 -0.16954971700E+02  0.16954971700E+02  0.00000000000E+00 0. -1.
          3    1    1    2  501    0 -0.22029547172E+02  0.92671006727E+00  0.29972863231E+01  0.22251819374E+02  0.00000000000E+00 0. -1.
         -3    1    1    2    0  503  0.22029547172E+02 -0.92671006727E+00  0.92586519643E+01  0.23914062314E+02  0.00000000000E+00 0.  1.
<mgrwt>
<rscale>  2 0.22049030E+02</rscale>
<asrwt>0</asrwt>
<pdfrwt beam="1">  1       21 0.44939861E-02 0.22049030E+02</pdfrwt>
<pdfrwt beam="2">  1       21 0.26084572E-02 0.22049030E+02</pdfrwt>
<totfact> 0.16652567E+08</totfact>
</mgrwt>
</event>
<event>
 4    1  0.3862688E+004  0.2522905E+02  0.7546771E-02  0.1657734E+00
         21   -1    0    0  503  502  0.00000000000E+00  0.00000000000E+00  0.20081872243E+04  0.20081872243E+04  0.00000000000E+00 0.  1.
         21   -1    0    0  501  503 -0.00000000000E+00 -0.00000000000E+00 -0.36695505734E+00  0.36695505734E+00  0.00000000000E+00 0.  1.
          2    1    1    2  501    0 -0.10582415418E+02  0.22902350972E+02  0.13746180883E+04  0.13748495896E+04  0.00000000000E+00 0.  1.
         -2    1    1    2    0  502  0.10582415418E+02 -0.22902350972E+02  0.63320218097E+03  0.63370458984E+03  0.00000000000E+00 0. -1.
<mgrwt>
<rscale>  2 0.25229055E+02</rscale>
<asrwt>0</asrwt>
<pdfrwt beam="1">  1       21 0.30894308E+00 0.25229055E+02</pdfrwt>
<pdfrwt beam="2">  1       21 0.56456232E-04 0.25229055E+02</pdfrwt>
<totfact> 0.99078949E+06</totfact>
</mgrwt>
</event>
<event>
 4    1  0.3862688E+004  0.2120031E+02  0.7546771E-02  0.1722461E+00
         21   -1    0    0  503  502  0.00000000000E+00  0.00000000000E+00  0.23032949331E+01  0.23032949331E+01  0.00000000000E+00 0. -1.
         21   -1    0    0  501  503 -0.00000000000E+00 -0.00000000000E+00 -0.19617462504E+03  0.19617462504E+03  0.00000000000E+00 0. -1.
          4    1    1    2  501    0  0.13845616960E+02  0.16054656437E+02 -0.89710774134E+02  0.92181755777E+02  0.00000000000E+00 0.  1.
         -4    1    1    2    0  502 -0.13845616960E+02 -0.16054656437E+02 -0.10416055597E+03  0.10629616419E+03  0.00000000000E+00 0. -1.
<mgrwt>
<rscale>  2 0.21200309E+02</rscale>
<asrwt>0</asrwt>
<pdfrwt beam="1">  1       21 0.35435295E-03 0.21200309E+02</pdfrwt>
<pdfrwt beam="2">  1       21 0.30180722E-01 0.21200309E+02</pdfrwt>
<totfact> 0.13455286E+08</totfact>
</mgrwt>
</event>
<event>
 4    1  0.3862688E+004  0.3369007E+02  0.7546771E-02  0.1560550E+00
         21   -1    0    0  501  502  0.00000000000E+00  0.00000000000E+00  0.50010919391E+02  0.50010919391E+02  0.00000000000E+00 0. -1.
         21   -1    0    0  502  503 -0.00000000000E+00 -0.00000000000E+00 -0.23643767261E+02  0.23643767261E+02  0.00000000000E+00 0. -1.
          3    1    1    2  501    0  0.31908033028E+02  0.10811959164E+02  0.20558976753E+02  0.39467614038E+02  0.00000000000E+00 0.  1.
         -3    1    1    2    0  503 -0.31908033028E+02 -0.10811959164E+02  0.58081753771E+01  0.34187072614E+02  0.00000000000E+00 0. -1.
<mgrwt>
<rscale>  2 0.33690073E+02</rscale>
<asrwt>0</asrwt>
<pdfrwt beam="1">  1       21 0.76939876E-02 0.33690073E+02</pdfrwt>
<pdfrwt beam="2">  1       21 0.36375027E-02 0.33690073E+02</pdfrwt>
<totfact> 0.46231490E+07</totfact>
</mgrwt>
</event>
<event>
 4    1  0.3862688E+004  0.5066450E+02  0.7546771E-02  0.1441790E+00
         21   -1    0    0  501  502  0.00000000000E+00  0.00000000000E+00  0.11522403061E+03  0.11522403061E+03  0.00000000000E+00 0.  1.
         21   -1    0    0  502  503 -0.00000000000E+00 -0.00000000000E+00 -0.95742148629E+02  0.95742148629E+02  0.00000000000E+00 0.  1.
          4    1    1    2  501    0 -0.45858142987E+02 -0.21538861964E+02  0.10214068216E+03  0.11401583576E+03  0.00000000000E+00 0.  1.
         -4    1    1    2    0  503  0.45858142987E+02  0.21538861964E+02 -0.82658800179E+02  0.96950343475E+02  0.00000000000E+00 0. -1.
<mgrwt>
<rscale>  2 0.50664503E+02</rscale>
<asrwt>0</asrwt>
<pdfrwt beam="1">  1       21 0.17726774E-01 0.50664503E+02</pdfrwt>
<pdfrwt beam="2">  1       21 0.14729561E-01 0.50664503E+02</pdfrwt>
<totfact> 0.11395194E+06</totfact>
</mgrwt>
</event>
<event>
 4    1  0.3862688E+004  0.2192446E+02  0.7546771E-02  0.1709562E+00
         21   -1    0    0  501  502  0.00000000000E+00  0.00000000000E+00  0.19639788092E+04  0.19639788092E+04  0.00000000000E+00 0.  1.
         21   -1    0    0  502  503 -0.00000000000E+00 -0.00000000000E+00 -0.37119490745E+00  0.37119490745E+00  0.00000000000E+00 0.  1.
          4    1    1    2  501    0  0.17142733326E+02  0.13667797718E+02  0.40855900076E+03  0.40914684296E+03  0.00000000000E+00 0. -1.
         -4    1    1    2    0  503 -0.17142733326E+02 -0.13667797718E+02  0.15550486136E+04  0.15552031612E+04  0.00000000000E+00 0.  1.
<mgrwt>
<rscale>  2 0.21924461E+02</rscale>
<asrwt>0</asrwt>
<pdfrwt beam="1">  1       21 0.30214227E+00 0.21924461E+02</pdfrwt>
<pdfrwt beam="2">  1       21 0.57108481E-04 0.21924461E+02</pdfrwt>
<totfact> 0.10483238E+07</totfact>
</mgrwt>
</event>
<event>
 4    1  0.3862688E+004  0.2026369E+02  0.7546771E-02  0.1740134E+00
         21   -1    0    0  503  502  0.00000000000E+00  0.00000000000E+00  0.11678018976E+04  0.11678018976E+04  0.00000000000E+00 0.  1.
         21   -1    0    0  501  503 -0.00000000000E+00 -0.00000000000E+00 -0.43723395620E+00  0.43723395620E+00  0.00000000000E+00 0.  1.
          2    1    1    2  501    0 -0.14360630174E+02 -0.14296488397E+02  0.84216322204E+03  0.84240697400E+03  0.00000000000E+00 0. -1.
         -2    1    1    2    0  502  0.14360630174E+02  0.14296488397E+02  0.32520144162E+03  0.32583215758E+03  0.00000000000E+00 0.  1.
<mgrwt>
<rscale>  2 0.20263694E+02</rscale>
<asrwt>0</asrwt>
<pdfrwt beam="1">  1       21 0.17965933E+00 0.20263694E+02</pdfrwt>
<pdfrwt beam="2">  1       21 0.67267698E-04 0.20263694E+02</pdfrwt>
<totfact> 0.34982604E+07</totfact>
</mgrwt>
</event>
<event>
 4    1  0.3862688E+004  0.3198196E+02  0.7546771E-02  0.1577160E+00
         21   -1    0    0  501  502  0.00000000000E+00  0.00000000000E+00  0.38900129694E+01  0.38900129694E+01  0.00000000000E+00 0.  1.
         21   -1    0    0  502  503 -0.00000000000E+00 -0.00000000000E+00 -0.26516900890E+03  0.26516900890E+03  0.00000000000E+00 0.  1.
          5    1    1    2  501    0 -0.27846816847E+02 -0.15728970515E+02 -0.11830933001E+03  0.12255587824E+03  0.00000000000E+00 0.  1.
         -5    1    1    2    0  503  0.27846816847E+02  0.15728970515E+02 -0.14296966592E+03  0.14650314364E+03  0.00000000000E+00 0. -1.
<mgrwt>
<rscale>  2 0.31981959E+02</rscale>
<asrwt>0</asrwt>
<pdfrwt beam="1">  1       21 0.59846373E-03 0.31981959E+02</pdfrwt>
<pdfrwt beam="2">  1       21 0.40795219E-01 0.31981959E+02</pdfrwt>
<totfact> 0.39005593E+07</totfact>
</mgrwt>
</event>
<event>
 4    1  0.3862688E+004  0.6733513E+02  0.7546771E-02  0.1369397E+00
         21   -1    0    0  503  502  0.00000000000E+00  0.00000000000E+00  0.11070455853E+04  0.11070455853E+04  0.00000000000E+00 0.  1.
         21   -1    0    0  501  503 -0.00000000000E+00 -0.00000000000E+00 -0.41943433246E+01  0.41943433246E+01  0.00000000000E+00 0.  1.
          3    1    1    2  501    0  0.43524322059E+02  0.51377556530E+02  0.63667509898E+03  0.64022589887E+03  0.00000000000E+00 0.  1.
         -3    1    1    2    0  502 -0.43524322059E+02 -0.51377556530E+02  0.46617614302E+03  0.47101402978E+03  0.00000000000E+00 0. -1.
<mgrwt>
<rscale>  2 0.67335131E+02</rscale>
<asrwt>0</asrwt>
<pdfrwt beam="1">  1       21 0.17031447E+00 0.67335131E+02</pdfrwt>
<pdfrwt beam="2">  1       21 0.64528447E-03 0.67335131E+02</pdfrwt>
<totfact> 0.16118560E+06</totfact>
</mgrwt>
</event>
<event>
 4    1  0.3862688E+004  0.2616127E+02  0.7546771E-02  0.1644861E+00
         21   -1    0    0  503  502  0.00000000000E+00  0.00000000000E+00  0.79284012899E+00  0.79284012899E+00  0.00000000000E+00 0.  1.
         21   -1    0    0  501  503 -0.00000000000E+00 -0.00000000000E+00 -0.86524079288E+03  0.86524079288E+03  0.00000000000E+00 0.  1.
          2    1    1    2  501    0  0.23347375904E+02 -0.11803046704E+02 -0.41140493882E+03  0.41223589795E+03  0.00000000000E+00 0. -1.
         -2    1    1    2    0  502 -0.23347375904E+02  0.11803046704E+02 -0.45304301393E+03  0.45379773506E+03  0.00000000000E+00 0.  1.
<mgrwt>
<rscale>  2 0.26161267E+02</rscale>
<asrwt>0</asrwt>
<pdfrwt beam="1">  1       21 0.12197589E-03 0.26161267E+02</pdfrwt>
<pdfrwt beam="2">  1       21 0.13311344E+00 0.26161267E+02</pdfrwt>
<totfact> 0.32224580E+07</totfact>
</mgrwt>
</event>
<event>
 4    1  0.3862688E+004  0.2011902E+02  0.7546771E-02  0.1742971E+00
         21   -1    0    0  503  502  0.00000000000E+00  0.00000000000E+00  0.31826074543E+03  0.31826074543E+03  0.00000000000E+00 0. -1.
         21   -1    0    0  501  503 -0.00000000000E+00 -0.00000000000E+00 -0.20455375681E+01  0.20455375681E+01  0.00000000000E+00 0. -1.
          5    1    1    2  501    0  0.19854168843E+02 -0.32537734311E+01  0.59611549608E+02  0.62915116694E+02  0.00000000000E+00 0.  1.
         -5    1    1    2    0  502 -0.19854168843E+02  0.32537734311E+01  0.25660365825E+03  0.25739116630E+03  0.00000000000E+00 0. -1.
<mgrwt>
<rscale>  2 0.20119022E+02</rscale>
<asrwt>0</asrwt>
<pdfrwt beam="1">  1       21 0.48963152E-01 0.20119022E+02</pdfrwt>
<pdfrwt beam="2">  1       21 0.31469834E-03 0.20119022E+02</pdfrwt>
<totfact> 0.63878911E+07</totfact>
</mgrwt>
</event>
<event>
 4    1  0.3862688E+004  0.2159385E+02  0.7546771E-02  0.1715372E+00
         21   -1    0    0  503  502  0.00000000000E+00  0.00000000000E+00  0.20116723174E+02  0.20116723174E+02  0.00000000000E+00 0. -1.
         21   -1    0    0  501  503 -0.00000000000E+00 -0.00000000000E+00 -0.23680606560E+02  0.23680606560E+02  0.00000000000E+00 0. -1.
          3    1    1    2  501    0 -0.10336819006E+02 -0.18959022962E+02  0.14038123783E+01  0.21639433172E+02  0.00000000000E+00 0. -1.
         -3    1    1    2    0  502  0.10336819006E+02  0.18959022962E+02 -0.49676957641E+01  0.22157896561E+02  0.00000000000E+00 0.  1.
<mgrwt>
<rscale>  2 0.21593850E+02</rscale>
<asrwt>0</asrwt>
<pdfrwt beam="1">  1       21 0.30948805E-02 0.21593850E+02</pdfrwt>
<pdfrwt beam="2">  1       21 0.36431702E-02 0.21593850E+02</pdfrwt>
<totfact> 0.17656242E+08</totfact>
</mgrwt>
</event>
<event>
 4    1  0.3862688E+004  0.2284214E+02  0.7546771E-02  0.1694082E+00
         21   -1    0    0  501  502  0.00000000000E+00  0.00000000000E+00  0.71452050107E+00  0.71452050107E+00  0.00000000000E+00 0. -1.
         21   -1    0    0  502  503 -0.00000000000E+00 -0.00000000000E+00 -0.14557193998E+04  0.14557193998E+04  0.00000000000E+00 0. -1.
          2    1    1    2  501    0  0.13945225325E+02 -0.18091270198E+02 -0.21341394615E+03  0.21463288606E+03  0.00000000000E+00 0.  1.
         -2    1    1    2    0  503 -0.13945225325E+02  0.18091270198E+02 -0.12415909331E+04  0.12418010342E+04  0.00000000000E+00 0. -1.
<mgrwt>
<rscale>  2 0.22842140E+02</rscale>
<asrwt>0</asrwt>
<pdfrwt beam="1">  1       21 0.10992720E-03 0.22842140E+02</pdfrwt>
<pdfrwt beam="2">  1       21 0.22395485E+00 0.22842140E+02</pdfrwt>
<totfact> 0.10080327E+07</totfact>
</mgrwt>
</event>
<event>
 4    1  0.3862688E+004  0.2007029E+02  0.7546771E-02  0.1743934E+00
         21   -1    0    0  503  502  0.00000000000E+00  0.00000000000E+00  0.26721803789E+01  0.26721803789E+01  0.00000000000E+00 0. -1.
         21   -1    0    0  501  503 -0.00000000000E+00 -0.00000000000E+00 -0.16751564385E+03  0.16751564385E+03  0.00000000000E+00 0. -1.
          3    1    1    2  501    0  0.18460824928E+02 -0.78749171589E+01 -0.10934654612E+03  0.11117321406E+03  0.00000000000E+00 0.  1.
         -3    1    1    2    0  502 -0.18460824928E+02  0.78749171589E+01 -0.55496917353E+02  0.59014610165E+02  0.00000000000E+00 0. -1.
<mgrwt>
<rscale>  2 0.20070286E+02</rscale>
<asrwt>0</asrwt>
<pdfrwt beam="1">  1       21 0.41110474E-03 0.20070286E+02</pdfrwt>
<pdfrwt beam="2">  1       21 0.25771633E-01 0.20070286E+02</pdfrwt>
<totfact> 0.14154471E+08</totfact>
</mgrwt>
</event>
<event>
 4    1  0.3862688E+004  0.2219334E+02  0.7546771E-02  0.1704930E+00
         21   -1    0    0  501  502  0.00000000000E+00  0.00000000000E+00  0.26174728270E+02  0.26174728270E+02  0.00000000000E+00 0.  1.
         21   -1    0    0  502  503 -0.00000000000E+00 -0.00000000000E+00 -0.20386443482E+02  0.20386443482E+02  0.00000000000E+00 0.  1.
          4    1    1    2  501    0  0.19355992728E+02  0.10857709392E+02  0.93524635539E+01  0.24083456610E+02  0.00000000000E+00 0.  1.
         -4    1    1    2    0  503 -0.19355992728E+02 -0.10857709392E+02 -0.35641787665E+01  0.22477715142E+02  0.00000000000E+00 0. -1.
<mgrwt>
<rscale>  2 0.22193339E+02</rscale>
<asrwt>0</asrwt>
<pdfrwt beam="1">  1       21 0.40268813E-02 0.22193339E+02</pdfrwt>
<pdfrwt beam="2">  1       21 0.31363759E-02 0.22193339E+02</pdfrwt>
<totfact> 0.14904667E+08</totfact>
</mgrwt>
</event>
<event>
 4    1  0.3862688E+004  0.3424216E+02  0.7546771E-02  0.1555435E+00
         21   -1    0    0  501  502  0.00000000000E+00  0.00000000000E+00  0.86562168104E+03  0.86562168104E+03  0.00000000000E+00 0. -1.
         21   -1    0    0  502  503 -0.00000000000E+00 -0.00000000000E+00 -0.20456528601E+01  0.20456528601E+01  0.00000000000E+00 0. -1.
          3    1    1    2  501    0 -0.22158356830E+02 -0.26106184829E+02  0.17962614148E+03  0.18286081146E+03  0.00000000000E+00 0. -1.
         -3    1    1    2    0  503  0.22158356830E+02  0.26106184829E+02  0.68394988670E+03  0.68480652244E+03  0.00000000000E+00 0.  1.
<mgrwt>
<rscale>  2 0.34242162E+02</rscale>
<asrwt>0</asrwt>
<pdfrwt beam="1">  1       21 0.13317227E+00 0.34242162E+02</pdfrwt>
<pdfrwt beam="2">  1       21 0.31471652E-03 0.34242162E+02</pdfrwt>
<totfact> 0.84165507E+06</totfact>
</mgrwt>
</event>
<event>
 4    1  0.3862688E+004  0.2779360E+02  0.7546771E-02  0.1623842E+00
         21   -1    0    0  501  502  0.00000000000E+00  0.00000000000E+00  0.82620492755E+02  0.82620492755E+02  0.00000000000E+00 0.  1.
         21   -1    0    0  502  503 -0.00000000000E+00 -0.00000000000E+00 -0.93780100763E+01  0.93780100763E+01  0.00000000000E+00 0.  1.
          1    1    1    2  501    0 -0.27779799202E+02 -0.87569336424E+00  0.34097814334E+02  0.43990283301E+02  0.00000000000E+00 0. -1.
         -1    1    1    2    0  503  0.27779799202E+02  0.87569336424E+00  0.39144668345E+02  0.48008219530E+02  0.00000000000E+00 0.  1.
<mgrwt>
<rscale>  2 0.27793598E+02</rscale>
<asrwt>0</asrwt>
<pdfrwt beam="1">  1       21 0.12710845E-01 0.27793598E+02</pdfrwt>
<pdfrwt beam="2">  1       21 0.14427708E-02 0.27793598E+02</pdfrwt>
<totfact> 0.80777975E+07</totfact>
</mgrwt>
</event>
<event>
 4    1  0.3862688E+004  0.2536920E+02  0.7546771E-02  0.1655755E+00
         21   -1    0    0  501  502  0.00000000000E+00  0.00000000000E+00  0.51776649358E+01  0.51776649358E+01  0.00000000000E+00 0.  1.
         21   -1    0    0  502  503 -0.00000000000E+00 -0.00000000000E+00 -0.19835514402E+03  0.19835514402E+03  0.00000000000E+00 0.  1.
          5    1    1    2  501    0 -0.24631207247E+02  0.60745311719E+01 -0.15876909580E+03  0.16078315236E+03  0.00000000000E+00 0. -1.
         -5    1    1    2    0  503  0.24631207247E+02 -0.60745311719E+01 -0.34408383281E+02  0.42749656600E+02  0.00000000000E+00 0.  1.
<mgrwt>
<rscale>  2 0.25369200E+02</rscale>
<asrwt>0</asrwt>
<pdfrwt beam="1">  1       21 0.79656384E-03 0.25369200E+02</pdfrwt>
<pdfrwt beam="2">  1       21 0.30516176E-01 0.25369200E+02</pdfrwt>
<totfact> 0.41716372E+07</totfact>
</mgrwt>
</event>
<event>
 4    1  0.3862688E+004  0.2746995E+02  0.7546771E-02  0.1627866E+00
         21   -1    0    0  501  502  0.00000000000E+00  0.00000000000E+00  0.90041335710E+02  0.90041335710E+02  0.00000000000E+00 0. -1.
         21   -1    0    0  502  503 -0.00000000000E+00 -0.00000000000E+00 -0.10686724041E+02  0.10686724041E+02  0.00000000000E+00 0. -1.
          2    1    1    2  501    0  0.20633811249E+02 -0.18134054411E+02  0.63073323211E+02  0.68795655363E+02  0.00000000000E+00 0. -1.
         -2    1    1    2    0  503 -0.20633811249E+02  0.18134054411E+02  0.16281288459E+02  0.31932404387E+02  0.00000000000E+00 0.  1.
<mgrwt>
<rscale>  2 0.27469949E+02</rscale>
<asrwt>0</asrwt>
<pdfrwt beam="1">  1       21 0.13852513E-01 0.27469949E+02</pdfrwt>
<pdfrwt beam="2">  1       21 0.16441114E-02 0.27469949E+02</pdfrwt>
<totfact> 0.56976619E+07</totfact>
</mgrwt>
</event>
<event>
 4    1  0.3862688E+004  0.2039826E+02  0.7546771E-02  0.1737522E+00
         21   -1    0    0  503  502  0.00000000000E+00  0.00000000000E+00  0.13059633378E+01  0.13059633378E+01  0.00000000000E+00 0. -1.
         21   -1    0    0  501  503 -0.00000000000E+00 -0.00000000000E+00 -0.33123584764E+03  0.33123584764E+03  0.00000000000E+00 0. -1.
          1    1    1    2  501    0  0.20190541646E+02  0.29036030674E+01 -0.13249871615E+03  0.13405968322E+03  0.00000000000E+00 0. -1.
         -1    1    1    2    0  502 -0.20190541646E+02 -0.29036030674E+01 -0.19743116815E+03  0.19848212776E+03  0.00000000000E+00 0.  1.
<mgrwt>
<rscale>  2 0.20398257E+02</rscale>
<asrwt>0</asrwt>
<pdfrwt beam="1">  1       21 0.20091736E-03 0.20398257E+02</pdfrwt>
<pdfrwt beam="2">  1       21 0.50959381E-01 0.20398257E+02</pdfrwt>
<totfact> 0.11350929E+08</totfact>
</mgrwt>
</event>
<event>
 4    1  0.3862688E+004  0.2046324E+02  0.7546771E-02  0.1736270E+00
         21   -1    0    0  503  502  0.00000000000E+00  0.00000000000E+00  0.22729649491E+03  0.22729649491E+03  0.00000000000E+00 0.  1.
         21   -1    0    0  501  503 -0.00000000000E+00 -0.00000000000E+00 -0.24524479644E+01  0.24524479644E+01  0.00000000000E+00 0.  1.
          5    1    1    2  501    0  0.12007228394E+02  0.16570170023E+02  0.16972113468E+03  0.17095030747E+03  0.00000000000E+00 0. -1.
         -5    1    1    2    0  502 -0.12007228394E+02 -0.16570170023E+02  0.55122912260E+02  0.58798635396E+02  0.00000000000E+00 0.  1.
<mgrwt>
<rscale>  2 0.20463237E+02</rscale>
<asrwt>0</asrwt>
<pdfrwt beam="1">  1       21 0.34968675E-01 0.20463237E+02</pdfrwt>
<pdfrwt beam="2">  1       21 0.37729987E-03 0.20463237E+02</pdfrwt>
<totfact> 0.92883854E+07</totfact>
</mgrwt>
</event>
<event>
 4    1  0.3862688E+004  0.2302894E+02  0.7546771E-02  0.1691041E+00
         21   -1    0    0  503  502  0.00000000000E+00  0.00000000000E+00  0.56626337043E+01  0.56626337043E+01  0.00000000000E+00 0. -1.
         21   -1    0    0  501  503 -0.00000000000E+00 -0.00000000000E+00 -0.12050007403E+03  0.12050007403E+03  0.00000000000E+00 0. -1.
          5    1    1    2  501    0 -0.17442120555E+02  0.15036772913E+02 -0.27644369756E+02  0.35979762204E+02  0.00000000000E+00 0. -1.
         -5    1    1    2    0  502  0.17442120555E+02 -0.15036772913E+02 -0.87193070572E+02  0.90182945533E+02  0.00000000000E+00 0.  1.
<mgrwt>
<rscale>  2 0.23028941E+02</rscale>
<asrwt>0</asrwt>
<pdfrwt beam="1">  1       21 0.87117441E-03 0.23028941E+02</pdfrwt>
<pdfrwt beam="2">  1       21 0.18538473E-01 0.23028941E+02</pdfrwt>
<totfact> 0.86455161E+07</totfact>
</mgrwt>
</event>
<event>
 4    1  0.3862688E+004  0.2069970E+02  0.7546771E-02  0.1731761E+00
         21   -1    0    0  503  502  0.00000000000E+00  0.00000000000E+00  0.26996837291E+02  0.26996837291E+02  0.00000000000E+00 0. -1.
         21   -1    0    0  501  503 -0.00000000000E+00 -0.00000000000E+00 -0.17983339599E+02  0.17983339599E+02  0.00000000000E+00 0. -1.
          1    1    1    2  501    0  0.42968203999E+01 -0.20248820222E+02  0.12213965464E+02  0.24034523883E+02  0.00000000000E+00 0. -1.
         -1    1    1    2    0  502 -0.42968203999E+01  0.20248820222E+02 -0.32004677720E+01  0.20945653007E+02  0.00000000000E+00 0.  1.
<mgrwt>
<rscale>  2 0.20699695E+02</rscale>
<asrwt>0</asrwt>
<pdfrwt beam="1">  1       21 0.41533596E-02 0.20699695E+02</pdfrwt>
<pdfrwt beam="2">  1       21 0.27666676E-02 0.20699695E+02</pdfrwt>
<totfact> 0.16877897E+08</totfact>
</mgrwt>
</event>
<event>
 4    1  0.3862688E+004  0.2500328E+02  0.7546771E-02  0.1660955E+00
         21   -1    0    0  503  502  0.00000000000E+00  0.00000000000E+00  0.29470863476E+02  0.29470863476E+02  0.00000000000E+00 0. -1.
         21   -1    0    0  501  503 -0.00000000000E+00 -0.00000000000E+00 -0.22270641667E+02  0.22270641667E+02  0.00000000000E+00 0. -1.
          5    1    1    2  501    0 -0.18181430030E+02  0.17163900328E+02 -0.20378596393E+01  0.25086186325E+02  0.00000000000E+00 0. -1.
         -5    1    1    2    0  502  0.18181430030E+02 -0.17163900328E+02  0.92380814479E+01  0.26655318818E+02  0.00000000000E+00 0.  1.
<mgrwt>
<rscale>  2 0.25003277E+02</rscale>
<asrwt>0</asrwt>
<pdfrwt beam="1">  1       21 0.45339790E-02 0.25003277E+02</pdfrwt>
<pdfrwt beam="2">  1       21 0.34262526E-02 0.25003277E+02</pdfrwt>
<totfact> 0.11142833E+08</totfact>
</mgrwt>
</event>
<event>
 4    1  0.3862688E+004  0.6083303E+02  0.7546771E-02  0.1394369E+00
         21   -1    0    0  501  502  0.00000000000E+00  0.00000000000E+00  0.67737859568E+02  0.67737859568E+02  0.00000000000E+00 0.  1.
         21   -1    0    0  502  503 -0.00000000000E+00 -0.00000000000E+00 -0.56191095977E+02  0.56191095977E+02  0.00000000000E+00 0.  1.
          2    1    1    2  501    0 -0.63623074193E+01 -0.60499411877E+02  0.16094795790E+02  0.62926149133E+02  0.00000000000E+00 0.  1.
         -2    1    1    2    0  503  0.63623074193E+01  0.60499411877E+02 -0.45480321987E+01  0.61002806411E+02  0.00000000000E+00 0. -1.
<mgrwt>
<rscale>  2 0.60833032E+02</rscale>
<asrwt>0</asrwt>
<pdfrwt beam="1">  1       21 0.10421209E-01 0.60833032E+02</pdfrwt>
<pdfrwt beam="2">  1       21 0.86447840E-02 0.60833032E+02</pdfrwt>
<totfact> 0.73127948E+06</totfact>
</mgrwt>
</event>
<event>
 4    1  0.3862688E+004  0.2164573E+02  0.7546771E-02  0.1714452E+00
         21   -1    0    0  503  502  0.00000000000E+00  0.00000000000E+00  0.21127671284E+01  0.21127671284E+01  0.00000000000E+00 0. -1.
         21   -1    0    0  501  503 -0.00000000000E+00 -0.00000000000E+00 -0.39827903780E+03  0.39827903780E+03  0.00000000000E+00 0. -1.
          1    1    1    2  501    0 -0.14238391199E+02  0.16303547755E+02 -0.33135893212E+03  0.33206517335E+03  0.00000000000E+00 0.  1.
         -1    1    1    2    0  502  0.14238391199E+02 -0.16303547755E+02 -0.64807338553E+02  0.68326631584E+02  0.00000000000E+00 0. -1.
<mgrwt>
<rscale>  2 0.21645726E+02</rscale>
<asrwt>0</asrwt>
<pdfrwt beam="1">  1       21 0.32504164E-03 0.21645726E+02</pdfrwt>
<pdfrwt beam="2">  1       21 0.61273596E-01 0.21645726E+02</pdfrwt>
<totfact> 0.39952136E+07</totfact>
</mgrwt>
</event>
<event>
 4    1  0.3862688E+004  0.2580942E+02  0.7546771E-02  0.1649641E+00
         21   -1    0    0  503  502  0.00000000000E+00  0.00000000000E+00  0.21371981777E+02  0.21371981777E+02  0.00000000000E+00 0.  1.
         21   -1    0    0  501  503 -0.00000000000E+00 -0.00000000000E+00 -0.65987752578E+02  0.65987752578E+02  0.00000000000E+00 0.  1.
          4    1    1    2  501    0  0.11162042729E+02 -0.23270904418E+02 -0.54037239911E+02  0.59884467832E+02  0.00000000000E+00 0. -1.
         -4    1    1    2    0  502 -0.11162042729E+02  0.23270904418E+02  0.94214691106E+01  0.27475266523E+02  0.00000000000E+00 0.  1.
<mgrwt>
<rscale>  2 0.25809421E+02</rscale>
<asrwt>0</asrwt>
<pdfrwt beam="1">  1       21 0.32879972E-02 0.25809421E+02</pdfrwt>
<pdfrwt beam="2">  1       21 0.10151962E-01 0.25809421E+02</pdfrwt>
<totfact> 0.32346737E+07</totfact>
</mgrwt>
</event>
<event>
 4    1  0.3862688E+004  0.2494877E+02  0.7546771E-02  0.1661739E+00
         21   -1    0    0  503  502  0.00000000000E+00  0.00000000000E+00  0.61060855070E+02  0.61060855070E+02  0.00000000000E+00 0.  1.
         21   -1    0    0  501  503 -0.00000000000E+00 -0.00000000000E+00 -0.19921075598E+02  0.19921075598E+02  0.00000000000E+00 0.  1.
          1    1    1    2  501    0  0.15328060000E+02  0.19684808200E+02 -0.77243306655E+01  0.26117166413E+02  0.00000000000E+00 0. -1.
         -1    1    1    2    0  502 -0.15328060000E+02 -0.19684808200E+02  0.48864110138E+02  0.54864764255E+02  0.00000000000E+00 0.  1.
<mgrwt>
<rscale>  2 0.24948769E+02</rscale>
<asrwt>0</asrwt>
<pdfrwt beam="1">  1       21 0.93939776E-02 0.24948769E+02</pdfrwt>
<pdfrwt beam="2">  1       21 0.30647809E-02 0.24948769E+02</pdfrwt>
<totfact> 0.40759755E+07</totfact>
</mgrwt>
</event>
<event>
 4    1  0.3862688E+004  0.2333519E+02  0.7546771E-02  0.1686134E+00
         21   -1    0    0  503  502  0.00000000000E+00  0.00000000000E+00  0.67846652115E+02  0.67846652115E+02  0.00000000000E+00 0.  1.
         21   -1    0    0  501  503 -0.00000000000E+00 -0.00000000000E+00 -0.12067860362E+02  0.12067860362E+02  0.00000000000E+00 0.  1.
          2    1    1    2  501    0 -0.16656176920E+01  0.23275666639E+02  0.47646933859E+01  0.23816658935E+02  0.00000000000E+00 0.  1.
         -2    1    1    2    0  502  0.16656176920E+01 -0.23275666639E+02  0.51014098367E+02  0.56097853542E+02  0.00000000000E+00 0. -1.
<mgrwt>
<rscale>  2 0.23335187E+02</rscale>
<asrwt>0</asrwt>
<pdfrwt beam="1">  1       21 0.10437946E-01 0.23335187E+02</pdfrwt>
<pdfrwt beam="2">  1       21 0.18565939E-02 0.23335187E+02</pdfrwt>
<totfact> 0.73072411E+07</totfact>
</mgrwt>
</event>
<event>
 4    1  0.3862688E+004  0.2279018E+02  0.7546771E-02  0.1694934E+00
         21   -1    0    0  503  502  0.00000000000E+00  0.00000000000E+00  0.11080689149E+02  0.11080689149E+02  0.00000000000E+00 0.  1.
         21   -1    0    0  501  503 -0.00000000000E+00 -0.00000000000E+00 -0.51267461811E+02  0.51267461811E+02  0.00000000000E+00 0.  1.
          5    1    1    2  501    0 -0.22721342281E+02  0.17700501862E+01 -0.10967126476E+02  0.25291704883E+02  0.00000000000E+00 0.  1.
         -5    1    1    2    0  502  0.22721342281E+02 -0.17700501862E+01 -0.29219646185E+02  0.37056446078E+02  0.00000000000E+00 0. -1.
<mgrwt>
<rscale>  2 0.22790184E+02</rscale>
<asrwt>0</asrwt>
<pdfrwt beam="1">  1       21 0.17047214E-02 0.22790184E+02</pdfrwt>
<pdfrwt beam="2">  1       21 0.78873018E-02 0.22790184E+02</pdfrwt>
<totfact> 0.13109351E+08</totfact>
</mgrwt>
</event>
<event>
 4    1  0.3862688E+004  0.2995001E+02  0.7546771E-02  0.1598642E+00
         21   -1    0    0  503  502  0.00000000000E+00  0.00000000000E+00  0.28577821285E+02  0.28577821285E+02  0.00000000000E+00 0. -1.
         21   -1    0    0  501  503 -0.00000000000E+00 -0.00000000000E+00 -0.34304937747E+02  0.34304937747E+02  0.00000000000E+00 0. -1.
          3    1    1    2  501    0 -0.96026984518E+01  0.28368839349E+02 -0.12031695365E+02  0.32276377692E+02  0.00000000000E+00 0.  1.
         -3    1    1    2    0  502  0.96026984518E+01 -0.28368839349E+02  0.63045789030E+01  0.30606381340E+02  0.00000000000E+00 0. -1.
<mgrwt>
<rscale>  2 0.29950006E+02</rscale>
<asrwt>0</asrwt>
<pdfrwt beam="1">  1       21 0.43965879E-02 0.29950006E+02</pdfrwt>
<pdfrwt beam="2">  1       21 0.52776827E-02 0.29950006E+02</pdfrwt>
<totfact> 0.61617672E+07</totfact>
</mgrwt>
</event>
<event>
 4    1  0.3862688E+004  0.2018432E+02  0.7546771E-02  0.1741687E+00
         21   -1    0    0  501  502  0.00000000000E+00  0.00000000000E+00  0.11494263875E+01  0.11494263875E+01  0.00000000000E+00 0.  1.
         21   -1    0    0  502  503 -0.00000000000E+00 -0.00000000000E+00 -0.35640806446E+03  0.35640806446E+03  0.00000000000E+00 0.  1.
          1    1    1    2  501    0  0.54706751999E+01  0.19428807095E+02 -0.16435648464E+03  0.16559124638E+03  0.00000000000E+00 0. -1.
         -1    1    1    2    0  503 -0.54706751999E+01 -0.19428807095E+02 -0.19090215343E+03  0.19196624447E+03  0.00000000000E+00 0.  1.
<mgrwt>
<rscale>  2 0.20184321E+02</rscale>
<asrwt>0</asrwt>
<pdfrwt beam="1">  1       21 0.17683533E-03 0.20184321E+02</pdfrwt>
<pdfrwt beam="2">  1       21 0.54831856E-01 0.20184321E+02</pdfrwt>
<totfact> 0.11786383E+08</totfact>
</mgrwt>
</event>
<event>
 4    1  0.3862688E+004  0.5724648E+02  0.7546771E-02  0.1409764E+00
         21   -1    0    0  501  502  0.00000000000E+00  0.00000000000E+00  0.71434855584E+02  0.71434855584E+02  0.00000000000E+00 0.  1.
         21   -1    0    0  502  503 -0.00000000000E+00 -0.00000000000E+00 -0.53808238646E+02  0.53808238646E+02  0.00000000000E+00 0.  1.
          2    1    1    2  501    0  0.26653165001E+02  0.50663278412E+02  0.32856499021E+02  0.66005367296E+02  0.00000000000E+00 0.  1.
         -2    1    1    2    0  503 -0.26653165001E+02 -0.50663278412E+02 -0.15229882082E+02  0.59237726934E+02  0.00000000000E+00 0. -1.
<mgrwt>
<rscale>  2 0.57246476E+02</rscale>
<asrwt>0</asrwt>
<pdfrwt beam="1">  1       21 0.10989978E-01 0.57246476E+02</pdfrwt>
<pdfrwt beam="2">  1       21 0.82781905E-02 0.57246476E+02</pdfrwt>
<totfact> 0.71386991E+06</totfact>
</mgrwt>
</event>
<event>
 4    1  0.3862688E+004  0.2286183E+02  0.7546771E-02  0.1693760E+00
         21   -1    0    0  501  502  0.00000000000E+00  0.00000000000E+00  0.79242773649E+02  0.79242773649E+02  0.00000000000E+00 0.  1.
         21   -1    0    0  502  503 -0.00000000000E+00 -0.00000000000E+00 -0.67419398943E+01  0.67419398943E+01  0.00000000000E+00 0.  1.
          4    1    1    2  501    0 -0.21952342363E+02 -0.63842117931E+01  0.29919078604E+02  0.37653881074E+02  0.00000000000E+00 0. -1.
         -4    1    1    2    0  503  0.21952342363E+02  0.63842117931E+01  0.42581755151E+02  0.48330832469E+02  0.00000000000E+00 0.  1.
<mgrwt>
<rscale>  2 0.22861835E+02</rscale>
<asrwt>0</asrwt>
<pdfrwt beam="1">  1       21 0.12191195E-01 0.22861835E+02</pdfrwt>
<pdfrwt beam="2">  1       21 0.10372216E-02 0.22861835E+02</pdfrwt>
<totfact> 0.13561394E+08</totfact>
</mgrwt>
</event>
<event>
 4    1  0.3862688E+004  0.4426664E+02  0.7546771E-02  0.1478972E+00
         21   -1    0    0  503  502  0.00000000000E+00  0.00000000000E+00  0.86667292272E+01  0.86667292272E+01  0.00000000000E+00 0. -1.
         21   -1    0    0  501  503 -0.00000000000E+00 -0.00000000000E+00 -0.31999798079E+03  0.31999798079E+03  0.00000000000E+00 0. -1.
          2    1    1    2  501    0  0.44845143461E+01  0.44038899325E+02 -0.24468422926E+03  0.24865620357E+03  0.00000000000E+00 0. -1.
         -2    1    1    2    0  502 -0.44845143461E+01 -0.44038899325E+02 -0.66647022296E+02  0.80008506446E+02  0.00000000000E+00 0.  1.
<mgrwt>
<rscale>  2 0.44266641E+02</rscale>
<asrwt>0</asrwt>
<pdfrwt beam="1">  1       21 0.13333431E-02 0.44266641E+02</pdfrwt>
<pdfrwt beam="2">  1       21 0.49230455E-01 0.44266641E+02</pdfrwt>
<totfact> 0.83880965E+06</totfact>
</mgrwt>
</event>
<event>
 4    1  0.3862688E+004  0.2253745E+02  0.7546771E-02  0.1699119E+00
         21   -1    0    0  501  502  0.00000000000E+00  0.00000000000E+00  0.93515759878E+01  0.93515759878E+01  0.00000000000E+00 0.  1.
         21   -1    0    0  502  503 -0.00000000000E+00 -0.00000000000E+00 -0.54336281647E+02  0.54336281647E+02  0.00000000000E+00 0.  1.
          5    1    1    2  501    0  0.17684322843E+02 -0.13971452001E+02 -0.23113156596E+02  0.32282421738E+02  0.00000000000E+00 0. -1.
         -5    1    1    2    0  503 -0.17684322843E+02  0.13971452001E+02 -0.21871549063E+02  0.31405435897E+02  0.00000000000E+00 0.  1.
<mgrwt>
<rscale>  2 0.22537452E+02</rscale>
<asrwt>0</asrwt>
<pdfrwt beam="1">  1       21 0.14387040E-02 0.22537452E+02</pdfrwt>
<pdfrwt beam="2">  1       21 0.83594279E-02 0.22537452E+02</pdfrwt>
<totfact> 0.15382134E+08</totfact>
</mgrwt>
</event>
<event>
 4    1  0.3862688E+004  0.2342412E+02  0.7546771E-02  0.1684726E+00
         21   -1    0    0  501  502  0.00000000000E+00  0.00000000000E+00  0.28009167807E+03  0.28009167807E+03  0.00000000000E+00 0. -1.
         21   -1    0    0  502  503 -0.00000000000E+00 -0.00000000000E+00 -0.19674367006E+01  0.19674367006E+01  0.00000000000E+00 0. -1.
          5    1    1    2  501    0  0.23361964198E+02 -0.17053356144E+01  0.14831694638E+03  0.15015527338E+03  0.00000000000E+00 0. -1.
         -5    1    1    2    0  503 -0.23361964198E+02  0.17053356144E+01  0.12980729499E+03  0.13190384139E+03  0.00000000000E+00 0.  1.
<mgrwt>
<rscale>  2 0.23424123E+02</rscale>
<asrwt>0</asrwt>
<pdfrwt beam="1">  1       21 0.43090996E-01 0.23424123E+02</pdfrwt>
<pdfrwt beam="2">  1       21 0.30268279E-03 0.23424123E+02</pdfrwt>
<totfact> 0.89791285E+07</totfact>
</mgrwt>
</event>
<event>
 4    1  0.3862688E+004  0.3240161E+02  0.7546771E-02  0.1572965E+00
         21   -1    0    0  503  502  0.00000000000E+00  0.00000000000E+00  0.31955660024E+02  0.31955660024E+02  0.00000000000E+00 0.  1.
         21   -1    0    0  501  503 -0.00000000000E+00 -0.00000000000E+00 -0.33679655613E+02  0.33679655613E+02  0.00000000000E+00 0.  1.
          1    1    1    2  501    0  0.23629917354E+02  0.22169602135E+02 -0.60010241543E+01  0.32952640924E+02  0.00000000000E+00 0. -1.
         -1    1    1    2    0  502 -0.23629917354E+02 -0.22169602135E+02  0.42770285653E+01  0.32682674712E+02  0.00000000000E+00 0.  1.
<mgrwt>
<rscale>  2 0.32401609E+02</rscale>
<asrwt>0</asrwt>
<pdfrwt beam="1">  1       21 0.49162554E-02 0.32401609E+02</pdfrwt>
<pdfrwt beam="2">  1       21 0.51814855E-02 0.32401609E+02</pdfrwt>
<totfact> 0.53983519E+07</totfact>
</mgrwt>
</event>
<event>
 4    1  0.3862688E+004  0.2882270E+02  0.7546771E-02  0.1611479E+00
         21   -1    0    0  501  502  0.00000000000E+00  0.00000000000E+00  0.46626303410E+01  0.46626303410E+01  0.00000000000E+00 0. -1.
         21   -1    0    0  502  503 -0.00000000000E+00 -0.00000000000E+00 -0.17869655574E+03  0.17869655574E+03  0.00000000000E+00 0. -1.
          5    1    1    2  501    0 -0.91632249374E+01  0.27327334591E+02 -0.91986449058E+02  0.96396341826E+02  0.00000000000E+00 0. -1.
         -5    1    1    2    0  503  0.91632249374E+01 -0.27327334591E+02 -0.82047476344E+02  0.86962844258E+02  0.00000000000E+00 0.  1.
<mgrwt>
<rscale>  2 0.28822698E+02</rscale>
<asrwt>0</asrwt>
<pdfrwt beam="1">  1       21 0.71732781E-03 0.28822698E+02</pdfrwt>
<pdfrwt beam="2">  1       21 0.27491775E-01 0.28822698E+02</pdfrwt>
<totfact> 0.60756048E+07</totfact>
</mgrwt>
</event>
<event>
 4    1  0.3862688E+004  0.3363981E+02  0.7546771E-02  0.1561022E+00
         21   -1    0    0  503  502  0.00000000000E+00  0.00000000000E+00  0.19903917759E+04  0.19903917759E+04  0.00000000000E+00 0.  1.
         21   -1    0    0  501  503 -0.00000000000E+00 -0.00000000000E+00 -0.61165483988E+00  0.61165483988E+00  0.00000000000E+00 0.  1.
          2    1    1    2  501    0 -0.30480749843E+02 -0.14232391778E+02  0.73061740968E+03  0.73139143857E+03  0.00000000000E+00 0.  1.
         -2    1    1    2    0  502  0.30480749843E+02  0.14232391778E+02  0.12591627114E+04  0.12596119922E+04  0.00000000000E+00 0. -1.
<mgrwt>
<rscale>  2 0.33639814E+02</rscale>
<asrwt>0</asrwt>
<pdfrwt beam="1">  1       21 0.30620893E+00 0.33639814E+02</pdfrwt>
<pdfrwt beam="2">  1       21 0.94102338E-04 0.33639814E+02</pdfrwt>
<totfact> 0.49271954E+06</totfact>
</mgrwt>
</event>
<event>
 4    1  0.3862688E+004  0.6390791E+02  0.7546771E-02  0.1382127E+00
         21   -1    0    0  503  502  0.00000000000E+00  0.00000000000E+00  0.20188235553E+02  0.20188235553E+02  0.00000000000E+00 0.  1.
         21   -1    0    0  501  503 -0.00000000000E+00 -0.00000000000E+00 -0.20289565156E+03  0.20289565156E+03  0.00000000000E+00 0.  1.
          3    1    1    2  501    0 -0.23114397417E+02  0.59581424018E+02 -0.85345715023E+02  0.10662135119E+03  0.00000000000E+00 0.  1.
         -3    1    1    2    0  502  0.23114397417E+02 -0.59581424018E+02 -0.97361700982E+02  0.11646253593E+03  0.00000000000E+00 0. -1.
<mgrwt>
<rscale>  2 0.63907914E+02</rscale>
<asrwt>0</asrwt>
<pdfrwt beam="1">  1       21 0.31058824E-02 0.63907914E+02</pdfrwt>
<pdfrwt beam="2">  1       21 0.31214716E-01 0.63907914E+02</pdfrwt>
<totfact> 0.55413374E+06</totfact>
</mgrwt>
</event>
<event>
 4    1  0.3862688E+004  0.2656767E+02  0.7546771E-02  0.1639455E+00
         21   -1    0    0  503  502  0.00000000000E+00  0.00000000000E+00  0.13711335249E+03  0.13711335249E+03  0.00000000000E+00 0.  1.
         21   -1    0    0  501  503 -0.00000000000E+00 -0.00000000000E+00 -0.52947081130E+01  0.52947081130E+01  0.00000000000E+00 0.  1.
          4    1    1    2  501    0  0.25984926087E+02  0.55339519125E+01  0.54051345834E+02  0.60227809142E+02  0.00000000000E+00 0.  1.
         -4    1    1    2    0  502 -0.25984926087E+02 -0.55339519125E+01  0.77767298539E+02  0.82180251457E+02  0.00000000000E+00 0. -1.
<mgrwt>
<rscale>  2 0.26567668E+02</rscale>
<asrwt>0</asrwt>
<pdfrwt beam="1">  1       21 0.21094359E-01 0.26567668E+02</pdfrwt>
<pdfrwt beam="2">  1       21 0.81457058E-03 0.26567668E+02</pdfrwt>
<totfact> 0.79135815E+07</totfact>
</mgrwt>
</event>
<event>
 4    1  0.3862688E+004  0.2521431E+02  0.7546771E-02  0.1657943E+00
         21   -1    0    0  503  502  0.00000000000E+00  0.00000000000E+00  0.35583442798E+02  0.35583442798E+02  0.00000000000E+00 0.  1.
         21   -1    0    0  501  503 -0.00000000000E+00 -0.00000000000E+00 -0.17991654189E+02  0.17991654189E+02  0.00000000000E+00 0.  1.
          5    1    1    2  501    0  0.25151055413E+02  0.17849584479E+01  0.11027553398E+02  0.27520330648E+02  0.00000000000E+00 0. -1.
         -5    1    1    2    0  502 -0.25151055413E+02 -0.17849584479E+01  0.65642352115E+01  0.26054766338E+02  0.00000000000E+00 0.  1.
<mgrwt>
<rscale>  2 0.25214315E+02</rscale>
<asrwt>0</asrwt>
<pdfrwt beam="1">  1       21 0.54743758E-02 0.25214315E+02</pdfrwt>
<pdfrwt beam="2">  1       21 0.27679468E-02 0.25214315E+02</pdfrwt>
<totfact> 0.11539188E+08</totfact>
</mgrwt>
</event>
<event>
 4    1  0.3862688E+004  0.2729652E+02  0.7546771E-02  0.1630051E+00
         21   -1    0    0  503  502  0.00000000000E+00  0.00000000000E+00  0.80532381158E+01  0.80532381158E+01  0.00000000000E+00 0. -1.
         21   -1    0    0  501  503 -0.00000000000E+00 -0.00000000000E+00 -0.10953361139E+03  0.10953361139E+03  0.00000000000E+00 0. -1.
          1    1    1    2  501    0  0.24449755769E+02  0.12137107754E+02 -0.27569944949E+02  0.38796930372E+02  0.00000000000E+00 0. -1.
         -1    1    1    2    0  502 -0.24449755769E+02 -0.12137107754E+02 -0.73910428325E+02  0.78789919133E+02  0.00000000000E+00 0.  1.
<mgrwt>
<rscale>  2 0.27296519E+02</rscale>
<asrwt>0</asrwt>
<pdfrwt beam="1">  1       21 0.12389597E-02 0.27296519E+02</pdfrwt>
<pdfrwt beam="2">  1       21 0.16851325E-01 0.27296519E+02</pdfrwt>
<totfact> 0.62592028E+07</totfact>
</mgrwt>
</event>
<event>
 4    1  0.3862688E+004  0.2117152E+02  0.7546771E-02  0.1722987E+00
         21   -1    0    0  501  502  0.00000000000E+00  0.00000000000E+00  0.15232679391E+02  0.15232679391E+02  0.00000000000E+00 0.  1.
         21   -1    0    0  502  503 -0.00000000000E+00 -0.00000000000E+00 -0.30605791354E+02  0.30605791354E+02  0.00000000000E+00 0.  1.
          2    1    1    2  501    0  0.13973483313E+02  0.15905184132E+02 -0.31862121830E+01  0.21409929151E+02  0.00000000000E+00 0.  1.
         -2    1    1    2    0  503 -0.13973483313E+02 -0.15905184132E+02 -0.12186899780E+02  0.24428541594E+02  0.00000000000E+00 0. -1.
<mgrwt>
<rscale>  2 0.21171517E+02</rscale>
<asrwt>0</asrwt>
<pdfrwt beam="1">  1       21 0.23434892E-02 0.21171517E+02</pdfrwt>
<pdfrwt beam="2">  1       21 0.47085833E-02 0.21171517E+02</pdfrwt>
<totfact> 0.18015401E+08</totfact>
</mgrwt>
</event>
<event>
 4    1  0.3862688E+004  0.3082043E+02  0.7546771E-02  0.1589193E+00
         21   -1    0    0  501  502  0.00000000000E+00  0.00000000000E+00  0.17314173698E+03  0.17314173698E+03  0.00000000000E+00 0. -1.
         21   -1    0    0  502  503 -0.00000000000E+00 -0.00000000000E+00 -0.58906568208E+01  0.58906568208E+01  0.00000000000E+00 0. -1.
          1    1    1    2  501    0 -0.27680190244E+02  0.13553811403E+02  0.60170867928E+02  0.67604970843E+02  0.00000000000E+00 0. -1.
         -1    1    1    2    0  503  0.27680190244E+02 -0.13553811403E+02  0.10708021223E+03  0.11142742296E+03  0.00000000000E+00 0.  1.
<mgrwt>
<rscale>  2 0.30820427E+02</rscale>
<asrwt>0</asrwt>
<pdfrwt beam="1">  1       21 0.26637186E-01 0.30820427E+02</pdfrwt>
<pdfrwt beam="2">  1       21 0.90625503E-03 0.30820427E+02</pdfrwt>
<totfact> 0.45897511E+07</totfact>
</mgrwt>
</event>
<event>
 4    1  0.3862688E+004  0.2451482E+02  0.7546771E-02  0.1668070E+00
         21   -1    0    0  501  502  0.00000000000E+00  0.00000000000E+00  0.11430571322E+02  0.11430571322E+02  0.00000000000E+00 0.  1.
         21   -1    0    0  502  503 -0.00000000000E+00 -0.00000000000E+00 -0.55895091780E+02  0.55895091780E+02  0.00000000000E+00 0.  1.
          3    1    1    2  501    0  0.23769642576E+02  0.59983875830E+01 -0.30434966489E+02  0.39080221941E+02  0.00000000000E+00 0. -1.
         -3    1    1    2    0  503 -0.23769642576E+02 -0.59983875830E+01 -0.14029553968E+02  0.28245441160E+02  0.00000000000E+00 0.  1.
<mgrwt>
<rscale>  2 0.24514823E+02</rscale>
<asrwt>0</asrwt>
<pdfrwt beam="1">  1       21 0.17585494E-02 0.24514823E+02</pdfrwt>
<pdfrwt beam="2">  1       21 0.85992449E-02 0.24514823E+02</pdfrwt>
<totfact> 0.11085385E+08</totfact>
</mgrwt>
</event>
<event>
 4    1  0.3862688E+004  0.2069330E+02  0.7546771E-02  0.1731882E+00
         21   -1    0    0  501  502  0.00000000000E+00  0.00000000000E+00  0.55483225865E+01  0.55483225865E+01  0.00000000000E+00 0.  1.
         21   -1    0    0  502  503 -0.00000000000E+00 -0.00000000000E+00 -0.81431562293E+02  0.81431562293E+02  0.00000000000E+00 0.  1.
          1    1    1    2  501    0 -0.20574515294E+02  0.22140416659E+01 -0.28002909808E+02  0.34819184623E+02  0.00000000000E+00 0. -1.
         -1    1    1    2    0  503  0.20574515294E+02 -0.22140416659E+01 -0.47880329898E+02  0.52160700256E+02  0.00000000000E+00 0.  1.
<mgrwt>
<rscale>  2 0.20693300E+02</rscale>
<asrwt>0</asrwt>
<pdfrwt beam="1">  1       21 0.85358807E-03 0.20693300E+02</pdfrwt>
<pdfrwt beam="2">  1       21 0.12527933E-01 0.20693300E+02</pdfrwt>
<totfact> 0.16830081E+08</totfact>
</mgrwt>
</event>
<event>
 4    1  0.3862688E+004  0.2287032E+02  0.7546771E-02  0.1693621E+00
         21   -1    0    0  501  502  0.00000000000E+00  0.00000000000E+00  0.15608767669E+02  0.15608767669E+02  0.00000000000E+00 0.  1.
         21   -1    0    0  502  503 -0.00000000000E+00 -0.00000000000E+00 -0.42188437317E+02  0.42188437317E+02  0.00000000000E+00 0.  1.
          4    1    1    2  501    0  0.74409462285E+01  0.21626000403E+02 -0.18299323940E+00  0.22871052899E+02  0.00000000000E+00 0. -1.
         -4    1    1    2    0  503 -0.74409462285E+01 -0.21626000403E+02 -0.26396676408E+02  0.34926152087E+02  0.00000000000E+00 0.  1.
<mgrwt>
<rscale>  2 0.22870321E+02</rscale>
<asrwt>0</asrwt>
<pdfrwt beam="1">  1       21 0.24013489E-02 0.22870321E+02</pdfrwt>
<pdfrwt beam="2">  1       21 0.64905287E-02 0.22870321E+02</pdfrwt>
<totfact> 0.10638749E+08</totfact>
</mgrwt>
</event>
<event>
 4    1  0.3862688E+004  0.2178328E+02  0.7546771E-02  0.1712027E+00
         21   -1    0    0  503  502  0.00000000000E+00  0.00000000000E+00  0.42335591314E+02  0.42335591314E+02  0.00000000000E+00 0. -1.
         21   -1    0    0  501  503 -0.00000000000E+00 -0.00000000000E+00 -0.15692521669E+02  0.15692521669E+02  0.00000000000E+00 0. -1.
          1    1    1    2  501    0  0.43672381798E+01  0.21341001241E+02 -0.21881998238E+01  0.21892905740E+02  0.00000000000E+00 0.  1.
         -1    1    1    2    0  502 -0.43672381798E+01 -0.21341001241E+02  0.28831269469E+02  0.36135207242E+02  0.00000000000E+00 0. -1.
<mgrwt>
<rscale>  2 0.21783276E+02</rscale>
<asrwt>0</asrwt>
<pdfrwt beam="1">  1       21 0.65131678E-02 0.21783276E+02</pdfrwt>
<pdfrwt beam="2">  1       21 0.24142341E-02 0.21783276E+02</pdfrwt>
<totfact> 0.10344458E+08</totfact>
</mgrwt>
</event>
<event>
 4    1  0.3862688E+004  0.2340362E+02  0.7546771E-02  0.1685050E+00
         21   -1    0    0  503  502  0.00000000000E+00  0.00000000000E+00  0.40649465060E+03  0.40649465060E+03  0.00000000000E+00 0. -1.
         21   -1    0    0  501  503 -0.00000000000E+00 -0.00000000000E+00 -0.17986541575E+01  0.17986541575E+01  0.00000000000E+00 0. -1.
          1    1    1    2  501    0  0.22869177829E+02  0.49729349958E+01  0.30459654739E+03  0.30549433065E+03  0.00000000000E+00 0. -1.
         -1    1    1    2    0  502 -0.22869177829E+02 -0.49729349958E+01  0.10009944905E+03  0.10279897411E+03  0.00000000000E+00 0.  1.
<mgrwt>
<rscale>  2 0.23403619E+02</rscale>
<asrwt>0</asrwt>
<pdfrwt beam="1">  1       21 0.62537565E-01 0.23403619E+02</pdfrwt>
<pdfrwt beam="2">  1       21 0.27671635E-03 0.23403619E+02</pdfrwt>
<totfact> 0.49351708E+07</totfact>
</mgrwt>
</event>
<event>
 4    1  0.3862688E+004  0.2067833E+02  0.7546771E-02  0.1732166E+00
         21   -1    0    0  501  502  0.00000000000E+00  0.00000000000E+00  0.73489322594E+02  0.73489322594E+02  0.00000000000E+00 0. -1.
         21   -1    0    0  502  503 -0.00000000000E+00 -0.00000000000E+00 -0.58964798095E+01  0.58964798095E+01  0.00000000000E+00 0. -1.
          4    1    1    2  501    0 -0.19307817121E+02 -0.74028141134E+01  0.38362730141E+02  0.43580873358E+02  0.00000000000E+00 0. -1.
         -4    1    1    2    0  503  0.19307817121E+02  0.74028141134E+01  0.29230112644E+02  0.35804929045E+02  0.00000000000E+00 0.  1.
<mgrwt>
<rscale>  2 0.20678333E+02</rscale>
<asrwt>0</asrwt>
<pdfrwt beam="1">  1       21 0.11306049E-01 0.20678333E+02</pdfrwt>
<pdfrwt beam="2">  1       21 0.90715079E-03 0.20678333E+02</pdfrwt>
<totfact> 0.18231723E+08</totfact>
</mgrwt>
</event>
<event>
 4    1  0.3862688E+004  0.2073511E+02  0.7546771E-02  0.1731093E+00
         21   -1    0    0  501  502  0.00000000000E+00  0.00000000000E+00  0.90761178655E+03  0.90761178655E+03  0.00000000000E+00 0. -1.
         21   -1    0    0  502  503 -0.00000000000E+00 -0.00000000000E+00 -0.47515744119E+00  0.47515744119E+00  0.00000000000E+00 0. -1.
          4    1    1    2  501    0 -0.47677331898E+01  0.20179532528E+02  0.47862788434E+03  0.47907681688E+03  0.00000000000E+00 0.  1.
         -4    1    1    2    0  503  0.47677331898E+01 -0.20179532528E+02  0.42850874478E+03  0.42901012711E+03  0.00000000000E+00 0. -1.
<mgrwt>
<rscale>  2 0.20735111E+02</rscale>
<asrwt>0</asrwt>
<pdfrwt beam="1">  1       21 0.13963120E+00 0.20735111E+02</pdfrwt>
<pdfrwt beam="2">  1       21 0.73101871E-04 0.20735111E+02</pdfrwt>
<totfact> 0.57053290E+07</totfact>
</mgrwt>
</event>
<event>
 4    1  0.3862688E+004  0.2748276E+02  0.7546771E-02  0.1627705E+00
         21   -1    0    0  503  502  0.00000000000E+00  0.00000000000E+00  0.14419938532E+02  0.14419938532E+02  0.00000000000E+00 0. -1.
         21   -1    0    0  501  503 -0.00000000000E+00 -0.00000000000E+00 -0.59610491330E+02  0.59610491330E+02  0.00000000000E+00 0. -1.
          4    1    1    2  501    0 -0.18666698283E+02  0.20170678666E+02 -0.35487652899E+02  0.44885135746E+02  0.00000000000E+00 0.  1.
         -4    1    1    2    0  502  0.18666698283E+02 -0.20170678666E+02 -0.97028998997E+01  0.29145294116E+02  0.00000000000E+00 0. -1.
<mgrwt>
<rscale>  2 0.27482756E+02</rscale>
<asrwt>0</asrwt>
<pdfrwt beam="1">  1       21 0.22184520E-02 0.27482756E+02</pdfrwt>
<pdfrwt beam="2">  1       21 0.91708450E-02 0.27482756E+02</pdfrwt>
<totfact> 0.71781005E+07</totfact>
</mgrwt>
</event>
<event>
 4    1  0.3862688E+004  0.2197801E+02  0.7546771E-02  0.1708633E+00
         21   -1    0    0  503  502  0.00000000000E+00  0.00000000000E+00  0.50138074654E+00  0.50138074654E+00  0.00000000000E+00 0.  1.
         21   -1    0    0  501  503 -0.00000000000E+00 -0.00000000000E+00 -0.96763259803E+03  0.96763259803E+03  0.00000000000E+00 0.  1.
          5    1    1    2  501    0 -0.87804434699E+01  0.20147873144E+02 -0.51555973538E+03  0.51602797766E+03  0.00000000000E+00 0. -1.
         -5    1    1    2    0  502  0.87804434699E+01 -0.20147873144E+02 -0.45157148190E+03  0.45210600112E+03  0.00000000000E+00 0.  1.
<mgrwt>
<rscale>  2 0.21978011E+02</rscale>
<asrwt>0</asrwt>
<pdfrwt beam="1">  1       21 0.77136306E-04 0.21978011E+02</pdfrwt>
<pdfrwt beam="2">  1       21 0.14886500E+00 0.21978011E+02</pdfrwt>
<totfact> 0.46088380E+07</totfact>
</mgrwt>
</event>
<event>
 4    1  0.3862688E+004  0.2010054E+02  0.7546771E-02  0.1743336E+00
         21   -1    0    0  501  502  0.00000000000E+00  0.00000000000E+00  0.18805462125E+02  0.18805462125E+02  0.00000000000E+00 0.  1.
         21   -1    0    0  502  503 -0.00000000000E+00 -0.00000000000E+00 -0.21530358334E+02  0.21530358334E+02  0.00000000000E+00 0.  1.
          4    1    1    2  501    0 -0.66412540139E+01 -0.18971700689E+02 -0.43477158572E+00  0.20105240816E+02  0.00000000000E+00 0. -1.
         -4    1    1    2    0  503  0.66412540139E+01  0.18971700689E+02 -0.22901246242E+01  0.20230579644E+02  0.00000000000E+00 0.  1.
<mgrwt>
<rscale>  2 0.20100539E+02</rscale>
<asrwt>0</asrwt>
<pdfrwt beam="1">  1       21 0.28931480E-02 0.20100539E+02</pdfrwt>
<pdfrwt beam="2">  1       21 0.33123628E-02 0.20100539E+02</pdfrwt>
<totfact> 0.22219560E+08</totfact>
</mgrwt>
</event>
<event>
 4    1  0.3862688E+004  0.2184920E+02  0.7546771E-02  0.1710873E+00
         21   -1    0    0  501  502  0.00000000000E+00  0.00000000000E+00  0.47341476736E+01  0.47341476736E+01  0.00000000000E+00 0. -1.
         21   -1    0    0  502  503 -0.00000000000E+00 -0.00000000000E+00 -0.10922078358E+03  0.10922078358E+03  0.00000000000E+00 0. -1.
          2    1    1    2  501    0  0.20598851308E+02  0.72852637771E+01 -0.36459462715E+02  0.42505060463E+02  0.00000000000E+00 0.  1.
         -2    1    1    2    0  503 -0.20598851308E+02 -0.72852637771E+01 -0.68027173189E+02  0.71449870788E+02  0.00000000000E+00 0. -1.
<mgrwt>
<rscale>  2 0.21849205E+02</rscale>
<asrwt>0</asrwt>
<pdfrwt beam="1">  1       21 0.72833048E-03 0.21849205E+02</pdfrwt>
<pdfrwt beam="2">  1       21 0.16803196E-01 0.21849205E+02</pdfrwt>
<totfact> 0.13179267E+08</totfact>
</mgrwt>
</event>
<event>
 4    1  0.3862688E+004  0.2347106E+02  0.7546771E-02  0.1683986E+00
         21   -1    0    0  501  502  0.00000000000E+00  0.00000000000E+00  0.83001394376E+02  0.83001394376E+02  0.00000000000E+00 0. -1.
         21   -1    0    0  502  503 -0.00000000000E+00 -0.00000000000E+00 -0.72110916466E+01  0.72110916466E+01  0.00000000000E+00 0. -1.
          2    1    1    2  501    0  0.13830521791E+02  0.18963310104E+02  0.25169493731E+02  0.34415024012E+02  0.00000000000E+00 0. -1.
         -2    1    1    2    0  503 -0.13830521791E+02 -0.18963310104E+02  0.50620808999E+02  0.55797462011E+02  0.00000000000E+00 0.  1.
<mgrwt>
<rscale>  2 0.23471056E+02</rscale>
<asrwt>0</asrwt>
<pdfrwt beam="1">  1       21 0.12769445E-01 0.23471056E+02</pdfrwt>
<pdfrwt beam="2">  1       21 0.11093988E-02 0.23471056E+02</pdfrwt>
<totfact> 0.11424500E+08</totfact>
</mgrwt>
</event>
<event>
 4    1  0.3862688E+004  0.2807998E+02  0.7546771E-02  0.1620336E+00
         21   -1    0    0  503  502  0.00000000000E+00  0.00000000000E+00  0.17393727641E+02  0.17393727641E+02  0.00000000000E+00 0. -1.
         21   -1    0    0  501  503 -0.00000000000E+00 -0.00000000000E+00 -0.60787159154E+02  0.60787159154E+02  0.00000000000E+00 0. -1.
          5    1    1    2  501    0 -0.28071293113E+02  0.69849776950E+00 -0.19857855211E+01  0.28150110840E+02  0.00000000000E+00 0. -1.
         -5    1    1    2    0  502  0.28071293113E+02 -0.69849776950E+00 -0.41407645992E+02  0.50030775956E+02  0.00000000000E+00 0.  1.
<mgrwt>
<rscale>  2 0.28079982E+02</rscale>
<asrwt>0</asrwt>
<pdfrwt beam="1">  1       21 0.26759581E-02 0.28079982E+02</pdfrwt>
<pdfrwt beam="2">  1       21 0.93518706E-02 0.28079982E+02</pdfrwt>
<totfact> 0.52178375E+07</totfact>
</mgrwt>
</event>
<event>
 4    1  0.3862688E+004  0.2315791E+02  0.7546771E-02  0.1688963E+00
         21   -1    0    0  503  502  0.00000000000E+00  0.00000000000E+00  0.33322091218E+01  0.33322091218E+01  0.00000000000E+00 0. -1.
         21   -1    0    0  501  503 -0.00000000000E+00 -0.00000000000E+00 -0.17265078698E+03  0.17265078698E+03  0.00000000000E+00 0. -1.
          4    1    1    2  501    0  0.21555065131E+02 -0.84656815306E+01 -0.10757501133E+03  0.11003940957E+03  0.00000000000E+00 0.  1.
         -4    1    1    2    0  502 -0.21555065131E+02  0.84656815306E+01 -0.61743566523E+02  0.65943586523E+02  0.00000000000E+00 0. -1.
<mgrwt>
<rscale>  2 0.23157906E+02</rscale>
<asrwt>0</asrwt>
<pdfrwt beam="1">  1       21 0.51264755E-03 0.23157906E+02</pdfrwt>
<pdfrwt beam="2">  1       21 0.26561660E-01 0.23157906E+02</pdfrwt>
<totfact> 0.10100482E+08</totfact>
</mgrwt>
</event>
<event>
 4    1  0.3862688E+004  0.2428846E+02  0.7546771E-02  0.1671437E+00
         21   -1    0    0  503  502  0.00000000000E+00  0.00000000000E+00  0.13969312942E+02  0.13969312942E+02  0.00000000000E+00 0. -1.
         21   -1    0    0  501  503 -0.00000000000E+00 -0.00000000000E+00 -0.46099863001E+02  0.46099863001E+02  0.00000000000E+00 0. -1.
          5    1    1    2  501    0  0.90271425704E+01  0.22548614654E+02 -0.24766864821E+02  0.34689002852E+02  0.00000000000E+00 0.  1.
         -5    1    1    2    0  502 -0.90271425704E+01 -0.22548614654E+02 -0.73636852379E+01  0.25380173090E+02  0.00000000000E+00 0. -1.
<mgrwt>
<rscale>  2 0.24288461E+02</rscale>
<asrwt>0</asrwt>
<pdfrwt beam="1">  1       21 0.21491251E-02 0.24288461E+02</pdfrwt>
<pdfrwt beam="2">  1       21 0.70922866E-02 0.24288461E+02</pdfrwt>
<totfact> 0.11129584E+08</totfact>
</mgrwt>
</event>
<event>
 4    1  0.3862688E+004  0.2361466E+02  0.7546771E-02  0.1681736E+00
         21   -1    0    0  503  502  0.00000000000E+00  0.00000000000E+00  0.55214080031E+02  0.55214080031E+02  0.00000000000E+00 0.  1.
         21   -1    0    0  501  503 -0.00000000000E+00 -0.00000000000E+00 -0.14517478771E+02  0.14517478771E+02  0.00000000000E+00 0.  1.
          1    1    1    2  501    0  0.20062995070E+02  0.12455048444E+02  0.39581436485E+02  0.46090585993E+02  0.00000000000E+00 0.  1.
         -1    1    1    2    0  502 -0.20062995070E+02 -0.12455048444E+02  0.11151647754E+01  0.23640972810E+02  0.00000000000E+00 0. -1.
<mgrwt>
<rscale>  2 0.23614657E+02</rscale>
<asrwt>0</asrwt>
<pdfrwt beam="1">  1       21 0.84944737E-02 0.23614657E+02</pdfrwt>
<pdfrwt beam="2">  1       21 0.22334583E-02 0.23614657E+02</pdfrwt>
<totfact> 0.77522950E+07</totfact>
</mgrwt>
</event>
<event>
 4    1  0.3862688E+004  0.3516406E+02  0.7546771E-02  0.1547148E+00
         21   -1    0    0  501  502  0.00000000000E+00  0.00000000000E+00  0.57783350114E+02  0.57783350114E+02  0.00000000000E+00 0.  1.
         21   -1    0    0  502  503 -0.00000000000E+00 -0.00000000000E+00 -0.69596101559E+02  0.69596101559E+02  0.00000000000E+00 0.  1.
          3    1    1    2  501    0  0.35128912920E+02 -0.15719080946E+01 -0.58907728464E+02  0.68604896988E+02  0.00000000000E+00 0.  1.
         -3    1    1    2    0  503 -0.35128912920E+02  0.15719080946E+01  0.47094977019E+02  0.58774554685E+02  0.00000000000E+00 0. -1.
<mgrwt>
<rscale>  2 0.35164064E+02</rscale>
<asrwt>0</asrwt>
<pdfrwt beam="1">  1       21 0.88897462E-02 0.35164064E+02</pdfrwt>
<pdfrwt beam="2">  1       21 0.10707092E-01 0.35164064E+02</pdfrwt>
<totfact> 0.62628270E+06</totfact>
</mgrwt>
</event>
<event>
 4    1  0.3862688E+004  0.2700672E+02  0.7546771E-02  0.1633746E+00
         21   -1    0    0  501  502  0.00000000000E+00  0.00000000000E+00  0.13883900797E+03  0.13883900797E+03  0.00000000000E+00 0.  1.
         21   -1    0    0  502  503 -0.00000000000E+00 -0.00000000000E+00 -0.60889313610E+01  0.60889313610E+01  0.00000000000E+00 0.  1.
          2    1    1    2  501    0  0.23810976925E+02 -0.12743634856E+02  0.93219775208E+02  0.97053023349E+02  0.00000000000E+00 0. -1.
         -2    1    1    2    0  503 -0.23810976925E+02  0.12743634856E+02  0.39530301404E+02  0.47874915985E+02  0.00000000000E+00 0.  1.
<mgrwt>
<rscale>  2 0.27006719E+02</rscale>
<asrwt>0</asrwt>
<pdfrwt beam="1">  1       21 0.21359845E-01 0.27006719E+02</pdfrwt>
<pdfrwt beam="2">  1       21 0.93675877E-03 0.27006719E+02</pdfrwt>
<totfact> 0.62978225E+07</totfact>
</mgrwt>
</event>
<event>
 4    1  0.3862688E+004  0.2244334E+02  0.7546771E-02  0.1700696E+00
         21   -1    0    0  501  502  0.00000000000E+00  0.00000000000E+00  0.84237232820E+03  0.84237232820E+03  0.00000000000E+00 0. -1.
         21   -1    0    0  502  503 -0.00000000000E+00 -0.00000000000E+00 -0.70654217467E+00  0.70654217467E+00  0.00000000000E+00 0. -1.
          1    1    1    2  501    0  0.69067083159E+01  0.21354175906E+02  0.58608690580E+03  0.58651646575E+03  0.00000000000E+00 0. -1.
         -1    1    1    2    0  503 -0.69067083159E+01 -0.21354175906E+02  0.25557888023E+03  0.25656240462E+03  0.00000000000E+00 0.  1.
<mgrwt>
<rscale>  2 0.22443339E+02</rscale>
<asrwt>0</asrwt>
<pdfrwt beam="1">  1       21 0.12959494E+00 0.22443339E+02</pdfrwt>
<pdfrwt beam="2">  1       21 0.10869947E-03 0.22443339E+02</pdfrwt>
<totfact> 0.39265751E+07</totfact>
</mgrwt>
</event>
<event>
 4    1  0.3862688E+004  0.2018136E+02  0.7546771E-02  0.1741745E+00
         21   -1    0    0  503  502  0.00000000000E+00  0.00000000000E+00  0.11293148011E+02  0.11293148011E+02  0.00000000000E+00 0.  1.
         21   -1    0    0  501  503 -0.00000000000E+00 -0.00000000000E+00 -0.75539036821E+02  0.75539036821E+02  0.00000000000E+00 0.  1.
          1    1    1    2  501    0  0.84284705978E+01  0.18337068313E+02 -0.73803524034E+00  0.20194848030E+02  0.00000000000E+00 0.  1.
         -1    1    1    2    0  502 -0.84284705978E+01 -0.18337068313E+02 -0.63507853570E+02  0.66637336802E+02  0.00000000000E+00 0. -1.
<mgrwt>
<rscale>  2 0.20181358E+02</rscale>
<asrwt>0</asrwt>
<pdfrwt beam="1">  1       21 0.17374074E-02 0.20181358E+02</pdfrwt>
<pdfrwt beam="2">  1       21 0.11621390E-01 0.20181358E+02</pdfrwt>
<totfact> 0.65010432E+07</totfact>
</mgrwt>
</event>
<event>
 4    1  0.3862688E+004  0.3329905E+02  0.7546771E-02  0.1564246E+00
         21   -1    0    0  503  502  0.00000000000E+00  0.00000000000E+00  0.34101277375E+03  0.34101277375E+03  0.00000000000E+00 0.  1.
         21   -1    0    0  501  503 -0.00000000000E+00 -0.00000000000E+00 -0.34080088251E+01  0.34080088251E+01  0.00000000000E+00 0.  1.
          3    1    1    2  501    0  0.23223271400E+02 -0.23864333361E+02  0.13190615726E+03  0.13604433492E+03  0.00000000000E+00 0. -1.
         -3    1    1    2    0  502 -0.23223271400E+02  0.23864333361E+02  0.20569860767E+03  0.20837644765E+03  0.00000000000E+00 0.  1.
<mgrwt>
<rscale>  2 0.33299050E+02</rscale>
<asrwt>0</asrwt>
<pdfrwt beam="1">  1       21 0.52463477E-01 0.33299050E+02</pdfrwt>
<pdfrwt beam="2">  1       21 0.52430932E-03 0.33299050E+02</pdfrwt>
<totfact> 0.29320158E+07</totfact>
</mgrwt>
</event>
<event>
 4    1  0.3862688E+004  0.2136491E+02  0.7546771E-02  0.1719473E+00
         21   -1    0    0  503  502  0.00000000000E+00  0.00000000000E+00  0.94728617621E+02  0.94728617621E+02  0.00000000000E+00 0. -1.
         21   -1    0    0  501  503 -0.00000000000E+00 -0.00000000000E+00 -0.87544913501E+01  0.87544913501E+01  0.00000000000E+00 0. -1.
          2    1    1    2  501    0 -0.33134402394E+01 -0.21106408302E+02  0.82937688420E+01  0.22918245117E+02  0.00000000000E+00 0. -1.
         -2    1    1    2    0  502  0.33134402394E+01  0.21106408302E+02  0.77680357429E+02  0.80564863855E+02  0.00000000000E+00 0.  1.
<mgrwt>
<rscale>  2 0.21364909E+02</rscale>
<asrwt>0</asrwt>
<pdfrwt beam="1">  1       21 0.14573633E-01 0.21364909E+02</pdfrwt>
<pdfrwt beam="2">  1       21 0.13468449E-02 0.21364909E+02</pdfrwt>
<totfact> 0.66442769E+07</totfact>
</mgrwt>
</event>
<event>
 4    1  0.3862688E+004  0.2306348E+02  0.7546771E-02  0.1690483E+00
         21   -1    0    0  503  502  0.00000000000E+00  0.00000000000E+00  0.85045652006E+01  0.85045652006E+01  0.00000000000E+00 0. -1.
         21   -1    0    0  501  503 -0.00000000000E+00 -0.00000000000E+00 -0.68464477515E+02  0.68464477515E+02  0.00000000000E+00 0. -1.
          5    1    1    2  501    0  0.19607871286E+02  0.12143126334E+02 -0.18664585062E+02  0.29669696140E+02  0.00000000000E+00 0. -1.
         -5    1    1    2    0  502 -0.19607871286E+02 -0.12143126334E+02 -0.41295327253E+02  0.47299346575E+02  0.00000000000E+00 0.  1.
<mgrwt>
<rscale>  2 0.23063481E+02</rscale>
<asrwt>0</asrwt>
<pdfrwt beam="1">  1       21 0.13083946E-02 0.23063481E+02</pdfrwt>
<pdfrwt beam="2">  1       21 0.10532997E-01 0.23063481E+02</pdfrwt>
<totfact> 0.12222554E+08</totfact>
</mgrwt>
</event>
<event>
 4    1  0.3862688E+004  0.2019670E+02  0.7546771E-02  0.1741445E+00
         21   -1    0    0  501  502  0.00000000000E+00  0.00000000000E+00  0.47070317554E+02  0.47070317554E+02  0.00000000000E+00 0.  1.
         21   -1    0    0  502  503 -0.00000000000E+00 -0.00000000000E+00 -0.93517074176E+01  0.93517074176E+01  0.00000000000E+00 0.  1.
          3    1    1    2  501    0 -0.84045941323E+01 -0.18364895540E+02  0.11219631440E+02  0.23103824800E+02  0.00000000000E+00 0.  1.
         -3    1    1    2    0  503  0.84045941323E+01  0.18364895540E+02  0.26498978696E+02  0.33318200172E+02  0.00000000000E+00 0. -1.
<mgrwt>
<rscale>  2 0.20196698E+02</rscale>
<asrwt>0</asrwt>
<pdfrwt beam="1">  1       21 0.72415872E-02 0.20196698E+02</pdfrwt>
<pdfrwt beam="2">  1       21 0.14387242E-02 0.20196698E+02</pdfrwt>
<totfact> 0.18767716E+08</totfact>
</mgrwt>
</event>
<event>
 4    1  0.3862688E+004  0.3301056E+02  0.7546771E-02  0.1567012E+00
         21   -1    0    0  501  502  0.00000000000E+00  0.00000000000E+00  0.44291533484E+02  0.44291533484E+02  0.00000000000E+00 0. -1.
         21   -1    0    0  502  503 -0.00000000000E+00 -0.00000000000E+00 -0.25191602741E+02  0.25191602741E+02  0.00000000000E+00 0. -1.
          2    1    1    2  501    0 -0.19699850059E+02 -0.26487983577E+02  0.42387625430E+01  0.33281593625E+02  0.00000000000E+00 0. -1.
         -2    1    1    2    0  503  0.19699850059E+02  0.26487983577E+02  0.14861168199E+02  0.36201542600E+02  0.00000000000E+00 0.  1.
<mgrwt>
<rscale>  2 0.33010564E+02</rscale>
<asrwt>0</asrwt>
<pdfrwt beam="1">  1       21 0.68140821E-02 0.33010564E+02</pdfrwt>
<pdfrwt beam="2">  1       21 0.38756312E-02 0.33010564E+02</pdfrwt>
<totfact> 0.50816326E+07</totfact>
</mgrwt>
</event>
<event>
 4    1  0.3862688E+004  0.2200885E+02  0.7546771E-02  0.1708099E+00
         21   -1    0    0  503  502  0.00000000000E+00  0.00000000000E+00  0.15884511554E+01  0.15884511554E+01  0.00000000000E+00 0.  1.
         21   -1    0    0  501  503 -0.00000000000E+00 -0.00000000000E+00 -0.33384758109E+03  0.33384758109E+03  0.00000000000E+00 0.  1.
          2    1    1    2  501    0 -0.16139358147E+02 -0.14963643289E+02 -0.11678067441E+03  0.11883650709E+03  0.00000000000E+00 0. -1.
         -2    1    1    2    0  502  0.16139358147E+02  0.14963643289E+02 -0.21547845552E+03  0.21659952515E+03  0.00000000000E+00 0.  1.
<mgrwt>
<rscale>  2 0.22008851E+02</rscale>
<asrwt>0</asrwt>
<pdfrwt beam="1">  1       21 0.24437720E-03 0.22008851E+02</pdfrwt>
<pdfrwt beam="2">  1       21 0.51361145E-01 0.22008851E+02</pdfrwt>
<totfact> 0.85994668E+07</totfact>
</mgrwt>
</event>
<event>
 4    1  0.3862688E+004  0.2152493E+02  0.7546771E-02  0.1716600E+00
         21   -1    0    0  503  502  0.00000000000E+00  0.00000000000E+00  0.13371235317E+03  0.13371235317E+03  0.00000000000E+00 0.  1.
         21   -1    0    0  501  503 -0.00000000000E+00 -0.00000000000E+00 -0.42806511352E+01  0.42806511352E+01  0.00000000000E+00 0.  1.
          2    1    1    2  501    0  0.16687266293E+01  0.21460147424E+02  0.94832449363E+02  0.97244619534E+02  0.00000000000E+00 0.  1.
         -2    1    1    2    0  502 -0.16687266293E+01 -0.21460147424E+02  0.34599252669E+02  0.40748384769E+02  0.00000000000E+00 0. -1.
<mgrwt>
<rscale>  2 0.21524929E+02</rscale>
<asrwt>0</asrwt>
<pdfrwt beam="1">  1       21 0.20571128E-01 0.21524929E+02</pdfrwt>
<pdfrwt beam="2">  1       21 0.65856181E-03 0.21524929E+02</pdfrwt>
<totfact> 0.10739950E+08</totfact>
</mgrwt>
</event>
<event>
 4    1  0.3862688E+004  0.2378833E+02  0.7546771E-02  0.1679041E+00
         21   -1    0    0  501  502  0.00000000000E+00  0.00000000000E+00  0.97107013009E+01  0.97107013009E+01  0.00000000000E+00 0. -1.
         21   -1    0    0  502  503 -0.00000000000E+00 -0.00000000000E+00 -0.12566536236E+03  0.12566536236E+03  0.00000000000E+00 0. -1.
          1    1    1    2  501    0 -0.96965681008E+01  0.21722371648E+02 -0.84089119146E+01  0.25230827623E+02  0.00000000000E+00 0. -1.
         -1    1    1    2    0  503  0.96965681008E+01 -0.21722371648E+02 -0.10754574915E+03  0.11014523604E+03  0.00000000000E+00 0.  1.
<mgrwt>
<rscale>  2 0.23788335E+02</rscale>
<asrwt>0</asrwt>
<pdfrwt beam="1">  1       21 0.14939541E-02 0.23788335E+02</pdfrwt>
<pdfrwt beam="2">  1       21 0.19333132E-01 0.23788335E+02</pdfrwt>
<totfact> 0.35920473E+07</totfact>
</mgrwt>
</event>
<event>
 4    1  0.3862688E+004  0.2390765E+02  0.7546771E-02  0.1677206E+00
         21   -1    0    0  503  502  0.00000000000E+00  0.00000000000E+00  0.88005941026E+02  0.88005941026E+02  0.00000000000E+00 0.  1.
         21   -1    0    0  501  503 -0.00000000000E+00 -0.00000000000E+00 -0.70447046438E+01  0.70447046438E+01  0.00000000000E+00 0.  1.
          5    1    1    2  501    0 -0.22148979605E+02  0.89999124300E+01  0.27201751991E+02  0.36214790247E+02  0.00000000000E+00 0.  1.
         -5    1    1    2    0  502  0.22148979605E+02 -0.89999124300E+01  0.53759484391E+02  0.58835855423E+02  0.00000000000E+00 0. -1.
<mgrwt>
<rscale>  2 0.23907650E+02</rscale>
<asrwt>0</asrwt>
<pdfrwt beam="1">  1       21 0.13539375E-01 0.23907650E+02</pdfrwt>
<pdfrwt beam="2">  1       21 0.10838008E-02 0.23907650E+02</pdfrwt>
<totfact> 0.10776508E+08</totfact>
</mgrwt>
</event>
<event>
 4    1  0.3862688E+004  0.2445076E+02  0.7546771E-02  0.1669019E+00
         21   -1    0    0  501  502  0.00000000000E+00  0.00000000000E+00  0.14295131138E+02  0.14295131138E+02  0.00000000000E+00 0.  1.
         21   -1    0    0  502  503 -0.00000000000E+00 -0.00000000000E+00 -0.43066068438E+02  0.43066068438E+02  0.00000000000E+00 0.  1.
          4    1    1    2  501    0  0.21628046631E+02 -0.11404694025E+02 -0.19261690547E+02  0.31126390244E+02  0.00000000000E+00 0.  1.
         -4    1    1    2    0  503 -0.21628046631E+02  0.11404694025E+02 -0.95092467520E+01  0.26234809332E+02  0.00000000000E+00 0. -1.
<mgrwt>
<rscale>  2 0.24450756E+02</rscale>
<asrwt>0</asrwt>
<pdfrwt beam="1">  1       21 0.21992510E-02 0.24450756E+02</pdfrwt>
<pdfrwt beam="2">  1       21 0.66255489E-02 0.24450756E+02</pdfrwt>
<totfact> 0.12017249E+08</totfact>
</mgrwt>
</event>
<event>
 4    1  0.3862688E+004  0.2008965E+02  0.7546771E-02  0.1743551E+00
         21   -1    0    0  503  502  0.00000000000E+00  0.00000000000E+00  0.11073939386E+01  0.11073939386E+01  0.00000000000E+00 0. -1.
         21   -1    0    0  501  503 -0.00000000000E+00 -0.00000000000E+00 -0.38167030134E+03  0.38167030134E+03  0.00000000000E+00 0. -1.
          3    1    1    2  501    0  0.12614386504E+02 -0.15635575810E+02 -0.14963297104E+03  0.15097556094E+03  0.00000000000E+00 0. -1.
         -3    1    1    2    0  502 -0.12614386504E+02  0.15635575810E+02 -0.23092993636E+03  0.23180213434E+03  0.00000000000E+00 0.  1.
<mgrwt>
<rscale>  2 0.20089649E+02</rscale>
<asrwt>0</asrwt>
<pdfrwt beam="1">  1       21 0.17036822E-03 0.20089649E+02</pdfrwt>
<pdfrwt beam="2">  1       21 0.58718536E-01 0.20089649E+02</pdfrwt>
<totfact> 0.10849467E+08</totfact>
</mgrwt>
</event>
<event>
 4    1  0.3862688E+004  0.4040353E+02  0.7546771E-02  0.1505263E+00
         21   -1    0    0  501  502  0.00000000000E+00  0.00000000000E+00  0.13035071128E+02  0.13035071128E+02  0.00000000000E+00 0.  1.
         21   -1    0    0  502  503 -0.00000000000E+00 -0.00000000000E+00 -0.14289329500E+03  0.14289329500E+03  0.00000000000E+00 0.  1.
          2    1    1    2  501    0 -0.39700144602E+02 -0.75062687322E+01 -0.92336338044E+02  0.10078911090E+03  0.00000000000E+00 0.  1.
         -2    1    1    2    0  503  0.39700144602E+02  0.75062687322E+01 -0.37521885832E+02  0.55139255237E+02  0.00000000000E+00 0. -1.
<mgrwt>
<rscale>  2 0.40403534E+02</rscale>
<asrwt>0</asrwt>
<pdfrwt beam="1">  1       21 0.20053953E-02 0.40403534E+02</pdfrwt>
<pdfrwt beam="2">  1       21 0.21983586E-01 0.40403534E+02</pdfrwt>
<totfact> 0.20106438E+07</totfact>
</mgrwt>
</event>
<event>
 4    1  0.3862688E+004  0.3169035E+02  0.7546771E-02  0.1580122E+00
         21   -1    0    0  503  502  0.00000000000E+00  0.00000000000E+00  0.15606607240E+03  0.15606607240E+03  0.00000000000E+00 0.  1.
         21   -1    0    0  501  503 -0.00000000000E+00 -0.00000000000E+00 -0.68341330623E+01  0.68341330623E+01  0.00000000000E+00 0.  1.
          1    1    1    2  501    0 -0.38515674336E+01 -0.31455427009E+02  0.54931116317E+02  0.63416922031E+02  0.00000000000E+00 0. -1.
         -1    1    1    2    0  502  0.38515674336E+01  0.31455427009E+02  0.94300823022E+02  0.99483283433E+02  0.00000000000E+00 0.  1.
<mgrwt>
<rscale>  2 0.31690353E+02</rscale>
<asrwt>0</asrwt>
<pdfrwt beam="1">  1       21 0.24010162E-01 0.31690353E+02</pdfrwt>
<pdfrwt beam="2">  1       21 0.10514052E-02 0.31690353E+02</pdfrwt>
<totfact> 0.44453130E+07</totfact>
</mgrwt>
</event>
<event>
 4    1  0.3862688E+004  0.2409111E+02  0.7546771E-02  0.1674411E+00
         21   -1    0    0  503  502  0.00000000000E+00  0.00000000000E+00  0.73571349167E+01  0.73571349167E+01  0.00000000000E+00 0.  1.
         21   -1    0    0  501  503 -0.00000000000E+00 -0.00000000000E+00 -0.11855539150E+03  0.11855539150E+03  0.00000000000E+00 0.  1.
          5    1    1    2  501    0  0.11196350956E+02 -0.21331272525E+02 -0.92015880257E+02  0.95117315363E+02  0.00000000000E+00 0. -1.
         -5    1    1    2    0  502 -0.11196350956E+02  0.21331272525E+02 -0.19182376323E+02  0.30795211051E+02  0.00000000000E+00 0.  1.
<mgrwt>
<rscale>  2 0.24091108E+02</rscale>
<asrwt>0</asrwt>
<pdfrwt beam="1">  1       21 0.11318670E-02 0.24091108E+02</pdfrwt>
<pdfrwt beam="2">  1       21 0.18239290E-01 0.24091108E+02</pdfrwt>
<totfact> 0.60723673E+07</totfact>
</mgrwt>
</event>
<event>
 4    1  0.3862688E+004  0.2124132E+02  0.7546771E-02  0.1721713E+00
         21   -1    0    0  501  502  0.00000000000E+00  0.00000000000E+00  0.33650452901E+02  0.33650452901E+02  0.00000000000E+00 0. -1.
         21   -1    0    0  502  503 -0.00000000000E+00 -0.00000000000E+00 -0.13477579700E+02  0.13477579700E+02  0.00000000000E+00 0. -1.
          5    1    1    2  501    0 -0.20933156048E+02  0.36050714938E+01  0.83963287390E+01  0.22840575713E+02  0.00000000000E+00 0. -1.
         -5    1    1    2    0  503  0.20933156048E+02 -0.36050714938E+01  0.11776544462E+02  0.24287456888E+02  0.00000000000E+00 0.  1.
<mgrwt>
<rscale>  2 0.21241317E+02</rscale>
<asrwt>0</asrwt>
<pdfrwt beam="1">  1       21 0.51769928E-02 0.21241317E+02</pdfrwt>
<pdfrwt beam="2">  1       21 0.20734738E-02 0.21241317E+02</pdfrwt>
<totfact> 0.18723267E+08</totfact>
</mgrwt>
</event>
<event>
 4    1  0.3862688E+004  0.2648590E+02  0.7546771E-02  0.1640533E+00
         21   -1    0    0  503  502  0.00000000000E+00  0.00000000000E+00  0.26162116623E+02  0.26162116623E+02  0.00000000000E+00 0.  1.
         21   -1    0    0  501  503 -0.00000000000E+00 -0.00000000000E+00 -0.27696852352E+02  0.27696852352E+02  0.00000000000E+00 0.  1.
          2    1    1    2  501    0 -0.15798342055E+02 -0.21258293899E+02  0.40414144052E+01  0.26792456057E+02  0.00000000000E+00 0.  1.
         -2    1    1    2    0  502  0.15798342055E+02  0.21258293899E+02 -0.55761501342E+01  0.27066512917E+02  0.00000000000E+00 0. -1.
<mgrwt>
<rscale>  2 0.26485896E+02</rscale>
<asrwt>0</asrwt>
<pdfrwt beam="1">  1       21 0.40249410E-02 0.26485896E+02</pdfrwt>
<pdfrwt beam="2">  1       21 0.42610542E-02 0.26485896E+02</pdfrwt>
<totfact> 0.96867502E+07</totfact>
</mgrwt>
</event>
<event>
 4    1  0.3862688E+004  0.2164192E+02  0.7546771E-02  0.1714519E+00
         21   -1    0    0  503  502  0.00000000000E+00  0.00000000000E+00  0.89830687685E+02  0.89830687685E+02  0.00000000000E+00 0.  1.
         21   -1    0    0  501  503 -0.00000000000E+00 -0.00000000000E+00 -0.54559053810E+01  0.54559053810E+01  0.00000000000E+00 0.  1.
          1    1    1    2  501    0 -0.14863506554E+02  0.15730505462E+02  0.52220531311E+02  0.56527484639E+02  0.00000000000E+00 0.  1.
         -1    1    1    2    0  502  0.14863506554E+02 -0.15730505462E+02  0.32154250993E+02  0.38759108427E+02  0.00000000000E+00 0. -1.
<mgrwt>
<rscale>  2 0.21641918E+02</rscale>
<asrwt>0</asrwt>
<pdfrwt beam="1">  1       21 0.13820105E-01 0.21641918E+02</pdfrwt>
<pdfrwt beam="2">  1       21 0.83937012E-03 0.21641918E+02</pdfrwt>
<totfact> 0.14834384E+08</totfact>
</mgrwt>
</event>
<event>
 4    1  0.3862688E+004  0.2232449E+02  0.7546771E-02  0.1702700E+00
         21   -1    0    0  501  502  0.00000000000E+00  0.00000000000E+00  0.55730553454E+03  0.55730553454E+03  0.00000000000E+00 0. -1.
         21   -1    0    0  502  503 -0.00000000000E+00 -0.00000000000E+00 -0.44885562466E+01  0.44885562466E+01  0.00000000000E+00 0. -1.
          2    1    1    2  501    0 -0.20486159361E+02  0.88713093085E+01  0.25046252549E+02  0.33551417571E+02  0.00000000000E+00 0.  1.
         -2    1    1    2    0  503  0.20486159361E+02 -0.88713093085E+01  0.52777072575E+03  0.52824267322E+03  0.00000000000E+00 0. -1.
<mgrwt>
<rscale>  2 0.22324490E+02</rscale>
<asrwt>0</asrwt>
<pdfrwt beam="1">  1       21 0.85739258E-01 0.22324490E+02</pdfrwt>
<pdfrwt beam="2">  1       21 0.69054755E-03 0.22324490E+02</pdfrwt>
<totfact> 0.66437447E+06</totfact>
</mgrwt>
</event>
<event>
 4    1  0.3862688E+004  0.2206966E+02  0.7546771E-02  0.1707050E+00
         21   -1    0    0  503  502  0.00000000000E+00  0.00000000000E+00  0.14730136062E+01  0.14730136062E+01  0.00000000000E+00 0. -1.
         21   -1    0    0  501  503 -0.00000000000E+00 -0.00000000000E+00 -0.33335027113E+03  0.33335027113E+03  0.00000000000E+00 0. -1.
          2    1    1    2  501    0 -0.31566348475E+01 -0.21842746456E+02 -0.18097198026E+03  0.18231271913E+03  0.00000000000E+00 0. -1.
         -2    1    1    2    0  502  0.31566348475E+01  0.21842746456E+02 -0.15090527726E+03  0.15251056561E+03  0.00000000000E+00 0.  1.
<mgrwt>
<rscale>  2 0.22069661E+02</rscale>
<asrwt>0</asrwt>
<pdfrwt beam="1">  1       21 0.22661736E-03 0.22069661E+02</pdfrwt>
<pdfrwt beam="2">  1       21 0.51284685E-01 0.22069661E+02</pdfrwt>
<totfact> 0.96263079E+07</totfact>
</mgrwt>
</event>
<event>
 4    1  0.3862688E+004  0.2115854E+02  0.7546771E-02  0.1723225E+00
         21   -1    0    0  501  502  0.00000000000E+00  0.00000000000E+00  0.38484086964E+02  0.38484086964E+02  0.00000000000E+00 0. -1.
         21   -1    0    0  502  503 -0.00000000000E+00 -0.00000000000E+00 -0.12912485988E+02  0.12912485988E+02  0.00000000000E+00 0. -1.
          2    1    1    2  501    0 -0.21065876593E+02  0.19780060307E+01  0.46962464031E+01  0.21673449074E+02  0.00000000000E+00 0.  1.
         -2    1    1    2    0  503  0.21065876593E+02 -0.19780060307E+01  0.20875354573E+02  0.29723123877E+02  0.00000000000E+00 0. -1.
<mgrwt>
<rscale>  2 0.21158536E+02</rscale>
<asrwt>0</asrwt>
<pdfrwt beam="1">  1       21 0.59206287E-02 0.21158536E+02</pdfrwt>
<pdfrwt beam="2">  1       21 0.19865363E-02 0.21158536E+02</pdfrwt>
<totfact> 0.16120412E+08</totfact>
</mgrwt>
</event>
<event>
 4    1  0.3862688E+004  0.4289773E+02  0.7546771E-02  0.1487909E+00
         21   -1    0    0  503  502  0.00000000000E+00  0.00000000000E+00  0.17067806522E+02  0.17067806522E+02  0.00000000000E+00 0. -1.
         21   -1    0    0  501  503 -0.00000000000E+00 -0.00000000000E+00 -0.11107719042E+03  0.11107719042E+03  0.00000000000E+00 0. -1.
          2    1    1    2  501    0 -0.42856713561E+02 -0.18754829064E+01 -0.36029309391E+02  0.56020768190E+02  0.00000000000E+00 0.  1.
         -2    1    1    2    0  502  0.42856713561E+02  0.18754829064E+01 -0.57980074508E+02  0.72124228754E+02  0.00000000000E+00 0. -1.
<mgrwt>
<rscale>  2 0.42897731E+02</rscale>
<asrwt>0</asrwt>
<pdfrwt beam="1">  1       21 0.26258164E-02 0.42897731E+02</pdfrwt>
<pdfrwt beam="2">  1       21 0.17088799E-01 0.42897731E+02</pdfrwt>
<totfact> 0.20799186E+07</totfact>
</mgrwt>
</event>
<event>
 4    1  0.3862688E+004  0.2145218E+02  0.7546771E-02  0.1717902E+00
         21   -1    0    0  503  502  0.00000000000E+00  0.00000000000E+00  0.17535846265E+03  0.17535846265E+03  0.00000000000E+00 0.  1.
         21   -1    0    0  501  503 -0.00000000000E+00 -0.00000000000E+00 -0.41104447964E+01  0.41104447964E+01  0.00000000000E+00 0.  1.
          2    1    1    2  501    0 -0.36783448060E+00  0.21449021913E+02  0.31667581702E+02  0.38249595738E+02  0.00000000000E+00 0. -1.
         -2    1    1    2    0  502  0.36783448060E+00 -0.21449021913E+02  0.13958043615E+03  0.14121931171E+03  0.00000000000E+00 0.  1.
<mgrwt>
<rscale>  2 0.21452176E+02</rscale>
<asrwt>0</asrwt>
<pdfrwt beam="1">  1       21 0.26978219E-01 0.21452176E+02</pdfrwt>
<pdfrwt beam="2">  1       21 0.63237626E-03 0.21452176E+02</pdfrwt>
<totfact> 0.70563967E+07</totfact>
</mgrwt>
</event>
<event>
 4    1  0.3862688E+004  0.3096707E+02  0.7546771E-02  0.1587639E+00
         21   -1    0    0  503  502  0.00000000000E+00  0.00000000000E+00  0.18300698912E+03  0.18300698912E+03  0.00000000000E+00 0.  1.
         21   -1    0    0  501  503 -0.00000000000E+00 -0.00000000000E+00 -0.10077531492E+02  0.10077531492E+02  0.00000000000E+00 0.  1.
          1    1    1    2  501    0 -0.30879406766E+02  0.23284916768E+01  0.19576215354E+02  0.36635881909E+02  0.00000000000E+00 0. -1.
         -1    1    1    2    0  502  0.30879406766E+02 -0.23284916768E+01  0.15335324228E+03  0.15644863870E+03  0.00000000000E+00 0.  1.
<mgrwt>
<rscale>  2 0.30967073E+02</rscale>
<asrwt>0</asrwt>
<pdfrwt beam="1">  1       21 0.28154919E-01 0.30967073E+02</pdfrwt>
<pdfrwt beam="2">  1       21 0.15503896E-02 0.30967073E+02</pdfrwt>
<totfact> 0.18313039E+07</totfact>
</mgrwt>
</event>
<event>
 4    1  0.3862688E+004  0.3215078E+02  0.7546771E-02  0.1575463E+00
         21   -1    0    0  501  502  0.00000000000E+00  0.00000000000E+00  0.54395420329E+02  0.54395420329E+02  0.00000000000E+00 0. -1.
         21   -1    0    0  502  503 -0.00000000000E+00 -0.00000000000E+00 -0.21912414437E+02  0.21912414437E+02  0.00000000000E+00 0. -1.
          2    1    1    2  501    0  0.12934595825E+02 -0.29434147967E+02  0.30144274655E+02  0.44072101495E+02  0.00000000000E+00 0.  1.
         -2    1    1    2    0  503 -0.12934595825E+02  0.29434147967E+02  0.23387312374E+01  0.32235733271E+02  0.00000000000E+00 0. -1.
<mgrwt>
<rscale>  2 0.32150783E+02</rscale>
<asrwt>0</asrwt>
<pdfrwt beam="1">  1       21 0.83685262E-02 0.32150783E+02</pdfrwt>
<pdfrwt beam="2">  1       21 0.33711407E-02 0.32150783E+02</pdfrwt>
<totfact> 0.44949450E+07</totfact>
</mgrwt>
</event>
<event>
 4    1  0.3862688E+004  0.3449231E+02  0.7546771E-02  0.1553156E+00
         21   -1    0    0  503  502  0.00000000000E+00  0.00000000000E+00  0.82795643930E+02  0.82795643930E+02  0.00000000000E+00 0.  1.
         21   -1    0    0  501  503 -0.00000000000E+00 -0.00000000000E+00 -0.15223996447E+02  0.15223996447E+02  0.00000000000E+00 0.  1.
          4    1    1    2  501    0  0.32759872707E+02 -0.10793995367E+02  0.22173691097E+02  0.41004782314E+02  0.00000000000E+00 0. -1.
         -4    1    1    2    0  502 -0.32759872707E+02  0.10793995367E+02  0.45397956387E+02  0.57014858063E+02  0.00000000000E+00 0.  1.
<mgrwt>
<rscale>  2 0.34492312E+02</rscale>
<asrwt>0</asrwt>
<pdfrwt beam="1">  1       21 0.12737791E-01 0.34492312E+02</pdfrwt>
<pdfrwt beam="2">  1       21 0.23421533E-02 0.34492312E+02</pdfrwt>
<totfact> 0.39909514E+07</totfact>
</mgrwt>
</event>
<event>
 4    1  0.3862688E+004  0.2130708E+02  0.7546771E-02  0.1720519E+00
         21   -1    0    0  501  502  0.00000000000E+00  0.00000000000E+00  0.51689520284E+02  0.51689520284E+02  0.00000000000E+00 0.  1.
         21   -1    0    0  502  503 -0.00000000000E+00 -0.00000000000E+00 -0.96561621175E+01  0.96561621175E+01  0.00000000000E+00 0.  1.
          5    1    1    2  501    0 -0.13463433254E+02 -0.16514471613E+02  0.30239970669E+02  0.36992534837E+02  0.00000000000E+00 0. -1.
         -5    1    1    2    0  503  0.13463433254E+02  0.16514471613E+02  0.11793387498E+02  0.24353147565E+02  0.00000000000E+00 0.  1.
<mgrwt>
<rscale>  2 0.21307084E+02</rscale>
<asrwt>0</asrwt>
<pdfrwt beam="1">  1       21 0.79522337E-02 0.21307084E+02</pdfrwt>
<pdfrwt beam="2">  1       21 0.14855634E-02 0.21307084E+02</pdfrwt>
<totfact> 0.15624663E+08</totfact>
</mgrwt>
</event>
<event>
 4    1  0.3862688E+004  0.2045720E+02  0.7546771E-02  0.1736386E+00
         21   -1    0    0  501  502  0.00000000000E+00  0.00000000000E+00  0.14920430563E+02  0.14920430563E+02  0.00000000000E+00 0. -1.
         21   -1    0    0  502  503 -0.00000000000E+00 -0.00000000000E+00 -0.29357504762E+02  0.29357504762E+02  0.00000000000E+00 0. -1.
          2    1    1    2  501    0  0.19248337541E+02  0.69280942903E+01 -0.25438338780E+01  0.20614753925E+02  0.00000000000E+00 0. -1.
         -2    1    1    2    0  503 -0.19248337541E+02 -0.69280942903E+01 -0.11893240322E+02  0.23663181400E+02  0.00000000000E+00 0.  1.
<mgrwt>
<rscale>  2 0.20457199E+02</rscale>
<asrwt>0</asrwt>
<pdfrwt beam="1">  1       21 0.22954508E-02 0.20457199E+02</pdfrwt>
<pdfrwt beam="2">  1       21 0.45165392E-02 0.20457199E+02</pdfrwt>
<totfact> 0.19645826E+08</totfact>
</mgrwt>
</event>
<event>
 4    1  0.3862688E+004  0.2538117E+02  0.7546771E-02  0.1655587E+00
         21   -1    0    0  501  502  0.00000000000E+00  0.00000000000E+00  0.25340802806E+03  0.25340802806E+03  0.00000000000E+00 0.  1.
         21   -1    0    0  502  503 -0.00000000000E+00 -0.00000000000E+00 -0.25423886913E+01  0.25423886913E+01  0.00000000000E+00 0.  1.
          4    1    1    2  501    0 -0.91121237515E+01  0.23689091254E+02  0.12422002270E+03  0.12678650513E+03  0.00000000000E+00 0.  1.
         -4    1    1    2    0  503  0.91121237515E+01 -0.23689091254E+02  0.12664561667E+03  0.12916391162E+03  0.00000000000E+00 0. -1.
<mgrwt>
<rscale>  2 0.25381171E+02</rscale>
<asrwt>0</asrwt>
<pdfrwt beam="1">  1       21 0.38985831E-01 0.25381171E+02</pdfrwt>
<pdfrwt beam="2">  1       21 0.39113692E-03 0.25381171E+02</pdfrwt>
<totfact> 0.76065831E+07</totfact>
</mgrwt>
</event>
<event>
 4    1  0.3862688E+004  0.4531356E+02  0.7546771E-02  0.1472394E+00
         21   -1    0    0  501  502  0.00000000000E+00  0.00000000000E+00  0.91261107232E+03  0.91261107232E+03  0.00000000000E+00 0.  1.
         21   -1    0    0  502  503 -0.00000000000E+00 -0.00000000000E+00 -0.24741789998E+01  0.24741789998E+01  0.00000000000E+00 0.  1.
          3    1    1    2  501    0 -0.43799376376E+02 -0.11616067399E+02  0.59281268653E+03  0.59454200836E+03  0.00000000000E+00 0. -1.
         -3    1    1    2    0  503  0.43799376376E+02  0.11616067399E+02  0.31732420679E+03  0.32054324296E+03  0.00000000000E+00 0.  1.
<mgrwt>
<rscale>  2 0.45313556E+02</rscale>
<asrwt>0</asrwt>
<pdfrwt beam="1">  1       21 0.14040144E+00 0.45313556E+02</pdfrwt>
<pdfrwt beam="2">  1       21 0.38064365E-03 0.45313556E+02</pdfrwt>
<totfact> 0.57345380E+06</totfact>
</mgrwt>
</event>
<event>
 4    1  0.3862688E+004  0.2013197E+02  0.7546771E-02  0.1742716E+00
         21   -1    0    0  501  502  0.00000000000E+00  0.00000000000E+00  0.34460969832E+02  0.34460969832E+02  0.00000000000E+00 0.  1.
         21   -1    0    0  502  503 -0.00000000000E+00 -0.00000000000E+00 -0.12256026347E+02  0.12256026347E+02  0.00000000000E+00 0.  1.
          3    1    1    2  501    0 -0.17548177309E+02  0.98669972830E+01  0.64081227985E+01  0.21127238344E+02  0.00000000000E+00 0. -1.
         -3    1    1    2    0  503  0.17548177309E+02 -0.98669972830E+01  0.15796820686E+02  0.25589757835E+02  0.00000000000E+00 0.  1.
<mgrwt>
<rscale>  2 0.20131969E+02</rscale>
<asrwt>0</asrwt>
<pdfrwt beam="1">  1       21 0.53016877E-02 0.20131969E+02</pdfrwt>
<pdfrwt beam="2">  1       21 0.18855425E-02 0.20131969E+02</pdfrwt>
<totfact> 0.20486617E+08</totfact>
</mgrwt>
</event>
<event>
 4    1  0.3862688E+004  0.2051869E+02  0.7546771E-02  0.1735206E+00
         21   -1    0    0  501  502  0.00000000000E+00  0.00000000000E+00  0.17492579622E+02  0.17492579622E+02  0.00000000000E+00 0. -1.
         21   -1    0    0  502  503 -0.00000000000E+00 -0.00000000000E+00 -0.34777464146E+02  0.34777464146E+02  0.00000000000E+00 0. -1.
          1    1    1    2  501    0 -0.10859377181E+02 -0.17409494215E+02 -0.23145240570E+02  0.30930870059E+02  0.00000000000E+00 0. -1.
         -1    1    1    2    0  503  0.10859377181E+02  0.17409494215E+02  0.58603560460E+01  0.21339173709E+02  0.00000000000E+00 0.  1.
<mgrwt>
<rscale>  2 0.20518688E+02</rscale>
<asrwt>0</asrwt>
<pdfrwt beam="1">  1       21 0.26911661E-02 0.20518688E+02</pdfrwt>
<pdfrwt beam="2">  1       21 0.53503791E-02 0.20518688E+02</pdfrwt>
<totfact> 0.11772269E+08</totfact>
</mgrwt>
</event>
<event>
 4    1  0.3862688E+004  0.7666583E+02  0.7546771E-02  0.1338789E+00
         21   -1    0    0  503  502  0.00000000000E+00  0.00000000000E+00  0.25020128307E+01  0.25020128307E+01  0.00000000000E+00 0.  1.
         21   -1    0    0  501  503 -0.00000000000E+00 -0.00000000000E+00 -0.23843258442E+04  0.23843258442E+04  0.00000000000E+00 0.  1.
          3    1    1    2  501    0 -0.60493335018E+02 -0.47097834289E+02 -0.13358280383E+04  0.13380262320E+04  0.00000000000E+00 0. -1.
         -3    1    1    2    0  502  0.60493335018E+02  0.47097834289E+02 -0.10459957931E+04  0.10488016250E+04  0.00000000000E+00 0.  1.
<mgrwt>
<rscale>  2 0.76665831E+02</rscale>
<asrwt>0</asrwt>
<pdfrwt beam="1">  1       21 0.38492485E-03 0.76665831E+02</pdfrwt>
<pdfrwt beam="2">  1       21 0.36681955E+00 0.76665831E+02</pdfrwt>
<totfact> 0.26959718E+05</totfact>
</mgrwt>
</event>
<event>
 4    1  0.3862688E+004  0.2146228E+02  0.7546771E-02  0.1717721E+00
         21   -1    0    0  501  502  0.00000000000E+00  0.00000000000E+00  0.71937289737E+02  0.71937289737E+02  0.00000000000E+00 0.  1.
         21   -1    0    0  502  503 -0.00000000000E+00 -0.00000000000E+00 -0.66986605850E+01  0.66986605850E+01  0.00000000000E+00 0.  1.
          5    1    1    2  501    0 -0.21454615013E+02 -0.57360429465E+00  0.40876652387E+02  0.46168498326E+02  0.00000000000E+00 0.  1.
         -5    1    1    2    0  503  0.21454615013E+02  0.57360429465E+00  0.24361976765E+02  0.32467451997E+02  0.00000000000E+00 0. -1.
<mgrwt>
<rscale>  2 0.21462282E+02</rscale>
<asrwt>0</asrwt>
<pdfrwt beam="1">  1       21 0.11067275E-01 0.21462282E+02</pdfrwt>
<pdfrwt beam="2">  1       21 0.10305632E-02 0.21462282E+02</pdfrwt>
<totfact> 0.15788760E+08</totfact>
</mgrwt>
</event>
<event>
 4    1  0.3862688E+004  0.3577550E+02  0.7546771E-02  0.1541820E+00
         21   -1    0    0  501  502  0.00000000000E+00  0.00000000000E+00  0.48641751939E+02  0.48641751939E+02  0.00000000000E+00 0. -1.
         21   -1    0    0  502  503 -0.00000000000E+00 -0.00000000000E+00 -0.27111970717E+02  0.27111970717E+02  0.00000000000E+00 0. -1.
          3    1    1    2  501    0 -0.22132659356E+02  0.28107501752E+02  0.17269089132E+02  0.39725403766E+02  0.00000000000E+00 0. -1.
         -3    1    1    2    0  503  0.22132659356E+02 -0.28107501752E+02  0.42606920908E+01  0.36028318890E+02  0.00000000000E+00 0.  1.
<mgrwt>
<rscale>  2 0.35775498E+02</rscale>
<asrwt>0</asrwt>
<pdfrwt beam="1">  1       21 0.74833464E-02 0.35775498E+02</pdfrwt>
<pdfrwt beam="2">  1       21 0.41710724E-02 0.35775498E+02</pdfrwt>
<totfact> 0.39374111E+07</totfact>
</mgrwt>
</event>
<event>
 4    1  0.3862688E+004  0.2091864E+02  0.7546771E-02  0.1727654E+00
         21   -1    0    0  501  502  0.00000000000E+00  0.00000000000E+00  0.40340631048E+03  0.40340631048E+03  0.00000000000E+00 0.  1.
         21   -1    0    0  502  503 -0.00000000000E+00 -0.00000000000E+00 -0.10881489591E+01  0.10881489591E+01  0.00000000000E+00 0.  1.
          1    1    1    2  501    0  0.17334462985E+02 -0.11709217878E+02  0.18983254196E+03  0.19098163099E+03  0.00000000000E+00 0.  1.
         -1    1    1    2    0  503 -0.17334462985E+02  0.11709217878E+02  0.21248561956E+03  0.21351282844E+03  0.00000000000E+00 0. -1.
<mgrwt>
<rscale>  2 0.20918637E+02</rscale>
<asrwt>0</asrwt>
<pdfrwt beam="1">  1       21 0.62062390E-01 0.20918637E+02</pdfrwt>
<pdfrwt beam="2">  1       21 0.16740785E-03 0.20918637E+02</pdfrwt>
<totfact> 0.10073403E+08</totfact>
</mgrwt>
</event>
<event>
 4    1  0.3862688E+004  0.4883551E+02  0.7546771E-02  0.1451726E+00
         21   -1    0    0  501  502  0.00000000000E+00  0.00000000000E+00  0.11329906058E+02  0.11329906058E+02  0.00000000000E+00 0. -1.
         21   -1    0    0  502  503 -0.00000000000E+00 -0.00000000000E+00 -0.21299030212E+03  0.21299030212E+03  0.00000000000E+00 0. -1.
          1    1    1    2  501    0 -0.52455906288E+01 -0.48552966383E+02 -0.11296633027E+03  0.12307029918E+03  0.00000000000E+00 0. -1.
         -1    1    1    2    0  503  0.52455906288E+01  0.48552966383E+02 -0.88694065797E+02  0.10124990900E+03  0.00000000000E+00 0.  1.
<mgrwt>
<rscale>  2 0.48835507E+02</rscale>
<asrwt>0</asrwt>
<pdfrwt beam="1">  1       21 0.17430624E-02 0.48835507E+02</pdfrwt>
<pdfrwt beam="2">  1       21 0.32767739E-01 0.48835507E+02</pdfrwt>
<totfact> 0.12311132E+07</totfact>
</mgrwt>
</event>
<event>
 4    1  0.3862688E+004  0.2734835E+02  0.7546771E-02  0.1629396E+00
         21   -1    0    0  503  502  0.00000000000E+00  0.00000000000E+00  0.68411812395E+02  0.68411812395E+02  0.00000000000E+00 0.  1.
         21   -1    0    0  501  503 -0.00000000000E+00 -0.00000000000E+00 -0.14969724666E+02  0.14969724666E+02  0.00000000000E+00 0.  1.
          3    1    1    2  501    0  0.43438898496E+01 -0.27001164086E+02  0.48371081153E+02  0.55567020191E+02  0.00000000000E+00 0. -1.
         -3    1    1    2    0  502 -0.43438898496E+01  0.27001164086E+02  0.50710065767E+01  0.27814516870E+02  0.00000000000E+00 0.  1.
<mgrwt>
<rscale>  2 0.27348350E+02</rscale>
<asrwt>0</asrwt>
<pdfrwt beam="1">  1       21 0.10524894E-01 0.27348350E+02</pdfrwt>
<pdfrwt beam="2">  1       21 0.23030346E-02 0.27348350E+02</pdfrwt>
<totfact> 0.53797348E+07</totfact>
</mgrwt>
</event>
<event>
 4    1  0.3862688E+004  0.2867896E+02  0.7546771E-02  0.1613167E+00
         21   -1    0    0  503  502  0.00000000000E+00  0.00000000000E+00  0.15236804948E+02  0.15236804948E+02  0.00000000000E+00 0.  1.
         21   -1    0    0  501  503 -0.00000000000E+00 -0.00000000000E+00 -0.57208958378E+02  0.57208958378E+02  0.00000000000E+00 0.  1.
          2    1    1    2  501    0 -0.59156794173E+01  0.28062210149E+02 -0.29591682518E+02  0.41208622589E+02  0.00000000000E+00 0. -1.
         -2    1    1    2    0  502  0.59156794173E+01 -0.28062210149E+02 -0.12380470911E+02  0.31237140737E+02  0.00000000000E+00 0.  1.
<mgrwt>
<rscale>  2 0.28678963E+02</rscale>
<asrwt>0</asrwt>
<pdfrwt beam="1">  1       21 0.23441238E-02 0.28678963E+02</pdfrwt>
<pdfrwt beam="2">  1       21 0.88013782E-02 0.28678963E+02</pdfrwt>
<totfact> 0.71284276E+07</totfact>
</mgrwt>
</event>
<event>
 4    1  0.3862688E+004  0.3685558E+02  0.7546771E-02  0.1532714E+00
         21   -1    0    0  503  502  0.00000000000E+00  0.00000000000E+00  0.42801571007E+02  0.42801571007E+02  0.00000000000E+00 0.  1.
         21   -1    0    0  501  503 -0.00000000000E+00 -0.00000000000E+00 -0.31757261886E+02  0.31757261886E+02  0.00000000000E+00 0.  1.
          2    1    1    2  501    0 -0.20470984987E+02 -0.30647549070E+02  0.45484961826E+01  0.37135189616E+02  0.00000000000E+00 0.  1.
         -2    1    1    2    0  502  0.20470984987E+02  0.30647549070E+02  0.64958129385E+01  0.37423643276E+02  0.00000000000E+00 0. -1.
<mgrwt>
<rscale>  2 0.36855576E+02</rscale>
<asrwt>0</asrwt>
<pdfrwt beam="1">  1       21 0.65848571E-02 0.36855576E+02</pdfrwt>
<pdfrwt beam="2">  1       21 0.48857326E-02 0.36855576E+02</pdfrwt>
<totfact> 0.37888254E+07</totfact>
</mgrwt>
</event>
<event>
 4    1  0.3862688E+004  0.2575348E+02  0.7546771E-02  0.1650409E+00
         21   -1    0    0  501  502  0.00000000000E+00  0.00000000000E+00  0.13241279060E+02  0.13241279060E+02  0.00000000000E+00 0.  1.
         21   -1    0    0  502  503 -0.00000000000E+00 -0.00000000000E+00 -0.51190050479E+02  0.51190050479E+02  0.00000000000E+00 0.  1.
          4    1    1    2  501    0  0.16222410418E+02  0.20001875222E+02 -0.14249513498E+02  0.29432809025E+02  0.00000000000E+00 0. -1.
         -4    1    1    2    0  503 -0.16222410418E+02 -0.20001875222E+02 -0.23699257921E+02  0.34998520514E+02  0.00000000000E+00 0.  1.
<mgrwt>
<rscale>  2 0.25753478E+02</rscale>
<asrwt>0</asrwt>
<pdfrwt beam="1">  1       21 0.20371198E-02 0.25753478E+02</pdfrwt>
<pdfrwt beam="2">  1       21 0.78753924E-02 0.25753478E+02</pdfrwt>
<totfact> 0.10350772E+08</totfact>
</mgrwt>
</event>
<event>
 4    1  0.3862688E+004  0.2132366E+02  0.7546771E-02  0.1720218E+00
         21   -1    0    0  503  502  0.00000000000E+00  0.00000000000E+00  0.24852127245E+03  0.24852127245E+03  0.00000000000E+00 0. -1.
         21   -1    0    0  501  503 -0.00000000000E+00 -0.00000000000E+00 -0.18634257265E+01  0.18634257265E+01  0.00000000000E+00 0. -1.
          1    1    1    2  501    0  0.46610301835E+01  0.20808012910E+02  0.14019211604E+03  0.14180454155E+03  0.00000000000E+00 0.  1.
         -1    1    1    2    0  502 -0.46610301835E+01 -0.20808012910E+02  0.10646573068E+03  0.10858015663E+03  0.00000000000E+00 0. -1.
<mgrwt>
<rscale>  2 0.21323663E+02</rscale>
<asrwt>0</asrwt>
<pdfrwt beam="1">  1       21 0.38234016E-01 0.21323663E+02</pdfrwt>
<pdfrwt beam="2">  1       21 0.28668108E-03 0.21323663E+02</pdfrwt>
<totfact> 0.11873864E+08</totfact>
</mgrwt>
</event>
<event>
 4    1  0.3862688E+004  0.2593128E+02  0.7546771E-02  0.1647975E+00
         21   -1    0    0  501  502  0.00000000000E+00  0.00000000000E+00  0.88849833625E+02  0.88849833625E+02  0.00000000000E+00 0. -1.
         21   -1    0    0  502  503 -0.00000000000E+00 -0.00000000000E+00 -0.76378537998E+01  0.76378537998E+01  0.00000000000E+00 0. -1.
          3    1    1    2  501    0  0.43750516656E+01 -0.25559537512E+02  0.45213947579E+02  0.52122280174E+02  0.00000000000E+00 0.  1.
         -3    1    1    2    0  503 -0.43750516656E+01  0.25559537512E+02  0.35998032247E+02  0.44365407251E+02  0.00000000000E+00 0. -1.
<mgrwt>
<rscale>  2 0.25931275E+02</rscale>
<asrwt>0</asrwt>
<pdfrwt beam="1">  1       21 0.13669204E-01 0.25931275E+02</pdfrwt>
<pdfrwt beam="2">  1       21 0.11750545E-02 0.25931275E+02</pdfrwt>
<totfact> 0.95887502E+07</totfact>
</mgrwt>
</event>
<event>
 4    1  0.3862688E+004  0.2110775E+02  0.7546771E-02  0.1724156E+00
         21   -1    0    0  501  502  0.00000000000E+00  0.00000000000E+00  0.47958243201E+01  0.47958243201E+01  0.00000000000E+00 0. -1.
         21   -1    0    0  502  503 -0.00000000000E+00 -0.00000000000E+00 -0.10578799462E+03  0.10578799462E+03  0.00000000000E+00 0. -1.
          5    1    1    2  501    0 -0.20419592155E+02 -0.53457813227E+01 -0.69794354049E+02  0.72916314902E+02  0.00000000000E+00 0. -1.
         -5    1    1    2    0  503  0.20419592155E+02  0.53457813227E+01 -0.31197816254E+02  0.37667504042E+02  0.00000000000E+00 0.  1.
<mgrwt>
<rscale>  2 0.21107750E+02</rscale>
<asrwt>0</asrwt>
<pdfrwt beam="1">  1       21 0.73781918E-03 0.21107750E+02</pdfrwt>
<pdfrwt beam="2">  1       21 0.16275075E-01 0.21107750E+02</pdfrwt>
<totfact> 0.13516252E+08</totfact>
</mgrwt>
</event>
<event>
 4    1  0.3862688E+004  0.3286249E+02  0.7546771E-02  0.1568445E+00
         21   -1    0    0  503  502  0.00000000000E+00  0.00000000000E+00  0.14195542120E+02  0.14195542120E+02  0.00000000000E+00 0. -1.
         21   -1    0    0  501  503 -0.00000000000E+00 -0.00000000000E+00 -0.78444094674E+02  0.78444094674E+02  0.00000000000E+00 0. -1.
          1    1    1    2  501    0  0.21292410962E+02  0.25031506458E+02 -0.24076669339E+02  0.40738545465E+02  0.00000000000E+00 0.  1.
         -1    1    1    2    0  502 -0.21292410962E+02 -0.25031506458E+02 -0.40171883215E+02  0.51901091329E+02  0.00000000000E+00 0. -1.
<mgrwt>
<rscale>  2 0.32862487E+02</rscale>
<asrwt>0</asrwt>
<pdfrwt beam="1">  1       21 0.21839296E-02 0.32862487E+02</pdfrwt>
<pdfrwt beam="2">  1       21 0.12068322E-01 0.32862487E+02</pdfrwt>
<totfact> 0.48322728E+07</totfact>
</mgrwt>
</event>
<event>
 4    1  0.3862688E+004  0.4973162E+02  0.7546771E-02  0.1446795E+00
         21   -1    0    0  501  502  0.00000000000E+00  0.00000000000E+00  0.32114569287E+02  0.32114569287E+02  0.00000000000E+00 0. -1.
         21   -1    0    0  502  503 -0.00000000000E+00 -0.00000000000E+00 -0.92137709396E+02  0.92137709396E+02  0.00000000000E+00 0. -1.
          2    1    1    2  501    0 -0.41676189484E+02  0.27135379800E+02 -0.55182643474E+02  0.74285649675E+02  0.00000000000E+00 0.  1.
         -2    1    1    2    0  503  0.41676189484E+02 -0.27135379800E+02 -0.48404966350E+01  0.49966629009E+02  0.00000000000E+00 0. -1.
<mgrwt>
<rscale>  2 0.49731616E+02</rscale>
<asrwt>0</asrwt>
<pdfrwt beam="1">  1       21 0.49407029E-02 0.49731616E+02</pdfrwt>
<pdfrwt beam="2">  1       21 0.14175032E-01 0.49731616E+02</pdfrwt>
<totfact> 0.10659183E+07</totfact>
</mgrwt>
</event>
<event>
 4    1  0.3862688E+004  0.2548016E+02  0.7546771E-02  0.1654199E+00
         21   -1    0    0  501  502  0.00000000000E+00  0.00000000000E+00  0.59216249191E+02  0.59216249191E+02  0.00000000000E+00 0. -1.
         21   -1    0    0  502  503 -0.00000000000E+00 -0.00000000000E+00 -0.11286076306E+02  0.11286076306E+02  0.00000000000E+00 0. -1.
          1    1    1    2  501    0  0.22656225394E+02  0.11659070127E+02  0.29921406073E+02  0.39300496266E+02  0.00000000000E+00 0.  1.
         -1    1    1    2    0  503 -0.22656225394E+02 -0.11659070127E+02  0.18008766811E+02  0.31201829232E+02  0.00000000000E+00 0. -1.
<mgrwt>
<rscale>  2 0.25480158E+02</rscale>
<asrwt>0</asrwt>
<pdfrwt beam="1">  1       21 0.91101920E-02 0.25480158E+02</pdfrwt>
<pdfrwt beam="2">  1       21 0.17363195E-02 0.25480158E+02</pdfrwt>
<totfact> 0.10384755E+08</totfact>
</mgrwt>
</event>
<event>
 4    1  0.3862688E+004  0.2517251E+02  0.7546771E-02  0.1658536E+00
         21   -1    0    0  501  502  0.00000000000E+00  0.00000000000E+00  0.28604340049E+03  0.28604340049E+03  0.00000000000E+00 0. -1.
         21   -1    0    0  502  503 -0.00000000000E+00 -0.00000000000E+00 -0.23893948402E+01  0.23893948402E+01  0.00000000000E+00 0. -1.
          4    1    1    2  501    0 -0.24577679371E+02  0.54399434791E+01  0.18076164297E+03  0.18250596395E+03  0.00000000000E+00 0. -1.
         -4    1    1    2    0  503  0.24577679371E+02 -0.54399434791E+01  0.10289236268E+03  0.10592683138E+03  0.00000000000E+00 0.  1.
<mgrwt>
<rscale>  2 0.25172511E+02</rscale>
<asrwt>0</asrwt>
<pdfrwt beam="1">  1       21 0.44006650E-01 0.25172511E+02</pdfrwt>
<pdfrwt beam="2">  1       21 0.36759943E-03 0.25172511E+02</pdfrwt>
<totfact> 0.66061581E+07</totfact>
</mgrwt>
</event>
<event>
 4    1  0.3862688E+004  0.3877993E+02  0.7546771E-02  0.1517387E+00
         21   -1    0    0  503  502  0.00000000000E+00  0.00000000000E+00  0.45100859955E+02  0.45100859955E+02  0.00000000000E+00 0. -1.
         21   -1    0    0  501  503 -0.00000000000E+00 -0.00000000000E+00 -0.39736940669E+02  0.39736940669E+02  0.00000000000E+00 0. -1.
          5    1    1    2  501    0 -0.34456750819E+02 -0.17793694997E+02  0.19695012936E+02  0.43494560501E+02  0.00000000000E+00 0. -1.
         -5    1    1    2    0  502  0.34456750819E+02  0.17793694997E+02 -0.14331093650E+02  0.41343240123E+02  0.00000000000E+00 0.  1.
<mgrwt>
<rscale>  2 0.38779934E+02</rscale>
<asrwt>0</asrwt>
<pdfrwt beam="1">  1       21 0.69385938E-02 0.38779934E+02</pdfrwt>
<pdfrwt beam="2">  1       21 0.61133755E-02 0.38779934E+02</pdfrwt>
<totfact> 0.24348681E+07</totfact>
</mgrwt>
</event>
<event>
 4    1  0.3862688E+004  0.4379211E+02  0.7546771E-02  0.1482026E+00
         21   -1    0    0  503  502  0.00000000000E+00  0.00000000000E+00  0.15466317207E+03  0.15466317207E+03  0.00000000000E+00 0. -1.
         21   -1    0    0  501  503 -0.00000000000E+00 -0.00000000000E+00 -0.17381398865E+02  0.17381398865E+02  0.00000000000E+00 0. -1.
          1    1    1    2  501    0 -0.42679138868E+02 -0.98101918268E+01  0.11469466752E+03  0.12277058082E+03  0.00000000000E+00 0.  1.
         -1    1    1    2    0  502  0.42679138868E+02  0.98101918268E+01  0.22587105684E+02  0.49273990110E+02  0.00000000000E+00 0. -1.
<mgrwt>
<rscale>  2 0.43792108E+02</rscale>
<asrwt>0</asrwt>
<pdfrwt beam="1">  1       21 0.23794333E-01 0.43792108E+02</pdfrwt>
<pdfrwt beam="2">  1       21 0.26740615E-02 0.43792108E+02</pdfrwt>
<totfact> 0.11204404E+07</totfact>
</mgrwt>
</event>
<event>
 4    1  0.3862688E+004  0.3363299E+02  0.7546771E-02  0.1561086E+00
         21   -1    0    0  503  502  0.00000000000E+00  0.00000000000E+00  0.38048146117E+02  0.38048146117E+02  0.00000000000E+00 0. -1.
         21   -1    0    0  501  503 -0.00000000000E+00 -0.00000000000E+00 -0.29739045442E+02  0.29739045442E+02  0.00000000000E+00 0. -1.
          5    1    1    2  501    0  0.26419402073E+01  0.33529063174E+02  0.35690837690E+01  0.33821831475E+02  0.00000000000E+00 0.  1.
         -5    1    1    2    0  502 -0.26419402073E+01 -0.33529063174E+02  0.47400169060E+01  0.33965360084E+02  0.00000000000E+00 0. -1.
<mgrwt>
<rscale>  2 0.33632989E+02</rscale>
<asrwt>0</asrwt>
<pdfrwt beam="1">  1       21 0.58535609E-02 0.33632989E+02</pdfrwt>
<pdfrwt beam="2">  1       21 0.45752378E-02 0.33632989E+02</pdfrwt>
<totfact> 0.50132830E+07</totfact>
</mgrwt>
</event>
<event>
 4    1  0.3862688E+004  0.2281632E+02  0.7546771E-02  0.1694505E+00
         21   -1    0    0  501  502  0.00000000000E+00  0.00000000000E+00  0.69011467832E+03  0.69011467832E+03  0.00000000000E+00 0.  1.
         21   -1    0    0  502  503 -0.00000000000E+00 -0.00000000000E+00 -0.14102058359E+01  0.14102058359E+01  0.00000000000E+00 0.  1.
          4    1    1    2  501    0  0.22610524229E+02 -0.30575473657E+01  0.10855294971E+03  0.11092487229E+03  0.00000000000E+00 0. -1.
         -4    1    1    2    0  503 -0.22610524229E+02  0.30575473657E+01  0.58015152277E+03  0.58060001186E+03  0.00000000000E+00 0.  1.
<mgrwt>
<rscale>  2 0.22816319E+02</rscale>
<asrwt>0</asrwt>
<pdfrwt beam="1">  1       21 0.10617122E+00 0.22816319E+02</pdfrwt>
<pdfrwt beam="2">  1       21 0.21695530E-03 0.22816319E+02</pdfrwt>
<totfact> 0.22895712E+07</totfact>
</mgrwt>
</event>
<event>
 4    1  0.3862688E+004  0.2165199E+02  0.7546771E-02  0.1714341E+00
         21   -1    0    0  503  502  0.00000000000E+00  0.00000000000E+00  0.17099545828E+02  0.17099545828E+02  0.00000000000E+00 0.  1.
         21   -1    0    0  501  503 -0.00000000000E+00 -0.00000000000E+00 -0.28319127016E+02  0.28319127016E+02  0.00000000000E+00 0.  1.
          3    1    1    2  501    0  0.73658516175E+01 -0.20360568538E+02 -0.15553099101E+01  0.21707775338E+02  0.00000000000E+00 0. -1.
         -3    1    1    2    0  502 -0.73658516175E+01  0.20360568538E+02 -0.96642712781E+01  0.23710897506E+02  0.00000000000E+00 0.  1.
<mgrwt>
<rscale>  2 0.21651987E+02</rscale>
<asrwt>0</asrwt>
<pdfrwt beam="1">  1       21 0.26306994E-02 0.21651987E+02</pdfrwt>
<pdfrwt beam="2">  1       21 0.43567887E-02 0.21651987E+02</pdfrwt>
<totfact> 0.17162808E+08</totfact>
</mgrwt>
</event>
<event>
 4    1  0.3862688E+004  0.3877760E+02  0.7546771E-02  0.1517405E+00
         21   -1    0    0  503  502  0.00000000000E+00  0.00000000000E+00  0.90552948567E+01  0.90552948567E+01  0.00000000000E+00 0. -1.
         21   -1    0    0  501  503 -0.00000000000E+00 -0.00000000000E+00 -0.21582333284E+03  0.21582333284E+03  0.00000000000E+00 0. -1.
          1    1    1    2  501    0  0.30608851462E+02 -0.23807567646E+02 -0.15737652087E+03  0.16208353213E+03  0.00000000000E+00 0. -1.
         -1    1    1    2    0  502 -0.30608851462E+02  0.23807567646E+02 -0.49391517113E+02  0.62795095571E+02  0.00000000000E+00 0.  1.
<mgrwt>
<rscale>  2 0.38777597E+02</rscale>
<asrwt>0</asrwt>
<pdfrwt beam="1">  1       21 0.13931224E-02 0.38777597E+02</pdfrwt>
<pdfrwt beam="2">  1       21 0.33203587E-01 0.38777597E+02</pdfrwt>
<totfact> 0.16491686E+07</totfact>
</mgrwt>
</event>
<event>
 4    1  0.3862688E+004  0.5216827E+02  0.7546771E-02  0.1433985E+00
         21   -1    0    0  501  502  0.00000000000E+00  0.00000000000E+00  0.51953438783E+03  0.51953438783E+03  0.00000000000E+00 0. -1.
         21   -1    0    0  502  503 -0.00000000000E+00 -0.00000000000E+00 -0.52584848927E+01  0.52584848927E+01  0.00000000000E+00 0. -1.
          4    1    1    2  501    0  0.40575607766E+02 -0.32789454281E+02  0.27335517549E+03  0.27828866348E+03  0.00000000000E+00 0.  1.
         -4    1    1    2    0  503 -0.40575607766E+02  0.32789454281E+02  0.24092072744E+03  0.24650420923E+03  0.00000000000E+00 0. -1.
<mgrwt>
<rscale>  2 0.52168269E+02</rscale>
<asrwt>0</asrwt>
<pdfrwt beam="1">  1       21 0.79928327E-01 0.52168269E+02</pdfrwt>
<pdfrwt beam="2">  1       21 0.80899809E-03 0.52168269E+02</pdfrwt>
<totfact> 0.67316453E+06</totfact>
</mgrwt>
</event>
<event>
 4    1  0.3862688E+004  0.2072148E+02  0.7546771E-02  0.1731350E+00
         21   -1    0    0  503  502  0.00000000000E+00  0.00000000000E+00  0.69535839901E+01  0.69535839901E+01  0.00000000000E+00 0.  1.
         21   -1    0    0  501  503 -0.00000000000E+00 -0.00000000000E+00 -0.82957096414E+02  0.82957096414E+02  0.00000000000E+00 0.  1.
          3    1    1    2  501    0 -0.13755398834E+02  0.15497383042E+02 -0.60731833589E+02  0.64169583833E+02  0.00000000000E+00 0. -1.
         -3    1    1    2    0  502  0.13755398834E+02 -0.15497383042E+02 -0.15271678835E+02  0.25741096571E+02  0.00000000000E+00 0.  1.
<mgrwt>
<rscale>  2 0.20721483E+02</rscale>
<asrwt>0</asrwt>
<pdfrwt beam="1">  1       21 0.10697821E-02 0.20721483E+02</pdfrwt>
<pdfrwt beam="2">  1       21 0.12762631E-01 0.20721483E+02</pdfrwt>
<totfact> 0.11648228E+08</totfact>
</mgrwt>
</event>
<event>
 4    1  0.3862688E+004  0.2999349E+02  0.7546771E-02  0.1598161E+00
         21   -1    0    0  503  502  0.00000000000E+00  0.00000000000E+00  0.12024284434E+02  0.12024284434E+02  0.00000000000E+00 0. -1.
         21   -1    0    0  501  503 -0.00000000000E+00 -0.00000000000E+00 -0.74931757920E+02  0.74931757920E+02  0.00000000000E+00 0. -1.
          2    1    1    2  501    0  0.21800210192E+02  0.20600000826E+02 -0.33162413931E+02  0.44714146488E+02  0.00000000000E+00 0. -1.
         -2    1    1    2    0  502 -0.21800210192E+02 -0.20600000826E+02 -0.29745059555E+02  0.42241895867E+02  0.00000000000E+00 0.  1.
<mgrwt>
<rscale>  2 0.29993486E+02</rscale>
<asrwt>0</asrwt>
<pdfrwt beam="1">  1       21 0.18498899E-02 0.29993486E+02</pdfrwt>
<pdfrwt beam="2">  1       21 0.11527963E-01 0.29993486E+02</pdfrwt>
<totfact> 0.66238009E+07</totfact>
</mgrwt>
</event>
<event>
 4    1  0.3862688E+004  0.2250296E+02  0.7546771E-02  0.1699696E+00
         21   -1    0    0  503  502  0.00000000000E+00  0.00000000000E+00  0.28334225657E+02  0.28334225657E+02  0.00000000000E+00 0.  1.
         21   -1    0    0  501  503 -0.00000000000E+00 -0.00000000000E+00 -0.18348600073E+02  0.18348600073E+02  0.00000000000E+00 0.  1.
          3    1    1    2  501    0 -0.78790579003E+00  0.22489164062E+02  0.12301183945E+01  0.22536558899E+02  0.00000000000E+00 0. -1.
         -3    1    1    2    0  502  0.78790579003E+00 -0.22489164062E+02  0.87555071897E+01  0.24146266831E+02  0.00000000000E+00 0.  1.
<mgrwt>
<rscale>  2 0.22502962E+02</rscale>
<asrwt>0</asrwt>
<pdfrwt beam="1">  1       21 0.43591117E-02 0.22502962E+02</pdfrwt>
<pdfrwt beam="2">  1       21 0.28228615E-02 0.22502962E+02</pdfrwt>
<totfact> 0.15559391E+08</totfact>
</mgrwt>
</event>
<event>
 4    1  0.3862688E+004  0.2122896E+02  0.7546771E-02  0.1721938E+00
         21   -1    0    0  503  502  0.00000000000E+00  0.00000000000E+00  0.10669994626E+02  0.10669994626E+02  0.00000000000E+00 0. -1.
         21   -1    0    0  501  503 -0.00000000000E+00 -0.00000000000E+00 -0.60886283029E+02  0.60886283029E+02  0.00000000000E+00 0. -1.
          2    1    1    2  501    0  0.23262871100E+01  0.21101121060E+02 -0.44909215722E+02  0.49674003044E+02  0.00000000000E+00 0.  1.
         -2    1    1    2    0  502 -0.23262871100E+01 -0.21101121060E+02 -0.53070726807E+01  0.21882274611E+02  0.00000000000E+00 0. -1.
<mgrwt>
<rscale>  2 0.21228964E+02</rscale>
<asrwt>0</asrwt>
<pdfrwt beam="1">  1       21 0.16415376E-02 0.21228964E+02</pdfrwt>
<pdfrwt beam="2">  1       21 0.93671208E-02 0.21228964E+02</pdfrwt>
<totfact> 0.10264740E+08</totfact>
</mgrwt>
</event>
<event>
 4    1  0.3862688E+004  0.4564161E+02  0.7546771E-02  0.1470376E+00
         21   -1    0    0  501  502  0.00000000000E+00  0.00000000000E+00  0.71358370989E+03  0.71358370989E+03  0.00000000000E+00 0.  1.
         21   -1    0    0  502  503 -0.00000000000E+00 -0.00000000000E+00 -0.36213430526E+01  0.36213430526E+01  0.00000000000E+00 0.  1.
          1    1    1    2  501    0 -0.28233353973E+02  0.35861319421E+02  0.19708776315E+03  0.20230359090E+03  0.00000000000E+00 0. -1.
         -1    1    1    2    0  503  0.28233353973E+02 -0.35861319421E+02  0.51287460369E+03  0.51490146204E+03  0.00000000000E+00 0.  1.
<mgrwt>
<rscale>  2 0.45641609E+02</rscale>
<asrwt>0</asrwt>
<pdfrwt beam="1">  1       21 0.10978200E+00 0.45641609E+02</pdfrwt>
<pdfrwt beam="2">  1       21 0.55713027E-03 0.45641609E+02</pdfrwt>
<totfact> 0.57802297E+06</totfact>
</mgrwt>
</event>
<event>
 4    1  0.3862688E+004  0.2868170E+02  0.7546771E-02  0.1613135E+00
         21   -1    0    0  501  502  0.00000000000E+00  0.00000000000E+00  0.71376883411E+02  0.71376883411E+02  0.00000000000E+00 0. -1.
         21   -1    0    0  502  503 -0.00000000000E+00 -0.00000000000E+00 -0.11639139539E+02  0.11639139539E+02  0.00000000000E+00 0. -1.
          3    1    1    2  501    0 -0.28547024855E+02  0.27761521827E+01  0.33974005436E+02  0.44462036552E+02  0.00000000000E+00 0. -1.
         -3    1    1    2    0  503  0.28547024855E+02 -0.27761521827E+01  0.25763738436E+02  0.38553986398E+02  0.00000000000E+00 0.  1.
<mgrwt>
<rscale>  2 0.28681695E+02</rscale>
<asrwt>0</asrwt>
<pdfrwt beam="1">  1       21 0.10981059E-01 0.28681695E+02</pdfrwt>
<pdfrwt beam="2">  1       21 0.17906369E-02 0.28681695E+02</pdfrwt>
<totfact> 0.74793346E+07</totfact>
</mgrwt>
</event>
<event>
 4    1  0.3862688E+004  0.2246352E+02  0.7546771E-02  0.1700357E+00
         21   -1    0    0  501  502  0.00000000000E+00  0.00000000000E+00  0.82653269075E+02  0.82653269075E+02  0.00000000000E+00 0. -1.
         21   -1    0    0  502  503 -0.00000000000E+00 -0.00000000000E+00 -0.97239781674E+01  0.97239781674E+01  0.00000000000E+00 0. -1.
          5    1    1    2  501    0  0.13023775536E+01  0.22425735885E+02  0.64641829373E+02  0.68433733801E+02  0.00000000000E+00 0. -1.
         -5    1    1    2    0  503 -0.13023775536E+01 -0.22425735885E+02  0.82874615354E+01  0.23943513442E+02  0.00000000000E+00 0.  1.
<mgrwt>
<rscale>  2 0.22463522E+02</rscale>
<asrwt>0</asrwt>
<pdfrwt beam="1">  1       21 0.12715887E-01 0.22463522E+02</pdfrwt>
<pdfrwt beam="2">  1       21 0.14959967E-02 0.22463522E+02</pdfrwt>
<totfact> 0.72300790E+07</totfact>
</mgrwt>
</event>
<event>
 4    1  0.3862688E+004  0.2047133E+02  0.7546771E-02  0.1736114E+00
         21   -1    0    0  503  502  0.00000000000E+00  0.00000000000E+00  0.76258249687E+01  0.76258249687E+01  0.00000000000E+00 0.  1.
         21   -1    0    0  501  503 -0.00000000000E+00 -0.00000000000E+00 -0.63945274638E+02  0.63945274638E+02  0.00000000000E+00 0.  1.
          5    1    1    2  501    0  0.83802682228E+01 -0.18677429506E+02 -0.14741468065E+02  0.25226695169E+02  0.00000000000E+00 0.  1.
         -5    1    1    2    0  502 -0.83802682228E+01  0.18677429506E+02 -0.41577981604E+02  0.46344404438E+02  0.00000000000E+00 0. -1.
<mgrwt>
<rscale>  2 0.20471328E+02</rscale>
<asrwt>0</asrwt>
<pdfrwt beam="1">  1       21 0.11732038E-02 0.20471328E+02</pdfrwt>
<pdfrwt beam="2">  1       21 0.98377348E-02 0.20471328E+02</pdfrwt>
<totfact> 0.15561464E+08</totfact>
</mgrwt>
</event>
<event>
 4    1  0.3862688E+004  0.2575959E+02  0.7546771E-02  0.1650325E+00
         21   -1    0    0  503  502  0.00000000000E+00  0.00000000000E+00  0.16224260462E+02  0.16224260462E+02  0.00000000000E+00 0.  1.
         21   -1    0    0  501  503 -0.00000000000E+00 -0.00000000000E+00 -0.41784369626E+02  0.41784369626E+02  0.00000000000E+00 0.  1.
          1    1    1    2  501    0  0.15556757933E+02  0.20531524625E+02 -0.17002024069E+02  0.30864624464E+02  0.00000000000E+00 0. -1.
         -1    1    1    2    0  502 -0.15556757933E+02 -0.20531524625E+02 -0.85580850951E+01  0.27144005624E+02  0.00000000000E+00 0.  1.
<mgrwt>
<rscale>  2 0.25759585E+02</rscale>
<asrwt>0</asrwt>
<pdfrwt beam="1">  1       21 0.24960401E-02 0.25759585E+02</pdfrwt>
<pdfrwt beam="2">  1       21 0.64283645E-02 0.25759585E+02</pdfrwt>
<totfact> 0.10520904E+08</totfact>
</mgrwt>
</event>
<event>
 4    1  0.3862688E+004  0.3042963E+02  0.7546771E-02  0.1593388E+00
         21   -1    0    0  503  502  0.00000000000E+00  0.00000000000E+00  0.29936168735E+02  0.29936168735E+02  0.00000000000E+00 0. -1.
         21   -1    0    0  501  503 -0.00000000000E+00 -0.00000000000E+00 -0.37603597160E+02  0.37603597160E+02  0.00000000000E+00 0. -1.
          2    1    1    2  501    0  0.23539788279E+01 -0.30338448322E+02 -0.18058792747E+02  0.35384780039E+02  0.00000000000E+00 0.  1.
         -2    1    1    2    0  502 -0.23539788279E+01  0.30338448322E+02  0.10391364322E+02  0.32154985856E+02  0.00000000000E+00 0. -1.
<mgrwt>
<rscale>  2 0.30429635E+02</rscale>
<asrwt>0</asrwt>
<pdfrwt beam="1">  1       21 0.46055644E-02 0.30429635E+02</pdfrwt>
<pdfrwt beam="2">  1       21 0.57851688E-02 0.30429635E+02</pdfrwt>
<totfact> 0.49487120E+07</totfact>
</mgrwt>
</event>
<event>
 4    1  0.3862688E+004  0.4191043E+02  0.7546771E-02  0.1494606E+00
         21   -1    0    0  503  502  0.00000000000E+00  0.00000000000E+00  0.22144142482E+02  0.22144142482E+02  0.00000000000E+00 0. -1.
         21   -1    0    0  501  503 -0.00000000000E+00 -0.00000000000E+00 -0.95005344473E+02  0.95005344473E+02  0.00000000000E+00 0. -1.
          5    1    1    2  501    0  0.22512565838E+00  0.41909825214E+02 -0.12630615798E+02  0.43772326720E+02  0.00000000000E+00 0.  1.
         -5    1    1    2    0  502 -0.22512565838E+00 -0.41909825214E+02 -0.60230586193E+02  0.73377160235E+02  0.00000000000E+00 0. -1.
<mgrwt>
<rscale>  2 0.41910430E+02</rscale>
<asrwt>0</asrwt>
<pdfrwt beam="1">  1       21 0.34067912E-02 0.41910430E+02</pdfrwt>
<pdfrwt beam="2">  1       21 0.14616207E-01 0.41910430E+02</pdfrwt>
<totfact> 0.18005584E+07</totfact>
</mgrwt>
</event>
<event>
 4    1  0.3862688E+004  0.2168031E+02  0.7546771E-02  0.1713840E+00
         21   -1    0    0  503  502  0.00000000000E+00  0.00000000000E+00  0.13941887355E+03  0.13941887355E+03  0.00000000000E+00 0. -1.
         21   -1    0    0  501  503 -0.00000000000E+00 -0.00000000000E+00 -0.50689404293E+01  0.50689404293E+01  0.00000000000E+00 0. -1.
          5    1    1    2  501    0 -0.19598015557E+02 -0.92711247149E+01  0.10898239446E+03  0.11111794756E+03  0.00000000000E+00 0. -1.
         -5    1    1    2    0  502  0.19598015557E+02  0.92711247149E+01  0.25367538659E+02  0.33369866420E+02  0.00000000000E+00 0.  1.
<mgrwt>
<rscale>  2 0.21680313E+02</rscale>
<asrwt>0</asrwt>
<pdfrwt beam="1">  1       21 0.21449055E-01 0.21680313E+02</pdfrwt>
<pdfrwt beam="2">  1       21 0.77983709E-03 0.21680313E+02</pdfrwt>
<totfact> 0.77824234E+07</totfact>
</mgrwt>
</event>
<event>
 4    1  0.3862688E+004  0.3659555E+02  0.7546771E-02  0.1534872E+00
         21   -1    0    0  503  502  0.00000000000E+00  0.00000000000E+00  0.33345898369E+03  0.33345898369E+03  0.00000000000E+00 0.  1.
         21   -1    0    0  501  503 -0.00000000000E+00 -0.00000000000E+00 -0.49856779496E+01  0.49856779496E+01  0.00000000000E+00 0.  1.
          3    1    1    2  501    0  0.34727397190E+02 -0.11543046029E+02  0.23885870328E+03  0.24164584449E+03  0.00000000000E+00 0.  1.
         -3    1    1    2    0  502 -0.34727397190E+02  0.11543046029E+02  0.89614602461E+02  0.96798817149E+02  0.00000000000E+00 0. -1.
<mgrwt>
<rscale>  2 0.36595547E+02</rscale>
<asrwt>0</asrwt>
<pdfrwt beam="1">  1       21 0.51301365E-01 0.36595547E+02</pdfrwt>
<pdfrwt beam="2">  1       21 0.76702764E-03 0.36595547E+02</pdfrwt>
<totfact> 0.17566403E+07</totfact>
</mgrwt>
</event>
<event>
 4    1  0.3862688E+004  0.2064761E+02  0.7546771E-02  0.1732748E+00
         21   -1    0    0  501  502  0.00000000000E+00  0.00000000000E+00  0.14845006460E+02  0.14845006460E+02  0.00000000000E+00 0.  1.
         21   -1    0    0  502  503 -0.00000000000E+00 -0.00000000000E+00 -0.30963899757E+02  0.30963899757E+02  0.00000000000E+00 0.  1.
          4    1    1    2  501    0  0.70261207990E+01 -0.19415391365E+02 -0.14227602935E+02  0.25074857540E+02  0.00000000000E+00 0. -1.
         -4    1    1    2    0  503 -0.70261207990E+01  0.19415391365E+02 -0.18912903617E+01  0.20734048678E+02  0.00000000000E+00 0.  1.
<mgrwt>
<rscale>  2 0.20647610E+02</rscale>
<asrwt>0</asrwt>
<pdfrwt beam="1">  1       21 0.22838472E-02 0.20647610E+02</pdfrwt>
<pdfrwt beam="2">  1       21 0.47636769E-02 0.20647610E+02</pdfrwt>
<totfact> 0.18255767E+08</totfact>
</mgrwt>
</event>
<event>
 4    1  0.3862688E+004  0.2009231E+02  0.7546771E-02  0.1743499E+00
         21   -1    0    0  501  502  0.00000000000E+00  0.00000000000E+00  0.26535049960E+03  0.26535049960E+03  0.00000000000E+00 0. -1.
         21   -1    0    0  502  503 -0.00000000000E+00 -0.00000000000E+00 -0.15705936549E+01  0.15705936549E+01  0.00000000000E+00 0. -1.
          5    1    1    2  501    0 -0.15825956390E+02  0.12379015257E+02  0.15551273310E+03  0.15680532858E+03  0.00000000000E+00 0.  1.
         -5    1    1    2    0  503  0.15825956390E+02 -0.12379015257E+02  0.10826717284E+03  0.11011576467E+03  0.00000000000E+00 0. -1.
<mgrwt>
<rscale>  2 0.20092310E+02</rscale>
<asrwt>0</asrwt>
<pdfrwt beam="1">  1       21 0.40823118E-01 0.20092310E+02</pdfrwt>
<pdfrwt beam="2">  1       21 0.24163000E-03 0.20092310E+02</pdfrwt>
<totfact> 0.13227525E+08</totfact>
</mgrwt>
</event>
<event>
 4    1  0.3862688E+004  0.2019132E+02  0.7546771E-02  0.1741550E+00
         21   -1    0    0  501  502  0.00000000000E+00  0.00000000000E+00  0.48892091996E+01  0.48892091996E+01  0.00000000000E+00 0.  1.
         21   -1    0    0  502  503 -0.00000000000E+00 -0.00000000000E+00 -0.87137303792E+02  0.87137303792E+02  0.00000000000E+00 0.  1.
          1    1    1    2  501    0  0.16107624639E+02 -0.12175129974E+02 -0.31576352842E+02  0.37480066972E+02  0.00000000000E+00 0. -1.
         -1    1    1    2    0  503 -0.16107624639E+02  0.12175129974E+02 -0.50671741750E+02  0.54546446019E+02  0.00000000000E+00 0.  1.
<mgrwt>
<rscale>  2 0.20191319E+02</rscale>
<asrwt>0</asrwt>
<pdfrwt beam="1">  1       21 0.75218610E-03 0.20191319E+02</pdfrwt>
<pdfrwt beam="2">  1       21 0.13405738E-01 0.20191319E+02</pdfrwt>
<totfact> 0.17994204E+08</totfact>
</mgrwt>
</event>
<event>
 4    1  0.3862688E+004  0.2071031E+02  0.7546771E-02  0.1731561E+00
         21   -1    0    0  503  502  0.00000000000E+00  0.00000000000E+00  0.27541784549E+03  0.27541784549E+03  0.00000000000E+00 0.  1.
         21   -1    0    0  501  503 -0.00000000000E+00 -0.00000000000E+00 -0.15820118715E+01  0.15820118715E+01  0.00000000000E+00 0.  1.
          3    1    1    2  501    0 -0.20538197772E+02 -0.26644894721E+01  0.11961917157E+03  0.12139877791E+03  0.00000000000E+00 0. -1.
         -3    1    1    2    0  502  0.20538197772E+02  0.26644894721E+01  0.15421666205E+03  0.15560107945E+03  0.00000000000E+00 0.  1.
<mgrwt>
<rscale>  2 0.20710313E+02</rscale>
<asrwt>0</asrwt>
<pdfrwt beam="1">  1       21 0.42371938E-01 0.20710313E+02</pdfrwt>
<pdfrwt beam="2">  1       21 0.24338666E-03 0.20710313E+02</pdfrwt>
<totfact> 0.12308823E+08</totfact>
</mgrwt>
</event>
<event>
 4    1  0.3862688E+004  0.2319002E+02  0.7546771E-02  0.1688448E+00
         21   -1    0    0  501  502  0.00000000000E+00  0.00000000000E+00  0.81691653684E+01  0.81691653684E+01  0.00000000000E+00 0.  1.
         21   -1    0    0  502  503 -0.00000000000E+00 -0.00000000000E+00 -0.66238167485E+02  0.66238167485E+02  0.00000000000E+00 0.  1.
          3    1    1    2  501    0 -0.17766362172E+02  0.14904139553E+02 -0.26114414073E+02  0.34924770909E+02  0.00000000000E+00 0. -1.
         -3    1    1    2    0  503  0.17766362172E+02 -0.14904139553E+02 -0.31954588043E+02  0.39482561944E+02  0.00000000000E+00 0.  1.
<mgrwt>
<rscale>  2 0.23190019E+02</rscale>
<asrwt>0</asrwt>
<pdfrwt beam="1">  1       21 0.12567946E-02 0.23190019E+02</pdfrwt>
<pdfrwt beam="2">  1       21 0.10190488E-01 0.23190019E+02</pdfrwt>
<totfact> 0.13743834E+08</totfact>
</mgrwt>
</event>
<event>
 4    1  0.3862688E+004  0.2214839E+02  0.7546771E-02  0.1705698E+00
         21   -1    0    0  501  502  0.00000000000E+00  0.00000000000E+00  0.14931919052E+02  0.14931919052E+02  0.00000000000E+00 0. -1.
         21   -1    0    0  502  503 -0.00000000000E+00 -0.00000000000E+00 -0.35402079222E+02  0.35402079222E+02  0.00000000000E+00 0. -1.
          5    1    1    2  501    0 -0.48473777673E+00  0.22143080425E+02 -0.16988918613E+02  0.27913694435E+02  0.00000000000E+00 0. -1.
         -5    1    1    2    0  503  0.48473777673E+00 -0.22143080425E+02 -0.34812415569E+01  0.22420303838E+02  0.00000000000E+00 0.  1.
<mgrwt>
<rscale>  2 0.22148386E+02</rscale>
<asrwt>0</asrwt>
<pdfrwt beam="1">  1       21 0.22972183E-02 0.22148386E+02</pdfrwt>
<pdfrwt beam="2">  1       21 0.54464737E-02 0.22148386E+02</pdfrwt>
<totfact> 0.14948586E+08</totfact>
</mgrwt>
</event>
<event>
 4    1  0.3862688E+004  0.2222422E+02  0.7546771E-02  0.1704403E+00
         21   -1    0    0  503  502  0.00000000000E+00  0.00000000000E+00  0.16540967987E+03  0.16540967987E+03  0.00000000000E+00 0.  1.
         21   -1    0    0  501  503 -0.00000000000E+00 -0.00000000000E+00 -0.33569036811E+01  0.33569036811E+01  0.00000000000E+00 0.  1.
          1    1    1    2  501    0  0.15060583593E+02  0.16343036856E+02  0.10907477825E+03  0.11131587166E+03  0.00000000000E+00 0.  1.
         -1    1    1    2    0  502 -0.15060583593E+02 -0.16343036856E+02  0.52977997936E+02  0.57450711894E+02  0.00000000000E+00 0. -1.
<mgrwt>
<rscale>  2 0.22224222E+02</rscale>
<asrwt>0</asrwt>
<pdfrwt beam="1">  1       21 0.25447637E-01 0.22224222E+02</pdfrwt>
<pdfrwt beam="2">  1       21 0.51644685E-03 0.22224222E+02</pdfrwt>
<totfact> 0.10665899E+08</totfact>
</mgrwt>
</event>
<event>
 4    1  0.3862688E+004  0.3160790E+02  0.7546771E-02  0.1580966E+00
         21   -1    0    0  503  502  0.00000000000E+00  0.00000000000E+00  0.29669130156E+02  0.29669130156E+02  0.00000000000E+00 0. -1.
         21   -1    0    0  501  503 -0.00000000000E+00 -0.00000000000E+00 -0.35578989520E+02  0.35578989520E+02  0.00000000000E+00 0. -1.
          3    1    1    2  501    0 -0.16995478560E+02  0.26649822875E+02 -0.10505160758E+02  0.33307923282E+02  0.00000000000E+00 0.  1.
         -3    1    1    2    0  502  0.16995478560E+02 -0.26649822875E+02  0.45953013945E+01  0.31940196394E+02  0.00000000000E+00 0. -1.
<mgrwt>
<rscale>  2 0.31607900E+02</rscale>
<asrwt>0</asrwt>
<pdfrwt beam="1">  1       21 0.45644815E-02 0.31607900E+02</pdfrwt>
<pdfrwt beam="2">  1       21 0.54736907E-02 0.31607900E+02</pdfrwt>
<totfact> 0.55365100E+07</totfact>
</mgrwt>
</event>
<event>
 4    1  0.3862688E+004  0.2320311E+02  0.7546771E-02  0.1688239E+00
         21   -1    0    0  501  502  0.00000000000E+00  0.00000000000E+00  0.13672817674E+02  0.13672817674E+02  0.00000000000E+00 0.  1.
         21   -1    0    0  502  503 -0.00000000000E+00 -0.00000000000E+00 -0.40982841188E+02  0.40982841188E+02  0.00000000000E+00 0.  1.
          5    1    1    2  501    0 -0.22112509048E+02 -0.70300137908E+01 -0.82442532864E+01  0.24624212932E+02  0.00000000000E+00 0. -1.
         -5    1    1    2    0  503  0.22112509048E+02  0.70300137908E+01 -0.19065770227E+02  0.30031445930E+02  0.00000000000E+00 0.  1.
<mgrwt>
<rscale>  2 0.23203106E+02</rscale>
<asrwt>0</asrwt>
<pdfrwt beam="1">  1       21 0.21035104E-02 0.23203106E+02</pdfrwt>
<pdfrwt beam="2">  1       21 0.63050525E-02 0.23203106E+02</pdfrwt>
<totfact> 0.13729259E+08</totfact>
</mgrwt>
</event>
<event>
 4    1  0.3862688E+004  0.2456188E+02  0.7546771E-02  0.1667376E+00
         21   -1    0    0  503  502  0.00000000000E+00  0.00000000000E+00  0.11244829166E+04  0.11244829166E+04  0.00000000000E+00 0.  1.
         21   -1    0    0  501  503 -0.00000000000E+00 -0.00000000000E+00 -0.54078200761E+00  0.54078200761E+00  0.00000000000E+00 0.  1.
          3    1    1    2  501    0 -0.11372482695E+02  0.21770449556E+02  0.61202179226E+03  0.61251445700E+03  0.00000000000E+00 0.  1.
         -3    1    1    2    0  502  0.11372482695E+02 -0.21770449556E+02  0.51192034238E+03  0.51250924166E+03  0.00000000000E+00 0. -1.
<mgrwt>
<rscale>  2 0.24561878E+02</rscale>
<asrwt>0</asrwt>
<pdfrwt beam="1">  1       21 0.17299550E+00 0.24561878E+02</pdfrwt>
<pdfrwt beam="2">  1       21 0.83198132E-04 0.24561878E+02</pdfrwt>
<totfact> 0.29399555E+07</totfact>
</mgrwt>
</event>
<event>
 4    1  0.3862688E+004  0.2532615E+02  0.7546771E-02  0.1656361E+00
         21   -1    0    0  503  502  0.00000000000E+00  0.00000000000E+00  0.55910992763E+01  0.55910992763E+01  0.00000000000E+00 0.  1.
         21   -1    0    0  501  503 -0.00000000000E+00 -0.00000000000E+00 -0.11481181822E+03  0.11481181822E+03  0.00000000000E+00 0.  1.
          1    1    1    2  501    0 -0.11893597760E+02 -0.22359694962E+02 -0.56308312338E+02  0.61741717378E+02  0.00000000000E+00 0.  1.
         -1    1    1    2    0  502  0.11893597760E+02  0.22359694962E+02 -0.52912406605E+02  0.58661200117E+02  0.00000000000E+00 0. -1.
<mgrwt>
<rscale>  2 0.25326145E+02</rscale>
<asrwt>0</asrwt>
<pdfrwt beam="1">  1       21 0.86016910E-03 0.25326145E+02</pdfrwt>
<pdfrwt beam="2">  1       21 0.17663357E-01 0.25326145E+02</pdfrwt>
<totfact> 0.98274350E+07</totfact>
</mgrwt>
</event>
<event>
 4    1  0.3862688E+004  0.3034903E+02  0.7546771E-02  0.1594262E+00
         21   -1    0    0  501  502  0.00000000000E+00  0.00000000000E+00  0.68889989913E+02  0.68889989913E+02  0.00000000000E+00 0.  1.
         21   -1    0    0  502  503 -0.00000000000E+00 -0.00000000000E+00 -0.14145977339E+02  0.14145977339E+02  0.00000000000E+00 0.  1.
          1    1    1    2  501    0 -0.29385080490E+02 -0.75881978972E+01  0.37095578880E+02  0.47928547601E+02  0.00000000000E+00 0.  1.
         -1    1    1    2    0  503  0.29385080490E+02  0.75881978972E+01  0.17648433694E+02  0.35107419652E+02  0.00000000000E+00 0. -1.
<mgrwt>
<rscale>  2 0.30349031E+02</rscale>
<asrwt>0</asrwt>
<pdfrwt beam="1">  1       21 0.10598460E-01 0.30349031E+02</pdfrwt>
<pdfrwt beam="2">  1       21 0.21763043E-02 0.30349031E+02</pdfrwt>
<totfact> 0.59476650E+07</totfact>
</mgrwt>
</event>
<event>
 4    1  0.3862688E+004  0.3912476E+02  0.7546771E-02  0.1514753E+00
         21   -1    0    0  501  502  0.00000000000E+00  0.00000000000E+00  0.33020631564E+03  0.33020631564E+03  0.00000000000E+00 0. -1.
         21   -1    0    0  502  503 -0.00000000000E+00 -0.00000000000E+00 -0.46779662176E+01  0.46779662176E+01  0.00000000000E+00 0. -1.
          5    1    1    2  501    0 -0.31944870066E+02 -0.22589209525E+02  0.14685373963E+03  0.15197620852E+03  0.00000000000E+00 0. -1.
         -5    1    1    2    0  503  0.31944870066E+02  0.22589209525E+02  0.17867460979E+03  0.18290807334E+03  0.00000000000E+00 0.  1.
<mgrwt>
<rscale>  2 0.39124763E+02</rscale>
<asrwt>0</asrwt>
<pdfrwt beam="1">  1       21 0.50800953E-01 0.39124763E+02</pdfrwt>
<pdfrwt beam="2">  1       21 0.71968737E-03 0.39124763E+02</pdfrwt>
<totfact> 0.19920774E+07</totfact>
</mgrwt>
</event>
<event>
 4    1  0.3862688E+004  0.2598129E+02  0.7546771E-02  0.1647294E+00
         21   -1    0    0  503  502  0.00000000000E+00  0.00000000000E+00  0.41250465088E+02  0.41250465088E+02  0.00000000000E+00 0.  1.
         21   -1    0    0  501  503 -0.00000000000E+00 -0.00000000000E+00 -0.16417629924E+02  0.16417629924E+02  0.00000000000E+00 0.  1.
          5    1    1    2  501    0  0.21141120744E+02 -0.15102339589E+02  0.14062528225E+02  0.29542889965E+02  0.00000000000E+00 0. -1.
         -5    1    1    2    0  502 -0.21141120744E+02  0.15102339589E+02  0.10770306939E+02  0.28125205047E+02  0.00000000000E+00 0.  1.
<mgrwt>
<rscale>  2 0.25981294E+02</rscale>
<asrwt>0</asrwt>
<pdfrwt beam="1">  1       21 0.63462253E-02 0.25981294E+02</pdfrwt>
<pdfrwt beam="2">  1       21 0.25257892E-02 0.25981294E+02</pdfrwt>
<totfact> 0.10570413E+08</totfact>
</mgrwt>
</event>
<event>
 4    1  0.3862688E+004  0.2716687E+02  0.7546771E-02  0.1631697E+00
         21   -1    0    0  501  502  0.00000000000E+00  0.00000000000E+00  0.48229617297E+01  0.48229617297E+01  0.00000000000E+00 0. -1.
         21   -1    0    0  502  503 -0.00000000000E+00 -0.00000000000E+00 -0.15681241732E+03  0.15681241732E+03  0.00000000000E+00 0. -1.
          2    1    1    2  501    0 -0.16122635390E+02 -0.21865485460E+02 -0.63436537496E+02  0.69008935043E+02  0.00000000000E+00 0.  1.
         -2    1    1    2    0  503  0.16122635390E+02  0.21865485460E+02 -0.88552918098E+02  0.92626444010E+02  0.00000000000E+00 0. -1.
<mgrwt>
<rscale>  2 0.27166870E+02</rscale>
<asrwt>0</asrwt>
<pdfrwt beam="1">  1       21 0.74199405E-03 0.27166870E+02</pdfrwt>
<pdfrwt beam="2">  1       21 0.24124989E-01 0.27166870E+02</pdfrwt>
<totfact> 0.72096721E+07</totfact>
</mgrwt>
</event>
<event>
 4    1  0.3862688E+004  0.2103886E+02  0.7546771E-02  0.1725425E+00
         21   -1    0    0  501  502  0.00000000000E+00  0.00000000000E+00  0.90528957965E+01  0.90528957965E+01  0.00000000000E+00 0. -1.
         21   -1    0    0  502  503 -0.00000000000E+00 -0.00000000000E+00 -0.52437685776E+02  0.52437685776E+02  0.00000000000E+00 0. -1.
          5    1    1    2  501    0  0.11256777231E+02 -0.17774097245E+02 -0.13700021166E+02  0.25106257118E+02  0.00000000000E+00 0. -1.
         -5    1    1    2    0  503 -0.11256777231E+02  0.17774097245E+02 -0.29684768814E+02  0.36384324455E+02  0.00000000000E+00 0.  1.
<mgrwt>
<rscale>  2 0.21038858E+02</rscale>
<asrwt>0</asrwt>
<pdfrwt beam="1">  1       21 0.13927532E-02 0.21038858E+02</pdfrwt>
<pdfrwt beam="2">  1       21 0.80673361E-02 0.21038858E+02</pdfrwt>
<totfact> 0.16763418E+08</totfact>
</mgrwt>
</event>
<event>
 4    1  0.3862688E+004  0.2942433E+02  0.7546771E-02  0.1604540E+00
         21   -1    0    0  501  502  0.00000000000E+00  0.00000000000E+00  0.20969739534E+02  0.20969739534E+02  0.00000000000E+00 0. -1.
         21   -1    0    0  502  503 -0.00000000000E+00 -0.00000000000E+00 -0.59800489253E+02  0.59800489253E+02  0.00000000000E+00 0. -1.
          5    1    1    2  501    0  0.18679698938E+02 -0.22734554871E+02  0.30547526028E+01  0.29582472024E+02  0.00000000000E+00 0.  1.
         -5    1    1    2    0  503 -0.18679698938E+02  0.22734554871E+02 -0.41885502323E+02  0.51187756763E+02  0.00000000000E+00 0. -1.
<mgrwt>
<rscale>  2 0.29424329E+02</rscale>
<asrwt>0</asrwt>
<pdfrwt beam="1">  1       21 0.32261139E-02 0.29424329E+02</pdfrwt>
<pdfrwt beam="2">  1       21 0.92000750E-02 0.29424329E+02</pdfrwt>
<totfact> 0.40417317E+07</totfact>
</mgrwt>
</event>
<event>
 4    1  0.3862688E+004  0.2178318E+02  0.7546771E-02  0.1712029E+00
         21   -1    0    0  503  502  0.00000000000E+00  0.00000000000E+00  0.82164356007E+01  0.82164356007E+01  0.00000000000E+00 0. -1.
         21   -1    0    0  501  503 -0.00000000000E+00 -0.00000000000E+00 -0.63183443120E+02  0.63183443120E+02  0.00000000000E+00 0. -1.
          3    1    1    2  501    0  0.19886507940E+02 -0.88900969226E+01 -0.17015469492E+02  0.27641150906E+02  0.00000000000E+00 0.  1.
         -3    1    1    2    0  502 -0.19886507940E+02  0.88900969226E+01 -0.37951538028E+02  0.43758727816E+02  0.00000000000E+00 0. -1.
<mgrwt>
<rscale>  2 0.21783182E+02</rscale>
<asrwt>0</asrwt>
<pdfrwt beam="1">  1       21 0.12640670E-02 0.21783182E+02</pdfrwt>
<pdfrwt beam="2">  1       21 0.97205298E-02 0.21783182E+02</pdfrwt>
<totfact> 0.14456898E+08</totfact>
</mgrwt>
</event>
<event>
 4    1  0.3862688E+004  0.4942905E+02  0.7546771E-02  0.1448446E+00
         21   -1    0    0  501  502  0.00000000000E+00  0.00000000000E+00  0.15346708058E+03  0.15346708058E+03  0.00000000000E+00 0. -1.
         21   -1    0    0  502  503 -0.00000000000E+00 -0.00000000000E+00 -0.16841496560E+02  0.16841496560E+02  0.00000000000E+00 0. -1.
          1    1    1    2  501    0 -0.44538665698E+02  0.21436833373E+02  0.88229146192E+02  0.10113166074E+03  0.00000000000E+00 0. -1.
         -1    1    1    2    0  503  0.44538665698E+02 -0.21436833373E+02  0.48396437825E+02  0.69176916391E+02  0.00000000000E+00 0.  1.
<mgrwt>
<rscale>  2 0.49429046E+02</rscale>
<asrwt>0</asrwt>
<pdfrwt beam="1">  1       21 0.23610319E-01 0.49429046E+02</pdfrwt>
<pdfrwt beam="2">  1       21 0.25909996E-02 0.49429046E+02</pdfrwt>
<totfact> 0.12130364E+07</totfact>
</mgrwt>
</event>
<event>
 4    1  0.3862688E+004  0.3827697E+02  0.7546771E-02  0.1521288E+00
         21   -1    0    0  503  502  0.00000000000E+00  0.00000000000E+00  0.22813867397E+02  0.22813867397E+02  0.00000000000E+00 0.  1.
         21   -1    0    0  501  503 -0.00000000000E+00 -0.00000000000E+00 -0.91204630888E+02  0.91204630888E+02  0.00000000000E+00 0.  1.
          2    1    1    2  501    0 -0.38204495260E+02  0.23543950196E+01 -0.31863619915E+01  0.38409367825E+02  0.00000000000E+00 0. -1.
         -2    1    1    2    0  502  0.38204495260E+02 -0.23543950196E+01 -0.65204401500E+02  0.75609130460E+02  0.00000000000E+00 0.  1.
<mgrwt>
<rscale>  2 0.38276973E+02</rscale>
<asrwt>0</asrwt>
<pdfrwt beam="1">  1       21 0.35098258E-02 0.38276973E+02</pdfrwt>
<pdfrwt beam="2">  1       21 0.14031482E-01 0.38276973E+02</pdfrwt>
<totfact> 0.18167310E+07</totfact>
</mgrwt>
</event>
<event>
 4    1  0.3862688E+004  0.2031608E+02  0.7546771E-02  0.1739114E+00
         21   -1    0    0  503  502  0.00000000000E+00  0.00000000000E+00  0.63053010661E+02  0.63053010661E+02  0.00000000000E+00 0.  1.
         21   -1    0    0  501  503 -0.00000000000E+00 -0.00000000000E+00 -0.75362603584E+01  0.75362603584E+01  0.00000000000E+00 0.  1.
          3    1    1    2  501    0  0.32622970306E+01 -0.20052448060E+02  0.14964221957E+02  0.25232344202E+02  0.00000000000E+00 0.  1.
         -3    1    1    2    0  502 -0.32622970306E+01  0.20052448060E+02  0.40552528346E+02  0.45356926818E+02  0.00000000000E+00 0. -1.
<mgrwt>
<rscale>  2 0.20316084E+02</rscale>
<asrwt>0</asrwt>
<pdfrwt beam="1">  1       21 0.97004628E-02 0.20316084E+02</pdfrwt>
<pdfrwt beam="2">  1       21 0.11594247E-02 0.20316084E+02</pdfrwt>
<totfact> 0.16171899E+08</totfact>
</mgrwt>
</event>
<event>
 4    1  0.3862688E+004  0.2447294E+02  0.7546771E-02  0.1668690E+00
         21   -1    0    0  501  502  0.00000000000E+00  0.00000000000E+00  0.17855847193E+02  0.17855847193E+02  0.00000000000E+00 0. -1.
         21   -1    0    0  502  503 -0.00000000000E+00 -0.00000000000E+00 -0.36464397142E+02  0.36464397142E+02  0.00000000000E+00 0. -1.
          5    1    1    2  501    0 -0.10094086090E+02 -0.22294268270E+02 -0.16992915697E+02  0.29794028857E+02  0.00000000000E+00 0.  1.
         -5    1    1    2    0  503  0.10094086090E+02  0.22294268270E+02 -0.16156342520E+01  0.24526215479E+02  0.00000000000E+00 0. -1.
<mgrwt>
<rscale>  2 0.24472944E+02</rscale>
<asrwt>0</asrwt>
<pdfrwt beam="1">  1       21 0.27470534E-02 0.24472944E+02</pdfrwt>
<pdfrwt beam="2">  1       21 0.56099072E-02 0.24472944E+02</pdfrwt>
<totfact> 0.11136382E+08</totfact>
</mgrwt>
</event>
<event>
 4    1  0.3862688E+004  0.3662362E+02  0.7546771E-02  0.1534638E+00
         21   -1    0    0  501  502  0.00000000000E+00  0.00000000000E+00  0.24696264989E+01  0.24696264989E+01  0.00000000000E+00 0.  1.
         21   -1    0    0  502  503 -0.00000000000E+00 -0.00000000000E+00 -0.57394649830E+03  0.57394649830E+03  0.00000000000E+00 0.  1.
          1    1    1    2  501    0  0.31684834261E+02  0.18367379006E+02 -0.35253791047E+03  0.35443513885E+03  0.00000000000E+00 0. -1.
         -1    1    1    2    0  503 -0.31684834261E+02 -0.18367379006E+02 -0.21893896133E+03  0.22198098594E+03  0.00000000000E+00 0.  1.
<mgrwt>
<rscale>  2 0.36623617E+02</rscale>
<asrwt>0</asrwt>
<pdfrwt beam="1">  1       21 0.37994259E-03 0.36623617E+02</pdfrwt>
<pdfrwt beam="2">  1       21 0.88299449E-01 0.36623617E+02</pdfrwt>
<totfact> 0.16297933E+07</totfact>
</mgrwt>
</event>
<event>
 4    1  0.3862688E+004  0.2841063E+02  0.7546771E-02  0.1616352E+00
         21   -1    0    0  503  502  0.00000000000E+00  0.00000000000E+00  0.11234959673E+03  0.11234959673E+03  0.00000000000E+00 0. -1.
         21   -1    0    0  501  503 -0.00000000000E+00 -0.00000000000E+00 -0.75876911293E+01  0.75876911293E+01  0.00000000000E+00 0. -1.
          5    1    1    2  501    0 -0.42551181900E+01 -0.28090178181E+02  0.66206431808E+02  0.72044817675E+02  0.00000000000E+00 0.  1.
         -5    1    1    2    0  502  0.42551181900E+01  0.28090178181E+02  0.38555473797E+02  0.47892470189E+02  0.00000000000E+00 0. -1.
<mgrwt>
<rscale>  2 0.28410634E+02</rscale>
<asrwt>0</asrwt>
<pdfrwt beam="1">  1       21 0.17284552E-01 0.28410634E+02</pdfrwt>
<pdfrwt beam="2">  1       21 0.11673372E-02 0.28410634E+02</pdfrwt>
<totfact> 0.66196502E+07</totfact>
</mgrwt>
</event>
<event>
 4    1  0.3862688E+004  0.2125246E+02  0.7546771E-02  0.1721510E+00
         21   -1    0    0  501  502  0.00000000000E+00  0.00000000000E+00  0.51769297496E+02  0.51769297496E+02  0.00000000000E+00 0. -1.
         21   -1    0    0  502  503 -0.00000000000E+00 -0.00000000000E+00 -0.10200255226E+02  0.10200255226E+02  0.00000000000E+00 0. -1.
          2    1    1    2  501    0  0.20326926063E+02 -0.62034657006E+01  0.32569637746E+02  0.38890207158E+02  0.00000000000E+00 0.  1.
         -2    1    1    2    0  503 -0.20326926063E+02  0.62034657006E+01  0.89994045246E+01  0.23079345564E+02  0.00000000000E+00 0. -1.
<mgrwt>
<rscale>  2 0.21252457E+02</rscale>
<asrwt>0</asrwt>
<pdfrwt beam="1">  1       21 0.79645072E-02 0.21252457E+02</pdfrwt>
<pdfrwt beam="2">  1       21 0.15692701E-02 0.21252457E+02</pdfrwt>
<totfact> 0.14330976E+08</totfact>
</mgrwt>
</event>
<event>
 4    1  0.3862688E+004  0.2154279E+02  0.7546771E-02  0.1716281E+00
         21   -1    0    0  503  502  0.00000000000E+00  0.00000000000E+00  0.96152201038E+02  0.96152201038E+02  0.00000000000E+00 0.  1.
         21   -1    0    0  501  503 -0.00000000000E+00 -0.00000000000E+00 -0.56316959039E+01  0.56316959039E+01  0.00000000000E+00 0.  1.
          5    1    1    2  501    0  0.94425822883E+01 -0.19363093580E+02  0.26018556085E+02  0.33779535432E+02  0.00000000000E+00 0. -1.
         -5    1    1    2    0  502 -0.94425822883E+01  0.19363093580E+02  0.64501949049E+02  0.68004361510E+02  0.00000000000E+00 0.  1.
<mgrwt>
<rscale>  2 0.21542789E+02</rscale>
<asrwt>0</asrwt>
<pdfrwt beam="1">  1       21 0.14792645E-01 0.21542789E+02</pdfrwt>
<pdfrwt beam="2">  1       21 0.86641483E-03 0.21542789E+02</pdfrwt>
<totfact> 0.12594040E+08</totfact>
</mgrwt>
</event>
<event>
 4    1  0.3862688E+004  0.2796731E+02  0.7546771E-02  0.1621709E+00
         21   -1    0    0  501  502  0.00000000000E+00  0.00000000000E+00  0.26638990604E+03  0.26638990604E+03  0.00000000000E+00 0.  1.
         21   -1    0    0  502  503 -0.00000000000E+00 -0.00000000000E+00 -0.31049610048E+01  0.31049610048E+01  0.00000000000E+00 0.  1.
          4    1    1    2  501    0 -0.19875778375E+02  0.19675462851E+02  0.10022682263E+03  0.10405568883E+03  0.00000000000E+00 0. -1.
         -4    1    1    2    0  503  0.19875778375E+02 -0.19675462851E+02  0.16305812241E+03  0.16543917821E+03  0.00000000000E+00 0.  1.
<mgrwt>
<rscale>  2 0.27967310E+02</rscale>
<asrwt>0</asrwt>
<pdfrwt beam="1">  1       21 0.40983044E-01 0.27967310E+02</pdfrwt>
<pdfrwt beam="2">  1       21 0.47768652E-03 0.27967310E+02</pdfrwt>
<totfact> 0.52650523E+07</totfact>
</mgrwt>
</event>
<event>
 4    1  0.3862688E+004  0.5158608E+02  0.7546771E-02  0.1436970E+00
         21   -1    0    0  503  502  0.00000000000E+00  0.00000000000E+00  0.40699027231E+01  0.40699027231E+01  0.00000000000E+00 0.  1.
         21   -1    0    0  501  503 -0.00000000000E+00 -0.00000000000E+00 -0.65562829282E+03  0.65562829282E+03  0.00000000000E+00 0.  1.
          1    1    1    2  501    0 -0.99446657698E+01  0.50618452638E+02 -0.30862222989E+03  0.31290382693E+03  0.00000000000E+00 0. -1.
         -1    1    1    2    0  502  0.99446657698E+01 -0.50618452638E+02 -0.34293616021E+03  0.34679436861E+03  0.00000000000E+00 0.  1.
<mgrwt>
<rscale>  2 0.51586085E+02</rscale>
<asrwt>0</asrwt>
<pdfrwt beam="1">  1       21 0.62613899E-03 0.51586085E+02</pdfrwt>
<pdfrwt beam="2">  1       21 0.10086587E+00 0.51586085E+02</pdfrwt>
<totfact> 0.59371595E+06</totfact>
</mgrwt>
</event>
<event>
 4    1  0.3862688E+004  0.2502831E+02  0.7546771E-02  0.1660596E+00
         21   -1    0    0  503  502  0.00000000000E+00  0.00000000000E+00  0.27377014379E+02  0.27377014379E+02  0.00000000000E+00 0.  1.
         21   -1    0    0  501  503 -0.00000000000E+00 -0.00000000000E+00 -0.27288768797E+02  0.27288768797E+02  0.00000000000E+00 0.  1.
          1    1    1    2  501    0 -0.11175854187E+02 -0.22394570397E+02  0.11029059300E+02  0.27350624291E+02  0.00000000000E+00 0. -1.
         -1    1    1    2    0  502  0.11175854187E+02  0.22394570397E+02 -0.10940813717E+02  0.27315158884E+02  0.00000000000E+00 0.  1.
<mgrwt>
<rscale>  2 0.25028314E+02</rscale>
<asrwt>0</asrwt>
<pdfrwt beam="1">  1       21 0.42118483E-02 0.25028314E+02</pdfrwt>
<pdfrwt beam="2">  1       21 0.41982721E-02 0.25028314E+02</pdfrwt>
<totfact> 0.90932300E+07</totfact>
</mgrwt>
</event>
<event>
 4    1  0.3862688E+004  0.2011273E+02  0.7546771E-02  0.1743096E+00
         21   -1    0    0  501  502  0.00000000000E+00  0.00000000000E+00  0.97681494855E+03  0.97681494855E+03  0.00000000000E+00 0. -1.
         21   -1    0    0  502  503 -0.00000000000E+00 -0.00000000000E+00 -0.54252880656E+00  0.54252880656E+00  0.00000000000E+00 0. -1.
          2    1    1    2  501    0  0.17507782579E+02  0.98994592406E+01  0.25039524782E+03  0.25120171551E+03  0.00000000000E+00 0.  1.
         -2    1    1    2    0  503 -0.17507782579E+02 -0.98994592406E+01  0.72587717192E+03  0.72615576185E+03  0.00000000000E+00 0. -1.
<mgrwt>
<rscale>  2 0.20112726E+02</rscale>
<asrwt>0</asrwt>
<pdfrwt beam="1">  1       21 0.15027782E+00 0.20112726E+02</pdfrwt>
<pdfrwt beam="2">  1       21 0.83466752E-04 0.20112726E+02</pdfrwt>
<totfact> 0.39584631E+07</totfact>
</mgrwt>
</event>
<event>
 4    1  0.3862688E+004  0.2399321E+02  0.7546771E-02  0.1675899E+00
         21   -1    0    0  503  502  0.00000000000E+00  0.00000000000E+00  0.36165843825E+02  0.36165843825E+02  0.00000000000E+00 0. -1.
         21   -1    0    0  501  503 -0.00000000000E+00 -0.00000000000E+00 -0.16703621605E+02  0.16703621605E+02  0.00000000000E+00 0. -1.
          1    1    1    2  501    0  0.23719806931E+02  0.36117771194E+01  0.39968007109E+01  0.24323827633E+02  0.00000000000E+00 0.  1.
         -1    1    1    2    0  502 -0.23719806931E+02 -0.36117771194E+01  0.15465421509E+02  0.28545637798E+02  0.00000000000E+00 0. -1.
<mgrwt>
<rscale>  2 0.23993211E+02</rscale>
<asrwt>0</asrwt>
<pdfrwt beam="1">  1       21 0.55639760E-02 0.23993211E+02</pdfrwt>
<pdfrwt beam="2">  1       21 0.25697879E-02 0.23993211E+02</pdfrwt>
<totfact> 0.12444239E+08</totfact>
</mgrwt>
</event>
<event>
 4    1  0.3862688E+004  0.2546595E+02  0.7546771E-02  0.1654398E+00
         21   -1    0    0  501  502  0.00000000000E+00  0.00000000000E+00  0.12253992884E+02  0.12253992884E+02  0.00000000000E+00 0. -1.
         21   -1    0    0  502  503 -0.00000000000E+00 -0.00000000000E+00 -0.56597131374E+02  0.56597131374E+02  0.00000000000E+00 0. -1.
          2    1    1    2  501    0 -0.37407773314E+01  0.25189708577E+02 -0.30943127650E+02  0.40074829782E+02  0.00000000000E+00 0. -1.
         -2    1    1    2    0  503  0.37407773314E+01 -0.25189708577E+02 -0.13400010841E+02  0.28776294476E+02  0.00000000000E+00 0.  1.
<mgrwt>
<rscale>  2 0.25465954E+02</rscale>
<asrwt>0</asrwt>
<pdfrwt beam="1">  1       21 0.18852297E-02 0.25465954E+02</pdfrwt>
<pdfrwt beam="2">  1       21 0.87072511E-02 0.25465954E+02</pdfrwt>
<totfact> 0.98601179E+07</totfact>
</mgrwt>
</event>
<event>
 4    1  0.3862688E+004  0.2147841E+02  0.7546771E-02  0.1717432E+00
         21   -1    0    0  503  502  0.00000000000E+00  0.00000000000E+00  0.74892189548E+01  0.74892189548E+01  0.00000000000E+00 0.  1.
         21   -1    0    0  501  503 -0.00000000000E+00 -0.00000000000E+00 -0.11855211985E+03  0.11855211985E+03  0.00000000000E+00 0.  1.
          5    1    1    2  501    0 -0.18667016934E+02  0.10623768852E+02 -0.99212229369E+02  0.10151053365E+03  0.00000000000E+00 0.  1.
         -5    1    1    2    0  502  0.18667016934E+02 -0.10623768852E+02 -0.11850671525E+02  0.24530805152E+02  0.00000000000E+00 0. -1.
<mgrwt>
<rscale>  2 0.21478407E+02</rscale>
<asrwt>0</asrwt>
<pdfrwt beam="1">  1       21 0.11521877E-02 0.21478407E+02</pdfrwt>
<pdfrwt beam="2">  1       21 0.18238786E-01 0.21478407E+02</pdfrwt>
<totfact> 0.57381802E+07</totfact>
</mgrwt>
</event>
<event>
 4    1  0.3862688E+004  0.2677842E+02  0.7546771E-02  0.1636698E+00
         21   -1    0    0  503  502  0.00000000000E+00  0.00000000000E+00  0.71505282463E+01  0.71505282463E+01  0.00000000000E+00 0.  1.
         21   -1    0    0  501  503 -0.00000000000E+00 -0.00000000000E+00 -0.34274739964E+03  0.34274739964E+03  0.00000000000E+00 0.  1.
          1    1    1    2  501    0  0.23995562577E+02  0.11886832975E+02 -0.20652810417E+02  0.33817486596E+02  0.00000000000E+00 0.  1.
         -1    1    1    2    0  502 -0.23995562577E+02 -0.11886832975E+02 -0.31494406097E+03  0.31608044129E+03  0.00000000000E+00 0. -1.
<mgrwt>
<rscale>  2 0.26778421E+02</rscale>
<asrwt>0</asrwt>
<pdfrwt beam="1">  1       21 0.11000812E-02 0.26778421E+02</pdfrwt>
<pdfrwt beam="2">  1       21 0.52730371E-01 0.26778421E+02</pdfrwt>
<totfact> 0.91845852E+06</totfact>
</mgrwt>
</event>
<event>
 4    1  0.3862688E+004  0.2415870E+02  0.7546771E-02  0.1673388E+00
         21   -1    0    0  501  502  0.00000000000E+00  0.00000000000E+00  0.15916024657E+02  0.15916024657E+02  0.00000000000E+00 0.  1.
         21   -1    0    0  502  503 -0.00000000000E+00 -0.00000000000E+00 -0.40116086346E+02  0.40116086346E+02  0.00000000000E+00 0.  1.
          3    1    1    2  501    0 -0.24158509931E+02  0.96084945606E-01 -0.38889176874E+01  0.24469706071E+02  0.00000000000E+00 0. -1.
         -3    1    1    2    0  503  0.24158509931E+02 -0.96084945606E-01 -0.20311144002E+02  0.31562404932E+02  0.00000000000E+00 0.  1.
<mgrwt>
<rscale>  2 0.24158701E+02</rscale>
<asrwt>0</asrwt>
<pdfrwt beam="1">  1       21 0.24486192E-02 0.24158701E+02</pdfrwt>
<pdfrwt beam="2">  1       21 0.61717056E-02 0.24158701E+02</pdfrwt>
<totfact> 0.11375826E+08</totfact>
</mgrwt>
</event>
<event>
 4    1  0.3862688E+004  0.2962997E+02  0.7546771E-02  0.1602215E+00
         21   -1    0    0  501  502  0.00000000000E+00  0.00000000000E+00  0.57213241333E+01  0.57213241333E+01  0.00000000000E+00 0.  1.
         21   -1    0    0  502  503 -0.00000000000E+00 -0.00000000000E+00 -0.16913846271E+03  0.16913846271E+03  0.00000000000E+00 0.  1.
          5    1    1    2  501    0 -0.18187353617E+02 -0.23391347137E+02 -0.10833631268E+03  0.11231514412E+03  0.00000000000E+00 0. -1.
         -5    1    1    2    0  503  0.18187353617E+02  0.23391347137E+02 -0.55080825891E+02  0.62544642723E+02  0.00000000000E+00 0.  1.
<mgrwt>
<rscale>  2 0.29629967E+02</rscale>
<asrwt>0</asrwt>
<pdfrwt beam="1">  1       21 0.88020361E-03 0.29629967E+02</pdfrwt>
<pdfrwt beam="2">  1       21 0.26021305E-01 0.29629967E+02</pdfrwt>
<totfact> 0.49640682E+07</totfact>
</mgrwt>
</event>
<event>
 4    1  0.3862688E+004  0.2652528E+02  0.7546771E-02  0.1640013E+00
         21   -1    0    0  501  502  0.00000000000E+00  0.00000000000E+00  0.31186573710E+02  0.31186573710E+02  0.00000000000E+00 0. -1.
         21   -1    0    0  502  503 -0.00000000000E+00 -0.00000000000E+00 -0.22618702646E+02  0.22618702646E+02  0.00000000000E+00 0. -1.
          3    1    1    2  501    0  0.17359680314E+02 -0.20055723020E+02  0.56464269758E+01  0.27119599261E+02  0.00000000000E+00 0. -1.
         -3    1    1    2    0  503 -0.17359680314E+02  0.20055723020E+02  0.29214440885E+01  0.26685677095E+02  0.00000000000E+00 0.  1.
<mgrwt>
<rscale>  2 0.26525281E+02</rscale>
<asrwt>0</asrwt>
<pdfrwt beam="1">  1       21 0.47979344E-02 0.26525281E+02</pdfrwt>
<pdfrwt beam="2">  1       21 0.34798004E-02 0.26525281E+02</pdfrwt>
<totfact> 0.10094503E+08</totfact>
</mgrwt>
</event>
<event>
 4    1  0.3862688E+004  0.2354025E+02  0.7546771E-02  0.1682900E+00
         21   -1    0    0  503  502  0.00000000000E+00  0.00000000000E+00  0.20756137624E+01  0.20756137624E+01  0.00000000000E+00 0.  1.
         21   -1    0    0  501  503 -0.00000000000E+00 -0.00000000000E+00 -0.32489540348E+03  0.32489540348E+03  0.00000000000E+00 0.  1.
          4    1    1    2  501    0  0.89951033636E+01  0.21753881969E+02 -0.23043577026E+03  0.23163503077E+03  0.00000000000E+00 0. -1.
         -4    1    1    2    0  502 -0.89951033636E+01 -0.21753881969E+02 -0.92384019463E+02  0.95335986476E+02  0.00000000000E+00 0.  1.
<mgrwt>
<rscale>  2 0.23540248E+02</rscale>
<asrwt>0</asrwt>
<pdfrwt beam="1">  1       21 0.31932512E-03 0.23540248E+02</pdfrwt>
<pdfrwt beam="2">  1       21 0.49983920E-01 0.23540248E+02</pdfrwt>
<totfact> 0.62488145E+07</totfact>
</mgrwt>
</event>
<event>
 4    1  0.3862688E+004  0.2068391E+02  0.7546771E-02  0.1732060E+00
         21   -1    0    0  501  502  0.00000000000E+00  0.00000000000E+00  0.42754420346E+03  0.42754420346E+03  0.00000000000E+00 0. -1.
         21   -1    0    0  502  503 -0.00000000000E+00 -0.00000000000E+00 -0.13158829699E+01  0.13158829699E+01  0.00000000000E+00 0. -1.
          2    1    1    2  501    0 -0.96107692427E+01  0.18315486579E+02  0.31806595586E+03  0.31873778598E+03  0.00000000000E+00 0.  1.
         -2    1    1    2    0  503  0.96107692427E+01 -0.18315486579E+02  0.10816236463E+03  0.11012230045E+03  0.00000000000E+00 0. -1.
<mgrwt>
<rscale>  2 0.20683905E+02</rscale>
<asrwt>0</asrwt>
<pdfrwt beam="1">  1       21 0.65775920E-01 0.20683905E+02</pdfrwt>
<pdfrwt beam="2">  1       21 0.20244388E-03 0.20683905E+02</pdfrwt>
<totfact> 0.68018265E+07</totfact>
</mgrwt>
</event>
<event>
 4    1  0.3862688E+004  0.2123906E+02  0.7546771E-02  0.1721754E+00
         21   -1    0    0  503  502  0.00000000000E+00  0.00000000000E+00  0.17002278829E+03  0.17002278829E+03  0.00000000000E+00 0. -1.
         21   -1    0    0  501  503 -0.00000000000E+00 -0.00000000000E+00 -0.26787405851E+01  0.26787405851E+01  0.00000000000E+00 0. -1.
          3    1    1    2  501    0 -0.19214022335E+02 -0.90509023334E+01  0.92110514326E+02  0.94527479267E+02  0.00000000000E+00 0.  1.
         -3    1    1    2    0  502  0.19214022335E+02  0.90509023334E+01  0.75233533377E+02  0.78174049606E+02  0.00000000000E+00 0. -1.
<mgrwt>
<rscale>  2 0.21239056E+02</rscale>
<asrwt>0</asrwt>
<pdfrwt beam="1">  1       21 0.26157344E-01 0.21239056E+02</pdfrwt>
<pdfrwt beam="2">  1       21 0.41211407E-03 0.21239056E+02</pdfrwt>
<totfact> 0.13966507E+08</totfact>
</mgrwt>
</event>
<event>
 4    1  0.3862688E+004  0.2192129E+02  0.7546771E-02  0.1709617E+00
         21   -1    0    0  503  502  0.00000000000E+00  0.00000000000E+00  0.27863743544E+02  0.27863743544E+02  0.00000000000E+00 0. -1.
         21   -1    0    0  501  503 -0.00000000000E+00 -0.00000000000E+00 -0.22120238168E+02  0.22120238168E+02  0.00000000000E+00 0. -1.
          3    1    1    2  501    0  0.15687355670E+02  0.15311757174E+02  0.14603196620E+02  0.26340014942E+02  0.00000000000E+00 0.  1.
         -3    1    1    2    0  502 -0.15687355670E+02 -0.15311757174E+02 -0.88596912437E+01  0.23643966769E+02  0.00000000000E+00 0. -1.
<mgrwt>
<rscale>  2 0.21921292E+02</rscale>
<asrwt>0</asrwt>
<pdfrwt beam="1">  1       21 0.42867298E-02 0.21921292E+02</pdfrwt>
<pdfrwt beam="2">  1       21 0.34031136E-02 0.21921292E+02</pdfrwt>
<totfact> 0.11846987E+08</totfact>
</mgrwt>
</event>
<event>
 4    1  0.3862688E+004  0.2176767E+02  0.7546771E-02  0.1712301E+00
         21   -1    0    0  501  502  0.00000000000E+00  0.00000000000E+00  0.66417216924E+02  0.66417216924E+02  0.00000000000E+00 0.  1.
         21   -1    0    0  502  503 -0.00000000000E+00 -0.00000000000E+00 -0.71343015654E+01  0.71343015654E+01  0.00000000000E+00 0.  1.
          3    1    1    2  501    0 -0.70703230590E+01  0.20587426167E+02  0.29800574262E+02  0.36904008058E+02  0.00000000000E+00 0. -1.
         -3    1    1    2    0  503  0.70703230590E+01 -0.20587426167E+02  0.29482341097E+02  0.36647510432E+02  0.00000000000E+00 0.  1.
<mgrwt>
<rscale>  2 0.21767673E+02</rscale>
<asrwt>0</asrwt>
<pdfrwt beam="1">  1       21 0.10218033E-01 0.21767673E+02</pdfrwt>
<pdfrwt beam="2">  1       21 0.10975849E-02 0.21767673E+02</pdfrwt>
<totfact> 0.16465650E+08</totfact>
</mgrwt>
</event>
<event>
 4    1  0.3862688E+004  0.2467645E+02  0.7546771E-02  0.1665693E+00
         21   -1    0    0  501  502  0.00000000000E+00  0.00000000000E+00  0.97895028978E+01  0.97895028978E+01  0.00000000000E+00 0. -1.
         21   -1    0    0  502  503 -0.00000000000E+00 -0.00000000000E+00 -0.62380237857E+02  0.62380237857E+02  0.00000000000E+00 0. -1.
          4    1    1    2  501    0 -0.42345335491E+01  0.24310410199E+02 -0.28223867117E+02  0.37490185295E+02  0.00000000000E+00 0. -1.
         -4    1    1    2    0  503  0.42345335491E+01 -0.24310410199E+02 -0.24366867842E+02  0.34679555459E+02  0.00000000000E+00 0.  1.
<mgrwt>
<rscale>  2 0.24676453E+02</rscale>
<asrwt>0</asrwt>
<pdfrwt beam="1">  1       21 0.15060774E-02 0.24676453E+02</pdfrwt>
<pdfrwt beam="2">  1       21 0.95969595E-02 0.24676453E+02</pdfrwt>
<totfact> 0.11741993E+08</totfact>
</mgrwt>
</event>
<event>
 4    1  0.3862688E+004  0.3266887E+02  0.7546771E-02  0.1570333E+00
         21   -1    0    0  501  502  0.00000000000E+00  0.00000000000E+00  0.38265710577E+02  0.38265710577E+02  0.00000000000E+00 0.  1.
         21   -1    0    0  502  503 -0.00000000000E+00 -0.00000000000E+00 -0.29498165410E+02  0.29498165410E+02  0.00000000000E+00 0.  1.
          2    1    1    2  501    0  0.11986392555E+02  0.30390482109E+02 -0.35257485070E+01  0.32858574403E+02  0.00000000000E+00 0. -1.
         -2    1    1    2    0  503 -0.11986392555E+02 -0.30390482109E+02  0.12293293674E+02  0.34905301584E+02  0.00000000000E+00 0.  1.
<mgrwt>
<rscale>  2 0.32668869E+02</rscale>
<asrwt>0</asrwt>
<pdfrwt beam="1">  1       21 0.58870324E-02 0.32668869E+02</pdfrwt>
<pdfrwt beam="2">  1       21 0.45381793E-02 0.32668869E+02</pdfrwt>
<totfact> 0.50012088E+07</totfact>
</mgrwt>
</event>
<event>
 4    1  0.3862688E+004  0.2098268E+02  0.7546771E-02  0.1726464E+00
         21   -1    0    0  501  502  0.00000000000E+00  0.00000000000E+00  0.86128424496E+00  0.86128424496E+00  0.00000000000E+00 0.  1.
         21   -1    0    0  502  503 -0.00000000000E+00 -0.00000000000E+00 -0.55816170608E+03  0.55816170608E+03  0.00000000000E+00 0.  1.
          5    1    1    2  501    0  0.46071828925E+01  0.20470632187E+02 -0.35974169839E+03  0.36035310805E+03  0.00000000000E+00 0. -1.
         -5    1    1    2    0  503 -0.46071828925E+01 -0.20470632187E+02 -0.19755872345E+03  0.19866988228E+03  0.00000000000E+00 0.  1.
<mgrwt>
<rscale>  2 0.20982681E+02</rscale>
<asrwt>0</asrwt>
<pdfrwt beam="1">  1       21 0.13250486E-03 0.20982681E+02</pdfrwt>
<pdfrwt beam="2">  1       21 0.85871298E-01 0.20982681E+02</pdfrwt>
<totfact> 0.72227805E+07</totfact>
</mgrwt>
</event>
<event>
 4    1  0.3862688E+004  0.2251399E+02  0.7546771E-02  0.1699512E+00
         21   -1    0    0  503  502  0.00000000000E+00  0.00000000000E+00  0.32620401559E+00  0.32620401559E+00  0.00000000000E+00 0.  1.
         21   -1    0    0  501  503 -0.00000000000E+00 -0.00000000000E+00 -0.20618769985E+04  0.20618769985E+04  0.00000000000E+00 0.  1.
          1    1    1    2  501    0  0.20020338423E+02  0.10298820017E+02 -0.51897147738E+03  0.51945959802E+03  0.00000000000E+00 0.  1.
         -1    1    1    2    0  502 -0.20020338423E+02 -0.10298820017E+02 -0.15425793171E+04  0.15427436045E+04  0.00000000000E+00 0. -1.
<mgrwt>
<rscale>  2 0.22513988E+02</rscale>
<asrwt>0</asrwt>
<pdfrwt beam="1">  1       21 0.50186521E-04 0.22513988E+02</pdfrwt>
<pdfrwt beam="2">  1       21 0.31720371E+00 0.22513988E+02</pdfrwt>
<totfact> 0.10648073E+07</totfact>
</mgrwt>
</event>
<event>
 4    1  0.3862688E+004  0.3267330E+02  0.7546771E-02  0.1570289E+00
         21   -1    0    0  501  502  0.00000000000E+00  0.00000000000E+00  0.26130947025E+02  0.26130947025E+02  0.00000000000E+00 0.  1.
         21   -1    0    0  502  503 -0.00000000000E+00 -0.00000000000E+00 -0.41142306164E+02  0.41142306164E+02  0.00000000000E+00 0.  1.
          1    1    1    2  501    0 -0.30382947292E+02  0.12017540864E+02 -0.10323105272E+02  0.34265307193E+02  0.00000000000E+00 0. -1.
         -1    1    1    2    0  503  0.30382947292E+02 -0.12017540864E+02 -0.46882538674E+01  0.33007945996E+02  0.00000000000E+00 0.  1.
<mgrwt>
<rscale>  2 0.32673304E+02</rscale>
<asrwt>0</asrwt>
<pdfrwt beam="1">  1       21 0.40201457E-02 0.32673304E+02</pdfrwt>
<pdfrwt beam="2">  1       21 0.63295855E-02 0.32673304E+02</pdfrwt>
<totfact> 0.53961660E+07</totfact>
</mgrwt>
</event>
<event>
 4    1  0.3862688E+004  0.3217358E+02  0.7546771E-02  0.1575235E+00
         21   -1    0    0  503  502  0.00000000000E+00  0.00000000000E+00  0.30522470148E+01  0.30522470148E+01  0.00000000000E+00 0. -1.
         21   -1    0    0  501  503 -0.00000000000E+00 -0.00000000000E+00 -0.37798939187E+03  0.37798939187E+03  0.00000000000E+00 0. -1.
          1    1    1    2  501    0 -0.22579084019E+02  0.22919955961E+02 -0.12638926821E+03  0.13042003885E+03  0.00000000000E+00 0. -1.
         -1    1    1    2    0  502  0.22579084019E+02 -0.22919955961E+02 -0.24854787664E+03  0.25062160003E+03  0.00000000000E+00 0.  1.
<mgrwt>
<rscale>  2 0.32173583E+02</rscale>
<asrwt>0</asrwt>
<pdfrwt beam="1">  1       21 0.46957662E-03 0.32173583E+02</pdfrwt>
<pdfrwt beam="2">  1       21 0.58152195E-01 0.32173583E+02</pdfrwt>
<totfact> 0.27956112E+07</totfact>
</mgrwt>
</event>
<event>
 4    1  0.3862688E+004  0.2083580E+02  0.7546771E-02  0.1729200E+00
         21   -1    0    0  503  502  0.00000000000E+00  0.00000000000E+00  0.66736441829E+00  0.66736441829E+00  0.00000000000E+00 0. -1.
         21   -1    0    0  501  503 -0.00000000000E+00 -0.00000000000E+00 -0.71335683218E+03  0.71335683218E+03  0.00000000000E+00 0. -1.
          5    1    1    2  501    0  0.17681849629E+02 -0.11021919658E+02 -0.25038175110E+03  0.25124719263E+03  0.00000000000E+00 0.  1.
         -5    1    1    2    0  502 -0.17681849629E+02  0.11021919658E+02 -0.46230771666E+03  0.46277700397E+03  0.00000000000E+00 0. -1.
<mgrwt>
<rscale>  2 0.20835799E+02</rscale>
<asrwt>0</asrwt>
<pdfrwt beam="1">  1       21 0.10267140E-03 0.20835799E+02</pdfrwt>
<pdfrwt beam="2">  1       21 0.10974726E+00 0.20835799E+02</pdfrwt>
<totfact> 0.60948460E+07</totfact>
</mgrwt>
</event>
<event>
 4    1  0.3862688E+004  0.2809130E+02  0.7546771E-02  0.1620199E+00
         21   -1    0    0  501  502  0.00000000000E+00  0.00000000000E+00  0.60131302940E+02  0.60131302940E+02  0.00000000000E+00 0.  1.
         21   -1    0    0  502  503 -0.00000000000E+00 -0.00000000000E+00 -0.14129043432E+02  0.14129043432E+02  0.00000000000E+00 0.  1.
          1    1    1    2  501    0  0.28081550116E+02 -0.74000991656E+00  0.32907496438E+02  0.43266897202E+02  0.00000000000E+00 0.  1.
         -1    1    1    2    0  503 -0.28081550116E+02  0.74000991656E+00  0.13094763069E+02  0.30993449170E+02  0.00000000000E+00 0. -1.
<mgrwt>
<rscale>  2 0.28091299E+02</rscale>
<asrwt>0</asrwt>
<pdfrwt beam="1">  1       21 0.92509696E-02 0.28091299E+02</pdfrwt>
<pdfrwt beam="2">  1       21 0.21736990E-02 0.28091299E+02</pdfrwt>
<totfact> 0.73420292E+07</totfact>
</mgrwt>
</event>
<event>
 4    1  0.3862688E+004  0.2016586E+02  0.7546771E-02  0.1742050E+00
         21   -1    0    0  503  502  0.00000000000E+00  0.00000000000E+00  0.36189929983E+02  0.36189929983E+02  0.00000000000E+00 0. -1.
         21   -1    0    0  501  503 -0.00000000000E+00 -0.00000000000E+00 -0.11407623505E+02  0.11407623505E+02  0.00000000000E+00 0. -1.
          3    1    1    2  501    0 -0.67882653386E+01 -0.18988982437E+02  0.94795939975E+01  0.22282834260E+02  0.00000000000E+00 0.  1.
         -3    1    1    2    0  502  0.67882653386E+01  0.18988982437E+02  0.15302712480E+02  0.25314719228E+02  0.00000000000E+00 0. -1.
<mgrwt>
<rscale>  2 0.20165862E+02</rscale>
<asrwt>0</asrwt>
<pdfrwt beam="1">  1       21 0.55676815E-02 0.20165862E+02</pdfrwt>
<pdfrwt beam="2">  1       21 0.17550190E-02 0.20165862E+02</pdfrwt>
<totfact> 0.21151280E+08</totfact>
</mgrwt>
</event>
<event>
 4    1  0.3862688E+004  0.2648856E+02  0.7546771E-02  0.1640498E+00
         21   -1    0    0  503  502  0.00000000000E+00  0.00000000000E+00  0.30032598166E+03  0.30032598166E+03  0.00000000000E+00 0. -1.
         21   -1    0    0  501  503 -0.00000000000E+00 -0.00000000000E+00 -0.23498702290E+01  0.23498702290E+01  0.00000000000E+00 0. -1.
          1    1    1    2  501    0 -0.22597350787E+02  0.13820394820E+02  0.16049993103E+03  0.16267105285E+03  0.00000000000E+00 0. -1.
         -1    1    1    2    0  502  0.22597350787E+02 -0.13820394820E+02  0.13747618041E+03  0.14000479904E+03  0.00000000000E+00 0.  1.
<mgrwt>
<rscale>  2 0.26488556E+02</rscale>
<asrwt>0</asrwt>
<pdfrwt beam="1">  1       21 0.46203967E-01 0.26488556E+02</pdfrwt>
<pdfrwt beam="2">  1       21 0.36151873E-03 0.26488556E+02</pdfrwt>
<totfact> 0.62358483E+07</totfact>
</mgrwt>
</event>
<event>
 4    1  0.3862688E+004  0.2202591E+02  0.7546771E-02  0.1707804E+00
         21   -1    0    0  503  502  0.00000000000E+00  0.00000000000E+00  0.19181492246E+01  0.19181492246E+01  0.00000000000E+00 0.  1.
         21   -1    0    0  501  503 -0.00000000000E+00 -0.00000000000E+00 -0.31895367379E+03  0.31895367379E+03  0.00000000000E+00 0.  1.
          4    1    1    2  501    0  0.12588917601E+02 -0.18073728859E+02 -0.85518796584E+02  0.88309711190E+02  0.00000000000E+00 0.  1.
         -4    1    1    2    0  502 -0.12588917601E+02  0.18073728859E+02 -0.23151672798E+03  0.23256211183E+03  0.00000000000E+00 0. -1.
<mgrwt>
<rscale>  2 0.22025906E+02</rscale>
<asrwt>0</asrwt>
<pdfrwt beam="1">  1       21 0.29510033E-03 0.22025906E+02</pdfrwt>
<pdfrwt beam="2">  1       21 0.49069721E-01 0.22025906E+02</pdfrwt>
<totfact> 0.71475404E+07</totfact>
</mgrwt>
</event>
<event>
 4    1  0.3862688E+004  0.2401790E+02  0.7546771E-02  0.1675522E+00
         21   -1    0    0  503  502  0.00000000000E+00  0.00000000000E+00  0.10459827901E+01  0.10459827901E+01  0.00000000000E+00 0.  1.
         21   -1    0    0  501  503 -0.00000000000E+00 -0.00000000000E+00 -0.60457850582E+03  0.60457850582E+03  0.00000000000E+00 0.  1.
          3    1    1    2  501    0 -0.16896554057E+02 -0.17069448666E+02 -0.21204280368E+03  0.21339871183E+03  0.00000000000E+00 0.  1.
         -3    1    1    2    0  502  0.16896554057E+02  0.17069448666E+02 -0.39148971934E+03  0.39222577678E+03  0.00000000000E+00 0. -1.
<mgrwt>
<rscale>  2 0.24017902E+02</rscale>
<asrwt>0</asrwt>
<pdfrwt beam="1">  1       21 0.16092050E-03 0.24017902E+02</pdfrwt>
<pdfrwt beam="2">  1       21 0.93012035E-01 0.24017902E+02</pdfrwt>
<totfact> 0.47550675E+07</totfact>
</mgrwt>
</event>
<event>
 4    1  0.3862688E+004  0.2453402E+02  0.7546771E-02  0.1667787E+00
         21   -1    0    0  501  502  0.00000000000E+00  0.00000000000E+00  0.13201436895E+01  0.13201436895E+01  0.00000000000E+00 0. -1.
         21   -1    0    0  502  503 -0.00000000000E+00 -0.00000000000E+00 -0.46623262648E+03  0.46623262648E+03  0.00000000000E+00 0. -1.
          3    1    1    2  501    0 -0.21616192696E+02 -0.11604240896E+02 -0.26717566296E+03  0.26829974482E+03  0.00000000000E+00 0. -1.
         -3    1    1    2    0  503  0.21616192696E+02  0.11604240896E+02 -0.19773681983E+03  0.19925302535E+03  0.00000000000E+00 0.  1.
<mgrwt>
<rscale>  2 0.24534021E+02</rscale>
<asrwt>0</asrwt>
<pdfrwt beam="1">  1       21 0.20309890E-03 0.24534021E+02</pdfrwt>
<pdfrwt beam="2">  1       21 0.71728143E-01 0.24534021E+02</pdfrwt>
<totfact> 0.59085914E+07</totfact>
</mgrwt>
</event>
<event>
 4    1  0.3862688E+004  0.2181927E+02  0.7546771E-02  0.1711396E+00
         21   -1    0    0  503  502  0.00000000000E+00  0.00000000000E+00  0.22960656478E+02  0.22960656478E+02  0.00000000000E+00 0.  1.
         21   -1    0    0  501  503 -0.00000000000E+00 -0.00000000000E+00 -0.20780679920E+02  0.20780679920E+02  0.00000000000E+00 0.  1.
          3    1    1    2  501    0 -0.19380436535E+02 -0.10023931765E+02  0.21196279931E+01  0.21921983285E+02  0.00000000000E+00 0.  1.
         -3    1    1    2    0  502  0.19380436535E+02  0.10023931765E+02  0.60348564865E-01  0.21819353113E+02  0.00000000000E+00 0. -1.
<mgrwt>
<rscale>  2 0.21819270E+02</rscale>
<asrwt>0</asrwt>
<pdfrwt beam="1">  1       21 0.35324087E-02 0.21819270E+02</pdfrwt>
<pdfrwt beam="2">  1       21 0.31970277E-02 0.21819270E+02</pdfrwt>
<totfact> 0.17674510E+08</totfact>
</mgrwt>
</event>
<event>
 4    1  0.3862688E+004  0.7825309E+02  0.7546771E-02  0.1334083E+00
         21   -1    0    0  503  502  0.00000000000E+00  0.00000000000E+00  0.66362775506E+02  0.66362775506E+02  0.00000000000E+00 0.  1.
         21   -1    0    0  501  503 -0.00000000000E+00 -0.00000000000E+00 -0.96629903410E+02  0.96629903410E+02  0.00000000000E+00 0.  1.
          4    1    1    2  501    0  0.73095812683E+02  0.27938290768E+02 -0.32436949436E+02  0.84709513111E+02  0.00000000000E+00 0.  1.
         -4    1    1    2    0  502 -0.73095812683E+02 -0.27938290768E+02  0.21698215313E+01  0.78283165804E+02  0.00000000000E+00 0. -1.
<mgrwt>
<rscale>  2 0.78253089E+02</rscale>
<asrwt>0</asrwt>
<pdfrwt beam="1">  1       21 0.10209658E-01 0.78253089E+02</pdfrwt>
<pdfrwt beam="2">  1       21 0.14866139E-01 0.78253089E+02</pdfrwt>
<totfact> 0.30151314E+06</totfact>
</mgrwt>
</event>
<event>
 4    1  0.3862688E+004  0.2756324E+02  0.7546771E-02  0.1626699E+00
         21   -1    0    0  501  502  0.00000000000E+00  0.00000000000E+00  0.23408076027E+02  0.23408076027E+02  0.00000000000E+00 0. -1.
         21   -1    0    0  502  503 -0.00000000000E+00 -0.00000000000E+00 -0.35242823914E+02  0.35242823914E+02  0.00000000000E+00 0. -1.
          3    1    1    2  501    0 -0.27335726764E+02  0.35341525715E+01  0.23290408429E+01  0.27661464592E+02  0.00000000000E+00 0. -1.
         -3    1    1    2    0  503  0.27335726764E+02 -0.35341525715E+01 -0.14163788730E+02  0.30989435350E+02  0.00000000000E+00 0.  1.
<mgrwt>
<rscale>  2 0.27563240E+02</rscale>
<asrwt>0</asrwt>
<pdfrwt beam="1">  1       21 0.36012425E-02 0.27563240E+02</pdfrwt>
<pdfrwt beam="2">  1       21 0.54219729E-02 0.27563240E+02</pdfrwt>
<totfact> 0.79385644E+07</totfact>
</mgrwt>
</event>
<event>
 4    1  0.3862688E+004  0.2474535E+02  0.7546771E-02  0.1664687E+00
         21   -1    0    0  501  502  0.00000000000E+00  0.00000000000E+00  0.24071555215E+01  0.24071555215E+01  0.00000000000E+00 0.  1.
         21   -1    0    0  502  503 -0.00000000000E+00 -0.00000000000E+00 -0.25712784991E+03  0.25712784991E+03  0.00000000000E+00 0.  1.
          5    1    1    2  501    0  0.21208394619E+02 -0.12748972757E+02 -0.14077517281E+03  0.14293348659E+03  0.00000000000E+00 0. -1.
         -5    1    1    2    0  503 -0.21208394619E+02  0.12748972757E+02 -0.11394552157E+03  0.11660151884E+03  0.00000000000E+00 0.  1.
<mgrwt>
<rscale>  2 0.24745349E+02</rscale>
<asrwt>0</asrwt>
<pdfrwt beam="1">  1       21 0.37033168E-03 0.24745349E+02</pdfrwt>
<pdfrwt beam="2">  1       21 0.39558124E-01 0.24745349E+02</pdfrwt>
<totfact> 0.79708437E+07</totfact>
</mgrwt>
</event>
<event>
 4    1  0.3862688E+004  0.2505728E+02  0.7546771E-02  0.1660181E+00
         21   -1    0    0  503  502  0.00000000000E+00  0.00000000000E+00  0.66221150115E+02  0.66221150115E+02  0.00000000000E+00 0. -1.
         21   -1    0    0  501  503 -0.00000000000E+00 -0.00000000000E+00 -0.10057207579E+02  0.10057207579E+02  0.00000000000E+00 0. -1.
          3    1    1    2  501    0  0.11509152577E+02  0.22257730419E+02  0.18955917366E+02  0.31419642895E+02  0.00000000000E+00 0. -1.
         -3    1    1    2    0  502 -0.11509152577E+02 -0.22257730419E+02  0.37208025169E+02  0.44858714799E+02  0.00000000000E+00 0.  1.
<mgrwt>
<rscale>  2 0.25057278E+02</rscale>
<asrwt>0</asrwt>
<pdfrwt beam="1">  1       21 0.10187869E-01 0.25057278E+02</pdfrwt>
<pdfrwt beam="2">  1       21 0.15472627E-02 0.25057278E+02</pdfrwt>
<totfact> 0.10247343E+08</totfact>
</mgrwt>
</event>
<event>
 4    1  0.3862688E+004  0.2255433E+02  0.7546771E-02  0.1698838E+00
         21   -1    0    0  503  502  0.00000000000E+00  0.00000000000E+00  0.32728842234E+03  0.32728842234E+03  0.00000000000E+00 0. -1.
         21   -1    0    0  501  503 -0.00000000000E+00 -0.00000000000E+00 -0.15633199814E+01  0.15633199814E+01  0.00000000000E+00 0. -1.
          4    1    1    2  501    0  0.19923939531E+02  0.10570446787E+02  0.15035880755E+03  0.15204100999E+03  0.00000000000E+00 0. -1.
         -4    1    1    2    0  502 -0.19923939531E+02 -0.10570446787E+02  0.17536629481E+03  0.17681073233E+03  0.00000000000E+00 0.  1.
<mgrwt>
<rscale>  2 0.22554328E+02</rscale>
<asrwt>0</asrwt>
<pdfrwt beam="1">  1       21 0.50352010E-01 0.22554328E+02</pdfrwt>
<pdfrwt beam="2">  1       21 0.24051103E-03 0.22554328E+02</pdfrwt>
<totfact> 0.92047909E+07</totfact>
</mgrwt>
</event>
<event>
 4    1  0.3862688E+004  0.2402368E+02  0.7546771E-02  0.1675434E+00
         21   -1    0    0  501  502  0.00000000000E+00  0.00000000000E+00  0.37121259707E+03  0.37121259707E+03  0.00000000000E+00 0.  1.
         21   -1    0    0  502  503 -0.00000000000E+00 -0.00000000000E+00 -0.16318628889E+01  0.16318628889E+01  0.00000000000E+00 0.  1.
          2    1    1    2  501    0 -0.22574828263E+02 -0.82167182674E+01  0.22531888572E+03  0.22659597877E+03  0.00000000000E+00 0.  1.
         -2    1    1    2    0  503  0.22574828263E+02  0.82167182674E+01  0.14426184846E+03  0.14624848119E+03  0.00000000000E+00 0. -1.
<mgrwt>
<rscale>  2 0.24023683E+02</rscale>
<asrwt>0</asrwt>
<pdfrwt beam="1">  1       21 0.57109563E-01 0.24023683E+02</pdfrwt>
<pdfrwt beam="2">  1       21 0.25105612E-03 0.24023683E+02</pdfrwt>
<totfact> 0.68599101E+07</totfact>
</mgrwt>
</event>
<event>
 4    1  0.3862688E+004  0.2657056E+02  0.7546771E-02  0.1639417E+00
         21   -1    0    0  501  502  0.00000000000E+00  0.00000000000E+00  0.11210760654E+01  0.11210760654E+01  0.00000000000E+00 0. -1.
         21   -1    0    0  502  503 -0.00000000000E+00 -0.00000000000E+00 -0.70260635715E+03  0.70260635715E+03  0.00000000000E+00 0. -1.
          1    1    1    2  501    0 -0.24854146808E+02  0.93949952879E+01 -0.23743468025E+03  0.23891676780E+03  0.00000000000E+00 0.  1.
         -1    1    1    2    0  503  0.24854146808E+02 -0.93949952879E+01 -0.46405060083E+03  0.46481066542E+03  0.00000000000E+00 0. -1.
<mgrwt>
<rscale>  2 0.26570558E+02</rscale>
<asrwt>0</asrwt>
<pdfrwt beam="1">  1       21 0.17247330E-03 0.26570558E+02</pdfrwt>
<pdfrwt beam="2">  1       21 0.10809325E+00 0.26570558E+02</pdfrwt>
<totfact> 0.31539713E+07</totfact>
</mgrwt>
</event>
<event>
 4    1  0.3862688E+004  0.2090583E+02  0.7546771E-02  0.1727892E+00
         21   -1    0    0  503  502  0.00000000000E+00  0.00000000000E+00  0.15592632007E+02  0.15592632007E+02  0.00000000000E+00 0. -1.
         21   -1    0    0  501  503 -0.00000000000E+00 -0.00000000000E+00 -0.35884478179E+02  0.35884478179E+02  0.00000000000E+00 0. -1.
          5    1    1    2  501    0 -0.20587677509E+02  0.36333680690E+01 -0.22188046422E+02  0.30485459366E+02  0.00000000000E+00 0.  1.
         -5    1    1    2    0  502  0.20587677509E+02 -0.36333680690E+01  0.18962002501E+01  0.20991650820E+02  0.00000000000E+00 0. -1.
<mgrwt>
<rscale>  2 0.20905832E+02</rscale>
<asrwt>0</asrwt>
<pdfrwt beam="1">  1       21 0.23988665E-02 0.20905832E+02</pdfrwt>
<pdfrwt beam="2">  1       21 0.55206889E-02 0.20905832E+02</pdfrwt>
<totfact> 0.13446856E+08</totfact>
</mgrwt>
</event>
<event>
 4    1  0.3862688E+004  0.7480058E+02  0.7546771E-02  0.1344490E+00
         21   -1    0    0  503  502  0.00000000000E+00  0.00000000000E+00  0.61761561629E+01  0.61761561629E+01  0.00000000000E+00 0.  1.
         21   -1    0    0  501  503 -0.00000000000E+00 -0.00000000000E+00 -0.10700812001E+04  0.10700812001E+04  0.00000000000E+00 0.  1.
          5    1    1    2  501    0  0.70919265272E+02  0.23782020735E+02 -0.74272215421E+03  0.74647928641E+03  0.00000000000E+00 0.  1.
         -5    1    1    2    0  502 -0.70919265272E+02 -0.23782020735E+02 -0.32118288972E+03  0.32977806984E+03  0.00000000000E+00 0. -1.
<mgrwt>
<rscale>  2 0.74800580E+02</rscale>
<asrwt>0</asrwt>
<pdfrwt beam="1">  1       21 0.95017853E-03 0.74800580E+02</pdfrwt>
<pdfrwt beam="2">  1       21 0.16462776E+00 0.74800580E+02</pdfrwt>
<totfact> 0.96954235E+05</totfact>
</mgrwt>
</event>
<event>
 4    1  0.3862688E+004  0.2357279E+02  0.7546771E-02  0.1682390E+00
         21   -1    0    0  503  502  0.00000000000E+00  0.00000000000E+00  0.35303907818E+01  0.35303907818E+01  0.00000000000E+00 0. -1.
         21   -1    0    0  501  503 -0.00000000000E+00 -0.00000000000E+00 -0.17457659240E+03  0.17457659240E+03  0.00000000000E+00 0. -1.
          4    1    1    2  501    0  0.18265372480E+02 -0.14901428427E+02 -0.11345830838E+03  0.11588125017E+03  0.00000000000E+00 0. -1.
         -4    1    1    2    0  502 -0.18265372480E+02  0.14901428427E+02 -0.57587893239E+02  0.62225733010E+02  0.00000000000E+00 0.  1.
<mgrwt>
<rscale>  2 0.23572789E+02</rscale>
<asrwt>0</asrwt>
<pdfrwt beam="1">  1       21 0.54313714E-03 0.23572789E+02</pdfrwt>
<pdfrwt beam="2">  1       21 0.26857933E-01 0.23572789E+02</pdfrwt>
<totfact> 0.91345581E+07</totfact>
</mgrwt>
</event>
<event>
 4    1  0.3862688E+004  0.2049986E+02  0.7546771E-02  0.1735567E+00
         21   -1    0    0  503  502  0.00000000000E+00  0.00000000000E+00  0.15159800461E+02  0.15159800461E+02  0.00000000000E+00 0. -1.
         21   -1    0    0  501  503 -0.00000000000E+00 -0.00000000000E+00 -0.34837769584E+02  0.34837769584E+02  0.00000000000E+00 0. -1.
          2    1    1    2  501    0 -0.20977943441E+01 -0.20392245502E+02  0.14599114100E+01  0.20551782381E+02  0.00000000000E+00 0. -1.
         -2    1    1    2    0  502  0.20977943441E+01  0.20392245502E+02 -0.21137880533E+02  0.29445787664E+02  0.00000000000E+00 0.  1.
<mgrwt>
<rscale>  2 0.20499864E+02</rscale>
<asrwt>0</asrwt>
<pdfrwt beam="1">  1       21 0.23322770E-02 0.20499864E+02</pdfrwt>
<pdfrwt beam="2">  1       21 0.53596568E-02 0.20499864E+02</pdfrwt>
<totfact> 0.14630359E+08</totfact>
</mgrwt>
</event>
<event>
 4    1  0.3862688E+004  0.2237273E+02  0.7546771E-02  0.1701884E+00
         21   -1    0    0  501  502  0.00000000000E+00  0.00000000000E+00  0.12265619891E+01  0.12265619891E+01  0.00000000000E+00 0.  1.
         21   -1    0    0  502  503 -0.00000000000E+00 -0.00000000000E+00 -0.42097862859E+03  0.42097862859E+03  0.00000000000E+00 0.  1.
          2    1    1    2  501    0  0.15241002857E+02 -0.16378366866E+02 -0.17292852329E+03  0.17436976009E+03  0.00000000000E+00 0. -1.
         -2    1    1    2    0  503 -0.15241002857E+02  0.16378366866E+02 -0.24682354331E+03  0.24783543048E+03  0.00000000000E+00 0.  1.
<mgrwt>
<rscale>  2 0.22372730E+02</rscale>
<asrwt>0</asrwt>
<pdfrwt beam="1">  1       21 0.18870171E-03 0.22372730E+02</pdfrwt>
<pdfrwt beam="2">  1       21 0.64765987E-01 0.22372730E+02</pdfrwt>
<totfact> 0.79191685E+07</totfact>
</mgrwt>
</event>
<event>
 4    1  0.3862688E+004  0.2241241E+02  0.7546771E-02  0.1701216E+00
         21   -1    0    0  501  502  0.00000000000E+00  0.00000000000E+00  0.67360334643E+02  0.67360334643E+02  0.00000000000E+00 0. -1.
         21   -1    0    0  502  503 -0.00000000000E+00 -0.00000000000E+00 -0.80884376556E+01  0.80884376556E+01  0.00000000000E+00 0. -1.
          2    1    1    2  501    0 -0.17983111953E+02 -0.13376237130E+02  0.19096838452E+02  0.29444953288E+02  0.00000000000E+00 0. -1.
         -2    1    1    2    0  503  0.17983111953E+02  0.13376237130E+02  0.40175058535E+02  0.46003819011E+02  0.00000000000E+00 0.  1.
<mgrwt>
<rscale>  2 0.22412408E+02</rscale>
<asrwt>0</asrwt>
<pdfrwt beam="1">  1       21 0.10363128E-01 0.22412408E+02</pdfrwt>
<pdfrwt beam="2">  1       21 0.12443751E-02 0.22412408E+02</pdfrwt>
<totfact> 0.13432299E+08</totfact>
</mgrwt>
</event>
<event>
 4    1  0.3862688E+004  0.4418933E+02  0.7546771E-02  0.1479467E+00
         21   -1    0    0  503  502  0.00000000000E+00  0.00000000000E+00  0.29964437198E+03  0.29964437198E+03  0.00000000000E+00 0.  1.
         21   -1    0    0  501  503 -0.00000000000E+00 -0.00000000000E+00 -0.90050313148E+01  0.90050313148E+01  0.00000000000E+00 0.  1.
          2    1    1    2  501    0 -0.44160192399E+02 -0.16045032556E+01  0.22644297078E+03  0.23071436028E+03  0.00000000000E+00 0. -1.
         -2    1    1    2    0  502  0.44160192399E+02  0.16045032556E+01  0.64196369885E+02  0.77935043015E+02  0.00000000000E+00 0.  1.
<mgrwt>
<rscale>  2 0.44189332E+02</rscale>
<asrwt>0</asrwt>
<pdfrwt beam="1">  1       21 0.46099127E-01 0.44189332E+02</pdfrwt>
<pdfrwt beam="2">  1       21 0.13853897E-02 0.44189332E+02</pdfrwt>
<totfact> 0.90025958E+06</totfact>
</mgrwt>
</event>
<event>
 4    1  0.3862688E+004  0.2098681E+02  0.7546771E-02  0.1726387E+00
         21   -1    0    0  501  502  0.00000000000E+00  0.00000000000E+00  0.41766218902E+00  0.41766218902E+00  0.00000000000E+00 0. -1.
         21   -1    0    0  502  503 -0.00000000000E+00 -0.00000000000E+00 -0.10625136912E+04  0.10625136912E+04  0.00000000000E+00 0. -1.
          5    1    1    2  501    0 -0.30023890770E+01  0.20770938921E+02 -0.57705535554E+03  0.57743686200E+03  0.00000000000E+00 0.  1.
         -5    1    1    2    0  503  0.30023890770E+01 -0.20770938921E+02 -0.48504067344E+03  0.48549449136E+03  0.00000000000E+00 0. -1.
<mgrwt>
<rscale>  2 0.20986811E+02</rscale>
<asrwt>0</asrwt>
<pdfrwt beam="1">  1       21 0.64255956E-04 0.20986811E+02</pdfrwt>
<pdfrwt beam="2">  1       21 0.16346305E+00 0.20986811E+02</pdfrwt>
<totfact> 0.47290393E+07</totfact>
</mgrwt>
</event>
<event>
 4    1  0.3862688E+004  0.2202765E+02  0.7546771E-02  0.1707774E+00
         21   -1    0    0  503  502  0.00000000000E+00  0.00000000000E+00  0.10651742555E+03  0.10651742555E+03  0.00000000000E+00 0.  1.
         21   -1    0    0  501  503 -0.00000000000E+00 -0.00000000000E+00 -0.60411345111E+01  0.60411345111E+01  0.00000000000E+00 0.  1.
          5    1    1    2  501    0  0.16667969948E+02  0.14401260561E+02  0.22327088414E+02  0.31364253618E+02  0.00000000000E+00 0.  1.
         -5    1    1    2    0  502 -0.16667969948E+02 -0.14401260561E+02  0.78149202628E+02  0.81194306447E+02  0.00000000000E+00 0. -1.
<mgrwt>
<rscale>  2 0.22027654E+02</rscale>
<asrwt>0</asrwt>
<pdfrwt beam="1">  1       21 0.16387295E-01 0.22027654E+02</pdfrwt>
<pdfrwt beam="2">  1       21 0.92940538E-03 0.22027654E+02</pdfrwt>
<totfact> 0.95860862E+07</totfact>
</mgrwt>
</event>
<event>
 4    1  0.3862688E+004  0.2062267E+02  0.7546771E-02  0.1733222E+00
         21   -1    0    0  501  502  0.00000000000E+00  0.00000000000E+00  0.43454771729E+01  0.43454771729E+01  0.00000000000E+00 0. -1.
         21   -1    0    0  502  503 -0.00000000000E+00 -0.00000000000E+00 -0.11123132530E+03  0.11123132530E+03  0.00000000000E+00 0. -1.
          3    1    1    2  501    0 -0.46919224164E+01 -0.20081837448E+02 -0.33414691953E+02  0.39266219191E+02  0.00000000000E+00 0.  1.
         -3    1    1    2    0  503  0.46919224164E+01  0.20081837448E+02 -0.73471156177E+02  0.76310583284E+02  0.00000000000E+00 0. -1.
<mgrwt>
<rscale>  2 0.20622665E+02</rscale>
<asrwt>0</asrwt>
<pdfrwt beam="1">  1       21 0.66853510E-03 0.20622665E+02</pdfrwt>
<pdfrwt beam="2">  1       21 0.17112508E-01 0.20622665E+02</pdfrwt>
<totfact> 0.14258786E+08</totfact>
</mgrwt>
</event>
<event>
 4    1  0.3862688E+004  0.2157096E+02  0.7546771E-02  0.1715779E+00
         21   -1    0    0  501  502  0.00000000000E+00  0.00000000000E+00  0.34753642518E+02  0.34753642518E+02  0.00000000000E+00 0. -1.
         21   -1    0    0  502  503 -0.00000000000E+00 -0.00000000000E+00 -0.16173488958E+02  0.16173488958E+02  0.00000000000E+00 0. -1.
          5    1    1    2  501    0  0.18297317572E+02 -0.11424302132E+02  0.19856124596E+02  0.29318461650E+02  0.00000000000E+00 0. -1.
         -5    1    1    2    0  503 -0.18297317572E+02  0.11424302132E+02 -0.12759710361E+01  0.21608669826E+02  0.00000000000E+00 0.  1.
<mgrwt>
<rscale>  2 0.21570965E+02</rscale>
<asrwt>0</asrwt>
<pdfrwt beam="1">  1       21 0.53467142E-02 0.21570965E+02</pdfrwt>
<pdfrwt beam="2">  1       21 0.24882291E-02 0.21570965E+02</pdfrwt>
<totfact> 0.13503551E+08</totfact>
</mgrwt>
</event>
<event>
 4    1  0.3862688E+004  0.4279496E+02  0.7546771E-02  0.1488596E+00
         21   -1    0    0  501  502  0.00000000000E+00  0.00000000000E+00  0.41072884449E+03  0.41072884449E+03  0.00000000000E+00 0. -1.
         21   -1    0    0  502  503 -0.00000000000E+00 -0.00000000000E+00 -0.51689737712E+01  0.51689737712E+01  0.00000000000E+00 0. -1.
          3    1    1    2  501    0 -0.16261331724E+02 -0.39585063873E+02  0.27985240202E+03  0.28310559003E+03  0.00000000000E+00 0. -1.
         -3    1    1    2    0  503  0.16261331724E+02  0.39585063873E+02  0.12570746870E+03  0.13279222823E+03  0.00000000000E+00 0.  1.
<mgrwt>
<rscale>  2 0.42794955E+02</rscale>
<asrwt>0</asrwt>
<pdfrwt beam="1">  1       21 0.63189027E-01 0.42794955E+02</pdfrwt>
<pdfrwt beam="2">  1       21 0.79522706E-03 0.42794955E+02</pdfrwt>
<totfact> 0.11132763E+07</totfact>
</mgrwt>
</event>
<event>
 4    1  0.3862688E+004  0.2532623E+02  0.7546771E-02  0.1656360E+00
         21   -1    0    0  501  502  0.00000000000E+00  0.00000000000E+00  0.34897419745E+02  0.34897419745E+02  0.00000000000E+00 0.  1.
         21   -1    0    0  502  503 -0.00000000000E+00 -0.00000000000E+00 -0.19536352647E+02  0.19536352647E+02  0.00000000000E+00 0.  1.
          5    1    1    2  501    0 -0.12019636849E+02 -0.22292289293E+02  0.10592175210E+01  0.25348368265E+02  0.00000000000E+00 0.  1.
         -5    1    1    2    0  503  0.12019636849E+02  0.22292289293E+02  0.14301849577E+02  0.29085404127E+02  0.00000000000E+00 0. -1.
<mgrwt>
<rscale>  2 0.25326228E+02</rscale>
<asrwt>0</asrwt>
<pdfrwt beam="1">  1       21 0.53688338E-02 0.25326228E+02</pdfrwt>
<pdfrwt beam="2">  1       21 0.30055927E-02 0.25326228E+02</pdfrwt>
<totfact> 0.10481813E+08</totfact>
</mgrwt>
</event>
<event>
 4    1  0.3862688E+004  0.2266896E+02  0.7546771E-02  0.1696933E+00
         21   -1    0    0  501  502  0.00000000000E+00  0.00000000000E+00  0.14912743339E+02  0.14912743339E+02  0.00000000000E+00 0. -1.
         21   -1    0    0  502  503 -0.00000000000E+00 -0.00000000000E+00 -0.34506239581E+02  0.34506239581E+02  0.00000000000E+00 0. -1.
          2    1    1    2  501    0 -0.65961171736E+01 -0.21688086351E+02 -0.10708646881E+02  0.25071038458E+02  0.00000000000E+00 0. -1.
         -2    1    1    2    0  503  0.65961171736E+01  0.21688086351E+02 -0.88848493614E+01  0.24347944462E+02  0.00000000000E+00 0.  1.
<mgrwt>
<rscale>  2 0.22668962E+02</rscale>
<asrwt>0</asrwt>
<pdfrwt beam="1">  1       21 0.22942682E-02 0.22668962E+02</pdfrwt>
<pdfrwt beam="2">  1       21 0.53086522E-02 0.22668962E+02</pdfrwt>
<totfact> 0.15714970E+08</totfact>
</mgrwt>
</event>
<event>
 4    1  0.3862688E+004  0.2838911E+02  0.7546771E-02  0.1616609E+00
         21   -1    0    0  501  502  0.00000000000E+00  0.00000000000E+00  0.19254398424E+03  0.19254398424E+03  0.00000000000E+00 0. -1.
         21   -1    0    0  502  503 -0.00000000000E+00 -0.00000000000E+00 -0.42325676253E+01  0.42325676253E+01  0.00000000000E+00 0. -1.
          4    1    1    2  501    0 -0.71098599686E+01 -0.27484387982E+02  0.10450305493E+03  0.10829048980E+03  0.00000000000E+00 0. -1.
         -4    1    1    2    0  503  0.71098599686E+01  0.27484387982E+02  0.83808361687E+02  0.88486062067E+02  0.00000000000E+00 0.  1.
<mgrwt>
<rscale>  2 0.28389112E+02</rscale>
<asrwt>0</asrwt>
<pdfrwt beam="1">  1       21 0.29622145E-01 0.28389112E+02</pdfrwt>
<pdfrwt beam="2">  1       21 0.65116440E-03 0.28389112E+02</pdfrwt>
<totfact> 0.61074245E+07</totfact>
</mgrwt>
</event>
<event>
 4    1  0.3862688E+004  0.4143175E+02  0.7546771E-02  0.1497932E+00
         21   -1    0    0  503  502  0.00000000000E+00  0.00000000000E+00  0.33282880385E+01  0.33282880385E+01  0.00000000000E+00 0.  1.
         21   -1    0    0  501  503 -0.00000000000E+00 -0.00000000000E+00 -0.57827110010E+03  0.57827110010E+03  0.00000000000E+00 0.  1.
          4    1    1    2  501    0  0.36465637128E+02 -0.19668430474E+02 -0.19185880973E+03  0.19628141205E+03  0.00000000000E+00 0. -1.
         -4    1    1    2    0  502 -0.36465637128E+02  0.19668430474E+02 -0.38308400234E+03  0.38531797609E+03  0.00000000000E+00 0.  1.
<mgrwt>
<rscale>  2 0.41431749E+02</rscale>
<asrwt>0</asrwt>
<pdfrwt beam="1">  1       21 0.51204472E-03 0.41431749E+02</pdfrwt>
<pdfrwt beam="2">  1       21 0.88964714E-01 0.41431749E+02</pdfrwt>
<totfact> 0.10423104E+07</totfact>
</mgrwt>
</event>
<event>
 4    1  0.3862688E+004  0.2145234E+02  0.7546771E-02  0.1717899E+00
         21   -1    0    0  503  502  0.00000000000E+00  0.00000000000E+00  0.25698816195E+01  0.25698816195E+01  0.00000000000E+00 0. -1.
         21   -1    0    0  501  503 -0.00000000000E+00 -0.00000000000E+00 -0.28692754523E+03  0.28692754523E+03  0.00000000000E+00 0. -1.
          4    1    1    2  501    0 -0.12467837740E+02  0.17457253755E+02 -0.53434034771E+02  0.57579499463E+02  0.00000000000E+00 0.  1.
         -4    1    1    2    0  502  0.12467837740E+02 -0.17457253755E+02 -0.23092362884E+03  0.23191792739E+03  0.00000000000E+00 0. -1.
<mgrwt>
<rscale>  2 0.21452335E+02</rscale>
<asrwt>0</asrwt>
<pdfrwt beam="1">  1       21 0.39536633E-03 0.21452335E+02</pdfrwt>
<pdfrwt beam="2">  1       21 0.44142707E-01 0.21452335E+02</pdfrwt>
<totfact> 0.56777324E+07</totfact>
</mgrwt>
</event>
<event>
 4    1  0.3862688E+004  0.4716324E+02  0.7546771E-02  0.1461272E+00
         21   -1    0    0  501  502  0.00000000000E+00  0.00000000000E+00  0.27388832198E+03  0.27388832198E+03  0.00000000000E+00 0.  1.
         21   -1    0    0  502  503 -0.00000000000E+00 -0.00000000000E+00 -0.84259136831E+01  0.84259136831E+01  0.00000000000E+00 0.  1.
          2    1    1    2  501    0  0.23191368976E+02  0.41067404313E+02  0.10589880676E+03  0.11592639288E+03  0.00000000000E+00 0.  1.
         -2    1    1    2    0  503 -0.23191368976E+02 -0.41067404313E+02  0.15956360154E+03  0.16638784279E+03  0.00000000000E+00 0. -1.
<mgrwt>
<rscale>  2 0.47163241E+02</rscale>
<asrwt>0</asrwt>
<pdfrwt beam="1">  1       21 0.42136658E-01 0.47163241E+02</pdfrwt>
<pdfrwt beam="2">  1       21 0.12962946E-02 0.47163241E+02</pdfrwt>
<totfact> 0.11993371E+07</totfact>
</mgrwt>
</event>
<event>
 4    1  0.3862688E+004  0.4536940E+02  0.7546771E-02  0.1472049E+00
         21   -1    0    0  501  502  0.00000000000E+00  0.00000000000E+00  0.37845538728E+02  0.37845538728E+02  0.00000000000E+00 0.  1.
         21   -1    0    0  502  503 -0.00000000000E+00 -0.00000000000E+00 -0.59936878580E+02  0.59936878580E+02  0.00000000000E+00 0.  1.
          5    1    1    2  501    0 -0.16722773736E+02  0.42175009532E+02  0.38289387066E+01  0.45530685939E+02  0.00000000000E+00 0.  1.
         -5    1    1    2    0  503  0.16722773736E+02 -0.42175009532E+02 -0.25920278558E+02  0.52251731369E+02  0.00000000000E+00 0. -1.
<mgrwt>
<rscale>  2 0.45369401E+02</rscale>
<asrwt>0</asrwt>
<pdfrwt beam="1">  1       21 0.58223906E-02 0.45369401E+02</pdfrwt>
<pdfrwt beam="2">  1       21 0.92210582E-02 0.45369401E+02</pdfrwt>
<totfact> 0.16820883E+07</totfact>
</mgrwt>
</event>
<event>
 4    1  0.3862688E+004  0.2163624E+02  0.7546771E-02  0.1714620E+00
         21   -1    0    0  501  502  0.00000000000E+00  0.00000000000E+00  0.19296590293E+01  0.19296590293E+01  0.00000000000E+00 0.  1.
         21   -1    0    0  502  503 -0.00000000000E+00 -0.00000000000E+00 -0.38562477533E+03  0.38562477533E+03  0.00000000000E+00 0.  1.
          1    1    1    2  501    0 -0.20007419866E+02 -0.82358924374E+01 -0.30986129995E+03  0.31061576261E+03  0.00000000000E+00 0. -1.
         -1    1    1    2    0  503  0.20007419866E+02  0.82358924374E+01 -0.73833816351E+02  0.76938671752E+02  0.00000000000E+00 0.  1.
<mgrwt>
<rscale>  2 0.21636238E+02</rscale>
<asrwt>0</asrwt>
<pdfrwt beam="1">  1       21 0.29687042E-03 0.21636238E+02</pdfrwt>
<pdfrwt beam="2">  1       21 0.59326928E-01 0.21636238E+02</pdfrwt>
<totfact> 0.48615075E+07</totfact>
</mgrwt>
</event>
<event>
 4    1  0.3862688E+004  0.2075143E+02  0.7546771E-02  0.1730785E+00
         21   -1    0    0  501  502  0.00000000000E+00  0.00000000000E+00  0.89505470808E+02  0.89505470808E+02  0.00000000000E+00 0. -1.
         21   -1    0    0  502  503 -0.00000000000E+00 -0.00000000000E+00 -0.48175311133E+01  0.48175311133E+01  0.00000000000E+00 0. -1.
          2    1    1    2  501    0 -0.19440544774E+02  0.72585877627E+01  0.40623994600E+02  0.45617220593E+02  0.00000000000E+00 0.  1.
         -2    1    1    2    0  503  0.19440544774E+02 -0.72585877627E+01  0.44063945095E+02  0.48705781328E+02  0.00000000000E+00 0. -1.
<mgrwt>
<rscale>  2 0.20751431E+02</rscale>
<asrwt>0</asrwt>
<pdfrwt beam="1">  1       21 0.13770071E-01 0.20751431E+02</pdfrwt>
<pdfrwt beam="2">  1       21 0.74115870E-03 0.20751431E+02</pdfrwt>
<totfact> 0.17732859E+08</totfact>
</mgrwt>
</event>
<event>
 4    1  0.3862688E+004  0.2620927E+02  0.7546771E-02  0.1644217E+00
         21   -1    0    0  503  502  0.00000000000E+00  0.00000000000E+00  0.11197620734E+03  0.11197620734E+03  0.00000000000E+00 0. -1.
         21   -1    0    0  501  503 -0.00000000000E+00 -0.00000000000E+00 -0.82730664689E+01  0.82730664689E+01  0.00000000000E+00 0. -1.
          4    1    1    2  501    0 -0.81705049410E+01 -0.24903180974E+02  0.82420044401E+02  0.86486931340E+02  0.00000000000E+00 0.  1.
         -4    1    1    2    0  502  0.81705049410E+01  0.24903180974E+02  0.21283096471E+02  0.33762342469E+02  0.00000000000E+00 0. -1.
<mgrwt>
<rscale>  2 0.26209265E+02</rscale>
<asrwt>0</asrwt>
<pdfrwt beam="1">  1       21 0.17227108E-01 0.26209265E+02</pdfrwt>
<pdfrwt beam="2">  1       21 0.12727795E-02 0.26209265E+02</pdfrwt>
<totfact> 0.57276985E+07</totfact>
</mgrwt>
</event>
<event>
 4    1  0.3862688E+004  0.2338225E+02  0.7546771E-02  0.1685388E+00
         21   -1    0    0  503  502  0.00000000000E+00  0.00000000000E+00  0.34190993294E+02  0.34190993294E+02  0.00000000000E+00 0. -1.
         21   -1    0    0  501  503 -0.00000000000E+00 -0.00000000000E+00 -0.19940638238E+02  0.19940638238E+02  0.00000000000E+00 0. -1.
          3    1    1    2  501    0  0.14956360268E+02 -0.17973227626E+02 -0.49213001343E+01  0.23894535333E+02  0.00000000000E+00 0.  1.
         -3    1    1    2    0  502 -0.14956360268E+02  0.17973227626E+02  0.19171655191E+02  0.30237096199E+02  0.00000000000E+00 0. -1.
<mgrwt>
<rscale>  2 0.23382250E+02</rscale>
<asrwt>0</asrwt>
<pdfrwt beam="1">  1       21 0.52601528E-02 0.23382250E+02</pdfrwt>
<pdfrwt beam="2">  1       21 0.30677905E-02 0.23382250E+02</pdfrwt>
<totfact> 0.10258755E+08</totfact>
</mgrwt>
</event>
<event>
 4    1  0.3862688E+004  0.2381570E+02  0.7546771E-02  0.1678619E+00
         21   -1    0    0  501  502  0.00000000000E+00  0.00000000000E+00  0.63258453061E+01  0.63258453061E+01  0.00000000000E+00 0. -1.
         21   -1    0    0  502  503 -0.00000000000E+00 -0.00000000000E+00 -0.99167905242E+02  0.99167905242E+02  0.00000000000E+00 0. -1.
          5    1    1    2  501    0 -0.21167504666E+02  0.10914398248E+02 -0.62751928129E+02  0.67119235893E+02  0.00000000000E+00 0.  1.
         -5    1    1    2    0  503  0.21167504666E+02 -0.10914398248E+02 -0.30090131807E+02  0.38374514656E+02  0.00000000000E+00 0. -1.
<mgrwt>
<rscale>  2 0.23815695E+02</rscale>
<asrwt>0</asrwt>
<pdfrwt beam="1">  1       21 0.97320703E-03 0.23815695E+02</pdfrwt>
<pdfrwt beam="2">  1       21 0.15256600E-01 0.23815695E+02</pdfrwt>
<totfact> 0.10332709E+08</totfact>
</mgrwt>
</event>
<event>
 4    1  0.3862688E+004  0.3473897E+02  0.7546771E-02  0.1550931E+00
         21   -1    0    0  501  502  0.00000000000E+00  0.00000000000E+00  0.36254711591E+02  0.36254711591E+02  0.00000000000E+00 0. -1.
         21   -1    0    0  502  503 -0.00000000000E+00 -0.00000000000E+00 -0.69606679613E+02  0.69606679613E+02  0.00000000000E+00 0. -1.
          2    1    1    2  501    0  0.34509316771E+02 -0.39878359157E+01 -0.54910499281E+02  0.64976601254E+02  0.00000000000E+00 0.  1.
         -2    1    1    2    0  503 -0.34509316771E+02  0.39878359157E+01  0.21558531258E+02  0.40884789950E+02  0.00000000000E+00 0. -1.
<mgrwt>
<rscale>  2 0.34738966E+02</rscale>
<asrwt>0</asrwt>
<pdfrwt beam="1">  1       21 0.55776479E-02 0.34738966E+02</pdfrwt>
<pdfrwt beam="2">  1       21 0.10708720E-01 0.34738966E+02</pdfrwt>
<totfact> 0.13463340E+07</totfact>
</mgrwt>
</event>
<event>
 4    1  0.3862688E+004  0.2171239E+02  0.7546771E-02  0.1713274E+00
         21   -1    0    0  503  502  0.00000000000E+00  0.00000000000E+00  0.54941201050E+02  0.54941201050E+02  0.00000000000E+00 0.  1.
         21   -1    0    0  501  503 -0.00000000000E+00 -0.00000000000E+00 -0.10968726937E+02  0.10968726937E+02  0.00000000000E+00 0.  1.
          1    1    1    2  501    0 -0.21484745679E+02  0.31358213561E+01  0.66091967722E+01  0.22696016268E+02  0.00000000000E+00 0.  1.
         -1    1    1    2    0  502  0.21484745679E+02 -0.31358213561E+01  0.37363277341E+02  0.43213911720E+02  0.00000000000E+00 0. -1.
<mgrwt>
<rscale>  2 0.21712385E+02</rscale>
<asrwt>0</asrwt>
<pdfrwt beam="1">  1       21 0.84524923E-02 0.21712385E+02</pdfrwt>
<pdfrwt beam="2">  1       21 0.16874965E-02 0.21712385E+02</pdfrwt>
<totfact> 0.11722907E+08</totfact>
</mgrwt>
</event>
<event>
 4    1  0.3862688E+004  0.3814925E+02  0.7546771E-02  0.1522290E+00
         21   -1    0    0  503  502  0.00000000000E+00  0.00000000000E+00  0.19293021877E+02  0.19293021877E+02  0.00000000000E+00 0. -1.
         21   -1    0    0  501  503 -0.00000000000E+00 -0.00000000000E+00 -0.87040225683E+02  0.87040225683E+02  0.00000000000E+00 0. -1.
          3    1    1    2  501    0  0.35934718218E+02  0.12808639769E+02 -0.53287360968E+02  0.65535548102E+02  0.00000000000E+00 0. -1.
         -3    1    1    2    0  502 -0.35934718218E+02 -0.12808639769E+02 -0.14459842838E+02  0.40797699458E+02  0.00000000000E+00 0.  1.
<mgrwt>
<rscale>  2 0.38149249E+02</rscale>
<asrwt>0</asrwt>
<pdfrwt beam="1">  1       21 0.29681572E-02 0.38149249E+02</pdfrwt>
<pdfrwt beam="2">  1       21 0.13390804E-01 0.38149249E+02</pdfrwt>
<totfact> 0.25694364E+07</totfact>
</mgrwt>
</event>
<event>
 4    1  0.3862688E+004  0.2089181E+02  0.7546771E-02  0.1728154E+00
         21   -1    0    0  501  502  0.00000000000E+00  0.00000000000E+00  0.66782761088E+03  0.66782761088E+03  0.00000000000E+00 0.  1.
         21   -1    0    0  502  503 -0.00000000000E+00 -0.00000000000E+00 -0.71611233142E+00  0.71611233142E+00  0.00000000000E+00 0.  1.
          4    1    1    2  501    0  0.10156721627E+02 -0.18256748734E+02  0.23476455587E+03  0.23569230909E+03  0.00000000000E+00 0. -1.
         -4    1    1    2    0  503 -0.10156721627E+02  0.18256748734E+02  0.43234694268E+03  0.43285141413E+03  0.00000000000E+00 0.  1.
<mgrwt>
<rscale>  2 0.20891813E+02</rscale>
<asrwt>0</asrwt>
<pdfrwt beam="1">  1       21 0.10274221E+00 0.20891813E+02</pdfrwt>
<pdfrwt beam="2">  1       21 0.11017166E-03 0.20891813E+02</pdfrwt>
<totfact> 0.63807584E+07</totfact>
</mgrwt>
</event>
<event>
 4    1  0.3862688E+004  0.2894698E+02  0.7546771E-02  0.1610029E+00
         21   -1    0    0  501  502  0.00000000000E+00  0.00000000000E+00  0.99010052448E+02  0.99010052448E+02  0.00000000000E+00 0.  1.
         21   -1    0    0  502  503 -0.00000000000E+00 -0.00000000000E+00 -0.87783403611E+01  0.87783403611E+01  0.00000000000E+00 0.  1.
          2    1    1    2  501    0  0.13839877473E+01  0.28913877327E+02  0.55329630702E+02  0.62444341279E+02  0.00000000000E+00 0.  1.
         -2    1    1    2    0  503 -0.13839877473E+01 -0.28913877327E+02  0.34902081385E+02  0.45344051530E+02  0.00000000000E+00 0. -1.
<mgrwt>
<rscale>  2 0.28946981E+02</rscale>
<asrwt>0</asrwt>
<pdfrwt beam="1">  1       21 0.15232315E-01 0.28946981E+02</pdfrwt>
<pdfrwt beam="2">  1       21 0.13505140E-02 0.28946981E+02</pdfrwt>
<totfact> 0.66257626E+07</totfact>
</mgrwt>
</event>
<event>
 4    1  0.3862688E+004  0.2126783E+02  0.7546771E-02  0.1721231E+00
         21   -1    0    0  503  502  0.00000000000E+00  0.00000000000E+00  0.14606095814E+03  0.14606095814E+03  0.00000000000E+00 0. -1.
         21   -1    0    0  501  503 -0.00000000000E+00 -0.00000000000E+00 -0.32675404765E+01  0.32675404765E+01  0.00000000000E+00 0. -1.
          1    1    1    2  501    0  0.35887591651E+01 -0.20962859136E+02  0.54328872589E+02  0.58343354825E+02  0.00000000000E+00 0. -1.
         -1    1    1    2    0  502 -0.35887591651E+01  0.20962859136E+02  0.88464545077E+02  0.90985143794E+02  0.00000000000E+00 0.  1.
<mgrwt>
<rscale>  2 0.21267831E+02</rscale>
<asrwt>0</asrwt>
<pdfrwt beam="1">  1       21 0.22470912E-01 0.21267831E+02</pdfrwt>
<pdfrwt beam="2">  1       21 0.50269865E-03 0.21267831E+02</pdfrwt>
<totfact> 0.13661007E+08</totfact>
</mgrwt>
</event>
<event>
 4    1  0.3862688E+004  0.2515374E+02  0.7546771E-02  0.1658803E+00
         21   -1    0    0  501  502  0.00000000000E+00  0.00000000000E+00  0.15658252644E+01  0.15658252644E+01  0.00000000000E+00 0. -1.
         21   -1    0    0  502  503 -0.00000000000E+00 -0.00000000000E+00 -0.41797824365E+03  0.41797824365E+03  0.00000000000E+00 0. -1.
          4    1    1    2  501    0  0.24250453559E+02  0.66802759843E+01 -0.16994740438E+03  0.17179880920E+03  0.00000000000E+00 0.  1.
         -4    1    1    2    0  503 -0.24250453559E+02 -0.66802759843E+01 -0.24646501400E+03  0.24774525971E+03  0.00000000000E+00 0. -1.
<mgrwt>
<rscale>  2 0.25153739E+02</rscale>
<asrwt>0</asrwt>
<pdfrwt beam="1">  1       21 0.24089615E-03 0.25153739E+02</pdfrwt>
<pdfrwt beam="2">  1       21 0.64304357E-01 0.25153739E+02</pdfrwt>
<totfact> 0.58005424E+07</totfact>
</mgrwt>
</event>
<event>
 4    1  0.3862688E+004  0.2132051E+02  0.7546771E-02  0.1720275E+00
         21   -1    0    0  503  502  0.00000000000E+00  0.00000000000E+00  0.57564568643E+00  0.57564568643E+00  0.00000000000E+00 0.  1.
         21   -1    0    0  501  503 -0.00000000000E+00 -0.00000000000E+00 -0.91535627292E+03  0.91535627292E+03  0.00000000000E+00 0.  1.
          2    1    1    2  501    0 -0.20290287881E+02 -0.65473848419E+01 -0.28768308390E+03  0.28847204508E+03  0.00000000000E+00 0. -1.
         -2    1    1    2    0  502  0.20290287881E+02  0.65473848419E+01 -0.62709754333E+03  0.62745987352E+03  0.00000000000E+00 0.  1.
<mgrwt>
<rscale>  2 0.21320507E+02</rscale>
<asrwt>0</asrwt>
<pdfrwt beam="1">  1       21 0.88560847E-04 0.21320507E+02</pdfrwt>
<pdfrwt beam="2">  1       21 0.14082409E+00 0.21320507E+02</pdfrwt>
<totfact> 0.42900708E+07</totfact>
</mgrwt>
</event>
<event>
 4    1  0.3862688E+004  0.2057029E+02  0.7546771E-02  0.1734219E+00
         21   -1    0    0  501  502  0.00000000000E+00  0.00000000000E+00  0.24344845125E+02  0.24344845125E+02  0.00000000000E+00 0.  1.
         21   -1    0    0  502  503 -0.00000000000E+00 -0.00000000000E+00 -0.17688752636E+02  0.17688752636E+02  0.00000000000E+00 0.  1.
          4    1    1    2  501    0  0.20364397230E+02 -0.29031007188E+01  0.61004105135E+01  0.21455807530E+02  0.00000000000E+00 0.  1.
         -4    1    1    2    0  503 -0.20364397230E+02  0.29031007188E+01  0.55568197592E+00  0.20577790231E+02  0.00000000000E+00 0. -1.
<mgrwt>
<rscale>  2 0.20570286E+02</rscale>
<asrwt>0</asrwt>
<pdfrwt beam="1">  1       21 0.37453608E-02 0.20570286E+02</pdfrwt>
<pdfrwt beam="2">  1       21 0.27213466E-02 0.20570286E+02</pdfrwt>
<totfact> 0.20320901E+08</totfact>
</mgrwt>
</event>
<event>
 4    1  0.3862688E+004  0.2742921E+02  0.7546771E-02  0.1628377E+00
         21   -1    0    0  501  502  0.00000000000E+00  0.00000000000E+00  0.10887694471E+04  0.10887694471E+04  0.00000000000E+00 0.  1.
         21   -1    0    0  502  503 -0.00000000000E+00 -0.00000000000E+00 -0.13184577027E+01  0.13184577027E+01  0.00000000000E+00 0.  1.
          3    1    1    2  501    0  0.20243006907E+02  0.18508972284E+02  0.91972195426E+03  0.92013087903E+03  0.00000000000E+00 0.  1.
         -3    1    1    2    0  503 -0.20243006907E+02 -0.18508972284E+02  0.16772903510E+03  0.16995702574E+03  0.00000000000E+00 0. -1.
<mgrwt>
<rscale>  2 0.27429207E+02</rscale>
<asrwt>0</asrwt>
<pdfrwt beam="1">  1       21 0.16750227E+00 0.27429207E+02</pdfrwt>
<pdfrwt beam="2">  1       21 0.20284052E-03 0.27429207E+02</pdfrwt>
<totfact> 0.89849842E+06</totfact>
</mgrwt>
</event>
<event>
 4    1  0.3862688E+004  0.2125805E+02  0.7546771E-02  0.1721409E+00
         21   -1    0    0  501  502  0.00000000000E+00  0.00000000000E+00  0.25212348517E+02  0.25212348517E+02  0.00000000000E+00 0. -1.
         21   -1    0    0  502  503 -0.00000000000E+00 -0.00000000000E+00 -0.68374724604E+02  0.68374724604E+02  0.00000000000E+00 0. -1.
          4    1    1    2  501    0  0.39714731041E+00  0.21254344235E+02  0.18613808317E+02  0.28255596524E+02  0.00000000000E+00 0.  1.
         -4    1    1    2    0  503 -0.39714731041E+00 -0.21254344235E+02 -0.61776184405E+02  0.65331476598E+02  0.00000000000E+00 0. -1.
<mgrwt>
<rscale>  2 0.21258054E+02</rscale>
<asrwt>0</asrwt>
<pdfrwt beam="1">  1       21 0.38788229E-02 0.21258054E+02</pdfrwt>
<pdfrwt beam="2">  1       21 0.10519188E-01 0.21258054E+02</pdfrwt>
<totfact> 0.22504106E+07</totfact>
</mgrwt>
</event>
<event>
 4    1  0.3862688E+004  0.6233374E+02  0.7546771E-02  0.1388291E+00
         21   -1    0    0  503  502  0.00000000000E+00  0.00000000000E+00  0.16519215827E+03  0.16519215827E+03  0.00000000000E+00 0. -1.
         21   -1    0    0  501  503 -0.00000000000E+00 -0.00000000000E+00 -0.39508555093E+02  0.39508555093E+02  0.00000000000E+00 0. -1.
          1    1    1    2  501    0  0.54218076428E+02 -0.30755419347E+02 -0.22661331946E+01  0.62374922768E+02  0.00000000000E+00 0. -1.
         -1    1    1    2    0  502 -0.54218076428E+02  0.30755419347E+02  0.12794973637E+03  0.14232579059E+03  0.00000000000E+00 0.  1.
<mgrwt>
<rscale>  2 0.62333744E+02</rscale>
<asrwt>0</asrwt>
<pdfrwt beam="1">  1       21 0.25414178E-01 0.62333744E+02</pdfrwt>
<pdfrwt beam="2">  1       21 0.60782393E-02 0.62333744E+02</pdfrwt>
<totfact> 0.27098254E+06</totfact>
</mgrwt>
</event>
<event>
 4    1  0.3862688E+004  0.2603653E+02  0.7546771E-02  0.1646545E+00
         21   -1    0    0  501  502  0.00000000000E+00  0.00000000000E+00  0.38965076541E+02  0.38965076541E+02  0.00000000000E+00 0. -1.
         21   -1    0    0  502  503 -0.00000000000E+00 -0.00000000000E+00 -0.17890769518E+02  0.17890769518E+02  0.00000000000E+00 0. -1.
          3    1    1    2  501    0 -0.16976107979E+02 -0.19741140492E+02  0.58175499840E+01  0.26678544897E+02  0.00000000000E+00 0. -1.
         -3    1    1    2    0  503  0.16976107979E+02  0.19741140492E+02  0.15256757039E+02  0.30177301161E+02  0.00000000000E+00 0.  1.
<mgrwt>
<rscale>  2 0.26036530E+02</rscale>
<asrwt>0</asrwt>
<pdfrwt beam="1">  1       21 0.59946271E-02 0.26036530E+02</pdfrwt>
<pdfrwt beam="2">  1       21 0.27524261E-02 0.26036530E+02</pdfrwt>
<totfact> 0.10145159E+08</totfact>
</mgrwt>
</event>
<event>
 4    1  0.3862688E+004  0.5359267E+02  0.7546771E-02  0.1426874E+00
         21   -1    0    0  503  502  0.00000000000E+00  0.00000000000E+00  0.98019621708E+01  0.98019621708E+01  0.00000000000E+00 0.  1.
         21   -1    0    0  501  503 -0.00000000000E+00 -0.00000000000E+00 -0.35686023942E+03  0.35686023942E+03  0.00000000000E+00 0.  1.
          5    1    1    2  501    0 -0.10687597330E+02  0.52516181256E+02 -0.25107046960E+03  0.25672661478E+03  0.00000000000E+00 0. -1.
         -5    1    1    2    0  502  0.10687597330E+02 -0.52516181256E+02 -0.95987807647E+02  0.10993558681E+03  0.00000000000E+00 0.  1.
<mgrwt>
<rscale>  2 0.53592668E+02</rscale>
<asrwt>0</asrwt>
<pdfrwt beam="1">  1       21 0.15079943E-02 0.53592668E+02</pdfrwt>
<pdfrwt beam="2">  1       21 0.54901571E-01 0.53592668E+02</pdfrwt>
<totfact> 0.56690048E+06</totfact>
</mgrwt>
</event>
<event>
 4    1  0.3862688E+004  0.6374665E+02  0.7546771E-02  0.1382749E+00
         21   -1    0    0  501  502  0.00000000000E+00  0.00000000000E+00  0.19367255394E+02  0.19367255394E+02  0.00000000000E+00 0.  1.
         21   -1    0    0  502  503 -0.00000000000E+00 -0.00000000000E+00 -0.20986354978E+03  0.20986354978E+03  0.00000000000E+00 0.  1.
          1    1    1    2  501    0 -0.16595936510E+02  0.61548435402E+02 -0.96901687075E+02  0.11598953387E+03  0.00000000000E+00 0. -1.
         -1    1    1    2    0  503  0.16595936510E+02 -0.61548435402E+02 -0.93594607314E+02  0.11324127131E+03  0.00000000000E+00 0.  1.
<mgrwt>
<rscale>  2 0.63746647E+02</rscale>
<asrwt>0</asrwt>
<pdfrwt beam="1">  1       21 0.29795780E-02 0.63746647E+02</pdfrwt>
<pdfrwt beam="2">  1       21 0.32286698E-01 0.63746647E+02</pdfrwt>
<totfact> 0.55551384E+06</totfact>
</mgrwt>
</event>
<event>
 4    1  0.3862688E+004  0.3440101E+02  0.7546771E-02  0.1553985E+00
         21   -1    0    0  503  502  0.00000000000E+00  0.00000000000E+00  0.42637587702E+03  0.42637587702E+03  0.00000000000E+00 0.  1.
         21   -1    0    0  501  503 -0.00000000000E+00 -0.00000000000E+00 -0.29810046779E+01  0.29810046779E+01  0.00000000000E+00 0.  1.
          1    1    1    2  501    0  0.11733089916E+02  0.32338273226E+02  0.26805611269E+03  0.27025452607E+03  0.00000000000E+00 0.  1.
         -1    1    1    2    0  502 -0.11733089916E+02 -0.32338273226E+02  0.15533875966E+03  0.15910235563E+03  0.00000000000E+00 0. -1.
<mgrwt>
<rscale>  2 0.34401007E+02</rscale>
<asrwt>0</asrwt>
<pdfrwt beam="1">  1       21 0.65596241E-01 0.34401007E+02</pdfrwt>
<pdfrwt beam="2">  1       21 0.45861644E-03 0.34401007E+02</pdfrwt>
<totfact> 0.22904106E+07</totfact>
</mgrwt>
</event>
<event>
 4    1  0.3862688E+004  0.2386092E+02  0.7546771E-02  0.1677923E+00
         21   -1    0    0  503  502  0.00000000000E+00  0.00000000000E+00  0.33436269029E+03  0.33436269029E+03  0.00000000000E+00 0. -1.
         21   -1    0    0  501  503 -0.00000000000E+00 -0.00000000000E+00 -0.18932029304E+01  0.18932029304E+01  0.00000000000E+00 0. -1.
          4    1    1    2  501    0  0.23828849129E+02  0.12366889600E+01  0.21955718061E+03  0.22084994681E+03  0.00000000000E+00 0. -1.
         -4    1    1    2    0  502 -0.23828849129E+02 -0.12366889600E+01  0.11291230675E+03  0.11540594640E+03  0.00000000000E+00 0.  1.
<mgrwt>
<rscale>  2 0.23860919E+02</rscale>
<asrwt>0</asrwt>
<pdfrwt beam="1">  1       21 0.51440367E-01 0.23860919E+02</pdfrwt>
<pdfrwt beam="2">  1       21 0.29126225E-03 0.23860919E+02</pdfrwt>
<totfact> 0.67792271E+07</totfact>
</mgrwt>
</event>
<event>
 4    1  0.3862688E+004  0.2414992E+02  0.7546771E-02  0.1673521E+00
         21   -1    0    0  501  502  0.00000000000E+00  0.00000000000E+00  0.55705889906E+02  0.55705889906E+02  0.00000000000E+00 0. -1.
         21   -1    0    0  502  503 -0.00000000000E+00 -0.00000000000E+00 -0.14751562539E+02  0.14751562539E+02  0.00000000000E+00 0. -1.
          1    1    1    2  501    0  0.69687132077E+01  0.23122624704E+02  0.14970399444E+01  0.24196277928E+02  0.00000000000E+00 0. -1.
         -1    1    1    2    0  503 -0.69687132077E+01 -0.23122624704E+02  0.39457287423E+02  0.46261174517E+02  0.00000000000E+00 0.  1.
<mgrwt>
<rscale>  2 0.24149922E+02</rscale>
<asrwt>0</asrwt>
<pdfrwt beam="1">  1       21 0.85701368E-02 0.24149922E+02</pdfrwt>
<pdfrwt beam="2">  1       21 0.22694712E-02 0.24149922E+02</pdfrwt>
<totfact> 0.75000459E+07</totfact>
</mgrwt>
</event>
<event>
 4    1  0.3862688E+004  0.2079002E+02  0.7546771E-02  0.1730059E+00
         21   -1    0    0  501  502  0.00000000000E+00  0.00000000000E+00  0.11354794352E+02  0.11354794352E+02  0.00000000000E+00 0.  1.
         21   -1    0    0  502  503 -0.00000000000E+00 -0.00000000000E+00 -0.44492431515E+02  0.44492431515E+02  0.00000000000E+00 0.  1.
          3    1    1    2  501    0  0.17954377132E+02 -0.10481669528E+02 -0.59559456560E+01  0.21626334478E+02  0.00000000000E+00 0. -1.
         -3    1    1    2    0  503 -0.17954377132E+02  0.10481669528E+02 -0.27181691507E+02  0.34220891389E+02  0.00000000000E+00 0.  1.
<mgrwt>
<rscale>  2 0.20790023E+02</rscale>
<asrwt>0</asrwt>
<pdfrwt beam="1">  1       21 0.17468915E-02 0.20790023E+02</pdfrwt>
<pdfrwt beam="2">  1       21 0.68449893E-02 0.20790023E+02</pdfrwt>
<totfact> 0.15453488E+08</totfact>
</mgrwt>
</event>
<event>
 4    1  0.3862688E+004  0.2152134E+02  0.7546771E-02  0.1716664E+00
         21   -1    0    0  503  502  0.00000000000E+00  0.00000000000E+00  0.24524661221E+03  0.24524661221E+03  0.00000000000E+00 0.  1.
         21   -1    0    0  501  503 -0.00000000000E+00 -0.00000000000E+00 -0.21710299056E+01  0.21710299056E+01  0.00000000000E+00 0.  1.
          4    1    1    2  501    0 -0.73405887864E+01 -0.20230764402E+02  0.76916947596E+02  0.79871051699E+02  0.00000000000E+00 0.  1.
         -4    1    1    2    0  502  0.73405887864E+01  0.20230764402E+02  0.16615863471E+03  0.16754659042E+03  0.00000000000E+00 0. -1.
<mgrwt>
<rscale>  2 0.21521340E+02</rscale>
<asrwt>0</asrwt>
<pdfrwt beam="1">  1       21 0.37730226E-01 0.21521340E+02</pdfrwt>
<pdfrwt beam="2">  1       21 0.33400480E-03 0.21521340E+02</pdfrwt>
<totfact> 0.97704342E+07</totfact>
</mgrwt>
</event>
<event>
 4    1  0.3862688E+004  0.2372062E+02  0.7546771E-02  0.1680088E+00
         21   -1    0    0  503  502  0.00000000000E+00  0.00000000000E+00  0.14024936989E+01  0.14024936989E+01  0.00000000000E+00 0. -1.
         21   -1    0    0  501  503 -0.00000000000E+00 -0.00000000000E+00 -0.40527499752E+03  0.40527499752E+03  0.00000000000E+00 0. -1.
          5    1    1    2  501    0  0.78234743120E+01  0.22393327711E+02 -0.22234831745E+03  0.22361002247E+03  0.00000000000E+00 0.  1.
         -5    1    1    2    0  502 -0.78234743120E+01 -0.22393327711E+02 -0.18152418637E+03  0.18306746874E+03  0.00000000000E+00 0. -1.
<mgrwt>
<rscale>  2 0.23720621E+02</rscale>
<asrwt>0</asrwt>
<pdfrwt beam="1">  1       21 0.21576792E-03 0.23720621E+02</pdfrwt>
<pdfrwt beam="2">  1       21 0.62350097E-01 0.23720621E+02</pdfrwt>
<totfact> 0.71471067E+07</totfact>
</mgrwt>
</event>
<event>
 4    1  0.3862688E+004  0.2026596E+02  0.7546771E-02  0.1740090E+00
         21   -1    0    0  503  502  0.00000000000E+00  0.00000000000E+00  0.29753343368E+02  0.29753343368E+02  0.00000000000E+00 0.  1.
         21   -1    0    0  501  503 -0.00000000000E+00 -0.00000000000E+00 -0.14461581375E+02  0.14461581375E+02  0.00000000000E+00 0.  1.
          1    1    1    2  501    0  0.12743652375E+01 -0.20225854724E+02  0.12360772828E+02  0.23738110939E+02  0.00000000000E+00 0.  1.
         -1    1    1    2    0  502 -0.12743652375E+01  0.20225854724E+02  0.29309891650E+01  0.20476813804E+02  0.00000000000E+00 0. -1.
<mgrwt>
<rscale>  2 0.20265962E+02</rscale>
<asrwt>0</asrwt>
<pdfrwt beam="1">  1       21 0.45774374E-02 0.20265962E+02</pdfrwt>
<pdfrwt beam="2">  1       21 0.22248587E-02 0.20265962E+02</pdfrwt>
<totfact> 0.20117995E+08</totfact>
</mgrwt>
</event>
<event>
 4    1  0.3862688E+004  0.3959238E+02  0.7546771E-02  0.1511233E+00
         21   -1    0    0  501  502  0.00000000000E+00  0.00000000000E+00  0.17053396420E+03  0.17053396420E+03  0.00000000000E+00 0. -1.
         21   -1    0    0  502  503 -0.00000000000E+00 -0.00000000000E+00 -0.10379317966E+02  0.10379317966E+02  0.00000000000E+00 0. -1.
          3    1    1    2  501    0 -0.15629028117E+02 -0.36377054783E+02  0.11067091871E+03  0.11753981829E+03  0.00000000000E+00 0.  1.
         -3    1    1    2    0  503  0.15629028117E+02  0.36377054783E+02  0.49483727526E+02  0.63373463883E+02  0.00000000000E+00 0. -1.
<mgrwt>
<rscale>  2 0.39592381E+02</rscale>
<asrwt>0</asrwt>
<pdfrwt beam="1">  1       21 0.26235992E-01 0.39592381E+02</pdfrwt>
<pdfrwt beam="2">  1       21 0.15968183E-02 0.39592381E+02</pdfrwt>
<totfact> 0.20733274E+07</totfact>
</mgrwt>
</event>
<event>
 4    1  0.3862688E+004  0.2088162E+02  0.7546771E-02  0.1728344E+00
         21   -1    0    0  503  502  0.00000000000E+00  0.00000000000E+00  0.18641116098E+02  0.18641116098E+02  0.00000000000E+00 0.  1.
         21   -1    0    0  501  503 -0.00000000000E+00 -0.00000000000E+00 -0.24674874978E+02  0.24674874978E+02  0.00000000000E+00 0.  1.
          5    1    1    2  501    0 -0.74102055257E+01  0.19522576773E+02  0.19226017498E+01  0.20969943903E+02  0.00000000000E+00 0. -1.
         -5    1    1    2    0  502  0.74102055257E+01 -0.19522576773E+02 -0.79563606296E+01  0.22346047173E+02  0.00000000000E+00 0.  1.
<mgrwt>
<rscale>  2 0.20881622E+02</rscale>
<asrwt>0</asrwt>
<pdfrwt beam="1">  1       21 0.28678640E-02 0.20881622E+02</pdfrwt>
<pdfrwt beam="2">  1       21 0.37961346E-02 0.20881622E+02</pdfrwt>
<totfact> 0.18435817E+08</totfact>
</mgrwt>
</event>
<event>
 4    1  0.3862688E+004  0.2971217E+02  0.7546771E-02  0.1601292E+00
         21   -1    0    0  501  502  0.00000000000E+00  0.00000000000E+00  0.93439394607E+03  0.93439394607E+03  0.00000000000E+00 0. -1.
         21   -1    0    0  502  503 -0.00000000000E+00 -0.00000000000E+00 -0.10860219618E+01  0.10860219618E+01  0.00000000000E+00 0. -1.
          5    1    1    2  501    0  0.11195721397E+02 -0.27522153671E+02  0.63532482411E+03  0.63601921768E+03  0.00000000000E+00 0.  1.
         -5    1    1    2    0  503 -0.11195721397E+02  0.27522153671E+02  0.29798309999E+03  0.29946075035E+03  0.00000000000E+00 0. -1.
<mgrwt>
<rscale>  2 0.29712171E+02</rscale>
<asrwt>0</asrwt>
<pdfrwt beam="1">  1       21 0.14375227E+00 0.29712171E+02</pdfrwt>
<pdfrwt beam="2">  1       21 0.16708105E-03 0.29712171E+02</pdfrwt>
<totfact> 0.17422622E+07</totfact>
</mgrwt>
</event>
<event>
 4    1  0.3862688E+004  0.3066238E+02  0.7546771E-02  0.1590880E+00
         21   -1    0    0  503  502  0.00000000000E+00  0.00000000000E+00  0.43440369526E+01  0.43440369526E+01  0.00000000000E+00 0. -1.
         21   -1    0    0  501  503 -0.00000000000E+00 -0.00000000000E+00 -0.27960269379E+03  0.27960269379E+03  0.00000000000E+00 0. -1.
          4    1    1    2  501    0 -0.29125068605E+02  0.95870796825E+01 -0.70145536913E+02  0.76554412459E+02  0.00000000000E+00 0.  1.
         -4    1    1    2    0  502  0.29125068605E+02 -0.95870796825E+01 -0.20511311993E+03  0.20739231829E+03  0.00000000000E+00 0. -1.
<mgrwt>
<rscale>  2 0.30662383E+02</rscale>
<asrwt>0</asrwt>
<pdfrwt beam="1">  1       21 0.66831320E-03 0.30662383E+02</pdfrwt>
<pdfrwt beam="2">  1       21 0.43015811E-01 0.30662383E+02</pdfrwt>
<totfact> 0.29624993E+07</totfact>
</mgrwt>
</event>
<event>
 4    1  0.3862688E+004  0.2078938E+02  0.7546771E-02  0.1730071E+00
         21   -1    0    0  501  502  0.00000000000E+00  0.00000000000E+00  0.10450525629E+03  0.10450525629E+03  0.00000000000E+00 0. -1.
         21   -1    0    0  502  503 -0.00000000000E+00 -0.00000000000E+00 -0.63086038660E+01  0.63086038660E+01  0.00000000000E+00 0. -1.
          3    1    1    2  501    0 -0.19345629570E+02 -0.76121610435E+01  0.81616155687E+02  0.84222296622E+02  0.00000000000E+00 0.  1.
         -3    1    1    2    0  503  0.19345629570E+02  0.76121610435E+01  0.16580496741E+02  0.26591563538E+02  0.00000000000E+00 0. -1.
<mgrwt>
<rscale>  2 0.20789381E+02</rscale>
<asrwt>0</asrwt>
<pdfrwt beam="1">  1       21 0.16077730E-01 0.20789381E+02</pdfrwt>
<pdfrwt beam="2">  1       21 0.97055452E-03 0.20789381E+02</pdfrwt>
<totfact> 0.91319218E+07</totfact>
</mgrwt>
</event>
<event>
 4    1  0.3862688E+004  0.2043137E+02  0.7546771E-02  0.1736883E+00
         21   -1    0    0  503  502  0.00000000000E+00  0.00000000000E+00  0.31763411055E+03  0.31763411055E+03  0.00000000000E+00 0. -1.
         21   -1    0    0  501  503 -0.00000000000E+00 -0.00000000000E+00 -0.13607660195E+01  0.13607660195E+01  0.00000000000E+00 0. -1.
          2    1    1    2  501    0  0.46087389568E+01 -0.19904778752E+02  0.12863753856E+03  0.13024997896E+03  0.00000000000E+00 0. -1.
         -2    1    1    2    0  502 -0.46087389568E+01  0.19904778752E+02  0.18763580598E+03  0.18874489762E+03  0.00000000000E+00 0.  1.
<mgrwt>
<rscale>  2 0.20431365E+02</rscale>
<asrwt>0</asrwt>
<pdfrwt beam="1">  1       21 0.48866727E-01 0.20431365E+02</pdfrwt>
<pdfrwt beam="2">  1       21 0.20934887E-03 0.20431365E+02</pdfrwt>
<totfact> 0.11607540E+08</totfact>
</mgrwt>
</event>
<event>
 4    1  0.3862688E+004  0.2094854E+02  0.7546771E-02  0.1727098E+00
         21   -1    0    0  501  502  0.00000000000E+00  0.00000000000E+00  0.20415416553E+03  0.20415416553E+03  0.00000000000E+00 0. -1.
         21   -1    0    0  502  503 -0.00000000000E+00 -0.00000000000E+00 -0.22122725596E+01  0.22122725596E+01  0.00000000000E+00 0. -1.
          5    1    1    2  501    0 -0.20928330596E+02  0.91992549856E+00  0.11834386760E+03  0.12018366063E+03  0.00000000000E+00 0.  1.
         -5    1    1    2    0  503  0.20928330596E+02 -0.91992549856E+00  0.83598025375E+02  0.86182777461E+02  0.00000000000E+00 0. -1.
<mgrwt>
<rscale>  2 0.20948539E+02</rscale>
<asrwt>0</asrwt>
<pdfrwt beam="1">  1       21 0.31408318E-01 0.20948539E+02</pdfrwt>
<pdfrwt beam="2">  1       21 0.34034979E-03 0.20948539E+02</pdfrwt>
<totfact> 0.13227114E+08</totfact>
</mgrwt>
</event>
<event>
 4    1  0.3862688E+004  0.5046245E+02  0.7546771E-02  0.1442863E+00
         21   -1    0    0  501  502  0.00000000000E+00  0.00000000000E+00  0.22101099301E+02  0.22101099301E+02  0.00000000000E+00 0. -1.
         21   -1    0    0  502  503 -0.00000000000E+00 -0.00000000000E+00 -0.12062200051E+03  0.12062200051E+03  0.00000000000E+00 0. -1.
          1    1    1    2  501    0 -0.41139820468E+02  0.29222840445E+02 -0.34156803114E+02  0.60935592479E+02  0.00000000000E+00 0. -1.
         -1    1    1    2    0  503  0.41139820468E+02 -0.29222840445E+02 -0.64364098091E+02  0.81787507328E+02  0.00000000000E+00 0.  1.
<mgrwt>
<rscale>  2 0.50462454E+02</rscale>
<asrwt>0</asrwt>
<pdfrwt beam="1">  1       21 0.34001692E-02 0.50462454E+02</pdfrwt>
<pdfrwt beam="2">  1       21 0.18557231E-01 0.50462454E+02</pdfrwt>
<totfact> 0.12166225E+07</totfact>
</mgrwt>
</event>
<event>
 4    1  0.3862688E+004  0.3070176E+02  0.7546771E-02  0.1590459E+00
         21   -1    0    0  501  502  0.00000000000E+00  0.00000000000E+00  0.20280120375E+01  0.20280120375E+01  0.00000000000E+00 0. -1.
         21   -1    0    0  502  503 -0.00000000000E+00 -0.00000000000E+00 -0.47738566789E+03  0.47738566789E+03  0.00000000000E+00 0. -1.
          1    1    1    2  501    0  0.25653500824E+02 -0.16866999206E+02 -0.27661676149E+03  0.27831534364E+03  0.00000000000E+00 0. -1.
         -1    1    1    2    0  503 -0.25653500824E+02  0.16866999206E+02 -0.19874089436E+03  0.20109833629E+03  0.00000000000E+00 0.  1.
<mgrwt>
<rscale>  2 0.30701755E+02</rscale>
<asrwt>0</asrwt>
<pdfrwt beam="1">  1       21 0.31200223E-03 0.30701755E+02</pdfrwt>
<pdfrwt beam="2">  1       21 0.73443861E-01 0.30701755E+02</pdfrwt>
<totfact> 0.31437702E+07</totfact>
</mgrwt>
</event>
<event>
 4    1  0.3862688E+004  0.2105378E+02  0.7546771E-02  0.1725149E+00
         21   -1    0    0  501  502  0.00000000000E+00  0.00000000000E+00  0.23857659344E+03  0.23857659344E+03  0.00000000000E+00 0. -1.
         21   -1    0    0  502  503 -0.00000000000E+00 -0.00000000000E+00 -0.21534684428E+01  0.21534684428E+01  0.00000000000E+00 0. -1.
          1    1    1    2  501    0 -0.20799242108E+02 -0.32639497574E+01  0.73622522886E+02  0.76573740384E+02  0.00000000000E+00 0.  1.
         -1    1    1    2    0  503  0.20799242108E+02  0.32639497574E+01  0.16280060211E+03  0.16415632150E+03  0.00000000000E+00 0. -1.
<mgrwt>
<rscale>  2 0.21053784E+02</rscale>
<asrwt>0</asrwt>
<pdfrwt beam="1">  1       21 0.36704070E-01 0.21053784E+02</pdfrwt>
<pdfrwt beam="2">  1       21 0.33130303E-03 0.21053784E+02</pdfrwt>
<totfact> 0.10344943E+08</totfact>
</mgrwt>
</event>
<event>
 4    1  0.3862688E+004  0.2548222E+02  0.7546771E-02  0.1654171E+00
         21   -1    0    0  501  502  0.00000000000E+00  0.00000000000E+00  0.20990988519E+01  0.20990988519E+01  0.00000000000E+00 0.  1.
         21   -1    0    0  502  503 -0.00000000000E+00 -0.00000000000E+00 -0.36716861106E+03  0.36716861106E+03  0.00000000000E+00 0.  1.
          1    1    1    2  501    0  0.15165019822E+02 -0.20478422481E+02 -0.10926327624E+03  0.11219539718E+03  0.00000000000E+00 0.  1.
         -1    1    1    2    0  503 -0.15165019822E+02  0.20478422481E+02 -0.25580623597E+03  0.25707231273E+03  0.00000000000E+00 0. -1.
<mgrwt>
<rscale>  2 0.25482222E+02</rscale>
<asrwt>0</asrwt>
<pdfrwt beam="1">  1       21 0.32293822E-03 0.25482222E+02</pdfrwt>
<pdfrwt beam="2">  1       21 0.56487490E-01 0.25482222E+02</pdfrwt>
<totfact> 0.49208005E+07</totfact>
</mgrwt>
</event>
<event>
 4    1  0.3862688E+004  0.2405588E+02  0.7546771E-02  0.1674945E+00
         21   -1    0    0  503  502  0.00000000000E+00  0.00000000000E+00  0.82660494151E+01  0.82660494151E+01  0.00000000000E+00 0. -1.
         21   -1    0    0  501  503 -0.00000000000E+00 -0.00000000000E+00 -0.74257197812E+02  0.74257197812E+02  0.00000000000E+00 0. -1.
          1    1    1    2  501    0  0.52619835870E+01  0.23473321794E+02 -0.42866479125E+02  0.49155064235E+02  0.00000000000E+00 0. -1.
         -1    1    1    2    0  502 -0.52619835870E+01 -0.23473321794E+02 -0.23124669271E+02  0.33368182992E+02  0.00000000000E+00 0.  1.
<mgrwt>
<rscale>  2 0.24055879E+02</rscale>
<asrwt>0</asrwt>
<pdfrwt beam="1">  1       21 0.12716999E-02 0.24055879E+02</pdfrwt>
<pdfrwt beam="2">  1       21 0.11424185E-01 0.24055879E+02</pdfrwt>
<totfact> 0.11282006E+08</totfact>
</mgrwt>
</event>
<event>
 4    1  0.3862688E+004  0.2150411E+02  0.7546771E-02  0.1716972E+00
         21   -1    0    0  503  502  0.00000000000E+00  0.00000000000E+00  0.35338603098E+02  0.35338603098E+02  0.00000000000E+00 0.  1.
         21   -1    0    0  501  503 -0.00000000000E+00 -0.00000000000E+00 -0.13370415775E+02  0.13370415775E+02  0.00000000000E+00 0.  1.
          3    1    1    2  501    0  0.17161448376E+02  0.12958061343E+02  0.74294799389E+01  0.22751348011E+02  0.00000000000E+00 0.  1.
         -3    1    1    2    0  502 -0.17161448376E+02 -0.12958061343E+02  0.14538707384E+02  0.25957670861E+02  0.00000000000E+00 0. -1.
<mgrwt>
<rscale>  2 0.21504108E+02</rscale>
<asrwt>0</asrwt>
<pdfrwt beam="1">  1       21 0.54367081E-02 0.21504108E+02</pdfrwt>
<pdfrwt beam="2">  1       21 0.20569871E-02 0.21504108E+02</pdfrwt>
<totfact> 0.17601192E+08</totfact>
</mgrwt>
</event>
<event>
 4    1  0.3862688E+004  0.2441403E+02  0.7546771E-02  0.1669564E+00
         21   -1    0    0  501  502  0.00000000000E+00  0.00000000000E+00  0.13461717309E+02  0.13461717309E+02  0.00000000000E+00 0. -1.
         21   -1    0    0  502  503 -0.00000000000E+00 -0.00000000000E+00 -0.54299224140E+02  0.54299224140E+02  0.00000000000E+00 0. -1.
          1    1    1    2  501    0  0.18109245178E+02  0.16373759170E+02 -0.34974490670E+02  0.42652781245E+02  0.00000000000E+00 0.  1.
         -1    1    1    2    0  503 -0.18109245178E+02 -0.16373759170E+02 -0.58630161604E+01  0.25108160203E+02  0.00000000000E+00 0. -1.
<mgrwt>
<rscale>  2 0.24414028E+02</rscale>
<asrwt>0</asrwt>
<pdfrwt beam="1">  1       21 0.20710334E-02 0.24414028E+02</pdfrwt>
<pdfrwt beam="2">  1       21 0.83537267E-02 0.24414028E+02</pdfrwt>
<totfact> 0.90335779E+07</totfact>
</mgrwt>
</event>
<event>
 4    1  0.3862688E+004  0.2503941E+02  0.7546771E-02  0.1660436E+00
         21   -1    0    0  503  502  0.00000000000E+00  0.00000000000E+00  0.57376429638E+01  0.57376429638E+01  0.00000000000E+00 0. -1.
         21   -1    0    0  501  503 -0.00000000000E+00 -0.00000000000E+00 -0.13894171765E+03  0.13894171765E+03  0.00000000000E+00 0. -1.
          4    1    1    2  501    0  0.21704567101E+02 -0.12485351079E+02 -0.33174366736E+02  0.41563335200E+02  0.00000000000E+00 0. -1.
         -4    1    1    2    0  502 -0.21704567101E+02  0.12485351079E+02 -0.10002970795E+03  0.10311602542E+03  0.00000000000E+00 0.  1.
<mgrwt>
<rscale>  2 0.25039413E+02</rscale>
<asrwt>0</asrwt>
<pdfrwt beam="1">  1       21 0.88271428E-03 0.25039413E+02</pdfrwt>
<pdfrwt beam="2">  1       21 0.21375649E-01 0.25039413E+02</pdfrwt>
<totfact> 0.67546759E+07</totfact>
</mgrwt>
</event>
<event>
 4    1  0.3862688E+004  0.2748401E+02  0.7546771E-02  0.1627690E+00
         21   -1    0    0  503  502  0.00000000000E+00  0.00000000000E+00  0.40077962438E+03  0.40077962438E+03  0.00000000000E+00 0.  1.
         21   -1    0    0  501  503 -0.00000000000E+00 -0.00000000000E+00 -0.19045761441E+01  0.19045761441E+01  0.00000000000E+00 0.  1.
          3    1    1    2  501    0  0.10352697618E+02  0.25459621464E+02  0.21997843413E+03  0.22168870552E+03  0.00000000000E+00 0.  1.
         -3    1    1    2    0  502 -0.10352697618E+02 -0.25459621464E+02  0.17889661411E+03  0.18099549501E+03  0.00000000000E+00 0. -1.
<mgrwt>
<rscale>  2 0.27484008E+02</rscale>
<asrwt>0</asrwt>
<pdfrwt beam="1">  1       21 0.61658337E-01 0.27484008E+02</pdfrwt>
<pdfrwt beam="2">  1       21 0.29301203E-03 0.27484008E+02</pdfrwt>
<totfact> 0.48366142E+07</totfact>
</mgrwt>
</event>
<event>
 4    1  0.3862688E+004  0.2646112E+02  0.7546771E-02  0.1640861E+00
         21   -1    0    0  501  502  0.00000000000E+00  0.00000000000E+00  0.18669615758E+01  0.18669615758E+01  0.00000000000E+00 0.  1.
         21   -1    0    0  502  503 -0.00000000000E+00 -0.00000000000E+00 -0.84374505266E+03  0.84374505266E+03  0.00000000000E+00 0.  1.
          1    1    1    2  501    0 -0.22459575650E+02 -0.13991362933E+02 -0.73606485970E+03  0.73654033729E+03  0.00000000000E+00 0.  1.
         -1    1    1    2    0  503  0.22459575650E+02  0.13991362933E+02 -0.10581323139E+03  0.10907167695E+03  0.00000000000E+00 0. -1.
<mgrwt>
<rscale>  2 0.26461118E+02</rscale>
<asrwt>0</asrwt>
<pdfrwt beam="1">  1       21 0.28722598E-03 0.26461118E+02</pdfrwt>
<pdfrwt beam="2">  1       21 0.12980642E+00 0.26461118E+02</pdfrwt>
<totfact> 0.99000768E+06</totfact>
</mgrwt>
</event>
<event>
 4    1  0.3862688E+004  0.2288517E+02  0.7546771E-02  0.1693378E+00
         21   -1    0    0  503  502  0.00000000000E+00  0.00000000000E+00  0.11589894055E+04  0.11589894055E+04  0.00000000000E+00 0. -1.
         21   -1    0    0  501  503 -0.00000000000E+00 -0.00000000000E+00 -0.56499005117E+00  0.56499005117E+00  0.00000000000E+00 0. -1.
          5    1    1    2  501    0  0.13232227012E+02 -0.18671880193E+02  0.83861822809E+03  0.83893042824E+03  0.00000000000E+00 0. -1.
         -5    1    1    2    0  502 -0.13232227012E+02  0.18671880193E+02  0.31980618740E+03  0.32062396736E+03  0.00000000000E+00 0.  1.
<mgrwt>
<rscale>  2 0.22885169E+02</rscale>
<asrwt>0</asrwt>
<pdfrwt beam="1">  1       21 0.17830416E+00 0.22885169E+02</pdfrwt>
<pdfrwt beam="2">  1       21 0.86922474E-04 0.22885169E+02</pdfrwt>
<totfact> 0.25342758E+07</totfact>
</mgrwt>
</event>
<event>
 4    1  0.3862688E+004  0.2027863E+02  0.7546771E-02  0.1739843E+00
         21   -1    0    0  501  502  0.00000000000E+00  0.00000000000E+00  0.62550888044E+00  0.62550888044E+00  0.00000000000E+00 0.  1.
         21   -1    0    0  502  503 -0.00000000000E+00 -0.00000000000E+00 -0.68167734192E+03  0.68167734192E+03  0.00000000000E+00 0.  1.
          4    1    1    2  501    0  0.13162024170E+02  0.15426724878E+02 -0.27617277680E+03  0.27691627862E+03  0.00000000000E+00 0.  1.
         -4    1    1    2    0  503 -0.13162024170E+02 -0.15426724878E+02 -0.40487905625E+03  0.40538657219E+03  0.00000000000E+00 0. -1.
<mgrwt>
<rscale>  2 0.20278627E+02</rscale>
<asrwt>0</asrwt>
<pdfrwt beam="1">  1       21 0.96232489E-04 0.20278627E+02</pdfrwt>
<pdfrwt beam="2">  1       21 0.10487305E+00 0.20278627E+02</pdfrwt>
<totfact> 0.73374914E+07</totfact>
</mgrwt>
</event>
<event>
 4    1  0.3862688E+004  0.2696216E+02  0.7546771E-02  0.1634319E+00
         21   -1    0    0  503  502  0.00000000000E+00  0.00000000000E+00  0.27863180942E+02  0.27863180942E+02  0.00000000000E+00 0.  1.
         21   -1    0    0  501  503 -0.00000000000E+00 -0.00000000000E+00 -0.26174025429E+02  0.26174025429E+02  0.00000000000E+00 0.  1.
          4    1    1    2  501    0  0.89727018236E+01  0.25425351998E+02 -0.68381579873E+00  0.26970826948E+02  0.00000000000E+00 0.  1.
         -4    1    1    2    0  502 -0.89727018236E+01 -0.25425351998E+02  0.23729713110E+01  0.27066379423E+02  0.00000000000E+00 0. -1.
<mgrwt>
<rscale>  2 0.26962157E+02</rscale>
<asrwt>0</asrwt>
<pdfrwt beam="1">  1       21 0.42866432E-02 0.26962157E+02</pdfrwt>
<pdfrwt beam="2">  1       21 0.40267731E-02 0.26962157E+02</pdfrwt>
<totfact> 0.96329160E+07</totfact>
</mgrwt>
</event>
<event>
 4    1  0.3862688E+004  0.2547736E+02  0.7546771E-02  0.1654239E+00
         21   -1    0    0  503  502  0.00000000000E+00  0.00000000000E+00  0.15162063293E+02  0.15162063293E+02  0.00000000000E+00 0. -1.
         21   -1    0    0  501  503 -0.00000000000E+00 -0.00000000000E+00 -0.43467707620E+02  0.43467707620E+02  0.00000000000E+00 0. -1.
          1    1    1    2  501    0  0.11843755793E+02 -0.22557071508E+02 -0.17757321001E+02  0.31055087755E+02  0.00000000000E+00 0. -1.
         -1    1    1    2    0  502 -0.11843755793E+02  0.22557071508E+02 -0.10548323326E+02  0.27574683159E+02  0.00000000000E+00 0.  1.
<mgrwt>
<rscale>  2 0.25477363E+02</rscale>
<asrwt>0</asrwt>
<pdfrwt beam="1">  1       21 0.23326251E-02 0.25477363E+02</pdfrwt>
<pdfrwt beam="2">  1       21 0.66873396E-02 0.25477363E+02</pdfrwt>
<totfact> 0.10928888E+08</totfact>
</mgrwt>
</event>
<event>
 4    1  0.3862688E+004  0.2787763E+02  0.7546771E-02  0.1622808E+00
         21   -1    0    0  503  502  0.00000000000E+00  0.00000000000E+00  0.71218296171E+02  0.71218296171E+02  0.00000000000E+00 0. -1.
         21   -1    0    0  501  503 -0.00000000000E+00 -0.00000000000E+00 -0.11944837424E+02  0.11944837424E+02  0.00000000000E+00 0. -1.
          4    1    1    2  501    0  0.12676496445E+02 -0.24828790507E+02  0.17411894665E+02  0.32868472371E+02  0.00000000000E+00 0. -1.
         -4    1    1    2    0  502 -0.12676496445E+02  0.24828790507E+02  0.41861564082E+02  0.50294661223E+02  0.00000000000E+00 0.  1.
<mgrwt>
<rscale>  2 0.27877633E+02</rscale>
<asrwt>0</asrwt>
<pdfrwt beam="1">  1       21 0.10956661E-01 0.27877633E+02</pdfrwt>
<pdfrwt beam="2">  1       21 0.18376673E-02 0.27877633E+02</pdfrwt>
<totfact> 0.71631670E+07</totfact>
</mgrwt>
</event>
<event>
 4    1  0.3862688E+004  0.4778627E+02  0.7546771E-02  0.1457661E+00
         21   -1    0    0  501  502  0.00000000000E+00  0.00000000000E+00  0.16686582703E+02  0.16686582703E+02  0.00000000000E+00 0. -1.
         21   -1    0    0  502  503 -0.00000000000E+00 -0.00000000000E+00 -0.14135347868E+03  0.14135347868E+03  0.00000000000E+00 0. -1.
          1    1    1    2  501    0 -0.29070342009E+02  0.37926808824E+02 -0.76440888423E+02  0.90148416708E+02  0.00000000000E+00 0.  1.
         -1    1    1    2    0  503  0.29070342009E+02 -0.37926808824E+02 -0.48226007553E+02  0.67891644674E+02  0.00000000000E+00 0. -1.
<mgrwt>
<rscale>  2 0.47786270E+02</rscale>
<asrwt>0</asrwt>
<pdfrwt beam="1">  1       21 0.25671665E-02 0.47786270E+02</pdfrwt>
<pdfrwt beam="2">  1       21 0.21746690E-01 0.47786270E+02</pdfrwt>
<totfact> 0.14231233E+07</totfact>
</mgrwt>
</event>
<event>
 4    1  0.3862688E+004  0.2003072E+02  0.7546771E-02  0.1744718E+00
         21   -1    0    0  501  502  0.00000000000E+00  0.00000000000E+00  0.42520816072E+02  0.42520816072E+02  0.00000000000E+00 0.  1.
         21   -1    0    0  502  503 -0.00000000000E+00 -0.00000000000E+00 -0.12206057664E+02  0.12206057664E+02  0.00000000000E+00 0.  1.
          5    1    1    2  501    0  0.11607070730E+02  0.16324998358E+02  0.28192689200E+02  0.34584062611E+02  0.00000000000E+00 0. -1.
         -5    1    1    2    0  503 -0.11607070730E+02 -0.16324998358E+02  0.21220692083E+01  0.20142811126E+02  0.00000000000E+00 0.  1.
<mgrwt>
<rscale>  2 0.20030718E+02</rscale>
<asrwt>0</asrwt>
<pdfrwt beam="1">  1       21 0.65416639E-02 0.20030718E+02</pdfrwt>
<pdfrwt beam="2">  1       21 0.18778550E-02 0.20030718E+02</pdfrwt>
<totfact> 0.14715398E+08</totfact>
</mgrwt>
</event>
<event>
 4    1  0.3862688E+004  0.2613111E+02  0.7546771E-02  0.1645267E+00
         21   -1    0    0  503  502  0.00000000000E+00  0.00000000000E+00  0.59013590209E+03  0.59013590209E+03  0.00000000000E+00 0.  1.
         21   -1    0    0  501  503 -0.00000000000E+00 -0.00000000000E+00 -0.11574325288E+01  0.11574325288E+01  0.00000000000E+00 0.  1.
          1    1    1    2  501    0 -0.12794697641E+02 -0.22784434179E+02  0.29964545023E+03  0.30078269660E+03  0.00000000000E+00 0.  1.
         -1    1    1    2    0  502  0.12794697641E+02  0.22784434179E+02  0.28933301933E+03  0.29051063802E+03  0.00000000000E+00 0. -1.
<mgrwt>
<rscale>  2 0.26131107E+02</rscale>
<asrwt>0</asrwt>
<pdfrwt beam="1">  1       21 0.90789899E-01 0.26131107E+02</pdfrwt>
<pdfrwt beam="2">  1       21 0.17806701E-03 0.26131107E+02</pdfrwt>
<totfact> 0.44048543E+07</totfact>
</mgrwt>
</event>
<event>
 4    1  0.3862688E+004  0.2193867E+02  0.7546771E-02  0.1709315E+00
         21   -1    0    0  501  502  0.00000000000E+00  0.00000000000E+00  0.99937753499E+02  0.99937753499E+02  0.00000000000E+00 0.  1.
         21   -1    0    0  502  503 -0.00000000000E+00 -0.00000000000E+00 -0.58614514244E+01  0.58614514244E+01  0.00000000000E+00 0.  1.
          3    1    1    2  501    0 -0.20424015883E+01  0.21843389251E+02  0.69378589813E+02  0.72764646517E+02  0.00000000000E+00 0.  1.
         -3    1    1    2    0  503  0.20424015883E+01 -0.21843389251E+02  0.24697712261E+02  0.33034558407E+02  0.00000000000E+00 0. -1.
<mgrwt>
<rscale>  2 0.21938666E+02</rscale>
<asrwt>0</asrwt>
<pdfrwt beam="1">  1       21 0.15375038E-01 0.21938666E+02</pdfrwt>
<pdfrwt beam="2">  1       21 0.90176183E-03 0.21938666E+02</pdfrwt>
<totfact> 0.11169230E+08</totfact>
</mgrwt>
</event>
<event>
 4    1  0.3862688E+004  0.2806299E+02  0.7546771E-02  0.1620543E+00
         21   -1    0    0  503  502  0.00000000000E+00  0.00000000000E+00  0.72382162460E+02  0.72382162460E+02  0.00000000000E+00 0. -1.
         21   -1    0    0  501  503 -0.00000000000E+00 -0.00000000000E+00 -0.11970997015E+02  0.11970997015E+02  0.00000000000E+00 0. -1.
          2    1    1    2  501    0 -0.27916402093E+02  0.28646191942E+01  0.17474055031E+02  0.33058647102E+02  0.00000000000E+00 0.  1.
         -2    1    1    2    0  502  0.27916402093E+02 -0.28646191942E+01  0.42937110414E+02  0.51294512373E+02  0.00000000000E+00 0. -1.
<mgrwt>
<rscale>  2 0.28062993E+02</rscale>
<asrwt>0</asrwt>
<pdfrwt beam="1">  1       21 0.11135717E-01 0.28062993E+02</pdfrwt>
<pdfrwt beam="2">  1       21 0.18416919E-02 0.28062993E+02</pdfrwt>
<totfact> 0.69587476E+07</totfact>
</mgrwt>
</event>
<event>
 4    1  0.3862688E+004  0.4659532E+02  0.7546771E-02  0.1464621E+00
         21   -1    0    0  501  502  0.00000000000E+00  0.00000000000E+00  0.13731790746E+03  0.13731790746E+03  0.00000000000E+00 0.  1.
         21   -1    0    0  502  503 -0.00000000000E+00 -0.00000000000E+00 -0.19846500027E+02  0.19846500027E+02  0.00000000000E+00 0.  1.
          2    1    1    2  501    0 -0.19423768605E+02  0.42353758218E+02  0.23300514033E+02  0.52096425753E+02  0.00000000000E+00 0. -1.
         -2    1    1    2    0  503  0.19423768605E+02 -0.42353758218E+02  0.94170893404E+02  0.10506798174E+03  0.00000000000E+00 0.  1.
<mgrwt>
<rscale>  2 0.46595318E+02</rscale>
<asrwt>0</asrwt>
<pdfrwt beam="1">  1       21 0.21125831E-01 0.46595318E+02</pdfrwt>
<pdfrwt beam="2">  1       21 0.30533078E-02 0.46595318E+02</pdfrwt>
<totfact> 0.11341477E+07</totfact>
</mgrwt>
</event>
<event>
 4    1  0.3862688E+004  0.3242935E+02  0.7546771E-02  0.1572690E+00
         21   -1    0    0  503  502  0.00000000000E+00  0.00000000000E+00  0.63955786231E+01  0.63955786231E+01  0.00000000000E+00 0.  1.
         21   -1    0    0  501  503 -0.00000000000E+00 -0.00000000000E+00 -0.22415987130E+03  0.22415987130E+03  0.00000000000E+00 0.  1.
          4    1    1    2  501    0  0.97170988752E+01 -0.30939307659E+02 -0.49378883906E+02  0.59075688272E+02  0.00000000000E+00 0.  1.
         -4    1    1    2    0  502 -0.97170988752E+01  0.30939307659E+02 -0.16838540877E+03  0.17147976165E+03  0.00000000000E+00 0. -1.
<mgrwt>
<rscale>  2 0.32429350E+02</rscale>
<asrwt>0</asrwt>
<pdfrwt beam="1">  1       21 0.98393518E-03 0.32429350E+02</pdfrwt>
<pdfrwt beam="2">  1       21 0.34486134E-01 0.32429350E+02</pdfrwt>
<totfact> 0.25403172E+07</totfact>
</mgrwt>
</event>
<event>
 4    1  0.3862688E+004  0.2017693E+02  0.7546771E-02  0.1741832E+00
         21   -1    0    0  501  502  0.00000000000E+00  0.00000000000E+00  0.76638095759E+02  0.76638095759E+02  0.00000000000E+00 0. -1.
         21   -1    0    0  502  503 -0.00000000000E+00 -0.00000000000E+00 -0.53743041702E+01  0.53743041702E+01  0.00000000000E+00 0. -1.
          3    1    1    2  501    0 -0.18944528479E+02  0.69435953435E+01  0.40043772192E+02  0.44839852441E+02  0.00000000000E+00 0. -1.
         -3    1    1    2    0  503  0.18944528479E+02 -0.69435953435E+01  0.31220019398E+02  0.37172547489E+02  0.00000000000E+00 0.  1.
<mgrwt>
<rscale>  2 0.20176934E+02</rscale>
<asrwt>0</asrwt>
<pdfrwt beam="1">  1       21 0.11790476E-01 0.20176934E+02</pdfrwt>
<pdfrwt beam="2">  1       21 0.82681608E-03 0.20176934E+02</pdfrwt>
<totfact> 0.19371577E+08</totfact>
</mgrwt>
</event>
<event>
 4    1  0.3862688E+004  0.2604598E+02  0.7546771E-02  0.1646417E+00
         21   -1    0    0  501  502  0.00000000000E+00  0.00000000000E+00  0.34188603646E+01  0.34188603646E+01  0.00000000000E+00 0. -1.
         21   -1    0    0  502  503 -0.00000000000E+00 -0.00000000000E+00 -0.22348251916E+03  0.22348251916E+03  0.00000000000E+00 0. -1.
          4    1    1    2  501    0  0.26001417935E+02 -0.15229349439E+01 -0.14801926305E+03  0.15029336412E+03  0.00000000000E+00 0.  1.
         -4    1    1    2    0  503 -0.26001417935E+02  0.15229349439E+01 -0.72044395748E+02  0.76608015404E+02  0.00000000000E+00 0. -1.
<mgrwt>
<rscale>  2 0.26045980E+02</rscale>
<asrwt>0</asrwt>
<pdfrwt beam="1">  1       21 0.52597833E-03 0.26045980E+02</pdfrwt>
<pdfrwt beam="2">  1       21 0.34381939E-01 0.26045980E+02</pdfrwt>
<totfact> 0.62512916E+07</totfact>
</mgrwt>
</event>
<event>
 4    1  0.3862688E+004  0.2782686E+02  0.7546771E-02  0.1623432E+00
         21   -1    0    0  501  502  0.00000000000E+00  0.00000000000E+00  0.39983467220E+02  0.39983467220E+02  0.00000000000E+00 0.  1.
         21   -1    0    0  502  503 -0.00000000000E+00 -0.00000000000E+00 -0.21628483565E+02  0.21628483565E+02  0.00000000000E+00 0.  1.
          2    1    1    2  501    0 -0.17542950637E+02 -0.21600435522E+02  0.19140277400E+02  0.33774015910E+02  0.00000000000E+00 0. -1.
         -2    1    1    2    0  503  0.17542950637E+02  0.21600435522E+02 -0.78529374489E+00  0.27837934874E+02  0.00000000000E+00 0.  1.
<mgrwt>
<rscale>  2 0.27826856E+02</rscale>
<asrwt>0</asrwt>
<pdfrwt beam="1">  1       21 0.61513027E-02 0.27826856E+02</pdfrwt>
<pdfrwt beam="2">  1       21 0.33274590E-02 0.27826856E+02</pdfrwt>
<totfact> 0.73525544E+07</totfact>
</mgrwt>
</event>
<event>
 4    1  0.3862688E+004  0.2232256E+02  0.7546771E-02  0.1702732E+00
         21   -1    0    0  501  502  0.00000000000E+00  0.00000000000E+00  0.15421936155E+03  0.15421936155E+03  0.00000000000E+00 0. -1.
         21   -1    0    0  502  503 -0.00000000000E+00 -0.00000000000E+00 -0.88290099367E+01  0.88290099367E+01  0.00000000000E+00 0. -1.
          2    1    1    2  501    0  0.11748560165E+02 -0.18980729089E+02  0.13760998453E+03  0.13940876797E+03  0.00000000000E+00 0. -1.
         -2    1    1    2    0  503 -0.11748560165E+02  0.18980729089E+02  0.77803670802E+01  0.23639603520E+02  0.00000000000E+00 0.  1.
<mgrwt>
<rscale>  2 0.22322561E+02</rscale>
<asrwt>0</asrwt>
<pdfrwt beam="1">  1       21 0.23726054E-01 0.22322561E+02</pdfrwt>
<pdfrwt beam="2">  1       21 0.13583093E-02 0.22322561E+02</pdfrwt>
<totfact> 0.28537134E+07</totfact>
</mgrwt>
</event>
<event>
 4    1  0.3862688E+004  0.2084382E+02  0.7546771E-02  0.1729050E+00
         21   -1    0    0  501  502  0.00000000000E+00  0.00000000000E+00  0.19724695210E+03  0.19724695210E+03  0.00000000000E+00 0.  1.
         21   -1    0    0  502  503 -0.00000000000E+00 -0.00000000000E+00 -0.22963305296E+01  0.22963305296E+01  0.00000000000E+00 0.  1.
          1    1    1    2  501    0  0.15713431634E+02  0.13695001095E+02  0.11762769610E+03  0.11946020207E+03  0.00000000000E+00 0. -1.
         -1    1    1    2    0  503 -0.15713431634E+02 -0.13695001095E+02  0.77322925471E+02  0.80083080560E+02  0.00000000000E+00 0.  1.
<mgrwt>
<rscale>  2 0.20843824E+02</rscale>
<asrwt>0</asrwt>
<pdfrwt beam="1">  1       21 0.30345672E-01 0.20843824E+02</pdfrwt>
<pdfrwt beam="2">  1       21 0.35328178E-03 0.20843824E+02</pdfrwt>
<totfact> 0.13316928E+08</totfact>
</mgrwt>
</event>
<event>
 4    1  0.3862688E+004  0.2160640E+02  0.7546771E-02  0.1715149E+00
         21   -1    0    0  503  502  0.00000000000E+00  0.00000000000E+00  0.13742108603E+03  0.13742108603E+03  0.00000000000E+00 0.  1.
         21   -1    0    0  501  503 -0.00000000000E+00 -0.00000000000E+00 -0.52593737792E+01  0.52593737792E+01  0.00000000000E+00 0.  1.
          4    1    1    2  501    0  0.19240974970E+02  0.98296291826E+01  0.23630021551E+02  0.32018973222E+02  0.00000000000E+00 0.  1.
         -4    1    1    2    0  502 -0.19240974970E+02 -0.98296291826E+01  0.10853169070E+03  0.11066148658E+03  0.00000000000E+00 0. -1.
<mgrwt>
<rscale>  2 0.21606405E+02</rscale>
<asrwt>0</asrwt>
<pdfrwt beam="1">  1       21 0.21141703E-01 0.21606405E+02</pdfrwt>
<pdfrwt beam="2">  1       21 0.80913453E-03 0.21606405E+02</pdfrwt>
<totfact> 0.75480085E+07</totfact>
</mgrwt>
</event>
<event>
 4    1  0.3862688E+004  0.2235866E+02  0.7546771E-02  0.1702122E+00
         21   -1    0    0  501  502  0.00000000000E+00  0.00000000000E+00  0.34171981833E+01  0.34171981833E+01  0.00000000000E+00 0. -1.
         21   -1    0    0  502  503 -0.00000000000E+00 -0.00000000000E+00 -0.20265152253E+03  0.20265152253E+03  0.00000000000E+00 0. -1.
          1    1    1    2  501    0 -0.16160716431E+02  0.15451240680E+02 -0.45280888438E+02  0.50500182691E+02  0.00000000000E+00 0.  1.
         -1    1    1    2    0  503  0.16160716431E+02 -0.15451240680E+02 -0.15395343591E+03  0.15556853802E+03  0.00000000000E+00 0. -1.
<mgrwt>
<rscale>  2 0.22358658E+02</rscale>
<asrwt>0</asrwt>
<pdfrwt beam="1">  1       21 0.52572291E-03 0.22358658E+02</pdfrwt>
<pdfrwt beam="2">  1       21 0.31177151E-01 0.22358658E+02</pdfrwt>
<totfact> 0.72148342E+07</totfact>
</mgrwt>
</event>
<event>
 4    1  0.3862688E+004  0.2078187E+02  0.7546771E-02  0.1730212E+00
         21   -1    0    0  501  502  0.00000000000E+00  0.00000000000E+00  0.67277284556E+01  0.67277284556E+01  0.00000000000E+00 0. -1.
         21   -1    0    0  502  503 -0.00000000000E+00 -0.00000000000E+00 -0.71687670816E+02  0.71687670816E+02  0.00000000000E+00 0. -1.
          3    1    1    2  501    0  0.14687815240E+02  0.14702186866E+02 -0.45155579250E+02  0.49708274488E+02  0.00000000000E+00 0.  1.
         -3    1    1    2    0  503 -0.14687815240E+02 -0.14702186866E+02 -0.19804363110E+02  0.28707124784E+02  0.00000000000E+00 0. -1.
<mgrwt>
<rscale>  2 0.20781872E+02</rscale>
<asrwt>0</asrwt>
<pdfrwt beam="1">  1       21 0.10350351E-02 0.20781872E+02</pdfrwt>
<pdfrwt beam="2">  1       21 0.11028872E-01 0.20781872E+02</pdfrwt>
<totfact> 0.15622615E+08</totfact>
</mgrwt>
</event>
<event>
 4    1  0.3862688E+004  0.2773367E+02  0.7546771E-02  0.1624582E+00
         21   -1    0    0  501  502  0.00000000000E+00  0.00000000000E+00  0.65441103279E+03  0.65441103279E+03  0.00000000000E+00 0. -1.
         21   -1    0    0  502  503 -0.00000000000E+00 -0.00000000000E+00 -0.16502019439E+01  0.16502019439E+01  0.00000000000E+00 0. -1.
          3    1    1    2  501    0  0.24890233761E+02 -0.12232441612E+02  0.15041436457E+03  0.15294978730E+03  0.00000000000E+00 0. -1.
         -3    1    1    2    0  503 -0.24890233761E+02  0.12232441612E+02  0.50234646627E+03  0.50311144743E+03  0.00000000000E+00 0.  1.
<mgrwt>
<rscale>  2 0.27733668E+02</rscale>
<asrwt>0</asrwt>
<pdfrwt beam="1">  1       21 0.10067841E+00 0.27733668E+02</pdfrwt>
<pdfrwt beam="2">  1       21 0.25387774E-03 0.27733668E+02</pdfrwt>
<totfact> 0.21224818E+07</totfact>
</mgrwt>
</event>
<event>
 4    1  0.3862688E+004  0.2057842E+02  0.7546771E-02  0.1734064E+00
         21   -1    0    0  501  502  0.00000000000E+00  0.00000000000E+00  0.13648995641E+03  0.13648995641E+03  0.00000000000E+00 0.  1.
         21   -1    0    0  502  503 -0.00000000000E+00 -0.00000000000E+00 -0.35634715428E+01  0.35634715428E+01  0.00000000000E+00 0.  1.
          5    1    1    2  501    0 -0.19871473104E+02 -0.53475059065E+01  0.91647293625E+02  0.93929216389E+02  0.00000000000E+00 0.  1.
         -5    1    1    2    0  503  0.19871473104E+02  0.53475059065E+01  0.41279191247E+02  0.46124211568E+02  0.00000000000E+00 0. -1.
<mgrwt>
<rscale>  2 0.20578417E+02</rscale>
<asrwt>0</asrwt>
<pdfrwt beam="1">  1       21 0.20998451E-01 0.20578417E+02</pdfrwt>
<pdfrwt beam="2">  1       21 0.54822650E-03 0.20578417E+02</pdfrwt>
<totfact> 0.13409603E+08</totfact>
</mgrwt>
</event>
<event>
 4    1  0.3862688E+004  0.4757840E+02  0.7546771E-02  0.1458858E+00
         21   -1    0    0  501  502  0.00000000000E+00  0.00000000000E+00  0.14386729960E+02  0.14386729960E+02  0.00000000000E+00 0. -1.
         21   -1    0    0  502  503 -0.00000000000E+00 -0.00000000000E+00 -0.20278181293E+03  0.20278181293E+03  0.00000000000E+00 0. -1.
          3    1    1    2  501    0 -0.20282240308E+02 -0.43038760948E+02 -0.42799293467E+02  0.63995966569E+02  0.00000000000E+00 0.  1.
         -3    1    1    2    0  503  0.20282240308E+02  0.43038760948E+02 -0.14559578950E+03  0.15317257632E+03  0.00000000000E+00 0. -1.
<mgrwt>
<rscale>  2 0.47578401E+02</rscale>
<asrwt>0</asrwt>
<pdfrwt beam="1">  1       21 0.22133433E-02 0.47578401E+02</pdfrwt>
<pdfrwt beam="2">  1       21 0.31197199E-01 0.47578401E+02</pdfrwt>
<totfact> 0.92499814E+06</totfact>
</mgrwt>
</event>
<event>
 4    1  0.3862688E+004  0.3942542E+02  0.7546771E-02  0.1512483E+00
         21   -1    0    0  503  502  0.00000000000E+00  0.00000000000E+00  0.33835630922E+03  0.33835630922E+03  0.00000000000E+00 0.  1.
         21   -1    0    0  501  503 -0.00000000000E+00 -0.00000000000E+00 -0.48891077149E+01  0.48891077149E+01  0.00000000000E+00 0.  1.
          4    1    1    2  501    0  0.38262986866E+02  0.95030342100E+01  0.12455926964E+03  0.13064982004E+03  0.00000000000E+00 0.  1.
         -4    1    1    2    0  502 -0.38262986866E+02 -0.95030342100E+01  0.20890793187E+03  0.21259559690E+03  0.00000000000E+00 0. -1.
<mgrwt>
<rscale>  2 0.39425421E+02</rscale>
<asrwt>0</asrwt>
<pdfrwt beam="1">  1       21 0.52054799E-01 0.39425421E+02</pdfrwt>
<pdfrwt beam="2">  1       21 0.75217068E-03 0.39425421E+02</pdfrwt>
<totfact> 0.17767422E+07</totfact>
</mgrwt>
</event>
<event>
 4    1  0.3862688E+004  0.2173026E+02  0.7546771E-02  0.1712959E+00
         21   -1    0    0  503  502  0.00000000000E+00  0.00000000000E+00  0.12749230779E+03  0.12749230779E+03  0.00000000000E+00 0.  1.
         21   -1    0    0  501  503 -0.00000000000E+00 -0.00000000000E+00 -0.37336453997E+01  0.37336453997E+01  0.00000000000E+00 0.  1.
          2    1    1    2  501    0 -0.20122049176E+02 -0.82040950647E+01  0.56011544179E+02  0.60079090541E+02  0.00000000000E+00 0. -1.
         -2    1    1    2    0  502  0.20122049176E+02  0.82040950647E+01  0.67747118214E+02  0.71146862652E+02  0.00000000000E+00 0.  1.
<mgrwt>
<rscale>  2 0.21730256E+02</rscale>
<asrwt>0</asrwt>
<pdfrwt beam="1">  1       21 0.19614198E-01 0.21730256E+02</pdfrwt>
<pdfrwt beam="2">  1       21 0.57440708E-03 0.21730256E+02</pdfrwt>
<totfact> 0.14323413E+08</totfact>
</mgrwt>
</event>
<event>
 4    1  0.3862688E+004  0.3800445E+02  0.7546771E-02  0.1523432E+00
         21   -1    0    0  501  502  0.00000000000E+00  0.00000000000E+00  0.82359171972E+02  0.82359171972E+02  0.00000000000E+00 0.  1.
         21   -1    0    0  502  503 -0.00000000000E+00 -0.00000000000E+00 -0.20854578708E+02  0.20854578708E+02  0.00000000000E+00 0.  1.
          4    1    1    2  501    0 -0.17886678295E+02  0.33532151025E+02  0.51335502131E+02  0.63872311621E+02  0.00000000000E+00 0.  1.
         -4    1    1    2    0  503  0.17886678295E+02 -0.33532151025E+02  0.10169091133E+02  0.39341439059E+02  0.00000000000E+00 0. -1.
<mgrwt>
<rscale>  2 0.38004453E+02</rscale>
<asrwt>0</asrwt>
<pdfrwt beam="1">  1       21 0.12670642E-01 0.38004453E+02</pdfrwt>
<pdfrwt beam="2">  1       21 0.32083968E-02 0.38004453E+02</pdfrwt>
<totfact> 0.24954499E+07</totfact>
</mgrwt>
</event>
<event>
 4    1  0.3862688E+004  0.2594590E+02  0.7546771E-02  0.1647776E+00
         21   -1    0    0  503  502  0.00000000000E+00  0.00000000000E+00  0.19842374181E+02  0.19842374181E+02  0.00000000000E+00 0. -1.
         21   -1    0    0  501  503 -0.00000000000E+00 -0.00000000000E+00 -0.34451438883E+02  0.34451438883E+02  0.00000000000E+00 0. -1.
          2    1    1    2  501    0 -0.25544996193E+02  0.45434284551E+01 -0.39547273448E+01  0.26245560406E+02  0.00000000000E+00 0.  1.
         -2    1    1    2    0  502  0.25544996193E+02 -0.45434284551E+01 -0.10654337357E+02  0.28048252658E+02  0.00000000000E+00 0. -1.
<mgrwt>
<rscale>  2 0.25945897E+02</rscale>
<asrwt>0</asrwt>
<pdfrwt beam="1">  1       21 0.30526730E-02 0.25945897E+02</pdfrwt>
<pdfrwt beam="2">  1       21 0.53002213E-02 0.25945897E+02</pdfrwt>
<totfact> 0.10510736E+08</totfact>
</mgrwt>
</event>
<event>
 4    1  0.3862688E+004  0.2299455E+02  0.7546771E-02  0.1691599E+00
         21   -1    0    0  501  502  0.00000000000E+00  0.00000000000E+00  0.99766079961E+03  0.99766079961E+03  0.00000000000E+00 0.  1.
         21   -1    0    0  502  503 -0.00000000000E+00 -0.00000000000E+00 -0.70179540375E+00  0.70179540375E+00  0.00000000000E+00 0.  1.
          5    1    1    2  501    0 -0.18175181781E+02  0.14085875468E+02  0.25149319148E+03  0.25254222316E+03  0.00000000000E+00 0. -1.
         -5    1    1    2    0  503  0.18175181781E+02 -0.14085875468E+02  0.74546581273E+03  0.74582037185E+03  0.00000000000E+00 0.  1.
<mgrwt>
<rscale>  2 0.22994545E+02</rscale>
<asrwt>0</asrwt>
<pdfrwt beam="1">  1       21 0.15348514E+00 0.22994545E+02</pdfrwt>
<pdfrwt beam="2">  1       21 0.10796932E-03 0.22994545E+02</pdfrwt>
<totfact> 0.26818578E+07</totfact>
</mgrwt>
</event>
<event>
 4    1  0.3862688E+004  0.2146193E+02  0.7546771E-02  0.1717727E+00
         21   -1    0    0  501  502  0.00000000000E+00  0.00000000000E+00  0.21981269087E+01  0.21981269087E+01  0.00000000000E+00 0.  1.
         21   -1    0    0  502  503 -0.00000000000E+00 -0.00000000000E+00 -0.22782996608E+03  0.22782996608E+03  0.00000000000E+00 0.  1.
          5    1    1    2  501    0  0.20172833511E+02 -0.73260555343E+01 -0.14539586883E+03  0.14697133386E+03  0.00000000000E+00 0. -1.
         -5    1    1    2    0  503 -0.20172833511E+02  0.73260555343E+01 -0.80235970336E+02  0.83056759131E+02  0.00000000000E+00 0.  1.
<mgrwt>
<rscale>  2 0.21461927E+02</rscale>
<asrwt>0</asrwt>
<pdfrwt beam="1">  1       21 0.33817321E-03 0.21461927E+02</pdfrwt>
<pdfrwt beam="2">  1       21 0.35050780E-01 0.21461927E+02</pdfrwt>
<totfact> 0.10992406E+08</totfact>
</mgrwt>
</event>
<event>
 4    1  0.3862688E+004  0.2643367E+02  0.7546771E-02  0.1641224E+00
         21   -1    0    0  503  502  0.00000000000E+00  0.00000000000E+00  0.70956719478E+01  0.70956719478E+01  0.00000000000E+00 0. -1.
         21   -1    0    0  501  503 -0.00000000000E+00 -0.00000000000E+00 -0.10041257609E+03  0.10041257609E+03  0.00000000000E+00 0. -1.
          2    1    1    2  501    0 -0.10993545577E+02 -0.24039147811E+02 -0.39189365597E+02  0.47270974686E+02  0.00000000000E+00 0.  1.
         -2    1    1    2    0  502  0.10993545577E+02  0.24039147811E+02 -0.54127538540E+02  0.60237273347E+02  0.00000000000E+00 0. -1.
<mgrwt>
<rscale>  2 0.26433666E+02</rscale>
<asrwt>0</asrwt>
<pdfrwt beam="1">  1       21 0.10916419E-02 0.26433666E+02</pdfrwt>
<pdfrwt beam="2">  1       21 0.15448088E-01 0.26433666E+02</pdfrwt>
<totfact> 0.87411474E+07</totfact>
</mgrwt>
</event>
<event>
 4    1  0.3862688E+004  0.2166814E+02  0.7546771E-02  0.1714055E+00
         21   -1    0    0  501  502  0.00000000000E+00  0.00000000000E+00  0.32664103412E+02  0.32664103412E+02  0.00000000000E+00 0.  1.
         21   -1    0    0  502  503 -0.00000000000E+00 -0.00000000000E+00 -0.18150490078E+02  0.18150490078E+02  0.00000000000E+00 0.  1.
          3    1    1    2  501    0 -0.94370728978E+01 -0.19505127314E+02  0.18846397754E+02  0.28717504152E+02  0.00000000000E+00 0. -1.
         -3    1    1    2    0  503  0.94370728978E+01  0.19505127314E+02 -0.43327844199E+01  0.22097089339E+02  0.00000000000E+00 0.  1.
<mgrwt>
<rscale>  2 0.21668141E+02</rscale>
<asrwt>0</asrwt>
<pdfrwt beam="1">  1       21 0.50252467E-02 0.21668141E+02</pdfrwt>
<pdfrwt beam="2">  1       21 0.27923831E-02 0.21668141E+02</pdfrwt>
<totfact> 0.12486865E+08</totfact>
</mgrwt>
</event>
<event>
 4    1  0.3862688E+004  0.2011899E+02  0.7546771E-02  0.1742972E+00
         21   -1    0    0  501  502  0.00000000000E+00  0.00000000000E+00  0.17577324615E+01  0.17577324615E+01  0.00000000000E+00 0.  1.
         21   -1    0    0  502  503 -0.00000000000E+00 -0.00000000000E+00 -0.25553735011E+03  0.25553735011E+03  0.00000000000E+00 0.  1.
          4    1    1    2  501    0 -0.12194224595E+02  0.16002337325E+02 -0.16733362568E+03  0.16853876764E+03  0.00000000000E+00 0. -1.
         -4    1    1    2    0  503  0.12194224595E+02 -0.16002337325E+02 -0.86445991963E+02  0.88756314929E+02  0.00000000000E+00 0.  1.
<mgrwt>
<rscale>  2 0.20118994E+02</rscale>
<asrwt>0</asrwt>
<pdfrwt beam="1">  1       21 0.27042019E-03 0.20118994E+02</pdfrwt>
<pdfrwt beam="2">  1       21 0.39313466E-01 0.20118994E+02</pdfrwt>
<totfact> 0.12068725E+08</totfact>
</mgrwt>
</event>
<event>
 4    1  0.3862688E+004  0.2417937E+02  0.7546771E-02  0.1673076E+00
         21   -1    0    0  503  502  0.00000000000E+00  0.00000000000E+00  0.99900552768E+02  0.99900552768E+02  0.00000000000E+00 0. -1.
         21   -1    0    0  501  503 -0.00000000000E+00 -0.00000000000E+00 -0.12649023615E+02  0.12649023615E+02  0.00000000000E+00 0. -1.
          5    1    1    2  501    0  0.24138433589E+02  0.14064513254E+01  0.23745189846E+01  0.24295687310E+02  0.00000000000E+00 0.  1.
         -5    1    1    2    0  502 -0.24138433589E+02 -0.14064513254E+01  0.84877010168E+02  0.88253889073E+02  0.00000000000E+00 0. -1.
<mgrwt>
<rscale>  2 0.24179373E+02</rscale>
<asrwt>0</asrwt>
<pdfrwt beam="1">  1       21 0.15369315E-01 0.24179373E+02</pdfrwt>
<pdfrwt beam="2">  1       21 0.19460037E-02 0.24179373E+02</pdfrwt>
<totfact> 0.35765010E+07</totfact>
</mgrwt>
</event>
<event>
 4    1  0.3862688E+004  0.2156488E+02  0.7546771E-02  0.1715888E+00
         21   -1    0    0  503  502  0.00000000000E+00  0.00000000000E+00  0.18873765492E+01  0.18873765492E+01  0.00000000000E+00 0. -1.
         21   -1    0    0  501  503 -0.00000000000E+00 -0.00000000000E+00 -0.27400979267E+03  0.27400979267E+03  0.00000000000E+00 0. -1.
          5    1    1    2  501    0 -0.87249871248E+01 -0.19721024503E+02 -0.92269874365E+02  0.94756392518E+02  0.00000000000E+00 0. -1.
         -5    1    1    2    0  502  0.87249871248E+01  0.19721024503E+02 -0.17985254176E+03  0.18114077671E+03  0.00000000000E+00 0.  1.
<mgrwt>
<rscale>  2 0.21564884E+02</rscale>
<asrwt>0</asrwt>
<pdfrwt beam="1">  1       21 0.29036580E-03 0.21564884E+02</pdfrwt>
<pdfrwt beam="2">  1       21 0.42155326E-01 0.21564884E+02</pdfrwt>
<totfact> 0.97313977E+07</totfact>
</mgrwt>
</event>
<event>
 4    1  0.3862688E+004  0.2115705E+02  0.7546771E-02  0.1723252E+00
         21   -1    0    0  501  502  0.00000000000E+00  0.00000000000E+00  0.22028797786E+03  0.22028797786E+03  0.00000000000E+00 0. -1.
         21   -1    0    0  502  503 -0.00000000000E+00 -0.00000000000E+00 -0.28833699185E+01  0.28833699185E+01  0.00000000000E+00 0. -1.
          5    1    1    2  501    0  0.28189125819E+00 -0.21155170005E+02  0.16933719600E+03  0.17065376242E+03  0.00000000000E+00 0. -1.
         -5    1    1    2    0  503 -0.28189125819E+00  0.21155170005E+02  0.48067411943E+02  0.52517585355E+02  0.00000000000E+00 0.  1.
<mgrwt>
<rscale>  2 0.21157048E+02</rscale>
<asrwt>0</asrwt>
<pdfrwt beam="1">  1       21 0.33890445E-01 0.21157048E+02</pdfrwt>
<pdfrwt beam="2">  1       21 0.44359554E-03 0.21157048E+02</pdfrwt>
<totfact> 0.78352999E+07</totfact>
</mgrwt>
</event>
<event>
 4    1  0.3862688E+004  0.2050254E+02  0.7546771E-02  0.1735515E+00
         21   -1    0    0  503  502  0.00000000000E+00  0.00000000000E+00  0.28461090906E+01  0.28461090906E+01  0.00000000000E+00 0. -1.
         21   -1    0    0  501  503 -0.00000000000E+00 -0.00000000000E+00 -0.18193288419E+03  0.18193288419E+03  0.00000000000E+00 0. -1.
          2    1    1    2  501    0 -0.10665438616E+02 -0.17510075356E+02 -0.12962308044E+03  0.13123451262E+03  0.00000000000E+00 0.  1.
         -2    1    1    2    0  502  0.10665438616E+02  0.17510075356E+02 -0.49463694658E+02  0.53544480659E+02  0.00000000000E+00 0. -1.
<mgrwt>
<rscale>  2 0.20502544E+02</rscale>
<asrwt>0</asrwt>
<pdfrwt beam="1">  1       21 0.43786300E-03 0.20502544E+02</pdfrwt>
<pdfrwt beam="2">  1       21 0.27989670E-01 0.20502544E+02</pdfrwt>
<totfact> 0.11207535E+08</totfact>
</mgrwt>
</event>
<event>
 4    1  0.3862688E+004  0.2273601E+02  0.7546771E-02  0.1695825E+00
         21   -1    0    0  501  502  0.00000000000E+00  0.00000000000E+00  0.14903799824E+03  0.14903799824E+03  0.00000000000E+00 0.  1.
         21   -1    0    0  502  503 -0.00000000000E+00 -0.00000000000E+00 -0.39832085552E+01  0.39832085552E+01  0.00000000000E+00 0.  1.
          2    1    1    2  501    0 -0.18666617147E+02 -0.12980118637E+02  0.10003294842E+03  0.10258419393E+03  0.00000000000E+00 0. -1.
         -2    1    1    2    0  503  0.18666617147E+02  0.12980118637E+02  0.45021841270E+02  0.50437012867E+02  0.00000000000E+00 0.  1.
<mgrwt>
<rscale>  2 0.22736008E+02</rscale>
<asrwt>0</asrwt>
<pdfrwt beam="1">  1       21 0.22928919E-01 0.22736008E+02</pdfrwt>
<pdfrwt beam="2">  1       21 0.61280143E-03 0.22736008E+02</pdfrwt>
<totfact> 0.10029000E+08</totfact>
</mgrwt>
</event>
<event>
 4    1  0.3862688E+004  0.2228400E+02  0.7546771E-02  0.1703386E+00
         21   -1    0    0  501  502  0.00000000000E+00  0.00000000000E+00  0.15206913643E+02  0.15206913643E+02  0.00000000000E+00 0.  1.
         21   -1    0    0  502  503 -0.00000000000E+00 -0.00000000000E+00 -0.34672273469E+02  0.34672273469E+02  0.00000000000E+00 0.  1.
          4    1    1    2  501    0 -0.86285958274E+01  0.20545653047E+02 -0.15748816513E+02  0.27287391715E+02  0.00000000000E+00 0. -1.
         -4    1    1    2    0  503  0.86285958274E+01 -0.20545653047E+02 -0.37165433135E+01  0.22591795397E+02  0.00000000000E+00 0.  1.
<mgrwt>
<rscale>  2 0.22283997E+02</rscale>
<asrwt>0</asrwt>
<pdfrwt beam="1">  1       21 0.23395252E-02 0.22283997E+02</pdfrwt>
<pdfrwt beam="2">  1       21 0.53341959E-02 0.22283997E+02</pdfrwt>
<totfact> 0.15053473E+08</totfact>
</mgrwt>
</event>
<event>
 4    1  0.3862688E+004  0.2830783E+02  0.7546771E-02  0.1617584E+00
         21   -1    0    0  503  502  0.00000000000E+00  0.00000000000E+00  0.22129032885E+03  0.22129032885E+03  0.00000000000E+00 0.  1.
         21   -1    0    0  501  503 -0.00000000000E+00 -0.00000000000E+00 -0.39148162264E+01  0.39148162264E+01  0.00000000000E+00 0.  1.
          2    1    1    2  501    0 -0.28180429371E+02  0.26826631476E+01  0.77849235675E+02  0.82836204502E+02  0.00000000000E+00 0. -1.
         -2    1    1    2    0  502  0.28180429371E+02 -0.26826631476E+01  0.13952627695E+03  0.14236894057E+03  0.00000000000E+00 0.  1.
<mgrwt>
<rscale>  2 0.28307831E+02</rscale>
<asrwt>0</asrwt>
<pdfrwt beam="1">  1       21 0.34044656E-01 0.28307831E+02</pdfrwt>
<pdfrwt beam="2">  1       21 0.60227959E-03 0.28307831E+02</pdfrwt>
<totfact> 0.53035906E+07</totfact>
</mgrwt>
</event>
<event>
 4    1  0.3862688E+004  0.2172249E+02  0.7546771E-02  0.1713096E+00
         21   -1    0    0  501  502  0.00000000000E+00  0.00000000000E+00  0.15397932958E+01  0.15397932958E+01  0.00000000000E+00 0. -1.
         21   -1    0    0  502  503 -0.00000000000E+00 -0.00000000000E+00 -0.37718587492E+03  0.37718587492E+03  0.00000000000E+00 0. -1.
          5    1    1    2  501    0  0.18321075276E+02  0.11670683520E+02 -0.26982852271E+03  0.27070149301E+03  0.00000000000E+00 0.  1.
         -5    1    1    2    0  503 -0.18321075276E+02 -0.11670683520E+02 -0.10581755891E+03  0.10802417520E+03  0.00000000000E+00 0. -1.
<mgrwt>
<rscale>  2 0.21722492E+02</rscale>
<asrwt>0</asrwt>
<pdfrwt beam="1">  1       21 0.23689136E-03 0.21722492E+02</pdfrwt>
<pdfrwt beam="2">  1       21 0.58028576E-01 0.21722492E+02</pdfrwt>
<totfact> 0.70538274E+07</totfact>
</mgrwt>
</event>
<event>
 4    1  0.3862688E+004  0.3415218E+02  0.7546771E-02  0.1556261E+00
         21   -1    0    0  503  502  0.00000000000E+00  0.00000000000E+00  0.29903477953E+01  0.29903477953E+01  0.00000000000E+00 0. -1.
         21   -1    0    0  501  503 -0.00000000000E+00 -0.00000000000E+00 -0.67431813464E+03  0.67431813464E+03  0.00000000000E+00 0. -1.
          5    1    1    2  501    0  0.33354816894E+02 -0.73367357365E+01 -0.11578088135E+03  0.12071281617E+03  0.00000000000E+00 0.  1.
         -5    1    1    2    0  502 -0.33354816894E+02  0.73367357365E+01 -0.55554690550E+03  0.55659566627E+03  0.00000000000E+00 0. -1.
<mgrwt>
<rscale>  2 0.34152182E+02</rscale>
<asrwt>0</asrwt>
<pdfrwt beam="1">  1       21 0.46005403E-03 0.34152182E+02</pdfrwt>
<pdfrwt beam="2">  1       21 0.10374113E+00 0.34152182E+02</pdfrwt>
<totfact> 0.85082767E+06</totfact>
</mgrwt>
</event>
<event>
 4    1  0.3862688E+004  0.4245168E+02  0.7546771E-02  0.1490908E+00
         21   -1    0    0  501  502  0.00000000000E+00  0.00000000000E+00  0.31900146699E+02  0.31900146699E+02  0.00000000000E+00 0.  1.
         21   -1    0    0  502  503 -0.00000000000E+00 -0.00000000000E+00 -0.56510948996E+02  0.56510948996E+02  0.00000000000E+00 0.  1.
          4    1    1    2  501    0  0.36527418923E+02 -0.21630824786E+02 -0.11524433755E+02  0.43988151672E+02  0.00000000000E+00 0. -1.
         -4    1    1    2    0  503 -0.36527418923E+02  0.21630824786E+02 -0.13086368541E+02  0.44422944024E+02  0.00000000000E+00 0.  1.
<mgrwt>
<rscale>  2 0.42451677E+02</rscale>
<asrwt>0</asrwt>
<pdfrwt beam="1">  1       21 0.49077149E-02 0.42451677E+02</pdfrwt>
<pdfrwt beam="2">  1       21 0.86939921E-02 0.42451677E+02</pdfrwt>
<totfact> 0.24314478E+07</totfact>
</mgrwt>
</event>
<event>
 4    1  0.3862688E+004  0.2042127E+02  0.7546771E-02  0.1737078E+00
         21   -1    0    0  503  502  0.00000000000E+00  0.00000000000E+00  0.70733284810E+01  0.70733284810E+01  0.00000000000E+00 0. -1.
         21   -1    0    0  501  503 -0.00000000000E+00 -0.00000000000E+00 -0.66768585039E+02  0.66768585039E+02  0.00000000000E+00 0. -1.
          1    1    1    2  501    0  0.63715942418E+01  0.19401833270E+02 -0.17219691783E+02  0.26712284300E+02  0.00000000000E+00 0. -1.
         -1    1    1    2    0  502 -0.63715942418E+01 -0.19401833270E+02 -0.42475564775E+02  0.47129629220E+02  0.00000000000E+00 0.  1.
<mgrwt>
<rscale>  2 0.20421272E+02</rscale>
<asrwt>0</asrwt>
<pdfrwt beam="1">  1       21 0.10882044E-02 0.20421272E+02</pdfrwt>
<pdfrwt beam="2">  1       21 0.10272090E-01 0.20421272E+02</pdfrwt>
<totfact> 0.16212285E+08</totfact>
</mgrwt>
</event>
<event>
 4    1  0.3862688E+004  0.4499191E+02  0.7546771E-02  0.1474392E+00
         21   -1    0    0  503  502  0.00000000000E+00  0.00000000000E+00  0.13142145785E+01  0.13142145785E+01  0.00000000000E+00 0. -1.
         21   -1    0    0  501  503 -0.00000000000E+00 -0.00000000000E+00 -0.17414353022E+04  0.17414353022E+04  0.00000000000E+00 0. -1.
          3    1    1    2  501    0 -0.44549937639E+02  0.62908648503E+01 -0.11662066057E+04  0.11670741704E+04  0.00000000000E+00 0.  1.
         -3    1    1    2    0  502  0.44549937639E+02 -0.62908648503E+01 -0.57391448192E+03  0.57567534643E+03  0.00000000000E+00 0. -1.
<mgrwt>
<rscale>  2 0.44991910E+02</rscale>
<asrwt>0</asrwt>
<pdfrwt beam="1">  1       21 0.20218748E-03 0.44991910E+02</pdfrwt>
<pdfrwt beam="2">  1       21 0.26791230E+00 0.44991910E+02</pdfrwt>
<totfact> 0.25235718E+06</totfact>
</mgrwt>
</event>
<event>
 4    1  0.3862688E+004  0.2390611E+02  0.7546771E-02  0.1677230E+00
         21   -1    0    0  501  502  0.00000000000E+00  0.00000000000E+00  0.51715501417E+01  0.51715501417E+01  0.00000000000E+00 0. -1.
         21   -1    0    0  502  503 -0.00000000000E+00 -0.00000000000E+00 -0.11763349420E+03  0.11763349420E+03  0.00000000000E+00 0. -1.
          4    1    1    2  501    0  0.23029133619E+02 -0.64156881379E+01 -0.41119653599E+02  0.47563935514E+02  0.00000000000E+00 0.  1.
         -4    1    1    2    0  503 -0.23029133619E+02  0.64156881379E+01 -0.71342290455E+02  0.75241108823E+02  0.00000000000E+00 0. -1.
<mgrwt>
<rscale>  2 0.23906109E+02</rscale>
<asrwt>0</asrwt>
<pdfrwt beam="1">  1       21 0.79562317E-03 0.23906109E+02</pdfrwt>
<pdfrwt beam="2">  1       21 0.18097459E-01 0.23906109E+02</pdfrwt>
<totfact> 0.10429815E+08</totfact>
</mgrwt>
</event>
<event>
 4    1  0.3862688E+004  0.2196743E+02  0.7546771E-02  0.1708816E+00
         21   -1    0    0  503  502  0.00000000000E+00  0.00000000000E+00  0.91536017517E+00  0.91536017517E+00  0.00000000000E+00 0. -1.
         21   -1    0    0  501  503 -0.00000000000E+00 -0.00000000000E+00 -0.56717383641E+03  0.56717383641E+03  0.00000000000E+00 0. -1.
          5    1    1    2  501    0 -0.20795829205E+02  0.70782376690E+01 -0.20771119853E+03  0.20886960037E+03  0.00000000000E+00 0.  1.
         -5    1    1    2    0  502  0.20795829205E+02 -0.70782376690E+01 -0.35854727770E+03  0.35921959622E+03  0.00000000000E+00 0. -1.
<mgrwt>
<rscale>  2 0.21967430E+02</rscale>
<asrwt>0</asrwt>
<pdfrwt beam="1">  1       21 0.14082464E-03 0.21967430E+02</pdfrwt>
<pdfrwt beam="2">  1       21 0.87257512E-01 0.21967430E+02</pdfrwt>
<totfact> 0.64711223E+07</totfact>
</mgrwt>
</event>
<event>
 4    1  0.3862688E+004  0.3647064E+02  0.7546771E-02  0.1535916E+00
         21   -1    0    0  503  502  0.00000000000E+00  0.00000000000E+00  0.16103535745E+01  0.16103535745E+01  0.00000000000E+00 0.  1.
         21   -1    0    0  501  503 -0.00000000000E+00 -0.00000000000E+00 -0.92613129053E+03  0.92613129053E+03  0.00000000000E+00 0.  1.
          4    1    1    2  501    0  0.18301893092E+02  0.31545971382E+02 -0.61480812390E+03  0.61588889973E+03  0.00000000000E+00 0. -1.
         -4    1    1    2    0  502 -0.18301893092E+02 -0.31545971382E+02 -0.30971281306E+03  0.31185274437E+03  0.00000000000E+00 0.  1.
<mgrwt>
<rscale>  2 0.36470640E+02</rscale>
<asrwt>0</asrwt>
<pdfrwt beam="1">  1       21 0.24774629E-03 0.36470640E+02</pdfrwt>
<pdfrwt beam="2">  1       21 0.14248197E+00 0.36470640E+02</pdfrwt>
<totfact> 0.10263915E+07</totfact>
</mgrwt>
</event>
<event>
 4    1  0.3862688E+004  0.2613248E+02  0.7546771E-02  0.1645249E+00
         21   -1    0    0  503  502  0.00000000000E+00  0.00000000000E+00  0.74895095381E+01  0.74895095381E+01  0.00000000000E+00 0.  1.
         21   -1    0    0  501  503 -0.00000000000E+00 -0.00000000000E+00 -0.14307144698E+03  0.14307144698E+03  0.00000000000E+00 0.  1.
          2    1    1    2  501    0 -0.14797049558E+02  0.21539593016E+02 -0.22454638333E+02  0.34454571911E+02  0.00000000000E+00 0. -1.
         -2    1    1    2    0  502  0.14797049558E+02 -0.21539593016E+02 -0.11312729911E+03  0.11610638461E+03  0.00000000000E+00 0.  1.
<mgrwt>
<rscale>  2 0.26132484E+02</rscale>
<asrwt>0</asrwt>
<pdfrwt beam="1">  1       21 0.11522323E-02 0.26132484E+02</pdfrwt>
<pdfrwt beam="2">  1       21 0.22010990E-01 0.26132484E+02</pdfrwt>
<totfact> 0.43347960E+07</totfact>
</mgrwt>
</event>
<event>
 4    1  0.3862688E+004  0.3220398E+02  0.7546771E-02  0.1574931E+00
         21   -1    0    0  501  502  0.00000000000E+00  0.00000000000E+00  0.23501127136E+03  0.23501127136E+03  0.00000000000E+00 0. -1.
         21   -1    0    0  502  503 -0.00000000000E+00 -0.00000000000E+00 -0.51740948220E+01  0.51740948220E+01  0.00000000000E+00 0. -1.
          3    1    1    2  501    0  0.28396111996E+02  0.15190683542E+02  0.16097915726E+03  0.16416877021E+03  0.00000000000E+00 0.  1.
         -3    1    1    2    0  503 -0.28396111996E+02 -0.15190683542E+02  0.68858019278E+02  0.76016595963E+02  0.00000000000E+00 0. -1.
<mgrwt>
<rscale>  2 0.32203976E+02</rscale>
<asrwt>0</asrwt>
<pdfrwt beam="1">  1       21 0.36155572E-01 0.32203976E+02</pdfrwt>
<pdfrwt beam="2">  1       21 0.79601477E-03 0.32203976E+02</pdfrwt>
<totfact> 0.31994718E+07</totfact>
</mgrwt>
</event>
<event>
 4    1  0.3862688E+004  0.2159066E+02  0.7546771E-02  0.1715429E+00
         21   -1    0    0  503  502  0.00000000000E+00  0.00000000000E+00  0.16243456813E+02  0.16243456813E+02  0.00000000000E+00 0. -1.
         21   -1    0    0  501  503 -0.00000000000E+00 -0.00000000000E+00 -0.33401679406E+02  0.33401679406E+02  0.00000000000E+00 0. -1.
          3    1    1    2  501    0  0.15771729041E+02 -0.14744797549E+02  0.73574996929E+00  0.21603190036E+02  0.00000000000E+00 0.  1.
         -3    1    1    2    0  502 -0.15771729041E+02  0.14744797549E+02 -0.17893972562E+02  0.28041946183E+02  0.00000000000E+00 0. -1.
<mgrwt>
<rscale>  2 0.21590658E+02</rscale>
<asrwt>0</asrwt>
<pdfrwt beam="1">  1       21 0.24989934E-02 0.21590658E+02</pdfrwt>
<pdfrwt beam="2">  1       21 0.51387199E-02 0.21590658E+02</pdfrwt>
<totfact> 0.14292233E+08</totfact>
</mgrwt>
</event>
<event>
 4    1  0.3862688E+004  0.2727052E+02  0.7546771E-02  0.1630380E+00
         21   -1    0    0  503  502  0.00000000000E+00  0.00000000000E+00  0.31433560415E+03  0.31433560415E+03  0.00000000000E+00 0. -1.
         21   -1    0    0  501  503 -0.00000000000E+00 -0.00000000000E+00 -0.40397634362E+01  0.40397634362E+01  0.00000000000E+00 0. -1.
          5    1    1    2  501    0 -0.17804701619E+02  0.20656087860E+02  0.25761719709E+03  0.25905656062E+03  0.00000000000E+00 0. -1.
         -5    1    1    2    0  502  0.17804701619E+02 -0.20656087860E+02  0.52678643623E+02  0.59318806962E+02  0.00000000000E+00 0.  1.
<mgrwt>
<rscale>  2 0.27270522E+02</rscale>
<asrwt>0</asrwt>
<pdfrwt beam="1">  1       21 0.48359304E-01 0.27270522E+02</pdfrwt>
<pdfrwt beam="2">  1       21 0.62150232E-03 0.27270522E+02</pdfrwt>
<totfact> 0.25744541E+07</totfact>
</mgrwt>
</event>
<event>
 4    1  0.3862688E+004  0.2984663E+02  0.7546771E-02  0.1599790E+00
         21   -1    0    0  503  502  0.00000000000E+00  0.00000000000E+00  0.57428225716E+01  0.57428225716E+01  0.00000000000E+00 0. -1.
         21   -1    0    0  501  503 -0.00000000000E+00 -0.00000000000E+00 -0.16569478199E+03  0.16569478199E+03  0.00000000000E+00 0. -1.
          2    1    1    2  501    0  0.14196396447E+02 -0.26254214839E+02 -0.10163186135E+03  0.10592382504E+03  0.00000000000E+00 0. -1.
         -2    1    1    2    0  502 -0.14196396447E+02  0.26254214839E+02 -0.58320098060E+02  0.65513779517E+02  0.00000000000E+00 0.  1.
<mgrwt>
<rscale>  2 0.29846632E+02</rscale>
<asrwt>0</asrwt>
<pdfrwt beam="1">  1       21 0.88351113E-03 0.29846632E+02</pdfrwt>
<pdfrwt beam="2">  1       21 0.25491506E-01 0.29846632E+02</pdfrwt>
<totfact> 0.51307916E+07</totfact>
</mgrwt>
</event>
<event>
 4    1  0.3862688E+004  0.2146025E+02  0.7546771E-02  0.1717757E+00
         21   -1    0    0  501  502  0.00000000000E+00  0.00000000000E+00  0.24603956640E+01  0.24603956640E+01  0.00000000000E+00 0. -1.
         21   -1    0    0  502  503 -0.00000000000E+00 -0.00000000000E+00 -0.37680170925E+03  0.37680170925E+03  0.00000000000E+00 0. -1.
          3    1    1    2  501    0 -0.15215209208E+02  0.15134056118E+02 -0.52648275908E+02  0.56854051764E+02  0.00000000000E+00 0.  1.
         -3    1    1    2    0  503  0.15215209208E+02 -0.15134056118E+02 -0.32169303768E+03  0.32240805315E+03  0.00000000000E+00 0. -1.
<mgrwt>
<rscale>  2 0.21460248E+02</rscale>
<asrwt>0</asrwt>
<pdfrwt beam="1">  1       21 0.37852271E-03 0.21460248E+02</pdfrwt>
<pdfrwt beam="2">  1       21 0.57969447E-01 0.21460248E+02</pdfrwt>
<totfact> 0.35653030E+07</totfact>
</mgrwt>
</event>
<event>
 4    1  0.3862688E+004  0.2531099E+02  0.7546771E-02  0.1656575E+00
         21   -1    0    0  501  502  0.00000000000E+00  0.00000000000E+00  0.21979454588E+03  0.21979454588E+03  0.00000000000E+00 0. -1.
         21   -1    0    0  502  503 -0.00000000000E+00 -0.00000000000E+00 -0.72309659209E+01  0.72309659209E+01  0.00000000000E+00 0. -1.
          5    1    1    2  501    0 -0.23990841394E+02  0.80675866070E+01  0.18582105815E+02  0.31399698740E+02  0.00000000000E+00 0. -1.
         -5    1    1    2    0  503  0.23990841394E+02 -0.80675866070E+01  0.19398147415E+03  0.19562581306E+03  0.00000000000E+00 0.  1.
<mgrwt>
<rscale>  2 0.25310994E+02</rscale>
<asrwt>0</asrwt>
<pdfrwt beam="1">  1       21 0.33814540E-01 0.25310994E+02</pdfrwt>
<pdfrwt beam="2">  1       21 0.11124565E-02 0.25310994E+02</pdfrwt>
<totfact> 0.20883020E+07</totfact>
</mgrwt>
</event>
<event>
 4    1  0.3862688E+004  0.3340761E+02  0.7546771E-02  0.1563214E+00
         21   -1    0    0  501  502  0.00000000000E+00  0.00000000000E+00  0.31029774879E+01  0.31029774879E+01  0.00000000000E+00 0.  1.
         21   -1    0    0  502  503 -0.00000000000E+00 -0.00000000000E+00 -0.41750449473E+03  0.41750449473E+03  0.00000000000E+00 0.  1.
          5    1    1    2  501    0 -0.18165312339E+02  0.28037293002E+02 -0.12893259804E+03  0.13319040209E+03  0.00000000000E+00 0.  1.
         -5    1    1    2    0  503  0.18165312339E+02 -0.28037293002E+02 -0.28546891920E+03  0.28741707013E+03  0.00000000000E+00 0. -1.
<mgrwt>
<rscale>  2 0.33407609E+02</rscale>
<asrwt>0</asrwt>
<pdfrwt beam="1">  1       21 0.47738104E-03 0.33407609E+02</pdfrwt>
<pdfrwt beam="2">  1       21 0.64231476E-01 0.33407609E+02</pdfrwt>
<totfact> 0.22422299E+07</totfact>
</mgrwt>
</event>
<event>
 4    1  0.3862688E+004  0.2815354E+02  0.7546771E-02  0.1619444E+00
         21   -1    0    0  501  502  0.00000000000E+00  0.00000000000E+00  0.39170481703E+01  0.39170481703E+01  0.00000000000E+00 0. -1.
         21   -1    0    0  502  503 -0.00000000000E+00 -0.00000000000E+00 -0.20270507906E+03  0.20270507906E+03  0.00000000000E+00 0. -1.
          5    1    1    2  501    0  0.16121273170E+02  0.23080868307E+02 -0.10370667155E+03  0.10746020498E+03  0.00000000000E+00 0. -1.
         -5    1    1    2    0  503 -0.16121273170E+02 -0.23080868307E+02 -0.95081359335E+02  0.99161922245E+02  0.00000000000E+00 0.  1.
<mgrwt>
<rscale>  2 0.28153542E+02</rscale>
<asrwt>0</asrwt>
<pdfrwt beam="1">  1       21 0.60262283E-03 0.28153542E+02</pdfrwt>
<pdfrwt beam="2">  1       21 0.31185395E-01 0.28153542E+02</pdfrwt>
<totfact> 0.62264530E+07</totfact>
</mgrwt>
</event>
<event>
 4    1  0.3862688E+004  0.4559913E+02  0.7546771E-02  0.1470636E+00
         21   -1    0    0  503  502  0.00000000000E+00  0.00000000000E+00  0.11036768544E+02  0.11036768544E+02  0.00000000000E+00 0.  1.
         21   -1    0    0  501  503 -0.00000000000E+00 -0.00000000000E+00 -0.31028394751E+03  0.31028394751E+03  0.00000000000E+00 0.  1.
          4    1    1    2  501    0 -0.40377015949E+02  0.21189085889E+02 -0.25031903429E+03  0.25443840061E+03  0.00000000000E+00 0.  1.
         -4    1    1    2    0  502  0.40377015949E+02 -0.21189085889E+02 -0.48928144679E+02  0.66882315446E+02  0.00000000000E+00 0. -1.
<mgrwt>
<rscale>  2 0.45599131E+02</rscale>
<asrwt>0</asrwt>
<pdfrwt beam="1">  1       21 0.16979644E-02 0.45599131E+02</pdfrwt>
<pdfrwt beam="2">  1       21 0.47735992E-01 0.45599131E+02</pdfrwt>
<totfact> 0.61440791E+06</totfact>
</mgrwt>
</event>
<event>
 4    1  0.3862688E+004  0.3031679E+02  0.7546771E-02  0.1594613E+00
         21   -1    0    0  501  502  0.00000000000E+00  0.00000000000E+00  0.10720512536E+03  0.10720512536E+03  0.00000000000E+00 0. -1.
         21   -1    0    0  502  503 -0.00000000000E+00 -0.00000000000E+00 -0.96034467527E+01  0.96034467527E+01  0.00000000000E+00 0. -1.
          1    1    1    2  501    0  0.18575945349E+02 -0.23959170641E+02  0.29672859853E+02  0.42421530091E+02  0.00000000000E+00 0. -1.
         -1    1    1    2    0  503 -0.18575945349E+02  0.23959170641E+02  0.67928818759E+02  0.74387042026E+02  0.00000000000E+00 0.  1.
<mgrwt>
<rscale>  2 0.30316787E+02</rscale>
<asrwt>0</asrwt>
<pdfrwt beam="1">  1       21 0.16493095E-01 0.30316787E+02</pdfrwt>
<pdfrwt beam="2">  1       21 0.14774534E-02 0.30316787E+02</pdfrwt>
<totfact> 0.50853615E+07</totfact>
</mgrwt>
</event>
<event>
 4    1  0.3862688E+004  0.3022975E+02  0.7546771E-02  0.1595563E+00
         21   -1    0    0  503  502  0.00000000000E+00  0.00000000000E+00  0.17659315507E+03  0.17659315507E+03  0.00000000000E+00 0.  1.
         21   -1    0    0  501  503 -0.00000000000E+00 -0.00000000000E+00 -0.52636363402E+01  0.52636363402E+01  0.00000000000E+00 0.  1.
          5    1    1    2  501    0  0.17441681459E+02  0.24690594896E+02  0.73853291046E+02  0.79800666205E+02  0.00000000000E+00 0.  1.
         -5    1    1    2    0  502 -0.17441681459E+02 -0.24690594896E+02  0.97476227680E+02  0.10205612520E+03  0.00000000000E+00 0. -1.
<mgrwt>
<rscale>  2 0.30229749E+02</rscale>
<asrwt>0</asrwt>
<pdfrwt beam="1">  1       21 0.27168173E-01 0.30229749E+02</pdfrwt>
<pdfrwt beam="2">  1       21 0.80979034E-03 0.30229749E+02</pdfrwt>
<totfact> 0.52272752E+07</totfact>
</mgrwt>
</event>
<event>
 4    1  0.3862688E+004  0.3610962E+02  0.7546771E-02  0.1538962E+00
         21   -1    0    0  503  502  0.00000000000E+00  0.00000000000E+00  0.16320147430E+01  0.16320147430E+01  0.00000000000E+00 0.  1.
         21   -1    0    0  501  503 -0.00000000000E+00 -0.00000000000E+00 -0.83336235714E+03  0.83336235714E+03  0.00000000000E+00 0.  1.
          3    1    1    2  501    0 -0.31798414161E+02 -0.17110392089E+02 -0.33103140248E+03  0.33299503613E+03  0.00000000000E+00 0.  1.
         -3    1    1    2    0  502  0.31798414161E+02  0.17110392089E+02 -0.50069893992E+03  0.50199933575E+03  0.00000000000E+00 0. -1.
<mgrwt>
<rscale>  2 0.36109620E+02</rscale>
<asrwt>0</asrwt>
<pdfrwt beam="1">  1       21 0.25107952E-03 0.36109620E+02</pdfrwt>
<pdfrwt beam="2">  1       21 0.12820943E+00 0.36109620E+02</pdfrwt>
<totfact> 0.12917969E+07</totfact>
</mgrwt>
</event>
<event>
 4    1  0.3862688E+004  0.2174222E+02  0.7546771E-02  0.1712749E+00
         21   -1    0    0  501  502  0.00000000000E+00  0.00000000000E+00  0.11163925374E+03  0.11163925374E+03  0.00000000000E+00 0. -1.
         21   -1    0    0  502  503 -0.00000000000E+00 -0.00000000000E+00 -0.48726903170E+01  0.48726903170E+01  0.00000000000E+00 0. -1.
          1    1    1    2  501    0  0.30401128654E+01  0.21528631897E+02  0.74468017217E+02  0.77577122052E+02  0.00000000000E+00 0.  1.
         -1    1    1    2    0  503 -0.30401128654E+01 -0.21528631897E+02  0.32298546207E+02  0.38934822006E+02  0.00000000000E+00 0. -1.
<mgrwt>
<rscale>  2 0.21742223E+02</rscale>
<asrwt>0</asrwt>
<pdfrwt beam="1">  1       21 0.17175268E-01 0.21742223E+02</pdfrwt>
<pdfrwt beam="2">  1       21 0.74964475E-03 0.21742223E+02</pdfrwt>
<totfact> 0.12143007E+08</totfact>
</mgrwt>
</event>
<event>
 4    1  0.3862688E+004  0.2157693E+02  0.7546771E-02  0.1715673E+00
         21   -1    0    0  503  502  0.00000000000E+00  0.00000000000E+00  0.16606496030E+02  0.16606496030E+02  0.00000000000E+00 0.  1.
         21   -1    0    0  501  503 -0.00000000000E+00 -0.00000000000E+00 -0.56219695948E+02  0.56219695948E+02  0.00000000000E+00 0.  1.
          3    1    1    2  501    0 -0.20627639024E+02  0.63296460102E+01 -0.45588781871E+02  0.50437098874E+02  0.00000000000E+00 0. -1.
         -3    1    1    2    0  502  0.20627639024E+02 -0.63296460102E+01  0.59755819533E+01  0.22389093104E+02  0.00000000000E+00 0.  1.
<mgrwt>
<rscale>  2 0.21576930E+02</rscale>
<asrwt>0</asrwt>
<pdfrwt beam="1">  1       21 0.25548456E-02 0.21576930E+02</pdfrwt>
<pdfrwt beam="2">  1       21 0.86491838E-02 0.21576930E+02</pdfrwt>
<totfact> 0.59679760E+07</totfact>
</mgrwt>
</event>
<event>
 4    1  0.3862688E+004  0.2090500E+02  0.7546771E-02  0.1727908E+00
         21   -1    0    0  501  502  0.00000000000E+00  0.00000000000E+00  0.15439021449E+03  0.15439021449E+03  0.00000000000E+00 0. -1.
         21   -1    0    0  502  503 -0.00000000000E+00 -0.00000000000E+00 -0.33338976836E+01  0.33338976836E+01  0.00000000000E+00 0. -1.
          2    1    1    2  501    0  0.18645898282E+02  0.94524823787E+01  0.10616886849E+03  0.10820742850E+03  0.00000000000E+00 0.  1.
         -2    1    1    2    0  503 -0.18645898282E+02 -0.94524823787E+01  0.44887448323E+02  0.49516683682E+02  0.00000000000E+00 0. -1.
<mgrwt>
<rscale>  2 0.20904998E+02</rscale>
<asrwt>0</asrwt>
<pdfrwt beam="1">  1       21 0.23752335E-01 0.20904998E+02</pdfrwt>
<pdfrwt beam="2">  1       21 0.51290746E-03 0.20904998E+02</pdfrwt>
<totfact> 0.11968365E+08</totfact>
</mgrwt>
</event>
<event>
 4    1  0.3862688E+004  0.5360723E+02  0.7546771E-02  0.1426803E+00
         21   -1    0    0  503  502  0.00000000000E+00  0.00000000000E+00  0.40640072608E+02  0.40640072608E+02  0.00000000000E+00 0. -1.
         21   -1    0    0  501  503 -0.00000000000E+00 -0.00000000000E+00 -0.11102048044E+03  0.11102048044E+03  0.00000000000E+00 0. -1.
          1    1    1    2  501    0 -0.51688435971E+02 -0.14214096870E+02  0.10501786527E+02  0.54626206926E+02  0.00000000000E+00 0. -1.
         -1    1    1    2    0  502  0.51688435971E+02  0.14214096870E+02 -0.80882194360E+02  0.97034346122E+02  0.00000000000E+00 0.  1.
<mgrwt>
<rscale>  2 0.53607229E+02</rscale>
<asrwt>0</asrwt>
<pdfrwt beam="1">  1       21 0.62523190E-02 0.53607229E+02</pdfrwt>
<pdfrwt beam="2">  1       21 0.17080074E-01 0.53607229E+02</pdfrwt>
<totfact> 0.52523624E+06</totfact>
</mgrwt>
</event>
<event>
 4    1  0.3862688E+004  0.2880622E+02  0.7546771E-02  0.1611672E+00
         21   -1    0    0  503  502  0.00000000000E+00  0.00000000000E+00  0.50648928669E+01  0.50648928669E+01  0.00000000000E+00 0. -1.
         21   -1    0    0  501  503 -0.00000000000E+00 -0.00000000000E+00 -0.16723058263E+03  0.16723058263E+03  0.00000000000E+00 0. -1.
          3    1    1    2  501    0  0.17979053526E+01  0.28750062392E+02 -0.68804316193E+02  0.74591101868E+02  0.00000000000E+00 0.  1.
         -3    1    1    2    0  502 -0.17979053526E+01 -0.28750062392E+02 -0.93361373568E+02  0.97704373627E+02  0.00000000000E+00 0. -1.
<mgrwt>
<rscale>  2 0.28806224E+02</rscale>
<asrwt>0</asrwt>
<pdfrwt beam="1">  1       21 0.77921443E-03 0.28806224E+02</pdfrwt>
<pdfrwt beam="2">  1       21 0.25727777E-01 0.28806224E+02</pdfrwt>
<totfact> 0.60498688E+07</totfact>
</mgrwt>
</event>
<event>
 4    1  0.3862688E+004  0.2036450E+02  0.7546771E-02  0.1738175E+00
         21   -1    0    0  501  502  0.00000000000E+00  0.00000000000E+00  0.17480307496E+02  0.17480307496E+02  0.00000000000E+00 0. -1.
         21   -1    0    0  502  503 -0.00000000000E+00 -0.00000000000E+00 -0.23798441823E+02  0.23798441823E+02  0.00000000000E+00 0. -1.
          4    1    1    2  501    0  0.81765204880E+00 -0.20348082898E+02 -0.20092758691E+01  0.20463387355E+02  0.00000000000E+00 0. -1.
         -4    1    1    2    0  503 -0.81765204880E+00  0.20348082898E+02 -0.43088584578E+01  0.20815361965E+02  0.00000000000E+00 0.  1.
<mgrwt>
<rscale>  2 0.20364504E+02</rscale>
<asrwt>0</asrwt>
<pdfrwt beam="1">  1       21 0.26892781E-02 0.20364504E+02</pdfrwt>
<pdfrwt beam="2">  1       21 0.36612987E-02 0.20364504E+02</pdfrwt>
<totfact> 0.21373921E+08</totfact>
</mgrwt>
</event>
<event>
 4    1  0.3862688E+004  0.2369330E+02  0.7546771E-02  0.1680512E+00
         21   -1    0    0  503  502  0.00000000000E+00  0.00000000000E+00  0.39983162686E+02  0.39983162686E+02  0.00000000000E+00 0. -1.
         21   -1    0    0  501  503 -0.00000000000E+00 -0.00000000000E+00 -0.14213817277E+02  0.14213817277E+02  0.00000000000E+00 0. -1.
          5    1    1    2  501    0  0.21707195591E+02 -0.94957939814E+01  0.15879417541E+02  0.28522418291E+02  0.00000000000E+00 0.  1.
         -5    1    1    2    0  502 -0.21707195591E+02  0.94957939814E+01  0.98899278687E+01  0.25674561671E+02  0.00000000000E+00 0. -1.
<mgrwt>
<rscale>  2 0.23693300E+02</rscale>
<asrwt>0</asrwt>
<pdfrwt beam="1">  1       21 0.61512557E-02 0.23693300E+02</pdfrwt>
<pdfrwt beam="2">  1       21 0.21867411E-02 0.23693300E+02</pdfrwt>
<totfact> 0.13542340E+08</totfact>
</mgrwt>
</event>
<event>
 4    1  0.3862688E+004  0.6538315E+02  0.7546771E-02  0.1376536E+00
         21   -1    0    0  501  502  0.00000000000E+00  0.00000000000E+00  0.27952220675E+03  0.27952220675E+03  0.00000000000E+00 0.  1.
         21   -1    0    0  502  503 -0.00000000000E+00 -0.00000000000E+00 -0.15507700338E+02  0.15507700338E+02  0.00000000000E+00 0.  1.
          4    1    1    2  501    0 -0.53550115817E+02 -0.37514541396E+02  0.14933219296E+03  0.16301858659E+03  0.00000000000E+00 0. -1.
         -4    1    1    2    0  503  0.53550115817E+02  0.37514541396E+02  0.11468231345E+03  0.13201132049E+03  0.00000000000E+00 0.  1.
<mgrwt>
<rscale>  2 0.65383146E+02</rscale>
<asrwt>0</asrwt>
<pdfrwt beam="1">  1       21 0.43003413E-01 0.65383146E+02</pdfrwt>
<pdfrwt beam="2">  1       21 0.23858003E-02 0.65383146E+02</pdfrwt>
<totfact> 0.45569211E+06</totfact>
</mgrwt>
</event>
<event>
 4    1  0.3862688E+004  0.2121453E+02  0.7546771E-02  0.1722201E+00
         21   -1    0    0  503  502  0.00000000000E+00  0.00000000000E+00  0.51914577439E+02  0.51914577439E+02  0.00000000000E+00 0. -1.
         21   -1    0    0  501  503 -0.00000000000E+00 -0.00000000000E+00 -0.93730524240E+01  0.93730524240E+01  0.00000000000E+00 0. -1.
          3    1    1    2  501    0  0.19799949716E+02  0.76169626385E+01  0.12873197570E+02  0.24814821060E+02  0.00000000000E+00 0.  1.
         -3    1    1    2    0  502 -0.19799949716E+02 -0.76169626385E+01  0.29668327445E+02  0.36472808803E+02  0.00000000000E+00 0. -1.
<mgrwt>
<rscale>  2 0.21214526E+02</rscale>
<asrwt>0</asrwt>
<pdfrwt beam="1">  1       21 0.79868579E-02 0.21214526E+02</pdfrwt>
<pdfrwt beam="2">  1       21 0.14420081E-02 0.21214526E+02</pdfrwt>
<totfact> 0.16208108E+08</totfact>
</mgrwt>
</event>
<event>
 4    1  0.3862688E+004  0.3269406E+02  0.7546771E-02  0.1570086E+00
         21   -1    0    0  501  502  0.00000000000E+00  0.00000000000E+00  0.66699484395E+03  0.66699484395E+03  0.00000000000E+00 0. -1.
         21   -1    0    0  502  503 -0.00000000000E+00 -0.00000000000E+00 -0.19610552591E+01  0.19610552591E+01  0.00000000000E+00 0. -1.
          4    1    1    2  501    0  0.16306905837E+02  0.28337011061E+02  0.47552556268E+03  0.47664815340E+03  0.00000000000E+00 0. -1.
         -4    1    1    2    0  503 -0.16306905837E+02 -0.28337011061E+02  0.18950822601E+03  0.19230774581E+03  0.00000000000E+00 0.  1.
<mgrwt>
<rscale>  2 0.32694057E+02</rscale>
<asrwt>0</asrwt>
<pdfrwt beam="1">  1       21 0.10261441E+00 0.32694057E+02</pdfrwt>
<pdfrwt beam="2">  1       21 0.30170134E-03 0.32694057E+02</pdfrwt>
<totfact> 0.16200638E+07</totfact>
</mgrwt>
</event>
<event>
 4    1  0.3862688E+004  0.3322365E+02  0.7546771E-02  0.1564965E+00
         21   -1    0    0  501  502  0.00000000000E+00  0.00000000000E+00  0.33677583710E+02  0.33677583710E+02  0.00000000000E+00 0. -1.
         21   -1    0    0  502  503 -0.00000000000E+00 -0.00000000000E+00 -0.35872911495E+02  0.35872911495E+02  0.00000000000E+00 0. -1.
          1    1    1    2  501    0  0.12203003288E+02 -0.30901416758E+02  0.91202691035E+01  0.34452723483E+02  0.00000000000E+00 0. -1.
         -1    1    1    2    0  503 -0.12203003288E+02  0.30901416758E+02 -0.11315596888E+02  0.35097771722E+02  0.00000000000E+00 0.  1.
<mgrwt>
<rscale>  2 0.33223649E+02</rscale>
<asrwt>0</asrwt>
<pdfrwt beam="1">  1       21 0.51811667E-02 0.33223649E+02</pdfrwt>
<pdfrwt beam="2">  1       21 0.55189095E-02 0.33223649E+02</pdfrwt>
<totfact> 0.45023804E+07</totfact>
</mgrwt>
</event>
<event>
 4    1  0.3862688E+004  0.2035600E+02  0.7546771E-02  0.1738340E+00
         21   -1    0    0  503  502  0.00000000000E+00  0.00000000000E+00  0.35094310932E+03  0.35094310932E+03  0.00000000000E+00 0.  1.
         21   -1    0    0  501  503 -0.00000000000E+00 -0.00000000000E+00 -0.31228687183E+01  0.31228687183E+01  0.00000000000E+00 0.  1.
          4    1    1    2  501    0  0.19345000189E+02  0.63354372429E+01  0.31352065216E+03  0.31418078574E+03  0.00000000000E+00 0. -1.
         -4    1    1    2    0  502 -0.19345000189E+02 -0.63354372429E+01  0.34299588438E+02  0.39885192294E+02  0.00000000000E+00 0.  1.
<mgrwt>
<rscale>  2 0.20356002E+02</rscale>
<asrwt>0</asrwt>
<pdfrwt beam="1">  1       21 0.53991216E-01 0.20356002E+02</pdfrwt>
<pdfrwt beam="2">  1       21 0.48044162E-03 0.20356002E+02</pdfrwt>
<totfact> 0.28578733E+07</totfact>
</mgrwt>
</event>
<event>
 4    1  0.3862688E+004  0.2325273E+02  0.7546771E-02  0.1687446E+00
         21   -1    0    0  503  502  0.00000000000E+00  0.00000000000E+00  0.14944000485E+03  0.14944000485E+03  0.00000000000E+00 0. -1.
         21   -1    0    0  501  503 -0.00000000000E+00 -0.00000000000E+00 -0.59449486378E+01  0.59449486378E+01  0.00000000000E+00 0. -1.
          4    1    1    2  501    0 -0.29314388671E+01  0.23067206838E+02  0.12035339326E+03  0.12257907095E+03  0.00000000000E+00 0.  1.
         -4    1    1    2    0  502  0.29314388671E+01 -0.23067206838E+02  0.23141662956E+02  0.32805882544E+02  0.00000000000E+00 0. -1.
<mgrwt>
<rscale>  2 0.23252728E+02</rscale>
<asrwt>0</asrwt>
<pdfrwt beam="1">  1       21 0.22990767E-01 0.23252728E+02</pdfrwt>
<pdfrwt beam="2">  1       21 0.91460759E-03 0.23252728E+02</pdfrwt>
<totfact> 0.55284449E+07</totfact>
</mgrwt>
</event>
<event>
 4    1  0.3862688E+004  0.3017088E+02  0.7546771E-02  0.1596207E+00
         21   -1    0    0  501  502  0.00000000000E+00  0.00000000000E+00  0.21946904923E+04  0.21946904923E+04  0.00000000000E+00 0. -1.
         21   -1    0    0  502  503 -0.00000000000E+00 -0.00000000000E+00 -0.61134007819E+00  0.61134007819E+00  0.00000000000E+00 0. -1.
          1    1    1    2  501    0 -0.27051720456E+02  0.13359874288E+02  0.17194638567E+04  0.17197285356E+04  0.00000000000E+00 0.  1.
         -1    1    1    2    0  503  0.27051720456E+02 -0.13359874288E+02  0.47461529554E+03  0.47557329675E+03  0.00000000000E+00 0. -1.
<mgrwt>
<rscale>  2 0.30170877E+02</rscale>
<asrwt>0</asrwt>
<pdfrwt beam="1">  1       21 0.33763838E+00 0.30170877E+02</pdfrwt>
<pdfrwt beam="2">  1       21 0.94054077E-04 0.30170877E+02</pdfrwt>
<totfact> 0.34345497E+06</totfact>
</mgrwt>
</event>
<event>
 4    1  0.3862688E+004  0.2149992E+02  0.7546771E-02  0.1717047E+00
         21   -1    0    0  503  502  0.00000000000E+00  0.00000000000E+00  0.10120494873E+03  0.10120494873E+03  0.00000000000E+00 0. -1.
         21   -1    0    0  501  503 -0.00000000000E+00 -0.00000000000E+00 -0.55624782483E+01  0.55624782483E+01  0.00000000000E+00 0. -1.
          5    1    1    2  501    0 -0.18413170352E+02  0.11099631627E+02  0.70399802180E+02  0.73609638035E+02  0.00000000000E+00 0. -1.
         -5    1    1    2    0  502  0.18413170352E+02 -0.11099631627E+02  0.25242668305E+02  0.33157788946E+02  0.00000000000E+00 0.  1.
<mgrwt>
<rscale>  2 0.21499922E+02</rscale>
<asrwt>0</asrwt>
<pdfrwt beam="1">  1       21 0.15569991E-01 0.21499922E+02</pdfrwt>
<pdfrwt beam="2">  1       21 0.85576596E-03 0.21499922E+02</pdfrwt>
<totfact> 0.11752497E+08</totfact>
</mgrwt>
</event>
<event>
 4    1  0.3862688E+004  0.2755886E+02  0.7546771E-02  0.1626754E+00
         21   -1    0    0  501  502  0.00000000000E+00  0.00000000000E+00  0.14803891216E+03  0.14803891216E+03  0.00000000000E+00 0.  1.
         21   -1    0    0  502  503 -0.00000000000E+00 -0.00000000000E+00 -0.51499078406E+01  0.51499078406E+01  0.00000000000E+00 0.  1.
          4    1    1    2  501    0  0.20391397724E+02  0.18538645968E+02  0.76165438037E+02  0.80997928658E+02  0.00000000000E+00 0. -1.
         -4    1    1    2    0  503 -0.20391397724E+02 -0.18538645968E+02  0.66723566279E+02  0.72190891340E+02  0.00000000000E+00 0.  1.
<mgrwt>
<rscale>  2 0.27558855E+02</rscale>
<asrwt>0</asrwt>
<pdfrwt beam="1">  1       21 0.22775214E-01 0.27558855E+02</pdfrwt>
<pdfrwt beam="2">  1       21 0.79229363E-03 0.27558855E+02</pdfrwt>
<totfact> 0.72658738E+07</totfact>
</mgrwt>
</event>
<event>
 4    1  0.3862688E+004  0.2208583E+02  0.7546771E-02  0.1706772E+00
         21   -1    0    0  503  502  0.00000000000E+00  0.00000000000E+00  0.16750143311E+03  0.16750143311E+03  0.00000000000E+00 0.  1.
         21   -1    0    0  501  503 -0.00000000000E+00 -0.00000000000E+00 -0.32137250100E+01  0.32137250100E+01  0.00000000000E+00 0.  1.
          4    1    1    2  501    0  0.18569696752E+02 -0.11956174192E+02  0.55994599888E+02  0.60192848042E+02  0.00000000000E+00 0. -1.
         -4    1    1    2    0  502 -0.18569696752E+02  0.11956174192E+02  0.10829310821E+03  0.11052231007E+03  0.00000000000E+00 0.  1.
<mgrwt>
<rscale>  2 0.22085827E+02</rscale>
<asrwt>0</asrwt>
<pdfrwt beam="1">  1       21 0.25769444E-01 0.22085827E+02</pdfrwt>
<pdfrwt beam="2">  1       21 0.49441936E-03 0.22085827E+02</pdfrwt>
<totfact> 0.11101891E+08</totfact>
</mgrwt>
</event>
<event>
 4    1  0.3862688E+004  0.2942457E+02  0.7546771E-02  0.1604538E+00
         21   -1    0    0  503  502  0.00000000000E+00  0.00000000000E+00  0.41072591185E+01  0.41072591185E+01  0.00000000000E+00 0.  1.
         21   -1    0    0  501  503 -0.00000000000E+00 -0.00000000000E+00 -0.23236354649E+03  0.23236354649E+03  0.00000000000E+00 0.  1.
          1    1    1    2  501    0  0.11980053790E+02  0.26875334580E+02 -0.78108807436E+02  0.83467305555E+02  0.00000000000E+00 0.  1.
         -1    1    1    2    0  502 -0.11980053790E+02 -0.26875334580E+02 -0.15014747994E+03  0.15300350006E+03  0.00000000000E+00 0. -1.
<mgrwt>
<rscale>  2 0.29424570E+02</rscale>
<asrwt>0</asrwt>
<pdfrwt beam="1">  1       21 0.63188602E-03 0.29424570E+02</pdfrwt>
<pdfrwt beam="2">  1       21 0.35748238E-01 0.29424570E+02</pdfrwt>
<totfact> 0.45439016E+07</totfact>
</mgrwt>
</event>
<event>
 4    1  0.3862688E+004  0.3921257E+02  0.7546771E-02  0.1514087E+00
         21   -1    0    0  501  502  0.00000000000E+00  0.00000000000E+00  0.54855304740E+02  0.54855304740E+02  0.00000000000E+00 0. -1.
         21   -1    0    0  502  503 -0.00000000000E+00 -0.00000000000E+00 -0.28927474367E+02  0.28927474367E+02  0.00000000000E+00 0. -1.
          3    1    1    2  501    0  0.37595277388E+02 -0.11145433209E+02  0.55875549486E+01  0.39608664880E+02  0.00000000000E+00 0. -1.
         -3    1    1    2    0  503 -0.37595277388E+02  0.11145433209E+02  0.20340275424E+02  0.44174114226E+02  0.00000000000E+00 0.  1.
<mgrwt>
<rscale>  2 0.39212569E+02</rscale>
<asrwt>0</asrwt>
<pdfrwt beam="1">  1       21 0.84392776E-02 0.39212569E+02</pdfrwt>
<pdfrwt beam="2">  1       21 0.44503807E-02 0.39212569E+02</pdfrwt>
<totfact> 0.29539197E+07</totfact>
</mgrwt>
</event>
<event>
 4    1  0.3862688E+004  0.2319437E+02  0.7546771E-02  0.1688379E+00
         21   -1    0    0  503  502  0.00000000000E+00  0.00000000000E+00  0.17863244175E+03  0.17863244175E+03  0.00000000000E+00 0. -1.
         21   -1    0    0  501  503 -0.00000000000E+00 -0.00000000000E+00 -0.33725904239E+01  0.33725904239E+01  0.00000000000E+00 0. -1.
          5    1    1    2  501    0  0.22005641094E+02 -0.73301074134E+01  0.57859278320E+02  0.62335181097E+02  0.00000000000E+00 0. -1.
         -5    1    1    2    0  502 -0.22005641094E+02  0.73301074134E+01  0.11740057301E+03  0.11966985108E+03  0.00000000000E+00 0.  1.
<mgrwt>
<rscale>  2 0.23194368E+02</rscale>
<asrwt>0</asrwt>
<pdfrwt beam="1">  1       21 0.27481907E-01 0.23194368E+02</pdfrwt>
<pdfrwt beam="2">  1       21 0.51886020E-03 0.23194368E+02</pdfrwt>
<totfact> 0.93369295E+07</totfact>
</mgrwt>
</event>
<event>
 4    1  0.3862688E+004  0.2196724E+02  0.7546771E-02  0.1708819E+00
         21   -1    0    0  501  502  0.00000000000E+00  0.00000000000E+00  0.45382767630E+02  0.45382767630E+02  0.00000000000E+00 0. -1.
         21   -1    0    0  502  503 -0.00000000000E+00 -0.00000000000E+00 -0.10767832587E+02  0.10767832587E+02  0.00000000000E+00 0. -1.
          4    1    1    2  501    0  0.21966120500E+02  0.22220408414E+00  0.20447869849E+02  0.30011251321E+02  0.00000000000E+00 0.  1.
         -4    1    1    2    0  503 -0.21966120500E+02 -0.22220408414E+00  0.14167065195E+02  0.26139348896E+02  0.00000000000E+00 0. -1.
<mgrwt>
<rscale>  2 0.21967244E+02</rscale>
<asrwt>0</asrwt>
<pdfrwt beam="1">  1       21 0.69819641E-02 0.21967244E+02</pdfrwt>
<pdfrwt beam="2">  1       21 0.16565897E-02 0.21967244E+02</pdfrwt>
<totfact> 0.16505530E+08</totfact>
</mgrwt>
</event>
<event>
 4    1  0.3862688E+004  0.2674780E+02  0.7546771E-02  0.1637096E+00
         21   -1    0    0  501  502  0.00000000000E+00  0.00000000000E+00  0.28709549560E+02  0.28709549560E+02  0.00000000000E+00 0.  1.
         21   -1    0    0  502  503 -0.00000000000E+00 -0.00000000000E+00 -0.27874647539E+02  0.27874647539E+02  0.00000000000E+00 0.  1.
          2    1    1    2  501    0 -0.25714629257E+02 -0.73622354489E+01  0.96284432179E+01  0.28428007096E+02  0.00000000000E+00 0.  1.
         -2    1    1    2    0  503  0.25714629257E+02  0.73622354489E+01 -0.87935411968E+01  0.28156190002E+02  0.00000000000E+00 0. -1.
<mgrwt>
<rscale>  2 0.26747797E+02</rscale>
<asrwt>0</asrwt>
<pdfrwt beam="1">  1       21 0.44168538E-02 0.26747797E+02</pdfrwt>
<pdfrwt beam="2">  1       21 0.42884073E-02 0.26747797E+02</pdfrwt>
<totfact> 0.82941475E+07</totfact>
</mgrwt>
</event>
<event>
 4    1  0.3862688E+004  0.3036231E+02  0.7546771E-02  0.1594118E+00
         21   -1    0    0  501  502  0.00000000000E+00  0.00000000000E+00  0.60881538502E+02  0.60881538502E+02  0.00000000000E+00 0. -1.
         21   -1    0    0  502  503 -0.00000000000E+00 -0.00000000000E+00 -0.15596619613E+02  0.15596619613E+02  0.00000000000E+00 0. -1.
          2    1    1    2  501    0 -0.16861487994E+02  0.25249955765E+02  0.29170791618E+02  0.42104692459E+02  0.00000000000E+00 0.  1.
         -2    1    1    2    0  503  0.16861487994E+02 -0.25249955765E+02  0.16114127271E+02  0.34373465656E+02  0.00000000000E+00 0. -1.
<mgrwt>
<rscale>  2 0.30362313E+02</rscale>
<asrwt>0</asrwt>
<pdfrwt beam="1">  1       21 0.93663904E-02 0.30362313E+02</pdfrwt>
<pdfrwt beam="2">  1       21 0.23994800E-02 0.30362313E+02</pdfrwt>
<totfact> 0.62823748E+07</totfact>
</mgrwt>
</event>
<event>
 4    1  0.3862688E+004  0.2205035E+02  0.7546771E-02  0.1707383E+00
         21   -1    0    0  503  502  0.00000000000E+00  0.00000000000E+00  0.82475438587E+00  0.82475438587E+00  0.00000000000E+00 0.  1.
         21   -1    0    0  501  503 -0.00000000000E+00 -0.00000000000E+00 -0.59841800814E+03  0.59841800814E+03  0.00000000000E+00 0.  1.
          1    1    1    2  501    0  0.21211932457E+02 -0.60226067986E+01 -0.26228255124E+03  0.26320781629E+03  0.00000000000E+00 0. -1.
         -1    1    1    2    0  502 -0.21211932457E+02  0.60226067986E+01 -0.33531070252E+03  0.33603494624E+03  0.00000000000E+00 0.  1.
<mgrwt>
<rscale>  2 0.22050349E+02</rscale>
<asrwt>0</asrwt>
<pdfrwt beam="1">  1       21 0.12688490E-03 0.22050349E+02</pdfrwt>
<pdfrwt beam="2">  1       21 0.92064591E-01 0.22050349E+02</pdfrwt>
<totfact> 0.67040477E+07</totfact>
</mgrwt>
</event>
<event>
 4    1  0.3862688E+004  0.2933123E+02  0.7546771E-02  0.1605601E+00
         21   -1    0    0  501  502  0.00000000000E+00  0.00000000000E+00  0.67743734384E+01  0.67743734384E+01  0.00000000000E+00 0.  1.
         21   -1    0    0  502  503 -0.00000000000E+00 -0.00000000000E+00 -0.17256652957E+03  0.17256652957E+03  0.00000000000E+00 0.  1.
          5    1    1    2  501    0  0.85141020440E+01  0.28068325858E+02 -0.12897595795E+03  0.13226911423E+03  0.00000000000E+00 0. -1.
         -5    1    1    2    0  503 -0.85141020440E+01 -0.28068325858E+02 -0.36816198175E+02  0.47071788772E+02  0.00000000000E+00 0.  1.
<mgrwt>
<rscale>  2 0.29331227E+02</rscale>
<asrwt>0</asrwt>
<pdfrwt beam="1">  1       21 0.10422115E-02 0.29331227E+02</pdfrwt>
<pdfrwt beam="2">  1       21 0.26548691E-01 0.29331227E+02</pdfrwt>
<totfact> 0.36994964E+07</totfact>
</mgrwt>
</event>
<event>
 4    1  0.3862688E+004  0.2998565E+02  0.7546771E-02  0.1598247E+00
         21   -1    0    0  501  502  0.00000000000E+00  0.00000000000E+00  0.90989209519E+02  0.90989209519E+02  0.00000000000E+00 0. -1.
         21   -1    0    0  502  503 -0.00000000000E+00 -0.00000000000E+00 -0.12662694135E+02  0.12662694135E+02  0.00000000000E+00 0. -1.
          2    1    1    2  501    0 -0.24314662193E+02 -0.17548118191E+02  0.63450302421E+02  0.70178915116E+02  0.00000000000E+00 0. -1.
         -2    1    1    2    0  503  0.24314662193E+02  0.17548118191E+02  0.14876212963E+02  0.33472988539E+02  0.00000000000E+00 0.  1.
<mgrwt>
<rscale>  2 0.29985651E+02</rscale>
<asrwt>0</asrwt>
<pdfrwt beam="1">  1       21 0.13998339E-01 0.29985651E+02</pdfrwt>
<pdfrwt beam="2">  1       21 0.19481069E-02 0.29985651E+02</pdfrwt>
<totfact> 0.43957581E+07</totfact>
</mgrwt>
</event>
<event>
 4    1  0.3862688E+004  0.2775984E+02  0.7546771E-02  0.1624258E+00
         21   -1    0    0  501  502  0.00000000000E+00  0.00000000000E+00  0.29423880520E+02  0.29423880520E+02  0.00000000000E+00 0. -1.
         21   -1    0    0  502  503 -0.00000000000E+00 -0.00000000000E+00 -0.26190167584E+02  0.26190167584E+02  0.00000000000E+00 0. -1.
          1    1    1    2  501    0  0.15095402780E+02 -0.23296727374E+02  0.17045852871E+01  0.27812125098E+02  0.00000000000E+00 0. -1.
         -1    1    1    2    0  503 -0.15095402780E+02  0.23296727374E+02  0.15291276492E+01  0.27801923006E+02  0.00000000000E+00 0.  1.
<mgrwt>
<rscale>  2 0.27759840E+02</rscale>
<asrwt>0</asrwt>
<pdfrwt beam="1">  1       21 0.45267508E-02 0.27759840E+02</pdfrwt>
<pdfrwt beam="2">  1       21 0.40292566E-02 0.27759840E+02</pdfrwt>
<totfact> 0.88900170E+07</totfact>
</mgrwt>
</event>
<event>
 4    1  0.3862688E+004  0.2872142E+02  0.7546771E-02  0.1612667E+00
         21   -1    0    0  503  502  0.00000000000E+00  0.00000000000E+00  0.54162032574E+02  0.54162032574E+02  0.00000000000E+00 0. -1.
         21   -1    0    0  501  503 -0.00000000000E+00 -0.00000000000E+00 -0.23956617408E+02  0.23956617408E+02  0.00000000000E+00 0. -1.
          4    1    1    2  501    0  0.13258063780E+02  0.25478301198E+02 -0.84705769912E+01  0.29944461286E+02  0.00000000000E+00 0. -1.
         -4    1    1    2    0  502 -0.13258063780E+02 -0.25478301198E+02  0.38675992158E+02  0.48174188696E+02  0.00000000000E+00 0.  1.
<mgrwt>
<rscale>  2 0.28721422E+02</rscale>
<asrwt>0</asrwt>
<pdfrwt beam="1">  1       21 0.83326204E-02 0.28721422E+02</pdfrwt>
<pdfrwt beam="2">  1       21 0.36856335E-02 0.28721422E+02</pdfrwt>
<totfact> 0.38376648E+07</totfact>
</mgrwt>
</event>
<event>
 4    1  0.3862688E+004  0.2406887E+02  0.7546771E-02  0.1674748E+00
         21   -1    0    0  501  502  0.00000000000E+00  0.00000000000E+00  0.12786171364E+02  0.12786171364E+02  0.00000000000E+00 0. -1.
         21   -1    0    0  502  503 -0.00000000000E+00 -0.00000000000E+00 -0.46827998515E+02  0.46827998515E+02  0.00000000000E+00 0. -1.
          1    1    1    2  501    0 -0.18107629672E+02 -0.15856364339E+02 -0.11650006885E+02  0.26740104764E+02  0.00000000000E+00 0. -1.
         -1    1    1    2    0  503  0.18107629672E+02  0.15856364339E+02 -0.22391820265E+02  0.32874065115E+02  0.00000000000E+00 0.  1.
<mgrwt>
<rscale>  2 0.24068871E+02</rscale>
<asrwt>0</asrwt>
<pdfrwt beam="1">  1       21 0.19671033E-02 0.24068871E+02</pdfrwt>
<pdfrwt beam="2">  1       21 0.72043075E-02 0.24068871E+02</pdfrwt>
<totfact> 0.12399803E+08</totfact>
</mgrwt>
</event>
<event>
 4    1  0.3862688E+004  0.2668519E+02  0.7546771E-02  0.1637914E+00
         21   -1    0    0  501  502  0.00000000000E+00  0.00000000000E+00  0.45418518131E+02  0.45418518131E+02  0.00000000000E+00 0. -1.
         21   -1    0    0  502  503 -0.00000000000E+00 -0.00000000000E+00 -0.21821763435E+02  0.21821763435E+02  0.00000000000E+00 0. -1.
          3    1    1    2  501    0  0.26593078632E+02 -0.22153190703E+01  0.29636539310E+02  0.39880119508E+02  0.00000000000E+00 0. -1.
         -3    1    1    2    0  503 -0.26593078632E+02  0.22153190703E+01 -0.60397846136E+01  0.27360162059E+02  0.00000000000E+00 0.  1.
<mgrwt>
<rscale>  2 0.26685192E+02</rscale>
<asrwt>0</asrwt>
<pdfrwt beam="1">  1       21 0.69874643E-02 0.26685192E+02</pdfrwt>
<pdfrwt beam="2">  1       21 0.33571944E-02 0.26685192E+02</pdfrwt>
<totfact> 0.58337402E+07</totfact>
</mgrwt>
</event>
<event>
 4    1  0.3862688E+004  0.2193657E+02  0.7546771E-02  0.1709351E+00
         21   -1    0    0  503  502  0.00000000000E+00  0.00000000000E+00  0.36128517811E+03  0.36128517811E+03  0.00000000000E+00 0. -1.
         21   -1    0    0  501  503 -0.00000000000E+00 -0.00000000000E+00 -0.14963539024E+01  0.14963539024E+01  0.00000000000E+00 0. -1.
          2    1    1    2  501    0 -0.41191302235E+01 -0.21546362298E+02  0.11976913192E+03  0.12176147964E+03  0.00000000000E+00 0. -1.
         -2    1    1    2    0  502  0.41191302235E+01  0.21546362298E+02  0.24001969229E+03  0.24102005238E+03  0.00000000000E+00 0.  1.
<mgrwt>
<rscale>  2 0.21936567E+02</rscale>
<asrwt>0</asrwt>
<pdfrwt beam="1">  1       21 0.55582266E-01 0.21936567E+02</pdfrwt>
<pdfrwt beam="2">  1       21 0.23020858E-03 0.21936567E+02</pdfrwt>
<totfact> 0.80251296E+07</totfact>
</mgrwt>
</event>
<event>
 4    1  0.3862688E+004  0.2487452E+02  0.7546771E-02  0.1662811E+00
         21   -1    0    0  501  502  0.00000000000E+00  0.00000000000E+00  0.99425136840E+01  0.99425136840E+01  0.00000000000E+00 0. -1.
         21   -1    0    0  502  503 -0.00000000000E+00 -0.00000000000E+00 -0.62354594770E+02  0.62354594770E+02  0.00000000000E+00 0. -1.
          2    1    1    2  501    0  0.46118923655E+01  0.24443241758E+02 -0.24602604418E+02  0.34986136726E+02  0.00000000000E+00 0. -1.
         -2    1    1    2    0  503 -0.46118923655E+01 -0.24443241758E+02 -0.27809476668E+02  0.37310971729E+02  0.00000000000E+00 0.  1.
<mgrwt>
<rscale>  2 0.24874517E+02</rscale>
<asrwt>0</asrwt>
<pdfrwt beam="1">  1       21 0.15296175E-02 0.24874517E+02</pdfrwt>
<pdfrwt beam="2">  1       21 0.95930144E-02 0.24874517E+02</pdfrwt>
<totfact> 0.11500110E+08</totfact>
</mgrwt>
</event>
<event>
 4    1  0.3862688E+004  0.2124517E+02  0.7546771E-02  0.1721643E+00
         21   -1    0    0  503  502  0.00000000000E+00  0.00000000000E+00  0.28191049868E+01  0.28191049868E+01  0.00000000000E+00 0.  1.
         21   -1    0    0  501  503 -0.00000000000E+00 -0.00000000000E+00 -0.16764595148E+03  0.16764595148E+03  0.00000000000E+00 0.  1.
          4    1    1    2  501    0  0.13694411672E+01 -0.21200992250E+02 -0.64338580245E+02  0.67755518959E+02  0.00000000000E+00 0. -1.
         -4    1    1    2    0  502 -0.13694411672E+01  0.21200992250E+02 -0.10048826625E+03  0.10270953751E+03  0.00000000000E+00 0.  1.
<mgrwt>
<rscale>  2 0.21245175E+02</rscale>
<asrwt>0</asrwt>
<pdfrwt beam="1">  1       21 0.43370831E-03 0.21245175E+02</pdfrwt>
<pdfrwt beam="2">  1       21 0.25791694E-01 0.21245175E+02</pdfrwt>
<totfact> 0.13290405E+08</totfact>
</mgrwt>
</event>
<event>
 4    1  0.3862688E+004  0.2158360E+02  0.7546771E-02  0.1715554E+00
         21   -1    0    0  501  502  0.00000000000E+00  0.00000000000E+00  0.10317742835E+03  0.10317742835E+03  0.00000000000E+00 0. -1.
         21   -1    0    0  502  503 -0.00000000000E+00 -0.00000000000E+00 -0.45153144745E+01  0.45153144745E+01  0.00000000000E+00 0. -1.
          2    1    1    2  501    0 -0.18247423991E+02 -0.11527508850E+02  0.48924234976E+02  0.53473663710E+02  0.00000000000E+00 0. -1.
         -2    1    1    2    0  503  0.18247423991E+02  0.11527508850E+02  0.49737878899E+02  0.54219079114E+02  0.00000000000E+00 0.  1.
<mgrwt>
<rscale>  2 0.21583604E+02</rscale>
<asrwt>0</asrwt>
<pdfrwt beam="1">  1       21 0.15873449E-01 0.21583604E+02</pdfrwt>
<pdfrwt beam="2">  1       21 0.69466384E-03 0.21583604E+02</pdfrwt>
<totfact> 0.15528014E+08</totfact>
</mgrwt>
</event>
<event>
 4    1  0.3862688E+004  0.2407619E+02  0.7546771E-02  0.1674637E+00
         21   -1    0    0  501  502  0.00000000000E+00  0.00000000000E+00  0.67458870334E+01  0.67458870334E+01  0.00000000000E+00 0. -1.
         21   -1    0    0  502  503 -0.00000000000E+00 -0.00000000000E+00 -0.89076344468E+02  0.89076344468E+02  0.00000000000E+00 0. -1.
          4    1    1    2  501    0  0.24068839018E+02 -0.59505072124E+00 -0.32158429375E+02  0.40172474119E+02  0.00000000000E+00 0.  1.
         -4    1    1    2    0  503 -0.24068839018E+02  0.59505072124E+00 -0.50172028060E+02  0.55649757382E+02  0.00000000000E+00 0. -1.
<mgrwt>
<rscale>  2 0.24076194E+02</rscale>
<asrwt>0</asrwt>
<pdfrwt beam="1">  1       21 0.10378288E-02 0.24076194E+02</pdfrwt>
<pdfrwt beam="2">  1       21 0.13704053E-01 0.24076194E+02</pdfrwt>
<totfact> 0.11293063E+08</totfact>
</mgrwt>
</event>
<event>
 4    1  0.3862688E+004  0.2387802E+02  0.7546771E-02  0.1677661E+00
         21   -1    0    0  501  502  0.00000000000E+00  0.00000000000E+00  0.16545889883E+01  0.16545889883E+01  0.00000000000E+00 0.  1.
         21   -1    0    0  502  503 -0.00000000000E+00 -0.00000000000E+00 -0.34634997024E+03  0.34634997024E+03  0.00000000000E+00 0.  1.
          2    1    1    2  501    0 -0.26849516837E+01  0.23726584281E+02 -0.18474081374E+03  0.18627755643E+03  0.00000000000E+00 0. -1.
         -2    1    1    2    0  503  0.26849516837E+01 -0.23726584281E+02 -0.15995456751E+03  0.16172700280E+03  0.00000000000E+00 0.  1.
<mgrwt>
<rscale>  2 0.23878018E+02</rscale>
<asrwt>0</asrwt>
<pdfrwt beam="1">  1       21 0.25455244E-03 0.23878018E+02</pdfrwt>
<pdfrwt beam="2">  1       21 0.53284550E-01 0.23878018E+02</pdfrwt>
<totfact> 0.76990480E+07</totfact>
</mgrwt>
</event>
<event>
 4    1  0.3862688E+004  0.4412120E+02  0.7546771E-02  0.1479904E+00
         21   -1    0    0  501  502  0.00000000000E+00  0.00000000000E+00  0.39419545159E+01  0.39419545159E+01  0.00000000000E+00 0.  1.
         21   -1    0    0  502  503 -0.00000000000E+00 -0.00000000000E+00 -0.49594055680E+03  0.49594055680E+03  0.00000000000E+00 0.  1.
          2    1    1    2  501    0 -0.28904616782E+02 -0.33334717437E+02 -0.26227995520E+03  0.26596513899E+03  0.00000000000E+00 0. -1.
         -2    1    1    2    0  503  0.28904616782E+02  0.33334717437E+02 -0.22971864709E+03  0.23391737233E+03  0.00000000000E+00 0.  1.
<mgrwt>
<rscale>  2 0.44121200E+02</rscale>
<asrwt>0</asrwt>
<pdfrwt beam="1">  1       21 0.60645471E-03 0.44121200E+02</pdfrwt>
<pdfrwt beam="2">  1       21 0.76298526E-01 0.44121200E+02</pdfrwt>
<totfact> 0.11341067E+07</totfact>
</mgrwt>
</event>
<event>
 4    1  0.3862688E+004  0.3780678E+02  0.7546771E-02  0.1525001E+00
         21   -1    0    0  503  502  0.00000000000E+00  0.00000000000E+00  0.79763307327E+02  0.79763307327E+02  0.00000000000E+00 0.  1.
         21   -1    0    0  501  503 -0.00000000000E+00 -0.00000000000E+00 -0.18727010681E+02  0.18727010681E+02  0.00000000000E+00 0.  1.
          3    1    1    2  501    0  0.28598167092E+02  0.24728469335E+02  0.20294884483E+02  0.42909610728E+02  0.00000000000E+00 0. -1.
         -3    1    1    2    0  502 -0.28598167092E+02 -0.24728469335E+02  0.40741412163E+02  0.55580707280E+02  0.00000000000E+00 0.  1.
<mgrwt>
<rscale>  2 0.37806777E+02</rscale>
<asrwt>0</asrwt>
<pdfrwt beam="1">  1       21 0.12271278E-01 0.37806777E+02</pdfrwt>
<pdfrwt beam="2">  1       21 0.28810786E-02 0.37806777E+02</pdfrwt>
<totfact> 0.31238161E+07</totfact>
</mgrwt>
</event>
<event>
 4    1  0.3862688E+004  0.3837050E+02  0.7546771E-02  0.1520557E+00
         21   -1    0    0  501  502  0.00000000000E+00  0.00000000000E+00  0.12580711339E+01  0.12580711339E+01  0.00000000000E+00 0. -1.
         21   -1    0    0  502  503 -0.00000000000E+00 -0.00000000000E+00 -0.12554466856E+04  0.12554466856E+04  0.00000000000E+00 0. -1.
          1    1    1    2  501    0 -0.10151329386E+02  0.37003320904E+02 -0.46343546059E+03  0.46502120530E+03  0.00000000000E+00 0. -1.
         -1    1    1    2    0  503  0.10151329386E+02 -0.37003320904E+02 -0.79075315385E+03  0.79168355141E+03  0.00000000000E+00 0.  1.
<mgrwt>
<rscale>  2 0.38370500E+02</rscale>
<asrwt>0</asrwt>
<pdfrwt beam="1">  1       21 0.19354857E-03 0.38370500E+02</pdfrwt>
<pdfrwt beam="2">  1       21 0.19314648E+00 0.38370500E+02</pdfrwt>
<totfact> 0.68924665E+06</totfact>
</mgrwt>
</event>
<event>
 4    1  0.3862688E+004  0.4011860E+02  0.7546771E-02  0.1507340E+00
         21   -1    0    0  503  502  0.00000000000E+00  0.00000000000E+00  0.18359351669E+04  0.18359351669E+04  0.00000000000E+00 0. -1.
         21   -1    0    0  501  503 -0.00000000000E+00 -0.00000000000E+00 -0.87755798706E+00  0.87755798706E+00  0.00000000000E+00 0. -1.
          3    1    1    2  501    0 -0.38810870800E+02  0.10159661863E+02  0.88825276767E+03  0.88915829957E+03  0.00000000000E+00 0. -1.
         -3    1    1    2    0  502  0.38810870800E+02 -0.10159661863E+02  0.94680484128E+03  0.94765442535E+03  0.00000000000E+00 0.  1.
<mgrwt>
<rscale>  2 0.40118604E+02</rscale>
<asrwt>0</asrwt>
<pdfrwt beam="1">  1       21 0.28244849E+00 0.40118604E+02</pdfrwt>
<pdfrwt beam="2">  1       21 0.13501039E-03 0.40118604E+02</pdfrwt>
<totfact> 0.38443708E+06</totfact>
</mgrwt>
</event>
<event>
 4    1  0.3862688E+004  0.2967311E+02  0.7546771E-02  0.1601730E+00
         21   -1    0    0  503  502  0.00000000000E+00  0.00000000000E+00  0.22785118915E+02  0.22785118915E+02  0.00000000000E+00 0.  1.
         21   -1    0    0  501  503 -0.00000000000E+00 -0.00000000000E+00 -0.47967771219E+02  0.47967771219E+02  0.00000000000E+00 0.  1.
          3    1    1    2  501    0  0.29496834599E+02 -0.32296276449E+01 -0.28188644299E+02  0.40927905071E+02  0.00000000000E+00 0.  1.
         -3    1    1    2    0  502 -0.29496834599E+02  0.32296276449E+01  0.30059919947E+01  0.29824985062E+02  0.00000000000E+00 0. -1.
<mgrwt>
<rscale>  2 0.29673115E+02</rscale>
<asrwt>0</asrwt>
<pdfrwt beam="1">  1       21 0.35054030E-02 0.29673115E+02</pdfrwt>
<pdfrwt beam="2">  1       21 0.73796570E-02 0.29673115E+02</pdfrwt>
<totfact> 0.51108584E+07</totfact>
</mgrwt>
</event>
<event>
 4    1  0.3862688E+004  0.2259946E+02  0.7546771E-02  0.1698086E+00
         21   -1    0    0  503  502  0.00000000000E+00  0.00000000000E+00  0.59766341215E+01  0.59766341215E+01  0.00000000000E+00 0. -1.
         21   -1    0    0  501  503 -0.00000000000E+00 -0.00000000000E+00 -0.85679420032E+02  0.85679420032E+02  0.00000000000E+00 0. -1.
          1    1    1    2  501    0 -0.21653401173E+02 -0.64703649479E+01 -0.37507824642E+02  0.43790093791E+02  0.00000000000E+00 0. -1.
         -1    1    1    2    0  502  0.21653401173E+02  0.64703649479E+01 -0.42194961269E+02  0.47865960362E+02  0.00000000000E+00 0.  1.
<mgrwt>
<rscale>  2 0.22599456E+02</rscale>
<asrwt>0</asrwt>
<pdfrwt beam="1">  1       21 0.91948219E-03 0.22599456E+02</pdfrwt>
<pdfrwt beam="2">  1       21 0.13181449E-01 0.22599456E+02</pdfrwt>
<totfact> 0.14202019E+08</totfact>
</mgrwt>
</event>
<event>
 4    1  0.3862688E+004  0.2138634E+02  0.7546771E-02  0.1719086E+00
         21   -1    0    0  501  502  0.00000000000E+00  0.00000000000E+00  0.26753030149E+01  0.26753030149E+01  0.00000000000E+00 0.  1.
         21   -1    0    0  502  503 -0.00000000000E+00 -0.00000000000E+00 -0.17460173637E+03  0.17460173637E+03  0.00000000000E+00 0.  1.
          5    1    1    2  501    0 -0.12017363179E+02 -0.17690631360E+02 -0.98760755392E+02  0.10104980090E+03  0.00000000000E+00 0. -1.
         -5    1    1    2    0  503  0.12017363179E+02  0.17690631360E+02 -0.73165677965E+02  0.76227238490E+02  0.00000000000E+00 0.  1.
<mgrwt>
<rscale>  2 0.21386338E+02</rscale>
<asrwt>0</asrwt>
<pdfrwt beam="1">  1       21 0.41158511E-03 0.21386338E+02</pdfrwt>
<pdfrwt beam="2">  1       21 0.26861803E-01 0.21386338E+02</pdfrwt>
<totfact> 0.13370186E+08</totfact>
</mgrwt>
</event>
<event>
 4    1  0.3862688E+004  0.2106095E+02  0.7546771E-02  0.1725017E+00
         21   -1    0    0  501  502  0.00000000000E+00  0.00000000000E+00  0.38709177539E+01  0.38709177539E+01  0.00000000000E+00 0. -1.
         21   -1    0    0  502  503 -0.00000000000E+00 -0.00000000000E+00 -0.12654956978E+03  0.12654956978E+03  0.00000000000E+00 0. -1.
          3    1    1    2  501    0 -0.19547033243E+02  0.78407343997E+01 -0.81387091380E+02  0.84067962196E+02  0.00000000000E+00 0.  1.
         -3    1    1    2    0  503  0.19547033243E+02 -0.78407343997E+01 -0.41291560643E+02  0.46352525334E+02  0.00000000000E+00 0. -1.
<mgrwt>
<rscale>  2 0.21060950E+02</rscale>
<asrwt>0</asrwt>
<pdfrwt beam="1">  1       21 0.59552577E-03 0.21060950E+02</pdfrwt>
<pdfrwt beam="2">  1       21 0.19469166E-01 0.21060950E+02</pdfrwt>
<totfact> 0.13629850E+08</totfact>
</mgrwt>
</event>
<event>
 4    1  0.3862688E+004  0.3943424E+02  0.7546771E-02  0.1512417E+00
         21   -1    0    0  501  502  0.00000000000E+00  0.00000000000E+00  0.13715526188E+02  0.13715526188E+02  0.00000000000E+00 0. -1.
         21   -1    0    0  502  503 -0.00000000000E+00 -0.00000000000E+00 -0.12069069847E+03  0.12069069847E+03  0.00000000000E+00 0. -1.
          1    1    1    2  501    0 -0.38848823945E+02  0.67696475561E+01 -0.36947136259E+02  0.54038413445E+02  0.00000000000E+00 0.  1.
         -1    1    1    2    0  503  0.38848823945E+02 -0.67696475561E+01 -0.70028036021E+02  0.80367811212E+02  0.00000000000E+00 0. -1.
<mgrwt>
<rscale>  2 0.39434240E+02</rscale>
<asrwt>0</asrwt>
<pdfrwt beam="1">  1       21 0.21100810E-02 0.39434240E+02</pdfrwt>
<pdfrwt beam="2">  1       21 0.18567799E-01 0.39434240E+02</pdfrwt>
<totfact> 0.25000652E+07</totfact>
</mgrwt>
</event>
<event>
 4    1  0.3862688E+004  0.2709243E+02  0.7546771E-02  0.1632647E+00
         21   -1    0    0  501  502  0.00000000000E+00  0.00000000000E+00  0.11193690100E+02  0.11193690100E+02  0.00000000000E+00 0. -1.
         21   -1    0    0  502  503 -0.00000000000E+00 -0.00000000000E+00 -0.10036862007E+03  0.10036862007E+03  0.00000000000E+00 0. -1.
          2    1    1    2  501    0  0.27006822101E+02  0.21520009983E+01 -0.77431250692E+02  0.82034127849E+02  0.00000000000E+00 0. -1.
         -2    1    1    2    0  503 -0.27006822101E+02 -0.21520009983E+01 -0.11743679283E+02  0.29528182325E+02  0.00000000000E+00 0.  1.
<mgrwt>
<rscale>  2 0.27092426E+02</rscale>
<asrwt>0</asrwt>
<pdfrwt beam="1">  1       21 0.17221062E-02 0.27092426E+02</pdfrwt>
<pdfrwt beam="2">  1       21 0.15441326E-01 0.27092426E+02</pdfrwt>
<totfact> 0.43924690E+07</totfact>
</mgrwt>
</event>
<event>
 4    1  0.3862688E+004  0.2232073E+02  0.7546771E-02  0.1702763E+00
         21   -1    0    0  503  502  0.00000000000E+00  0.00000000000E+00  0.12529454914E+02  0.12529454914E+02  0.00000000000E+00 0.  1.
         21   -1    0    0  501  503 -0.00000000000E+00 -0.00000000000E+00 -0.50819222337E+02  0.50819222337E+02  0.00000000000E+00 0.  1.
          4    1    1    2  501    0 -0.20064246319E+02 -0.97796323977E+01 -0.43712685911E+01  0.22744739596E+02  0.00000000000E+00 0.  1.
         -4    1    1    2    0  502  0.20064246319E+02  0.97796323977E+01 -0.33918498832E+02  0.40603937656E+02  0.00000000000E+00 0. -1.
<mgrwt>
<rscale>  2 0.22320735E+02</rscale>
<asrwt>0</asrwt>
<pdfrwt beam="1">  1       21 0.19276085E-02 0.22320735E+02</pdfrwt>
<pdfrwt beam="2">  1       21 0.78183418E-02 0.22320735E+02</pdfrwt>
<totfact> 0.10954130E+08</totfact>
</mgrwt>
</event>
<event>
 4    1  0.3862688E+004  0.2175864E+02  0.7546771E-02  0.1712460E+00
         21   -1    0    0  501  502  0.00000000000E+00  0.00000000000E+00  0.16526237841E+00  0.16526237841E+00  0.00000000000E+00 0.  1.
         21   -1    0    0  502  503 -0.00000000000E+00 -0.00000000000E+00 -0.28648031436E+04  0.28648031436E+04  0.00000000000E+00 0.  1.
          4    1    1    2  501    0  0.16922980109E+02 -0.13676658584E+02 -0.14272469362E+04  0.14274127837E+04  0.00000000000E+00 0.  1.
         -4    1    1    2    0  503 -0.16922980109E+02  0.13676658584E+02 -0.14373909450E+04  0.14375556222E+04  0.00000000000E+00 0. -1.
<mgrwt>
<rscale>  2 0.21758636E+02</rscale>
<asrwt>0</asrwt>
<pdfrwt beam="1">  1       21 0.25422119E-04 0.21758636E+02</pdfrwt>
<pdfrwt beam="2">  1       21 0.44078856E+00 0.21758636E+02</pdfrwt>
<totfact> 0.62088707E+06</totfact>
</mgrwt>
</event>
<event>
 4    1  0.3862688E+004  0.3088494E+02  0.7546771E-02  0.1588508E+00
         21   -1    0    0  501  502  0.00000000000E+00  0.00000000000E+00  0.30847559347E+01  0.30847559347E+01  0.00000000000E+00 0.  1.
         21   -1    0    0  502  503 -0.00000000000E+00 -0.00000000000E+00 -0.31439286513E+03  0.31439286513E+03  0.00000000000E+00 0.  1.
          1    1    1    2  501    0  0.17237992205E+02  0.25626765183E+02 -0.13529960498E+03  0.13877990697E+03  0.00000000000E+00 0. -1.
         -1    1    1    2    0  503 -0.17237992205E+02 -0.25626765183E+02 -0.17600850421E+03  0.17869771409E+03  0.00000000000E+00 0.  1.
<mgrwt>
<rscale>  2 0.30884939E+02</rscale>
<asrwt>0</asrwt>
<pdfrwt beam="1">  1       21 0.47457782E-03 0.30884939E+02</pdfrwt>
<pdfrwt beam="2">  1       21 0.48368135E-01 0.30884939E+02</pdfrwt>
<totfact> 0.39388475E+07</totfact>
</mgrwt>
</event>
<event>
 4    1  0.3862688E+004  0.3375009E+02  0.7546771E-02  0.1559989E+00
         21   -1    0    0  501  502  0.00000000000E+00  0.00000000000E+00  0.47035165168E+03  0.47035165168E+03  0.00000000000E+00 0.  1.
         21   -1    0    0  502  503 -0.00000000000E+00 -0.00000000000E+00 -0.32837207013E+01  0.32837207013E+01  0.00000000000E+00 0.  1.
          5    1    1    2  501    0 -0.17383479878E+02  0.28928930519E+02  0.35486735870E+03  0.35646866715E+03  0.00000000000E+00 0.  1.
         -5    1    1    2    0  503  0.17383479878E+02 -0.28928930519E+02  0.11220057228E+03  0.11716670523E+03  0.00000000000E+00 0. -1.
<mgrwt>
<rscale>  2 0.33750087E+02</rscale>
<asrwt>0</asrwt>
<pdfrwt beam="1">  1       21 0.72361739E-01 0.33750087E+02</pdfrwt>
<pdfrwt beam="2">  1       21 0.50518817E-03 0.33750087E+02</pdfrwt>
<totfact> 0.16118764E+07</totfact>
</mgrwt>
</event>
<event>
 4    1  0.3862688E+004  0.2292401E+02  0.7546771E-02  0.1692745E+00
         21   -1    0    0  503  502  0.00000000000E+00  0.00000000000E+00  0.10823063576E+03  0.10823063576E+03  0.00000000000E+00 0.  1.
         21   -1    0    0  501  503 -0.00000000000E+00 -0.00000000000E+00 -0.51872934484E+01  0.51872934484E+01  0.00000000000E+00 0.  1.
          5    1    1    2  501    0 -0.16419888707E+02 -0.15996792750E+02  0.37178745168E+02  0.43678017534E+02  0.00000000000E+00 0.  1.
         -5    1    1    2    0  502  0.16419888707E+02  0.15996792750E+02  0.65864597141E+02  0.69739911672E+02  0.00000000000E+00 0. -1.
<mgrwt>
<rscale>  2 0.22924008E+02</rscale>
<asrwt>0</asrwt>
<pdfrwt beam="1">  1       21 0.16650865E-01 0.22924008E+02</pdfrwt>
<pdfrwt beam="2">  1       21 0.79804522E-03 0.22924008E+02</pdfrwt>
<totfact> 0.11845879E+08</totfact>
</mgrwt>
</event>
<event>
 4    1  0.3862688E+004  0.2292760E+02  0.7546771E-02  0.1692686E+00
         21   -1    0    0  503  502  0.00000000000E+00  0.00000000000E+00  0.51327841996E+02  0.51327841996E+02  0.00000000000E+00 0. -1.
         21   -1    0    0  501  503 -0.00000000000E+00 -0.00000000000E+00 -0.11183163413E+02  0.11183163413E+02  0.00000000000E+00 0. -1.
          4    1    1    2  501    0 -0.11371287491E+02  0.19909012235E+02  0.11002738605E+02  0.25430989052E+02  0.00000000000E+00 0. -1.
         -4    1    1    2    0  502  0.11371287491E+02 -0.19909012235E+02  0.29141939978E+02  0.37080016357E+02  0.00000000000E+00 0.  1.
<mgrwt>
<rscale>  2 0.22927602E+02</rscale>
<asrwt>0</asrwt>
<pdfrwt beam="1">  1       21 0.78965909E-02 0.22927602E+02</pdfrwt>
<pdfrwt beam="2">  1       21 0.17204867E-02 0.22927602E+02</pdfrwt>
<totfact> 0.12924743E+08</totfact>
</mgrwt>
</event>
<event>
 4    1  0.3862688E+004  0.2524540E+02  0.7546771E-02  0.1657502E+00
         21   -1    0    0  501  502  0.00000000000E+00  0.00000000000E+00  0.24153584162E+03  0.24153584162E+03  0.00000000000E+00 0.  1.
         21   -1    0    0  502  503 -0.00000000000E+00 -0.00000000000E+00 -0.33153704275E+01  0.33153704275E+01  0.00000000000E+00 0.  1.
          5    1    1    2  501    0  0.25704199673E+00 -0.25244093935E+02  0.63799621066E+02  0.68612841345E+02  0.00000000000E+00 0. -1.
         -5    1    1    2    0  503 -0.25704199673E+00  0.25244093935E+02  0.17442085013E+03  0.17623837070E+03  0.00000000000E+00 0.  1.
<mgrwt>
<rscale>  2 0.25245403E+02</rscale>
<asrwt>0</asrwt>
<pdfrwt beam="1">  1       21 0.37159346E-01 0.25245403E+02</pdfrwt>
<pdfrwt beam="2">  1       21 0.51005718E-03 0.25245403E+02</pdfrwt>
<totfact> 0.56195049E+07</totfact>
</mgrwt>
</event>
<event>
 4    1  0.3862688E+004  0.2186594E+02  0.7546771E-02  0.1710581E+00
         21   -1    0    0  503  502  0.00000000000E+00  0.00000000000E+00  0.11117095738E+02  0.11117095738E+02  0.00000000000E+00 0.  1.
         21   -1    0    0  501  503 -0.00000000000E+00 -0.00000000000E+00 -0.46978853158E+02  0.46978853158E+02  0.00000000000E+00 0.  1.
          2    1    1    2  501    0 -0.21853184444E+02 -0.74662163284E+00 -0.26376485494E+02  0.34261320775E+02  0.00000000000E+00 0. -1.
         -2    1    1    2    0  502  0.21853184444E+02  0.74662163284E+00 -0.94852719251E+01  0.23834628121E+02  0.00000000000E+00 0.  1.
<mgrwt>
<rscale>  2 0.21865935E+02</rscale>
<asrwt>0</asrwt>
<pdfrwt beam="1">  1       21 0.17103225E-02 0.21865935E+02</pdfrwt>
<pdfrwt beam="2">  1       21 0.72275157E-02 0.21865935E+02</pdfrwt>
<totfact> 0.14846307E+08</totfact>
</mgrwt>
</event>
<event>
 4    1  0.3862688E+004  0.2374962E+02  0.7546771E-02  0.1679639E+00
         21   -1    0    0  501  502  0.00000000000E+00  0.00000000000E+00  0.26396047127E+02  0.26396047127E+02  0.00000000000E+00 0.  1.
         21   -1    0    0  502  503 -0.00000000000E+00 -0.00000000000E+00 -0.33249554227E+02  0.33249554227E+02  0.00000000000E+00 0.  1.
          3    1    1    2  501    0  0.23720274615E+02 -0.11801837274E+01 -0.21253938657E+02  0.31871212243E+02  0.00000000000E+00 0. -1.
         -3    1    1    2    0  503 -0.23720274615E+02  0.11801837274E+01  0.14400431556E+02  0.27774389110E+02  0.00000000000E+00 0.  1.
<mgrwt>
<rscale>  2 0.23749616E+02</rscale>
<asrwt>0</asrwt>
<pdfrwt beam="1">  1       21 0.40609303E-02 0.23749616E+02</pdfrwt>
<pdfrwt beam="2">  1       21 0.51153160E-02 0.23749616E+02</pdfrwt>
<totfact> 0.69381480E+07</totfact>
</mgrwt>
</event>
<event>
 4    1  0.3862688E+004  0.2903972E+02  0.7546771E-02  0.1608952E+00
         21   -1    0    0  503  502  0.00000000000E+00  0.00000000000E+00  0.10202808847E+02  0.10202808847E+02  0.00000000000E+00 0.  1.
         21   -1    0    0  501  503 -0.00000000000E+00 -0.00000000000E+00 -0.85499522759E+02  0.85499522759E+02  0.00000000000E+00 0.  1.
          1    1    1    2  501    0 -0.55550087557E+01  0.28503460639E+02 -0.28919174994E+02  0.40983216967E+02  0.00000000000E+00 0. -1.
         -1    1    1    2    0  502  0.55550087557E+01 -0.28503460639E+02 -0.46377538919E+02  0.54719114638E+02  0.00000000000E+00 0.  1.
<mgrwt>
<rscale>  2 0.29039721E+02</rscale>
<asrwt>0</asrwt>
<pdfrwt beam="1">  1       21 0.15696629E-02 0.29039721E+02</pdfrwt>
<pdfrwt beam="2">  1       21 0.13153773E-01 0.29039721E+02</pdfrwt>
<totfact> 0.67703763E+07</totfact>
</mgrwt>
</event>
<event>
 4    1  0.3862688E+004  0.2191068E+02  0.7546771E-02  0.1709801E+00
         21   -1    0    0  503  502  0.00000000000E+00  0.00000000000E+00  0.18626467931E+03  0.18626467931E+03  0.00000000000E+00 0.  1.
         21   -1    0    0  501  503 -0.00000000000E+00 -0.00000000000E+00 -0.26361395979E+01  0.26361395979E+01  0.00000000000E+00 0.  1.
          3    1    1    2  501    0 -0.13891596461E+01  0.21866602758E+02  0.10591349107E+03  0.10815611712E+03  0.00000000000E+00 0. -1.
         -3    1    1    2    0  502  0.13891596461E+01 -0.21866602758E+02  0.77715048644E+02  0.80744701785E+02  0.00000000000E+00 0.  1.
<mgrwt>
<rscale>  2 0.21910684E+02</rscale>
<asrwt>0</asrwt>
<pdfrwt beam="1">  1       21 0.28656094E-01 0.21910684E+02</pdfrwt>
<pdfrwt beam="2">  1       21 0.40556008E-03 0.21910684E+02</pdfrwt>
<totfact> 0.12246316E+08</totfact>
</mgrwt>
</event>
<event>
 4    1  0.3862688E+004  0.2332129E+02  0.7546771E-02  0.1686354E+00
         21   -1    0    0  501  502  0.00000000000E+00  0.00000000000E+00  0.67170576776E+01  0.67170576776E+01  0.00000000000E+00 0. -1.
         21   -1    0    0  502  503 -0.00000000000E+00 -0.00000000000E+00 -0.90102183523E+02  0.90102183523E+02  0.00000000000E+00 0. -1.
          3    1    1    2  501    0  0.89988338485E+01  0.21515189856E+02 -0.57104008922E+02  0.61682657532E+02  0.00000000000E+00 0. -1.
         -3    1    1    2    0  503 -0.89988338485E+01 -0.21515189856E+02 -0.26281116923E+02  0.35136583669E+02  0.00000000000E+00 0.  1.
<mgrwt>
<rscale>  2 0.23321287E+02</rscale>
<asrwt>0</asrwt>
<pdfrwt beam="1">  1       21 0.10333935E-02 0.23321287E+02</pdfrwt>
<pdfrwt beam="2">  1       21 0.13861874E-01 0.23321287E+02</pdfrwt>
<totfact> 0.11047499E+08</totfact>
</mgrwt>
</event>
<event>
 4    1  0.3862688E+004  0.3559477E+02  0.7546771E-02  0.1543381E+00
         21   -1    0    0  501  502  0.00000000000E+00  0.00000000000E+00  0.25426344820E+01  0.25426344820E+01  0.00000000000E+00 0.  1.
         21   -1    0    0  502  503 -0.00000000000E+00 -0.00000000000E+00 -0.57857846438E+03  0.57857846438E+03  0.00000000000E+00 0.  1.
          5    1    1    2  501    0 -0.33928062051E+02  0.10764502967E+02 -0.39625156990E+03  0.39784707435E+03  0.00000000000E+00 0. -1.
         -5    1    1    2    0  503  0.33928062051E+02 -0.10764502967E+02 -0.17978425999E+03  0.18327402451E+03  0.00000000000E+00 0.  1.
<mgrwt>
<rscale>  2 0.35594774E+02</rscale>
<asrwt>0</asrwt>
<pdfrwt beam="1">  1       21 0.39117439E-03 0.35594774E+02</pdfrwt>
<pdfrwt beam="2">  1       21 0.89012104E-01 0.35594774E+02</pdfrwt>
<totfact> 0.15277426E+07</totfact>
</mgrwt>
</event>
<event>
 4    1  0.3862688E+004  0.2172494E+02  0.7546771E-02  0.1713053E+00
         21   -1    0    0  501  502  0.00000000000E+00  0.00000000000E+00  0.16949562160E+02  0.16949562160E+02  0.00000000000E+00 0. -1.
         21   -1    0    0  502  503 -0.00000000000E+00 -0.00000000000E+00 -0.32683380750E+02  0.32683380750E+02  0.00000000000E+00 0. -1.
          4    1    1    2  501    0 -0.10974274791E+02 -0.18749359302E+02  0.16806670202E+01  0.21789855967E+02  0.00000000000E+00 0.  1.
         -4    1    1    2    0  503  0.10974274791E+02  0.18749359302E+02 -0.17414485610E+02  0.27843086943E+02  0.00000000000E+00 0. -1.
<mgrwt>
<rscale>  2 0.21724944E+02</rscale>
<asrwt>0</asrwt>
<pdfrwt beam="1">  1       21 0.26076250E-02 0.21724944E+02</pdfrwt>
<pdfrwt beam="2">  1       21 0.50282124E-02 0.21724944E+02</pdfrwt>
<totfact> 0.13880105E+08</totfact>
</mgrwt>
</event>
<event>
 4    1  0.3862688E+004  0.2547180E+02  0.7546771E-02  0.1654316E+00
         21   -1    0    0  503  502  0.00000000000E+00  0.00000000000E+00  0.10878251252E+01  0.10878251252E+01  0.00000000000E+00 0.  1.
         21   -1    0    0  501  503 -0.00000000000E+00 -0.00000000000E+00 -0.59643631545E+03  0.59643631545E+03  0.00000000000E+00 0.  1.
          5    1    1    2  501    0 -0.21450817789E+02 -0.13735908132E+02 -0.29855615338E+03  0.29964076738E+03  0.00000000000E+00 0.  1.
         -5    1    1    2    0  502  0.21450817789E+02  0.13735908132E+02 -0.29679233695E+03  0.29788337320E+03  0.00000000000E+00 0. -1.
<mgrwt>
<rscale>  2 0.25471803E+02</rscale>
<asrwt>0</asrwt>
<pdfrwt beam="1">  1       21 0.16735718E-03 0.25471803E+02</pdfrwt>
<pdfrwt beam="2">  1       21 0.91759727E-01 0.25471803E+02</pdfrwt>
<totfact> 0.46842949E+07</totfact>
</mgrwt>
</event>
<event>
 4    1  0.3862688E+004  0.2653101E+02  0.7546771E-02  0.1639938E+00
         21   -1    0    0  503  502  0.00000000000E+00  0.00000000000E+00  0.36620242619E+02  0.36620242619E+02  0.00000000000E+00 0.  1.
         21   -1    0    0  501  503 -0.00000000000E+00 -0.00000000000E+00 -0.20844730443E+02  0.20844730443E+02  0.00000000000E+00 0.  1.
          2    1    1    2  501    0  0.21447008262E+02 -0.15617948321E+02  0.15905842150E+02  0.30933643297E+02  0.00000000000E+00 0.  1.
         -2    1    1    2    0  502 -0.21447008262E+02  0.15617948321E+02 -0.13032997382E+00  0.26531329764E+02  0.00000000000E+00 0. -1.
<mgrwt>
<rscale>  2 0.26531010E+02</rscale>
<asrwt>0</asrwt>
<pdfrwt beam="1">  1       21 0.56338835E-02 0.26531010E+02</pdfrwt>
<pdfrwt beam="2">  1       21 0.32068816E-02 0.26531010E+02</pdfrwt>
<totfact> 0.88718382E+07</totfact>
</mgrwt>
</event>
<event>
 4    1  0.3862688E+004  0.2500185E+02  0.7546771E-02  0.1660975E+00
         21   -1    0    0  501  502  0.00000000000E+00  0.00000000000E+00  0.84623431674E+00  0.84623431674E+00  0.00000000000E+00 0. -1.
         21   -1    0    0  502  503 -0.00000000000E+00 -0.00000000000E+00 -0.11802051083E+04  0.11802051083E+04  0.00000000000E+00 0. -1.
          1    1    1    2  501    0 -0.22659457726E+01 -0.24898951399E+02 -0.95087308780E+03  0.95120172486E+03  0.00000000000E+00 0. -1.
         -1    1    1    2    0  503  0.22659457726E+01  0.24898951399E+02 -0.22848578614E+03  0.22984961771E+03  0.00000000000E+00 0.  1.
<mgrwt>
<rscale>  2 0.25001846E+02</rscale>
<asrwt>0</asrwt>
<pdfrwt beam="1">  1       21 0.13019004E-03 0.25001846E+02</pdfrwt>
<pdfrwt beam="2">  1       21 0.18156981E+00 0.25001846E+02</pdfrwt>
<totfact> 0.13783439E+07</totfact>
</mgrwt>
</event>
<event>
 4    1  0.3862688E+004  0.4398258E+02  0.7546771E-02  0.1480795E+00
         21   -1    0    0  503  502  0.00000000000E+00  0.00000000000E+00  0.45433183005E+02  0.45433183005E+02  0.00000000000E+00 0. -1.
         21   -1    0    0  501  503 -0.00000000000E+00 -0.00000000000E+00 -0.45547245645E+02  0.45547245645E+02  0.00000000000E+00 0. -1.
          3    1    1    2  501    0 -0.27055228207E+02 -0.34676823435E+02  0.11557145444E+02  0.45475653571E+02  0.00000000000E+00 0. -1.
         -3    1    1    2    0  502  0.27055228207E+02  0.34676823435E+02 -0.11671208085E+02  0.45504775079E+02  0.00000000000E+00 0.  1.
<mgrwt>
<rscale>  2 0.43982581E+02</rscale>
<asrwt>0</asrwt>
<pdfrwt beam="1">  1       21 0.69897205E-02 0.43982581E+02</pdfrwt>
<pdfrwt beam="2">  1       21 0.70072685E-02 0.43982581E+02</pdfrwt>
<totfact> 0.19603583E+07</totfact>
</mgrwt>
</event>
<event>
 4    1  0.3862688E+004  0.2254081E+02  0.7546771E-02  0.1699063E+00
         21   -1    0    0  501  502  0.00000000000E+00  0.00000000000E+00  0.13690865453E+01  0.13690865453E+01  0.00000000000E+00 0.  1.
         21   -1    0    0  502  503 -0.00000000000E+00 -0.00000000000E+00 -0.40767267872E+03  0.40767267872E+03  0.00000000000E+00 0.  1.
          2    1    1    2  501    0 -0.13670216663E+02  0.17922419219E+02 -0.14190634380E+03  0.14368541451E+03  0.00000000000E+00 0. -1.
         -2    1    1    2    0  503  0.13670216663E+02 -0.17922419219E+02 -0.26439724838E+03  0.26535635075E+03  0.00000000000E+00 0.  1.
<mgrwt>
<rscale>  2 0.22540806E+02</rscale>
<asrwt>0</asrwt>
<pdfrwt beam="1">  1       21 0.21062857E-03 0.22540806E+02</pdfrwt>
<pdfrwt beam="2">  1       21 0.62718913E-01 0.22540806E+02</pdfrwt>
<totfact> 0.72233726E+07</totfact>
</mgrwt>
</event>
<event>
 4    1  0.3862688E+004  0.2234106E+02  0.7546771E-02  0.1702419E+00
         21   -1    0    0  503  502  0.00000000000E+00  0.00000000000E+00  0.98458308651E+02  0.98458308651E+02  0.00000000000E+00 0.  1.
         21   -1    0    0  501  503 -0.00000000000E+00 -0.00000000000E+00 -0.50694967952E+01  0.50694967952E+01  0.00000000000E+00 0.  1.
          3    1    1    2  501    0 -0.17412072681E+02  0.13997949549E+02  0.46449053721E+02  0.51542579080E+02  0.00000000000E+00 0.  1.
         -3    1    1    2    0  502  0.17412072681E+02 -0.13997949549E+02  0.46939758135E+02  0.51985226367E+02  0.00000000000E+00 0. -1.
<mgrwt>
<rscale>  2 0.22341058E+02</rscale>
<asrwt>0</asrwt>
<pdfrwt beam="1">  1       21 0.15147431E-01 0.22341058E+02</pdfrwt>
<pdfrwt beam="2">  1       21 0.77992266E-03 0.22341058E+02</pdfrwt>
<totfact> 0.14303504E+08</totfact>
</mgrwt>
</event>
<event>
 4    1  0.3862688E+004  0.2012252E+02  0.7546771E-02  0.1742902E+00
         21   -1    0    0  503  502  0.00000000000E+00  0.00000000000E+00  0.48376553396E+01  0.48376553396E+01  0.00000000000E+00 0. -1.
         21   -1    0    0  501  503 -0.00000000000E+00 -0.00000000000E+00 -0.10243249162E+03  0.10243249162E+03  0.00000000000E+00 0. -1.
          3    1    1    2  501    0  0.15884941682E+02  0.12352513953E+02 -0.71733417593E+02  0.74502343405E+02  0.00000000000E+00 0.  1.
         -3    1    1    2    0  502 -0.15884941682E+02 -0.12352513953E+02 -0.25861418682E+02  0.32767803550E+02  0.00000000000E+00 0. -1.
<mgrwt>
<rscale>  2 0.20122524E+02</rscale>
<asrwt>0</asrwt>
<pdfrwt beam="1">  1       21 0.74425461E-03 0.20122524E+02</pdfrwt>
<pdfrwt beam="2">  1       21 0.15758846E-01 0.20122524E+02</pdfrwt>
<totfact> 0.13895200E+08</totfact>
</mgrwt>
</event>
<event>
 4    1  0.3862688E+004  0.3097101E+02  0.7546771E-02  0.1587597E+00
         21   -1    0    0  503  502  0.00000000000E+00  0.00000000000E+00  0.13716980354E+01  0.13716980354E+01  0.00000000000E+00 0.  1.
         21   -1    0    0  501  503 -0.00000000000E+00 -0.00000000000E+00 -0.72626767402E+03  0.72626767402E+03  0.00000000000E+00 0.  1.
          1    1    1    2  501    0  0.86383142839E+01  0.29741943569E+02 -0.29231782443E+03  0.29395393204E+03  0.00000000000E+00 0. -1.
         -1    1    1    2    0  502 -0.86383142839E+01 -0.29741943569E+02 -0.43257815156E+03  0.43368544002E+03  0.00000000000E+00 0.  1.
<mgrwt>
<rscale>  2 0.30971014E+02</rscale>
<asrwt>0</asrwt>
<pdfrwt beam="1">  1       21 0.21103063E-03 0.30971014E+02</pdfrwt>
<pdfrwt beam="2">  1       21 0.11173340E+00 0.30971014E+02</pdfrwt>
<totfact> 0.22409052E+07</totfact>
</mgrwt>
</event>
<event>
 4    1  0.3862688E+004  0.2599032E+02  0.7546771E-02  0.1647172E+00
         21   -1    0    0  503  502  0.00000000000E+00  0.00000000000E+00  0.44810855288E+02  0.44810855288E+02  0.00000000000E+00 0.  1.
         21   -1    0    0  501  503 -0.00000000000E+00 -0.00000000000E+00 -0.24793901394E+02  0.24793901394E+02  0.00000000000E+00 0.  1.
          4    1    1    2  501    0  0.25970031873E+02  0.10268184225E+01  0.31798535901E+02  0.41068769120E+02  0.00000000000E+00 0. -1.
         -4    1    1    2    0  502 -0.25970031873E+02 -0.10268184225E+01 -0.11781582006E+02  0.28535987562E+02  0.00000000000E+00 0.  1.
<mgrwt>
<rscale>  2 0.25990323E+02</rscale>
<asrwt>0</asrwt>
<pdfrwt beam="1">  1       21 0.68939777E-02 0.25990323E+02</pdfrwt>
<pdfrwt beam="2">  1       21 0.38144464E-02 0.25990323E+02</pdfrwt>
<totfact> 0.48450698E+07</totfact>
</mgrwt>
</event>
<event>
 4    1  0.3862688E+004  0.2660217E+02  0.7546771E-02  0.1639001E+00
         21   -1    0    0  503  502  0.00000000000E+00  0.00000000000E+00  0.16365960599E+03  0.16365960599E+03  0.00000000000E+00 0. -1.
         21   -1    0    0  501  503 -0.00000000000E+00 -0.00000000000E+00 -0.10806534601E+02  0.10806534601E+02  0.00000000000E+00 0. -1.
          2    1    1    2  501    0  0.21282326921E+02  0.15960513352E+02  0.14398939879E+03  0.14642616703E+03  0.00000000000E+00 0. -1.
         -2    1    1    2    0  502 -0.21282326921E+02 -0.15960513352E+02  0.88636725976E+01  0.28039973566E+02  0.00000000000E+00 0.  1.
<mgrwt>
<rscale>  2 0.26602170E+02</rscale>
<asrwt>0</asrwt>
<pdfrwt beam="1">  1       21 0.25178399E-01 0.26602170E+02</pdfrwt>
<pdfrwt beam="2">  1       21 0.16625439E-02 0.26602170E+02</pdfrwt>
<totfact> 0.19583237E+07</totfact>
</mgrwt>
</event>
<event>
 4    1  0.3862688E+004  0.9034786E+02  0.7546771E-02  0.1302011E+00
         21   -1    0    0  501  502  0.00000000000E+00  0.00000000000E+00  0.42591350609E+03  0.42591350609E+03  0.00000000000E+00 0. -1.
         21   -1    0    0  502  503 -0.00000000000E+00 -0.00000000000E+00 -0.19177040978E+02  0.19177040978E+02  0.00000000000E+00 0. -1.
          5    1    1    2  501    0 -0.17471261812E+02 -0.88642483744E+02  0.20888864398E+03  0.22758998329E+03  0.00000000000E+00 0.  1.
         -5    1    1    2    0  503  0.17471261812E+02  0.88642483744E+02  0.19784782114E+03  0.21750056378E+03  0.00000000000E+00 0. -1.
<mgrwt>
<rscale>  2 0.90347855E+02</rscale>
<asrwt>0</asrwt>
<pdfrwt beam="1">  1       21 0.65525147E-01 0.90347855E+02</pdfrwt>
<pdfrwt beam="2">  1       21 0.29503143E-02 0.90347855E+02</pdfrwt>
<totfact> 0.13848764E+06</totfact>
</mgrwt>
</event>
<event>
 4    1  0.3862688E+004  0.2012286E+02  0.7546771E-02  0.1742896E+00
         21   -1    0    0  503  502  0.00000000000E+00  0.00000000000E+00  0.16462311978E+02  0.16462311978E+02  0.00000000000E+00 0. -1.
         21   -1    0    0  501  503 -0.00000000000E+00 -0.00000000000E+00 -0.27504608739E+02  0.27504608739E+02  0.00000000000E+00 0. -1.
          4    1    1    2  501    0 -0.14163250646E+02 -0.14294463121E+02 -0.12668328533E+02  0.23778475405E+02  0.00000000000E+00 0.  1.
         -4    1    1    2    0  502  0.14163250646E+02  0.14294463121E+02  0.16260317721E+01  0.20188445312E+02  0.00000000000E+00 0. -1.
<mgrwt>
<rscale>  2 0.20122856E+02</rscale>
<asrwt>0</asrwt>
<pdfrwt beam="1">  1       21 0.25326634E-02 0.20122856E+02</pdfrwt>
<pdfrwt beam="2">  1       21 0.42314782E-02 0.20122856E+02</pdfrwt>
<totfact> 0.18614192E+08</totfact>
</mgrwt>
</event>
<event>
 4    1  0.3862688E+004  0.2593012E+02  0.7546771E-02  0.1647991E+00
         21   -1    0    0  503  502  0.00000000000E+00  0.00000000000E+00  0.10677938299E+01  0.10677938299E+01  0.00000000000E+00 0.  1.
         21   -1    0    0  501  503 -0.00000000000E+00 -0.00000000000E+00 -0.64325543883E+03  0.64325543883E+03  0.00000000000E+00 0.  1.
          4    1    1    2  501    0 -0.24412336011E+02 -0.87412223643E+01 -0.36789088188E+03  0.36880356843E+03  0.00000000000E+00 0. -1.
         -4    1    1    2    0  502  0.24412336011E+02  0.87412223643E+01 -0.27429676312E+03  0.27551966422E+03  0.00000000000E+00 0.  1.
<mgrwt>
<rscale>  2 0.25930120E+02</rscale>
<asrwt>0</asrwt>
<pdfrwt beam="1">  1       21 0.16427531E-03 0.25930120E+02</pdfrwt>
<pdfrwt beam="2">  1       21 0.98962777E-01 0.25930120E+02</pdfrwt>
<totfact> 0.40966508E+07</totfact>
</mgrwt>
</event>
<event>
 4    1  0.3862688E+004  0.2312553E+02  0.7546771E-02  0.1689483E+00
         21   -1    0    0  503  502  0.00000000000E+00  0.00000000000E+00  0.13096257496E+01  0.13096257496E+01  0.00000000000E+00 0. -1.
         21   -1    0    0  501  503 -0.00000000000E+00 -0.00000000000E+00 -0.61663204400E+03  0.61663204400E+03  0.00000000000E+00 0. -1.
          4    1    1    2  501    0  0.22864142345E+02 -0.34671229767E+01 -0.12809403168E+03  0.13016478364E+03  0.00000000000E+00 0. -1.
         -4    1    1    2    0  502 -0.22864142345E+02  0.34671229767E+01 -0.48722838657E+03  0.48777688611E+03  0.00000000000E+00 0.  1.
<mgrwt>
<rscale>  2 0.23125526E+02</rscale>
<asrwt>0</asrwt>
<pdfrwt beam="1">  1       21 0.20148016E-03 0.23125526E+02</pdfrwt>
<pdfrwt beam="2">  1       21 0.94866811E-01 0.23125526E+02</pdfrwt>
<totfact> 0.32691080E+07</totfact>
</mgrwt>
</event>
<event>
 4    1  0.3862688E+004  0.2007515E+02  0.7546771E-02  0.1743838E+00
         21   -1    0    0  501  502  0.00000000000E+00  0.00000000000E+00  0.41876820224E+00  0.41876820224E+00  0.00000000000E+00 0.  1.
         21   -1    0    0  502  503 -0.00000000000E+00 -0.00000000000E+00 -0.17468936298E+04  0.17468936298E+04  0.00000000000E+00 0.  1.
          1    1    1    2  501    0 -0.35372800061E+01  0.19761053370E+02 -0.14587136672E+04  0.14588518001E+04  0.00000000000E+00 0. -1.
         -1    1    1    2    0  503  0.35372800061E+01 -0.19761053370E+02 -0.28776119433E+03  0.28846059791E+03  0.00000000000E+00 0.  1.
<mgrwt>
<rscale>  2 0.20075148E+02</rscale>
<asrwt>0</asrwt>
<pdfrwt beam="1">  1       21 0.64425012E-04 0.20075148E+02</pdfrwt>
<pdfrwt beam="2">  1       21 0.26875648E+00 0.20075148E+02</pdfrwt>
<totfact> 0.12705496E+07</totfact>
</mgrwt>
</event>
<event>
 4    1  0.3862688E+004  0.2722282E+02  0.7546771E-02  0.1630985E+00
         21   -1    0    0  503  502  0.00000000000E+00  0.00000000000E+00  0.88855327523E+02  0.88855327523E+02  0.00000000000E+00 0. -1.
         21   -1    0    0  501  503 -0.00000000000E+00 -0.00000000000E+00 -0.17788549197E+02  0.17788549197E+02  0.00000000000E+00 0. -1.
          2    1    1    2  501    0 -0.19851872575E+02 -0.18627533187E+02 -0.33273342611E+01  0.27425407757E+02  0.00000000000E+00 0.  1.
         -2    1    1    2    0  502  0.19851872575E+02  0.18627533187E+02  0.74394112587E+02  0.79218468964E+02  0.00000000000E+00 0. -1.
<mgrwt>
<rscale>  2 0.27222818E+02</rscale>
<asrwt>0</asrwt>
<pdfrwt beam="1">  1       21 0.13670050E-01 0.27222818E+02</pdfrwt>
<pdfrwt beam="2">  1       21 0.27366999E-02 0.27222818E+02</pdfrwt>
<totfact> 0.26436362E+07</totfact>
</mgrwt>
</event>
<event>
 4    1  0.3862688E+004  0.2592173E+02  0.7546771E-02  0.1648105E+00
         21   -1    0    0  503  502  0.00000000000E+00  0.00000000000E+00  0.11494895808E+03  0.11494895808E+03  0.00000000000E+00 0.  1.
         21   -1    0    0  501  503 -0.00000000000E+00 -0.00000000000E+00 -0.58455358373E+01  0.58455358373E+01  0.00000000000E+00 0.  1.
          5    1    1    2  501    0 -0.20303542399E+02  0.16115287793E+02  0.54653787972E+02  0.60489444321E+02  0.00000000000E+00 0. -1.
         -5    1    1    2    0  502  0.20303542399E+02 -0.16115287793E+02  0.54449634269E+02  0.60305049595E+02  0.00000000000E+00 0.  1.
<mgrwt>
<rscale>  2 0.25921735E+02</rscale>
<asrwt>0</asrwt>
<pdfrwt beam="1">  1       21 0.17684453E-01 0.25921735E+02</pdfrwt>
<pdfrwt beam="2">  1       21 0.89931329E-03 0.25921735E+02</pdfrwt>
<totfact> 0.92274349E+07</totfact>
</mgrwt>
</event>
<event>
 4    1  0.3862688E+004  0.2745506E+02  0.7546771E-02  0.1628053E+00
         21   -1    0    0  501  502  0.00000000000E+00  0.00000000000E+00  0.12919043213E+01  0.12919043213E+01  0.00000000000E+00 0. -1.
         21   -1    0    0  502  503 -0.00000000000E+00 -0.00000000000E+00 -0.58973955414E+03  0.58973955414E+03  0.00000000000E+00 0. -1.
          1    1    1    2  501    0  0.17563844960E+02 -0.21101929303E+02 -0.26374027031E+03  0.26516543940E+03  0.00000000000E+00 0.  1.
         -1    1    1    2    0  503 -0.17563844960E+02  0.21101929303E+02 -0.32470737952E+03  0.32586601907E+03  0.00000000000E+00 0. -1.
<mgrwt>
<rscale>  2 0.27455055E+02</rscale>
<asrwt>0</asrwt>
<pdfrwt beam="1">  1       21 0.19875472E-03 0.27455055E+02</pdfrwt>
<pdfrwt beam="2">  1       21 0.90729067E-01 0.27455055E+02</pdfrwt>
<totfact> 0.37982546E+07</totfact>
</mgrwt>
</event>
<event>
 4    1  0.3862688E+004  0.2693632E+02  0.7546771E-02  0.1634652E+00
         21   -1    0    0  501  502  0.00000000000E+00  0.00000000000E+00  0.18632677844E+03  0.18632677844E+03  0.00000000000E+00 0.  1.
         21   -1    0    0  502  503 -0.00000000000E+00 -0.00000000000E+00 -0.53798742688E+01  0.53798742688E+01  0.00000000000E+00 0.  1.
          1    1    1    2  501    0  0.16280397140E+02  0.21459591933E+02  0.40099602246E+02  0.48306764715E+02  0.00000000000E+00 0.  1.
         -1    1    1    2    0  503 -0.16280397140E+02 -0.21459591933E+02  0.14084730193E+03  0.14339988799E+03  0.00000000000E+00 0. -1.
<mgrwt>
<rscale>  2 0.26936322E+02</rscale>
<asrwt>0</asrwt>
<pdfrwt beam="1">  1       21 0.28665653E-01 0.26936322E+02</pdfrwt>
<pdfrwt beam="2">  1       21 0.82767311E-03 0.26936322E+02</pdfrwt>
<totfact> 0.44739520E+07</totfact>
</mgrwt>
</event>
<event>
 4    1  0.3862688E+004  0.2541929E+02  0.7546771E-02  0.1655052E+00
         21   -1    0    0  501  502  0.00000000000E+00  0.00000000000E+00  0.55926297283E+03  0.55926297283E+03  0.00000000000E+00 0. -1.
         21   -1    0    0  502  503 -0.00000000000E+00 -0.00000000000E+00 -0.11651414182E+01  0.11651414182E+01  0.00000000000E+00 0. -1.
          2    1    1    2  501    0  0.18452297045E+02 -0.17482936671E+02  0.25335162725E+03  0.25462361904E+03  0.00000000000E+00 0. -1.
         -2    1    1    2    0  503 -0.18452297045E+02  0.17482936671E+02  0.30474620417E+03  0.30580449522E+03  0.00000000000E+00 0.  1.
<mgrwt>
<rscale>  2 0.25419291E+02</rscale>
<asrwt>0</asrwt>
<pdfrwt beam="1">  1       21 0.86040243E-01 0.25419291E+02</pdfrwt>
<pdfrwt beam="2">  1       21 0.17925297E-03 0.25419291E+02</pdfrwt>
<totfact> 0.48684632E+07</totfact>
</mgrwt>
</event>
<event>
 4    1  0.3862688E+004  0.2915118E+02  0.7546771E-02  0.1607665E+00
         21   -1    0    0  503  502  0.00000000000E+00  0.00000000000E+00  0.92360261465E+02  0.92360261465E+02  0.00000000000E+00 0.  1.
         21   -1    0    0  501  503 -0.00000000000E+00 -0.00000000000E+00 -0.12115555910E+02  0.12115555910E+02  0.00000000000E+00 0.  1.
          4    1    1    2  501    0 -0.27963142141E+02 -0.82373421512E+01  0.14500358988E+02  0.32558432624E+02  0.00000000000E+00 0. -1.
         -4    1    1    2    0  502  0.27963142141E+02  0.82373421512E+01  0.65744346566E+02  0.71917384752E+02  0.00000000000E+00 0.  1.
<mgrwt>
<rscale>  2 0.29151177E+02</rscale>
<asrwt>0</asrwt>
<pdfrwt beam="1">  1       21 0.14209271E-01 0.29151177E+02</pdfrwt>
<pdfrwt beam="2">  1       21 0.18639317E-02 0.29151177E+02</pdfrwt>
<totfact> 0.45595375E+07</totfact>
</mgrwt>
</event>
<event>
 4    1  0.3862688E+004  0.2460145E+02  0.7546771E-02  0.1666793E+00
         21   -1    0    0  503  502  0.00000000000E+00  0.00000000000E+00  0.14972618391E+03  0.14972618391E+03  0.00000000000E+00 0. -1.
         21   -1    0    0  501  503 -0.00000000000E+00 -0.00000000000E+00 -0.43498460468E+01  0.43498460468E+01  0.00000000000E+00 0. -1.
          2    1    1    2  501    0 -0.24285290680E+02  0.39314081075E+01  0.93174088755E+02  0.96367225385E+02  0.00000000000E+00 0.  1.
         -2    1    1    2    0  502  0.24285290680E+02 -0.39314081075E+01  0.52202249108E+02  0.57708804571E+02  0.00000000000E+00 0. -1.
<mgrwt>
<rscale>  2 0.24601449E+02</rscale>
<asrwt>0</asrwt>
<pdfrwt beam="1">  1       21 0.23034794E-01 0.24601449E+02</pdfrwt>
<pdfrwt beam="2">  1       21 0.66920720E-03 0.24601449E+02</pdfrwt>
<totfact> 0.89150328E+07</totfact>
</mgrwt>
</event>
<event>
 4    1  0.3862688E+004  0.2338771E+02  0.7546771E-02  0.1685301E+00
         21   -1    0    0  503  502  0.00000000000E+00  0.00000000000E+00  0.25441713219E+03  0.25441713219E+03  0.00000000000E+00 0. -1.
         21   -1    0    0  501  503 -0.00000000000E+00 -0.00000000000E+00 -0.22197007195E+01  0.22197007195E+01  0.00000000000E+00 0. -1.
          3    1    1    2  501    0 -0.16932654613E+02  0.16132896909E+02  0.10335280240E+03  0.10596597057E+03  0.00000000000E+00 0.  1.
         -3    1    1    2    0  502  0.16932654613E+02 -0.16132896909E+02  0.14884462908E+03  0.15067086235E+03  0.00000000000E+00 0. -1.
<mgrwt>
<rscale>  2 0.23387714E+02</rscale>
<asrwt>0</asrwt>
<pdfrwt beam="1">  1       21 0.39141074E-01 0.23387714E+02</pdfrwt>
<pdfrwt beam="2">  1       21 0.34149262E-03 0.23387714E+02</pdfrwt>
<totfact> 0.90276045E+07</totfact>
</mgrwt>
</event>
<event>
 4    1  0.3862688E+004  0.3318844E+02  0.7546771E-02  0.1565302E+00
         21   -1    0    0  501  502  0.00000000000E+00  0.00000000000E+00  0.16639554383E+02  0.16639554383E+02  0.00000000000E+00 0.  1.
         21   -1    0    0  502  503 -0.00000000000E+00 -0.00000000000E+00 -0.66196044261E+02  0.66196044261E+02  0.00000000000E+00 0.  1.
          4    1    1    2  501    0 -0.18799080913E+02 -0.27350816299E+02 -0.24789613080E+02  0.41424600324E+02  0.00000000000E+00 0. -1.
         -4    1    1    2    0  503  0.18799080913E+02  0.27350816299E+02 -0.24766876798E+02  0.41410998319E+02  0.00000000000E+00 0.  1.
<mgrwt>
<rscale>  2 0.33188441E+02</rscale>
<asrwt>0</asrwt>
<pdfrwt beam="1">  1       21 0.25599314E-02 0.33188441E+02</pdfrwt>
<pdfrwt beam="2">  1       21 0.10184007E-01 0.33188441E+02</pdfrwt>
<totfact> 0.50320770E+07</totfact>
</mgrwt>
</event>
<event>
 4    1  0.3862688E+004  0.2306952E+02  0.7546771E-02  0.1690386E+00
         21   -1    0    0  501  502  0.00000000000E+00  0.00000000000E+00  0.16575218238E+01  0.16575218238E+01  0.00000000000E+00 0. -1.
         21   -1    0    0  502  503 -0.00000000000E+00 -0.00000000000E+00 -0.34964617420E+03  0.34964617420E+03  0.00000000000E+00 0. -1.
          3    1    1    2  501    0 -0.22642526322E+02  0.44180193632E+01 -0.22419827008E+03  0.22538204720E+03  0.00000000000E+00 0.  1.
         -3    1    1    2    0  503  0.22642526322E+02 -0.44180193632E+01 -0.12379038229E+03  0.12592164882E+03  0.00000000000E+00 0. -1.
<mgrwt>
<rscale>  2 0.23069523E+02</rscale>
<asrwt>0</asrwt>
<pdfrwt beam="1">  1       21 0.25500341E-03 0.23069523E+02</pdfrwt>
<pdfrwt beam="2">  1       21 0.53791708E-01 0.23069523E+02</pdfrwt>
<totfact> 0.74739226E+07</totfact>
</mgrwt>
</event>
<event>
 4    1  0.3862688E+004  0.6388101E+02  0.7546771E-02  0.1382231E+00
         21   -1    0    0  503  502  0.00000000000E+00  0.00000000000E+00  0.58465196520E+01  0.58465196520E+01  0.00000000000E+00 0. -1.
         21   -1    0    0  501  503 -0.00000000000E+00 -0.00000000000E+00 -0.72195350957E+03  0.72195350957E+03  0.00000000000E+00 0. -1.
          5    1    1    2  501    0  0.62773414471E+02  0.11844052186E+02 -0.29174826434E+03  0.29866006241E+03  0.00000000000E+00 0.  1.
         -5    1    1    2    0  502 -0.62773414471E+02 -0.11844052186E+02 -0.42435872558E+03  0.42913996681E+03  0.00000000000E+00 0. -1.
<mgrwt>
<rscale>  2 0.63881008E+02</rscale>
<asrwt>0</asrwt>
<pdfrwt beam="1">  1       21 0.89946515E-03 0.63881008E+02</pdfrwt>
<pdfrwt beam="2">  1       21 0.11106970E+00 0.63881008E+02</pdfrwt>
<totfact> 0.27659693E+06</totfact>
</mgrwt>
</event>
<event>
 4    1  0.3862688E+004  0.2451888E+02  0.7546771E-02  0.1668010E+00
         21   -1    0    0  503  502  0.00000000000E+00  0.00000000000E+00  0.42651967091E+03  0.42651967091E+03  0.00000000000E+00 0. -1.
         21   -1    0    0  501  503 -0.00000000000E+00 -0.00000000000E+00 -0.21194924800E+01  0.21194924800E+01  0.00000000000E+00 0. -1.
          2    1    1    2  501    0 -0.24475809159E+02 -0.14527117331E+01  0.33624403227E+03  0.33713680434E+03  0.00000000000E+00 0.  1.
         -2    1    1    2    0  502  0.24475809159E+02  0.14527117331E+01  0.88156146159E+02  0.91502359046E+02  0.00000000000E+00 0. -1.
<mgrwt>
<rscale>  2 0.24518883E+02</rscale>
<asrwt>0</asrwt>
<pdfrwt beam="1">  1       21 0.65618342E-01 0.24518883E+02</pdfrwt>
<pdfrwt beam="2">  1       21 0.32607611E-03 0.24518883E+02</pdfrwt>
<totfact> 0.35602360E+07</totfact>
</mgrwt>
</event>
<event>
 4    1  0.3862688E+004  0.4185978E+02  0.7546771E-02  0.1494955E+00
         21   -1    0    0  501  502  0.00000000000E+00  0.00000000000E+00  0.14445944574E+03  0.14445944574E+03  0.00000000000E+00 0. -1.
         21   -1    0    0  502  503 -0.00000000000E+00 -0.00000000000E+00 -0.12150187020E+02  0.12150187020E+02  0.00000000000E+00 0. -1.
          1    1    1    2  501    0 -0.49733930540E+01 -0.41563279104E+02  0.69374887260E+02  0.81025402132E+02  0.00000000000E+00 0.  1.
         -1    1    1    2    0  503  0.49733930540E+01  0.41563279104E+02  0.62934371460E+02  0.75584230627E+02  0.00000000000E+00 0. -1.
<mgrwt>
<rscale>  2 0.41859776E+02</rscale>
<asrwt>0</asrwt>
<pdfrwt beam="1">  1       21 0.22224529E-01 0.41859776E+02</pdfrwt>
<pdfrwt beam="2">  1       21 0.18692596E-02 0.41859776E+02</pdfrwt>
<totfact> 0.22128663E+07</totfact>
</mgrwt>
</event>
<event>
 4    1  0.3862688E+004  0.4046247E+02  0.7546771E-02  0.1504835E+00
         21   -1    0    0  503  502  0.00000000000E+00  0.00000000000E+00  0.27420829350E+03  0.27420829350E+03  0.00000000000E+00 0. -1.
         21   -1    0    0  501  503 -0.00000000000E+00 -0.00000000000E+00 -0.63050521306E+01  0.63050521306E+01  0.00000000000E+00 0. -1.
          3    1    1    2  501    0  0.25238238098E+02  0.31626620357E+02  0.10165255528E+03  0.10940956893E+03  0.00000000000E+00 0.  1.
         -3    1    1    2    0  502 -0.25238238098E+02 -0.31626620357E+02  0.16625068608E+03  0.17110377670E+03  0.00000000000E+00 0. -1.
<mgrwt>
<rscale>  2 0.40462474E+02</rscale>
<asrwt>0</asrwt>
<pdfrwt beam="1">  1       21 0.42185882E-01 0.40462474E+02</pdfrwt>
<pdfrwt beam="2">  1       21 0.97000823E-03 0.40462474E+02</pdfrwt>
<totfact> 0.18318156E+07</totfact>
</mgrwt>
</event>
<event>
 4    1  0.3862688E+004  0.2404488E+02  0.7546771E-02  0.1675112E+00
         21   -1    0    0  501  502  0.00000000000E+00  0.00000000000E+00  0.50130834588E+02  0.50130834588E+02  0.00000000000E+00 0. -1.
         21   -1    0    0  502  503 -0.00000000000E+00 -0.00000000000E+00 -0.13989152309E+02  0.13989152309E+02  0.00000000000E+00 0. -1.
          3    1    1    2  501    0  0.22758241930E+02  0.77600708405E+01  0.31504676863E+02  0.39632069583E+02  0.00000000000E+00 0. -1.
         -3    1    1    2    0  503 -0.22758241930E+02 -0.77600708405E+01  0.46370054154E+01  0.24487917314E+02  0.00000000000E+00 0.  1.
<mgrwt>
<rscale>  2 0.24044880E+02</rscale>
<asrwt>0</asrwt>
<pdfrwt beam="1">  1       21 0.77124360E-02 0.24044880E+02</pdfrwt>
<pdfrwt beam="2">  1       21 0.21521773E-02 0.24044880E+02</pdfrwt>
<totfact> 0.96609618E+07</totfact>
</mgrwt>
</event>
<event>
 4    1  0.3862688E+004  0.2830776E+02  0.7546771E-02  0.1617584E+00
         21   -1    0    0  503  502  0.00000000000E+00  0.00000000000E+00  0.36901979175E+02  0.36901979175E+02  0.00000000000E+00 0.  1.
         21   -1    0    0  501  503 -0.00000000000E+00 -0.00000000000E+00 -0.22394970144E+02  0.22394970144E+02  0.00000000000E+00 0.  1.
          4    1    1    2  501    0  0.27574557599E+02 -0.64010192182E+01  0.12419426404E+02  0.30912318354E+02  0.00000000000E+00 0.  1.
         -4    1    1    2    0  502 -0.27574557599E+02  0.64010192182E+01  0.20875826265E+01  0.28384630965E+02  0.00000000000E+00 0. -1.
<mgrwt>
<rscale>  2 0.28307760E+02</rscale>
<asrwt>0</asrwt>
<pdfrwt beam="1">  1       21 0.56772276E-02 0.28307760E+02</pdfrwt>
<pdfrwt beam="2">  1       21 0.34453800E-02 0.28307760E+02</pdfrwt>
<totfact> 0.79578536E+07</totfact>
</mgrwt>
</event>
<event>
 4    1  0.3862688E+004  0.2455767E+02  0.7546771E-02  0.1667438E+00
         21   -1    0    0  501  502  0.00000000000E+00  0.00000000000E+00  0.47045446042E+01  0.47045446042E+01  0.00000000000E+00 0. -1.
         21   -1    0    0  502  503 -0.00000000000E+00 -0.00000000000E+00 -0.14594715111E+03  0.14594715111E+03  0.00000000000E+00 0. -1.
          5    1    1    2  501    0 -0.16181872110E+02 -0.18472305592E+02 -0.44347448097E+02  0.50692950314E+02  0.00000000000E+00 0. -1.
         -5    1    1    2    0  503  0.16181872110E+02  0.18472305592E+02 -0.96895158410E+02  0.99958745401E+02  0.00000000000E+00 0.  1.
<mgrwt>
<rscale>  2 0.24557668E+02</rscale>
<asrwt>0</asrwt>
<pdfrwt beam="1">  1       21 0.72377616E-03 0.24557668E+02</pdfrwt>
<pdfrwt beam="2">  1       21 0.22453406E-01 0.24557668E+02</pdfrwt>
<totfact> 0.82955393E+07</totfact>
</mgrwt>
</event>
<event>
 4    1  0.3862688E+004  0.2157400E+02  0.7546771E-02  0.1715725E+00
         21   -1    0    0  503  502  0.00000000000E+00  0.00000000000E+00  0.35183122253E+03  0.35183122253E+03  0.00000000000E+00 0. -1.
         21   -1    0    0  501  503 -0.00000000000E+00 -0.00000000000E+00 -0.19252609724E+01  0.19252609724E+01  0.00000000000E+00 0. -1.
          2    1    1    2  501    0  0.94941619827E+01 -0.19372614796E+02  0.76016095143E+02  0.79018251288E+02  0.00000000000E+00 0. -1.
         -2    1    1    2    0  502 -0.94941619827E+01  0.19372614796E+02  0.27388986641E+03  0.27473823221E+03  0.00000000000E+00 0.  1.
<mgrwt>
<rscale>  2 0.21573996E+02</rscale>
<asrwt>0</asrwt>
<pdfrwt beam="1">  1       21 0.54127829E-01 0.21573996E+02</pdfrwt>
<pdfrwt beam="2">  1       21 0.29619428E-03 0.21573996E+02</pdfrwt>
<totfact> 0.58424122E+07</totfact>
</mgrwt>
</event>
<event>
 4    1  0.3862688E+004  0.2290551E+02  0.7546771E-02  0.1693046E+00
         21   -1    0    0  503  502  0.00000000000E+00  0.00000000000E+00  0.48652667011E+02  0.48652667011E+02  0.00000000000E+00 0. -1.
         21   -1    0    0  501  503 -0.00000000000E+00 -0.00000000000E+00 -0.19574181466E+02  0.19574181466E+02  0.00000000000E+00 0. -1.
          3    1    1    2  501    0  0.15105634202E+02  0.17218663023E+02 -0.83212928206E+01  0.24370196042E+02  0.00000000000E+00 0.  1.
         -3    1    1    2    0  502 -0.15105634202E+02 -0.17218663023E+02  0.37399778366E+02  0.43856652434E+02  0.00000000000E+00 0. -1.
<mgrwt>
<rscale>  2 0.22905513E+02</rscale>
<asrwt>0</asrwt>
<pdfrwt beam="1">  1       21 0.74850257E-02 0.22905513E+02</pdfrwt>
<pdfrwt beam="2">  1       21 0.30114125E-02 0.22905513E+02</pdfrwt>
<totfact> 0.59486292E+07</totfact>
</mgrwt>
</event>
<event>
 4    1  0.3862688E+004  0.2388086E+02  0.7546771E-02  0.1677617E+00
         21   -1    0    0  501  502  0.00000000000E+00  0.00000000000E+00  0.14670126688E+03  0.14670126688E+03  0.00000000000E+00 0. -1.
         21   -1    0    0  502  503 -0.00000000000E+00 -0.00000000000E+00 -0.41142989889E+01  0.41142989889E+01  0.00000000000E+00 0. -1.
          3    1    1    2  501    0 -0.13932693503E+02 -0.19395244730E+02  0.88999712208E+02  0.92147947560E+02  0.00000000000E+00 0.  1.
         -3    1    1    2    0  503  0.13932693503E+02  0.19395244730E+02  0.53587255682E+02  0.58667618308E+02  0.00000000000E+00 0. -1.
<mgrwt>
<rscale>  2 0.23880860E+02</rscale>
<asrwt>0</asrwt>
<pdfrwt beam="1">  1       21 0.22569422E-01 0.23880860E+02</pdfrwt>
<pdfrwt beam="2">  1       21 0.63296919E-03 0.23880860E+02</pdfrwt>
<totfact> 0.99621861E+07</totfact>
</mgrwt>
</event>
<event>
 4    1  0.3862688E+004  0.2898160E+02  0.7546771E-02  0.1609626E+00
         21   -1    0    0  501  502  0.00000000000E+00  0.00000000000E+00  0.32550228249E+02  0.32550228249E+02  0.00000000000E+00 0.  1.
         21   -1    0    0  502  503 -0.00000000000E+00 -0.00000000000E+00 -0.25804729114E+02  0.25804729114E+02  0.00000000000E+00 0.  1.
          2    1    1    2  501    0 -0.14130235473E+02  0.25303546480E+02  0.32422461285E+01  0.29162393231E+02  0.00000000000E+00 0. -1.
         -2    1    1    2    0  503  0.14130235473E+02 -0.25303546480E+02  0.35032530065E+01  0.29192564132E+02  0.00000000000E+00 0.  1.
<mgrwt>
<rscale>  2 0.28981598E+02</rscale>
<asrwt>0</asrwt>
<pdfrwt beam="1">  1       21 0.50077275E-02 0.28981598E+02</pdfrwt>
<pdfrwt beam="2">  1       21 0.39699583E-02 0.28981598E+02</pdfrwt>
<totfact> 0.78281440E+07</totfact>
</mgrwt>
</event>
<event>
 4    1  0.3862688E+004  0.3312470E+02  0.7546771E-02  0.1565913E+00
         21   -1    0    0  503  502  0.00000000000E+00  0.00000000000E+00  0.30559940735E+02  0.30559940735E+02  0.00000000000E+00 0. -1.
         21   -1    0    0  501  503 -0.00000000000E+00 -0.00000000000E+00 -0.51422683173E+02  0.51422683173E+02  0.00000000000E+00 0. -1.
          5    1    1    2  501    0 -0.11191994956E+02  0.31176676853E+02  0.12086736611E+02  0.35260957625E+02  0.00000000000E+00 0. -1.
         -5    1    1    2    0  502  0.11191994956E+02 -0.31176676853E+02 -0.32949479050E+02  0.46721666284E+02  0.00000000000E+00 0.  1.
<mgrwt>
<rscale>  2 0.33124703E+02</rscale>
<asrwt>0</asrwt>
<pdfrwt beam="1">  1       21 0.47015294E-02 0.33124703E+02</pdfrwt>
<pdfrwt beam="2">  1       21 0.79111820E-02 0.33124703E+02</pdfrwt>
<totfact> 0.29184813E+07</totfact>
</mgrwt>
</event>
<event>
 4    1  0.3862688E+004  0.2616903E+02  0.7546771E-02  0.1644757E+00
         21   -1    0    0  501  502  0.00000000000E+00  0.00000000000E+00  0.65974748548E+03  0.65974748548E+03  0.00000000000E+00 0.  1.
         21   -1    0    0  502  503 -0.00000000000E+00 -0.00000000000E+00 -0.16490467399E+01  0.16490467399E+01  0.00000000000E+00 0.  1.
          2    1    1    2  501    0 -0.12775208436E+02 -0.22838829488E+02  0.12774515340E+03  0.13039801494E+03  0.00000000000E+00 0.  1.
         -2    1    1    2    0  503  0.12775208436E+02  0.22838829488E+02  0.53035328535E+03  0.53099851729E+03  0.00000000000E+00 0. -1.
<mgrwt>
<rscale>  2 0.26169029E+02</rscale>
<asrwt>0</asrwt>
<pdfrwt beam="1">  1       21 0.10149940E+00 0.26169029E+02</pdfrwt>
<pdfrwt beam="2">  1       21 0.25370002E-03 0.26169029E+02</pdfrwt>
<totfact> 0.20662473E+07</totfact>
</mgrwt>
</event>
<event>
 4    1  0.3862688E+004  0.4606942E+02  0.7546771E-02  0.1467774E+00
         21   -1    0    0  503  502  0.00000000000E+00  0.00000000000E+00  0.25209405507E+02  0.25209405507E+02  0.00000000000E+00 0.  1.
         21   -1    0    0  501  503 -0.00000000000E+00 -0.00000000000E+00 -0.12559553899E+03  0.12559553899E+03  0.00000000000E+00 0.  1.
          3    1    1    2  501    0  0.73378440596E+01  0.45481283614E+02 -0.68993016721E+01  0.46583167327E+02  0.00000000000E+00 0.  1.
         -3    1    1    2    0  502 -0.73378440596E+01 -0.45481283614E+02 -0.93486831812E+02  0.10422177717E+03  0.00000000000E+00 0. -1.
<mgrwt>
<rscale>  2 0.46069416E+02</rscale>
<asrwt>0</asrwt>
<pdfrwt beam="1">  1       21 0.38783701E-02 0.46069416E+02</pdfrwt>
<pdfrwt beam="2">  1       21 0.19322390E-01 0.46069416E+02</pdfrwt>
<totfact> 0.90559395E+06</totfact>
</mgrwt>
</event>
<event>
 4    1  0.3862688E+004  0.2476518E+02  0.7546771E-02  0.1664398E+00
         21   -1    0    0  503  502  0.00000000000E+00  0.00000000000E+00  0.65070473971E+00  0.65070473971E+00  0.00000000000E+00 0. -1.
         21   -1    0    0  501  503 -0.00000000000E+00 -0.00000000000E+00 -0.95094799812E+03  0.95094799812E+03  0.00000000000E+00 0. -1.
          5    1    1    2  501    0 -0.20498574352E+02  0.13896859970E+02 -0.43040508283E+03  0.43111697901E+03  0.00000000000E+00 0.  1.
         -5    1    1    2    0  502  0.20498574352E+02 -0.13896859970E+02 -0.51989221055E+03  0.52048172385E+03  0.00000000000E+00 0. -1.
<mgrwt>
<rscale>  2 0.24765183E+02</rscale>
<asrwt>0</asrwt>
<pdfrwt beam="1">  1       21 0.10010816E-03 0.24765183E+02</pdfrwt>
<pdfrwt beam="2">  1       21 0.14630007E+00 0.24765183E+02</pdfrwt>
<totfact> 0.33915897E+07</totfact>
</mgrwt>
</event>
<event>
 4    1  0.3862688E+004  0.3033371E+02  0.7546771E-02  0.1594429E+00
         21   -1    0    0  501  502  0.00000000000E+00  0.00000000000E+00  0.35540810853E+01  0.35540810853E+01  0.00000000000E+00 0. -1.
         21   -1    0    0  502  503 -0.00000000000E+00 -0.00000000000E+00 -0.32714693479E+03  0.32714693479E+03  0.00000000000E+00 0. -1.
          5    1    1    2  501    0  0.19516576485E+02 -0.23221477643E+02 -0.23732158196E+03  0.23925230834E+03  0.00000000000E+00 0. -1.
         -5    1    1    2    0  503 -0.19516576485E+02  0.23221477643E+02 -0.86271271745E+02  0.91448707537E+02  0.00000000000E+00 0.  1.
<mgrwt>
<rscale>  2 0.30333707E+02</rscale>
<asrwt>0</asrwt>
<pdfrwt beam="1">  1       21 0.54678169E-03 0.30333707E+02</pdfrwt>
<pdfrwt beam="2">  1       21 0.50330299E-01 0.30333707E+02</pdfrwt>
<totfact> 0.29404235E+07</totfact>
</mgrwt>
</event>
<event>
 4    1  0.3862688E+004  0.2253461E+02  0.7546771E-02  0.1699167E+00
         21   -1    0    0  501  502  0.00000000000E+00  0.00000000000E+00  0.35470176045E+02  0.35470176045E+02  0.00000000000E+00 0. -1.
         21   -1    0    0  502  503 -0.00000000000E+00 -0.00000000000E+00 -0.20987661835E+02  0.20987661835E+02  0.00000000000E+00 0. -1.
          1    1    1    2  501    0 -0.18989750063E+02  0.12132528638E+02 -0.86739714334E+01  0.24146358712E+02  0.00000000000E+00 0. -1.
         -1    1    1    2    0  503  0.18989750063E+02 -0.12132528638E+02  0.23156485643E+02  0.32311479167E+02  0.00000000000E+00 0.  1.
<mgrwt>
<rscale>  2 0.22534615E+02</rscale>
<asrwt>0</asrwt>
<pdfrwt beam="1">  1       21 0.54569502E-02 0.22534615E+02</pdfrwt>
<pdfrwt beam="2">  1       21 0.32288711E-02 0.22534615E+02</pdfrwt>
<totfact> 0.88378342E+07</totfact>
</mgrwt>
</event>
<event>
 4    1  0.3862688E+004  0.2099838E+02  0.7546771E-02  0.1726173E+00
         21   -1    0    0  503  502  0.00000000000E+00  0.00000000000E+00  0.32881970521E+02  0.32881970521E+02  0.00000000000E+00 0.  1.
         21   -1    0    0  501  503 -0.00000000000E+00 -0.00000000000E+00 -0.14900312088E+02  0.14900312088E+02  0.00000000000E+00 0.  1.
          4    1    1    2  501    0 -0.18143539450E+01  0.20919852158E+02  0.14339085913E+01  0.21047284585E+02  0.00000000000E+00 0.  1.
         -4    1    1    2    0  502  0.18143539450E+01 -0.20919852158E+02  0.16547749842E+02  0.26734998025E+02  0.00000000000E+00 0. -1.
<mgrwt>
<rscale>  2 0.20998383E+02</rscale>
<asrwt>0</asrwt>
<pdfrwt beam="1">  1       21 0.50587647E-02 0.20998383E+02</pdfrwt>
<pdfrwt beam="2">  1       21 0.22923557E-02 0.20998383E+02</pdfrwt>
<totfact> 0.16591345E+08</totfact>
</mgrwt>
</event>
<event>
 4    1  0.3862688E+004  0.2032871E+02  0.7546771E-02  0.1738869E+00
         21   -1    0    0  503  502  0.00000000000E+00  0.00000000000E+00  0.11289934442E+04  0.11289934442E+04  0.00000000000E+00 0. -1.
         21   -1    0    0  501  503 -0.00000000000E+00 -0.00000000000E+00 -0.38260737626E+00  0.38260737626E+00  0.00000000000E+00 0. -1.
          4    1    1    2  501    0  0.16183796878E+02 -0.12302076023E+02  0.44679849044E+03  0.44726071526E+03  0.00000000000E+00 0. -1.
         -4    1    1    2    0  502 -0.16183796878E+02  0.12302076023E+02  0.68181234638E+03  0.68211533631E+03  0.00000000000E+00 0.  1.
<mgrwt>
<rscale>  2 0.20328708E+02</rscale>
<asrwt>0</asrwt>
<pdfrwt beam="1">  1       21 0.17368863E+00 0.20328708E+02</pdfrwt>
<pdfrwt beam="2">  1       21 0.58863577E-04 0.20328708E+02</pdfrwt>
<totfact> 0.45890453E+07</totfact>
</mgrwt>
</event>
<event>
 4    1  0.3862688E+004  0.2342146E+02  0.7546771E-02  0.1684768E+00
         21   -1    0    0  501  502  0.00000000000E+00  0.00000000000E+00  0.90548845895E+00  0.90548845895E+00  0.00000000000E+00 0. -1.
         21   -1    0    0  502  503 -0.00000000000E+00 -0.00000000000E+00 -0.60615614073E+03  0.60615614073E+03  0.00000000000E+00 0. -1.
          2    1    1    2  501    0  0.23213838943E+02  0.31116308052E+01 -0.30975492263E+03  0.31063914218E+03  0.00000000000E+00 0. -1.
         -2    1    1    2    0  503 -0.23213838943E+02 -0.31116308052E+01 -0.29549572965E+03  0.29642248701E+03  0.00000000000E+00 0.  1.
<mgrwt>
<rscale>  2 0.23421455E+02</rscale>
<asrwt>0</asrwt>
<pdfrwt beam="1">  1       21 0.13930619E-03 0.23421455E+02</pdfrwt>
<pdfrwt beam="2">  1       21 0.93254605E-01 0.23421455E+02</pdfrwt>
<totfact> 0.57850233E+07</totfact>
</mgrwt>
</event>
<event>
 4    1  0.3862688E+004  0.2805042E+02  0.7546771E-02  0.1620696E+00
         21   -1    0    0  501  502  0.00000000000E+00  0.00000000000E+00  0.34160158657E+02  0.34160158657E+02  0.00000000000E+00 0. -1.
         21   -1    0    0  502  503 -0.00000000000E+00 -0.00000000000E+00 -0.28183165580E+02  0.28183165580E+02  0.00000000000E+00 0. -1.
          3    1    1    2  501    0 -0.87227101671E+01  0.26659713612E+02 -0.10336192142E+02  0.29894194596E+02  0.00000000000E+00 0. -1.
         -3    1    1    2    0  503  0.87227101671E+01 -0.26659713612E+02  0.16313185218E+02  0.32449129642E+02  0.00000000000E+00 0.  1.
<mgrwt>
<rscale>  2 0.28050419E+02</rscale>
<asrwt>0</asrwt>
<pdfrwt beam="1">  1       21 0.52554090E-02 0.28050419E+02</pdfrwt>
<pdfrwt beam="2">  1       21 0.43358716E-02 0.28050419E+02</pdfrwt>
<totfact> 0.62449738E+07</totfact>
</mgrwt>
</event>
<event>
 4    1  0.3862688E+004  0.3188302E+02  0.7546771E-02  0.1578161E+00
         21   -1    0    0  503  502  0.00000000000E+00  0.00000000000E+00  0.33796640032E+02  0.33796640032E+02  0.00000000000E+00 0. -1.
         21   -1    0    0  501  503 -0.00000000000E+00 -0.00000000000E+00 -0.30083794471E+02  0.30083794471E+02  0.00000000000E+00 0. -1.
          2    1    1    2  501    0 -0.10393007176E+02  0.30141535973E+02  0.23092763562E+01  0.31966537915E+02  0.00000000000E+00 0. -1.
         -2    1    1    2    0  502  0.10393007176E+02 -0.30141535973E+02  0.14035692049E+01  0.31913896589E+02  0.00000000000E+00 0.  1.
<mgrwt>
<rscale>  2 0.31883017E+02</rscale>
<asrwt>0</asrwt>
<pdfrwt beam="1">  1       21 0.51994831E-02 0.31883017E+02</pdfrwt>
<pdfrwt beam="2">  1       21 0.46282761E-02 0.31883017E+02</pdfrwt>
<totfact> 0.58947744E+07</totfact>
</mgrwt>
</event>
<event>
 4    1  0.3862688E+004  0.3436678E+02  0.7546771E-02  0.1554297E+00
         21   -1    0    0  503  502  0.00000000000E+00  0.00000000000E+00  0.83807499716E+02  0.83807499716E+02  0.00000000000E+00 0.  1.
         21   -1    0    0  501  503 -0.00000000000E+00 -0.00000000000E+00 -0.14215761008E+02  0.14215761008E+02  0.00000000000E+00 0.  1.
          1    1    1    2  501    0  0.33365865798E+02 -0.82337601065E+01  0.39355558887E+02  0.52248787749E+02  0.00000000000E+00 0. -1.
         -1    1    1    2    0  502 -0.33365865798E+02  0.82337601065E+01  0.30236179820E+02  0.45774472974E+02  0.00000000000E+00 0.  1.
<mgrwt>
<rscale>  2 0.34366783E+02</rscale>
<asrwt>0</asrwt>
<pdfrwt beam="1">  1       21 0.12893461E-01 0.34366783E+02</pdfrwt>
<pdfrwt beam="2">  1       21 0.21870402E-02 0.34366783E+02</pdfrwt>
<totfact> 0.43476550E+07</totfact>
</mgrwt>
</event>
<event>
 4    1  0.3862688E+004  0.2011812E+02  0.7546771E-02  0.1742989E+00
         21   -1    0    0  501  502  0.00000000000E+00  0.00000000000E+00  0.14542042137E+02  0.14542042137E+02  0.00000000000E+00 0.  1.
         21   -1    0    0  502  503 -0.00000000000E+00 -0.00000000000E+00 -0.32763220746E+02  0.32763220746E+02  0.00000000000E+00 0.  1.
          3    1    1    2  501    0  0.10871265285E+02  0.16927914216E+02 -0.18286507818E+02  0.27187038396E+02  0.00000000000E+00 0.  1.
         -3    1    1    2    0  503 -0.10871265285E+02 -0.16927914216E+02  0.65329209535E-01  0.20118224487E+02  0.00000000000E+00 0. -1.
<mgrwt>
<rscale>  2 0.20118118E+02</rscale>
<asrwt>0</asrwt>
<pdfrwt beam="1">  1       21 0.22372373E-02 0.20118118E+02</pdfrwt>
<pdfrwt beam="2">  1       21 0.50404954E-02 0.20118118E+02</pdfrwt>
<totfact> 0.17087207E+08</totfact>
</mgrwt>
</event>
<event>
 4    1  0.3862688E+004  0.3177594E+02  0.7546771E-02  0.1579249E+00
         21   -1    0    0  503  502  0.00000000000E+00  0.00000000000E+00  0.50636555493E+01  0.50636555493E+01  0.00000000000E+00 0.  1.
         21   -1    0    0  501  503 -0.00000000000E+00 -0.00000000000E+00 -0.21110592360E+03  0.21110592360E+03  0.00000000000E+00 0.  1.
          1    1    1    2  501    0 -0.21958368929E+02 -0.22968246977E+02 -0.12846911862E+03  0.13234056360E+03  0.00000000000E+00 0.  1.
         -1    1    1    2    0  502  0.21958368929E+02  0.22968246977E+02 -0.77573149429E+02  0.83829015547E+02  0.00000000000E+00 0. -1.
<mgrwt>
<rscale>  2 0.31775940E+02</rscale>
<asrwt>0</asrwt>
<pdfrwt beam="1">  1       21 0.77902404E-03 0.31775940E+02</pdfrwt>
<pdfrwt beam="2">  1       21 0.32477830E-01 0.31775940E+02</pdfrwt>
<totfact> 0.40305170E+07</totfact>
</mgrwt>
</event>
<event>
 4    1  0.3862688E+004  0.4512211E+02  0.7546771E-02  0.1473581E+00
         21   -1    0    0  501  502  0.00000000000E+00  0.00000000000E+00  0.11287179396E+01  0.11287179396E+01  0.00000000000E+00 0. -1.
         21   -1    0    0  502  503 -0.00000000000E+00 -0.00000000000E+00 -0.18903447464E+04  0.18903447464E+04  0.00000000000E+00 0. -1.
          2    1    1    2  501    0  0.51044327719E+01  0.44832458605E+02 -0.74227413063E+03  0.74364433002E+03  0.00000000000E+00 0. -1.
         -2    1    1    2    0  503 -0.51044327719E+01 -0.44832458605E+02 -0.11469418979E+04  0.11478291344E+04  0.00000000000E+00 0.  1.
<mgrwt>
<rscale>  2 0.45122107E+02</rscale>
<asrwt>0</asrwt>
<pdfrwt beam="1">  1       21 0.17365150E-03 0.45122107E+02</pdfrwt>
<pdfrwt beam="2">  1       21 0.29081795E+00 0.45122107E+02</pdfrwt>
<totfact> 0.24001915E+06</totfact>
</mgrwt>
</event>
<event>
 4    1  0.3862688E+004  0.2340250E+02  0.7546771E-02  0.1685068E+00
         21   -1    0    0  503  502  0.00000000000E+00  0.00000000000E+00  0.65883271157E+01  0.65883271157E+01  0.00000000000E+00 0.  1.
         21   -1    0    0  501  503 -0.00000000000E+00 -0.00000000000E+00 -0.12323467258E+03  0.12323467258E+03  0.00000000000E+00 0.  1.
          4    1    1    2  501    0 -0.22180603010E+02  0.74631125861E+01 -0.95353815328E+02  0.98183640679E+02  0.00000000000E+00 0.  1.
         -4    1    1    2    0  502  0.22180603010E+02 -0.74631125861E+01 -0.21292530134E+02  0.31639359014E+02  0.00000000000E+00 0. -1.
<mgrwt>
<rscale>  2 0.23402504E+02</rscale>
<asrwt>0</asrwt>
<pdfrwt beam="1">  1       21 0.10135887E-02 0.23402504E+02</pdfrwt>
<pdfrwt beam="2">  1       21 0.18959181E-01 0.23402504E+02</pdfrwt>
<totfact> 0.66546343E+07</totfact>
</mgrwt>
</event>
<event>
 4    1  0.3862688E+004  0.2977603E+02  0.7546771E-02  0.1600578E+00
         21   -1    0    0  501  502  0.00000000000E+00  0.00000000000E+00  0.31585997600E+03  0.31585997600E+03  0.00000000000E+00 0. -1.
         21   -1    0    0  502  503 -0.00000000000E+00 -0.00000000000E+00 -0.28358881507E+01  0.28358881507E+01  0.00000000000E+00 0. -1.
          5    1    1    2  501    0 -0.29418572600E+02 -0.45999384439E+01  0.17260110778E+03  0.17515066158E+03  0.00000000000E+00 0. -1.
         -5    1    1    2    0  503  0.29418572600E+02  0.45999384439E+01  0.14042298007E+03  0.14354520257E+03  0.00000000000E+00 0.  1.
<mgrwt>
<rscale>  2 0.29776028E+02</rscale>
<asrwt>0</asrwt>
<pdfrwt beam="1">  1       21 0.48593815E-01 0.29776028E+02</pdfrwt>
<pdfrwt beam="2">  1       21 0.43629073E-03 0.29776028E+02</pdfrwt>
<totfact> 0.43913328E+07</totfact>
</mgrwt>
</event>
<event>
 4    1  0.3862688E+004  0.2341896E+02  0.7546771E-02  0.1684808E+00
         21   -1    0    0  501  502  0.00000000000E+00  0.00000000000E+00  0.53624505181E+03  0.53624505181E+03  0.00000000000E+00 0.  1.
         21   -1    0    0  502  503 -0.00000000000E+00 -0.00000000000E+00 -0.11916298683E+01  0.11916298683E+01  0.00000000000E+00 0.  1.
          5    1    1    2  501    0 -0.99233673795E+01 -0.21212603862E+02  0.36868651803E+03  0.36942955534E+03  0.00000000000E+00 0. -1.
         -5    1    1    2    0  503  0.99233673795E+01  0.21212603862E+02  0.16636690392E+03  0.16800712634E+03  0.00000000000E+00 0.  1.
<mgrwt>
<rscale>  2 0.23418962E+02</rscale>
<asrwt>0</asrwt>
<pdfrwt beam="1">  1       21 0.82499046E-01 0.23418962E+02</pdfrwt>
<pdfrwt beam="2">  1       21 0.18332810E-03 0.23418962E+02</pdfrwt>
<totfact> 0.50626721E+07</totfact>
</mgrwt>
</event>
<event>
 4    1  0.3862688E+004  0.2238723E+02  0.7546771E-02  0.1701640E+00
         21   -1    0    0  501  502  0.00000000000E+00  0.00000000000E+00  0.17232009620E+02  0.17232009620E+02  0.00000000000E+00 0. -1.
         21   -1    0    0  502  503 -0.00000000000E+00 -0.00000000000E+00 -0.29168815842E+02  0.29168815842E+02  0.00000000000E+00 0. -1.
          5    1    1    2  501    0  0.11960981107E+02  0.18924136138E+02 -0.72142082840E+01  0.23520901317E+02  0.00000000000E+00 0. -1.
         -5    1    1    2    0  503 -0.11960981107E+02 -0.18924136138E+02 -0.47225979372E+01  0.22879924145E+02  0.00000000000E+00 0.  1.
<mgrwt>
<rscale>  2 0.22387228E+02</rscale>
<asrwt>0</asrwt>
<pdfrwt beam="1">  1       21 0.26510784E-02 0.22387228E+02</pdfrwt>
<pdfrwt beam="2">  1       21 0.44875101E-02 0.22387228E+02</pdfrwt>
<totfact> 0.16354297E+08</totfact>
</mgrwt>
</event>
<event>
 4    1  0.3862688E+004  0.3372435E+02  0.7546771E-02  0.1560229E+00
         21   -1    0    0  501  502  0.00000000000E+00  0.00000000000E+00  0.17515778026E+02  0.17515778026E+02  0.00000000000E+00 0. -1.
         21   -1    0    0  502  503 -0.00000000000E+00 -0.00000000000E+00 -0.65407422735E+02  0.65407422735E+02  0.00000000000E+00 0. -1.
          5    1    1    2  501    0  0.15993507903E+01 -0.33686404749E+02 -0.27481260111E+02  0.43503464749E+02  0.00000000000E+00 0. -1.
         -5    1    1    2    0  503 -0.15993507903E+01  0.33686404749E+02 -0.20410384598E+02  0.39419736012E+02  0.00000000000E+00 0.  1.
<mgrwt>
<rscale>  2 0.33724350E+02</rscale>
<asrwt>0</asrwt>
<pdfrwt beam="1">  1       21 0.26947351E-02 0.33724350E+02</pdfrwt>
<pdfrwt beam="2">  1       21 0.10062681E-01 0.33724350E+02</pdfrwt>
<totfact> 0.47529123E+07</totfact>
</mgrwt>
</event>
<event>
 4    1  0.3862688E+004  0.2864293E+02  0.7546771E-02  0.1613593E+00
         21   -1    0    0  503  502  0.00000000000E+00  0.00000000000E+00  0.13691132875E+01  0.13691132875E+01  0.00000000000E+00 0.  1.
         21   -1    0    0  501  503 -0.00000000000E+00 -0.00000000000E+00 -0.60012195579E+03  0.60012195579E+03  0.00000000000E+00 0.  1.
          1    1    1    2  501    0  0.21029204622E+02  0.19447107332E+02 -0.31095343561E+03  0.31226984573E+03  0.00000000000E+00 0. -1.
         -1    1    1    2    0  502 -0.21029204622E+02 -0.19447107332E+02 -0.28779940688E+03  0.28922122335E+03  0.00000000000E+00 0.  1.
<mgrwt>
<rscale>  2 0.28642930E+02</rscale>
<asrwt>0</asrwt>
<pdfrwt beam="1">  1       21 0.21063254E-03 0.28642930E+02</pdfrwt>
<pdfrwt beam="2">  1       21 0.92326574E-01 0.28642930E+02</pdfrwt>
<totfact> 0.33879544E+07</totfact>
</mgrwt>
</event>
<event>
 4    1  0.3862688E+004  0.2269711E+02  0.7546771E-02  0.1696467E+00
         21   -1    0    0  503  502  0.00000000000E+00  0.00000000000E+00  0.60261148189E+01  0.60261148189E+01  0.00000000000E+00 0. -1.
         21   -1    0    0  501  503 -0.00000000000E+00 -0.00000000000E+00 -0.10274599742E+03  0.10274599742E+03  0.00000000000E+00 0. -1.
          4    1    1    2  501    0  0.16044862741E+02 -0.16053703036E+02 -0.70649601435E+02  0.74205964615E+02  0.00000000000E+00 0. -1.
         -4    1    1    2    0  502 -0.16044862741E+02  0.16053703036E+02 -0.26070281170E+02  0.34566147628E+02  0.00000000000E+00 0.  1.
<mgrwt>
<rscale>  2 0.22697114E+02</rscale>
<asrwt>0</asrwt>
<pdfrwt beam="1">  1       21 0.92709456E-03 0.22697114E+02</pdfrwt>
<pdfrwt beam="2">  1       21 0.15807077E-01 0.22697114E+02</pdfrwt>
<totfact> 0.10320219E+08</totfact>
</mgrwt>
</event>
<event>
 4    1  0.3862688E+004  0.2272479E+02  0.7546771E-02  0.1696010E+00
         21   -1    0    0  503  502  0.00000000000E+00  0.00000000000E+00  0.51462525371E+02  0.51462525371E+02  0.00000000000E+00 0. -1.
         21   -1    0    0  501  503 -0.00000000000E+00 -0.00000000000E+00 -0.10602729187E+02  0.10602729187E+02  0.00000000000E+00 0. -1.
          2    1    1    2  501    0 -0.22706296275E+02 -0.91664454522E+00  0.27612089375E+02  0.35760922910E+02  0.00000000000E+00 0.  1.
         -2    1    1    2    0  502  0.22706296275E+02  0.91664454522E+00  0.13247706808E+02  0.26304331648E+02  0.00000000000E+00 0. -1.
<mgrwt>
<rscale>  2 0.22724791E+02</rscale>
<asrwt>0</asrwt>
<pdfrwt beam="1">  1       21 0.79173114E-02 0.22724791E+02</pdfrwt>
<pdfrwt beam="2">  1       21 0.16311891E-02 0.22724791E+02</pdfrwt>
<totfact> 0.13922424E+08</totfact>
</mgrwt>
</event>
<event>
 4    1  0.3862688E+004  0.2460716E+02  0.7546771E-02  0.1666709E+00
         21   -1    0    0  503  502  0.00000000000E+00  0.00000000000E+00  0.67630947904E+02  0.67630947904E+02  0.00000000000E+00 0. -1.
         21   -1    0    0  501  503 -0.00000000000E+00 -0.00000000000E+00 -0.89674512590E+01  0.89674512590E+01  0.00000000000E+00 0. -1.
          3    1    1    2  501    0 -0.84872731069E+01 -0.23097152516E+02  0.30859452661E+02  0.39469204168E+02  0.00000000000E+00 0.  1.
         -3    1    1    2    0  502  0.84872731069E+01  0.23097152516E+02  0.27804043985E+02  0.37129194996E+02  0.00000000000E+00 0. -1.
<mgrwt>
<rscale>  2 0.24607159E+02</rscale>
<asrwt>0</asrwt>
<pdfrwt beam="1">  1       21 0.10404761E-01 0.24607159E+02</pdfrwt>
<pdfrwt beam="2">  1       21 0.13796079E-02 0.24607159E+02</pdfrwt>
<totfact> 0.11726382E+08</totfact>
</mgrwt>
</event>
<event>
 4    1  0.3862688E+004  0.2038720E+02  0.7546771E-02  0.1737736E+00
         21   -1    0    0  503  502  0.00000000000E+00  0.00000000000E+00  0.84369648657E+03  0.84369648657E+03  0.00000000000E+00 0. -1.
         21   -1    0    0  501  503 -0.00000000000E+00 -0.00000000000E+00 -0.50092097142E+00  0.50092097142E+00  0.00000000000E+00 0. -1.
          2    1    1    2  501    0 -0.15168888546E+02  0.13621401616E+02  0.36732310409E+03  0.36788843493E+03  0.00000000000E+00 0. -1.
         -2    1    1    2    0  502  0.15168888546E+02 -0.13621401616E+02  0.47587246152E+03  0.47630897261E+03  0.00000000000E+00 0.  1.
<mgrwt>
<rscale>  2 0.20387196E+02</rscale>
<asrwt>0</asrwt>
<pdfrwt beam="1">  1       21 0.12979832E+00 0.20387196E+02</pdfrwt>
<pdfrwt beam="2">  1       21 0.77065440E-04 0.20387196E+02</pdfrwt>
<totfact> 0.62403283E+07</totfact>
</mgrwt>
</event>
<event>
 4    1  0.3862688E+004  0.3317932E+02  0.7546771E-02  0.1565390E+00
         21   -1    0    0  501  502  0.00000000000E+00  0.00000000000E+00  0.13858330825E+02  0.13858330825E+02  0.00000000000E+00 0.  1.
         21   -1    0    0  502  503 -0.00000000000E+00 -0.00000000000E+00 -0.85470934283E+02  0.85470934283E+02  0.00000000000E+00 0.  1.
          5    1    1    2  501    0  0.19550778836E+01  0.33121664226E+02 -0.49001963060E+02  0.59178199993E+02  0.00000000000E+00 0.  1.
         -5    1    1    2    0  503 -0.19550778836E+01 -0.33121664226E+02 -0.22610640398E+02  0.40151065115E+02  0.00000000000E+00 0. -1.
<mgrwt>
<rscale>  2 0.33179315E+02</rscale>
<asrwt>0</asrwt>
<pdfrwt beam="1">  1       21 0.21320509E-02 0.33179315E+02</pdfrwt>
<pdfrwt beam="2">  1       21 0.13149374E-01 0.33179315E+02</pdfrwt>
<totfact> 0.43428848E+07</totfact>
</mgrwt>
</event>
<event>
 4    1  0.3862688E+004  0.2225857E+02  0.7546771E-02  0.1703818E+00
         21   -1    0    0  503  502  0.00000000000E+00  0.00000000000E+00  0.52760608023E+02  0.52760608023E+02  0.00000000000E+00 0.  1.
         21   -1    0    0  501  503 -0.00000000000E+00 -0.00000000000E+00 -0.17887553045E+02  0.17887553045E+02  0.00000000000E+00 0.  1.
          5    1    1    2  501    0 -0.14177056035E+02 -0.17159691217E+02 -0.69097056655E+01  0.23306392961E+02  0.00000000000E+00 0. -1.
         -5    1    1    2    0  502  0.14177056035E+02  0.17159691217E+02  0.41782760644E+02  0.47341768107E+02  0.00000000000E+00 0.  1.
<mgrwt>
<rscale>  2 0.22258570E+02</rscale>
<asrwt>0</asrwt>
<pdfrwt beam="1">  1       21 0.81170166E-02 0.22258570E+02</pdfrwt>
<pdfrwt beam="2">  1       21 0.27519313E-02 0.22258570E+02</pdfrwt>
<totfact> 0.59507005E+07</totfact>
</mgrwt>
</event>
<event>
 4    1  0.3862688E+004  0.2163038E+02  0.7546771E-02  0.1714724E+00
         21   -1    0    0  501  502  0.00000000000E+00  0.00000000000E+00  0.50720605285E+02  0.50720605285E+02  0.00000000000E+00 0.  1.
         21   -1    0    0  502  503 -0.00000000000E+00 -0.00000000000E+00 -0.10780337528E+02  0.10780337528E+02  0.00000000000E+00 0.  1.
          4    1    1    2  501    0 -0.13374336227E+02  0.17000009474E+02  0.82881916052E+01  0.23163922632E+02  0.00000000000E+00 0.  1.
         -4    1    1    2    0  503  0.13374336227E+02 -0.17000009474E+02  0.31652076152E+02  0.38337020181E+02  0.00000000000E+00 0. -1.
<mgrwt>
<rscale>  2 0.21630377E+02</rscale>
<asrwt>0</asrwt>
<pdfrwt beam="1">  1       21 0.78031699E-02 0.21630377E+02</pdfrwt>
<pdfrwt beam="2">  1       21 0.16585135E-02 0.21630377E+02</pdfrwt>
<totfact> 0.13694424E+08</totfact>
</mgrwt>
</event>
<event>
 4    1  0.3862688E+004  0.2316670E+02  0.7546771E-02  0.1688822E+00
         21   -1    0    0  501  502  0.00000000000E+00  0.00000000000E+00  0.95299665630E+02  0.95299665630E+02  0.00000000000E+00 0.  1.
         21   -1    0    0  502  503 -0.00000000000E+00 -0.00000000000E+00 -0.81984461547E+01  0.81984461547E+01  0.00000000000E+00 0.  1.
          4    1    1    2  501    0  0.15303954484E+02 -0.17392095017E+02  0.72506098470E+02  0.76117214264E+02  0.00000000000E+00 0.  1.
         -4    1    1    2    0  503 -0.15303954484E+02  0.17392095017E+02  0.14595121005E+02  0.27380897521E+02  0.00000000000E+00 0. -1.
<mgrwt>
<rscale>  2 0.23166700E+02</rscale>
<asrwt>0</asrwt>
<pdfrwt beam="1">  1       21 0.14661486E-01 0.23166700E+02</pdfrwt>
<pdfrwt beam="2">  1       21 0.12612995E-02 0.23166700E+02</pdfrwt>
<totfact> 0.74233294E+07</totfact>
</mgrwt>
</event>
<event>
 4    1  0.3862688E+004  0.2444642E+02  0.7546771E-02  0.1669083E+00
         21   -1    0    0  503  502  0.00000000000E+00  0.00000000000E+00  0.71060750420E+02  0.71060750420E+02  0.00000000000E+00 0. -1.
         21   -1    0    0  501  503 -0.00000000000E+00 -0.00000000000E+00 -0.18413998374E+02  0.18413998374E+02  0.00000000000E+00 0. -1.
          3    1    1    2  501    0  0.16556383821E+02  0.17986481185E+02 -0.66513564722E+01  0.25335111873E+02  0.00000000000E+00 0.  1.
         -3    1    1    2    0  502 -0.16556383821E+02 -0.17986481185E+02  0.59298108518E+02  0.64139636922E+02  0.00000000000E+00 0. -1.
<mgrwt>
<rscale>  2 0.24446418E+02</rscale>
<asrwt>0</asrwt>
<pdfrwt beam="1">  1       21 0.10932423E-01 0.24446418E+02</pdfrwt>
<pdfrwt beam="2">  1       21 0.28329229E-02 0.24446418E+02</pdfrwt>
<totfact> 0.35657495E+07</totfact>
</mgrwt>
</event>
<event>
 4    1  0.3862688E+004  0.2382021E+02  0.7546771E-02  0.1678550E+00
         21   -1    0    0  503  502  0.00000000000E+00  0.00000000000E+00  0.26631965205E+02  0.26631965205E+02  0.00000000000E+00 0.  1.
         21   -1    0    0  501  503 -0.00000000000E+00 -0.00000000000E+00 -0.21428342791E+02  0.21428342791E+02  0.00000000000E+00 0.  1.
          3    1    1    2  501    0  0.12609089875E+02 -0.20209232400E+02  0.78095267226E+00  0.23833004610E+02  0.00000000000E+00 0. -1.
         -3    1    1    2    0  502 -0.12609089875E+02  0.20209232400E+02  0.44226697416E+01  0.24227303385E+02  0.00000000000E+00 0.  1.
<mgrwt>
<rscale>  2 0.23820206E+02</rscale>
<asrwt>0</asrwt>
<pdfrwt beam="1">  1       21 0.40972254E-02 0.23820206E+02</pdfrwt>
<pdfrwt beam="2">  1       21 0.32966681E-02 0.23820206E+02</pdfrwt>
<totfact> 0.13707721E+08</totfact>
</mgrwt>
</event>
<event>
 4    1  0.3862688E+004  0.2833616E+02  0.7546771E-02  0.1617243E+00
         21   -1    0    0  503  502  0.00000000000E+00  0.00000000000E+00  0.14884261499E+03  0.14884261499E+03  0.00000000000E+00 0.  1.
         21   -1    0    0  501  503 -0.00000000000E+00 -0.00000000000E+00 -0.54261551104E+01  0.54261551104E+01  0.00000000000E+00 0.  1.
          2    1    1    2  501    0  0.91753249822E+01  0.26809543952E+02  0.77595481242E+02  0.82607487219E+02  0.00000000000E+00 0.  1.
         -2    1    1    2    0  502 -0.91753249822E+01 -0.26809543952E+02  0.65820978636E+02  0.71661282880E+02  0.00000000000E+00 0. -1.
<mgrwt>
<rscale>  2 0.28336165E+02</rscale>
<asrwt>0</asrwt>
<pdfrwt beam="1">  1       21 0.22898861E-01 0.28336165E+02</pdfrwt>
<pdfrwt beam="2">  1       21 0.83479321E-03 0.28336165E+02</pdfrwt>
<totfact> 0.66963262E+07</totfact>
</mgrwt>
</event>
<event>
 4    1  0.3862688E+004  0.3772747E+02  0.7546771E-02  0.1525633E+00
         21   -1    0    0  503  502  0.00000000000E+00  0.00000000000E+00  0.41494346859E+03  0.41494346859E+03  0.00000000000E+00 0.  1.
         21   -1    0    0  501  503 -0.00000000000E+00 -0.00000000000E+00 -0.37131647125E+01  0.37131647125E+01  0.00000000000E+00 0.  1.
          2    1    1    2  501    0  0.31795361724E+02  0.20308055076E+02  0.14783490482E+03  0.15257300289E+03  0.00000000000E+00 0.  1.
         -2    1    1    2    0  502 -0.31795361724E+02 -0.20308055076E+02  0.26339539906E+03  0.26608363041E+03  0.00000000000E+00 0. -1.
<mgrwt>
<rscale>  2 0.37727472E+02</rscale>
<asrwt>0</asrwt>
<pdfrwt beam="1">  1       21 0.63837420E-01 0.37727472E+02</pdfrwt>
<pdfrwt beam="2">  1       21 0.57125644E-03 0.37727472E+02</pdfrwt>
<totfact> 0.17680848E+07</totfact>
</mgrwt>
</event>
<event>
 4    1  0.3862688E+004  0.2266142E+02  0.7546771E-02  0.1697058E+00
         21   -1    0    0  503  502  0.00000000000E+00  0.00000000000E+00  0.20763731979E+04  0.20763731979E+04  0.00000000000E+00 0. -1.
         21   -1    0    0  501  503 -0.00000000000E+00 -0.00000000000E+00 -0.28288092355E+00  0.28288092355E+00  0.00000000000E+00 0. -1.
          4    1    1    2  501    0 -0.22648931078E+02  0.75239642657E+00  0.66992867231E+03  0.67031184248E+03  0.00000000000E+00 0.  1.
         -4    1    1    2    0  502  0.22648931078E+02 -0.75239642657E+00  0.14061616447E+04  0.14063442363E+04  0.00000000000E+00 0. -1.
<mgrwt>
<rscale>  2 0.22661425E+02</rscale>
<asrwt>0</asrwt>
<pdfrwt beam="1">  1       21 0.31942983E+00 0.22661425E+02</pdfrwt>
<pdfrwt beam="2">  1       21 0.43521805E-04 0.22661425E+02</pdfrwt>
<totfact> 0.12692939E+07</totfact>
</mgrwt>
</event>
<event>
 4    1  0.3862688E+004  0.2600132E+02  0.7546771E-02  0.1647023E+00
         21   -1    0    0  501  502  0.00000000000E+00  0.00000000000E+00  0.31360555024E+02  0.31360555024E+02  0.00000000000E+00 0. -1.
         21   -1    0    0  502  503 -0.00000000000E+00 -0.00000000000E+00 -0.24701751414E+02  0.24701751414E+02  0.00000000000E+00 0. -1.
          3    1    1    2  501    0 -0.18123455429E+02  0.18644275655E+02  0.13329540482E+02  0.29218920255E+02  0.00000000000E+00 0.  1.
         -3    1    1    2    0  503  0.18123455429E+02 -0.18644275655E+02 -0.66707368712E+01  0.26843386184E+02  0.00000000000E+00 0. -1.
<mgrwt>
<rscale>  2 0.26001320E+02</rscale>
<asrwt>0</asrwt>
<pdfrwt beam="1">  1       21 0.48247008E-02 0.26001320E+02</pdfrwt>
<pdfrwt beam="2">  1       21 0.38002695E-02 0.26001320E+02</pdfrwt>
<totfact> 0.86618675E+07</totfact>
</mgrwt>
</event>
<event>
 4    1  0.3862688E+004  0.2452584E+02  0.7546771E-02  0.1667907E+00
         21   -1    0    0  501  502  0.00000000000E+00  0.00000000000E+00  0.31522542688E+03  0.31522542688E+03  0.00000000000E+00 0.  1.
         21   -1    0    0  502  503 -0.00000000000E+00 -0.00000000000E+00 -0.30128680699E+01  0.30128680699E+01  0.00000000000E+00 0.  1.
          2    1    1    2  501    0 -0.24291905053E+02  0.33793724678E+01  0.59757545877E+02  0.64594745132E+02  0.00000000000E+00 0. -1.
         -2    1    1    2    0  503  0.24291905053E+02 -0.33793724678E+01  0.25245501293E+03  0.25364354981E+03  0.00000000000E+00 0.  1.
<mgrwt>
<rscale>  2 0.24525840E+02</rscale>
<asrwt>0</asrwt>
<pdfrwt beam="1">  1       21 0.48496193E-01 0.24525840E+02</pdfrwt>
<pdfrwt beam="2">  1       21 0.46351841E-03 0.24525840E+02</pdfrwt>
<totfact> 0.38715687E+07</totfact>
</mgrwt>
</event>
<event>
 4    1  0.3862688E+004  0.2460510E+02  0.7546771E-02  0.1666740E+00
         21   -1    0    0  501  502  0.00000000000E+00  0.00000000000E+00  0.59589969798E+01  0.59589969798E+01  0.00000000000E+00 0. -1.
         21   -1    0    0  502  503 -0.00000000000E+00 -0.00000000000E+00 -0.12598880027E+03  0.12598880027E+03  0.00000000000E+00 0. -1.
          5    1    1    2  501    0  0.41264851029E+01  0.24256607482E+02 -0.30985634685E+02  0.39566658220E+02  0.00000000000E+00 0. -1.
         -5    1    1    2    0  503 -0.41264851029E+01 -0.24256607482E+02 -0.89044168602E+02  0.92381139026E+02  0.00000000000E+00 0.  1.
<mgrwt>
<rscale>  2 0.24605099E+02</rscale>
<asrwt>0</asrwt>
<pdfrwt beam="1">  1       21 0.91676882E-03 0.24605099E+02</pdfrwt>
<pdfrwt beam="2">  1       21 0.19382891E-01 0.24605099E+02</pdfrwt>
<totfact> 0.75437390E+07</totfact>
</mgrwt>
</event>
<event>
 4    1  0.3862688E+004  0.5391026E+02  0.7546771E-02  0.1425324E+00
         21   -1    0    0  501  502  0.00000000000E+00  0.00000000000E+00  0.22624895852E+02  0.22624895852E+02  0.00000000000E+00 0. -1.
         21   -1    0    0  502  503 -0.00000000000E+00 -0.00000000000E+00 -0.16860905633E+03  0.16860905633E+03  0.00000000000E+00 0. -1.
          4    1    1    2  501    0  0.52469024619E+02  0.12382126814E+02 -0.11965275285E+03  0.13123679695E+03  0.00000000000E+00 0. -1.
         -4    1    1    2    0  503 -0.52469024619E+02 -0.12382126814E+02 -0.26331407635E+02  0.59997155240E+02  0.00000000000E+00 0.  1.
<mgrwt>
<rscale>  2 0.53910255E+02</rscale>
<asrwt>0</asrwt>
<pdfrwt beam="1">  1       21 0.34807532E-02 0.53910255E+02</pdfrwt>
<pdfrwt beam="2">  1       21 0.25939855E-01 0.53910255E+02</pdfrwt>
<totfact> 0.64232966E+06</totfact>
</mgrwt>
</event>
<event>
 4    1  0.3862688E+004  0.2523591E+02  0.7546771E-02  0.1657636E+00
         21   -1    0    0  503  502  0.00000000000E+00  0.00000000000E+00  0.13758350438E+02  0.13758350438E+02  0.00000000000E+00 0. -1.
         21   -1    0    0  501  503 -0.00000000000E+00 -0.00000000000E+00 -0.46386942658E+02  0.46386942658E+02  0.00000000000E+00 0. -1.
          2    1    1    2  501    0  0.20669986374E+02  0.14477664699E+02 -0.17700836949E+02  0.30824839668E+02  0.00000000000E+00 0.  1.
         -2    1    1    2    0  502 -0.20669986374E+02 -0.14477664699E+02 -0.14927755270E+02  0.29320453428E+02  0.00000000000E+00 0. -1.
<mgrwt>
<rscale>  2 0.25235909E+02</rscale>
<asrwt>0</asrwt>
<pdfrwt beam="1">  1       21 0.21166693E-02 0.25235909E+02</pdfrwt>
<pdfrwt beam="2">  1       21 0.71364527E-02 0.25235909E+02</pdfrwt>
<totfact> 0.11397590E+08</totfact>
</mgrwt>
</event>
<event>
 4    1  0.3862688E+004  0.3782289E+02  0.7546771E-02  0.1524872E+00
         21   -1    0    0  501  502  0.00000000000E+00  0.00000000000E+00  0.37267282347E+02  0.37267282347E+02  0.00000000000E+00 0.  1.
         21   -1    0    0  502  503 -0.00000000000E+00 -0.00000000000E+00 -0.42758712461E+02  0.42758712461E+02  0.00000000000E+00 0.  1.
          2    1    1    2  501    0 -0.13742606660E+02  0.35237927996E+02 -0.15540285607E+02  0.40890968245E+02  0.00000000000E+00 0. -1.
         -2    1    1    2    0  503  0.13742606660E+02 -0.35237927996E+02  0.10048855494E+02  0.39135026562E+02  0.00000000000E+00 0.  1.
<mgrwt>
<rscale>  2 0.37822887E+02</rscale>
<asrwt>0</asrwt>
<pdfrwt beam="1">  1       21 0.57334281E-02 0.37822887E+02</pdfrwt>
<pdfrwt beam="2">  1       21 0.65782635E-02 0.37822887E+02</pdfrwt>
<totfact> 0.29399309E+07</totfact>
</mgrwt>
</event>
<event>
 4    1  0.3862688E+004  0.2040546E+02  0.7546771E-02  0.1737383E+00
         21   -1    0    0  501  502  0.00000000000E+00  0.00000000000E+00  0.67239807819E+03  0.67239807819E+03  0.00000000000E+00 0. -1.
         21   -1    0    0  502  503 -0.00000000000E+00 -0.00000000000E+00 -0.62008964467E+00  0.62008964467E+00  0.00000000000E+00 0. -1.
          2    1    1    2  501    0 -0.27379697125E+01  0.20220937161E+02  0.34826881209E+03  0.34886608928E+03  0.00000000000E+00 0. -1.
         -2    1    1    2    0  503  0.27379697125E+01 -0.20220937161E+02  0.32350917646E+03  0.32415207855E+03  0.00000000000E+00 0.  1.
<mgrwt>
<rscale>  2 0.20405460E+02</rscale>
<asrwt>0</asrwt>
<pdfrwt beam="1">  1       21 0.10344527E+00 0.20405460E+02</pdfrwt>
<pdfrwt beam="2">  1       21 0.95398945E-04 0.20405460E+02</pdfrwt>
<totfact> 0.76672084E+07</totfact>
</mgrwt>
</event>
<event>
 4    1  0.3862688E+004  0.3477851E+02  0.7546771E-02  0.1550576E+00
         21   -1    0    0  501  502  0.00000000000E+00  0.00000000000E+00  0.32614263326E+02  0.32614263326E+02  0.00000000000E+00 0.  1.
         21   -1    0    0  502  503 -0.00000000000E+00 -0.00000000000E+00 -0.37136848236E+02  0.37136848236E+02  0.00000000000E+00 0.  1.
          3    1    1    2  501    0  0.34499571780E+02  0.43959384274E+01 -0.35470489799E+01  0.34958922811E+02  0.00000000000E+00 0. -1.
         -3    1    1    2    0  503 -0.34499571780E+02 -0.43959384274E+01 -0.97553592990E+00  0.34792188750E+02  0.00000000000E+00 0.  1.
<mgrwt>
<rscale>  2 0.34778510E+02</rscale>
<asrwt>0</asrwt>
<pdfrwt beam="1">  1       21 0.50175790E-02 0.34778510E+02</pdfrwt>
<pdfrwt beam="2">  1       21 0.57133613E-02 0.34778510E+02</pdfrwt>
<totfact> 0.45257511E+07</totfact>
</mgrwt>
</event>
<event>
 4    1  0.3862688E+004  0.2200826E+02  0.7546771E-02  0.1708109E+00
         21   -1    0    0  501  502  0.00000000000E+00  0.00000000000E+00  0.47309976855E+01  0.47309976855E+01  0.00000000000E+00 0. -1.
         21   -1    0    0  502  503 -0.00000000000E+00 -0.00000000000E+00 -0.12475622726E+03  0.12475622726E+03  0.00000000000E+00 0. -1.
          1    1    1    2  501    0  0.60627047109E+01  0.21156730086E+02 -0.32593660461E+02  0.39328238183E+02  0.00000000000E+00 0. -1.
         -1    1    1    2    0  503 -0.60627047109E+01 -0.21156730086E+02 -0.87431569113E+02  0.90158986762E+02  0.00000000000E+00 0.  1.
<mgrwt>
<rscale>  2 0.22008262E+02</rscale>
<asrwt>0</asrwt>
<pdfrwt beam="1">  1       21 0.72784576E-03 0.22008262E+02</pdfrwt>
<pdfrwt beam="2">  1       21 0.19193267E-01 0.22008262E+02</pdfrwt>
<totfact> 0.10510622E+08</totfact>
</mgrwt>
</event>
<event>
 4    1  0.3862688E+004  0.2384223E+02  0.7546771E-02  0.1678211E+00
         21   -1    0    0  501  502  0.00000000000E+00  0.00000000000E+00  0.30839189740E+03  0.30839189740E+03  0.00000000000E+00 0.  1.
         21   -1    0    0  502  503 -0.00000000000E+00 -0.00000000000E+00 -0.18451505608E+01  0.18451505608E+01  0.00000000000E+00 0.  1.
          5    1    1    2  501    0 -0.18123429134E+02 -0.15491709179E+02  0.15821607737E+03  0.16000243397E+03  0.00000000000E+00 0. -1.
         -5    1    1    2    0  503  0.18123429134E+02  0.15491709179E+02  0.14833066947E+03  0.15023461399E+03  0.00000000000E+00 0.  1.
<mgrwt>
<rscale>  2 0.23842226E+02</rscale>
<asrwt>0</asrwt>
<pdfrwt beam="1">  1       21 0.47444866E-01 0.23842226E+02</pdfrwt>
<pdfrwt beam="2">  1       21 0.28386956E-03 0.23842226E+02</pdfrwt>
<totfact> 0.82340022E+07</totfact>
</mgrwt>
</event>
<event>
 4    1  0.3862688E+004  0.2061943E+02  0.7546771E-02  0.1733283E+00
         21   -1    0    0  503  502  0.00000000000E+00  0.00000000000E+00  0.11518711897E+02  0.11518711897E+02  0.00000000000E+00 0. -1.
         21   -1    0    0  501  503 -0.00000000000E+00 -0.00000000000E+00 -0.41288502932E+02  0.41288502932E+02  0.00000000000E+00 0. -1.
          1    1    1    2  501    0 -0.20096819295E+02  0.46128703003E+01 -0.62870482654E+01  0.21556616016E+02  0.00000000000E+00 0. -1.
         -1    1    1    2    0  502  0.20096819295E+02 -0.46128703003E+01 -0.23482742770E+02  0.31250598813E+02  0.00000000000E+00 0.  1.
<mgrwt>
<rscale>  2 0.20619426E+02</rscale>
<asrwt>0</asrwt>
<pdfrwt beam="1">  1       21 0.17721096E-02 0.20619426E+02</pdfrwt>
<pdfrwt beam="2">  1       21 0.63520773E-02 0.20619426E+02</pdfrwt>
<totfact> 0.17006191E+08</totfact>
</mgrwt>
</event>
<event>
 4    1  0.3862688E+004  0.2248955E+02  0.7546771E-02  0.1699921E+00
         21   -1    0    0  501  502  0.00000000000E+00  0.00000000000E+00  0.18929257537E+03  0.18929257537E+03  0.00000000000E+00 0. -1.
         21   -1    0    0  502  503 -0.00000000000E+00 -0.00000000000E+00 -0.26744530684E+01  0.26744530684E+01  0.00000000000E+00 0. -1.
          1    1    1    2  501    0  0.19865418613E+02 -0.10542522736E+02  0.90370631889E+02  0.93126960383E+02  0.00000000000E+00 0.  1.
         -1    1    1    2    0  503 -0.19865418613E+02  0.10542522736E+02  0.96247490416E+02  0.98840068058E+02  0.00000000000E+00 0. -1.
<mgrwt>
<rscale>  2 0.22489545E+02</rscale>
<asrwt>0</asrwt>
<pdfrwt beam="1">  1       21 0.29121924E-01 0.22489545E+02</pdfrwt>
<pdfrwt beam="2">  1       21 0.41145447E-03 0.22489545E+02</pdfrwt>
<totfact> 0.11730471E+08</totfact>
</mgrwt>
</event>
<event>
 4    1  0.3862688E+004  0.2231363E+02  0.7546771E-02  0.1702884E+00
         21   -1    0    0  503  502  0.00000000000E+00  0.00000000000E+00  0.16391924136E+02  0.16391924136E+02  0.00000000000E+00 0. -1.
         21   -1    0    0  501  503 -0.00000000000E+00 -0.00000000000E+00 -0.32317188093E+02  0.32317188093E+02  0.00000000000E+00 0. -1.
          3    1    1    2  501    0  0.74541138276E+01 -0.21031746999E+02 -0.19915447512E+01  0.22402331246E+02  0.00000000000E+00 0.  1.
         -3    1    1    2    0  502 -0.74541138276E+01  0.21031746999E+02 -0.13933719206E+02  0.26306780983E+02  0.00000000000E+00 0. -1.
<mgrwt>
<rscale>  2 0.22313632E+02</rscale>
<asrwt>0</asrwt>
<pdfrwt beam="1">  1       21 0.25218345E-02 0.22313632E+02</pdfrwt>
<pdfrwt beam="2">  1       21 0.49718750E-02 0.22313632E+02</pdfrwt>
<totfact> 0.15002580E+08</totfact>
</mgrwt>
</event>
<event>
 4    1  0.3862688E+004  0.2540953E+02  0.7546771E-02  0.1655188E+00
         21   -1    0    0  503  502  0.00000000000E+00  0.00000000000E+00  0.12334834195E+02  0.12334834195E+02  0.00000000000E+00 0. -1.
         21   -1    0    0  501  503 -0.00000000000E+00 -0.00000000000E+00 -0.13722988134E+03  0.13722988134E+03  0.00000000000E+00 0. -1.
          4    1    1    2  501    0 -0.11846686831E+02  0.22478886256E+02 -0.12126341253E+03  0.12389697146E+03  0.00000000000E+00 0. -1.
         -4    1    1    2    0  502  0.11846686831E+02 -0.22478886256E+02 -0.36316346092E+01  0.25667744079E+02  0.00000000000E+00 0.  1.
<mgrwt>
<rscale>  2 0.25409532E+02</rscale>
<asrwt>0</asrwt>
<pdfrwt beam="1">  1       21 0.18976668E-02 0.25409532E+02</pdfrwt>
<pdfrwt beam="2">  1       21 0.21112289E-01 0.25409532E+02</pdfrwt>
<totfact> 0.21664729E+07</totfact>
</mgrwt>
</event>
<event>
 4    1  0.3862688E+004  0.3264855E+02  0.7546771E-02  0.1570532E+00
         21   -1    0    0  503  502  0.00000000000E+00  0.00000000000E+00  0.89828996113E+02  0.89828996113E+02  0.00000000000E+00 0.  1.
         21   -1    0    0  501  503 -0.00000000000E+00 -0.00000000000E+00 -0.14210608328E+02  0.14210608328E+02  0.00000000000E+00 0.  1.
          2    1    1    2  501    0  0.29024482952E+02 -0.14950161486E+02  0.58938241033E+02  0.67376881756E+02  0.00000000000E+00 0. -1.
         -2    1    1    2    0  502 -0.29024482952E+02  0.14950161486E+02  0.16680146752E+02  0.36662722686E+02  0.00000000000E+00 0.  1.
<mgrwt>
<rscale>  2 0.32648552E+02</rscale>
<asrwt>0</asrwt>
<pdfrwt beam="1">  1       21 0.13819845E-01 0.32648552E+02</pdfrwt>
<pdfrwt beam="2">  1       21 0.21862475E-02 0.32648552E+02</pdfrwt>
<totfact> 0.38226759E+07</totfact>
</mgrwt>
</event>
<event>
 4    1  0.3862688E+004  0.2623466E+02  0.7546771E-02  0.1643876E+00
         21   -1    0    0  501  502  0.00000000000E+00  0.00000000000E+00  0.28728863569E+03  0.28728863569E+03  0.00000000000E+00 0. -1.
         21   -1    0    0  502  503 -0.00000000000E+00 -0.00000000000E+00 -0.34351412050E+01  0.34351412050E+01  0.00000000000E+00 0. -1.
          4    1    1    2  501    0 -0.25621799567E+02 -0.56374282077E+01  0.61965722548E+02  0.67290474666E+02  0.00000000000E+00 0.  1.
         -4    1    1    2    0  503  0.25621799567E+02  0.56374282077E+01  0.22188777194E+03  0.22343330223E+03  0.00000000000E+00 0. -1.
<mgrwt>
<rscale>  2 0.26234657E+02</rscale>
<asrwt>0</asrwt>
<pdfrwt beam="1">  1       21 0.44198233E-01 0.26234657E+02</pdfrwt>
<pdfrwt beam="2">  1       21 0.52848349E-03 0.26234657E+02</pdfrwt>
<totfact> 0.38691340E+07</totfact>
</mgrwt>
</event>
<event>
 4    1  0.3862688E+004  0.2495270E+02  0.7546771E-02  0.1661682E+00
         21   -1    0    0  503  502  0.00000000000E+00  0.00000000000E+00  0.98086150515E+01  0.98086150515E+01  0.00000000000E+00 0.  1.
         21   -1    0    0  501  503 -0.00000000000E+00 -0.00000000000E+00 -0.10524663884E+03  0.10524663884E+03  0.00000000000E+00 0.  1.
          2    1    1    2  501    0 -0.18479046906E+02 -0.16767891325E+02 -0.83959519873E+02  0.87589030885E+02  0.00000000000E+00 0. -1.
         -2    1    1    2    0  502  0.18479046906E+02  0.16767891325E+02 -0.11478503913E+02  0.27466223004E+02  0.00000000000E+00 0.  1.
<mgrwt>
<rscale>  2 0.24952702E+02</rscale>
<asrwt>0</asrwt>
<pdfrwt beam="1">  1       21 0.15090177E-02 0.24952702E+02</pdfrwt>
<pdfrwt beam="2">  1       21 0.16191790E-01 0.24952702E+02</pdfrwt>
<totfact> 0.48624495E+07</totfact>
</mgrwt>
</event>
<event>
 4    1  0.3862688E+004  0.2672508E+02  0.7546771E-02  0.1637393E+00
         21   -1    0    0  503  502  0.00000000000E+00  0.00000000000E+00  0.17033875486E+03  0.17033875486E+03  0.00000000000E+00 0.  1.
         21   -1    0    0  501  503 -0.00000000000E+00 -0.00000000000E+00 -0.47290298646E+01  0.47290298646E+01  0.00000000000E+00 0.  1.
          5    1    1    2  501    0 -0.26416897169E+02 -0.40469195725E+01  0.11227523474E+03  0.11541212393E+03  0.00000000000E+00 0.  1.
         -5    1    1    2    0  502  0.26416897169E+02  0.40469195725E+01  0.53334490254E+02  0.59655660793E+02  0.00000000000E+00 0. -1.
<mgrwt>
<rscale>  2 0.26725082E+02</rscale>
<asrwt>0</asrwt>
<pdfrwt beam="1">  1       21 0.26205957E-01 0.26725082E+02</pdfrwt>
<pdfrwt beam="2">  1       21 0.72754319E-03 0.26725082E+02</pdfrwt>
<totfact> 0.63752480E+07</totfact>
</mgrwt>
</event>
<event>
 4    1  0.3862688E+004  0.2186753E+02  0.7546771E-02  0.1710553E+00
         21   -1    0    0  501  502  0.00000000000E+00  0.00000000000E+00  0.42527103071E+02  0.42527103071E+02  0.00000000000E+00 0. -1.
         21   -1    0    0  502  503 -0.00000000000E+00 -0.00000000000E+00 -0.11311298169E+02  0.11311298169E+02  0.00000000000E+00 0. -1.
          2    1    1    2  501    0  0.80018691154E+01  0.20350891267E+02  0.13536581127E+02  0.25718236979E+02  0.00000000000E+00 0.  1.
         -2    1    1    2    0  503 -0.80018691154E+01 -0.20350891267E+02  0.17679223775E+02  0.28120164260E+02  0.00000000000E+00 0. -1.
<mgrwt>
<rscale>  2 0.21867526E+02</rscale>
<asrwt>0</asrwt>
<pdfrwt beam="1">  1       21 0.65426312E-02 0.21867526E+02</pdfrwt>
<pdfrwt beam="2">  1       21 0.17401997E-02 0.21867526E+02</pdfrwt>
<totfact> 0.16981586E+08</totfact>
</mgrwt>
</event>
<event>
 4    1  0.3862688E+004  0.2593824E+02  0.7546771E-02  0.1647880E+00
         21   -1    0    0  501  502  0.00000000000E+00  0.00000000000E+00  0.44734622407E+01  0.44734622407E+01  0.00000000000E+00 0. -1.
         21   -1    0    0  502  503 -0.00000000000E+00 -0.00000000000E+00 -0.19351727085E+03  0.19351727085E+03  0.00000000000E+00 0. -1.
          1    1    1    2  501    0  0.14025896881E+02 -0.21818954339E+02 -0.47791575462E+02  0.54376715944E+02  0.00000000000E+00 0.  1.
         -1    1    1    2    0  503 -0.14025896881E+02  0.21818954339E+02 -0.14125223315E+03  0.14361401714E+03  0.00000000000E+00 0. -1.
<mgrwt>
<rscale>  2 0.25938245E+02</rscale>
<asrwt>0</asrwt>
<pdfrwt beam="1">  1       21 0.68822514E-03 0.25938245E+02</pdfrwt>
<pdfrwt beam="2">  1       21 0.29771880E-01 0.25938245E+02</pdfrwt>
<totfact> 0.54577285E+07</totfact>
</mgrwt>
</event>
<event>
 4    1  0.3862688E+004  0.2450197E+02  0.7546771E-02  0.1668260E+00
         21   -1    0    0  503  502  0.00000000000E+00  0.00000000000E+00  0.15708493909E+03  0.15708493909E+03  0.00000000000E+00 0.  1.
         21   -1    0    0  501  503 -0.00000000000E+00 -0.00000000000E+00 -0.42629737838E+01  0.42629737838E+01  0.00000000000E+00 0.  1.
          5    1    1    2  501    0  0.14458860266E+02  0.19780992690E+02  0.10236381252E+03  0.10525538668E+03  0.00000000000E+00 0.  1.
         -5    1    1    2    0  502 -0.14458860266E+02 -0.19780992690E+02  0.50458152789E+02  0.56092526194E+02  0.00000000000E+00 0. -1.
<mgrwt>
<rscale>  2 0.24501965E+02</rscale>
<asrwt>0</asrwt>
<pdfrwt beam="1">  1       21 0.24166909E-01 0.24501965E+02</pdfrwt>
<pdfrwt beam="2">  1       21 0.65584224E-03 0.24501965E+02</pdfrwt>
<totfact> 0.84272668E+07</totfact>
</mgrwt>
</event>
<event>
 4    1  0.3862688E+004  0.2195189E+02  0.7546771E-02  0.1709085E+00
         21   -1    0    0  501  502  0.00000000000E+00  0.00000000000E+00  0.25435146877E+03  0.25435146877E+03  0.00000000000E+00 0. -1.
         21   -1    0    0  502  503 -0.00000000000E+00 -0.00000000000E+00 -0.20144229544E+01  0.20144229544E+01  0.00000000000E+00 0. -1.
          3    1    1    2  501    0 -0.14195989698E+02  0.16743934175E+02  0.15743564338E+03  0.15895869671E+03  0.00000000000E+00 0.  1.
         -3    1    1    2    0  503  0.14195989698E+02 -0.16743934175E+02  0.94901402438E+02  0.97407195011E+02  0.00000000000E+00 0. -1.
<mgrwt>
<rscale>  2 0.21951890E+02</rscale>
<asrwt>0</asrwt>
<pdfrwt beam="1">  1       21 0.39130970E-01 0.21951890E+02</pdfrwt>
<pdfrwt beam="2">  1       21 0.30991143E-03 0.21951890E+02</pdfrwt>
<totfact> 0.10233061E+08</totfact>
</mgrwt>
</event>
<event>
 4    1  0.3862688E+004  0.2668090E+02  0.7546771E-02  0.1637970E+00
         21   -1    0    0  503  502  0.00000000000E+00  0.00000000000E+00  0.18794284170E+03  0.18794284170E+03  0.00000000000E+00 0. -1.
         21   -1    0    0  501  503 -0.00000000000E+00 -0.00000000000E+00 -0.39934516711E+01  0.39934516711E+01  0.00000000000E+00 0. -1.
          3    1    1    2  501    0 -0.14348842285E+02 -0.22494028823E+02  0.70191210542E+02  0.75091122278E+02  0.00000000000E+00 0. -1.
         -3    1    1    2    0  502  0.14348842285E+02  0.22494028823E+02  0.11375817948E+03  0.11684517109E+03  0.00000000000E+00 0.  1.
<mgrwt>
<rscale>  2 0.26680903E+02</rscale>
<asrwt>0</asrwt>
<pdfrwt beam="1">  1       21 0.28914276E-01 0.26680903E+02</pdfrwt>
<pdfrwt beam="2">  1       21 0.61437733E-03 0.26680903E+02</pdfrwt>
<totfact> 0.68633163E+07</totfact>
</mgrwt>
</event>
<event>
 4    1  0.3862688E+004  0.2697471E+02  0.7546771E-02  0.1634158E+00
         21   -1    0    0  503  502  0.00000000000E+00  0.00000000000E+00  0.68799380833E+01  0.68799380833E+01  0.00000000000E+00 0. -1.
         21   -1    0    0  501  503 -0.00000000000E+00 -0.00000000000E+00 -0.11845365730E+03  0.11845365730E+03  0.00000000000E+00 0. -1.
          5    1    1    2  501    0 -0.61641057862E+01 -0.26260977106E+02 -0.76299645835E+02  0.80927566832E+02  0.00000000000E+00 0.  1.
         -5    1    1    2    0  502  0.61641057862E+01  0.26260977106E+02 -0.35274073377E+02  0.44406028547E+02  0.00000000000E+00 0. -1.
<mgrwt>
<rscale>  2 0.26974713E+02</rscale>
<asrwt>0</asrwt>
<pdfrwt beam="1">  1       21 0.10584520E-02 0.26974713E+02</pdfrwt>
<pdfrwt beam="2">  1       21 0.18223640E-01 0.26974713E+02</pdfrwt>
<totfact> 0.69177132E+07</totfact>
</mgrwt>
</event>
<event>
 4    1  0.3862688E+004  0.2172556E+02  0.7546771E-02  0.1713042E+00
         21   -1    0    0  503  502  0.00000000000E+00  0.00000000000E+00  0.19042759663E+01  0.19042759663E+01  0.00000000000E+00 0. -1.
         21   -1    0    0  501  503 -0.00000000000E+00 -0.00000000000E+00 -0.25410605746E+03  0.25410605746E+03  0.00000000000E+00 0. -1.
          2    1    1    2  501    0 -0.20061899092E+02 -0.83378870167E+01 -0.14616443592E+03  0.14777023544E+03  0.00000000000E+00 0. -1.
         -2    1    1    2    0  502  0.20061899092E+02  0.83378870167E+01 -0.10603734558E+03  0.10824009799E+03  0.00000000000E+00 0.  1.
<mgrwt>
<rscale>  2 0.21725565E+02</rscale>
<asrwt>0</asrwt>
<pdfrwt beam="1">  1       21 0.29296558E-03 0.21725565E+02</pdfrwt>
<pdfrwt beam="2">  1       21 0.39093233E-01 0.21725565E+02</pdfrwt>
<totfact> 0.11094179E+08</totfact>
</mgrwt>
</event>
<event>
 4    1  0.3862688E+004  0.2006912E+02  0.7546771E-02  0.1743957E+00
         21   -1    0    0  503  502  0.00000000000E+00  0.00000000000E+00  0.10715139876E+02  0.10715139876E+02  0.00000000000E+00 0.  1.
         21   -1    0    0  501  503 -0.00000000000E+00 -0.00000000000E+00 -0.41260267951E+02  0.41260267951E+02  0.00000000000E+00 0.  1.
          3    1    1    2  501    0 -0.76033177867E+01  0.18573078187E+02 -0.23024664873E+02  0.30543491405E+02  0.00000000000E+00 0. -1.
         -3    1    1    2    0  502  0.76033177867E+01 -0.18573078187E+02 -0.75204632024E+01  0.21431916421E+02  0.00000000000E+00 0.  1.
<mgrwt>
<rscale>  2 0.20069122E+02</rscale>
<asrwt>0</asrwt>
<pdfrwt beam="1">  1       21 0.16484831E-02 0.20069122E+02</pdfrwt>
<pdfrwt beam="2">  1       21 0.63477335E-02 0.20069122E+02</pdfrwt>
<totfact> 0.18836305E+08</totfact>
</mgrwt>
</event>
<event>
 4    1  0.3862688E+004  0.2568713E+02  0.7546771E-02  0.1651324E+00
         21   -1    0    0  503  502  0.00000000000E+00  0.00000000000E+00  0.15364046143E+02  0.15364046143E+02  0.00000000000E+00 0. -1.
         21   -1    0    0  501  503 -0.00000000000E+00 -0.00000000000E+00 -0.47608049593E+02  0.47608049593E+02  0.00000000000E+00 0. -1.
          2    1    1    2  501    0 -0.23619339098E+02 -0.10097305539E+02 -0.25974649599E+02  0.36530961941E+02  0.00000000000E+00 0.  1.
         -2    1    1    2    0  502  0.23619339098E+02  0.10097305539E+02 -0.62693538516E+01  0.26441133794E+02  0.00000000000E+00 0. -1.
<mgrwt>
<rscale>  2 0.25687132E+02</rscale>
<asrwt>0</asrwt>
<pdfrwt beam="1">  1       21 0.23636994E-02 0.25687132E+02</pdfrwt>
<pdfrwt beam="2">  1       21 0.73243152E-02 0.25687132E+02</pdfrwt>
<totfact> 0.92543532E+07</totfact>
</mgrwt>
</event>
<event>
 4    1  0.3862688E+004  0.3734934E+02  0.7546771E-02  0.1528676E+00
         21   -1    0    0  503  502  0.00000000000E+00  0.00000000000E+00  0.82560463719E+01  0.82560463719E+01  0.00000000000E+00 0. -1.
         21   -1    0    0  501  503 -0.00000000000E+00 -0.00000000000E+00 -0.18434166210E+03  0.18434166210E+03  0.00000000000E+00 0. -1.
          2    1    1    2  501    0 -0.20994069782E+02 -0.30890492030E+02 -0.60229252773E+02  0.70869855040E+02  0.00000000000E+00 0. -1.
         -2    1    1    2    0  502  0.20994069782E+02  0.30890492030E+02 -0.11585636295E+03  0.12172785343E+03  0.00000000000E+00 0.  1.
<mgrwt>
<rscale>  2 0.37349344E+02</rscale>
<asrwt>0</asrwt>
<pdfrwt beam="1">  1       21 0.12701609E-02 0.37349344E+02</pdfrwt>
<pdfrwt beam="2">  1       21 0.28360257E-01 0.37349344E+02</pdfrwt>
<totfact> 0.25348908E+07</totfact>
</mgrwt>
</event>
<event>
 4    1  0.3862688E+004  0.2161787E+02  0.7546771E-02  0.1714946E+00
         21   -1    0    0  501  502  0.00000000000E+00  0.00000000000E+00  0.79609168584E+00  0.79609168584E+00  0.00000000000E+00 0.  1.
         21   -1    0    0  502  503 -0.00000000000E+00 -0.00000000000E+00 -0.67681163913E+03  0.67681163913E+03  0.00000000000E+00 0.  1.
          4    1    1    2  501    0  0.21586231895E+02  0.11690734532E+01 -0.46140369526E+03  0.46190984200E+03  0.00000000000E+00 0.  1.
         -4    1    1    2    0  503 -0.21586231895E+02 -0.11690734532E+01 -0.21461185218E+03  0.21569788881E+03  0.00000000000E+00 0. -1.
<mgrwt>
<rscale>  2 0.21617866E+02</rscale>
<asrwt>0</asrwt>
<pdfrwt beam="1">  1       21 0.12247553E-03 0.21617866E+02</pdfrwt>
<pdfrwt beam="2">  1       21 0.10412497E+00 0.21617866E+02</pdfrwt>
<totfact> 0.53714037E+07</totfact>
</mgrwt>
</event>
<event>
 4    1  0.3862688E+004  0.2789431E+02  0.7546771E-02  0.1622603E+00
         21   -1    0    0  503  502  0.00000000000E+00  0.00000000000E+00  0.15096446942E+03  0.15096446942E+03  0.00000000000E+00 0.  1.
         21   -1    0    0  501  503 -0.00000000000E+00 -0.00000000000E+00 -0.66659244968E+01  0.66659244968E+01  0.00000000000E+00 0.  1.
          2    1    1    2  501    0 -0.59649414245E+01  0.27249072661E+02  0.34615323400E+02  0.44455743174E+02  0.00000000000E+00 0. -1.
         -2    1    1    2    0  502  0.59649414245E+01 -0.27249072661E+02  0.10968322152E+03  0.11317465074E+03  0.00000000000E+00 0.  1.
<mgrwt>
<rscale>  2 0.27894309E+02</rscale>
<asrwt>0</asrwt>
<pdfrwt beam="1">  1       21 0.23225300E-01 0.27894309E+02</pdfrwt>
<pdfrwt beam="2">  1       21 0.10255270E-02 0.27894309E+02</pdfrwt>
<totfact> 0.47693314E+07</totfact>
</mgrwt>
</event>
<event>
 4    1  0.3862688E+004  0.2013613E+02  0.7546771E-02  0.1742634E+00
         21   -1    0    0  503  502  0.00000000000E+00  0.00000000000E+00  0.24358469228E+01  0.24358469228E+01  0.00000000000E+00 0. -1.
         21   -1    0    0  501  503 -0.00000000000E+00 -0.00000000000E+00 -0.20006190388E+03  0.20006190388E+03  0.00000000000E+00 0. -1.
          3    1    1    2  501    0  0.11816800491E+02  0.16304200401E+02 -0.14030933681E+03  0.14174686494E+03  0.00000000000E+00 0.  1.
         -3    1    1    2    0  502 -0.11816800491E+02 -0.16304200401E+02 -0.57316720149E+02  0.60750885864E+02  0.00000000000E+00 0. -1.
<mgrwt>
<rscale>  2 0.20136130E+02</rscale>
<asrwt>0</asrwt>
<pdfrwt beam="1">  1       21 0.37474575E-03 0.20136130E+02</pdfrwt>
<pdfrwt beam="2">  1       21 0.30778749E-01 0.20136130E+02</pdfrwt>
<totfact> 0.11791537E+08</totfact>
</mgrwt>
</event>
<event>
 4    1  0.3862688E+004  0.2194237E+02  0.7546771E-02  0.1709251E+00
         21   -1    0    0  503  502  0.00000000000E+00  0.00000000000E+00  0.85293636371E+02  0.85293636371E+02  0.00000000000E+00 0.  1.
         21   -1    0    0  501  503 -0.00000000000E+00 -0.00000000000E+00 -0.58338542099E+01  0.58338542099E+01  0.00000000000E+00 0.  1.
          5    1    1    2  501    0 -0.12135819533E+02  0.18280850454E+02  0.31528138709E+02  0.38412122299E+02  0.00000000000E+00 0.  1.
         -5    1    1    2    0  502  0.12135819533E+02 -0.18280850454E+02  0.47931643452E+02  0.52715368282E+02  0.00000000000E+00 0. -1.
<mgrwt>
<rscale>  2 0.21942370E+02</rscale>
<asrwt>0</asrwt>
<pdfrwt beam="1">  1       21 0.13122097E-01 0.21942370E+02</pdfrwt>
<pdfrwt beam="2">  1       21 0.89751610E-03 0.21942370E+02</pdfrwt>
<totfact> 0.14707890E+08</totfact>
</mgrwt>
</event>
<event>
 4    1  0.3862688E+004  0.2672547E+02  0.7546771E-02  0.1637388E+00
         21   -1    0    0  503  502  0.00000000000E+00  0.00000000000E+00  0.54748342866E+01  0.54748342866E+01  0.00000000000E+00 0.  1.
         21   -1    0    0  501  503 -0.00000000000E+00 -0.00000000000E+00 -0.21609251563E+03  0.21609251563E+03  0.00000000000E+00 0.  1.
          5    1    1    2  501    0  0.24360817045E+02  0.10990966325E+02 -0.17504747930E+03  0.17707588982E+03  0.00000000000E+00 0. -1.
         -5    1    1    2    0  502 -0.24360817045E+02 -0.10990966325E+02 -0.35570202051E+02  0.44491460100E+02  0.00000000000E+00 0.  1.
<mgrwt>
<rscale>  2 0.26725470E+02</rscale>
<asrwt>0</asrwt>
<pdfrwt beam="1">  1       21 0.84228228E-03 0.26725470E+02</pdfrwt>
<pdfrwt beam="2">  1       21 0.33244999E-01 0.26725470E+02</pdfrwt>
<totfact> 0.33136556E+07</totfact>
</mgrwt>
</event>
<event>
 4    1  0.3862688E+004  0.2379371E+02  0.7546771E-02  0.1678958E+00
         21   -1    0    0  501  502  0.00000000000E+00  0.00000000000E+00  0.12193500839E+01  0.12193500839E+01  0.00000000000E+00 0. -1.
         21   -1    0    0  502  503 -0.00000000000E+00 -0.00000000000E+00 -0.50109370573E+03  0.50109370573E+03  0.00000000000E+00 0. -1.
          5    1    1    2  501    0  0.65085431125E+01 -0.22886231717E+02 -0.18187767976E+03  0.18342745468E+03  0.00000000000E+00 0. -1.
         -5    1    1    2    0  503 -0.65085431125E+01  0.22886231717E+02 -0.31799667588E+03  0.31888560113E+03  0.00000000000E+00 0.  1.
<mgrwt>
<rscale>  2 0.23793712E+02</rscale>
<asrwt>0</asrwt>
<pdfrwt beam="1">  1       21 0.18759280E-03 0.23793712E+02</pdfrwt>
<pdfrwt beam="2">  1       21 0.77091143E-01 0.23793712E+02</pdfrwt>
<totfact> 0.56666190E+07</totfact>
</mgrwt>
</event>
<event>
 4    1  0.3862688E+004  0.2239217E+02  0.7546771E-02  0.1701557E+00
         21   -1    0    0  501  502  0.00000000000E+00  0.00000000000E+00  0.18996793266E+02  0.18996793266E+02  0.00000000000E+00 0. -1.
         21   -1    0    0  502  503 -0.00000000000E+00 -0.00000000000E+00 -0.32649342078E+02  0.32649342078E+02  0.00000000000E+00 0. -1.
          2    1    1    2  501    0  0.20352429201E+02  0.93374358269E+01  0.44764214020E+01  0.22835223466E+02  0.00000000000E+00 0. -1.
         -2    1    1    2    0  503 -0.20352429201E+02 -0.93374358269E+01 -0.18128970214E+02  0.28810911878E+02  0.00000000000E+00 0.  1.
<mgrwt>
<rscale>  2 0.22392166E+02</rscale>
<asrwt>0</asrwt>
<pdfrwt beam="1">  1       21 0.29225836E-02 0.22392166E+02</pdfrwt>
<pdfrwt beam="2">  1       21 0.50229756E-02 0.22392166E+02</pdfrwt>
<totfact> 0.11757584E+08</totfact>
</mgrwt>
</event>
<event>
 4    1  0.3862688E+004  0.2274949E+02  0.7546771E-02  0.1695603E+00
         21   -1    0    0  501  502  0.00000000000E+00  0.00000000000E+00  0.30229113932E+01  0.30229113932E+01  0.00000000000E+00 0. -1.
         21   -1    0    0  502  503 -0.00000000000E+00 -0.00000000000E+00 -0.18649326271E+03  0.18649326271E+03  0.00000000000E+00 0. -1.
          2    1    1    2  501    0 -0.12618126088E+02  0.18929396809E+02 -0.64604778782E+02  0.68493186603E+02  0.00000000000E+00 0. -1.
         -2    1    1    2    0  503  0.12618126088E+02 -0.18929396809E+02 -0.11886557253E+03  0.12102298750E+03  0.00000000000E+00 0.  1.
<mgrwt>
<rscale>  2 0.22749487E+02</rscale>
<asrwt>0</asrwt>
<pdfrwt beam="1">  1       21 0.46506326E-03 0.22749487E+02</pdfrwt>
<pdfrwt beam="2">  1       21 0.28691273E-01 0.22749487E+02</pdfrwt>
<totfact> 0.10098281E+08</totfact>
</mgrwt>
</event>
<event>
 4    1  0.3862688E+004  0.2336233E+02  0.7546771E-02  0.1685703E+00
         21   -1    0    0  501  502  0.00000000000E+00  0.00000000000E+00  0.32111898307E+01  0.32111898307E+01  0.00000000000E+00 0. -1.
         21   -1    0    0  502  503 -0.00000000000E+00 -0.00000000000E+00 -0.17386932293E+03  0.17386932293E+03  0.00000000000E+00 0. -1.
          5    1    1    2  501    0  0.17889628406E+02 -0.15025303729E+02 -0.72065759545E+02  0.75757984763E+02  0.00000000000E+00 0.  1.
         -5    1    1    2    0  503 -0.17889628406E+02  0.15025303729E+02 -0.98592373556E+02  0.10132252800E+03  0.00000000000E+00 0. -1.
<mgrwt>
<rscale>  2 0.23362332E+02</rscale>
<asrwt>0</asrwt>
<pdfrwt beam="1">  1       21 0.49402911E-03 0.23362332E+02</pdfrwt>
<pdfrwt beam="2">  1       21 0.26749132E-01 0.23362332E+02</pdfrwt>
<totfact> 0.10558544E+08</totfact>
</mgrwt>
</event>
<event>
 4    1  0.3862688E+004  0.3176115E+02  0.7546771E-02  0.1579399E+00
         21   -1    0    0  503  502  0.00000000000E+00  0.00000000000E+00  0.64287935070E+01  0.64287935070E+01  0.00000000000E+00 0.  1.
         21   -1    0    0  501  503 -0.00000000000E+00 -0.00000000000E+00 -0.16314596179E+03  0.16314596179E+03  0.00000000000E+00 0.  1.
          2    1    1    2  501    0  0.13941356919E+02 -0.28537850842E+02 -0.61787877944E+02  0.69473104322E+02  0.00000000000E+00 0. -1.
         -2    1    1    2    0  502 -0.13941356919E+02  0.28537850842E+02 -0.94929290336E+02  0.10010165097E+03  0.00000000000E+00 0.  1.
<mgrwt>
<rscale>  2 0.31761145E+02</rscale>
<asrwt>0</asrwt>
<pdfrwt beam="1">  1       21 0.98904531E-03 0.31761145E+02</pdfrwt>
<pdfrwt beam="2">  1       21 0.25099375E-01 0.31761145E+02</pdfrwt>
<totfact> 0.45049995E+07</totfact>
</mgrwt>
</event>
<event>
 4    1  0.3862688E+004  0.2549877E+02  0.7546771E-02  0.1653940E+00
         21   -1    0    0  501  502  0.00000000000E+00  0.00000000000E+00  0.58202059345E+01  0.58202059345E+01  0.00000000000E+00 0.  1.
         21   -1    0    0  502  503 -0.00000000000E+00 -0.00000000000E+00 -0.11909990961E+03  0.11909990961E+03  0.00000000000E+00 0.  1.
          1    1    1    2  501    0 -0.17795813948E+02 -0.18261876608E+02 -0.72196141029E+02  0.76566767665E+02  0.00000000000E+00 0.  1.
         -1    1    1    2    0  503  0.17795813948E+02  0.18261876608E+02 -0.41083562645E+02  0.48353347877E+02  0.00000000000E+00 0. -1.
<mgrwt>
<rscale>  2 0.25498767E+02</rscale>
<asrwt>0</asrwt>
<pdfrwt beam="1">  1       21 0.89541630E-03 0.25498767E+02</pdfrwt>
<pdfrwt beam="2">  1       21 0.18323063E-01 0.25498767E+02</pdfrwt>
<totfact> 0.86968958E+07</totfact>
</mgrwt>
</event>
<event>
 4    1  0.3862688E+004  0.2723712E+02  0.7546771E-02  0.1630804E+00
         21   -1    0    0  501  502  0.00000000000E+00  0.00000000000E+00  0.70983340447E+03  0.70983340447E+03  0.00000000000E+00 0.  1.
         21   -1    0    0  502  503 -0.00000000000E+00 -0.00000000000E+00 -0.12877443984E+01  0.12877443984E+01  0.00000000000E+00 0.  1.
          3    1    1    2  501    0  0.21618504196E+01 -0.27151187304E+02  0.50860862164E+03  0.50933740347E+03  0.00000000000E+00 0.  1.
         -3    1    1    2    0  503 -0.21618504196E+01  0.27151187304E+02  0.19993703843E+03  0.20178374539E+03  0.00000000000E+00 0. -1.
<mgrwt>
<rscale>  2 0.27237117E+02</rscale>
<asrwt>0</asrwt>
<pdfrwt beam="1">  1       21 0.10920483E+00 0.27237117E+02</pdfrwt>
<pdfrwt beam="2">  1       21 0.19811509E-03 0.27237117E+02</pdfrwt>
<totfact> 0.25328806E+07</totfact>
</mgrwt>
</event>
<event>
 4    1  0.3862688E+004  0.2834038E+02  0.7546771E-02  0.1617193E+00
         21   -1    0    0  501  502  0.00000000000E+00  0.00000000000E+00  0.56618033722E+02  0.56618033722E+02  0.00000000000E+00 0.  1.
         21   -1    0    0  502  503 -0.00000000000E+00 -0.00000000000E+00 -0.14918548051E+02  0.14918548051E+02  0.00000000000E+00 0.  1.
          1    1    1    2  501    0  0.79461266358E+01  0.27203605108E+02  0.12923154553E+02  0.31147792586E+02  0.00000000000E+00 0.  1.
         -1    1    1    2    0  503 -0.79461266358E+01 -0.27203605108E+02  0.28776331117E+02  0.40388789187E+02  0.00000000000E+00 0. -1.
<mgrwt>
<rscale>  2 0.28340379E+02</rscale>
<asrwt>0</asrwt>
<pdfrwt beam="1">  1       21 0.87104666E-02 0.28340379E+02</pdfrwt>
<pdfrwt beam="2">  1       21 0.22951613E-02 0.28340379E+02</pdfrwt>
<totfact> 0.74719040E+07</totfact>
</mgrwt>
</event>
<event>
 4    1  0.3862688E+004  0.2186853E+02  0.7546771E-02  0.1710536E+00
         21   -1    0    0  501  502  0.00000000000E+00  0.00000000000E+00  0.10981682373E+04  0.10981682373E+04  0.00000000000E+00 0.  1.
         21   -1    0    0  502  503 -0.00000000000E+00 -0.00000000000E+00 -0.43789537742E+00  0.43789537742E+00  0.00000000000E+00 0.  1.
          1    1    1    2  501    0 -0.21862961490E+02  0.49353517977E+00  0.50808714375E+03  0.50855754671E+03  0.00000000000E+00 0.  1.
         -1    1    1    2    0  503  0.21862961490E+02 -0.49353517977E+00  0.58964319819E+03  0.59004858599E+03  0.00000000000E+00 0. -1.
<mgrwt>
<rscale>  2 0.21868531E+02</rscale>
<asrwt>0</asrwt>
<pdfrwt beam="1">  1       21 0.16894675E+00 0.21868531E+02</pdfrwt>
<pdfrwt beam="2">  1       21 0.67369399E-04 0.21868531E+02</pdfrwt>
<totfact> 0.41174689E+07</totfact>
</mgrwt>
</event>
<event>
 4    1  0.3862688E+004  0.2843766E+02  0.7546771E-02  0.1616029E+00
         21   -1    0    0  503  502  0.00000000000E+00  0.00000000000E+00  0.24265333884E+03  0.24265333884E+03  0.00000000000E+00 0. -1.
         21   -1    0    0  501  503 -0.00000000000E+00 -0.00000000000E+00 -0.35051559150E+01  0.35051559150E+01  0.00000000000E+00 0. -1.
          3    1    1    2  501    0  0.95316981965E+01 -0.26792673831E+02  0.92276832318E+02  0.96559382890E+02  0.00000000000E+00 0. -1.
         -3    1    1    2    0  502 -0.95316981965E+01  0.26792673831E+02  0.14687135060E+03  0.14959911186E+03  0.00000000000E+00 0.  1.
<mgrwt>
<rscale>  2 0.28437662E+02</rscale>
<asrwt>0</asrwt>
<pdfrwt beam="1">  1       21 0.37331270E-01 0.28437662E+02</pdfrwt>
<pdfrwt beam="2">  1       21 0.53925495E-03 0.28437662E+02</pdfrwt>
<totfact> 0.52670851E+07</totfact>
</mgrwt>
</event>
<event>
 4    1  0.3862688E+004  0.2120367E+02  0.7546771E-02  0.1722399E+00
         21   -1    0    0  503  502  0.00000000000E+00  0.00000000000E+00  0.98872385624E+02  0.98872385624E+02  0.00000000000E+00 0.  1.
         21   -1    0    0  501  503 -0.00000000000E+00 -0.00000000000E+00 -0.46650217726E+01  0.46650217726E+01  0.00000000000E+00 0.  1.
          3    1    1    2  501    0  0.10498465121E+02 -0.18422209928E+02  0.38877546172E+02  0.44283847900E+02  0.00000000000E+00 0.  1.
         -3    1    1    2    0  502 -0.10498465121E+02  0.18422209928E+02  0.55329817679E+02  0.59253559496E+02  0.00000000000E+00 0. -1.
<mgrwt>
<rscale>  2 0.21203669E+02</rscale>
<asrwt>0</asrwt>
<pdfrwt beam="1">  1       21 0.15211135E-01 0.21203669E+02</pdfrwt>
<pdfrwt beam="2">  1       21 0.71769574E-03 0.21203669E+02</pdfrwt>
<totfact> 0.15822485E+08</totfact>
</mgrwt>
</event>
<event>
 4    1  0.3862688E+004  0.2049787E+02  0.7546771E-02  0.1735605E+00
         21   -1    0    0  501  502  0.00000000000E+00  0.00000000000E+00  0.16520013807E+03  0.16520013807E+03  0.00000000000E+00 0. -1.
         21   -1    0    0  502  503 -0.00000000000E+00 -0.00000000000E+00 -0.25434002783E+01  0.25434002783E+01  0.00000000000E+00 0. -1.
          3    1    1    2  501    0  0.17618255954E+01  0.20422016600E+02  0.81677621543E+02  0.84210430781E+02  0.00000000000E+00 0.  1.
         -3    1    1    2    0  503 -0.17618255954E+01 -0.20422016600E+02  0.80979116252E+02  0.83533107570E+02  0.00000000000E+00 0. -1.
<mgrwt>
<rscale>  2 0.20497873E+02</rscale>
<asrwt>0</asrwt>
<pdfrwt beam="1">  1       21 0.25415397E-01 0.20497873E+02</pdfrwt>
<pdfrwt beam="2">  1       21 0.39129248E-03 0.20497873E+02</pdfrwt>
<totfact> 0.15694006E+08</totfact>
</mgrwt>
</event>
<event>
 4    1  0.3862688E+004  0.2780495E+02  0.7546771E-02  0.1623702E+00
         21   -1    0    0  501  502  0.00000000000E+00  0.00000000000E+00  0.56218893905E+02  0.56218893905E+02  0.00000000000E+00 0. -1.
         21   -1    0    0  502  503 -0.00000000000E+00 -0.00000000000E+00 -0.13826773689E+02  0.13826773689E+02  0.00000000000E+00 0. -1.
          5    1    1    2  501    0 -0.12129850557E+02  0.25019627251E+02  0.23773788830E+02  0.36582892964E+02  0.00000000000E+00 0.  1.
         -5    1    1    2    0  503  0.12129850557E+02 -0.25019627251E+02  0.18618331387E+02  0.33462774630E+02  0.00000000000E+00 0. -1.
<mgrwt>
<rscale>  2 0.27804946E+02</rscale>
<asrwt>0</asrwt>
<pdfrwt beam="1">  1       21 0.86490605E-02 0.27804946E+02</pdfrwt>
<pdfrwt beam="2">  1       21 0.21271960E-02 0.27804946E+02</pdfrwt>
<totfact> 0.84649335E+07</totfact>
</mgrwt>
</event>
<event>
 4    1  0.3862688E+004  0.2097569E+02  0.7546771E-02  0.1726594E+00
         21   -1    0    0  503  502  0.00000000000E+00  0.00000000000E+00  0.65318849665E+00  0.65318849665E+00  0.00000000000E+00 0. -1.
         21   -1    0    0  501  503 -0.00000000000E+00 -0.00000000000E+00 -0.87157196420E+03  0.87157196420E+03  0.00000000000E+00 0. -1.
          1    1    1    2  501    0 -0.20967447588E+02 -0.58789895288E+00 -0.64331547503E+03  0.64365734665E+03  0.00000000000E+00 0. -1.
         -1    1    1    2    0  502  0.20967447588E+02  0.58789895288E+00 -0.22760330067E+03  0.22856780605E+03  0.00000000000E+00 0.  1.
<mgrwt>
<rscale>  2 0.20975688E+02</rscale>
<asrwt>0</asrwt>
<pdfrwt beam="1">  1       21 0.10049055E-03 0.20975688E+02</pdfrwt>
<pdfrwt beam="2">  1       21 0.13408797E+00 0.20975688E+02</pdfrwt>
<totfact> 0.40034113E+07</totfact>
</mgrwt>
</event>
<event>
 4    1  0.3862688E+004  0.2116006E+02  0.7546771E-02  0.1723197E+00
         21   -1    0    0  501  502  0.00000000000E+00  0.00000000000E+00  0.90501006210E+01  0.90501006210E+01  0.00000000000E+00 0. -1.
         21   -1    0    0  502  503 -0.00000000000E+00 -0.00000000000E+00 -0.49495371070E+02  0.49495371070E+02  0.00000000000E+00 0. -1.
          2    1    1    2  501    0 -0.20482891190E+02 -0.53102976985E+01 -0.20825508108E+02  0.29689221632E+02  0.00000000000E+00 0. -1.
         -2    1    1    2    0  503  0.20482891190E+02  0.53102976985E+01 -0.19619762341E+02  0.28856250059E+02  0.00000000000E+00 0.  1.
<mgrwt>
<rscale>  2 0.21160059E+02</rscale>
<asrwt>0</asrwt>
<pdfrwt beam="1">  1       21 0.13923232E-02 0.21160059E+02</pdfrwt>
<pdfrwt beam="2">  1       21 0.76146724E-02 0.21160059E+02</pdfrwt>
<totfact> 0.18453197E+08</totfact>
</mgrwt>
</event>
<event>
 4    1  0.3862688E+004  0.2534063E+02  0.7546771E-02  0.1656157E+00
         21   -1    0    0  501  502  0.00000000000E+00  0.00000000000E+00  0.44059610176E+02  0.44059610176E+02  0.00000000000E+00 0.  1.
         21   -1    0    0  502  503 -0.00000000000E+00 -0.00000000000E+00 -0.19164425824E+02  0.19164425824E+02  0.00000000000E+00 0.  1.
          1    1    1    2  501    0 -0.21415478216E+02 -0.13547130608E+02 -0.30229820018E+01  0.25520303194E+02  0.00000000000E+00 0. -1.
         -1    1    1    2    0  503  0.21415478216E+02  0.13547130608E+02  0.27918166354E+02  0.37703732806E+02  0.00000000000E+00 0.  1.
<mgrwt>
<rscale>  2 0.25340629E+02</rscale>
<asrwt>0</asrwt>
<pdfrwt beam="1">  1       21 0.67784015E-02 0.25340629E+02</pdfrwt>
<pdfrwt beam="2">  1       21 0.29483732E-02 0.25340629E+02</pdfrwt>
<totfact> 0.74170403E+07</totfact>
</mgrwt>
</event>
<event>
 4    1  0.3862688E+004  0.2550528E+02  0.7546771E-02  0.1653849E+00
         21   -1    0    0  501  502  0.00000000000E+00  0.00000000000E+00  0.24894773496E+01  0.24894773496E+01  0.00000000000E+00 0.  1.
         21   -1    0    0  502  503 -0.00000000000E+00 -0.00000000000E+00 -0.26406864955E+03  0.26406864955E+03  0.00000000000E+00 0.  1.
          3    1    1    2  501    0  0.16490381816E+02 -0.19457303608E+02 -0.11716132443E+03  0.11990535976E+03  0.00000000000E+00 0.  1.
         -3    1    1    2    0  503 -0.16490381816E+02  0.19457303608E+02 -0.14441784777E+03  0.14665276715E+03  0.00000000000E+00 0. -1.
<mgrwt>
<rscale>  2 0.25505281E+02</rscale>
<asrwt>0</asrwt>
<pdfrwt beam="1">  1       21 0.38299643E-03 0.25505281E+02</pdfrwt>
<pdfrwt beam="2">  1       21 0.40625955E-01 0.25505281E+02</pdfrwt>
<totfact> 0.72656470E+07</totfact>
</mgrwt>
</event>
<event>
 4    1  0.3862688E+004  0.2454124E+02  0.7546771E-02  0.1667680E+00
         21   -1    0    0  501  502  0.00000000000E+00  0.00000000000E+00  0.21863884226E+02  0.21863884226E+02  0.00000000000E+00 0. -1.
         21   -1    0    0  502  503 -0.00000000000E+00 -0.00000000000E+00 -0.45573394155E+02  0.45573394155E+02  0.00000000000E+00 0. -1.
          2    1    1    2  501    0  0.23411084475E+02 -0.73616329763E+01  0.93520548159E+01  0.26262776808E+02  0.00000000000E+00 0. -1.
         -2    1    1    2    0  503 -0.23411084475E+02  0.73616329763E+01 -0.33061564746E+02  0.41174501573E+02  0.00000000000E+00 0.  1.
<mgrwt>
<rscale>  2 0.24541241E+02</rscale>
<asrwt>0</asrwt>
<pdfrwt beam="1">  1       21 0.33636745E-02 0.24541241E+02</pdfrwt>
<pdfrwt beam="2">  1       21 0.70112914E-02 0.24541241E+02</pdfrwt>
<totfact> 0.56672176E+07</totfact>
</mgrwt>
</event>
<event>
 4    1  0.3862688E+004  0.3117426E+02  0.7546771E-02  0.1585460E+00
         21   -1    0    0  501  502  0.00000000000E+00  0.00000000000E+00  0.10771132840E+02  0.10771132840E+02  0.00000000000E+00 0. -1.
         21   -1    0    0  502  503 -0.00000000000E+00 -0.00000000000E+00 -0.10057430283E+03  0.10057430283E+03  0.00000000000E+00 0. -1.
          5    1    1    2  501    0 -0.23959217376E+02 -0.19944678849E+02 -0.27043404304E+02  0.41269601743E+02  0.00000000000E+00 0. -1.
         -5    1    1    2    0  503  0.23959217376E+02  0.19944678849E+02 -0.62759765687E+02  0.70075833928E+02  0.00000000000E+00 0.  1.
<mgrwt>
<rscale>  2 0.31174257E+02</rscale>
<asrwt>0</asrwt>
<pdfrwt beam="1">  1       21 0.16570974E-02 0.31174257E+02</pdfrwt>
<pdfrwt beam="2">  1       21 0.15472969E-01 0.31174257E+02</pdfrwt>
<totfact> 0.47891227E+07</totfact>
</mgrwt>
</event>
<event>
 4    1  0.3862688E+004  0.4064330E+02  0.7546771E-02  0.1503530E+00
         21   -1    0    0  503  502  0.00000000000E+00  0.00000000000E+00  0.80010276437E+01  0.80010276437E+01  0.00000000000E+00 0.  1.
         21   -1    0    0  501  503 -0.00000000000E+00 -0.00000000000E+00 -0.21533979422E+03  0.21533979422E+03  0.00000000000E+00 0.  1.
          4    1    1    2  501    0 -0.19205289330E+02 -0.35819471031E+02 -0.12634827383E+03  0.13272439091E+03  0.00000000000E+00 0.  1.
         -4    1    1    2    0  502  0.19205289330E+02  0.35819471031E+02 -0.80990492752E+02  0.90616430957E+02  0.00000000000E+00 0. -1.
<mgrwt>
<rscale>  2 0.40643298E+02</rscale>
<asrwt>0</asrwt>
<pdfrwt beam="1">  1       21 0.12309274E-02 0.40643298E+02</pdfrwt>
<pdfrwt beam="2">  1       21 0.33129198E-01 0.40643298E+02</pdfrwt>
<totfact> 0.20184471E+07</totfact>
</mgrwt>
</event>
<event>
 4    1  0.3862688E+004  0.2172149E+02  0.7546771E-02  0.1713114E+00
         21   -1    0    0  503  502  0.00000000000E+00  0.00000000000E+00  0.17419626190E+04  0.17419626190E+04  0.00000000000E+00 0. -1.
         21   -1    0    0  501  503 -0.00000000000E+00 -0.00000000000E+00 -0.30966363082E+00  0.30966363082E+00  0.00000000000E+00 0. -1.
          2    1    1    2  501    0 -0.11255317646E+02 -0.18577973697E+02  0.11792107729E+04  0.11794108149E+04  0.00000000000E+00 0. -1.
         -2    1    1    2    0  502  0.11255317646E+02  0.18577973697E+02  0.56244218250E+03  0.56286146780E+03  0.00000000000E+00 0.  1.
<mgrwt>
<rscale>  2 0.21721494E+02</rscale>
<asrwt>0</asrwt>
<pdfrwt beam="1">  1       21 0.26798640E+00 0.21721494E+02</pdfrwt>
<pdfrwt beam="2">  1       21 0.47641953E-04 0.21721494E+02</pdfrwt>
<totfact> 0.19729838E+07</totfact>
</mgrwt>
</event>
<event>
 4    1  0.3862688E+004  0.2200199E+02  0.7546771E-02  0.1708218E+00
         21   -1    0    0  501  502  0.00000000000E+00  0.00000000000E+00  0.80930229010E+02  0.80930229010E+02  0.00000000000E+00 0.  1.
         21   -1    0    0  502  503 -0.00000000000E+00 -0.00000000000E+00 -0.59832441559E+01  0.59832441559E+01  0.00000000000E+00 0.  1.
          3    1    1    2  501    0  0.20831088866E+02  0.70818895046E+01  0.38206842706E+02  0.44089117159E+02  0.00000000000E+00 0. -1.
         -3    1    1    2    0  503 -0.20831088866E+02 -0.70818895046E+01  0.36740142148E+02  0.42824356007E+02  0.00000000000E+00 0.  1.
<mgrwt>
<rscale>  2 0.22001987E+02</rscale>
<asrwt>0</asrwt>
<pdfrwt beam="1">  1       21 0.12450804E-01 0.22001987E+02</pdfrwt>
<pdfrwt beam="2">  1       21 0.92049916E-03 0.22001987E+02</pdfrwt>
<totfact> 0.15479852E+08</totfact>
</mgrwt>
</event>
<event>
 4    1  0.3862688E+004  0.2340528E+02  0.7546771E-02  0.1685024E+00
         21   -1    0    0  501  502  0.00000000000E+00  0.00000000000E+00  0.21844685345E+02  0.21844685345E+02  0.00000000000E+00 0. -1.
         21   -1    0    0  502  503 -0.00000000000E+00 -0.00000000000E+00 -0.26646438731E+02  0.26646438731E+02  0.00000000000E+00 0. -1.
          5    1    1    2  501    0  0.10850140459E+02  0.20738408292E+02 -0.82843593732E+01  0.24828164182E+02  0.00000000000E+00 0.  1.
         -5    1    1    2    0  503 -0.10850140459E+02 -0.20738408292E+02  0.34826059868E+01  0.23662959893E+02  0.00000000000E+00 0. -1.
<mgrwt>
<rscale>  2 0.23405280E+02</rscale>
<asrwt>0</asrwt>
<pdfrwt beam="1">  1       21 0.33607208E-02 0.23405280E+02</pdfrwt>
<pdfrwt beam="2">  1       21 0.40994521E-02 0.23405280E+02</pdfrwt>
<totfact> 0.13219915E+08</totfact>
</mgrwt>
</event>
<event>
 4    1  0.3862688E+004  0.2230495E+02  0.7546771E-02  0.1703031E+00
         21   -1    0    0  501  502  0.00000000000E+00  0.00000000000E+00  0.21183588562E+03  0.21183588562E+03  0.00000000000E+00 0.  1.
         21   -1    0    0  502  503 -0.00000000000E+00 -0.00000000000E+00 -0.32669292625E+01  0.32669292625E+01  0.00000000000E+00 0.  1.
          1    1    1    2  501    0 -0.16417595756E+02  0.15098787185E+02  0.47261067938E+02  0.52260112586E+02  0.00000000000E+00 0. -1.
         -1    1    1    2    0  503  0.16417595756E+02 -0.15098787185E+02  0.16130788842E+03  0.16284270230E+03  0.00000000000E+00 0.  1.
<mgrwt>
<rscale>  2 0.22304951E+02</rscale>
<asrwt>0</asrwt>
<pdfrwt beam="1">  1       21 0.32590125E-01 0.22304951E+02</pdfrwt>
<pdfrwt beam="2">  1       21 0.50260467E-03 0.22304951E+02</pdfrwt>
<totfact> 0.71045749E+07</totfact>
</mgrwt>
</event>
<event>
 4    1  0.3862688E+004  0.3561690E+02  0.7546771E-02  0.1543190E+00
         21   -1    0    0  503  502  0.00000000000E+00  0.00000000000E+00  0.24699685313E+02  0.24699685313E+02  0.00000000000E+00 0.  1.
         21   -1    0    0  501  503 -0.00000000000E+00 -0.00000000000E+00 -0.52549517030E+02  0.52549517030E+02  0.00000000000E+00 0.  1.
          1    1    1    2  501    0  0.35349502616E+02 -0.43561740379E+01 -0.81125158309E+01  0.36529118529E+02  0.00000000000E+00 0. -1.
         -1    1    1    2    0  502 -0.35349502616E+02  0.43561740379E+01 -0.19737315885E+02  0.40720083814E+02  0.00000000000E+00 0.  1.
<mgrwt>
<rscale>  2 0.35616900E+02</rscale>
<asrwt>0</asrwt>
<pdfrwt beam="1">  1       21 0.37999516E-02 0.35616900E+02</pdfrwt>
<pdfrwt beam="2">  1       21 0.80845410E-02 0.35616900E+02</pdfrwt>
<totfact> 0.40182869E+07</totfact>
</mgrwt>
</event>
<event>
 4    1  0.3862688E+004  0.2037850E+02  0.7546771E-02  0.1737904E+00
         21   -1    0    0  503  502  0.00000000000E+00  0.00000000000E+00  0.11369554218E+02  0.11369554218E+02  0.00000000000E+00 0.  1.
         21   -1    0    0  501  503 -0.00000000000E+00 -0.00000000000E+00 -0.36526991145E+02  0.36526991145E+02  0.00000000000E+00 0.  1.
          5    1    1    2  501    0 -0.50254677824E+00  0.20372303419E+02 -0.12448353643E+02  0.23879799168E+02  0.00000000000E+00 0.  1.
         -5    1    1    2    0  502  0.50254677824E+00 -0.20372303419E+02 -0.12709083284E+02  0.24016746195E+02  0.00000000000E+00 0. -1.
<mgrwt>
<rscale>  2 0.20378501E+02</rscale>
<asrwt>0</asrwt>
<pdfrwt beam="1">  1       21 0.17491622E-02 0.20378501E+02</pdfrwt>
<pdfrwt beam="2">  1       21 0.56195372E-02 0.20378501E+02</pdfrwt>
<totfact> 0.21020498E+08</totfact>
</mgrwt>
</event>
<event>
 4    1  0.3862688E+004  0.2269830E+02  0.7546771E-02  0.1696448E+00
         21   -1    0    0  501  502  0.00000000000E+00  0.00000000000E+00  0.17195164244E+04  0.17195164244E+04  0.00000000000E+00 0.  1.
         21   -1    0    0  502  503 -0.00000000000E+00 -0.00000000000E+00 -0.30183649830E+00  0.30183649830E+00  0.00000000000E+00 0.  1.
          5    1    1    2  501    0  0.16272397789E+02 -0.15824730242E+02  0.78602999425E+03  0.78635765710E+03  0.00000000000E+00 0. -1.
         -5    1    1    2    0  503 -0.16272397789E+02  0.15824730242E+02  0.93318459361E+03  0.93346060376E+03  0.00000000000E+00 0.  1.
<mgrwt>
<rscale>  2 0.22698304E+02</rscale>
<asrwt>0</asrwt>
<pdfrwt beam="1">  1       21 0.26453314E+00 0.22698304E+02</pdfrwt>
<pdfrwt beam="2">  1       21 0.46437761E-04 0.22698304E+02</pdfrwt>
<totfact> 0.21343519E+07</totfact>
</mgrwt>
</event>
<event>
 4    1  0.3862688E+004  0.2971292E+02  0.7546771E-02  0.1601284E+00
         21   -1    0    0  503  502  0.00000000000E+00  0.00000000000E+00  0.10737098740E+03  0.10737098740E+03  0.00000000000E+00 0. -1.
         21   -1    0    0  501  503 -0.00000000000E+00 -0.00000000000E+00 -0.82256806865E+01  0.82256806865E+01  0.00000000000E+00 0. -1.
          4    1    1    2  501    0  0.93254469253E+01 -0.28211591851E+02  0.50709321122E+02  0.58773234757E+02  0.00000000000E+00 0.  1.
         -4    1    1    2    0  502 -0.93254469253E+01  0.28211591851E+02  0.48435985588E+02  0.56823433327E+02  0.00000000000E+00 0. -1.
<mgrwt>
<rscale>  2 0.29712924E+02</rscale>
<asrwt>0</asrwt>
<pdfrwt beam="1">  1       21 0.16518612E-01 0.29712924E+02</pdfrwt>
<pdfrwt beam="2">  1       21 0.12654894E-02 0.29712924E+02</pdfrwt>
<totfact> 0.63996311E+07</totfact>
</mgrwt>
</event>
<event>
 4    1  0.3862688E+004  0.2471948E+02  0.7546771E-02  0.1665064E+00
         21   -1    0    0  503  502  0.00000000000E+00  0.00000000000E+00  0.84977051069E+01  0.84977051069E+01  0.00000000000E+00 0.  1.
         21   -1    0    0  501  503 -0.00000000000E+00 -0.00000000000E+00 -0.73394768455E+02  0.73394768455E+02  0.00000000000E+00 0.  1.
          4    1    1    2  501    0  0.23278835784E+02 -0.83155590302E+01 -0.26620691902E+02  0.36327867468E+02  0.00000000000E+00 0. -1.
         -4    1    1    2    0  502 -0.23278835784E+02  0.83155590302E+01 -0.38276371446E+02  0.45564606094E+02  0.00000000000E+00 0.  1.
<mgrwt>
<rscale>  2 0.24719481E+02</rscale>
<asrwt>0</asrwt>
<pdfrwt beam="1">  1       21 0.13073392E-02 0.24719481E+02</pdfrwt>
<pdfrwt beam="2">  1       21 0.11291503E-01 0.24719481E+02</pdfrwt>
<totfact> 0.11115835E+08</totfact>
</mgrwt>
</event>
<event>
 4    1  0.3862688E+004  0.2796283E+02  0.7546771E-02  0.1621764E+00
         21   -1    0    0  501  502  0.00000000000E+00  0.00000000000E+00  0.21161195211E+03  0.21161195211E+03  0.00000000000E+00 0. -1.
         21   -1    0    0  502  503 -0.00000000000E+00 -0.00000000000E+00 -0.36958724555E+01  0.36958724555E+01  0.00000000000E+00 0. -1.
          3    1    1    2  501    0 -0.27935464763E+02 -0.12368916894E+01  0.10554844741E+03  0.10918971949E+03  0.00000000000E+00 0.  1.
         -3    1    1    2    0  503  0.27935464763E+02  0.12368916894E+01  0.10236763225E+03  0.10611810507E+03  0.00000000000E+00 0. -1.
<mgrwt>
<rscale>  2 0.27962834E+02</rscale>
<asrwt>0</asrwt>
<pdfrwt beam="1">  1       21 0.32555675E-01 0.27962834E+02</pdfrwt>
<pdfrwt beam="2">  1       21 0.56859593E-03 0.27962834E+02</pdfrwt>
<totfact> 0.62618013E+07</totfact>
</mgrwt>
</event>
<event>
 4    1  0.3862688E+004  0.2028789E+02  0.7546771E-02  0.1739663E+00
         21   -1    0    0  501  502  0.00000000000E+00  0.00000000000E+00  0.11323431561E+03  0.11323431561E+03  0.00000000000E+00 0. -1.
         21   -1    0    0  502  503 -0.00000000000E+00 -0.00000000000E+00 -0.36885690486E+01  0.36885690486E+01  0.00000000000E+00 0. -1.
          3    1    1    2  501    0  0.29004159333E+01 -0.20079493206E+02  0.61822946733E+02  0.65066698109E+02  0.00000000000E+00 0. -1.
         -3    1    1    2    0  503 -0.29004159333E+01  0.20079493206E+02  0.47722799823E+02  0.51856186545E+02  0.00000000000E+00 0.  1.
<mgrwt>
<rscale>  2 0.20287889E+02</rscale>
<asrwt>0</asrwt>
<pdfrwt beam="1">  1       21 0.17420661E-01 0.20287889E+02</pdfrwt>
<pdfrwt beam="2">  1       21 0.56747225E-03 0.20287889E+02</pdfrwt>
<totfact> 0.17528335E+08</totfact>
</mgrwt>
</event>
<event>
 4    1  0.3862688E+004  0.2483965E+02  0.7546771E-02  0.1663316E+00
         21   -1    0    0  503  502  0.00000000000E+00  0.00000000000E+00  0.15979249661E+02  0.15979249661E+02  0.00000000000E+00 0. -1.
         21   -1    0    0  501  503 -0.00000000000E+00 -0.00000000000E+00 -0.39960306891E+02  0.39960306891E+02  0.00000000000E+00 0. -1.
          5    1    1    2  501    0 -0.35880870469E+01  0.24579136388E+02 -0.17126141462E+02  0.30171394327E+02  0.00000000000E+00 0. -1.
         -5    1    1    2    0  502  0.35880870469E+01 -0.24579136388E+02 -0.68549157677E+01  0.25768162225E+02  0.00000000000E+00 0.  1.
<mgrwt>
<rscale>  2 0.24839652E+02</rscale>
<asrwt>0</asrwt>
<pdfrwt beam="1">  1       21 0.24583461E-02 0.24839652E+02</pdfrwt>
<pdfrwt beam="2">  1       21 0.61477394E-02 0.24839652E+02</pdfrwt>
<totfact> 0.11465765E+08</totfact>
</mgrwt>
</event>
<event>
 4    1  0.3862688E+004  0.2462353E+02  0.7546771E-02  0.1666469E+00
         21   -1    0    0  501  502  0.00000000000E+00  0.00000000000E+00  0.15880125132E+02  0.15880125132E+02  0.00000000000E+00 0.  1.
         21   -1    0    0  502  503 -0.00000000000E+00 -0.00000000000E+00 -0.47643496569E+02  0.47643496569E+02  0.00000000000E+00 0.  1.
          3    1    1    2  501    0 -0.40024220284E+01 -0.24296062175E+02 -0.30036618444E+02  0.38839624958E+02  0.00000000000E+00 0.  1.
         -3    1    1    2    0  503  0.40024220284E+01  0.24296062175E+02 -0.17267529937E+01  0.24683996743E+02  0.00000000000E+00 0. -1.
<mgrwt>
<rscale>  2 0.24623526E+02</rscale>
<asrwt>0</asrwt>
<pdfrwt beam="1">  1       21 0.24430962E-02 0.24623526E+02</pdfrwt>
<pdfrwt beam="2">  1       21 0.73297686E-02 0.24623526E+02</pdfrwt>
<totfact> 0.86856517E+07</totfact>
</mgrwt>
</event>
<event>
 4    1  0.3862688E+004  0.2071446E+02  0.7546771E-02  0.1731482E+00
         21   -1    0    0  501  502  0.00000000000E+00  0.00000000000E+00  0.52999343728E+02  0.52999343728E+02  0.00000000000E+00 0. -1.
         21   -1    0    0  502  503 -0.00000000000E+00 -0.00000000000E+00 -0.94459233506E+01  0.94459233506E+01  0.00000000000E+00 0. -1.
          2    1    1    2  501    0  0.16827898268E+02  0.12079349257E+02  0.99739602514E+01  0.22990622473E+02  0.00000000000E+00 0. -1.
         -2    1    1    2    0  503 -0.16827898268E+02 -0.12079349257E+02  0.33579460126E+02  0.39454644606E+02  0.00000000000E+00 0.  1.
<mgrwt>
<rscale>  2 0.20714460E+02</rscale>
<asrwt>0</asrwt>
<pdfrwt beam="1">  1       21 0.81537450E-02 0.20714460E+02</pdfrwt>
<pdfrwt beam="2">  1       21 0.14532190E-02 0.20714460E+02</pdfrwt>
<totfact> 0.15375656E+08</totfact>
</mgrwt>
</event>
<event>
 4    1  0.3862688E+004  0.2066596E+02  0.7546771E-02  0.1732400E+00
         21   -1    0    0  501  502  0.00000000000E+00  0.00000000000E+00  0.16404669116E+03  0.16404669116E+03  0.00000000000E+00 0. -1.
         21   -1    0    0  502  503 -0.00000000000E+00 -0.00000000000E+00 -0.30034722000E+01  0.30034722000E+01  0.00000000000E+00 0. -1.
          2    1    1    2  501    0  0.14568991547E+02  0.14656954140E+02  0.11100515477E+03  0.11291247144E+03  0.00000000000E+00 0. -1.
         -2    1    1    2    0  503 -0.14568991547E+02 -0.14656954140E+02  0.50038064184E+02  0.54137691922E+02  0.00000000000E+00 0.  1.
<mgrwt>
<rscale>  2 0.20665958E+02</rscale>
<asrwt>0</asrwt>
<pdfrwt beam="1">  1       21 0.25237945E-01 0.20665958E+02</pdfrwt>
<pdfrwt beam="2">  1       21 0.46207277E-03 0.20665958E+02</pdfrwt>
<totfact> 0.12488415E+08</totfact>
</mgrwt>
</event>
<event>
 4    1  0.3862688E+004  0.2078530E+02  0.7546771E-02  0.1730148E+00
         21   -1    0    0  501  502  0.00000000000E+00  0.00000000000E+00  0.74593639281E+00  0.74593639281E+00  0.00000000000E+00 0.  1.
         21   -1    0    0  502  503 -0.00000000000E+00 -0.00000000000E+00 -0.58828580603E+03  0.58828580603E+03  0.00000000000E+00 0.  1.
          1    1    1    2  501    0 -0.11612726991E+02  0.17238708403E+02 -0.25712045397E+03  0.25795921450E+03  0.00000000000E+00 0. -1.
         -1    1    1    2    0  503  0.11612726991E+02 -0.17238708403E+02 -0.33041941567E+03  0.33107252792E+03  0.00000000000E+00 0.  1.
<mgrwt>
<rscale>  2 0.20785295E+02</rscale>
<asrwt>0</asrwt>
<pdfrwt beam="1">  1       21 0.11475958E-03 0.20785295E+02</pdfrwt>
<pdfrwt beam="2">  1       21 0.90505406E-01 0.20785295E+02</pdfrwt>
<totfact> 0.79098276E+07</totfact>
</mgrwt>
</event>
<event>
 4    1  0.3862688E+004  0.2226313E+02  0.7546771E-02  0.1703741E+00
         21   -1    0    0  503  502  0.00000000000E+00  0.00000000000E+00  0.19277124100E+02  0.19277124100E+02  0.00000000000E+00 0.  1.
         21   -1    0    0  501  503 -0.00000000000E+00 -0.00000000000E+00 -0.30455556869E+02  0.30455556869E+02  0.00000000000E+00 0.  1.
          5    1    1    2  501    0 -0.21535363343E+02  0.56458191292E+01  0.42247720284E+01  0.22660446744E+02  0.00000000000E+00 0. -1.
         -5    1    1    2    0  502  0.21535363343E+02 -0.56458191292E+01 -0.15403204797E+02  0.27072234225E+02  0.00000000000E+00 0.  1.
<mgrwt>
<rscale>  2 0.22263134E+02</rscale>
<asrwt>0</asrwt>
<pdfrwt beam="1">  1       21 0.29657114E-02 0.22263134E+02</pdfrwt>
<pdfrwt beam="2">  1       21 0.46854703E-02 0.22263134E+02</pdfrwt>
<totfact> 0.12812831E+08</totfact>
</mgrwt>
</event>
<event>
 4    1  0.3862688E+004  0.4943816E+02  0.7546771E-02  0.1448396E+00
         21   -1    0    0  503  502  0.00000000000E+00  0.00000000000E+00  0.37399940336E+01  0.37399940336E+01  0.00000000000E+00 0.  1.
         21   -1    0    0  501  503 -0.00000000000E+00 -0.00000000000E+00 -0.77952428694E+03  0.77952428694E+03  0.00000000000E+00 0.  1.
          2    1    1    2  501    0 -0.68195597250E-01 -0.49438111816E+02 -0.23043235018E+03  0.23567604791E+03  0.00000000000E+00 0. -1.
         -2    1    1    2    0  502  0.68195597250E-01  0.49438111816E+02 -0.54535194273E+03  0.54758823306E+03  0.00000000000E+00 0.  1.
<mgrwt>
<rscale>  2 0.49438159E+02</rscale>
<asrwt>0</asrwt>
<pdfrwt beam="1">  1       21 0.57538354E-03 0.49438159E+02</pdfrwt>
<pdfrwt beam="2">  1       21 0.11992685E+00 0.49438159E+02</pdfrwt>
<totfact> 0.45128669E+06</totfact>
</mgrwt>
</event>
<event>
 4    1  0.3862688E+004  0.3282937E+02  0.7546771E-02  0.1568767E+00
         21   -1    0    0  503  502  0.00000000000E+00  0.00000000000E+00  0.12312820763E+03  0.12312820763E+03  0.00000000000E+00 0.  1.
         21   -1    0    0  501  503 -0.00000000000E+00 -0.00000000000E+00 -0.11185398171E+02  0.11185398171E+02  0.00000000000E+00 0.  1.
          3    1    1    2  501    0  0.89582979127E+01  0.31583480817E+02  0.24655666491E+02  0.41056902613E+02  0.00000000000E+00 0.  1.
         -3    1    1    2    0  502 -0.89582979127E+01 -0.31583480817E+02  0.87287142972E+02  0.93256703192E+02  0.00000000000E+00 0. -1.
<mgrwt>
<rscale>  2 0.32829367E+02</rscale>
<asrwt>0</asrwt>
<pdfrwt beam="1">  1       21 0.18942800E-01 0.32829367E+02</pdfrwt>
<pdfrwt beam="2">  1       21 0.17208306E-02 0.32829367E+02</pdfrwt>
<totfact> 0.32078010E+07</totfact>
</mgrwt>
</event>
<event>
 4    1  0.3862688E+004  0.2834626E+02  0.7546771E-02  0.1617122E+00
         21   -1    0    0  503  502  0.00000000000E+00  0.00000000000E+00  0.97478817743E+02  0.97478817743E+02  0.00000000000E+00 0.  1.
         21   -1    0    0  501  503 -0.00000000000E+00 -0.00000000000E+00 -0.87647493279E+01  0.87647493279E+01  0.00000000000E+00 0.  1.
          5    1    1    2  501    0 -0.18320101911E+02  0.21630632563E+02  0.31395218351E+02  0.42298583126E+02  0.00000000000E+00 0. -1.
         -5    1    1    2    0  502  0.18320101911E+02 -0.21630632563E+02  0.57318850064E+02  0.63944983945E+02  0.00000000000E+00 0.  1.
<mgrwt>
<rscale>  2 0.28346259E+02</rscale>
<asrwt>0</asrwt>
<pdfrwt beam="1">  1       21 0.14996740E-01 0.28346259E+02</pdfrwt>
<pdfrwt beam="2">  1       21 0.13484230E-02 0.28346259E+02</pdfrwt>
<totfact> 0.67877219E+07</totfact>
</mgrwt>
</event>
<event>
 4    1  0.3862688E+004  0.2822833E+02  0.7546771E-02  0.1618540E+00
         21   -1    0    0  503  502  0.00000000000E+00  0.00000000000E+00  0.13960215384E+03  0.13960215384E+03  0.00000000000E+00 0. -1.
         21   -1    0    0  501  503 -0.00000000000E+00 -0.00000000000E+00 -0.62482183605E+01  0.62482183605E+01  0.00000000000E+00 0. -1.
          4    1    1    2  501    0 -0.12561928397E+02  0.25279170897E+02  0.88121399530E+02  0.92532262381E+02  0.00000000000E+00 0. -1.
         -4    1    1    2    0  502  0.12561928397E+02 -0.25279170897E+02  0.45232535951E+02  0.53318109820E+02  0.00000000000E+00 0.  1.
<mgrwt>
<rscale>  2 0.28228328E+02</rscale>
<asrwt>0</asrwt>
<pdfrwt beam="1">  1       21 0.21477252E-01 0.28228328E+02</pdfrwt>
<pdfrwt beam="2">  1       21 0.96126447E-03 0.28228328E+02</pdfrwt>
<totfact> 0.60609580E+07</totfact>
</mgrwt>
</event>
<event>
 4    1  0.3862688E+004  0.5159894E+02  0.7546771E-02  0.1436903E+00
         21   -1    0    0  503  502  0.00000000000E+00  0.00000000000E+00  0.22977479819E+02  0.22977479819E+02  0.00000000000E+00 0. -1.
         21   -1    0    0  501  503 -0.00000000000E+00 -0.00000000000E+00 -0.11765779175E+03  0.11765779175E+03  0.00000000000E+00 0. -1.
          2    1    1    2  501    0  0.36397738747E+02  0.36573964238E+02 -0.56002784968E+02  0.76149603874E+02  0.00000000000E+00 0. -1.
         -2    1    1    2    0  502 -0.36397738747E+02 -0.36573964238E+02 -0.38677526960E+02  0.64485667692E+02  0.00000000000E+00 0.  1.
<mgrwt>
<rscale>  2 0.51598936E+02</rscale>
<asrwt>0</asrwt>
<pdfrwt beam="1">  1       21 0.35349969E-02 0.51598936E+02</pdfrwt>
<pdfrwt beam="2">  1       21 0.18101198E-01 0.51598936E+02</pdfrwt>
<totfact> 0.11980350E+07</totfact>
</mgrwt>
</event>
<event>
 4    1  0.3862688E+004  0.3120907E+02  0.7546771E-02  0.1585096E+00
         21   -1    0    0  503  502  0.00000000000E+00  0.00000000000E+00  0.13060492177E+03  0.13060492177E+03  0.00000000000E+00 0. -1.
         21   -1    0    0  501  503 -0.00000000000E+00 -0.00000000000E+00 -0.76337369672E+01  0.76337369672E+01  0.00000000000E+00 0. -1.
          1    1    1    2  501    0  0.26975468064E+02  0.15694901038E+02  0.50987883705E+02  0.59781017728E+02  0.00000000000E+00 0.  1.
         -1    1    1    2    0  502 -0.26975468064E+02 -0.15694901038E+02  0.71983301101E+02  0.78457641012E+02  0.00000000000E+00 0. -1.
<mgrwt>
<rscale>  2 0.31209066E+02</rscale>
<asrwt>0</asrwt>
<pdfrwt beam="1">  1       21 0.20093063E-01 0.31209066E+02</pdfrwt>
<pdfrwt beam="2">  1       21 0.11744212E-02 0.31209066E+02</pdfrwt>
<totfact> 0.51439288E+07</totfact>
</mgrwt>
</event>
<event>
 4    1  0.3862688E+004  0.2051112E+02  0.7546771E-02  0.1735351E+00
         21   -1    0    0  503  502  0.00000000000E+00  0.00000000000E+00  0.25559388274E+03  0.25559388274E+03  0.00000000000E+00 0.  1.
         21   -1    0    0  501  503 -0.00000000000E+00 -0.00000000000E+00 -0.18127593626E+01  0.18127593626E+01  0.00000000000E+00 0.  1.
          2    1    1    2  501    0 -0.99121467057E+01  0.17957039095E+02  0.87853864109E+02  0.90216447193E+02  0.00000000000E+00 0.  1.
         -2    1    1    2    0  502  0.99121467057E+01 -0.17957039095E+02  0.16592725926E+03  0.16719019490E+03  0.00000000000E+00 0. -1.
<mgrwt>
<rscale>  2 0.20511117E+02</rscale>
<asrwt>0</asrwt>
<pdfrwt beam="1">  1       21 0.39322107E-01 0.20511117E+02</pdfrwt>
<pdfrwt beam="2">  1       21 0.27888626E-03 0.20511117E+02</pdfrwt>
<totfact> 0.11600739E+08</totfact>
</mgrwt>
</event>
<event>
 4    1  0.3862688E+004  0.3882683E+02  0.7546771E-02  0.1517027E+00
         21   -1    0    0  503  502  0.00000000000E+00  0.00000000000E+00  0.13198084906E+03  0.13198084906E+03  0.00000000000E+00 0.  1.
         21   -1    0    0  501  503 -0.00000000000E+00 -0.00000000000E+00 -0.23479694871E+02  0.23479694871E+02  0.00000000000E+00 0.  1.
          5    1    1    2  501    0 -0.26319482617E+02  0.28544832323E+02  0.10995260542E+03  0.11660659525E+03  0.00000000000E+00 0.  1.
         -5    1    1    2    0  502  0.26319482617E+02 -0.28544832323E+02 -0.14514512269E+01  0.38853948683E+02  0.00000000000E+00 0. -1.
<mgrwt>
<rscale>  2 0.38826829E+02</rscale>
<asrwt>0</asrwt>
<pdfrwt beam="1">  1       21 0.20304746E-01 0.38826829E+02</pdfrwt>
<pdfrwt beam="2">  1       21 0.36122608E-02 0.38826829E+02</pdfrwt>
<totfact> 0.90910329E+06</totfact>
</mgrwt>
</event>
<event>
 4    1  0.3862688E+004  0.2572299E+02  0.7546771E-02  0.1650829E+00
         21   -1    0    0  503  502  0.00000000000E+00  0.00000000000E+00  0.24752857858E+04  0.24752857858E+04  0.00000000000E+00 0. -1.
         21   -1    0    0  501  503 -0.00000000000E+00 -0.00000000000E+00 -0.37468844343E+00  0.37468844343E+00  0.00000000000E+00 0. -1.
          2    1    1    2  501    0  0.25330769917E+02  0.44748416752E+01  0.19001016632E+04  0.19002757702E+04  0.00000000000E+00 0.  1.
         -2    1    1    2    0  502 -0.25330769917E+02 -0.44748416752E+01  0.57480943408E+03  0.57538470402E+03  0.00000000000E+00 0. -1.
<mgrwt>
<rscale>  2 0.25722988E+02</rscale>
<asrwt>0</asrwt>
<pdfrwt beam="1">  1       21 0.38080010E+00 0.25722988E+02</pdfrwt>
<pdfrwt beam="2">  1       21 0.57646358E-04 0.25722988E+02</pdfrwt>
<totfact> 0.41687722E+06</totfact>
</mgrwt>
</event>
<event>
 4    1  0.3862688E+004  0.2694705E+02  0.7546771E-02  0.1634514E+00
         21   -1    0    0  501  502  0.00000000000E+00  0.00000000000E+00  0.99643296740E+01  0.99643296740E+01  0.00000000000E+00 0.  1.
         21   -1    0    0  502  503 -0.00000000000E+00 -0.00000000000E+00 -0.10261253164E+03  0.10261253164E+03  0.00000000000E+00 0.  1.
          1    1    1    2  501    0  0.24316163460E+02  0.11613245544E+02 -0.16021723158E+02  0.31350261410E+02  0.00000000000E+00 0.  1.
         -1    1    1    2    0  503 -0.24316163460E+02 -0.11613245544E+02 -0.76626478811E+02  0.81226599907E+02  0.00000000000E+00 0. -1.
<mgrwt>
<rscale>  2 0.26947046E+02</rscale>
<asrwt>0</asrwt>
<pdfrwt beam="1">  1       21 0.15329737E-02 0.26947046E+02</pdfrwt>
<pdfrwt beam="2">  1       21 0.15786544E-01 0.26947046E+02</pdfrwt>
<totfact> 0.50478136E+07</totfact>
</mgrwt>
</event>
<event>
 4    1  0.3862688E+004  0.2484552E+02  0.7546771E-02  0.1663231E+00
         21   -1    0    0  501  502  0.00000000000E+00  0.00000000000E+00  0.14955750773E+02  0.14955750773E+02  0.00000000000E+00 0.  1.
         21   -1    0    0  502  503 -0.00000000000E+00 -0.00000000000E+00 -0.44608236079E+02  0.44608236079E+02  0.00000000000E+00 0.  1.
          4    1    1    2  501    0  0.71258824144E+01  0.23801711434E+02 -0.66853002350E+01  0.25729222814E+02  0.00000000000E+00 0. -1.
         -4    1    1    2    0  503 -0.71258824144E+01 -0.23801711434E+02 -0.22967185072E+02  0.33834764038E+02  0.00000000000E+00 0.  1.
<mgrwt>
<rscale>  2 0.24845516E+02</rscale>
<asrwt>0</asrwt>
<pdfrwt beam="1">  1       21 0.23008847E-02 0.24845516E+02</pdfrwt>
<pdfrwt beam="2">  1       21 0.68628056E-02 0.24845516E+02</pdfrwt>
<totfact> 0.10631967E+08</totfact>
</mgrwt>
</event>
<event>
 4    1  0.3862688E+004  0.2727963E+02  0.7546771E-02  0.1630265E+00
         21   -1    0    0  503  502  0.00000000000E+00  0.00000000000E+00  0.71000880462E+02  0.71000880462E+02  0.00000000000E+00 0.  1.
         21   -1    0    0  501  503 -0.00000000000E+00 -0.00000000000E+00 -0.14367482685E+02  0.14367482685E+02  0.00000000000E+00 0.  1.
          4    1    1    2  501    0 -0.17931437618E+02  0.20558253420E+02  0.50516077215E+02  0.57411255830E+02  0.00000000000E+00 0.  1.
         -4    1    1    2    0  502  0.17931437618E+02 -0.20558253420E+02  0.61173205616E+01  0.27957107317E+02  0.00000000000E+00 0. -1.
<mgrwt>
<rscale>  2 0.27279630E+02</rscale>
<asrwt>0</asrwt>
<pdfrwt beam="1">  1       21 0.10923212E-01 0.27279630E+02</pdfrwt>
<pdfrwt beam="2">  1       21 0.22103820E-02 0.27279630E+02</pdfrwt>
<totfact> 0.53846697E+07</totfact>
</mgrwt>
</event>
<event>
 4    1  0.3862688E+004  0.2894873E+02  0.7546771E-02  0.1610008E+00
         21   -1    0    0  503  502  0.00000000000E+00  0.00000000000E+00  0.20054459115E+02  0.20054459115E+02  0.00000000000E+00 0. -1.
         21   -1    0    0  501  503 -0.00000000000E+00 -0.00000000000E+00 -0.42218212098E+02  0.42218212098E+02  0.00000000000E+00 0. -1.
          1    1    1    2  501    0 -0.26216264839E+02 -0.12277466551E+02 -0.79374947594E+01  0.30017204234E+02  0.00000000000E+00 0. -1.
         -1    1    1    2    0  502  0.26216264839E+02  0.12277466551E+02 -0.14226258223E+02  0.32255466979E+02  0.00000000000E+00 0.  1.
<mgrwt>
<rscale>  2 0.28948726E+02</rscale>
<asrwt>0</asrwt>
<pdfrwt beam="1">  1       21 0.30853014E-02 0.28948726E+02</pdfrwt>
<pdfrwt beam="2">  1       21 0.64951095E-02 0.28948726E+02</pdfrwt>
<totfact> 0.76559531E+07</totfact>
</mgrwt>
</event>
<event>
 4    1  0.3862688E+004  0.2656361E+02  0.7546771E-02  0.1639508E+00
         21   -1    0    0  501  502  0.00000000000E+00  0.00000000000E+00  0.11324532476E+03  0.11324532476E+03  0.00000000000E+00 0. -1.
         21   -1    0    0  502  503 -0.00000000000E+00 -0.00000000000E+00 -0.65415188398E+01  0.65415188398E+01  0.00000000000E+00 0. -1.
          4    1    1    2  501    0 -0.24470901539E+02  0.10334416764E+02  0.40301513093E+02  0.48268386648E+02  0.00000000000E+00 0.  1.
         -4    1    1    2    0  503  0.24470901539E+02 -0.10334416764E+02  0.66402292823E+02  0.71518456947E+02  0.00000000000E+00 0. -1.
<mgrwt>
<rscale>  2 0.26563607E+02</rscale>
<asrwt>0</asrwt>
<pdfrwt beam="1">  1       21 0.17422356E-01 0.26563607E+02</pdfrwt>
<pdfrwt beam="2">  1       21 0.10063876E-02 0.26563607E+02</pdfrwt>
<totfact> 0.80421762E+07</totfact>
</mgrwt>
</event>
<event>
 4    1  0.3862688E+004  0.2847582E+02  0.7546771E-02  0.1615574E+00
         21   -1    0    0  501  502  0.00000000000E+00  0.00000000000E+00  0.26629607615E+03  0.26629607615E+03  0.00000000000E+00 0. -1.
         21   -1    0    0  502  503 -0.00000000000E+00 -0.00000000000E+00 -0.30498087111E+01  0.30498087111E+01  0.00000000000E+00 0. -1.
          4    1    1    2  501    0  0.28015408553E+02  0.50999040539E+01  0.12627676355E+03  0.12944764637E+03  0.00000000000E+00 0.  1.
         -4    1    1    2    0  503 -0.28015408553E+02 -0.50999040539E+01  0.13696950389E+03  0.13989823850E+03  0.00000000000E+00 0. -1.
<mgrwt>
<rscale>  2 0.28475817E+02</rscale>
<asrwt>0</asrwt>
<pdfrwt beam="1">  1       21 0.40968609E-01 0.28475817E+02</pdfrwt>
<pdfrwt beam="2">  1       21 0.46920155E-03 0.28475817E+02</pdfrwt>
<totfact> 0.54316893E+07</totfact>
</mgrwt>
</event>
<event>
 4    1  0.3862688E+004  0.2509022E+02  0.7546771E-02  0.1659709E+00
         21   -1    0    0  501  502  0.00000000000E+00  0.00000000000E+00  0.39651449049E+02  0.39651449049E+02  0.00000000000E+00 0. -1.
         21   -1    0    0  502  503 -0.00000000000E+00 -0.00000000000E+00 -0.16039821781E+02  0.16039821781E+02  0.00000000000E+00 0. -1.
          2    1    1    2  501    0 -0.25022670217E+02  0.18399316330E+01  0.14617126892E+02  0.29037557952E+02  0.00000000000E+00 0. -1.
         -2    1    1    2    0  503  0.25022670217E+02 -0.18399316330E+01  0.89945003752E+01  0.26653712879E+02  0.00000000000E+00 0.  1.
<mgrwt>
<rscale>  2 0.25090225E+02</rscale>
<asrwt>0</asrwt>
<pdfrwt beam="1">  1       21 0.61002229E-02 0.25090225E+02</pdfrwt>
<pdfrwt beam="2">  1       21 0.24676649E-02 0.25090225E+02</pdfrwt>
<totfact> 0.11573697E+08</totfact>
</mgrwt>
</event>
<event>
 4    1  0.3862688E+004  0.2313155E+02  0.7546771E-02  0.1689387E+00
         21   -1    0    0  501  502  0.00000000000E+00  0.00000000000E+00  0.70911441454E+01  0.70911441454E+01  0.00000000000E+00 0.  1.
         21   -1    0    0  502  503 -0.00000000000E+00 -0.00000000000E+00 -0.79097985064E+02  0.79097985064E+02  0.00000000000E+00 0.  1.
          2    1    1    2  501    0 -0.51254172881E+01  0.22556563163E+02 -0.26756083681E+02  0.35368862832E+02  0.00000000000E+00 0. -1.
         -2    1    1    2    0  503  0.51254172881E+01 -0.22556563163E+02 -0.45250757237E+02  0.50820266377E+02  0.00000000000E+00 0.  1.
<mgrwt>
<rscale>  2 0.23131547E+02</rscale>
<asrwt>0</asrwt>
<pdfrwt beam="1">  1       21 0.10909452E-02 0.23131547E+02</pdfrwt>
<pdfrwt beam="2">  1       21 0.12168921E-01 0.23131547E+02</pdfrwt>
<totfact> 0.12651100E+08</totfact>
</mgrwt>
</event>
<event>
 4    1  0.3862688E+004  0.2181187E+02  0.7546771E-02  0.1711526E+00
         21   -1    0    0  501  502  0.00000000000E+00  0.00000000000E+00  0.97314038671E+02  0.97314038671E+02  0.00000000000E+00 0.  1.
         21   -1    0    0  502  503 -0.00000000000E+00 -0.00000000000E+00 -0.62412495322E+01  0.62412495322E+01  0.00000000000E+00 0.  1.
          2    1    1    2  501    0 -0.15598061442E+02 -0.15246577029E+02  0.69638367468E+02  0.72974378075E+02  0.00000000000E+00 0.  1.
         -2    1    1    2    0  503  0.15598061442E+02  0.15246577029E+02  0.21434421670E+02  0.30580910127E+02  0.00000000000E+00 0. -1.
<mgrwt>
<rscale>  2 0.21811869E+02</rscale>
<asrwt>0</asrwt>
<pdfrwt beam="1">  1       21 0.14971389E-01 0.21811869E+02</pdfrwt>
<pdfrwt beam="2">  1       21 0.96019231E-03 0.21811869E+02</pdfrwt>
<totfact> 0.10620697E+08</totfact>
</mgrwt>
</event>
<event>
 4    1  0.3862688E+004  0.2594574E+02  0.7546771E-02  0.1647778E+00
         21   -1    0    0  503  502  0.00000000000E+00  0.00000000000E+00  0.43908245721E+02  0.43908245721E+02  0.00000000000E+00 0. -1.
         21   -1    0    0  501  503 -0.00000000000E+00 -0.00000000000E+00 -0.16180098055E+02  0.16180098055E+02  0.00000000000E+00 0. -1.
          4    1    1    2  501    0 -0.25767428368E+02 -0.30365823820E+01  0.69837410712E+01  0.26869198659E+02  0.00000000000E+00 0. -1.
         -4    1    1    2    0  502  0.25767428368E+02  0.30365823820E+01  0.20744406595E+02  0.33219145116E+02  0.00000000000E+00 0.  1.
<mgrwt>
<rscale>  2 0.25945736E+02</rscale>
<asrwt>0</asrwt>
<pdfrwt beam="1">  1       21 0.67551147E-02 0.25945736E+02</pdfrwt>
<pdfrwt beam="2">  1       21 0.24892459E-02 0.25945736E+02</pdfrwt>
<totfact> 0.97677679E+07</totfact>
</mgrwt>
</event>
<event>
 4    1  0.3862688E+004  0.2402288E+02  0.7546771E-02  0.1675447E+00
         21   -1    0    0  503  502  0.00000000000E+00  0.00000000000E+00  0.90833818352E+03  0.90833818352E+03  0.00000000000E+00 0.  1.
         21   -1    0    0  501  503 -0.00000000000E+00 -0.00000000000E+00 -0.64004841162E+00  0.64004841162E+00  0.00000000000E+00 0.  1.
          3    1    1    2  501    0 -0.17960734630E+02 -0.15953397602E+02  0.49285158933E+03  0.49343671123E+03  0.00000000000E+00 0. -1.
         -3    1    1    2    0  502  0.17960734630E+02  0.15953397602E+02  0.41484654578E+03  0.41554152070E+03  0.00000000000E+00 0.  1.
<mgrwt>
<rscale>  2 0.24022882E+02</rscale>
<asrwt>0</asrwt>
<pdfrwt beam="1">  1       21 0.13974330E+00 0.24022882E+02</pdfrwt>
<pdfrwt beam="2">  1       21 0.98469713E-04 0.24022882E+02</pdfrwt>
<totfact> 0.38469367E+07</totfact>
</mgrwt>
</event>
<event>
 4    1  0.3862688E+004  0.2696844E+02  0.7546771E-02  0.1634239E+00
         21   -1    0    0  503  502  0.00000000000E+00  0.00000000000E+00  0.45026401970E+03  0.45026401970E+03  0.00000000000E+00 0.  1.
         21   -1    0    0  501  503 -0.00000000000E+00 -0.00000000000E+00 -0.18616881181E+01  0.18616881181E+01  0.00000000000E+00 0.  1.
          3    1    1    2  501    0  0.35804845019E+01  0.26729702160E+02  0.14195526806E+03  0.14449427316E+03  0.00000000000E+00 0. -1.
         -3    1    1    2    0  502 -0.35804845019E+01 -0.26729702160E+02  0.30644706353E+03  0.30763143466E+03  0.00000000000E+00 0.  1.
<mgrwt>
<rscale>  2 0.26968442E+02</rscale>
<asrwt>0</asrwt>
<pdfrwt beam="1">  1       21 0.69271301E-01 0.26968442E+02</pdfrwt>
<pdfrwt beam="2">  1       21 0.28641392E-03 0.26968442E+02</pdfrwt>
<totfact> 0.39274142E+07</totfact>
</mgrwt>
</event>
<event>
 4    1  0.3862688E+004  0.3050198E+02  0.7546771E-02  0.1592605E+00
         21   -1    0    0  503  502  0.00000000000E+00  0.00000000000E+00  0.12050951563E+02  0.12050951563E+02  0.00000000000E+00 0. -1.
         21   -1    0    0  501  503 -0.00000000000E+00 -0.00000000000E+00 -0.11913452792E+03  0.11913452792E+03  0.00000000000E+00 0. -1.
          4    1    1    2  501    0  0.22963345212E+02 -0.20076251023E+02 -0.92455858697E+02  0.97357366880E+02  0.00000000000E+00 0.  1.
         -4    1    1    2    0  502 -0.22963345212E+02  0.20076251023E+02 -0.14627717665E+02  0.33828112607E+02  0.00000000000E+00 0. -1.
<mgrwt>
<rscale>  2 0.30501985E+02</rscale>
<asrwt>0</asrwt>
<pdfrwt beam="1">  1       21 0.18539926E-02 0.30501985E+02</pdfrwt>
<pdfrwt beam="2">  1       21 0.18328389E-01 0.30501985E+02</pdfrwt>
<totfact> 0.29865760E+07</totfact>
</mgrwt>
</event>
<event>
 4    1  0.3862688E+004  0.3357023E+02  0.7546771E-02  0.1561677E+00
         21   -1    0    0  503  502  0.00000000000E+00  0.00000000000E+00  0.13666518132E+03  0.13666518132E+03  0.00000000000E+00 0. -1.
         21   -1    0    0  501  503 -0.00000000000E+00 -0.00000000000E+00 -0.86788825551E+01  0.86788825551E+01  0.00000000000E+00 0. -1.
          3    1    1    2  501    0 -0.33567724525E+02  0.41030076627E+00  0.80220560985E+02  0.86961479295E+02  0.00000000000E+00 0. -1.
         -3    1    1    2    0  502  0.33567724525E+02 -0.41030076627E+00  0.47765737781E+02  0.58382584580E+02  0.00000000000E+00 0.  1.
<mgrwt>
<rscale>  2 0.33570232E+02</rscale>
<asrwt>0</asrwt>
<pdfrwt beam="1">  1       21 0.21025411E-01 0.33570232E+02</pdfrwt>
<pdfrwt beam="2">  1       21 0.13352128E-02 0.33570232E+02</pdfrwt>
<totfact> 0.39587545E+07</totfact>
</mgrwt>
</event>
<event>
 4    1  0.3862688E+004  0.2782937E+02  0.7546771E-02  0.1623401E+00
         21   -1    0    0  503  502  0.00000000000E+00  0.00000000000E+00  0.28754219560E+01  0.28754219560E+01  0.00000000000E+00 0. -1.
         21   -1    0    0  501  503 -0.00000000000E+00 -0.00000000000E+00 -0.61475333361E+03  0.61475333361E+03  0.00000000000E+00 0. -1.
          1    1    1    2  501    0  0.63547447502E+01  0.27094111283E+02 -0.74458155262E+02  0.79488933394E+02  0.00000000000E+00 0.  1.
         -1    1    1    2    0  502 -0.63547447502E+01 -0.27094111283E+02 -0.53741975639E+03  0.53813982217E+03  0.00000000000E+00 0. -1.
<mgrwt>
<rscale>  2 0.27829367E+02</rscale>
<asrwt>0</asrwt>
<pdfrwt beam="1">  1       21 0.44237329E-03 0.27829367E+02</pdfrwt>
<pdfrwt beam="2">  1       21 0.94577290E-01 0.27829367E+02</pdfrwt>
<totfact> 0.10769093E+07</totfact>
</mgrwt>
</event>
<event>
 4    1  0.3862688E+004  0.2043701E+02  0.7546771E-02  0.1736775E+00
         21   -1    0    0  501  502  0.00000000000E+00  0.00000000000E+00  0.20530473602E+03  0.20530473602E+03  0.00000000000E+00 0. -1.
         21   -1    0    0  502  503 -0.00000000000E+00 -0.00000000000E+00 -0.28220521224E+01  0.28220521224E+01  0.00000000000E+00 0. -1.
          1    1    1    2  501    0  0.15928510043E+02 -0.12804451655E+02  0.15621864366E+03  0.15754978909E+03  0.00000000000E+00 0. -1.
         -1    1    1    2    0  503 -0.15928510043E+02  0.12804451655E+02  0.46264040240E+02  0.50576999058E+02  0.00000000000E+00 0.  1.
<mgrwt>
<rscale>  2 0.20437011E+02</rscale>
<asrwt>0</asrwt>
<pdfrwt beam="1">  1       21 0.31585332E-01 0.20437011E+02</pdfrwt>
<pdfrwt beam="2">  1       21 0.43416203E-03 0.20437011E+02</pdfrwt>
<totfact> 0.91122122E+07</totfact>
</mgrwt>
</event>
<event>
 4    1  0.3862688E+004  0.2165030E+02  0.7546771E-02  0.1714371E+00
         21   -1    0    0  501  502  0.00000000000E+00  0.00000000000E+00  0.23411661593E+02  0.23411661593E+02  0.00000000000E+00 0. -1.
         21   -1    0    0  502  503 -0.00000000000E+00 -0.00000000000E+00 -0.20283788313E+02  0.20283788313E+02  0.00000000000E+00 0. -1.
          4    1    1    2  501    0 -0.11756017658E+02  0.18180527801E+02 -0.92067170571E+00  0.21669867989E+02  0.00000000000E+00 0. -1.
         -4    1    1    2    0  503  0.11756017658E+02 -0.18180527801E+02  0.40485449854E+01  0.22025581917E+02  0.00000000000E+00 0.  1.
<mgrwt>
<rscale>  2 0.21650301E+02</rscale>
<asrwt>0</asrwt>
<pdfrwt beam="1">  1       21 0.36017941E-02 0.21650301E+02</pdfrwt>
<pdfrwt beam="2">  1       21 0.31205828E-02 0.21650301E+02</pdfrwt>
<totfact> 0.17759568E+08</totfact>
</mgrwt>
</event>
<event>
 4    1  0.3862688E+004  0.2905582E+02  0.7546771E-02  0.1608766E+00
         21   -1    0    0  501  502  0.00000000000E+00  0.00000000000E+00  0.59550292624E+01  0.59550292624E+01  0.00000000000E+00 0. -1.
         21   -1    0    0  502  503 -0.00000000000E+00 -0.00000000000E+00 -0.15865018444E+03  0.15865018444E+03  0.00000000000E+00 0. -1.
          4    1    1    2  501    0  0.15946460417E+02 -0.24288908705E+02 -0.49500925777E+02  0.57398452407E+02  0.00000000000E+00 0. -1.
         -4    1    1    2    0  503 -0.15946460417E+02  0.24288908705E+02 -0.10319422940E+03  0.10720676129E+03  0.00000000000E+00 0.  1.
<mgrwt>
<rscale>  2 0.29055820E+02</rscale>
<asrwt>0</asrwt>
<pdfrwt beam="1">  1       21 0.91615842E-03 0.29055820E+02</pdfrwt>
<pdfrwt beam="2">  1       21 0.24407719E-01 0.29055820E+02</pdfrwt>
<totfact> 0.52221184E+07</totfact>
</mgrwt>
</event>
<event>
 4    1  0.3862688E+004  0.4291401E+02  0.7546771E-02  0.1487801E+00
         21   -1    0    0  501  502  0.00000000000E+00  0.00000000000E+00  0.50254328300E+01  0.50254328300E+01  0.00000000000E+00 0. -1.
         21   -1    0    0  502  503 -0.00000000000E+00 -0.00000000000E+00 -0.51967269439E+03  0.51967269439E+03  0.00000000000E+00 0. -1.
          3    1    1    2  501    0 -0.20378249012E+02  0.37766909934E+02 -0.39977416649E+03  0.40207088518E+03  0.00000000000E+00 0.  1.
         -3    1    1    2    0  503  0.20378249012E+02 -0.37766909934E+02 -0.11487309507E+03  0.12262724204E+03  0.00000000000E+00 0. -1.
<mgrwt>
<rscale>  2 0.42914013E+02</rscale>
<asrwt>0</asrwt>
<pdfrwt beam="1">  1       21 0.77314317E-03 0.42914013E+02</pdfrwt>
<pdfrwt beam="2">  1       21 0.79949681E-01 0.42914013E+02</pdfrwt>
<totfact> 0.70775789E+06</totfact>
</mgrwt>
</event>
<event>
 4    1  0.3862688E+004  0.2789938E+02  0.7546771E-02  0.1622541E+00
         21   -1    0    0  501  502  0.00000000000E+00  0.00000000000E+00  0.11609552075E+03  0.11609552075E+03  0.00000000000E+00 0.  1.
         21   -1    0    0  502  503 -0.00000000000E+00 -0.00000000000E+00 -0.69055185232E+01  0.69055185232E+01  0.00000000000E+00 0.  1.
          2    1    1    2  501    0  0.27899285085E+02  0.74113380177E-01  0.44104989085E+02  0.52188367126E+02  0.00000000000E+00 0. -1.
         -2    1    1    2    0  503 -0.27899285085E+02 -0.74113380177E-01  0.65085013139E+02  0.70812672145E+02  0.00000000000E+00 0.  1.
<mgrwt>
<rscale>  2 0.27899384E+02</rscale>
<asrwt>0</asrwt>
<pdfrwt beam="1">  1       21 0.17860848E-01 0.27899384E+02</pdfrwt>
<pdfrwt beam="2">  1       21 0.10623875E-02 0.27899384E+02</pdfrwt>
<totfact> 0.71820775E+07</totfact>
</mgrwt>
</event>
<event>
 4    1  0.3862688E+004  0.2217533E+02  0.7546771E-02  0.1705237E+00
         21   -1    0    0  503  502  0.00000000000E+00  0.00000000000E+00  0.30131695149E+03  0.30131695149E+03  0.00000000000E+00 0. -1.
         21   -1    0    0  501  503 -0.00000000000E+00 -0.00000000000E+00 -0.18172875543E+01  0.18172875543E+01  0.00000000000E+00 0. -1.
          3    1    1    2  501    0 -0.94982248055E+01 -0.20038187679E+02  0.10135132667E+03  0.10374891160E+03  0.00000000000E+00 0. -1.
         -3    1    1    2    0  502  0.94982248055E+01  0.20038187679E+02  0.19814833726E+03  0.19938532744E+03  0.00000000000E+00 0.  1.
<mgrwt>
<rscale>  2 0.22175330E+02</rscale>
<asrwt>0</asrwt>
<pdfrwt beam="1">  1       21 0.46356414E-01 0.22175330E+02</pdfrwt>
<pdfrwt beam="2">  1       21 0.27958294E-03 0.22175330E+02</pdfrwt>
<totfact> 0.86420362E+07</totfact>
</mgrwt>
</event>
<event>
 4    1  0.3862688E+004  0.2954360E+02  0.7546771E-02  0.1603189E+00
         21   -1    0    0  503  502  0.00000000000E+00  0.00000000000E+00  0.73229157765E+02  0.73229157765E+02  0.00000000000E+00 0. -1.
         21   -1    0    0  501  503 -0.00000000000E+00 -0.00000000000E+00 -0.15388196109E+02  0.15388196109E+02  0.00000000000E+00 0. -1.
          2    1    1    2  501    0 -0.17299646169E+02  0.23948831791E+02  0.78824906492E+01  0.30577082277E+02  0.00000000000E+00 0. -1.
         -2    1    1    2    0  502  0.17299646169E+02 -0.23948831791E+02  0.49958471007E+02  0.58040271597E+02  0.00000000000E+00 0.  1.
<mgrwt>
<rscale>  2 0.29543600E+02</rscale>
<asrwt>0</asrwt>
<pdfrwt beam="1">  1       21 0.11266024E-01 0.29543600E+02</pdfrwt>
<pdfrwt beam="2">  1       21 0.23674148E-02 0.29543600E+02</pdfrwt>
<totfact> 0.46809859E+07</totfact>
</mgrwt>
</event>
<event>
 4    1  0.3862688E+004  0.2558755E+02  0.7546771E-02  0.1652703E+00
         21   -1    0    0  503  502  0.00000000000E+00  0.00000000000E+00  0.52439245558E+03  0.52439245558E+03  0.00000000000E+00 0. -1.
         21   -1    0    0  501  503 -0.00000000000E+00 -0.00000000000E+00 -0.12519067899E+01  0.12519067899E+01  0.00000000000E+00 0. -1.
          2    1    1    2  501    0  0.24853337983E+02  0.60855996735E+01  0.27520771430E+03  0.27639466157E+03  0.00000000000E+00 0.  1.
         -2    1    1    2    0  502 -0.24853337983E+02 -0.60855996735E+01  0.24793283449E+03  0.24924970081E+03  0.00000000000E+00 0. -1.
<mgrwt>
<rscale>  2 0.25587554E+02</rscale>
<asrwt>0</asrwt>
<pdfrwt beam="1">  1       21 0.80675587E-01 0.25587554E+02</pdfrwt>
<pdfrwt beam="2">  1       21 0.19260146E-03 0.25587554E+02</pdfrwt>
<totfact> 0.50374019E+07</totfact>
</mgrwt>
</event>
<event>
 4    1  0.3862688E+004  0.2032716E+02  0.7546771E-02  0.1738899E+00
         21   -1    0    0  503  502  0.00000000000E+00  0.00000000000E+00  0.52305475636E+01  0.52305475636E+01  0.00000000000E+00 0. -1.
         21   -1    0    0  501  503 -0.00000000000E+00 -0.00000000000E+00 -0.10271164123E+03  0.10271164123E+03  0.00000000000E+00 0. -1.
          1    1    1    2  501    0  0.16689933428E+02 -0.11603429672E+02 -0.74674388840E+02  0.77391587441E+02  0.00000000000E+00 0.  1.
         -1    1    1    2    0  502 -0.16689933428E+02  0.11603429672E+02 -0.22806704829E+02  0.30550601355E+02  0.00000000000E+00 0. -1.
<mgrwt>
<rscale>  2 0.20327161E+02</rscale>
<asrwt>0</asrwt>
<pdfrwt beam="1">  1       21 0.80469966E-03 0.20327161E+02</pdfrwt>
<pdfrwt beam="2">  1       21 0.15801790E-01 0.20327161E+02</pdfrwt>
<totfact> 0.12355554E+08</totfact>
</mgrwt>
</event>
<event>
 4    1  0.3862688E+004  0.2895162E+02  0.7546771E-02  0.1609975E+00
         21   -1    0    0  501  502  0.00000000000E+00  0.00000000000E+00  0.69162099983E+03  0.69162099983E+03  0.00000000000E+00 0. -1.
         21   -1    0    0  502  503 -0.00000000000E+00 -0.00000000000E+00 -0.15139168189E+01  0.15139168189E+01  0.00000000000E+00 0. -1.
          4    1    1    2  501    0 -0.10955906388E+02 -0.26798594597E+02  0.49983909930E+03  0.50067686360E+03  0.00000000000E+00 0.  1.
         -4    1    1    2    0  503  0.10955906388E+02  0.26798594597E+02  0.19026798372E+03  0.19245805306E+03  0.00000000000E+00 0. -1.
<mgrwt>
<rscale>  2 0.28951624E+02</rscale>
<asrwt>0</asrwt>
<pdfrwt beam="1">  1       21 0.10640298E+00 0.28951624E+02</pdfrwt>
<pdfrwt beam="2">  1       21 0.23291083E-03 0.28951624E+02</pdfrwt>
<totfact> 0.21432889E+07</totfact>
</mgrwt>
</event>
<event>
 4    1  0.3862688E+004  0.2105509E+02  0.7546771E-02  0.1725125E+00
         21   -1    0    0  501  502  0.00000000000E+00  0.00000000000E+00  0.11472485991E+02  0.11472485991E+02  0.00000000000E+00 0.  1.
         21   -1    0    0  502  503 -0.00000000000E+00 -0.00000000000E+00 -0.38746938934E+02  0.38746938934E+02  0.00000000000E+00 0.  1.
          5    1    1    2  501    0 -0.19188379055E+02  0.86673576047E+01 -0.14945505311E+02  0.25820246079E+02  0.00000000000E+00 0.  1.
         -5    1    1    2    0  503  0.19188379055E+02 -0.86673576047E+01 -0.12328947633E+02  0.24399178846E+02  0.00000000000E+00 0. -1.
<mgrwt>
<rscale>  2 0.21055094E+02</rscale>
<asrwt>0</asrwt>
<pdfrwt beam="1">  1       21 0.17649978E-02 0.21055094E+02</pdfrwt>
<pdfrwt beam="2">  1       21 0.59610676E-02 0.21055094E+02</pdfrwt>
<totfact> 0.19069451E+08</totfact>
</mgrwt>
</event>
<event>
 4    1  0.3862688E+004  0.2505229E+02  0.7546771E-02  0.1660252E+00
         21   -1    0    0  501  502  0.00000000000E+00  0.00000000000E+00  0.10581629305E+03  0.10581629305E+03  0.00000000000E+00 0. -1.
         21   -1    0    0  502  503 -0.00000000000E+00 -0.00000000000E+00 -0.66231879884E+01  0.66231879884E+01  0.00000000000E+00 0. -1.
          2    1    1    2  501    0 -0.14618823693E+01  0.25009605561E+02  0.31424459551E+02  0.40188482535E+02  0.00000000000E+00 0. -1.
         -2    1    1    2    0  503  0.14618823693E+01 -0.25009605561E+02  0.67768645509E+02  0.72250998502E+02  0.00000000000E+00 0.  1.
<mgrwt>
<rscale>  2 0.25052295E+02</rscale>
<asrwt>0</asrwt>
<pdfrwt beam="1">  1       21 0.16279428E-01 0.25052295E+02</pdfrwt>
<pdfrwt beam="2">  1       21 0.10189521E-02 0.25052295E+02</pdfrwt>
<totfact> 0.87449372E+07</totfact>
</mgrwt>
</event>
<event>
 4    1  0.3862688E+004  0.2157499E+02  0.7546771E-02  0.1715708E+00
         21   -1    0    0  501  502  0.00000000000E+00  0.00000000000E+00  0.59262098891E+01  0.59262098891E+01  0.00000000000E+00 0.  1.
         21   -1    0    0  502  503 -0.00000000000E+00 -0.00000000000E+00 -0.82880008351E+02  0.82880008351E+02  0.00000000000E+00 0.  1.
          1    1    1    2  501    0  0.19638863078E+02  0.89328096392E+01 -0.48630820455E+02  0.53201848926E+02  0.00000000000E+00 0. -1.
         -1    1    1    2    0  503 -0.19638863078E+02 -0.89328096392E+01 -0.28322978007E+02  0.35604369314E+02  0.00000000000E+00 0.  1.
<mgrwt>
<rscale>  2 0.21574986E+02</rscale>
<asrwt>0</asrwt>
<pdfrwt beam="1">  1       21 0.91172463E-03 0.21574986E+02</pdfrwt>
<pdfrwt beam="2">  1       21 0.12750770E-01 0.21574986E+02</pdfrwt>
<totfact> 0.15000029E+08</totfact>
</mgrwt>
</event>
<event>
 4    1  0.3862688E+004  0.2034581E+02  0.7546771E-02  0.1738537E+00
         21   -1    0    0  503  502  0.00000000000E+00  0.00000000000E+00  0.12641374676E+01  0.12641374676E+01  0.00000000000E+00 0.  1.
         21   -1    0    0  501  503 -0.00000000000E+00 -0.00000000000E+00 -0.34171140557E+03  0.34171140557E+03  0.00000000000E+00 0.  1.
          5    1    1    2  501    0  0.29885991463E+01  0.20125116587E+02 -0.13519998868E+03  0.13672230608E+03  0.00000000000E+00 0. -1.
         -5    1    1    2    0  502 -0.29885991463E+01 -0.20125116587E+02 -0.20524727942E+03  0.20625323695E+03  0.00000000000E+00 0.  1.
<mgrwt>
<rscale>  2 0.20345811E+02</rscale>
<asrwt>0</asrwt>
<pdfrwt beam="1">  1       21 0.19448262E-03 0.20345811E+02</pdfrwt>
<pdfrwt beam="2">  1       21 0.52571004E-01 0.20345811E+02</pdfrwt>
<totfact> 0.11188450E+08</totfact>
</mgrwt>
</event>
<event>
 4    1  0.3862688E+004  0.2166312E+02  0.7546771E-02  0.1714144E+00
         21   -1    0    0  503  502  0.00000000000E+00  0.00000000000E+00  0.37012690592E+02  0.37012690592E+02  0.00000000000E+00 0. -1.
         21   -1    0    0  501  503 -0.00000000000E+00 -0.00000000000E+00 -0.12732650440E+02  0.12732650440E+02  0.00000000000E+00 0. -1.
          4    1    1    2  501    0  0.20376754368E+02  0.73538099676E+01  0.13751822654E+02  0.25659369944E+02  0.00000000000E+00 0.  1.
         -4    1    1    2    0  502 -0.20376754368E+02 -0.73538099676E+01  0.10528217498E+02  0.24085971089E+02  0.00000000000E+00 0. -1.
<mgrwt>
<rscale>  2 0.21663117E+02</rscale>
<asrwt>0</asrwt>
<pdfrwt beam="1">  1       21 0.56942600E-02 0.21663117E+02</pdfrwt>
<pdfrwt beam="2">  1       21 0.19588693E-02 0.21663117E+02</pdfrwt>
<totfact> 0.17658716E+08</totfact>
</mgrwt>
</event>
<event>
 4    1  0.3862688E+004  0.2089142E+02  0.7546771E-02  0.1728161E+00
         21   -1    0    0  503  502  0.00000000000E+00  0.00000000000E+00  0.12358641132E+01  0.12358641132E+01  0.00000000000E+00 0.  1.
         21   -1    0    0  501  503 -0.00000000000E+00 -0.00000000000E+00 -0.40953158774E+03  0.40953158774E+03  0.00000000000E+00 0.  1.
          3    1    1    2  501    0  0.20689534177E+02  0.28973726035E+01 -0.28035079946E+03  0.28112812444E+03  0.00000000000E+00 0. -1.
         -3    1    1    2    0  502 -0.20689534177E+02 -0.28973726035E+01 -0.12794492417E+03  0.12963932742E+03  0.00000000000E+00 0.  1.
<mgrwt>
<rscale>  2 0.20891424E+02</rscale>
<asrwt>0</asrwt>
<pdfrwt beam="1">  1       21 0.19013291E-03 0.20891424E+02</pdfrwt>
<pdfrwt beam="2">  1       21 0.63004869E-01 0.20891424E+02</pdfrwt>
<totfact> 0.81385222E+07</totfact>
</mgrwt>
</event>
<event>
 4    1  0.3862688E+004  0.2014449E+02  0.7546771E-02  0.1742470E+00
         21   -1    0    0  501  502  0.00000000000E+00  0.00000000000E+00  0.19884669955E+03  0.19884669955E+03  0.00000000000E+00 0. -1.
         21   -1    0    0  502  503 -0.00000000000E+00 -0.00000000000E+00 -0.20506993066E+01  0.20506993066E+01  0.00000000000E+00 0. -1.
          3    1    1    2  501    0 -0.18929416838E+02  0.68903972223E+01  0.10538757812E+03  0.10729558247E+03  0.00000000000E+00 0. -1.
         -3    1    1    2    0  503  0.18929416838E+02 -0.68903972223E+01  0.91408422128E+02  0.93601816390E+02  0.00000000000E+00 0.  1.
<mgrwt>
<rscale>  2 0.20144488E+02</rscale>
<asrwt>0</asrwt>
<pdfrwt beam="1">  1       21 0.30591785E-01 0.20144488E+02</pdfrwt>
<pdfrwt beam="2">  1       21 0.31549236E-03 0.20144488E+02</pdfrwt>
<totfact> 0.15317382E+08</totfact>
</mgrwt>
</event>
<event>
 4    1  0.3862688E+004  0.2267435E+02  0.7546771E-02  0.1696844E+00
         21   -1    0    0  503  502  0.00000000000E+00  0.00000000000E+00  0.94889415920E+02  0.94889415920E+02  0.00000000000E+00 0.  1.
         21   -1    0    0  501  503 -0.00000000000E+00 -0.00000000000E+00 -0.54627948924E+01  0.54627948924E+01  0.00000000000E+00 0.  1.
          1    1    1    2  501    0  0.10288568439E+02  0.20205734837E+02  0.49248653987E+02  0.54217674981E+02  0.00000000000E+00 0.  1.
         -1    1    1    2    0  502 -0.10288568439E+02 -0.20205734837E+02  0.40177967041E+02  0.46134535832E+02  0.00000000000E+00 0. -1.
<mgrwt>
<rscale>  2 0.22674355E+02</rscale>
<asrwt>0</asrwt>
<pdfrwt beam="1">  1       21 0.14598370E-01 0.22674355E+02</pdfrwt>
<pdfrwt beam="2">  1       21 0.84043006E-03 0.22674355E+02</pdfrwt>
<totfact> 0.13682662E+08</totfact>
</mgrwt>
</event>
<event>
 4    1  0.3862688E+004  0.2538317E+02  0.7546771E-02  0.1655559E+00
         21   -1    0    0  501  502  0.00000000000E+00  0.00000000000E+00  0.11349880975E+02  0.11349880975E+02  0.00000000000E+00 0. -1.
         21   -1    0    0  502  503 -0.00000000000E+00 -0.00000000000E+00 -0.72414372490E+02  0.72414372490E+02  0.00000000000E+00 0. -1.
          3    1    1    2  501    0 -0.74552879529E+01 -0.24263636216E+02 -0.11063906811E+02  0.27689626123E+02  0.00000000000E+00 0.  1.
         -3    1    1    2    0  503  0.74552879529E+01  0.24263636216E+02 -0.50000584703E+02  0.56074627342E+02  0.00000000000E+00 0. -1.
<mgrwt>
<rscale>  2 0.25383171E+02</rscale>
<asrwt>0</asrwt>
<pdfrwt beam="1">  1       21 0.17461355E-02 0.25383171E+02</pdfrwt>
<pdfrwt beam="2">  1       21 0.11140673E-01 0.25383171E+02</pdfrwt>
<totfact> 0.73619406E+07</totfact>
</mgrwt>
</event>
<event>
 4    1  0.3862688E+004  0.2453304E+02  0.7546771E-02  0.1667801E+00
         21   -1    0    0  501  502  0.00000000000E+00  0.00000000000E+00  0.12914553309E+02  0.12914553309E+02  0.00000000000E+00 0. -1.
         21   -1    0    0  502  503 -0.00000000000E+00 -0.00000000000E+00 -0.48557994747E+02  0.48557994747E+02  0.00000000000E+00 0. -1.
          4    1    1    2  501    0  0.22142869945E+02 -0.10562362901E+02 -0.23987379283E+02  0.34311289168E+02  0.00000000000E+00 0. -1.
         -4    1    1    2    0  503 -0.22142869945E+02  0.10562362901E+02 -0.11656062155E+02  0.27161258889E+02  0.00000000000E+00 0.  1.
<mgrwt>
<rscale>  2 0.24533043E+02</rscale>
<asrwt>0</asrwt>
<pdfrwt beam="1">  1       21 0.19868543E-02 0.24533043E+02</pdfrwt>
<pdfrwt beam="2">  1       21 0.74704609E-02 0.24533043E+02</pdfrwt>
<totfact> 0.11574043E+08</totfact>
</mgrwt>
</event>
<event>
 4    1  0.3862688E+004  0.3142977E+02  0.7546771E-02  0.1582802E+00
         21   -1    0    0  501  502  0.00000000000E+00  0.00000000000E+00  0.14648888813E+02  0.14648888813E+02  0.00000000000E+00 0. -1.
         21   -1    0    0  502  503 -0.00000000000E+00 -0.00000000000E+00 -0.70114307630E+02  0.70114307630E+02  0.00000000000E+00 0. -1.
          4    1    1    2  501    0  0.30306264331E+02  0.83283301351E+01 -0.36019373839E+02  0.47804037824E+02  0.00000000000E+00 0. -1.
         -4    1    1    2    0  503 -0.30306264331E+02 -0.83283301351E+01 -0.19446044978E+02  0.36959158619E+02  0.00000000000E+00 0.  1.
<mgrwt>
<rscale>  2 0.31429775E+02</rscale>
<asrwt>0</asrwt>
<pdfrwt beam="1">  1       21 0.22536752E-02 0.31429775E+02</pdfrwt>
<pdfrwt beam="2">  1       21 0.10786817E-01 0.31429775E+02</pdfrwt>
<totfact> 0.55105054E+07</totfact>
</mgrwt>
</event>
<event>
 4    1  0.3862688E+004  0.3176167E+02  0.7546771E-02  0.1579394E+00
         21   -1    0    0  503  502  0.00000000000E+00  0.00000000000E+00  0.73307038717E+02  0.73307038717E+02  0.00000000000E+00 0.  1.
         21   -1    0    0  501  503 -0.00000000000E+00 -0.00000000000E+00 -0.14847316884E+02  0.14847316884E+02  0.00000000000E+00 0.  1.
          5    1    1    2  501    0  0.14512261747E+02  0.28252391524E+02  0.17309228194E+02  0.36171988451E+02  0.00000000000E+00 0.  1.
         -5    1    1    2    0  502 -0.14512261747E+02 -0.28252391524E+02  0.41150493639E+02  0.51982367150E+02  0.00000000000E+00 0. -1.
<mgrwt>
<rscale>  2 0.31761665E+02</rscale>
<asrwt>0</asrwt>
<pdfrwt beam="1">  1       21 0.11278006E-01 0.31761665E+02</pdfrwt>
<pdfrwt beam="2">  1       21 0.22842026E-02 0.31761665E+02</pdfrwt>
<totfact> 0.50171456E+07</totfact>
</mgrwt>
</event>
<event>
 4    1  0.3862688E+004  0.2747859E+02  0.7546771E-02  0.1627758E+00
         21   -1    0    0  501  502  0.00000000000E+00  0.00000000000E+00  0.28133532209E+02  0.28133532209E+02  0.00000000000E+00 0.  1.
         21   -1    0    0  502  503 -0.00000000000E+00 -0.00000000000E+00 -0.26914170206E+02  0.26914170206E+02  0.00000000000E+00 0.  1.
          3    1    1    2  501    0 -0.25134566152E+02  0.11105253003E+02  0.20652406821E+01  0.27556093319E+02  0.00000000000E+00 0.  1.
         -3    1    1    2    0  503  0.25134566152E+02 -0.11105253003E+02 -0.84587867933E+00  0.27491609096E+02  0.00000000000E+00 0. -1.
<mgrwt>
<rscale>  2 0.27478593E+02</rscale>
<asrwt>0</asrwt>
<pdfrwt beam="1">  1       21 0.43282357E-02 0.27478593E+02</pdfrwt>
<pdfrwt beam="2">  1       21 0.41406416E-02 0.27478593E+02</pdfrwt>
<totfact> 0.91201716E+07</totfact>
</mgrwt>
</event>
<event>
 4    1  0.3862688E+004  0.2598579E+02  0.7546771E-02  0.1647233E+00
         21   -1    0    0  501  502  0.00000000000E+00  0.00000000000E+00  0.26686506754E+03  0.26686506754E+03  0.00000000000E+00 0.  1.
         21   -1    0    0  502  503 -0.00000000000E+00 -0.00000000000E+00 -0.26518532167E+01  0.26518532167E+01  0.00000000000E+00 0.  1.
          5    1    1    2  501    0 -0.24906843074E+02  0.74101425347E+01  0.16095235124E+03  0.16303656159E+03  0.00000000000E+00 0.  1.
         -5    1    1    2    0  503  0.24906843074E+02 -0.74101425347E+01  0.10326086308E+03  0.10648035917E+03  0.00000000000E+00 0. -1.
<mgrwt>
<rscale>  2 0.25985785E+02</rscale>
<asrwt>0</asrwt>
<pdfrwt beam="1">  1       21 0.41056143E-01 0.25985785E+02</pdfrwt>
<pdfrwt beam="2">  1       21 0.40797763E-03 0.25985785E+02</pdfrwt>
<totfact> 0.65173634E+07</totfact>
</mgrwt>
</event>
<event>
 4    1  0.3862688E+004  0.2014986E+02  0.7546771E-02  0.1742364E+00
         21   -1    0    0  503  502  0.00000000000E+00  0.00000000000E+00  0.22736846816E+02  0.22736846816E+02  0.00000000000E+00 0. -1.
         21   -1    0    0  501  503 -0.00000000000E+00 -0.00000000000E+00 -0.29268016326E+02  0.29268016326E+02  0.00000000000E+00 0. -1.
          5    1    1    2  501    0  0.58082007773E+01  0.19294605573E+02  0.12970271223E+02  0.23963408274E+02  0.00000000000E+00 0. -1.
         -5    1    1    2    0  502 -0.58082007773E+01 -0.19294605573E+02 -0.19501440733E+02  0.28041454869E+02  0.00000000000E+00 0.  1.
<mgrwt>
<rscale>  2 0.20149864E+02</rscale>
<asrwt>0</asrwt>
<pdfrwt beam="1">  1       21 0.34979764E-02 0.20149864E+02</pdfrwt>
<pdfrwt beam="2">  1       21 0.45027717E-02 0.20149864E+02</pdfrwt>
<totfact> 0.10241755E+08</totfact>
</mgrwt>
</event>
<event>
 4    1  0.3862688E+004  0.2209254E+02  0.7546771E-02  0.1706656E+00
         21   -1    0    0  501  502  0.00000000000E+00  0.00000000000E+00  0.10620083208E+03  0.10620083208E+03  0.00000000000E+00 0. -1.
         21   -1    0    0  502  503 -0.00000000000E+00 -0.00000000000E+00 -0.48637426204E+01  0.48637426204E+01  0.00000000000E+00 0. -1.
          3    1    1    2  501    0 -0.13158396960E+02 -0.17746459579E+02  0.63702086313E+02  0.67424298579E+02  0.00000000000E+00 0.  1.
         -3    1    1    2    0  503  0.13158396960E+02  0.17746459579E+02  0.37635003148E+02  0.43640276123E+02  0.00000000000E+00 0. -1.
<mgrwt>
<rscale>  2 0.22092538E+02</rscale>
<asrwt>0</asrwt>
<pdfrwt beam="1">  1       21 0.16338588E-01 0.22092538E+02</pdfrwt>
<pdfrwt beam="2">  1       21 0.74826817E-03 0.22092538E+02</pdfrwt>
<totfact> 0.13326335E+08</totfact>
</mgrwt>
</event>
<event>
 4    1  0.3862688E+004  0.3184105E+02  0.7546771E-02  0.1578587E+00
         21   -1    0    0  503  502  0.00000000000E+00  0.00000000000E+00  0.38037949238E+03  0.38037949238E+03  0.00000000000E+00 0.  1.
         21   -1    0    0  501  503 -0.00000000000E+00 -0.00000000000E+00 -0.33281138980E+01  0.33281138980E+01  0.00000000000E+00 0.  1.
          3    1    1    2  501    0 -0.18731671575E+02 -0.25748342218E+02  0.27413947655E+03  0.27598243649E+03  0.00000000000E+00 0.  1.
         -3    1    1    2    0  502  0.18731671575E+02  0.25748342218E+02  0.10291190193E+03  0.10772516979E+03  0.00000000000E+00 0. -1.
<mgrwt>
<rscale>  2 0.31841053E+02</rscale>
<asrwt>0</asrwt>
<pdfrwt beam="1">  1       21 0.58519887E-01 0.31841053E+02</pdfrwt>
<pdfrwt beam="2">  1       21 0.51201782E-03 0.31841053E+02</pdfrwt>
<totfact> 0.24220663E+07</totfact>
</mgrwt>
</event>
<event>
 4    1  0.3862688E+004  0.2128511E+02  0.7546771E-02  0.1720917E+00
         21   -1    0    0  501  502  0.00000000000E+00  0.00000000000E+00  0.31646824473E+02  0.31646824473E+02  0.00000000000E+00 0.  1.
         21   -1    0    0  502  503 -0.00000000000E+00 -0.00000000000E+00 -0.16746856765E+02  0.16746856765E+02  0.00000000000E+00 0.  1.
          5    1    1    2  501    0  0.21285055609E+02  0.49715381513E-01 -0.17687514121E+01  0.21358477133E+02  0.00000000000E+00 0. -1.
         -5    1    1    2    0  503 -0.21285055609E+02 -0.49715381513E-01  0.16668719120E+02  0.27035204105E+02  0.00000000000E+00 0.  1.
<mgrwt>
<rscale>  2 0.21285114E+02</rscale>
<asrwt>0</asrwt>
<pdfrwt beam="1">  1       21 0.48687422E-02 0.21285114E+02</pdfrwt>
<pdfrwt beam="2">  1       21 0.25764395E-02 0.21285114E+02</pdfrwt>
<totfact> 0.14789439E+08</totfact>
</mgrwt>
</event>
<event>
 4    1  0.3862688E+004  0.4127771E+02  0.7546771E-02  0.1499014E+00
         21   -1    0    0  503  502  0.00000000000E+00  0.00000000000E+00  0.22425080495E+03  0.22425080495E+03  0.00000000000E+00 0. -1.
         21   -1    0    0  501  503 -0.00000000000E+00 -0.00000000000E+00 -0.79008345880E+01  0.79008345880E+01  0.00000000000E+00 0. -1.
          4    1    1    2  501    0  0.17426324212E+02  0.37418884679E+02  0.13090152422E+03  0.13725545071E+03  0.00000000000E+00 0. -1.
         -4    1    1    2    0  502 -0.17426324212E+02 -0.37418884679E+02  0.85448446139E+02  0.94896188826E+02  0.00000000000E+00 0.  1.
<mgrwt>
<rscale>  2 0.41277714E+02</rscale>
<asrwt>0</asrwt>
<pdfrwt beam="1">  1       21 0.34500119E-01 0.41277714E+02</pdfrwt>
<pdfrwt beam="2">  1       21 0.12155132E-02 0.41277714E+02</pdfrwt>
<totfact> 0.19108486E+07</totfact>
</mgrwt>
</event>
<event>
 4    1  0.3862688E+004  0.2657780E+02  0.7546771E-02  0.1639322E+00
         21   -1    0    0  503  502  0.00000000000E+00  0.00000000000E+00  0.85698281550E+03  0.85698281550E+03  0.00000000000E+00 0. -1.
         21   -1    0    0  501  503 -0.00000000000E+00 -0.00000000000E+00 -0.10512396592E+01  0.10512396592E+01  0.00000000000E+00 0. -1.
          5    1    1    2  501    0 -0.25341160742E+02 -0.80127986364E+01  0.62731480605E+03  0.62787757188E+03  0.00000000000E+00 0. -1.
         -5    1    1    2    0  502  0.25341160742E+02  0.80127986364E+01  0.22861676978E+03  0.23015648328E+03  0.00000000000E+00 0.  1.
<mgrwt>
<rscale>  2 0.26577798E+02</rscale>
<asrwt>0</asrwt>
<pdfrwt beam="1">  1       21 0.13184295E+00 0.26577798E+02</pdfrwt>
<pdfrwt beam="2">  1       21 0.16172986E-03 0.26577798E+02</pdfrwt>
<totfact> 0.22012891E+07</totfact>
</mgrwt>
</event>
<event>
 4    1  0.3862688E+004  0.3787242E+02  0.7546771E-02  0.1524478E+00
         21   -1    0    0  501  502  0.00000000000E+00  0.00000000000E+00  0.11066332505E+03  0.11066332505E+03  0.00000000000E+00 0.  1.
         21   -1    0    0  502  503 -0.00000000000E+00 -0.00000000000E+00 -0.13547501972E+02  0.13547501972E+02  0.00000000000E+00 0.  1.
          2    1    1    2  501    0  0.39095052010E+00  0.37870400114E+02  0.61478792351E+02  0.72207769360E+02  0.00000000000E+00 0. -1.
         -2    1    1    2    0  503 -0.39095052010E+00 -0.37870400114E+02  0.35637030725E+02  0.52003057660E+02  0.00000000000E+00 0.  1.
<mgrwt>
<rscale>  2 0.37872418E+02</rscale>
<asrwt>0</asrwt>
<pdfrwt beam="1">  1       21 0.17025126E-01 0.37872418E+02</pdfrwt>
<pdfrwt beam="2">  1       21 0.20842311E-02 0.37872418E+02</pdfrwt>
<totfact> 0.29493437E+07</totfact>
</mgrwt>
</event>
<event>
 4    1  0.3862688E+004  0.2485311E+02  0.7546771E-02  0.1663121E+00
         21   -1    0    0  503  502  0.00000000000E+00  0.00000000000E+00  0.36134336101E+01  0.36134336101E+01  0.00000000000E+00 0. -1.
         21   -1    0    0  501  503 -0.00000000000E+00 -0.00000000000E+00 -0.20930219412E+03  0.20930219412E+03  0.00000000000E+00 0. -1.
          1    1    1    2  501    0  0.24366869422E+02 -0.48921361771E+01 -0.14842152372E+03  0.15048795973E+03  0.00000000000E+00 0.  1.
         -1    1    1    2    0  502 -0.24366869422E+02  0.48921361771E+01 -0.57267236795E+02  0.62427668001E+02  0.00000000000E+00 0. -1.
<mgrwt>
<rscale>  2 0.24853115E+02</rscale>
<asrwt>0</asrwt>
<pdfrwt beam="1">  1       21 0.55591285E-03 0.24853115E+02</pdfrwt>
<pdfrwt beam="2">  1       21 0.32200338E-01 0.24853115E+02</pdfrwt>
<totfact> 0.64301758E+07</totfact>
</mgrwt>
</event>
<event>
 4    1  0.3862688E+004  0.2128798E+02  0.7546771E-02  0.1720865E+00
         21   -1    0    0  501  502  0.00000000000E+00  0.00000000000E+00  0.18139751466E+02  0.18139751466E+02  0.00000000000E+00 0. -1.
         21   -1    0    0  502  503 -0.00000000000E+00 -0.00000000000E+00 -0.16353327257E+03  0.16353327257E+03  0.00000000000E+00 0. -1.
          3    1    1    2  501    0  0.20978459351E+02  0.36169570018E+01  0.10913910038E+02  0.23922616224E+02  0.00000000000E+00 0. -1.
         -3    1    1    2    0  503 -0.20978459351E+02 -0.36169570018E+01 -0.15630743114E+03  0.15775040781E+03  0.00000000000E+00 0.  1.
<mgrwt>
<rscale>  2 0.21287981E+02</rscale>
<asrwt>0</asrwt>
<pdfrwt beam="1">  1       21 0.27907309E-02 0.21287981E+02</pdfrwt>
<pdfrwt beam="2">  1       21 0.25158966E-01 0.21287981E+02</pdfrwt>
<totfact> 0.84598558E+06</totfact>
</mgrwt>
</event>
<event>
 4    1  0.3862688E+004  0.2865749E+02  0.7546771E-02  0.1613421E+00
         21   -1    0    0  503  502  0.00000000000E+00  0.00000000000E+00  0.49739855257E+03  0.49739855257E+03  0.00000000000E+00 0.  1.
         21   -1    0    0  501  503 -0.00000000000E+00 -0.00000000000E+00 -0.35065288155E+01  0.35065288155E+01  0.00000000000E+00 0.  1.
          3    1    1    2  501    0  0.50063789799E+01 -0.28216799436E+02  0.42912975683E+03  0.43008557264E+03  0.00000000000E+00 0. -1.
         -3    1    1    2    0  502 -0.50063789799E+01  0.28216799436E+02  0.64762266921E+02  0.70819508736E+02  0.00000000000E+00 0.  1.
<mgrwt>
<rscale>  2 0.28657488E+02</rscale>
<asrwt>0</asrwt>
<pdfrwt beam="1">  1       21 0.76522798E-01 0.28657488E+02</pdfrwt>
<pdfrwt beam="2">  1       21 0.53946637E-03 0.28657488E+02</pdfrwt>
<totfact> 0.12679971E+07</totfact>
</mgrwt>
</event>
<event>
 4    1  0.3862688E+004  0.2775502E+02  0.7546771E-02  0.1624318E+00
         21   -1    0    0  503  502  0.00000000000E+00  0.00000000000E+00  0.20722385270E+02  0.20722385270E+02  0.00000000000E+00 0. -1.
         21   -1    0    0  501  503 -0.00000000000E+00 -0.00000000000E+00 -0.39103293266E+02  0.39103293266E+02  0.00000000000E+00 0. -1.
          4    1    1    2  501    0 -0.19005439032E+01  0.27689876396E+02 -0.25467534365E+01  0.27871621320E+02  0.00000000000E+00 0.  1.
         -4    1    1    2    0  502  0.19005439032E+01 -0.27689876396E+02 -0.15834154559E+02  0.31954057216E+02  0.00000000000E+00 0. -1.
<mgrwt>
<rscale>  2 0.27755023E+02</rscale>
<asrwt>0</asrwt>
<pdfrwt beam="1">  1       21 0.31880593E-02 0.27755023E+02</pdfrwt>
<pdfrwt beam="2">  1       21 0.60158912E-02 0.27755023E+02</pdfrwt>
<totfact> 0.81480827E+07</totfact>
</mgrwt>
</event>
<event>
 4    1  0.3862688E+004  0.3820686E+02  0.7546771E-02  0.1521837E+00
         21   -1    0    0  503  502  0.00000000000E+00  0.00000000000E+00  0.47597652412E+03  0.47597652412E+03  0.00000000000E+00 0. -1.
         21   -1    0    0  501  503 -0.00000000000E+00 -0.00000000000E+00 -0.34777070412E+01  0.34777070412E+01  0.00000000000E+00 0. -1.
          1    1    1    2  501    0  0.18728203878E+02  0.33301933553E+02  0.31864395914E+03  0.32092637333E+03  0.00000000000E+00 0.  1.
         -1    1    1    2    0  502 -0.18728203878E+02 -0.33301933553E+02  0.15385485794E+03  0.15852785783E+03  0.00000000000E+00 0. -1.
<mgrwt>
<rscale>  2 0.38206863E+02</rscale>
<asrwt>0</asrwt>
<pdfrwt beam="1">  1       21 0.73227106E-01 0.38206863E+02</pdfrwt>
<pdfrwt beam="2">  1       21 0.53503223E-03 0.38206863E+02</pdfrwt>
<totfact> 0.14680586E+07</totfact>
</mgrwt>
</event>
<event>
 4    1  0.3862688E+004  0.2424367E+02  0.7546771E-02  0.1672109E+00
         21   -1    0    0  501  502  0.00000000000E+00  0.00000000000E+00  0.76178667651E+00  0.76178667651E+00  0.00000000000E+00 0. -1.
         21   -1    0    0  502  503 -0.00000000000E+00 -0.00000000000E+00 -0.95978851357E+03  0.95978851357E+03  0.00000000000E+00 0. -1.
          5    1    1    2  501    0 -0.23831062480E+02  0.44537391893E+01 -0.69220889667E+03  0.69263331710E+03  0.00000000000E+00 0. -1.
         -5    1    1    2    0  503  0.23831062480E+02 -0.44537391893E+01 -0.26681783023E+03  0.26791698315E+03  0.00000000000E+00 0.  1.
<mgrwt>
<rscale>  2 0.24243666E+02</rscale>
<asrwt>0</asrwt>
<pdfrwt beam="1">  1       21 0.11719768E-03 0.24243666E+02</pdfrwt>
<pdfrwt beam="2">  1       21 0.14766012E+00 0.24243666E+02</pdfrwt>
<totfact> 0.26391232E+07</totfact>
</mgrwt>
</event>
<event>
 4    1  0.3862688E+004  0.6286723E+02  0.7546771E-02  0.1386179E+00
         21   -1    0    0  503  502  0.00000000000E+00  0.00000000000E+00  0.32841577128E+02  0.32841577128E+02  0.00000000000E+00 0. -1.
         21   -1    0    0  501  503 -0.00000000000E+00 -0.00000000000E+00 -0.13792813355E+03  0.13792813355E+03  0.00000000000E+00 0. -1.
          1    1    1    2  501    0  0.42547202114E+02 -0.46282003109E+02 -0.83030254606E+02  0.10414562593E+03  0.00000000000E+00 0. -1.
         -1    1    1    2    0  502 -0.42547202114E+02  0.46282003109E+02 -0.22056301819E+02  0.66624084755E+02  0.00000000000E+00 0.  1.
<mgrwt>
<rscale>  2 0.62867227E+02</rscale>
<asrwt>0</asrwt>
<pdfrwt beam="1">  1       21 0.50525502E-02 0.62867227E+02</pdfrwt>
<pdfrwt beam="2">  1       21 0.21219713E-01 0.62867227E+02</pdfrwt>
<totfact> 0.51286913E+06</totfact>
</mgrwt>
</event>
<event>
 4    1  0.3862688E+004  0.2059471E+02  0.7546771E-02  0.1733754E+00
         21   -1    0    0  503  502  0.00000000000E+00  0.00000000000E+00  0.42803185454E+01  0.42803185454E+01  0.00000000000E+00 0. -1.
         21   -1    0    0  501  503 -0.00000000000E+00 -0.00000000000E+00 -0.99319837153E+02  0.99319837153E+02  0.00000000000E+00 0. -1.
          5    1    1    2  501    0 -0.62561912095E+01 -0.19621475182E+02 -0.50004698416E+02  0.54079682696E+02  0.00000000000E+00 0.  1.
         -5    1    1    2    0  502  0.62561912095E+01  0.19621475182E+02 -0.45034820191E+02  0.49520473003E+02  0.00000000000E+00 0. -1.
<mgrwt>
<rscale>  2 0.20594713E+02</rscale>
<asrwt>0</asrwt>
<pdfrwt beam="1">  1       21 0.65851058E-03 0.20594713E+02</pdfrwt>
<pdfrwt beam="2">  1       21 0.15279974E-01 0.20594713E+02</pdfrwt>
<totfact> 0.17679453E+08</totfact>
</mgrwt>
</event>
<event>
 4    1  0.3862688E+004  0.2098602E+02  0.7546771E-02  0.1726402E+00
         21   -1    0    0  503  502  0.00000000000E+00  0.00000000000E+00  0.54700532223E+01  0.54700532223E+01  0.00000000000E+00 0. -1.
         21   -1    0    0  501  503 -0.00000000000E+00 -0.00000000000E+00 -0.86755464169E+02  0.86755464169E+02  0.00000000000E+00 0. -1.
          4    1    1    2  501    0  0.20981063789E+02 -0.45622049803E+00 -0.28273749693E+02  0.35211050773E+02  0.00000000000E+00 0. -1.
         -4    1    1    2    0  502 -0.20981063789E+02  0.45622049803E+00 -0.53011661254E+02  0.57014466618E+02  0.00000000000E+00 0.  1.
<mgrwt>
<rscale>  2 0.20986023E+02</rscale>
<asrwt>0</asrwt>
<pdfrwt beam="1">  1       21 0.84154670E-03 0.20986023E+02</pdfrwt>
<pdfrwt beam="2">  1       21 0.13346994E-01 0.20986023E+02</pdfrwt>
<totfact> 0.15525265E+08</totfact>
</mgrwt>
</event>
<event>
 4    1  0.3862688E+004  0.2090016E+02  0.7546771E-02  0.1727998E+00
         21   -1    0    0  501  502  0.00000000000E+00  0.00000000000E+00  0.19552698692E+01  0.19552698692E+01  0.00000000000E+00 0. -1.
         21   -1    0    0  502  503 -0.00000000000E+00 -0.00000000000E+00 -0.23379148530E+03  0.23379148530E+03  0.00000000000E+00 0. -1.
          4    1    1    2  501    0  0.20586414742E+02 -0.36078078733E+01 -0.91073104201E+02  0.93440500097E+02  0.00000000000E+00 0.  1.
         -4    1    1    2    0  503 -0.20586414742E+02  0.36078078733E+01 -0.14076311123E+03  0.14230625507E+03  0.00000000000E+00 0. -1.
<mgrwt>
<rscale>  2 0.20900161E+02</rscale>
<asrwt>0</asrwt>
<pdfrwt beam="1">  1       21 0.30081083E-03 0.20900161E+02</pdfrwt>
<pdfrwt beam="2">  1       21 0.35967911E-01 0.20900161E+02</pdfrwt>
<totfact> 0.12334717E+08</totfact>
</mgrwt>
</event>
<event>
 4    1  0.3862688E+004  0.2693130E+02  0.7546771E-02  0.1634717E+00
         21   -1    0    0  501  502  0.00000000000E+00  0.00000000000E+00  0.16838144046E+02  0.16838144046E+02  0.00000000000E+00 0. -1.
         21   -1    0    0  502  503 -0.00000000000E+00 -0.00000000000E+00 -0.61726430855E+02  0.61726430855E+02  0.00000000000E+00 0. -1.
          1    1    1    2  501    0  0.18993412533E+02 -0.19093071970E+02 -0.44037629036E+02  0.51619840062E+02  0.00000000000E+00 0. -1.
         -1    1    1    2    0  503 -0.18993412533E+02  0.19093071970E+02 -0.85065777240E+00  0.26944734839E+02  0.00000000000E+00 0.  1.
<mgrwt>
<rscale>  2 0.26931304E+02</rscale>
<asrwt>0</asrwt>
<pdfrwt beam="1">  1       21 0.25904837E-02 0.26931304E+02</pdfrwt>
<pdfrwt beam="2">  1       21 0.94963739E-02 0.26931304E+02</pdfrwt>
<totfact> 0.52983604E+07</totfact>
</mgrwt>
</event>
<event>
 4    1  0.3862688E+004  0.2047891E+02  0.7546771E-02  0.1735969E+00
         21   -1    0    0  503  502  0.00000000000E+00  0.00000000000E+00  0.14607278834E+01  0.14607278834E+01  0.00000000000E+00 0. -1.
         21   -1    0    0  501  503 -0.00000000000E+00 -0.00000000000E+00 -0.43722900227E+03  0.43722900227E+03  0.00000000000E+00 0. -1.
          1    1    1    2  501    0 -0.48644658476E+01  0.19892780335E+02 -0.34641121495E+03  0.34701601632E+03  0.00000000000E+00 0. -1.
         -1    1    1    2    0  502  0.48644658476E+01 -0.19892780335E+02 -0.89357059441E+02  0.91673713841E+02  0.00000000000E+00 0.  1.
<mgrwt>
<rscale>  2 0.20478910E+02</rscale>
<asrwt>0</asrwt>
<pdfrwt beam="1">  1       21 0.22472727E-03 0.20478910E+02</pdfrwt>
<pdfrwt beam="2">  1       21 0.67266029E-01 0.20478910E+02</pdfrwt>
<totfact> 0.55788651E+07</totfact>
</mgrwt>
</event>
<event>
 4    1  0.3862688E+004  0.2731838E+02  0.7546771E-02  0.1629774E+00
         21   -1    0    0  503  502  0.00000000000E+00  0.00000000000E+00  0.23303845652E+03  0.23303845652E+03  0.00000000000E+00 0.  1.
         21   -1    0    0  501  503 -0.00000000000E+00 -0.00000000000E+00 -0.32620430758E+01  0.32620430758E+01  0.00000000000E+00 0.  1.
          2    1    1    2  501    0 -0.23629452535E+02 -0.13709226369E+02  0.98918787876E+02  0.10262173507E+03  0.00000000000E+00 0.  1.
         -2    1    1    2    0  502  0.23629452535E+02  0.13709226369E+02  0.13085762557E+03  0.13367876452E+03  0.00000000000E+00 0. -1.
<mgrwt>
<rscale>  2 0.27318381E+02</rscale>
<asrwt>0</asrwt>
<pdfrwt beam="1">  1       21 0.35852057E-01 0.27318381E+02</pdfrwt>
<pdfrwt beam="2">  1       21 0.50185296E-03 0.27318381E+02</pdfrwt>
<totfact> 0.62667596E+07</totfact>
</mgrwt>
</event>
<event>
 4    1  0.3862688E+004  0.3732577E+02  0.7546771E-02  0.1528867E+00
         21   -1    0    0  501  502  0.00000000000E+00  0.00000000000E+00  0.16117998491E+03  0.16117998491E+03  0.00000000000E+00 0.  1.
         21   -1    0    0  502  503 -0.00000000000E+00 -0.00000000000E+00 -0.87042699898E+01  0.87042699898E+01  0.00000000000E+00 0.  1.
          5    1    1    2  501    0 -0.21335651118E+02 -0.30626841021E+02  0.69160084588E+02  0.78589634811E+02  0.00000000000E+00 0.  1.
         -5    1    1    2    0  503  0.21335651118E+02  0.30626841021E+02  0.83315630336E+02  0.91294620093E+02  0.00000000000E+00 0. -1.
<mgrwt>
<rscale>  2 0.37325774E+02</rscale>
<asrwt>0</asrwt>
<pdfrwt beam="1">  1       21 0.24796918E-01 0.37325774E+02</pdfrwt>
<pdfrwt beam="2">  1       21 0.13391186E-02 0.37325774E+02</pdfrwt>
<totfact> 0.29872395E+07</totfact>
</mgrwt>
</event>
<event>
 4    1  0.3862688E+004  0.2696656E+02  0.7546771E-02  0.1634263E+00
         21   -1    0    0  503  502  0.00000000000E+00  0.00000000000E+00  0.92200370671E+00  0.92200370671E+00  0.00000000000E+00 0. -1.
         21   -1    0    0  501  503 -0.00000000000E+00 -0.00000000000E+00 -0.82371240622E+03  0.82371240622E+03  0.00000000000E+00 0. -1.
          1    1    1    2  501    0  0.16721822826E+02 -0.21155998207E+02 -0.49638731694E+03  0.49711926540E+03  0.00000000000E+00 0. -1.
         -1    1    1    2    0  502 -0.16721822826E+02  0.21155998207E+02 -0.32640308558E+03  0.32751514453E+03  0.00000000000E+00 0.  1.
<mgrwt>
<rscale>  2 0.26966565E+02</rscale>
<asrwt>0</asrwt>
<pdfrwt beam="1">  1       21 0.14184681E-03 0.26966565E+02</pdfrwt>
<pdfrwt beam="2">  1       21 0.12672491E+00 0.26966565E+02</pdfrwt>
<totfact> 0.29223252E+07</totfact>
</mgrwt>
</event>
<event>
 4    1  0.3862688E+004  0.2087973E+02  0.7546771E-02  0.1728379E+00
         21   -1    0    0  501  502  0.00000000000E+00  0.00000000000E+00  0.55888165927E+02  0.55888165927E+02  0.00000000000E+00 0. -1.
         21   -1    0    0  502  503 -0.00000000000E+00 -0.00000000000E+00 -0.79704530331E+01  0.79704530331E+01  0.00000000000E+00 0. -1.
          1    1    1    2  501    0  0.14165489352E+02  0.15339553569E+02  0.19298230009E+02  0.28432106390E+02  0.00000000000E+00 0. -1.
         -1    1    1    2    0  503 -0.14165489352E+02 -0.15339553569E+02  0.28619482885E+02  0.35426512570E+02  0.00000000000E+00 0.  1.
<mgrwt>
<rscale>  2 0.20879727E+02</rscale>
<asrwt>0</asrwt>
<pdfrwt beam="1">  1       21 0.85981791E-02 0.20879727E+02</pdfrwt>
<pdfrwt beam="2">  1       21 0.12262236E-02 0.20879727E+02</pdfrwt>
<totfact> 0.18266985E+08</totfact>
</mgrwt>
</event>
<event>
 4    1  0.3862688E+004  0.3320576E+02  0.7546771E-02  0.1565137E+00
         21   -1    0    0  503  502  0.00000000000E+00  0.00000000000E+00  0.41250795915E+01  0.41250795915E+01  0.00000000000E+00 0. -1.
         21   -1    0    0  501  503 -0.00000000000E+00 -0.00000000000E+00 -0.37196955494E+03  0.37196955494E+03  0.00000000000E+00 0. -1.
          5    1    1    2  501    0 -0.25222127374E+02 -0.21597848292E+02 -0.84168501037E+02  0.90481817660E+02  0.00000000000E+00 0. -1.
         -5    1    1    2    0  502  0.25222127374E+02  0.21597848292E+02 -0.28367597431E+03  0.28561281687E+03  0.00000000000E+00 0.  1.
<mgrwt>
<rscale>  2 0.33205764E+02</rscale>
<asrwt>0</asrwt>
<pdfrwt beam="1">  1       21 0.63462739E-03 0.33205764E+02</pdfrwt>
<pdfrwt beam="2">  1       21 0.57226107E-01 0.33205764E+02</pdfrwt>
<totfact> 0.18503232E+07</totfact>
</mgrwt>
</event>
<event>
 4    1  0.3862688E+004  0.2169677E+02  0.7546771E-02  0.1713549E+00
         21   -1    0    0  503  502  0.00000000000E+00  0.00000000000E+00  0.34709710256E+01  0.34709710256E+01  0.00000000000E+00 0.  1.
         21   -1    0    0  501  503 -0.00000000000E+00 -0.00000000000E+00 -0.15681989884E+03  0.15681989884E+03  0.00000000000E+00 0.  1.
          5    1    1    2  501    0  0.20588158013E+02  0.68467351839E+01 -0.10613869394E+03  0.10833361613E+03  0.00000000000E+00 0.  1.
         -5    1    1    2    0  502 -0.20588158013E+02 -0.68467351839E+01 -0.47210233879E+02  0.51957253737E+02  0.00000000000E+00 0. -1.
<mgrwt>
<rscale>  2 0.21696775E+02</rscale>
<asrwt>0</asrwt>
<pdfrwt beam="1">  1       21 0.53399549E-03 0.21696775E+02</pdfrwt>
<pdfrwt beam="2">  1       21 0.24126141E-01 0.21696775E+02</pdfrwt>
<totfact> 0.11088117E+08</totfact>
</mgrwt>
</event>
<event>
 4    1  0.3862688E+004  0.3214162E+02  0.7546771E-02  0.1575555E+00
         21   -1    0    0  501  502  0.00000000000E+00  0.00000000000E+00  0.11374600666E+03  0.11374600666E+03  0.00000000000E+00 0.  1.
         21   -1    0    0  502  503 -0.00000000000E+00 -0.00000000000E+00 -0.99695501314E+01  0.99695501314E+01  0.00000000000E+00 0.  1.
          2    1    1    2  501    0 -0.31383823752E+02  0.69382522005E+01  0.70340997081E+02  0.77336534751E+02  0.00000000000E+00 0.  1.
         -2    1    1    2    0  503  0.31383823752E+02 -0.69382522005E+01  0.33435459445E+02  0.46379022038E+02  0.00000000000E+00 0. -1.
<mgrwt>
<rscale>  2 0.32141620E+02</rscale>
<asrwt>0</asrwt>
<pdfrwt beam="1">  1       21 0.17499385E-01 0.32141620E+02</pdfrwt>
<pdfrwt beam="2">  1       21 0.15337770E-02 0.32141620E+02</pdfrwt>
<totfact> 0.43837698E+07</totfact>
</mgrwt>
</event>
<event>
 4    1  0.3862688E+004  0.4551732E+02  0.7546771E-02  0.1471138E+00
         21   -1    0    0  503  502  0.00000000000E+00  0.00000000000E+00  0.79152990331E+02  0.79152990331E+02  0.00000000000E+00 0.  1.
         21   -1    0    0  501  503 -0.00000000000E+00 -0.00000000000E+00 -0.30195244206E+02  0.30195244206E+02  0.00000000000E+00 0.  1.
          4    1    1    2  501    0 -0.40017849973E+02 -0.21688671474E+02  0.45289791533E+01  0.45742086080E+02  0.00000000000E+00 0. -1.
         -4    1    1    2    0  502  0.40017849973E+02  0.21688671474E+02  0.44428766972E+02  0.63606148457E+02  0.00000000000E+00 0.  1.
<mgrwt>
<rscale>  2 0.45517324E+02</rscale>
<asrwt>0</asrwt>
<pdfrwt beam="1">  1       21 0.12177383E-01 0.45517324E+02</pdfrwt>
<pdfrwt beam="2">  1       21 0.46454222E-02 0.45517324E+02</pdfrwt>
<totfact> 0.15156666E+07</totfact>
</mgrwt>
</event>
<event>
 4    1  0.3862688E+004  0.2175414E+02  0.7546771E-02  0.1712539E+00
         21   -1    0    0  503  502  0.00000000000E+00  0.00000000000E+00  0.19596089183E+03  0.19596089183E+03  0.00000000000E+00 0. -1.
         21   -1    0    0  501  503 -0.00000000000E+00 -0.00000000000E+00 -0.28071617268E+01  0.28071617268E+01  0.00000000000E+00 0. -1.
          4    1    1    2  501    0 -0.15197583292E+02  0.15565216365E+02  0.59429834014E+02  0.63286236018E+02  0.00000000000E+00 0. -1.
         -4    1    1    2    0  502  0.15197583292E+02 -0.15565216365E+02  0.13372389609E+03  0.13548181754E+03  0.00000000000E+00 0.  1.
<mgrwt>
<rscale>  2 0.21754138E+02</rscale>
<asrwt>0</asrwt>
<pdfrwt beam="1">  1       21 0.30147819E-01 0.21754138E+02</pdfrwt>
<pdfrwt beam="2">  1       21 0.43187119E-03 0.21754138E+02</pdfrwt>
<totfact> 0.10167582E+08</totfact>
</mgrwt>
</event>
<event>
 4    1  0.3862688E+004  0.3760214E+02  0.7546771E-02  0.1526637E+00
         21   -1    0    0  503  502  0.00000000000E+00  0.00000000000E+00  0.50988545297E+03  0.50988545297E+03  0.00000000000E+00 0.  1.
         21   -1    0    0  501  503 -0.00000000000E+00 -0.00000000000E+00 -0.27736424431E+01  0.27736424431E+01  0.00000000000E+00 0.  1.
          1    1    1    2  501    0  0.13820203412E+02  0.34970313043E+02  0.24970545095E+03  0.25252075766E+03  0.00000000000E+00 0. -1.
         -1    1    1    2    0  502 -0.13820203412E+02 -0.34970313043E+02  0.25740635957E+03  0.26013833775E+03  0.00000000000E+00 0.  1.
<mgrwt>
<rscale>  2 0.37602138E+02</rscale>
<asrwt>0</asrwt>
<pdfrwt beam="1">  1       21 0.78443841E-01 0.37602138E+02</pdfrwt>
<pdfrwt beam="2">  1       21 0.42671463E-03 0.37602138E+02</pdfrwt>
<totfact> 0.17758668E+07</totfact>
</mgrwt>
</event>
<event>
 4    1  0.3862688E+004  0.2353279E+02  0.7546771E-02  0.1683017E+00
         21   -1    0    0  503  502  0.00000000000E+00  0.00000000000E+00  0.15392763336E+02  0.15392763336E+02  0.00000000000E+00 0. -1.
         21   -1    0    0  501  503 -0.00000000000E+00 -0.00000000000E+00 -0.36329806174E+02  0.36329806174E+02  0.00000000000E+00 0. -1.
          4    1    1    2  501    0  0.23427676377E+02  0.22217123970E+01 -0.13015488818E+02  0.26892284685E+02  0.00000000000E+00 0. -1.
         -4    1    1    2    0  502 -0.23427676377E+02 -0.22217123970E+01 -0.79215540197E+01  0.24830284825E+02  0.00000000000E+00 0.  1.
<mgrwt>
<rscale>  2 0.23532786E+02</rscale>
<asrwt>0</asrwt>
<pdfrwt beam="1">  1       21 0.23681175E-02 0.23532786E+02</pdfrwt>
<pdfrwt beam="2">  1       21 0.55892008E-02 0.23532786E+02</pdfrwt>
<totfact> 0.13939680E+08</totfact>
</mgrwt>
</event>
<event>
 4    1  0.3862688E+004  0.2117447E+02  0.7546771E-02  0.1722933E+00
         21   -1    0    0  503  502  0.00000000000E+00  0.00000000000E+00  0.14342617606E+03  0.14342617606E+03  0.00000000000E+00 0.  1.
         21   -1    0    0  501  503 -0.00000000000E+00 -0.00000000000E+00 -0.39777317037E+01  0.39777317037E+01  0.00000000000E+00 0.  1.
          1    1    1    2  501    0 -0.69518952784E+01  0.20000733420E+02  0.10382768797E+03  0.10596483839E+03  0.00000000000E+00 0. -1.
         -1    1    1    2    0  502  0.69518952784E+01 -0.20000733420E+02  0.35620756390E+02  0.41439069380E+02  0.00000000000E+00 0.  1.
<mgrwt>
<rscale>  2 0.21174470E+02</rscale>
<asrwt>0</asrwt>
<pdfrwt beam="1">  1       21 0.22065562E-01 0.21174470E+02</pdfrwt>
<pdfrwt beam="2">  1       21 0.61195884E-03 0.21174470E+02</pdfrwt>
<totfact> 0.10540717E+08</totfact>
</mgrwt>
</event>
<event>
 4    1  0.3862688E+004  0.2298873E+02  0.7546771E-02  0.1691693E+00
         21   -1    0    0  501  502  0.00000000000E+00  0.00000000000E+00  0.98573326292E+00  0.98573326292E+00  0.00000000000E+00 0.  1.
         21   -1    0    0  502  503 -0.00000000000E+00 -0.00000000000E+00 -0.54671714805E+03  0.54671714805E+03  0.00000000000E+00 0.  1.
          2    1    1    2  501    0 -0.68657057126E+00  0.22978476089E+02 -0.23475812914E+03  0.23588103133E+03  0.00000000000E+00 0. -1.
         -2    1    1    2    0  503  0.68657057126E+00 -0.22978476089E+02 -0.31097328564E+03  0.31182184998E+03  0.00000000000E+00 0.  1.
<mgrwt>
<rscale>  2 0.22988731E+02</rscale>
<asrwt>0</asrwt>
<pdfrwt beam="1">  1       21 0.15165096E-03 0.22988731E+02</pdfrwt>
<pdfrwt beam="2">  1       21 0.84110504E-01 0.22988731E+02</pdfrwt>
<totfact> 0.63580424E+07</totfact>
</mgrwt>
</event>
<event>
 4    1  0.3862688E+004  0.2029200E+02  0.7546771E-02  0.1739583E+00
         21   -1    0    0  503  502  0.00000000000E+00  0.00000000000E+00  0.11081321171E+02  0.11081321171E+02  0.00000000000E+00 0. -1.
         21   -1    0    0  501  503 -0.00000000000E+00 -0.00000000000E+00 -0.43980515258E+02  0.43980515258E+02  0.00000000000E+00 0. -1.
          2    1    1    2  501    0 -0.99859127055E+01 -0.17664850912E+02 -0.27292522893E+02  0.34009516553E+02  0.00000000000E+00 0.  1.
         -2    1    1    2    0  502  0.99859127055E+01  0.17664850912E+02 -0.56066711937E+01  0.21052319876E+02  0.00000000000E+00 0. -1.
<mgrwt>
<rscale>  2 0.20292004E+02</rscale>
<asrwt>0</asrwt>
<pdfrwt beam="1">  1       21 0.17048186E-02 0.20292004E+02</pdfrwt>
<pdfrwt beam="2">  1       21 0.67662331E-02 0.20292004E+02</pdfrwt>
<totfact> 0.16215441E+08</totfact>
</mgrwt>
</event>
<event>
 4    1  0.3862688E+004  0.3199274E+02  0.7546771E-02  0.1577051E+00
         21   -1    0    0  503  502  0.00000000000E+00  0.00000000000E+00  0.65499858940E+01  0.65499858940E+01  0.00000000000E+00 0.  1.
         21   -1    0    0  501  503 -0.00000000000E+00 -0.00000000000E+00 -0.16193727427E+03  0.16193727427E+03  0.00000000000E+00 0.  1.
          1    1    1    2  501    0  0.29906718565E+02  0.11363262881E+02 -0.61927318054E+02  0.69703143975E+02  0.00000000000E+00 0. -1.
         -1    1    1    2    0  502 -0.29906718565E+02 -0.11363262881E+02 -0.93459970323E+02  0.98784116190E+02  0.00000000000E+00 0.  1.
<mgrwt>
<rscale>  2 0.31992742E+02</rscale>
<asrwt>0</asrwt>
<pdfrwt beam="1">  1       21 0.10076902E-02 0.31992742E+02</pdfrwt>
<pdfrwt beam="2">  1       21 0.24913425E-01 0.31992742E+02</pdfrwt>
<totfact> 0.44447612E+07</totfact>
</mgrwt>
</event>
<event>
 4    1  0.3862688E+004  0.2118475E+02  0.7546771E-02  0.1722745E+00
         21   -1    0    0  503  502  0.00000000000E+00  0.00000000000E+00  0.77312518362E+01  0.77312518362E+01  0.00000000000E+00 0.  1.
         21   -1    0    0  501  503 -0.00000000000E+00 -0.00000000000E+00 -0.64700187040E+02  0.64700187040E+02  0.00000000000E+00 0.  1.
          2    1    1    2  501    0  0.11089222886E+02 -0.18050556997E+02 -0.40095887722E+02  0.45348359224E+02  0.00000000000E+00 0.  1.
         -2    1    1    2    0  502 -0.11089222886E+02  0.18050556997E+02 -0.16873047482E+02  0.27083079652E+02  0.00000000000E+00 0. -1.
<mgrwt>
<rscale>  2 0.21184746E+02</rscale>
<asrwt>0</asrwt>
<pdfrwt beam="1">  1       21 0.11894233E-02 0.21184746E+02</pdfrwt>
<pdfrwt beam="2">  1       21 0.99538754E-02 0.21184746E+02</pdfrwt>
<totfact> 0.15109899E+08</totfact>
</mgrwt>
</event>
<event>
 4    1  0.3862688E+004  0.2427633E+02  0.7546771E-02  0.1671619E+00
         21   -1    0    0  501  502  0.00000000000E+00  0.00000000000E+00  0.56562424912E+01  0.56562424912E+01  0.00000000000E+00 0.  1.
         21   -1    0    0  502  503 -0.00000000000E+00 -0.00000000000E+00 -0.10536007517E+03  0.10536007517E+03  0.00000000000E+00 0.  1.
          2    1    1    2  501    0  0.21483397691E+02 -0.11305029098E+02 -0.55694366233E+02  0.60755267174E+02  0.00000000000E+00 0.  1.
         -2    1    1    2    0  503 -0.21483397691E+02  0.11305029098E+02 -0.44009466444E+02  0.50261050486E+02  0.00000000000E+00 0. -1.
<mgrwt>
<rscale>  2 0.24276327E+02</rscale>
<asrwt>0</asrwt>
<pdfrwt beam="1">  1       21 0.87019125E-03 0.24276327E+02</pdfrwt>
<pdfrwt beam="2">  1       21 0.16209241E-01 0.24276327E+02</pdfrwt>
<totfact> 0.11076938E+08</totfact>
</mgrwt>
</event>
<event>
 4    1  0.3862688E+004  0.2043107E+02  0.7546771E-02  0.1736889E+00
         21   -1    0    0  503  502  0.00000000000E+00  0.00000000000E+00  0.48933674125E+01  0.48933674125E+01  0.00000000000E+00 0.  1.
         21   -1    0    0  501  503 -0.00000000000E+00 -0.00000000000E+00 -0.10259683626E+03  0.10259683626E+03  0.00000000000E+00 0.  1.
          5    1    1    2  501    0  0.12610026546E+02  0.16075320869E+02 -0.70916151302E+02  0.73800604510E+02  0.00000000000E+00 0.  1.
         -5    1    1    2    0  502 -0.12610026546E+02 -0.16075320869E+02 -0.26787317550E+02  0.33689599167E+02  0.00000000000E+00 0. -1.
<mgrwt>
<rscale>  2 0.20431072E+02</rscale>
<asrwt>0</asrwt>
<pdfrwt beam="1">  1       21 0.75282588E-03 0.20431072E+02</pdfrwt>
<pdfrwt beam="2">  1       21 0.15784126E-01 0.20431072E+02</pdfrwt>
<totfact> 0.13687659E+08</totfact>
</mgrwt>
</event>
<event>
 4    1  0.3862688E+004  0.2240341E+02  0.7546771E-02  0.1701367E+00
         21   -1    0    0  503  502  0.00000000000E+00  0.00000000000E+00  0.71021266559E+03  0.71021266559E+03  0.00000000000E+00 0. -1.
         21   -1    0    0  501  503 -0.00000000000E+00 -0.00000000000E+00 -0.23190762306E+01  0.23190762306E+01  0.00000000000E+00 0. -1.
          2    1    1    2  501    0 -0.21910511926E+01  0.22296013363E+02  0.65100998082E+03  0.65139535464E+03  0.00000000000E+00 0. -1.
         -2    1    1    2    0  502  0.21910511926E+01 -0.22296013363E+02  0.56883608537E+02  0.61136387180E+02  0.00000000000E+00 0.  1.
<mgrwt>
<rscale>  2 0.22403413E+02</rscale>
<asrwt>0</asrwt>
<pdfrwt beam="1">  1       21 0.10926331E+00 0.22403413E+02</pdfrwt>
<pdfrwt beam="2">  1       21 0.35678152E-03 0.22403413E+02</pdfrwt>
<totfact> 0.10390009E+07</totfact>
</mgrwt>
</event>
<event>
 4    1  0.3862688E+004  0.2427753E+02  0.7546771E-02  0.1671601E+00
         21   -1    0    0  503  502  0.00000000000E+00  0.00000000000E+00  0.49843225516E+01  0.49843225516E+01  0.00000000000E+00 0.  1.
         21   -1    0    0  501  503 -0.00000000000E+00 -0.00000000000E+00 -0.11905688041E+03  0.11905688041E+03  0.00000000000E+00 0.  1.
          4    1    1    2  501    0  0.16803321898E+02 -0.17522757248E+02 -0.62140481779E+02  0.66714602031E+02  0.00000000000E+00 0.  1.
         -4    1    1    2    0  502 -0.16803321898E+02  0.17522757248E+02 -0.51932076080E+02  0.57326600932E+02  0.00000000000E+00 0. -1.
<mgrwt>
<rscale>  2 0.24277534E+02</rscale>
<asrwt>0</asrwt>
<pdfrwt beam="1">  1       21 0.76681889E-03 0.24277534E+02</pdfrwt>
<pdfrwt beam="2">  1       21 0.18316442E-01 0.24277534E+02</pdfrwt>
<totfact> 0.10839400E+08</totfact>
</mgrwt>
</event>
<event>
 4    1  0.3862688E+004  0.3067428E+02  0.7546771E-02  0.1590753E+00
         21   -1    0    0  503  502  0.00000000000E+00  0.00000000000E+00  0.60252093249E+03  0.60252093249E+03  0.00000000000E+00 0. -1.
         21   -1    0    0  501  503 -0.00000000000E+00 -0.00000000000E+00 -0.17488824752E+01  0.17488824752E+01  0.00000000000E+00 0. -1.
          4    1    1    2  501    0  0.27478420129E+02 -0.13632595249E+02  0.20152134059E+03  0.20384249297E+03  0.00000000000E+00 0.  1.
         -4    1    1    2    0  502 -0.27478420129E+02  0.13632595249E+02  0.39925070942E+03  0.40042732200E+03  0.00000000000E+00 0. -1.
<mgrwt>
<rscale>  2 0.30674276E+02</rscale>
<asrwt>0</asrwt>
<pdfrwt beam="1">  1       21 0.92695363E-01 0.30674276E+02</pdfrwt>
<pdfrwt beam="2">  1       21 0.26905932E-03 0.30674276E+02</pdfrwt>
<totfact> 0.23764107E+07</totfact>
</mgrwt>
</event>
<event>
 4    1  0.3862688E+004  0.2379557E+02  0.7546771E-02  0.1678929E+00
         21   -1    0    0  501  502  0.00000000000E+00  0.00000000000E+00  0.39639924526E+02  0.39639924526E+02  0.00000000000E+00 0. -1.
         21   -1    0    0  502  503 -0.00000000000E+00 -0.00000000000E+00 -0.14364673429E+02  0.14364673429E+02  0.00000000000E+00 0. -1.
          1    1    1    2  501    0 -0.23560378758E+02  0.33373315482E+01  0.10618029771E+02  0.26057087045E+02  0.00000000000E+00 0.  1.
         -1    1    1    2    0  503  0.23560378758E+02 -0.33373315482E+01  0.14657221326E+02  0.27947510910E+02  0.00000000000E+00 0. -1.
<mgrwt>
<rscale>  2 0.23795572E+02</rscale>
<asrwt>0</asrwt>
<pdfrwt beam="1">  1       21 0.60984499E-02 0.23795572E+02</pdfrwt>
<pdfrwt beam="2">  1       21 0.22099498E-02 0.23795572E+02</pdfrwt>
<totfact> 0.13527331E+08</totfact>
</mgrwt>
</event>
<event>
 4    1  0.3862688E+004  0.3580542E+02  0.7546771E-02  0.1541562E+00
         21   -1    0    0  503  502  0.00000000000E+00  0.00000000000E+00  0.13144798741E+02  0.13144798741E+02  0.00000000000E+00 0. -1.
         21   -1    0    0  501  503 -0.00000000000E+00 -0.00000000000E+00 -0.97565939055E+02  0.97565939055E+02  0.00000000000E+00 0. -1.
          5    1    1    2  501    0 -0.55274242569E+01 -0.35376205576E+02 -0.43254702528E+02  0.56151559468E+02  0.00000000000E+00 0.  1.
         -5    1    1    2    0  502  0.55274242569E+01  0.35376205576E+02 -0.41166437786E+02  0.54559178328E+02  0.00000000000E+00 0. -1.
<mgrwt>
<rscale>  2 0.35805423E+02</rscale>
<asrwt>0</asrwt>
<pdfrwt beam="1">  1       21 0.20222767E-02 0.35805423E+02</pdfrwt>
<pdfrwt beam="2">  1       21 0.15010144E-01 0.35805423E+02</pdfrwt>
<totfact> 0.38124996E+07</totfact>
</mgrwt>
</event>
<event>
 4    1  0.3862688E+004  0.3582931E+02  0.7546771E-02  0.1541357E+00
         21   -1    0    0  503  502  0.00000000000E+00  0.00000000000E+00  0.22678694563E+01  0.22678694563E+01  0.00000000000E+00 0. -1.
         21   -1    0    0  501  503 -0.00000000000E+00 -0.00000000000E+00 -0.73398198095E+03  0.73398198095E+03  0.00000000000E+00 0. -1.
          5    1    1    2  501    0 -0.27120759290E+02 -0.23413756889E+02 -0.54193799112E+03  0.54312109683E+03  0.00000000000E+00 0.  1.
         -5    1    1    2    0  502  0.27120759290E+02  0.23413756889E+02 -0.18977612037E+03  0.19312875358E+03  0.00000000000E+00 0. -1.
<mgrwt>
<rscale>  2 0.35829312E+02</rscale>
<asrwt>0</asrwt>
<pdfrwt beam="1">  1       21 0.34890264E-03 0.35829312E+02</pdfrwt>
<pdfrwt beam="2">  1       21 0.11292042E+00 0.35829312E+02</pdfrwt>
<totfact> 0.10653010E+07</totfact>
</mgrwt>
</event>
<event>
 4    1  0.3862688E+004  0.2376529E+02  0.7546771E-02  0.1679397E+00
         21   -1    0    0  503  502  0.00000000000E+00  0.00000000000E+00  0.80942803823E+03  0.80942803823E+03  0.00000000000E+00 0.  1.
         21   -1    0    0  501  503 -0.00000000000E+00 -0.00000000000E+00 -0.85931028629E+00  0.85931028629E+00  0.00000000000E+00 0.  1.
          4    1    1    2  501    0 -0.17556845631E+02  0.16017054816E+02  0.22861986762E+03  0.22985176254E+03  0.00000000000E+00 0. -1.
         -4    1    1    2    0  502  0.17556845631E+02 -0.16017054816E+02  0.57994886033E+03  0.58043558598E+03  0.00000000000E+00 0.  1.
<mgrwt>
<rscale>  2 0.23765287E+02</rscale>
<asrwt>0</asrwt>
<pdfrwt beam="1">  1       21 0.12452678E+00 0.23765287E+02</pdfrwt>
<pdfrwt beam="2">  1       21 0.13220223E-03 0.23765287E+02</pdfrwt>
<totfact> 0.32897245E+07</totfact>
</mgrwt>
</event>
<event>
 4    1  0.3862688E+004  0.5073493E+02  0.7546771E-02  0.1441417E+00
         21   -1    0    0  501  502  0.00000000000E+00  0.00000000000E+00  0.25544404961E+03  0.25544404961E+03  0.00000000000E+00 0.  1.
         21   -1    0    0  502  503 -0.00000000000E+00 -0.00000000000E+00 -0.13300906540E+02  0.13300906540E+02  0.00000000000E+00 0.  1.
          3    1    1    2  501    0  0.38306360405E+02 -0.33266435075E+02  0.54913755462E+02  0.74763316466E+02  0.00000000000E+00 0. -1.
         -3    1    1    2    0  503 -0.38306360405E+02  0.33266435075E+02  0.18722938761E+03  0.19398163969E+03  0.00000000000E+00 0.  1.
<mgrwt>
<rscale>  2 0.50734928E+02</rscale>
<asrwt>0</asrwt>
<pdfrwt beam="1">  1       21 0.39299081E-01 0.50734928E+02</pdfrwt>
<pdfrwt beam="2">  1       21 0.20462935E-02 0.50734928E+02</pdfrwt>
<totfact> 0.67865617E+06</totfact>
</mgrwt>
</event>
<event>
 4    1  0.3862688E+004  0.7998277E+02  0.7546771E-02  0.1329100E+00
         21   -1    0    0  501  502  0.00000000000E+00  0.00000000000E+00  0.12873577247E+03  0.12873577247E+03  0.00000000000E+00 0.  1.
         21   -1    0    0  502  503 -0.00000000000E+00 -0.00000000000E+00 -0.51003275202E+02  0.51003275202E+02  0.00000000000E+00 0.  1.
          2    1    1    2  501    0  0.39323954441E+02 -0.69648186785E+02  0.53271632114E+02  0.96099480246E+02  0.00000000000E+00 0. -1.
         -2    1    1    2    0  503 -0.39323954441E+02  0.69648186785E+02  0.24460865157E+02  0.83639567428E+02  0.00000000000E+00 0.  1.
<mgrwt>
<rscale>  2 0.79982769E+02</rscale>
<asrwt>0</asrwt>
<pdfrwt beam="1">  1       21 0.19805503E-01 0.79982769E+02</pdfrwt>
<pdfrwt beam="2">  1       21 0.78466578E-02 0.79982769E+02</pdfrwt>
<totfact> 0.28291718E+06</totfact>
</mgrwt>
</event>
<event>
 4    1  0.3862688E+004  0.2079301E+02  0.7546771E-02  0.1730003E+00
         21   -1    0    0  501  502  0.00000000000E+00  0.00000000000E+00  0.27067803303E+03  0.27067803303E+03  0.00000000000E+00 0.  1.
         21   -1    0    0  502  503 -0.00000000000E+00 -0.00000000000E+00 -0.15973350416E+01  0.15973350416E+01  0.00000000000E+00 0.  1.
          1    1    1    2  501    0  0.16409201999E+02  0.12770566764E+02  0.13532112299E+03  0.13690929703E+03  0.00000000000E+00 0.  1.
         -1    1    1    2    0  503 -0.16409201999E+02 -0.12770566764E+02  0.13375957500E+03  0.13536607104E+03  0.00000000000E+00 0. -1.
<mgrwt>
<rscale>  2 0.20793011E+02</rscale>
<asrwt>0</asrwt>
<pdfrwt beam="1">  1       21 0.41642738E-01 0.20793011E+02</pdfrwt>
<pdfrwt beam="2">  1       21 0.24574407E-03 0.20793011E+02</pdfrwt>
<totfact> 0.12557022E+08</totfact>
</mgrwt>
</event>
<event>
 4    1  0.3862688E+004  0.2219117E+02  0.7546771E-02  0.1704967E+00
         21   -1    0    0  501  502  0.00000000000E+00  0.00000000000E+00  0.73168652965E+02  0.73168652965E+02  0.00000000000E+00 0. -1.
         21   -1    0    0  502  503 -0.00000000000E+00 -0.00000000000E+00 -0.93202248070E+01  0.93202248070E+01  0.00000000000E+00 0. -1.
          1    1    1    2  501    0 -0.16647287598E+02  0.14673642221E+02  0.53665972495E+02  0.58073096734E+02  0.00000000000E+00 0.  1.
         -1    1    1    2    0  503  0.16647287598E+02 -0.14673642221E+02  0.10182455663E+02  0.24415781038E+02  0.00000000000E+00 0. -1.
<mgrwt>
<rscale>  2 0.22191169E+02</rscale>
<asrwt>0</asrwt>
<pdfrwt beam="1">  1       21 0.11256715E-01 0.22191169E+02</pdfrwt>
<pdfrwt beam="2">  1       21 0.14338808E-02 0.22191169E+02</pdfrwt>
<totfact> 0.94215115E+07</totfact>
</mgrwt>
</event>
<event>
 4    1  0.3862688E+004  0.2315717E+02  0.7546771E-02  0.1688975E+00
         21   -1    0    0  503  502  0.00000000000E+00  0.00000000000E+00  0.80430073198E+01  0.80430073198E+01  0.00000000000E+00 0.  1.
         21   -1    0    0  501  503 -0.00000000000E+00 -0.00000000000E+00 -0.83744927635E+02  0.83744927635E+02  0.00000000000E+00 0.  1.
          5    1    1    2  501    0 -0.21688736688E+02 -0.81150121619E+01 -0.58572041626E+02  0.62983639000E+02  0.00000000000E+00 0.  1.
         -5    1    1    2    0  502  0.21688736688E+02  0.81150121619E+01 -0.17129878689E+02  0.28804295954E+02  0.00000000000E+00 0. -1.
<mgrwt>
<rscale>  2 0.23157174E+02</rscale>
<asrwt>0</asrwt>
<pdfrwt beam="1">  1       21 0.12373858E-02 0.23157174E+02</pdfrwt>
<pdfrwt beam="2">  1       21 0.12883835E-01 0.23157174E+02</pdfrwt>
<totfact> 0.95079542E+07</totfact>
</mgrwt>
</event>
<event>
 4    1  0.3862688E+004  0.3015046E+02  0.7546771E-02  0.1596431E+00
         21   -1    0    0  501  502  0.00000000000E+00  0.00000000000E+00  0.38563583158E+02  0.38563583158E+02  0.00000000000E+00 0.  1.
         21   -1    0    0  502  503 -0.00000000000E+00 -0.00000000000E+00 -0.23576326291E+02  0.23576326291E+02  0.00000000000E+00 0.  1.
          3    1    1    2  501    0  0.29753348337E+02 -0.48773296844E+01  0.78757699242E+01  0.31162121783E+02  0.00000000000E+00 0. -1.
         -3    1    1    2    0  503 -0.29753348337E+02  0.48773296844E+01  0.71114869436E+01  0.30977787666E+02  0.00000000000E+00 0.  1.
<mgrwt>
<rscale>  2 0.30150457E+02</rscale>
<asrwt>0</asrwt>
<pdfrwt beam="1">  1       21 0.59328589E-02 0.30150457E+02</pdfrwt>
<pdfrwt beam="2">  1       21 0.36271271E-02 0.30150457E+02</pdfrwt>
<totfact> 0.69368274E+07</totfact>
</mgrwt>
</event>
<event>
 4    1  0.3862688E+004  0.2461476E+02  0.7546771E-02  0.1666598E+00
         21   -1    0    0  503  502  0.00000000000E+00  0.00000000000E+00  0.12698002822E+01  0.12698002822E+01  0.00000000000E+00 0.  1.
         21   -1    0    0  501  503 -0.00000000000E+00 -0.00000000000E+00 -0.47787217350E+03  0.47787217350E+03  0.00000000000E+00 0.  1.
          2    1    1    2  501    0 -0.24302291250E+02  0.39095811299E+01 -0.22899295983E+03  0.23031209660E+03  0.00000000000E+00 0. -1.
         -2    1    1    2    0  502  0.24302291250E+02 -0.39095811299E+01 -0.24760941338E+03  0.24882987718E+03  0.00000000000E+00 0.  1.
<mgrwt>
<rscale>  2 0.24614755E+02</rscale>
<asrwt>0</asrwt>
<pdfrwt beam="1">  1       21 0.19535420E-03 0.24614755E+02</pdfrwt>
<pdfrwt beam="2">  1       21 0.73518678E-01 0.24614755E+02</pdfrwt>
<totfact> 0.59438975E+07</totfact>
</mgrwt>
</event>
<event>
 4    1  0.3862688E+004  0.2267079E+02  0.7546771E-02  0.1696903E+00
         21   -1    0    0  503  502  0.00000000000E+00  0.00000000000E+00  0.13294648567E+04  0.13294648567E+04  0.00000000000E+00 0. -1.
         21   -1    0    0  501  503 -0.00000000000E+00 -0.00000000000E+00 -0.38659582308E+00  0.38659582308E+00  0.00000000000E+00 0. -1.
          5    1    1    2  501    0 -0.22521884381E+02 -0.25941370498E+01  0.66533558538E+03  0.66572171813E+03  0.00000000000E+00 0.  1.
         -5    1    1    2    0  502  0.22521884381E+02  0.25941370498E+01  0.66374267547E+03  0.66412973436E+03  0.00000000000E+00 0. -1.
<mgrwt>
<rscale>  2 0.22670792E+02</rscale>
<asrwt>0</asrwt>
<pdfrwt beam="1">  1       21 0.20452939E+00 0.22670792E+02</pdfrwt>
<pdfrwt beam="2">  1       21 0.59477345E-04 0.22670792E+02</pdfrwt>
<totfact> 0.30574049E+07</totfact>
</mgrwt>
</event>
<event>
 4    1  0.3862688E+004  0.3490741E+02  0.7546771E-02  0.1549424E+00
         21   -1    0    0  503  502  0.00000000000E+00  0.00000000000E+00  0.15576992153E+01  0.15576992153E+01  0.00000000000E+00 0. -1.
         21   -1    0    0  501  503 -0.00000000000E+00 -0.00000000000E+00 -0.92557734408E+03  0.92557734408E+03  0.00000000000E+00 0. -1.
          2    1    1    2  501    0  0.31578437999E+02  0.14877149731E+02 -0.27959735475E+03  0.28176800407E+03  0.00000000000E+00 0. -1.
         -2    1    1    2    0  502 -0.31578437999E+02 -0.14877149731E+02 -0.64442229011E+03  0.64536703923E+03  0.00000000000E+00 0.  1.
<mgrwt>
<rscale>  2 0.34907411E+02</rscale>
<asrwt>0</asrwt>
<pdfrwt beam="1">  1       21 0.23964578E-03 0.34907411E+02</pdfrwt>
<pdfrwt beam="2">  1       21 0.14239667E+00 0.34907411E+02</pdfrwt>
<totfact> 0.10742617E+07</totfact>
</mgrwt>
</event>
<event>
 4    1  0.3862688E+004  0.2969116E+02  0.7546771E-02  0.1601528E+00
         21   -1    0    0  501  502  0.00000000000E+00  0.00000000000E+00  0.11293141736E+02  0.11293141736E+02  0.00000000000E+00 0. -1.
         21   -1    0    0  502  503 -0.00000000000E+00 -0.00000000000E+00 -0.97906430913E+02  0.97906430913E+02  0.00000000000E+00 0. -1.
          3    1    1    2  501    0  0.29684517975E+02  0.62784897034E+00 -0.67887957387E+02  0.74096825572E+02  0.00000000000E+00 0.  1.
         -3    1    1    2    0  503 -0.29684517975E+02 -0.62784897034E+00 -0.18725331790E+02  0.35102747077E+02  0.00000000000E+00 0. -1.
<mgrwt>
<rscale>  2 0.29691157E+02</rscale>
<asrwt>0</asrwt>
<pdfrwt beam="1">  1       21 0.17374064E-02 0.29691157E+02</pdfrwt>
<pdfrwt beam="2">  1       21 0.15062528E-01 0.29691157E+02</pdfrwt>
<totfact> 0.46161417E+07</totfact>
</mgrwt>
</event>
<event>
 4    1  0.3862688E+004  0.2192832E+02  0.7546771E-02  0.1709495E+00
         21   -1    0    0  503  502  0.00000000000E+00  0.00000000000E+00  0.38961037920E+03  0.38961037920E+03  0.00000000000E+00 0. -1.
         21   -1    0    0  501  503 -0.00000000000E+00 -0.00000000000E+00 -0.12515852889E+01  0.12515852889E+01  0.00000000000E+00 0. -1.
          5    1    1    2  501    0 -0.21791430971E+02 -0.24463981418E+01  0.21722245325E+03  0.21832646547E+03  0.00000000000E+00 0. -1.
         -5    1    1    2    0  502  0.21791430971E+02  0.24463981418E+01  0.17113634067E+03  0.17253549903E+03  0.00000000000E+00 0.  1.
<mgrwt>
<rscale>  2 0.21928322E+02</rscale>
<asrwt>0</asrwt>
<pdfrwt beam="1">  1       21 0.59939962E-01 0.21928322E+02</pdfrwt>
<pdfrwt beam="2">  1       21 0.19255189E-03 0.21928322E+02</pdfrwt>
<totfact> 0.89407752E+07</totfact>
</mgrwt>
</event>
<event>
 4    1  0.3862688E+004  0.3010316E+02  0.7546771E-02  0.1596951E+00
         21   -1    0    0  501  502  0.00000000000E+00  0.00000000000E+00  0.69965891072E+01  0.69965891072E+01  0.00000000000E+00 0. -1.
         21   -1    0    0  502  503 -0.00000000000E+00 -0.00000000000E+00 -0.12954866116E+03  0.12954866116E+03  0.00000000000E+00 0. -1.
          1    1    1    2  501    0  0.25832710938E+02 -0.15455452908E+02 -0.62287068481E+02  0.69180046827E+02  0.00000000000E+00 0.  1.
         -1    1    1    2    0  503 -0.25832710938E+02  0.15455452908E+02 -0.60265003572E+02  0.67365203441E+02  0.00000000000E+00 0. -1.
<mgrwt>
<rscale>  2 0.30103156E+02</rscale>
<asrwt>0</asrwt>
<pdfrwt beam="1">  1       21 0.10763983E-02 0.30103156E+02</pdfrwt>
<pdfrwt beam="2">  1       21 0.19930563E-01 0.30103156E+02</pdfrwt>
<totfact> 0.59128797E+07</totfact>
</mgrwt>
</event>
<event>
 4    1  0.3862688E+004  0.2382176E+02  0.7546771E-02  0.1678526E+00
         21   -1    0    0  503  502  0.00000000000E+00  0.00000000000E+00  0.48179319654E+02  0.48179319654E+02  0.00000000000E+00 0. -1.
         21   -1    0    0  501  503 -0.00000000000E+00 -0.00000000000E+00 -0.16623357691E+02  0.16623357691E+02  0.00000000000E+00 0. -1.
          1    1    1    2  501    0  0.68305063805E+01  0.22821494957E+02  0.33270304562E+02  0.40919306142E+02  0.00000000000E+00 0. -1.
         -1    1    1    2    0  502 -0.68305063805E+01 -0.22821494957E+02 -0.17143425983E+01  0.23883371203E+02  0.00000000000E+00 0.  1.
<mgrwt>
<rscale>  2 0.23821764E+02</rscale>
<asrwt>0</asrwt>
<pdfrwt beam="1">  1       21 0.74122029E-02 0.23821764E+02</pdfrwt>
<pdfrwt beam="2">  1       21 0.25574397E-02 0.23821764E+02</pdfrwt>
<totfact> 0.78739836E+07</totfact>
</mgrwt>
</event>
<event>
 4    1  0.3862688E+004  0.2030190E+02  0.7546771E-02  0.1739390E+00
         21   -1    0    0  503  502  0.00000000000E+00  0.00000000000E+00  0.31394971449E+03  0.31394971449E+03  0.00000000000E+00 0. -1.
         21   -1    0    0  501  503 -0.00000000000E+00 -0.00000000000E+00 -0.13743945099E+01  0.13743945099E+01  0.00000000000E+00 0. -1.
          1    1    1    2  501    0 -0.71450593481E+01  0.19003036184E+02  0.12292317691E+03  0.12458842113E+03  0.00000000000E+00 0. -1.
         -1    1    1    2    0  502  0.71450593481E+01 -0.19003036184E+02  0.18965214307E+03  0.19073568787E+03  0.00000000000E+00 0.  1.
<mgrwt>
<rscale>  2 0.20301903E+02</rscale>
<asrwt>0</asrwt>
<pdfrwt beam="1">  1       21 0.48299899E-01 0.20301903E+02</pdfrwt>
<pdfrwt beam="2">  1       21 0.21144556E-03 0.20301903E+02</pdfrwt>
<totfact> 0.11681537E+08</totfact>
</mgrwt>
</event>
<event>
 4    1  0.3862688E+004  0.2088134E+02  0.7546771E-02  0.1728349E+00
         21   -1    0    0  501  502  0.00000000000E+00  0.00000000000E+00  0.53810541372E+01  0.53810541372E+01  0.00000000000E+00 0.  1.
         21   -1    0    0  502  503 -0.00000000000E+00 -0.00000000000E+00 -0.85466016859E+02  0.85466016859E+02  0.00000000000E+00 0.  1.
          1    1    1    2  501    0  0.50014256942E+01  0.20273537078E+02 -0.50390249742E+02  0.54545465748E+02  0.00000000000E+00 0. -1.
         -1    1    1    2    0  503 -0.50014256942E+01 -0.20273537078E+02 -0.29694712980E+02  0.36301605248E+02  0.00000000000E+00 0.  1.
<mgrwt>
<rscale>  2 0.20881345E+02</rscale>
<asrwt>0</asrwt>
<pdfrwt beam="1">  1       21 0.82785446E-03 0.20881345E+02</pdfrwt>
<pdfrwt beam="2">  1       21 0.13148618E-01 0.20881345E+02</pdfrwt>
<totfact> 0.16289679E+08</totfact>
</mgrwt>
</event>
<event>
 4    1  0.3862688E+004  0.2215114E+02  0.7546771E-02  0.1705651E+00
         21   -1    0    0  503  502  0.00000000000E+00  0.00000000000E+00  0.12425664017E+02  0.12425664017E+02  0.00000000000E+00 0.  1.
         21   -1    0    0  501  503 -0.00000000000E+00 -0.00000000000E+00 -0.43128474528E+02  0.43128474528E+02  0.00000000000E+00 0.  1.
          2    1    1    2  501    0 -0.22116772597E+02  0.12334087966E+01 -0.72819634753E+01  0.23317373768E+02  0.00000000000E+00 0.  1.
         -2    1    1    2    0  502  0.22116772597E+02 -0.12334087966E+01 -0.23420847036E+02  0.32236764777E+02  0.00000000000E+00 0. -1.
<mgrwt>
<rscale>  2 0.22151138E+02</rscale>
<asrwt>0</asrwt>
<pdfrwt beam="1">  1       21 0.19116406E-02 0.22151138E+02</pdfrwt>
<pdfrwt beam="2">  1       21 0.66351499E-02 0.22151138E+02</pdfrwt>
<totfact> 0.14439626E+08</totfact>
</mgrwt>
</event>
<event>
 4    1  0.3862688E+004  0.2825389E+02  0.7546771E-02  0.1618232E+00
         21   -1    0    0  501  502  0.00000000000E+00  0.00000000000E+00  0.11792618615E+02  0.11792618615E+02  0.00000000000E+00 0.  1.
         21   -1    0    0  502  503 -0.00000000000E+00 -0.00000000000E+00 -0.72724451240E+02  0.72724451240E+02  0.00000000000E+00 0.  1.
          3    1    1    2  501    0  0.27494078311E+02 -0.65082922039E+01 -0.41580788072E+02  0.50271703236E+02  0.00000000000E+00 0. -1.
         -3    1    1    2    0  503 -0.27494078311E+02  0.65082922039E+01 -0.19351044552E+02  0.34245366619E+02  0.00000000000E+00 0.  1.
<mgrwt>
<rscale>  2 0.28253888E+02</rscale>
<asrwt>0</asrwt>
<pdfrwt beam="1">  1       21 0.18142490E-02 0.28253888E+02</pdfrwt>
<pdfrwt beam="2">  1       21 0.11188377E-01 0.28253888E+02</pdfrwt>
<totfact> 0.70770815E+07</totfact>
</mgrwt>
</event>
<event>
 4    1  0.3862688E+004  0.2015341E+02  0.7546771E-02  0.1742294E+00
         21   -1    0    0  503  502  0.00000000000E+00  0.00000000000E+00  0.24178742613E+01  0.24178742613E+01  0.00000000000E+00 0.  1.
         21   -1    0    0  501  503 -0.00000000000E+00 -0.00000000000E+00 -0.19075345877E+03  0.19075345877E+03  0.00000000000E+00 0.  1.
          3    1    1    2  501    0  0.20130680807E+02  0.95680466562E+00 -0.60796717172E+02  0.64049985197E+02  0.00000000000E+00 0.  1.
         -3    1    1    2    0  502 -0.20130680807E+02 -0.95680466562E+00 -0.12753886733E+03  0.12912134783E+03  0.00000000000E+00 0. -1.
<mgrwt>
<rscale>  2 0.20153406E+02</rscale>
<asrwt>0</asrwt>
<pdfrwt beam="1">  1       21 0.37198046E-03 0.20153406E+02</pdfrwt>
<pdfrwt beam="2">  1       21 0.29346702E-01 0.20153406E+02</pdfrwt>
<totfact> 0.12995655E+08</totfact>
</mgrwt>
</event>
<event>
 4    1  0.3862688E+004  0.2160294E+02  0.7546771E-02  0.1715211E+00
         21   -1    0    0  503  502  0.00000000000E+00  0.00000000000E+00  0.17246964158E+02  0.17246964158E+02  0.00000000000E+00 0. -1.
         21   -1    0    0  501  503 -0.00000000000E+00 -0.00000000000E+00 -0.43768668928E+02  0.43768668928E+02  0.00000000000E+00 0. -1.
          3    1    1    2  501    0  0.31805735926E+01  0.21367524108E+02  0.55891853942E+01  0.22314258407E+02  0.00000000000E+00 0.  1.
         -3    1    1    2    0  502 -0.31805735926E+01 -0.21367524108E+02 -0.32110890165E+02  0.38701374679E+02  0.00000000000E+00 0. -1.
<mgrwt>
<rscale>  2 0.21602943E+02</rscale>
<asrwt>0</asrwt>
<pdfrwt beam="1">  1       21 0.26533792E-02 0.21602943E+02</pdfrwt>
<pdfrwt beam="2">  1       21 0.67336412E-02 0.21602943E+02</pdfrwt>
<totfact> 0.84538383E+07</totfact>
</mgrwt>
</event>
<event>
 4    1  0.3862688E+004  0.2002169E+02  0.7546771E-02  0.1744897E+00
         21   -1    0    0  501  502  0.00000000000E+00  0.00000000000E+00  0.53327624570E+02  0.53327624570E+02  0.00000000000E+00 0.  1.
         21   -1    0    0  502  503 -0.00000000000E+00 -0.00000000000E+00 -0.75495811390E+01  0.75495811390E+01  0.00000000000E+00 0.  1.
          1    1    1    2  501    0 -0.67318198017E+01  0.18856048837E+02  0.20891837373E+02  0.28936773220E+02  0.00000000000E+00 0. -1.
         -1    1    1    2    0  503  0.67318198017E+01 -0.18856048837E+02  0.24886206058E+02  0.31940432489E+02  0.00000000000E+00 0.  1.
<mgrwt>
<rscale>  2 0.20021688E+02</rscale>
<asrwt>0</asrwt>
<pdfrwt beam="1">  1       21 0.82042497E-02 0.20021688E+02</pdfrwt>
<pdfrwt beam="2">  1       21 0.11614741E-02 0.20021688E+02</pdfrwt>
<totfact> 0.21102742E+08</totfact>
</mgrwt>
</event>
<event>
 4    1  0.3862688E+004  0.2254810E+02  0.7546771E-02  0.1698942E+00
         21   -1    0    0  501  502  0.00000000000E+00  0.00000000000E+00  0.20086059680E+02  0.20086059680E+02  0.00000000000E+00 0. -1.
         21   -1    0    0  502  503 -0.00000000000E+00 -0.00000000000E+00 -0.25838035976E+02  0.25838035976E+02  0.00000000000E+00 0. -1.
          3    1    1    2  501    0  0.18477177649E+02  0.12923259003E+02  0.40060104336E+00  0.22551656222E+02  0.00000000000E+00 0.  1.
         -3    1    1    2    0  503 -0.18477177649E+02 -0.12923259003E+02 -0.61525773393E+01  0.23372439433E+02  0.00000000000E+00 0. -1.
<mgrwt>
<rscale>  2 0.22548098E+02</rscale>
<asrwt>0</asrwt>
<pdfrwt beam="1">  1       21 0.30901630E-02 0.22548098E+02</pdfrwt>
<pdfrwt beam="2">  1       21 0.39750824E-02 0.22548098E+02</pdfrwt>
<totfact> 0.15643384E+08</totfact>
</mgrwt>
</event>
<event>
 4    1  0.3862688E+004  0.2135613E+02  0.7546771E-02  0.1719631E+00
         21   -1    0    0  503  502  0.00000000000E+00  0.00000000000E+00  0.18358882643E+04  0.18358882643E+04  0.00000000000E+00 0. -1.
         21   -1    0    0  501  503 -0.00000000000E+00 -0.00000000000E+00 -0.25038774122E+00  0.25038774122E+00  0.00000000000E+00 0. -1.
          4    1    1    2  501    0  0.29656838639E+01  0.21149208923E+02  0.99905946871E+03  0.99928769949E+03  0.00000000000E+00 0. -1.
         -4    1    1    2    0  502 -0.29656838639E+01 -0.21149208923E+02  0.83657840788E+03  0.83685095259E+03  0.00000000000E+00 0.  1.
<mgrwt>
<rscale>  2 0.21356131E+02</rscale>
<asrwt>0</asrwt>
<pdfrwt beam="1">  1       21 0.28243357E+00 0.21356131E+02</pdfrwt>
<pdfrwt beam="2">  1       21 0.38522661E-04 0.21356131E+02</pdfrwt>
<totfact> 0.22613174E+07</totfact>
</mgrwt>
</event>
<event>
 4    1  0.3862688E+004  0.3610870E+02  0.7546771E-02  0.1538970E+00
         21   -1    0    0  503  502  0.00000000000E+00  0.00000000000E+00  0.42849693578E+03  0.42849693578E+03  0.00000000000E+00 0.  1.
         21   -1    0    0  501  503 -0.00000000000E+00 -0.00000000000E+00 -0.31873650400E+01  0.31873650400E+01  0.00000000000E+00 0.  1.
          4    1    1    2  501    0  0.90051797723E+01 -0.34967772696E+02  0.16669010402E+03  0.17055623462E+03  0.00000000000E+00 0. -1.
         -4    1    1    2    0  502 -0.90051797723E+01  0.34967772696E+02  0.25861946672E+03  0.26112806620E+03  0.00000000000E+00 0.  1.
<mgrwt>
<rscale>  2 0.36108702E+02</rscale>
<asrwt>0</asrwt>
<pdfrwt beam="1">  1       21 0.65922560E-01 0.36108702E+02</pdfrwt>
<pdfrwt beam="2">  1       21 0.49036419E-03 0.36108702E+02</pdfrwt>
<totfact> 0.20669961E+07</totfact>
</mgrwt>
</event>
<event>
 4    1  0.3862688E+004  0.2066168E+02  0.7546771E-02  0.1732481E+00
         21   -1    0    0  503  502  0.00000000000E+00  0.00000000000E+00  0.13507697594E+02  0.13507697594E+02  0.00000000000E+00 0. -1.
         21   -1    0    0  501  503 -0.00000000000E+00 -0.00000000000E+00 -0.32191318288E+02  0.32191318288E+02  0.00000000000E+00 0. -1.
          5    1    1    2  501    0  0.12033968002E+02 -0.16795496314E+02 -0.62569861241E+01  0.21588306040E+02  0.00000000000E+00 0. -1.
         -5    1    1    2    0  502 -0.12033968002E+02  0.16795496314E+02 -0.12426634570E+02  0.24110709841E+02  0.00000000000E+00 0.  1.
<mgrwt>
<rscale>  2 0.20661681E+02</rscale>
<asrwt>0</asrwt>
<pdfrwt beam="1">  1       21 0.20781073E-02 0.20661681E+02</pdfrwt>
<pdfrwt beam="2">  1       21 0.49525105E-02 0.20661681E+02</pdfrwt>
<totfact> 0.19843043E+08</totfact>
</mgrwt>
</event>
<event>
 4    1  0.3862688E+004  0.2447365E+02  0.7546771E-02  0.1668679E+00
         21   -1    0    0  503  502  0.00000000000E+00  0.00000000000E+00  0.80233154303E+01  0.80233154303E+01  0.00000000000E+00 0. -1.
         21   -1    0    0  501  503 -0.00000000000E+00 -0.00000000000E+00 -0.91886268501E+02  0.91886268501E+02  0.00000000000E+00 0. -1.
          1    1    1    2  501    0 -0.24456287798E+02  0.92178083571E+00 -0.20297152566E+02  0.31795189810E+02  0.00000000000E+00 0.  1.
         -1    1    1    2    0  502  0.24456287798E+02 -0.92178083571E+00 -0.63565800505E+02  0.68114394122E+02  0.00000000000E+00 0. -1.
<mgrwt>
<rscale>  2 0.24473653E+02</rscale>
<asrwt>0</asrwt>
<pdfrwt beam="1">  1       21 0.12343562E-02 0.24473653E+02</pdfrwt>
<pdfrwt beam="2">  1       21 0.14136349E-01 0.24473653E+02</pdfrwt>
<totfact> 0.82821802E+07</totfact>
</mgrwt>
</event>
<event>
 4    1  0.3862688E+004  0.2098291E+02  0.7546771E-02  0.1726460E+00
         21   -1    0    0  501  502  0.00000000000E+00  0.00000000000E+00  0.38831552958E+03  0.38831552958E+03  0.00000000000E+00 0. -1.
         21   -1    0    0  502  503 -0.00000000000E+00 -0.00000000000E+00 -0.11501622152E+01  0.11501622152E+01  0.00000000000E+00 0. -1.
          4    1    1    2  501    0 -0.19283915625E+02 -0.82712287322E+01  0.21678985867E+03  0.21780295096E+03  0.00000000000E+00 0. -1.
         -4    1    1    2    0  503  0.19283915625E+02  0.82712287322E+01  0.17037550870E+03  0.17166274083E+03  0.00000000000E+00 0.  1.
<mgrwt>
<rscale>  2 0.20982913E+02</rscale>
<asrwt>0</asrwt>
<pdfrwt beam="1">  1       21 0.59740746E-01 0.20982913E+02</pdfrwt>
<pdfrwt beam="2">  1       21 0.17694834E-03 0.20982913E+02</pdfrwt>
<totfact> 0.10047075E+08</totfact>
</mgrwt>
</event>
<event>
 4    1  0.3862688E+004  0.4721841E+02  0.7546771E-02  0.1460949E+00
         21   -1    0    0  501  502  0.00000000000E+00  0.00000000000E+00  0.16016693964E+03  0.16016693964E+03  0.00000000000E+00 0. -1.
         21   -1    0    0  502  503 -0.00000000000E+00 -0.00000000000E+00 -0.13997370723E+02  0.13997370723E+02  0.00000000000E+00 0. -1.
          3    1    1    2  501    0 -0.47094562194E+02 -0.34176065519E+01  0.66624590511E+02  0.81660356867E+02  0.00000000000E+00 0.  1.
         -3    1    1    2    0  503  0.47094562194E+02  0.34176065519E+01  0.79544978410E+02  0.92503953499E+02  0.00000000000E+00 0. -1.
<mgrwt>
<rscale>  2 0.47218406E+02</rscale>
<asrwt>0</asrwt>
<pdfrwt beam="1">  1       21 0.24641066E-01 0.47218406E+02</pdfrwt>
<pdfrwt beam="2">  1       21 0.21534418E-02 0.47218406E+02</pdfrwt>
<totfact> 0.14945538E+07</totfact>
</mgrwt>
</event>
<event>
 4    1  0.3862688E+004  0.2239040E+02  0.7546771E-02  0.1701586E+00
         21   -1    0    0  501  502  0.00000000000E+00  0.00000000000E+00  0.21409878479E+03  0.21409878479E+03  0.00000000000E+00 0.  1.
         21   -1    0    0  502  503 -0.00000000000E+00 -0.00000000000E+00 -0.24841992014E+01  0.24841992014E+01  0.00000000000E+00 0.  1.
          2    1    1    2  501    0  0.22197133436E+02  0.29354937950E+01  0.13175429045E+03  0.13364326735E+03  0.00000000000E+00 0. -1.
         -2    1    1    2    0  503 -0.22197133436E+02 -0.29354937950E+01  0.79860295140E+02  0.82939716640E+02  0.00000000000E+00 0.  1.
<mgrwt>
<rscale>  2 0.22390397E+02</rscale>
<asrwt>0</asrwt>
<pdfrwt beam="1">  1       21 0.32938260E-01 0.22390397E+02</pdfrwt>
<pdfrwt beam="2">  1       21 0.38218466E-03 0.22390397E+02</pdfrwt>
<totfact> 0.10428456E+08</totfact>
</mgrwt>
</event>
<event>
 4    1  0.3862688E+004  0.2656440E+02  0.7546771E-02  0.1639498E+00
         21   -1    0    0  503  502  0.00000000000E+00  0.00000000000E+00  0.19909494944E+02  0.19909494944E+02  0.00000000000E+00 0.  1.
         21   -1    0    0  501  503 -0.00000000000E+00 -0.00000000000E+00 -0.38879363502E+02  0.38879363502E+02  0.00000000000E+00 0.  1.
          3    1    1    2  501    0 -0.14648215249E+02 -0.22160711351E+02 -0.74703469398E+00  0.26574901663E+02  0.00000000000E+00 0.  1.
         -3    1    1    2    0  502  0.14648215249E+02  0.22160711351E+02 -0.18222833864E+02  0.32213956782E+02  0.00000000000E+00 0. -1.
<mgrwt>
<rscale>  2 0.26564400E+02</rscale>
<asrwt>0</asrwt>
<pdfrwt beam="1">  1       21 0.30629992E-02 0.26564400E+02</pdfrwt>
<pdfrwt beam="2">  1       21 0.59814405E-02 0.26564400E+02</pdfrwt>
<totfact> 0.86596637E+07</totfact>
</mgrwt>
</event>
<event>
 4    1  0.3862688E+004  0.2248742E+02  0.7546771E-02  0.1699956E+00
         21   -1    0    0  503  502  0.00000000000E+00  0.00000000000E+00  0.15889034160E+02  0.15889034160E+02  0.00000000000E+00 0. -1.
         21   -1    0    0  501  503 -0.00000000000E+00 -0.00000000000E+00 -0.35463116068E+02  0.35463116068E+02  0.00000000000E+00 0. -1.
          4    1    1    2  501    0  0.93978524233E+01  0.20429503132E+02 -0.18009835143E+02  0.28810386847E+02  0.00000000000E+00 0. -1.
         -4    1    1    2    0  502 -0.93978524233E+01 -0.20429503132E+02 -0.15642467644E+01  0.22541763381E+02  0.00000000000E+00 0.  1.
<mgrwt>
<rscale>  2 0.22487424E+02</rscale>
<asrwt>0</asrwt>
<pdfrwt beam="1">  1       21 0.24444668E-02 0.22487424E+02</pdfrwt>
<pdfrwt beam="2">  1       21 0.54558639E-02 0.22487424E+02</pdfrwt>
<totfact> 0.13608501E+08</totfact>
</mgrwt>
</event>
<event>
 4    1  0.3862688E+004  0.3057059E+02  0.7546771E-02  0.1591866E+00
         21   -1    0    0  503  502  0.00000000000E+00  0.00000000000E+00  0.63259828531E+02  0.63259828531E+02  0.00000000000E+00 0.  1.
         21   -1    0    0  501  503 -0.00000000000E+00 -0.00000000000E+00 -0.19476624067E+02  0.19476624067E+02  0.00000000000E+00 0.  1.
          2    1    1    2  501    0  0.26911399885E+02  0.14503026249E+02  0.15629298901E+01  0.30610520479E+02  0.00000000000E+00 0. -1.
         -2    1    1    2    0  502 -0.26911399885E+02 -0.14503026249E+02  0.42220274575E+02  0.52125932119E+02  0.00000000000E+00 0.  1.
<mgrwt>
<rscale>  2 0.30570594E+02</rscale>
<asrwt>0</asrwt>
<pdfrwt beam="1">  1       21 0.97322812E-02 0.30570594E+02</pdfrwt>
<pdfrwt beam="2">  1       21 0.29964037E-02 0.30570594E+02</pdfrwt>
<totfact> 0.41674124E+07</totfact>
</mgrwt>
</event>
<event>
 4    1  0.3862688E+004  0.2825749E+02  0.7546771E-02  0.1618189E+00
         21   -1    0    0  503  502  0.00000000000E+00  0.00000000000E+00  0.31439681138E+03  0.31439681138E+03  0.00000000000E+00 0. -1.
         21   -1    0    0  501  503 -0.00000000000E+00 -0.00000000000E+00 -0.29023557174E+01  0.29023557174E+01  0.00000000000E+00 0. -1.
          1    1    1    2  501    0  0.95553929651E+01 -0.26592863220E+02  0.99669888085E+02  0.10359812981E+03  0.00000000000E+00 0. -1.
         -1    1    1    2    0  502 -0.95553929651E+01  0.26592863220E+02  0.21182456758E+03  0.21370103729E+03  0.00000000000E+00 0.  1.
<mgrwt>
<rscale>  2 0.28257493E+02</rscale>
<asrwt>0</asrwt>
<pdfrwt beam="1">  1       21 0.48368713E-01 0.28257493E+02</pdfrwt>
<pdfrwt beam="2">  1       21 0.44651651E-03 0.28257493E+02</pdfrwt>
<totfact> 0.42364950E+07</totfact>
</mgrwt>
</event>
<event>
 4    1  0.3862688E+004  0.2734464E+02  0.7546771E-02  0.1629443E+00
         21   -1    0    0  501  502  0.00000000000E+00  0.00000000000E+00  0.24682266189E+02  0.24682266189E+02  0.00000000000E+00 0.  1.
         21   -1    0    0  502  503 -0.00000000000E+00 -0.00000000000E+00 -0.31017435941E+02  0.31017435941E+02  0.00000000000E+00 0.  1.
          3    1    1    2  501    0 -0.23005735670E+02 -0.14780568667E+02 -0.74202882777E+01  0.28333544818E+02  0.00000000000E+00 0. -1.
         -3    1    1    2    0  503  0.23005735670E+02  0.14780568667E+02  0.10851185261E+01  0.27366157312E+02  0.00000000000E+00 0.  1.
<mgrwt>
<rscale>  2 0.27344635E+02</rscale>
<asrwt>0</asrwt>
<pdfrwt beam="1">  1       21 0.37972717E-02 0.27344635E+02</pdfrwt>
<pdfrwt beam="2">  1       21 0.47719132E-02 0.27344635E+02</pdfrwt>
<totfact> 0.89421439E+07</totfact>
</mgrwt>
</event>
<event>
 4    1  0.3862688E+004  0.2085100E+02  0.7546771E-02  0.1728916E+00
         21   -1    0    0  501  502  0.00000000000E+00  0.00000000000E+00  0.67947863491E+01  0.67947863491E+01  0.00000000000E+00 0. -1.
         21   -1    0    0  502  503 -0.00000000000E+00 -0.00000000000E+00 -0.65139151585E+02  0.65139151585E+02  0.00000000000E+00 0. -1.
          1    1    1    2  501    0  0.20434902219E+02 -0.41447371704E+01 -0.24384522130E+02  0.32083780862E+02  0.00000000000E+00 0. -1.
         -1    1    1    2    0  503 -0.20434902219E+02  0.41447371704E+01 -0.33959843106E+02  0.39850157072E+02  0.00000000000E+00 0.  1.
<mgrwt>
<rscale>  2 0.20850997E+02</rscale>
<asrwt>0</asrwt>
<pdfrwt beam="1">  1       21 0.10453517E-02 0.20850997E+02</pdfrwt>
<pdfrwt beam="2">  1       21 0.10021408E-01 0.20850997E+02</pdfrwt>
<totfact> 0.18050823E+08</totfact>
</mgrwt>
</event>
<event>
 4    1  0.3862688E+004  0.7023494E+02  0.7546771E-02  0.1359296E+00
         21   -1    0    0  503  502  0.00000000000E+00  0.00000000000E+00  0.84350552518E+02  0.84350552518E+02  0.00000000000E+00 0.  1.
         21   -1    0    0  501  503 -0.00000000000E+00 -0.00000000000E+00 -0.62956463749E+02  0.62956463749E+02  0.00000000000E+00 0.  1.
          5    1    1    2  501    0 -0.52869599590E+02 -0.46235836086E+02 -0.89396275359E+01  0.70801582184E+02  0.00000000000E+00 0.  1.
         -5    1    1    2    0  502  0.52869599590E+02  0.46235836086E+02  0.30333716305E+02  0.76505434083E+02  0.00000000000E+00 0. -1.
<mgrwt>
<rscale>  2 0.70234942E+02</rscale>
<asrwt>0</asrwt>
<pdfrwt beam="1">  1       21 0.12977008E-01 0.70234942E+02</pdfrwt>
<pdfrwt beam="2">  1       21 0.96856098E-02 0.70234942E+02</pdfrwt>
<totfact> 0.41669811E+06</totfact>
</mgrwt>
</event>
<event>
 4    1  0.3862688E+004  0.2267762E+02  0.7546771E-02  0.1696790E+00
         21   -1    0    0  501  502  0.00000000000E+00  0.00000000000E+00  0.30923216471E+01  0.30923216471E+01  0.00000000000E+00 0. -1.
         21   -1    0    0  502  503 -0.00000000000E+00 -0.00000000000E+00 -0.25285778619E+03  0.25285778619E+03  0.00000000000E+00 0. -1.
          2    1    1    2  501    0 -0.21126896633E+02  0.82418855349E+01 -0.19975533073E+03  0.20103847043E+03  0.00000000000E+00 0. -1.
         -2    1    1    2    0  503  0.21126896633E+02 -0.82418855349E+01 -0.50010133809E+02  0.54911637402E+02  0.00000000000E+00 0.  1.
<mgrwt>
<rscale>  2 0.22677620E+02</rscale>
<asrwt>0</asrwt>
<pdfrwt beam="1">  1       21 0.47574175E-03 0.22677620E+02</pdfrwt>
<pdfrwt beam="2">  1       21 0.38901201E-01 0.22677620E+02</pdfrwt>
<totfact> 0.55709386E+07</totfact>
</mgrwt>
</event>
<event>
 4    1  0.3862688E+004  0.2197350E+02  0.7546771E-02  0.1708711E+00
         21   -1    0    0  503  502  0.00000000000E+00  0.00000000000E+00  0.26103199122E+02  0.26103199122E+02  0.00000000000E+00 0. -1.
         21   -1    0    0  501  503 -0.00000000000E+00 -0.00000000000E+00 -0.23545600560E+02  0.23545600560E+02  0.00000000000E+00 0. -1.
          2    1    1    2  501    0  0.13599677824E+02  0.17259301437E+02  0.12773642050E+02  0.25416542925E+02  0.00000000000E+00 0.  1.
         -2    1    1    2    0  502 -0.13599677824E+02 -0.17259301437E+02 -0.10216043488E+02  0.24232256757E+02  0.00000000000E+00 0. -1.
<mgrwt>
<rscale>  2 0.21973500E+02</rscale>
<asrwt>0</asrwt>
<pdfrwt beam="1">  1       21 0.40158768E-02 0.21973500E+02</pdfrwt>
<pdfrwt beam="2">  1       21 0.36224001E-02 0.21973500E+02</pdfrwt>
<totfact> 0.11916480E+08</totfact>
</mgrwt>
</event>
<event>
 4    1  0.3862688E+004  0.6360550E+02  0.7546771E-02  0.1383295E+00
         21   -1    0    0  501  502  0.00000000000E+00  0.00000000000E+00  0.68195172274E+02  0.68195172274E+02  0.00000000000E+00 0. -1.
         21   -1    0    0  502  503 -0.00000000000E+00 -0.00000000000E+00 -0.73074648945E+02  0.73074648945E+02  0.00000000000E+00 0. -1.
          5    1    1    2  501    0  0.58551984810E+02  0.24846014384E+02 -0.33079564111E+02  0.71693213889E+02  0.00000000000E+00 0.  1.
         -5    1    1    2    0  503 -0.58551984810E+02 -0.24846014384E+02  0.28200087440E+02  0.69576607330E+02  0.00000000000E+00 0. -1.
<mgrwt>
<rscale>  2 0.63605498E+02</rscale>
<asrwt>0</asrwt>
<pdfrwt beam="1">  1       21 0.10491565E-01 0.63605498E+02</pdfrwt>
<pdfrwt beam="2">  1       21 0.11242254E-01 0.63605498E+02</pdfrwt>
<totfact> 0.46279948E+06</totfact>
</mgrwt>
</event>
<event>
 4    1  0.3862688E+004  0.2161545E+02  0.7546771E-02  0.1714989E+00
         21   -1    0    0  503  502  0.00000000000E+00  0.00000000000E+00  0.14392727086E+03  0.14392727086E+03  0.00000000000E+00 0. -1.
         21   -1    0    0  501  503 -0.00000000000E+00 -0.00000000000E+00 -0.40758417468E+01  0.40758417468E+01  0.00000000000E+00 0. -1.
          1    1    1    2  501    0  0.21283584499E+02  0.37731374016E+01  0.10331120825E+03  0.10554825098E+03  0.00000000000E+00 0.  1.
         -1    1    1    2    0  502 -0.21283584499E+02 -0.37731374016E+01  0.36540220866E+02  0.42454861629E+02  0.00000000000E+00 0. -1.
<mgrwt>
<rscale>  2 0.21615447E+02</rscale>
<asrwt>0</asrwt>
<pdfrwt beam="1">  1       21 0.22142653E-01 0.21615447E+02</pdfrwt>
<pdfrwt beam="2">  1       21 0.62705269E-03 0.21615447E+02</pdfrwt>
<totfact> 0.10164311E+08</totfact>
</mgrwt>
</event>
<event>
 4    1  0.3862688E+004  0.2124715E+02  0.7546771E-02  0.1721607E+00
         21   -1    0    0  501  502  0.00000000000E+00  0.00000000000E+00  0.72508224777E+01  0.72508224777E+01  0.00000000000E+00 0. -1.
         21   -1    0    0  502  503 -0.00000000000E+00 -0.00000000000E+00 -0.63026326582E+02  0.63026326582E+02  0.00000000000E+00 0. -1.
          4    1    1    2  501    0  0.16159410416E+02  0.13795471633E+02 -0.31760506190E+02  0.38212188317E+02  0.00000000000E+00 0. -1.
         -4    1    1    2    0  503 -0.16159410416E+02 -0.13795471633E+02 -0.24014997914E+02  0.32064960742E+02  0.00000000000E+00 0.  1.
<mgrwt>
<rscale>  2 0.21247155E+02</rscale>
<asrwt>0</asrwt>
<pdfrwt beam="1">  1       21 0.11155112E-02 0.21247155E+02</pdfrwt>
<pdfrwt beam="2">  1       21 0.96963577E-02 0.21247155E+02</pdfrwt>
<totfact> 0.17389794E+08</totfact>
</mgrwt>
</event>
<event>
 4    1  0.3862688E+004  0.2459877E+02  0.7546771E-02  0.1666833E+00
         21   -1    0    0  501  502  0.00000000000E+00  0.00000000000E+00  0.41300732006E+01  0.41300732006E+01  0.00000000000E+00 0. -1.
         21   -1    0    0  502  503 -0.00000000000E+00 -0.00000000000E+00 -0.17167821041E+03  0.17167821041E+03  0.00000000000E+00 0. -1.
          2    1    1    2  501    0  0.12323351977E+02  0.21289308485E+02 -0.50117300319E+02  0.55828697379E+02  0.00000000000E+00 0.  1.
         -2    1    1    2    0  503 -0.12323351977E+02 -0.21289308485E+02 -0.11743083689E+03  0.11997958623E+03  0.00000000000E+00 0. -1.
<mgrwt>
<rscale>  2 0.24598774E+02</rscale>
<asrwt>0</asrwt>
<pdfrwt beam="1">  1       21 0.63539581E-03 0.24598774E+02</pdfrwt>
<pdfrwt beam="2">  1       21 0.26412035E-01 0.24598774E+02</pdfrwt>
<totfact> 0.75425285E+07</totfact>
</mgrwt>
</event>
<event>
 4    1  0.3862688E+004  0.2336988E+02  0.7546771E-02  0.1685584E+00
         21   -1    0    0  503  502  0.00000000000E+00  0.00000000000E+00  0.14165748052E+02  0.14165748052E+02  0.00000000000E+00 0.  1.
         21   -1    0    0  501  503 -0.00000000000E+00 -0.00000000000E+00 -0.47150965031E+02  0.47150965031E+02  0.00000000000E+00 0.  1.
          4    1    1    2  501    0  0.20980262124E+02  0.10294644316E+02 -0.29583448334E+02  0.37700550602E+02  0.00000000000E+00 0.  1.
         -4    1    1    2    0  502 -0.20980262124E+02 -0.10294644316E+02 -0.34017686453E+01  0.23616162480E+02  0.00000000000E+00 0. -1.
<mgrwt>
<rscale>  2 0.23369876E+02</rscale>
<asrwt>0</asrwt>
<pdfrwt beam="1">  1       21 0.21793459E-02 0.23369876E+02</pdfrwt>
<pdfrwt beam="2">  1       21 0.72539946E-02 0.23369876E+02</pdfrwt>
<totfact> 0.10385104E+08</totfact>
</mgrwt>
</event>
<event>
 4    1  0.3862688E+004  0.2320350E+02  0.7546771E-02  0.1688233E+00
         21   -1    0    0  501  502  0.00000000000E+00  0.00000000000E+00  0.89169807158E+01  0.89169807158E+01  0.00000000000E+00 0.  1.
         21   -1    0    0  502  503 -0.00000000000E+00 -0.00000000000E+00 -0.69812874602E+02  0.69812874602E+02  0.00000000000E+00 0.  1.
          3    1    1    2  501    0 -0.21170146046E+02  0.94988071895E+01 -0.15977687754E+02  0.28172485293E+02  0.00000000000E+00 0.  1.
         -3    1    1    2    0  503  0.21170146046E+02 -0.94988071895E+01 -0.44918206133E+02  0.50557370025E+02  0.00000000000E+00 0. -1.
<mgrwt>
<rscale>  2 0.23203500E+02</rscale>
<asrwt>0</asrwt>
<pdfrwt beam="1">  1       21 0.13718432E-02 0.23203500E+02</pdfrwt>
<pdfrwt beam="2">  1       21 0.10740442E-01 0.23203500E+02</pdfrwt>
<totfact> 0.11033028E+08</totfact>
</mgrwt>
</event>
<event>
 4    1  0.3862688E+004  0.3139464E+02  0.7546771E-02  0.1583165E+00
         21   -1    0    0  503  502  0.00000000000E+00  0.00000000000E+00  0.23580863895E+04  0.23580863895E+04  0.00000000000E+00 0. -1.
         21   -1    0    0  501  503 -0.00000000000E+00 -0.00000000000E+00 -0.41797604756E+00  0.41797604756E+00  0.00000000000E+00 0. -1.
          4    1    1    2  501    0 -0.12388992389E+02 -0.28846774622E+02  0.11791913183E+04  0.11796091677E+04  0.00000000000E+00 0.  1.
         -4    1    1    2    0  502  0.12388992389E+02  0.28846774622E+02  0.11784770952E+04  0.11788951978E+04  0.00000000000E+00 0. -1.
<mgrwt>
<rscale>  2 0.31394642E+02</rscale>
<asrwt>0</asrwt>
<pdfrwt beam="1">  1       21 0.36277187E+00 0.31394642E+02</pdfrwt>
<pdfrwt beam="2">  1       21 0.64305896E-04 0.31394642E+02</pdfrwt>
<totfact> 0.43780424E+06</totfact>
</mgrwt>
</event>
<event>
 4    1  0.3862688E+004  0.2043648E+02  0.7546771E-02  0.1736785E+00
         21   -1    0    0  501  502  0.00000000000E+00  0.00000000000E+00  0.29353995703E+03  0.29353995703E+03  0.00000000000E+00 0.  1.
         21   -1    0    0  502  503 -0.00000000000E+00 -0.00000000000E+00 -0.14238060743E+01  0.14238060743E+01  0.00000000000E+00 0.  1.
          1    1    1    2  501    0  0.54801504345E+01 -0.19688012023E+02  0.14997038132E+03  0.15135641757E+03  0.00000000000E+00 0.  1.
         -1    1    1    2    0  503 -0.54801504345E+01  0.19688012023E+02  0.14214576964E+03  0.14360734554E+03  0.00000000000E+00 0. -1.
<mgrwt>
<rscale>  2 0.20436484E+02</rscale>
<asrwt>0</asrwt>
<pdfrwt beam="1">  1       21 0.45159945E-01 0.20436484E+02</pdfrwt>
<pdfrwt beam="2">  1       21 0.21904732E-03 0.20436484E+02</pdfrwt>
<totfact> 0.12650272E+08</totfact>
</mgrwt>
</event>
<event>
 4    1  0.3862688E+004  0.2944509E+02  0.7546771E-02  0.1604305E+00
         21   -1    0    0  503  502  0.00000000000E+00  0.00000000000E+00  0.12493714400E+02  0.12493714400E+02  0.00000000000E+00 0. -1.
         21   -1    0    0  501  503 -0.00000000000E+00 -0.00000000000E+00 -0.73960923020E+02  0.73960923020E+02  0.00000000000E+00 0. -1.
          2    1    1    2  501    0 -0.55696152536E+01  0.28913533776E+02 -0.41472923255E+02  0.50862721248E+02  0.00000000000E+00 0.  1.
         -2    1    1    2    0  502  0.55696152536E+01 -0.28913533776E+02 -0.19994285366E+02  0.35591916172E+02  0.00000000000E+00 0. -1.
<mgrwt>
<rscale>  2 0.29445085E+02</rscale>
<asrwt>0</asrwt>
<pdfrwt beam="1">  1       21 0.19221099E-02 0.29445085E+02</pdfrwt>
<pdfrwt beam="2">  1       21 0.11378604E-01 0.29445085E+02</pdfrwt>
<totfact> 0.63556520E+07</totfact>
</mgrwt>
</event>
<event>
 4    1  0.3862688E+004  0.2903593E+02  0.7546771E-02  0.1608996E+00
         21   -1    0    0  501  502  0.00000000000E+00  0.00000000000E+00  0.97241836398E+02  0.97241836398E+02  0.00000000000E+00 0. -1.
         21   -1    0    0  502  503 -0.00000000000E+00 -0.00000000000E+00 -0.10612750330E+02  0.10612750330E+02  0.00000000000E+00 0. -1.
          3    1    1    2  501    0 -0.24280527826E+02  0.15922983017E+02  0.20241512447E+02  0.35394974867E+02  0.00000000000E+00 0.  1.
         -3    1    1    2    0  503  0.24280527826E+02 -0.15922983017E+02  0.66387573621E+02  0.72459611861E+02  0.00000000000E+00 0. -1.
<mgrwt>
<rscale>  2 0.29035933E+02</rscale>
<asrwt>0</asrwt>
<pdfrwt beam="1">  1       21 0.14960282E-01 0.29035933E+02</pdfrwt>
<pdfrwt beam="2">  1       21 0.16327309E-02 0.29035933E+02</pdfrwt>
<totfact> 0.51137961E+07</totfact>
</mgrwt>
</event>
<event>
 4    1  0.3862688E+004  0.2270487E+02  0.7546771E-02  0.1696339E+00
         21   -1    0    0  503  502  0.00000000000E+00  0.00000000000E+00  0.82837252721E+00  0.82837252721E+00  0.00000000000E+00 0. -1.
         21   -1    0    0  501  503 -0.00000000000E+00 -0.00000000000E+00 -0.67178981729E+03  0.67178981729E+03  0.00000000000E+00 0. -1.
          5    1    1    2  501    0  0.46940805029E+00  0.22700021004E+02 -0.24421662316E+03  0.24526979089E+03  0.00000000000E+00 0.  1.
         -5    1    1    2    0  502 -0.46940805029E+00 -0.22700021004E+02 -0.42674482160E+03  0.42734839893E+03  0.00000000000E+00 0. -1.
<mgrwt>
<rscale>  2 0.22704874E+02</rscale>
<asrwt>0</asrwt>
<pdfrwt beam="1">  1       21 0.12744201E-03 0.22704874E+02</pdfrwt>
<pdfrwt beam="2">  1       21 0.10335221E+00 0.22704874E+02</pdfrwt>
<totfact> 0.52158555E+07</totfact>
</mgrwt>
</event>
<event>
 4    1  0.3862688E+004  0.2170066E+02  0.7546771E-02  0.1713481E+00
         21   -1    0    0  501  502  0.00000000000E+00  0.00000000000E+00  0.46684565129E+01  0.46684565129E+01  0.00000000000E+00 0.  1.
         21   -1    0    0  502  503 -0.00000000000E+00 -0.00000000000E+00 -0.10160601471E+03  0.10160601471E+03  0.00000000000E+00 0.  1.
          4    1    1    2  501    0  0.94240093510E+01  0.19547552385E+02 -0.52983713745E+02  0.57255503480E+02  0.00000000000E+00 0. -1.
         -4    1    1    2    0  503 -0.94240093510E+01 -0.19547552385E+02 -0.43953844453E+02  0.49018967744E+02  0.00000000000E+00 0.  1.
<mgrwt>
<rscale>  2 0.21700663E+02</rscale>
<asrwt>0</asrwt>
<pdfrwt beam="1">  1       21 0.71822406E-03 0.21700663E+02</pdfrwt>
<pdfrwt beam="2">  1       21 0.15631695E-01 0.21700663E+02</pdfrwt>
<totfact> 0.15194074E+08</totfact>
</mgrwt>
</event>
<event>
 4    1  0.3862688E+004  0.2475947E+02  0.7546771E-02  0.1664481E+00
         21   -1    0    0  501  502  0.00000000000E+00  0.00000000000E+00  0.38961622329E+02  0.38961622329E+02  0.00000000000E+00 0.  1.
         21   -1    0    0  502  503 -0.00000000000E+00 -0.00000000000E+00 -0.17342765662E+02  0.17342765662E+02  0.00000000000E+00 0.  1.
          3    1    1    2  501    0  0.11330301494E+02 -0.22014890000E+02  0.22357248162E+01  0.24860200706E+02  0.00000000000E+00 0.  1.
         -3    1    1    2    0  503 -0.11330301494E+02  0.22014890000E+02  0.19383131851E+02  0.31444187285E+02  0.00000000000E+00 0. -1.
<mgrwt>
<rscale>  2 0.24759465E+02</rscale>
<asrwt>0</asrwt>
<pdfrwt beam="1">  1       21 0.59940957E-02 0.24759465E+02</pdfrwt>
<pdfrwt beam="2">  1       21 0.26681178E-02 0.24759465E+02</pdfrwt>
<totfact> 0.10508558E+08</totfact>
</mgrwt>
</event>
<event>
 4    1  0.3862688E+004  0.3481749E+02  0.7546771E-02  0.1550227E+00
         21   -1    0    0  503  502  0.00000000000E+00  0.00000000000E+00  0.85461288452E+02  0.85461288452E+02  0.00000000000E+00 0. -1.
         21   -1    0    0  501  503 -0.00000000000E+00 -0.00000000000E+00 -0.19727051778E+02  0.19727051778E+02  0.00000000000E+00 0. -1.
          3    1    1    2  501    0  0.90493104860E+01  0.33620938327E+02  0.60744166415E+02  0.70015078860E+02  0.00000000000E+00 0. -1.
         -3    1    1    2    0  502 -0.90493104860E+01 -0.33620938327E+02  0.49900702585E+01  0.35173261370E+02  0.00000000000E+00 0.  1.
<mgrwt>
<rscale>  2 0.34817489E+02</rscale>
<asrwt>0</asrwt>
<pdfrwt beam="1">  1       21 0.13147890E-01 0.34817489E+02</pdfrwt>
<pdfrwt beam="2">  1       21 0.30349311E-02 0.34817489E+02</pdfrwt>
<totfact> 0.25193852E+07</totfact>
</mgrwt>
</event>
<event>
 4    1  0.3862688E+004  0.2472639E+02  0.7546771E-02  0.1664963E+00
         21   -1    0    0  501  502  0.00000000000E+00  0.00000000000E+00  0.99428039419E+03  0.99428039419E+03  0.00000000000E+00 0. -1.
         21   -1    0    0  502  503 -0.00000000000E+00 -0.00000000000E+00 -0.64404513368E+00  0.64404513368E+00  0.00000000000E+00 0. -1.
          2    1    1    2  501    0  0.12862922548E+02  0.21117283054E+02  0.39101480633E+03  0.39179583100E+03  0.00000000000E+00 0. -1.
         -2    1    1    2    0  503 -0.12862922548E+02 -0.21117283054E+02  0.60262154272E+03  0.60312860832E+03  0.00000000000E+00 0.  1.
<mgrwt>
<rscale>  2 0.24726391E+02</rscale>
<asrwt>0</asrwt>
<pdfrwt beam="1">  1       21 0.15296499E+00 0.24726391E+02</pdfrwt>
<pdfrwt beam="2">  1       21 0.99084662E-04 0.24726391E+02</pdfrwt>
<totfact> 0.30948391E+07</totfact>
</mgrwt>
</event>
<event>
 4    1  0.3862688E+004  0.2503827E+02  0.7546771E-02  0.1660453E+00
         21   -1    0    0  501  502  0.00000000000E+00  0.00000000000E+00  0.37873636453E+01  0.37873636453E+01  0.00000000000E+00 0. -1.
         21   -1    0    0  502  503 -0.00000000000E+00 -0.00000000000E+00 -0.16584436656E+03  0.16584436656E+03  0.00000000000E+00 0. -1.
          1    1    1    2  501    0  0.12664419583E+02 -0.21599245255E+02 -0.77324359029E+02  0.81277127275E+02  0.00000000000E+00 0.  1.
         -1    1    1    2    0  503 -0.12664419583E+02  0.21599245255E+02 -0.84732643882E+02  0.88354602926E+02  0.00000000000E+00 0. -1.
<mgrwt>
<rscale>  2 0.25038269E+02</rscale>
<asrwt>0</asrwt>
<pdfrwt beam="1">  1       21 0.58267136E-03 0.25038269E+02</pdfrwt>
<pdfrwt beam="2">  1       21 0.25514517E-01 0.25038269E+02</pdfrwt>
<totfact> 0.91681170E+07</totfact>
</mgrwt>
</event>
<event>
 4    1  0.3862688E+004  0.2027474E+02  0.7546771E-02  0.1739919E+00
         21   -1    0    0  503  502  0.00000000000E+00  0.00000000000E+00  0.31737333561E+01  0.31737333561E+01  0.00000000000E+00 0. -1.
         21   -1    0    0  501  503 -0.00000000000E+00 -0.00000000000E+00 -0.28808797734E+03  0.28808797734E+03  0.00000000000E+00 0. -1.
          5    1    1    2  501    0  0.11046926966E+02 -0.17000894624E+02 -0.34413968392E+02  0.39942286288E+02  0.00000000000E+00 0.  1.
         -5    1    1    2    0  502 -0.11046926966E+02  0.17000894624E+02 -0.25050027559E+03  0.25131942441E+03  0.00000000000E+00 0. -1.
<mgrwt>
<rscale>  2 0.20274738E+02</rscale>
<asrwt>0</asrwt>
<pdfrwt beam="1">  1       21 0.48826678E-03 0.20274738E+02</pdfrwt>
<pdfrwt beam="2">  1       21 0.44321218E-01 0.20274738E+02</pdfrwt>
<totfact> 0.40787163E+07</totfact>
</mgrwt>
</event>
<event>
 4    1  0.3862688E+004  0.3203627E+02  0.7546771E-02  0.1576613E+00
         21   -1    0    0  503  502  0.00000000000E+00  0.00000000000E+00  0.57721986362E+03  0.57721986362E+03  0.00000000000E+00 0.  1.
         21   -1    0    0  501  503 -0.00000000000E+00 -0.00000000000E+00 -0.18112470977E+01  0.18112470977E+01  0.00000000000E+00 0.  1.
          5    1    1    2  501    0  0.25658731585E+02 -0.19182081329E+02  0.24850599145E+03  0.25056246833E+03  0.00000000000E+00 0. -1.
         -5    1    1    2    0  502 -0.25658731585E+02  0.19182081329E+02  0.32690262507E+03  0.32846864238E+03  0.00000000000E+00 0.  1.
<mgrwt>
<rscale>  2 0.32036272E+02</rscale>
<asrwt>0</asrwt>
<pdfrwt beam="1">  1       21 0.88802910E-01 0.32036272E+02</pdfrwt>
<pdfrwt beam="2">  1       21 0.27865386E-03 0.32036272E+02</pdfrwt>
<totfact> 0.24954151E+07</totfact>
</mgrwt>
</event>
<event>
 4    1  0.3862688E+004  0.2801129E+02  0.7546771E-02  0.1621172E+00
         21   -1    0    0  503  502  0.00000000000E+00  0.00000000000E+00  0.81836889133E+03  0.81836889133E+03  0.00000000000E+00 0. -1.
         21   -1    0    0  501  503 -0.00000000000E+00 -0.00000000000E+00 -0.96514831484E+00  0.96514831484E+00  0.00000000000E+00 0. -1.
          2    1    1    2  501    0  0.84813589400E+01 -0.26696419518E+02  0.44199007810E+03  0.44287680161E+03  0.00000000000E+00 0. -1.
         -2    1    1    2    0  502 -0.84813589400E+01  0.26696419518E+02  0.37541366492E+03  0.37645723804E+03  0.00000000000E+00 0.  1.
<mgrwt>
<rscale>  2 0.28011288E+02</rscale>
<asrwt>0</asrwt>
<pdfrwt beam="1">  1       21 0.12590235E+00 0.28011288E+02</pdfrwt>
<pdfrwt beam="2">  1       21 0.14848501E-03 0.28011288E+02</pdfrwt>
<totfact> 0.27952219E+07</totfact>
</mgrwt>
</event>
<event>
 4    1  0.3862688E+004  0.2104110E+02  0.7546771E-02  0.1725384E+00
         21   -1    0    0  501  502  0.00000000000E+00  0.00000000000E+00  0.55835063180E+02  0.55835063180E+02  0.00000000000E+00 0. -1.
         21   -1    0    0  502  503 -0.00000000000E+00 -0.00000000000E+00 -0.11567819911E+02  0.11567819911E+02  0.00000000000E+00 0. -1.
          4    1    1    2  501    0  0.16298049662E+02 -0.13307942214E+02  0.41034878025E+02  0.46114953793E+02  0.00000000000E+00 0.  1.
         -4    1    1    2    0  503 -0.16298049662E+02  0.13307942214E+02  0.32323652429E+01  0.21287929298E+02  0.00000000000E+00 0. -1.
<mgrwt>
<rscale>  2 0.21041097E+02</rscale>
<asrwt>0</asrwt>
<pdfrwt beam="1">  1       21 0.85900095E-02 0.21041097E+02</pdfrwt>
<pdfrwt beam="2">  1       21 0.17796646E-02 0.21041097E+02</pdfrwt>
<totfact> 0.10432980E+08</totfact>
</mgrwt>
</event>
<event>
 4    1  0.3862688E+004  0.2103030E+02  0.7546771E-02  0.1725583E+00
         21   -1    0    0  501  502  0.00000000000E+00  0.00000000000E+00  0.19079128482E+01  0.19079128482E+01  0.00000000000E+00 0. -1.
         21   -1    0    0  502  503 -0.00000000000E+00 -0.00000000000E+00 -0.23492247625E+03  0.23492247625E+03  0.00000000000E+00 0. -1.
          3    1    1    2  501    0 -0.20974922495E+02  0.15252268788E+01 -0.13013687997E+03  0.13182519190E+03  0.00000000000E+00 0. -1.
         -3    1    1    2    0  503  0.20974922495E+02 -0.15252268788E+01 -0.10287768343E+03  0.10500519720E+03  0.00000000000E+00 0.  1.
<mgrwt>
<rscale>  2 0.21030304E+02</rscale>
<asrwt>0</asrwt>
<pdfrwt beam="1">  1       21 0.29352515E-03 0.21030304E+02</pdfrwt>
<pdfrwt beam="2">  1       21 0.36141907E-01 0.21030304E+02</pdfrwt>
<totfact> 0.12690295E+08</totfact>
</mgrwt>
</event>
<event>
 4    1  0.3862688E+004  0.2640484E+02  0.7546771E-02  0.1641607E+00
         21   -1    0    0  501  502  0.00000000000E+00  0.00000000000E+00  0.14037847074E+03  0.14037847074E+03  0.00000000000E+00 0. -1.
         21   -1    0    0  502  503 -0.00000000000E+00 -0.00000000000E+00 -0.66513122684E+01  0.66513122684E+01  0.00000000000E+00 0. -1.
          5    1    1    2  501    0 -0.98107948297E+01  0.24514561772E+02  0.10386119677E+03  0.10716512319E+03  0.00000000000E+00 0.  1.
         -5    1    1    2    0  503  0.98107948297E+01 -0.24514561772E+02  0.29865961704E+02  0.39864659820E+02  0.00000000000E+00 0. -1.
<mgrwt>
<rscale>  2 0.26404837E+02</rscale>
<asrwt>0</asrwt>
<pdfrwt beam="1">  1       21 0.21596686E-01 0.26404837E+02</pdfrwt>
<pdfrwt beam="2">  1       21 0.10232789E-02 0.26404837E+02</pdfrwt>
<totfact> 0.53771639E+07</totfact>
</mgrwt>
</event>
<event>
 4    1  0.3862688E+004  0.2479456E+02  0.7546771E-02  0.1663970E+00
         21   -1    0    0  501  502  0.00000000000E+00  0.00000000000E+00  0.19374040294E+03  0.19374040294E+03  0.00000000000E+00 0. -1.
         21   -1    0    0  502  503 -0.00000000000E+00 -0.00000000000E+00 -0.32734970592E+01  0.32734970592E+01  0.00000000000E+00 0. -1.
          3    1    1    2  501    0 -0.64935374222E+00  0.24786053821E+02  0.77987692965E+02  0.81834286080E+02  0.00000000000E+00 0. -1.
         -3    1    1    2    0  503  0.64935374222E+00 -0.24786053821E+02  0.11247921291E+03  0.11517961392E+03  0.00000000000E+00 0.  1.
<mgrwt>
<rscale>  2 0.24794558E+02</rscale>
<asrwt>0</asrwt>
<pdfrwt beam="1">  1       21 0.29806207E-01 0.24794558E+02</pdfrwt>
<pdfrwt beam="2">  1       21 0.50361508E-03 0.24794558E+02</pdfrwt>
<totfact> 0.85698617E+07</totfact>
</mgrwt>
</event>
<event>
 4    1  0.3862688E+004  0.2777741E+02  0.7546771E-02  0.1624041E+00
         21   -1    0    0  501  502  0.00000000000E+00  0.00000000000E+00  0.19620783441E+02  0.19620783441E+02  0.00000000000E+00 0.  1.
         21   -1    0    0  502  503 -0.00000000000E+00 -0.00000000000E+00 -0.39855596694E+02  0.39855596694E+02  0.00000000000E+00 0.  1.
          2    1    1    2  501    0  0.15073962462E+02  0.23331529928E+02 -0.13549095830E+02  0.30905705475E+02  0.00000000000E+00 0. -1.
         -2    1    1    2    0  503 -0.15073962462E+02 -0.23331529928E+02 -0.66857174234E+01  0.28570674660E+02  0.00000000000E+00 0.  1.
<mgrwt>
<rscale>  2 0.27777412E+02</rscale>
<asrwt>0</asrwt>
<pdfrwt beam="1">  1       21 0.30185821E-02 0.27777412E+02</pdfrwt>
<pdfrwt beam="2">  1       21 0.61316301E-02 0.27777412E+02</pdfrwt>
<totfact> 0.86099583E+07</totfact>
</mgrwt>
</event>
<event>
 4    1  0.3862688E+004  0.2821470E+02  0.7546771E-02  0.1618705E+00
         21   -1    0    0  503  502  0.00000000000E+00  0.00000000000E+00  0.10442848015E+03  0.10442848015E+03  0.00000000000E+00 0.  1.
         21   -1    0    0  501  503 -0.00000000000E+00 -0.00000000000E+00 -0.87235411855E+01  0.87235411855E+01  0.00000000000E+00 0.  1.
          4    1    1    2  501    0 -0.14890375203E+02  0.23965513724E+02  0.67946572431E+02  0.73571773303E+02  0.00000000000E+00 0. -1.
         -4    1    1    2    0  502  0.14890375203E+02 -0.23965513724E+02  0.27758366534E+02  0.39580248034E+02  0.00000000000E+00 0.  1.
<mgrwt>
<rscale>  2 0.28214697E+02</rscale>
<asrwt>0</asrwt>
<pdfrwt beam="1">  1       21 0.16065919E-01 0.28214697E+02</pdfrwt>
<pdfrwt beam="2">  1       21 0.13420833E-02 0.28214697E+02</pdfrwt>
<totfact> 0.60655385E+07</totfact>
</mgrwt>
</event>
<event>
 4    1  0.3862688E+004  0.2177491E+02  0.7546771E-02  0.1712174E+00
         21   -1    0    0  501  502  0.00000000000E+00  0.00000000000E+00  0.16445286818E+03  0.16445286818E+03  0.00000000000E+00 0. -1.
         21   -1    0    0  502  503 -0.00000000000E+00 -0.00000000000E+00 -0.34204767093E+01  0.34204767093E+01  0.00000000000E+00 0. -1.
          3    1    1    2  501    0  0.21773499839E+02  0.24771236495E+00  0.11378344600E+03  0.11584825955E+03  0.00000000000E+00 0.  1.
         -3    1    1    2    0  503 -0.21773499839E+02 -0.24771236495E+00  0.47248945467E+02  0.52025085337E+02  0.00000000000E+00 0. -1.
<mgrwt>
<rscale>  2 0.21774909E+02</rscale>
<asrwt>0</asrwt>
<pdfrwt beam="1">  1       21 0.25300435E-01 0.21774909E+02</pdfrwt>
<pdfrwt beam="2">  1       21 0.52622731E-03 0.21774909E+02</pdfrwt>
<totfact> 0.10423490E+08</totfact>
</mgrwt>
</event>
<event>
 4    1  0.3862688E+004  0.2106032E+02  0.7546771E-02  0.1725029E+00
         21   -1    0    0  503  502  0.00000000000E+00  0.00000000000E+00  0.19743843835E+02  0.19743843835E+02  0.00000000000E+00 0. -1.
         21   -1    0    0  501  503 -0.00000000000E+00 -0.00000000000E+00 -0.26823935261E+02  0.26823935261E+02  0.00000000000E+00 0. -1.
          4    1    1    2  501    0  0.16449653367E+01  0.20995984597E+02  0.58464851187E+01  0.21856776258E+02  0.00000000000E+00 0.  1.
         -4    1    1    2    0  502 -0.16449653367E+01 -0.20995984597E+02 -0.12926576544E+02  0.24711002839E+02  0.00000000000E+00 0. -1.
<mgrwt>
<rscale>  2 0.21060325E+02</rscale>
<asrwt>0</asrwt>
<pdfrwt beam="1">  1       21 0.30375145E-02 0.21060325E+02</pdfrwt>
<pdfrwt beam="2">  1       21 0.41267592E-02 0.21060325E+02</pdfrwt>
<totfact> 0.14832285E+08</totfact>
</mgrwt>
</event>
<event>
 4    1  0.3862688E+004  0.2287551E+02  0.7546771E-02  0.1693536E+00
         21   -1    0    0  501  502  0.00000000000E+00  0.00000000000E+00  0.21992350841E+01  0.21992350841E+01  0.00000000000E+00 0. -1.
         21   -1    0    0  502  503 -0.00000000000E+00 -0.00000000000E+00 -0.25417017096E+03  0.25417017096E+03  0.00000000000E+00 0. -1.
          1    1    1    2  501    0  0.22690605814E+02 -0.29026559722E+01 -0.93595004778E+02  0.96349955492E+02  0.00000000000E+00 0.  1.
         -1    1    1    2    0  503 -0.22690605814E+02  0.29026559722E+01 -0.15837593109E+03  0.16001945055E+03  0.00000000000E+00 0. -1.
<mgrwt>
<rscale>  2 0.22875511E+02</rscale>
<asrwt>0</asrwt>
<pdfrwt beam="1">  1       21 0.33834394E-03 0.22875511E+02</pdfrwt>
<pdfrwt beam="2">  1       21 0.39103093E-01 0.22875511E+02</pdfrwt>
<totfact> 0.91146420E+07</totfact>
</mgrwt>
</event>
<event>
 4    1  0.3862688E+004  0.2231523E+02  0.7546771E-02  0.1702857E+00
         21   -1    0    0  503  502  0.00000000000E+00  0.00000000000E+00  0.18171943195E+03  0.18171943195E+03  0.00000000000E+00 0.  1.
         21   -1    0    0  501  503 -0.00000000000E+00 -0.00000000000E+00 -0.33152679799E+01  0.33152679799E+01  0.00000000000E+00 0.  1.
          2    1    1    2  501    0  0.21706918528E+02  0.51748464876E+01  0.12773023908E+03  0.12966488855E+03  0.00000000000E+00 0. -1.
         -2    1    1    2    0  502 -0.21706918528E+02 -0.51748464876E+01  0.50673924894E+02  0.55369811381E+02  0.00000000000E+00 0.  1.
<mgrwt>
<rscale>  2 0.22315227E+02</rscale>
<asrwt>0</asrwt>
<pdfrwt beam="1">  1       21 0.27956828E-01 0.22315227E+02</pdfrwt>
<pdfrwt beam="2">  1       21 0.51004137E-03 0.22315227E+02</pdfrwt>
<totfact> 0.91888578E+07</totfact>
</mgrwt>
</event>
<event>
 4    1  0.3862688E+004  0.2129230E+02  0.7546771E-02  0.1720787E+00
         21   -1    0    0  501  502  0.00000000000E+00  0.00000000000E+00  0.38681159948E+01  0.38681159948E+01  0.00000000000E+00 0. -1.
         21   -1    0    0  502  503 -0.00000000000E+00 -0.00000000000E+00 -0.14144945403E+03  0.14144945403E+03  0.00000000000E+00 0. -1.
          5    1    1    2  501    0 -0.17661501664E+02 -0.11892574139E+02 -0.38709477954E+02  0.44179018143E+02  0.00000000000E+00 0. -1.
         -5    1    1    2    0  503  0.17661501664E+02  0.11892574139E+02 -0.98871860079E+02  0.10113855188E+03  0.00000000000E+00 0.  1.
<mgrwt>
<rscale>  2 0.21292298E+02</rscale>
<asrwt>0</asrwt>
<pdfrwt beam="1">  1       21 0.59509472E-03 0.21292298E+02</pdfrwt>
<pdfrwt beam="2">  1       21 0.21761456E-01 0.21292298E+02</pdfrwt>
<totfact> 0.11273455E+08</totfact>
</mgrwt>
</event>
<event>
 4    1  0.3862688E+004  0.3087422E+02  0.7546771E-02  0.1588622E+00
         21   -1    0    0  503  502  0.00000000000E+00  0.00000000000E+00  0.16915462210E+03  0.16915462210E+03  0.00000000000E+00 0.  1.
         21   -1    0    0  501  503 -0.00000000000E+00 -0.00000000000E+00 -0.57411870138E+01  0.57411870138E+01  0.00000000000E+00 0.  1.
          5    1    1    2  501    0  0.19833395913E+02 -0.23661234030E+02  0.93589157178E+02  0.98550230494E+02  0.00000000000E+00 0. -1.
         -5    1    1    2    0  502 -0.19833395913E+02  0.23661234030E+02  0.69824277905E+02  0.76345578616E+02  0.00000000000E+00 0.  1.
<mgrwt>
<rscale>  2 0.30874222E+02</rscale>
<asrwt>0</asrwt>
<pdfrwt beam="1">  1       21 0.26023784E-01 0.30874222E+02</pdfrwt>
<pdfrwt beam="2">  1       21 0.88325967E-03 0.30874222E+02</pdfrwt>
<totfact> 0.49794114E+07</totfact>
</mgrwt>
</event>
<event>
 4    1  0.3862688E+004  0.2424730E+02  0.7546771E-02  0.1672055E+00
         21   -1    0    0  503  502  0.00000000000E+00  0.00000000000E+00  0.12446514280E+03  0.12446514280E+03  0.00000000000E+00 0. -1.
         21   -1    0    0  501  503 -0.00000000000E+00 -0.00000000000E+00 -0.48145149003E+01  0.48145149003E+01  0.00000000000E+00 0. -1.
          2    1    1    2  501    0 -0.24178965539E+02 -0.18191273659E+01  0.50945846426E+02  0.56421723361E+02  0.00000000000E+00 0.  1.
         -2    1    1    2    0  502  0.24178965539E+02  0.18191273659E+01  0.68704781472E+02  0.72857934338E+02  0.00000000000E+00 0. -1.
<mgrwt>
<rscale>  2 0.24247301E+02</rscale>
<asrwt>0</asrwt>
<pdfrwt beam="1">  1       21 0.19148481E-01 0.24247301E+02</pdfrwt>
<pdfrwt beam="2">  1       21 0.74069470E-03 0.24247301E+02</pdfrwt>
<totfact> 0.10563149E+08</totfact>
</mgrwt>
</event>
<event>
 4    1  0.3862688E+004  0.2083106E+02  0.7546771E-02  0.1729289E+00
         21   -1    0    0  501  502  0.00000000000E+00  0.00000000000E+00  0.16570618944E+02  0.16570618944E+02  0.00000000000E+00 0. -1.
         21   -1    0    0  502  503 -0.00000000000E+00 -0.00000000000E+00 -0.37442167799E+02  0.37442167799E+02  0.00000000000E+00 0. -1.
          3    1    1    2  501    0  0.20079228062E+02  0.55459420525E+01  0.43711317830E+01  0.21284728466E+02  0.00000000000E+00 0.  1.
         -3    1    1    2    0  503 -0.20079228062E+02 -0.55459420525E+01 -0.25242680637E+02  0.32728058277E+02  0.00000000000E+00 0. -1.
<mgrwt>
<rscale>  2 0.20831055E+02</rscale>
<asrwt>0</asrwt>
<pdfrwt beam="1">  1       21 0.25493260E-02 0.20831055E+02</pdfrwt>
<pdfrwt beam="2">  1       21 0.57603334E-02 0.20831055E+02</pdfrwt>
<totfact> 0.11429589E+08</totfact>
</mgrwt>
</event>
<event>
 4    1  0.3862688E+004  0.2027448E+02  0.7546771E-02  0.1739924E+00
         21   -1    0    0  501  502  0.00000000000E+00  0.00000000000E+00  0.14990952766E+02  0.14990952766E+02  0.00000000000E+00 0. -1.
         21   -1    0    0  502  503 -0.00000000000E+00 -0.00000000000E+00 -0.30379810822E+02  0.30379810822E+02  0.00000000000E+00 0. -1.
          4    1    1    2  501    0  0.10403899333E+02 -0.17401540567E+02 -0.14775057085E+02  0.25086989603E+02  0.00000000000E+00 0. -1.
         -4    1    1    2    0  503 -0.10403899333E+02  0.17401540567E+02 -0.61380097130E+00  0.20283773985E+02  0.00000000000E+00 0.  1.
<mgrwt>
<rscale>  2 0.20274485E+02</rscale>
<asrwt>0</asrwt>
<pdfrwt beam="1">  1       21 0.23063004E-02 0.20274485E+02</pdfrwt>
<pdfrwt beam="2">  1       21 0.46738170E-02 0.20274485E+02</pdfrwt>
<totfact> 0.18425447E+08</totfact>
</mgrwt>
</event>
<event>
 4    1  0.3862688E+004  0.2059481E+02  0.7546771E-02  0.1733752E+00
         21   -1    0    0  501  502  0.00000000000E+00  0.00000000000E+00  0.53105696676E+02  0.53105696676E+02  0.00000000000E+00 0.  1.
         21   -1    0    0  502  503 -0.00000000000E+00 -0.00000000000E+00 -0.80446439987E+01  0.80446439987E+01  0.00000000000E+00 0.  1.
          5    1    1    2  501    0 -0.69970899573E+01 -0.19369746165E+02  0.19938613181E+02  0.28665216377E+02  0.00000000000E+00 0. -1.
         -5    1    1    2    0  503  0.69970899573E+01  0.19369746165E+02  0.25122439496E+02  0.32485124297E+02  0.00000000000E+00 0.  1.
<mgrwt>
<rscale>  2 0.20594813E+02</rscale>
<asrwt>0</asrwt>
<pdfrwt beam="1">  1       21 0.81701070E-02 0.20594813E+02</pdfrwt>
<pdfrwt beam="2">  1       21 0.12376376E-02 0.20594813E+02</pdfrwt>
<totfact> 0.19491692E+08</totfact>
</mgrwt>
</event>
<event>
 4    1  0.3862688E+004  0.2090612E+02  0.7546771E-02  0.1727887E+00
         21   -1    0    0  501  502  0.00000000000E+00  0.00000000000E+00  0.83364630991E+01  0.83364630991E+01  0.00000000000E+00 0.  1.
         21   -1    0    0  502  503 -0.00000000000E+00 -0.00000000000E+00 -0.58070811216E+02  0.58070811216E+02  0.00000000000E+00 0.  1.
          4    1    1    2  501    0  0.17078766460E+02 -0.12057431292E+02 -0.14517038330E+02  0.25452118086E+02  0.00000000000E+00 0.  1.
         -4    1    1    2    0  503 -0.17078766460E+02  0.12057431292E+02 -0.35217309787E+02  0.40955156229E+02  0.00000000000E+00 0. -1.
<mgrwt>
<rscale>  2 0.20906121E+02</rscale>
<asrwt>0</asrwt>
<pdfrwt beam="1">  1       21 0.12825327E-02 0.20906121E+02</pdfrwt>
<pdfrwt beam="2">  1       21 0.89339712E-02 0.20906121E+02</pdfrwt>
<totfact> 0.16042846E+08</totfact>
</mgrwt>
</event>
<event>
 4    1  0.3862688E+004  0.3661910E+02  0.7546771E-02  0.1534675E+00
         21   -1    0    0  503  502  0.00000000000E+00  0.00000000000E+00  0.66502359410E+03  0.66502359410E+03  0.00000000000E+00 0. -1.
         21   -1    0    0  501  503 -0.00000000000E+00 -0.00000000000E+00 -0.23891344189E+01  0.23891344189E+01  0.00000000000E+00 0. -1.
          4    1    1    2  501    0  0.29382376106E+02  0.21854853546E+02  0.46312454108E+03  0.46457001539E+03  0.00000000000E+00 0.  1.
         -4    1    1    2    0  502 -0.29382376106E+02 -0.21854853546E+02  0.19950991860E+03  0.20284271313E+03  0.00000000000E+00 0. -1.
<mgrwt>
<rscale>  2 0.36619102E+02</rscale>
<asrwt>0</asrwt>
<pdfrwt beam="1">  1       21 0.10231117E+00 0.36619102E+02</pdfrwt>
<pdfrwt beam="2">  1       21 0.36755967E-03 0.36619102E+02</pdfrwt>
<totfact> 0.12363131E+07</totfact>
</mgrwt>
</event>
<event>
 4    1  0.3862688E+004  0.2527750E+02  0.7546771E-02  0.1657048E+00
         21   -1    0    0  503  502  0.00000000000E+00  0.00000000000E+00  0.57077371238E+00  0.57077371238E+00  0.00000000000E+00 0.  1.
         21   -1    0    0  501  503 -0.00000000000E+00 -0.00000000000E+00 -0.12240880164E+04  0.12240880164E+04  0.00000000000E+00 0.  1.
          2    1    1    2  501    0 -0.53854053023E+01  0.24697153780E+02 -0.43272860512E+03  0.43346625899E+03  0.00000000000E+00 0. -1.
         -2    1    1    2    0  502  0.53854053023E+01 -0.24697153780E+02 -0.79078863752E+03  0.79119253108E+03  0.00000000000E+00 0.  1.
<mgrwt>
<rscale>  2 0.25277500E+02</rscale>
<asrwt>0</asrwt>
<pdfrwt beam="1">  1       21 0.87811000E-04 0.25277500E+02</pdfrwt>
<pdfrwt beam="2">  1       21 0.18832196E+00 0.25277500E+02</pdfrwt>
<totfact> 0.22102481E+07</totfact>
</mgrwt>
</event>
<event>
 4    1  0.3862688E+004  0.2091638E+02  0.7546771E-02  0.1727696E+00
         21   -1    0    0  501  502  0.00000000000E+00  0.00000000000E+00  0.56057149119E+01  0.56057149119E+01  0.00000000000E+00 0.  1.
         21   -1    0    0  502  503 -0.00000000000E+00 -0.00000000000E+00 -0.12338675340E+03  0.12338675340E+03  0.00000000000E+00 0.  1.
          4    1    1    2  501    0  0.19808002167E+02 -0.67184767581E+01 -0.19792754660E+02  0.28796666766E+02  0.00000000000E+00 0. -1.
         -4    1    1    2    0  503 -0.19808002167E+02  0.67184767581E+01 -0.97988283827E+02  0.10019580154E+03  0.00000000000E+00 0.  1.
<mgrwt>
<rscale>  2 0.20916378E+02</rscale>
<asrwt>0</asrwt>
<pdfrwt beam="1">  1       21 0.86241780E-03 0.20916378E+02</pdfrwt>
<pdfrwt beam="2">  1       21 0.18982575E-01 0.20916378E+02</pdfrwt>
<totfact> 0.82049234E+07</totfact>
</mgrwt>
</event>
<event>
 4    1  0.3862688E+004  0.3411910E+02  0.7546771E-02  0.1556565E+00
         21   -1    0    0  501  502  0.00000000000E+00  0.00000000000E+00  0.12027219940E+02  0.12027219940E+02  0.00000000000E+00 0. -1.
         21   -1    0    0  502  503 -0.00000000000E+00 -0.00000000000E+00 -0.99092838310E+02  0.99092838310E+02  0.00000000000E+00 0. -1.
          5    1    1    2  501    0  0.25207074216E+02  0.22993827717E+02 -0.52002899915E+02  0.62196577905E+02  0.00000000000E+00 0. -1.
         -5    1    1    2    0  503 -0.25207074216E+02 -0.22993827717E+02 -0.35062718455E+02  0.48923480344E+02  0.00000000000E+00 0.  1.
<mgrwt>
<rscale>  2 0.34119096E+02</rscale>
<asrwt>0</asrwt>
<pdfrwt beam="1">  1       21 0.18503415E-02 0.34119096E+02</pdfrwt>
<pdfrwt beam="2">  1       21 0.15245052E-01 0.34119096E+02</pdfrwt>
<totfact> 0.42207561E+07</totfact>
</mgrwt>
</event>
<event>
 4    1  0.3862688E+004  0.2853837E+02  0.7546771E-02  0.1614831E+00
         21   -1    0    0  501  502  0.00000000000E+00  0.00000000000E+00  0.13228957515E+03  0.13228957515E+03  0.00000000000E+00 0.  1.
         21   -1    0    0  502  503 -0.00000000000E+00 -0.00000000000E+00 -0.67823173071E+01  0.67823173071E+01  0.00000000000E+00 0.  1.
          5    1    1    2  501    0 -0.49187392181E+01 -0.28111286538E+02  0.83876368623E+02  0.88598440391E+02  0.00000000000E+00 0. -1.
         -5    1    1    2    0  503  0.49187392181E+01  0.28111286538E+02  0.41630889224E+02  0.50473452070E+02  0.00000000000E+00 0.  1.
<mgrwt>
<rscale>  2 0.28538368E+02</rscale>
<asrwt>0</asrwt>
<pdfrwt beam="1">  1       21 0.20352240E-01 0.28538368E+02</pdfrwt>
<pdfrwt beam="2">  1       21 0.10434335E-02 0.28538368E+02</pdfrwt>
<totfact> 0.59026571E+07</totfact>
</mgrwt>
</event>
<event>
 4    1  0.3862688E+004  0.2481412E+02  0.7546771E-02  0.1663686E+00
         21   -1    0    0  503  502  0.00000000000E+00  0.00000000000E+00  0.32469035762E+03  0.32469035762E+03  0.00000000000E+00 0.  1.
         21   -1    0    0  501  503 -0.00000000000E+00 -0.00000000000E+00 -0.20443737996E+01  0.20443737996E+01  0.00000000000E+00 0.  1.
          5    1    1    2  501    0 -0.11999145751E+02 -0.21720061418E+02  0.20527590179E+03  0.20677025033E+03  0.00000000000E+00 0. -1.
         -5    1    1    2    0  502  0.11999145751E+02  0.21720061418E+02  0.11737008203E+03  0.11996448109E+03  0.00000000000E+00 0.  1.
<mgrwt>
<rscale>  2 0.24814120E+02</rscale>
<asrwt>0</asrwt>
<pdfrwt beam="1">  1       21 0.49952322E-01 0.24814120E+02</pdfrwt>
<pdfrwt beam="2">  1       21 0.31451930E-03 0.24814120E+02</pdfrwt>
<totfact> 0.64771258E+07</totfact>
</mgrwt>
</event>
<event>
 4    1  0.3862688E+004  0.3557490E+02  0.7546771E-02  0.1543554E+00
         21   -1    0    0  503  502  0.00000000000E+00  0.00000000000E+00  0.16999058102E+03  0.16999058102E+03  0.00000000000E+00 0.  1.
         21   -1    0    0  501  503 -0.00000000000E+00 -0.00000000000E+00 -0.81381224937E+01  0.81381224937E+01  0.00000000000E+00 0.  1.
          4    1    1    2  501    0  0.13113327180E+02  0.33069835915E+02  0.10691936868E+03  0.11268240677E+03  0.00000000000E+00 0. -1.
         -4    1    1    2    0  502 -0.13113327180E+02 -0.33069835915E+02  0.54933089853E+02  0.65446296748E+02  0.00000000000E+00 0.  1.
<mgrwt>
<rscale>  2 0.35574898E+02</rscale>
<asrwt>0</asrwt>
<pdfrwt beam="1">  1       21 0.26152394E-01 0.35574898E+02</pdfrwt>
<pdfrwt beam="2">  1       21 0.12520190E-02 0.35574898E+02</pdfrwt>
<totfact> 0.29821144E+07</totfact>
</mgrwt>
</event>
<event>
 4    1  0.3862688E+004  0.2807305E+02  0.7546771E-02  0.1620420E+00
         21   -1    0    0  501  502  0.00000000000E+00  0.00000000000E+00  0.68770728385E+02  0.68770728385E+02  0.00000000000E+00 0. -1.
         21   -1    0    0  502  503 -0.00000000000E+00 -0.00000000000E+00 -0.17322065499E+02  0.17322065499E+02  0.00000000000E+00 0. -1.
          2    1    1    2  501    0 -0.24759963780E+02 -0.13230276794E+02  0.50766457520E+02  0.58011457830E+02  0.00000000000E+00 0. -1.
         -2    1    1    2    0  503  0.24759963780E+02  0.13230276794E+02  0.68220536686E+00  0.28081336054E+02  0.00000000000E+00 0.  1.
<mgrwt>
<rscale>  2 0.28073048E+02</rscale>
<asrwt>0</asrwt>
<pdfrwt beam="1">  1       21 0.10580112E-01 0.28073048E+02</pdfrwt>
<pdfrwt beam="2">  1       21 0.26649332E-02 0.28073048E+02</pdfrwt>
<totfact> 0.42749068E+07</totfact>
</mgrwt>
</event>
<event>
 4    1  0.3862688E+004  0.4206249E+02  0.7546771E-02  0.1493560E+00
         21   -1    0    0  503  502  0.00000000000E+00  0.00000000000E+00  0.46741342882E+02  0.46741342882E+02  0.00000000000E+00 0.  1.
         21   -1    0    0  501  503 -0.00000000000E+00 -0.00000000000E+00 -0.41928398643E+02  0.41928398643E+02  0.00000000000E+00 0.  1.
          3    1    1    2  501    0 -0.23857564641E+02 -0.34642025734E+02  0.16230340893E+02  0.45085222669E+02  0.00000000000E+00 0. -1.
         -3    1    1    2    0  502  0.23857564641E+02  0.34642025734E+02 -0.11417396655E+02  0.43584518856E+02  0.00000000000E+00 0.  1.
<mgrwt>
<rscale>  2 0.42062493E+02</rscale>
<asrwt>0</asrwt>
<pdfrwt beam="1">  1       21 0.71909758E-02 0.42062493E+02</pdfrwt>
<pdfrwt beam="2">  1       21 0.64505229E-02 0.42062493E+02</pdfrwt>
<totfact> 0.21298468E+07</totfact>
</mgrwt>
</event>
<event>
 4    1  0.3862688E+004  0.2470245E+02  0.7546771E-02  0.1665313E+00
         21   -1    0    0  501  502  0.00000000000E+00  0.00000000000E+00  0.54733931673E+01  0.54733931673E+01  0.00000000000E+00 0. -1.
         21   -1    0    0  502  503 -0.00000000000E+00 -0.00000000000E+00 -0.11762566335E+03  0.11762566335E+03  0.00000000000E+00 0. -1.
          2    1    1    2  501    0 -0.24266782497E+02  0.46189162967E+01 -0.70137175866E+02  0.74360167825E+02  0.00000000000E+00 0. -1.
         -2    1    1    2    0  503  0.24266782497E+02 -0.46189162967E+01 -0.42015094314E+02  0.48738888690E+02  0.00000000000E+00 0.  1.
<mgrwt>
<rscale>  2 0.24702452E+02</rscale>
<asrwt>0</asrwt>
<pdfrwt beam="1">  1       21 0.84206048E-03 0.24702452E+02</pdfrwt>
<pdfrwt beam="2">  1       21 0.18096256E-01 0.24702452E+02</pdfrwt>
<totfact> 0.96669591E+07</totfact>
</mgrwt>
</event>
<event>
 4    1  0.3862688E+004  0.2466754E+02  0.7546771E-02  0.1665824E+00
         21   -1    0    0  503  502  0.00000000000E+00  0.00000000000E+00  0.18940679330E+01  0.18940679330E+01  0.00000000000E+00 0. -1.
         21   -1    0    0  501  503 -0.00000000000E+00 -0.00000000000E+00 -0.32152079422E+03  0.32152079422E+03  0.00000000000E+00 0. -1.
          5    1    1    2  501    0 -0.22773349351E+02  0.94795599408E+01 -0.15520431486E+03  0.15715236826E+03  0.00000000000E+00 0.  1.
         -5    1    1    2    0  502  0.22773349351E+02 -0.94795599408E+01 -0.16442241143E+03  0.16626249390E+03  0.00000000000E+00 0. -1.
<mgrwt>
<rscale>  2 0.24667539E+02</rscale>
<asrwt>0</asrwt>
<pdfrwt beam="1">  1       21 0.29139534E-03 0.24667539E+02</pdfrwt>
<pdfrwt beam="2">  1       21 0.49464691E-01 0.24667539E+02</pdfrwt>
<totfact> 0.73711370E+07</totfact>
</mgrwt>
</event>
<event>
 4    1  0.3862688E+004  0.2003903E+02  0.7546771E-02  0.1744553E+00
         21   -1    0    0  503  502  0.00000000000E+00  0.00000000000E+00  0.12844131899E+01  0.12844131899E+01  0.00000000000E+00 0.  1.
         21   -1    0    0  501  503 -0.00000000000E+00 -0.00000000000E+00 -0.39942997664E+03  0.39942997664E+03  0.00000000000E+00 0.  1.
          1    1    1    2  501    0  0.12749689103E+02  0.15459891111E+02 -0.29246525368E+03  0.29315096352E+03  0.00000000000E+00 0. -1.
         -1    1    1    2    0  502 -0.12749689103E+02 -0.15459891111E+02 -0.10568030977E+03  0.10756342630E+03  0.00000000000E+00 0.  1.
<mgrwt>
<rscale>  2 0.20039032E+02</rscale>
<asrwt>0</asrwt>
<pdfrwt beam="1">  1       21 0.19760203E-03 0.20039032E+02</pdfrwt>
<pdfrwt beam="2">  1       21 0.61450766E-01 0.20039032E+02</pdfrwt>
<totfact> 0.80069427E+07</totfact>
</mgrwt>
</event>
<event>
 4    1  0.3862688E+004  0.7121657E+02  0.7546771E-02  0.1356004E+00
         21   -1    0    0  501  502  0.00000000000E+00  0.00000000000E+00  0.53326631104E+02  0.53326631104E+02  0.00000000000E+00 0.  1.
         21   -1    0    0  502  503 -0.00000000000E+00 -0.00000000000E+00 -0.95210672387E+02  0.95210672387E+02  0.00000000000E+00 0.  1.
          5    1    1    2  501    0  0.71124934332E+02 -0.36115949953E+01 -0.23378517878E+02  0.74955686911E+02  0.00000000000E+00 0. -1.
         -5    1    1    2    0  503 -0.71124934332E+02  0.36115949953E+01 -0.18505523404E+02  0.73581616580E+02  0.00000000000E+00 0.  1.
<mgrwt>
<rscale>  2 0.71216570E+02</rscale>
<asrwt>0</asrwt>
<pdfrwt beam="1">  1       21 0.82040972E-02 0.71216570E+02</pdfrwt>
<pdfrwt beam="2">  1       21 0.14647796E-01 0.71216570E+02</pdfrwt>
<totfact> 0.44747360E+06</totfact>
</mgrwt>
</event>
<event>
 4    1  0.3862688E+004  0.4737592E+02  0.7546771E-02  0.1460032E+00
         21   -1    0    0  503  502  0.00000000000E+00  0.00000000000E+00  0.13111784728E+04  0.13111784728E+04  0.00000000000E+00 0.  1.
         21   -1    0    0  501  503 -0.00000000000E+00 -0.00000000000E+00 -0.18468831401E+01  0.18468831401E+01  0.00000000000E+00 0.  1.
          5    1    1    2  501    0  0.77001730399E+01  0.46745961899E+02  0.47711560051E+03  0.47946196290E+03  0.00000000000E+00 0.  1.
         -5    1    1    2    0  502 -0.77001730399E+01 -0.46745961899E+02  0.83221598918E+03  0.83356339307E+03  0.00000000000E+00 0. -1.
<mgrwt>
<rscale>  2 0.47375918E+02</rscale>
<asrwt>0</asrwt>
<pdfrwt beam="1">  1       21 0.20171902E+00 0.47375918E+02</pdfrwt>
<pdfrwt beam="2">  1       21 0.28413692E-03 0.47375918E+02</pdfrwt>
<totfact> 0.35133383E+06</totfact>
</mgrwt>
</event>
<event>
 4    1  0.3862688E+004  0.3332358E+02  0.7546771E-02  0.1564012E+00
         21   -1    0    0  503  502  0.00000000000E+00  0.00000000000E+00  0.30806438551E+02  0.30806438551E+02  0.00000000000E+00 0. -1.
         21   -1    0    0  501  503 -0.00000000000E+00 -0.00000000000E+00 -0.36692434195E+02  0.36692434195E+02  0.00000000000E+00 0. -1.
          1    1    1    2  501    0 -0.26335788161E+02 -0.20417819028E+02 -0.74212390595E+01  0.34139945241E+02  0.00000000000E+00 0.  1.
         -1    1    1    2    0  502  0.26335788161E+02  0.20417819028E+02  0.15352434151E+01  0.33358927504E+02  0.00000000000E+00 0. -1.
<mgrwt>
<rscale>  2 0.33323581E+02</rscale>
<asrwt>0</asrwt>
<pdfrwt beam="1">  1       21 0.47394521E-02 0.33323581E+02</pdfrwt>
<pdfrwt beam="2">  1       21 0.56449899E-02 0.33323581E+02</pdfrwt>
<totfact> 0.50146289E+07</totfact>
</mgrwt>
</event>
<event>
 4    1  0.3862688E+004  0.6709803E+02  0.7546771E-02  0.1370249E+00
         21   -1    0    0  501  502  0.00000000000E+00  0.00000000000E+00  0.26169938059E+03  0.26169938059E+03  0.00000000000E+00 0. -1.
         21   -1    0    0  502  503 -0.00000000000E+00 -0.00000000000E+00 -0.17467999760E+02  0.17467999760E+02  0.00000000000E+00 0. -1.
          1    1    1    2  501    0 -0.17309150907E+02 -0.64826987111E+02  0.13929187766E+03  0.15461038822E+03  0.00000000000E+00 0. -1.
         -1    1    1    2    0  503  0.17309150907E+02  0.64826987111E+02  0.10493950317E+03  0.12455699213E+03  0.00000000000E+00 0.  1.
<mgrwt>
<rscale>  2 0.67098025E+02</rscale>
<asrwt>0</asrwt>
<pdfrwt beam="1">  1       21 0.40261440E-01 0.67098025E+02</pdfrwt>
<pdfrwt beam="2">  1       21 0.26873848E-02 0.67098025E+02</pdfrwt>
<totfact> 0.42961900E+06</totfact>
</mgrwt>
</event>
<event>
 4    1  0.3862688E+004  0.4623722E+02  0.7546771E-02  0.1466762E+00
         21   -1    0    0  501  502  0.00000000000E+00  0.00000000000E+00  0.30424404275E+03  0.30424404275E+03  0.00000000000E+00 0. -1.
         21   -1    0    0  502  503 -0.00000000000E+00 -0.00000000000E+00 -0.75673342332E+01  0.75673342332E+01  0.00000000000E+00 0. -1.
          5    1    1    2  501    0  0.38716683798E+02  0.25276455154E+02  0.19000392607E+03  0.19554890108E+03  0.00000000000E+00 0. -1.
         -5    1    1    2    0  503 -0.38716683798E+02 -0.25276455154E+02  0.10667278245E+03  0.11626247591E+03  0.00000000000E+00 0.  1.
<mgrwt>
<rscale>  2 0.46237223E+02</rscale>
<asrwt>0</asrwt>
<pdfrwt beam="1">  1       21 0.46806766E-01 0.46237223E+02</pdfrwt>
<pdfrwt beam="2">  1       21 0.11642055E-02 0.46237223E+02</pdfrwt>
<totfact> 0.11490794E+07</totfact>
</mgrwt>
</event>
<event>
 4    1  0.3862688E+004  0.4239384E+02  0.7546771E-02  0.1491300E+00
         21   -1    0    0  501  502  0.00000000000E+00  0.00000000000E+00  0.16168048214E+04  0.16168048214E+04  0.00000000000E+00 0. -1.
         21   -1    0    0  502  503 -0.00000000000E+00 -0.00000000000E+00 -0.11354091990E+01  0.11354091990E+01  0.00000000000E+00 0. -1.
          4    1    1    2  501    0  0.20063984618E+02  0.37345331537E+02  0.69068385807E+03  0.69198369133E+03  0.00000000000E+00 0.  1.
         -4    1    1    2    0  503 -0.20063984618E+02 -0.37345331537E+02  0.92498555416E+03  0.92595653930E+03  0.00000000000E+00 0. -1.
<mgrwt>
<rscale>  2 0.42393835E+02</rscale>
<asrwt>0</asrwt>
<pdfrwt beam="1">  1       21 0.24873736E+00 0.42393835E+02</pdfrwt>
<pdfrwt beam="2">  1       21 0.17467963E-03 0.42393835E+02</pdfrwt>
<totfact> 0.39462873E+06</totfact>
</mgrwt>
</event>
<event>
 4    1  0.3862688E+004  0.2130467E+02  0.7546771E-02  0.1720562E+00
         21   -1    0    0  503  502  0.00000000000E+00  0.00000000000E+00  0.43629417571E+03  0.43629417571E+03  0.00000000000E+00 0.  1.
         21   -1    0    0  501  503 -0.00000000000E+00 -0.00000000000E+00 -0.13500439297E+01  0.13500439297E+01  0.00000000000E+00 0.  1.
          1    1    1    2  501    0  0.75575149396E+00  0.21291256451E+02  0.11266284770E+03  0.11465952212E+03  0.00000000000E+00 0. -1.
         -1    1    1    2    0  502 -0.75575149396E+00 -0.21291256451E+02  0.32228128409E+03  0.32298469752E+03  0.00000000000E+00 0.  1.
<mgrwt>
<rscale>  2 0.21304665E+02</rscale>
<asrwt>0</asrwt>
<pdfrwt beam="1">  1       21 0.67122068E-01 0.21304665E+02</pdfrwt>
<pdfrwt beam="2">  1       21 0.20769941E-03 0.21304665E+02</pdfrwt>
<totfact> 0.63383459E+07</totfact>
</mgrwt>
</event>
<event>
 4    1  0.3862688E+004  0.2687011E+02  0.7546771E-02  0.1635508E+00
         21   -1    0    0  501  502  0.00000000000E+00  0.00000000000E+00  0.36252154468E+03  0.36252154468E+03  0.00000000000E+00 0. -1.
         21   -1    0    0  502  503 -0.00000000000E+00 -0.00000000000E+00 -0.19949859455E+01  0.19949859455E+01  0.00000000000E+00 0. -1.
          4    1    1    2  501    0  0.18259685250E+02  0.19712608129E+02  0.18775618564E+03  0.18966915477E+03  0.00000000000E+00 0. -1.
         -4    1    1    2    0  503 -0.18259685250E+02 -0.19712608129E+02  0.17277037310E+03  0.17484737586E+03  0.00000000000E+00 0.  1.
<mgrwt>
<rscale>  2 0.26870114E+02</rscale>
<asrwt>0</asrwt>
<pdfrwt beam="1">  1       21 0.55772493E-01 0.26870114E+02</pdfrwt>
<pdfrwt beam="2">  1       21 0.30692120E-03 0.26870114E+02</pdfrwt>
<totfact> 0.55000763E+07</totfact>
</mgrwt>
</event>
<event>
 4    1  0.3862688E+004  0.2624134E+02  0.7546771E-02  0.1643787E+00
         21   -1    0    0  501  502  0.00000000000E+00  0.00000000000E+00  0.12912695675E+01  0.12912695675E+01  0.00000000000E+00 0. -1.
         21   -1    0    0  502  503 -0.00000000000E+00 -0.00000000000E+00 -0.54332724579E+03  0.54332724579E+03  0.00000000000E+00 0. -1.
          2    1    1    2  501    0 -0.25257972792E+02 -0.71163654392E+01 -0.23398730893E+03  0.23545417513E+03  0.00000000000E+00 0. -1.
         -2    1    1    2    0  503  0.25257972792E+02  0.71163654392E+01 -0.30804866729E+03  0.30916434022E+03  0.00000000000E+00 0.  1.
<mgrwt>
<rscale>  2 0.26241339E+02</rscale>
<asrwt>0</asrwt>
<pdfrwt beam="1">  1       21 0.19865689E-03 0.26241339E+02</pdfrwt>
<pdfrwt beam="2">  1       21 0.83588794E-01 0.26241339E+02</pdfrwt>
<totfact> 0.44910735E+07</totfact>
</mgrwt>
</event>
<event>
 4    1  0.3862688E+004  0.2058264E+02  0.7546771E-02  0.1733984E+00
         21   -1    0    0  503  502  0.00000000000E+00  0.00000000000E+00  0.33556541126E+02  0.33556541126E+02  0.00000000000E+00 0.  1.
         21   -1    0    0  501  503 -0.00000000000E+00 -0.00000000000E+00 -0.20522898080E+02  0.20522898080E+02  0.00000000000E+00 0.  1.
          3    1    1    2  501    0 -0.26133154181E+01  0.20416060996E+02  0.23291098866E+02  0.31082474973E+02  0.00000000000E+00 0. -1.
         -3    1    1    2    0  502  0.26133154181E+01 -0.20416060996E+02 -0.10257455820E+02  0.22996964233E+02  0.00000000000E+00 0.  1.
<mgrwt>
<rscale>  2 0.20582637E+02</rscale>
<asrwt>0</asrwt>
<pdfrwt beam="1">  1       21 0.51625448E-02 0.20582637E+02</pdfrwt>
<pdfrwt beam="2">  1       21 0.31573689E-02 0.20582637E+02</pdfrwt>
<totfact> 0.97378075E+07</totfact>
</mgrwt>
</event>
<event>
 4    1  0.3862688E+004  0.2733327E+02  0.7546771E-02  0.1629586E+00
         21   -1    0    0  503  502  0.00000000000E+00  0.00000000000E+00  0.13167489323E+03  0.13167489323E+03  0.00000000000E+00 0.  1.
         21   -1    0    0  501  503 -0.00000000000E+00 -0.00000000000E+00 -0.66546965918E+01  0.66546965918E+01  0.00000000000E+00 0.  1.
          1    1    1    2  501    0 -0.60275412131E+01 -0.26660389510E+02  0.89063167901E+02  0.93163058657E+02  0.00000000000E+00 0. -1.
         -1    1    1    2    0  502  0.60275412131E+01  0.26660389510E+02  0.35957028742E+02  0.45166531169E+02  0.00000000000E+00 0.  1.
<mgrwt>
<rscale>  2 0.27333270E+02</rscale>
<asrwt>0</asrwt>
<pdfrwt beam="1">  1       21 0.20257674E-01 0.27333270E+02</pdfrwt>
<pdfrwt beam="2">  1       21 0.10237996E-02 0.27333270E+02</pdfrwt>
<totfact> 0.60636890E+07</totfact>
</mgrwt>
</event>
<event>
 4    1  0.3862688E+004  0.2426884E+02  0.7546771E-02  0.1671731E+00
         21   -1    0    0  503  502  0.00000000000E+00  0.00000000000E+00  0.72311347462E+01  0.72311347462E+01  0.00000000000E+00 0.  1.
         21   -1    0    0  501  503 -0.00000000000E+00 -0.00000000000E+00 -0.81547856697E+02  0.81547856697E+02  0.00000000000E+00 0.  1.
          2    1    1    2  501    0  0.23600511662E+02 -0.56561937053E+01 -0.35621487725E+02  0.43102982098E+02  0.00000000000E+00 0. -1.
         -2    1    1    2    0  502 -0.23600511662E+02  0.56561937053E+01 -0.38695234226E+02  0.45676009346E+02  0.00000000000E+00 0.  1.
<mgrwt>
<rscale>  2 0.24268842E+02</rscale>
<asrwt>0</asrwt>
<pdfrwt beam="1">  1       21 0.11124823E-02 0.24268842E+02</pdfrwt>
<pdfrwt beam="2">  1       21 0.12545824E-01 0.24268842E+02</pdfrwt>
<totfact> 0.11832623E+08</totfact>
</mgrwt>
</event>
<event>
 4    1  0.3862688E+004  0.2427138E+02  0.7546771E-02  0.1671693E+00
         21   -1    0    0  503  502  0.00000000000E+00  0.00000000000E+00  0.30238817085E+03  0.30238817085E+03  0.00000000000E+00 0.  1.
         21   -1    0    0  501  503 -0.00000000000E+00 -0.00000000000E+00 -0.26696054985E+01  0.26696054985E+01  0.00000000000E+00 0.  1.
          4    1    1    2  501    0  0.19220977793E+00 -0.24270622037E+02  0.22915154744E+03  0.23043335638E+03  0.00000000000E+00 0.  1.
         -4    1    1    2    0  502 -0.19220977793E+00  0.24270622037E+02  0.70567017919E+02  0.74624419975E+02  0.00000000000E+00 0. -1.
<mgrwt>
<rscale>  2 0.24271383E+02</rscale>
<asrwt>0</asrwt>
<pdfrwt beam="1">  1       21 0.46521230E-01 0.24271383E+02</pdfrwt>
<pdfrwt beam="2">  1       21 0.41070878E-03 0.24271383E+02</pdfrwt>
<totfact> 0.50023300E+07</totfact>
</mgrwt>
</event>
<event>
 4    1  0.3862688E+004  0.2083565E+02  0.7546771E-02  0.1729203E+00
         21   -1    0    0  501  502  0.00000000000E+00  0.00000000000E+00  0.99688059099E+00  0.99688059099E+00  0.00000000000E+00 0.  1.
         21   -1    0    0  502  503 -0.00000000000E+00 -0.00000000000E+00 -0.48006812380E+03  0.48006812380E+03  0.00000000000E+00 0.  1.
          3    1    1    2  501    0 -0.10874758414E+02 -0.17772556922E+02 -0.31283820460E+03  0.31353128457E+03  0.00000000000E+00 0. -1.
         -3    1    1    2    0  503  0.10874758414E+02  0.17772556922E+02 -0.16623303862E+03  0.16753371982E+03  0.00000000000E+00 0.  1.
<mgrwt>
<rscale>  2 0.20835646E+02</rscale>
<asrwt>0</asrwt>
<pdfrwt beam="1">  1       21 0.15336628E-03 0.20835646E+02</pdfrwt>
<pdfrwt beam="2">  1       21 0.73856616E-01 0.20835646E+02</pdfrwt>
<totfact> 0.80133967E+07</totfact>
</mgrwt>
</event>
<event>
 4    1  0.3862688E+004  0.2372853E+02  0.7546771E-02  0.1679966E+00
         21   -1    0    0  501  502  0.00000000000E+00  0.00000000000E+00  0.11970592801E+01  0.11970592801E+01  0.00000000000E+00 0.  1.
         21   -1    0    0  502  503 -0.00000000000E+00 -0.00000000000E+00 -0.64756281504E+03  0.64756281504E+03  0.00000000000E+00 0.  1.
          3    1    1    2  501    0 -0.16281400378E+02  0.17261498867E+02 -0.15349378289E+03  0.15531704584E+03  0.00000000000E+00 0.  1.
         -3    1    1    2    0  503  0.16281400378E+02 -0.17261498867E+02 -0.49287197287E+03  0.49344282848E+03  0.00000000000E+00 0. -1.
<mgrwt>
<rscale>  2 0.23728534E+02</rscale>
<asrwt>0</asrwt>
<pdfrwt beam="1">  1       21 0.18416237E-03 0.23728534E+02</pdfrwt>
<pdfrwt beam="2">  1       21 0.99625372E-01 0.23728534E+02</pdfrwt>
<totfact> 0.33637011E+07</totfact>
</mgrwt>
</event>
<event>
 4    1  0.3862688E+004  0.3470914E+02  0.7546771E-02  0.1551199E+00
         21   -1    0    0  501  502  0.00000000000E+00  0.00000000000E+00  0.16823494033E+03  0.16823494033E+03  0.00000000000E+00 0. -1.
         21   -1    0    0  502  503 -0.00000000000E+00 -0.00000000000E+00 -0.74271230445E+01  0.74271230445E+01  0.00000000000E+00 0. -1.
          1    1    1    2  501    0 -0.11434620951E+02  0.32771540050E+02  0.63777131195E+02  0.72610239340E+02  0.00000000000E+00 0.  1.
         -1    1    1    2    0  503  0.11434620951E+02 -0.32771540050E+02  0.97030686086E+02  0.10305182403E+03  0.00000000000E+00 0. -1.
<mgrwt>
<rscale>  2 0.34709140E+02</rscale>
<asrwt>0</asrwt>
<pdfrwt beam="1">  1       21 0.25882296E-01 0.34709140E+02</pdfrwt>
<pdfrwt beam="2">  1       21 0.11426344E-02 0.34709140E+02</pdfrwt>
<totfact> 0.34796857E+07</totfact>
</mgrwt>
</event>
<event>
 4    1  0.3862688E+004  0.2916922E+02  0.7546771E-02  0.1607458E+00
         21   -1    0    0  501  502  0.00000000000E+00  0.00000000000E+00  0.54915207305E+02  0.54915207305E+02  0.00000000000E+00 0.  1.
         21   -1    0    0  502  503 -0.00000000000E+00 -0.00000000000E+00 -0.17397585615E+02  0.17397585615E+02  0.00000000000E+00 0.  1.
          2    1    1    2  501    0  0.20845742970E+02 -0.20403388750E+02  0.67981891672E+01  0.29950937354E+02  0.00000000000E+00 0.  1.
         -2    1    1    2    0  503 -0.20845742970E+02  0.20403388750E+02  0.30719432523E+02  0.42361855566E+02  0.00000000000E+00 0. -1.
<mgrwt>
<rscale>  2 0.29169218E+02</rscale>
<asrwt>0</asrwt>
<pdfrwt beam="1">  1       21 0.84484933E-02 0.29169218E+02</pdfrwt>
<pdfrwt beam="2">  1       21 0.26765517E-02 0.29169218E+02</pdfrwt>
<totfact> 0.62279799E+07</totfact>
</mgrwt>
</event>
<event>
 4    1  0.3862688E+004  0.2158771E+02  0.7546771E-02  0.1715481E+00
         21   -1    0    0  503  502  0.00000000000E+00  0.00000000000E+00  0.92950483204E+00  0.92950483204E+00  0.00000000000E+00 0. -1.
         21   -1    0    0  501  503 -0.00000000000E+00 -0.00000000000E+00 -0.52250110645E+03  0.52250110645E+03  0.00000000000E+00 0. -1.
          2    1    1    2  501    0 -0.59291030436E+01  0.20757528673E+02 -0.31341282334E+03  0.31415541869E+03  0.00000000000E+00 0. -1.
         -2    1    1    2    0  502  0.59291030436E+01 -0.20757528673E+02 -0.20815877828E+03  0.20927519259E+03  0.00000000000E+00 0.  1.
<mgrwt>
<rscale>  2 0.21587711E+02</rscale>
<asrwt>0</asrwt>
<pdfrwt beam="1">  1       21 0.14300077E-03 0.21587711E+02</pdfrwt>
<pdfrwt beam="2">  1       21 0.80384772E-01 0.21587711E+02</pdfrwt>
<totfact> 0.74949263E+07</totfact>
</mgrwt>
</event>
<event>
 4    1  0.3862688E+004  0.4406105E+02  0.7546771E-02  0.1480290E+00
         21   -1    0    0  503  502  0.00000000000E+00  0.00000000000E+00  0.78111388841E+01  0.78111388841E+01  0.00000000000E+00 0.  1.
         21   -1    0    0  501  503 -0.00000000000E+00 -0.00000000000E+00 -0.30934639141E+03  0.30934639141E+03  0.00000000000E+00 0.  1.
          4    1    1    2  501    0 -0.21711568234E+02 -0.38340366688E+02 -0.80460524119E+02  0.91734790861E+02  0.00000000000E+00 0. -1.
         -4    1    1    2    0  502  0.21711568234E+02  0.38340366688E+02 -0.22107472840E+03  0.22542273943E+03  0.00000000000E+00 0.  1.
<mgrwt>
<rscale>  2 0.44061048E+02</rscale>
<asrwt>0</asrwt>
<pdfrwt beam="1">  1       21 0.12017139E-02 0.44061048E+02</pdfrwt>
<pdfrwt beam="2">  1       21 0.47591744E-01 0.44061048E+02</pdfrwt>
<totfact> 0.10527938E+07</totfact>
</mgrwt>
</event>
<event>
 4    1  0.3862688E+004  0.2092224E+02  0.7546771E-02  0.1727587E+00
         21   -1    0    0  501  502  0.00000000000E+00  0.00000000000E+00  0.63195727277E+02  0.63195727277E+02  0.00000000000E+00 0.  1.
         21   -1    0    0  502  503 -0.00000000000E+00 -0.00000000000E+00 -0.77515184196E+01  0.77515184196E+01  0.00000000000E+00 0.  1.
          2    1    1    2  501    0  0.18971921870E+02 -0.88207944773E+01  0.16150825322E+02  0.26430841705E+02  0.00000000000E+00 0. -1.
         -2    1    1    2    0  503 -0.18971921870E+02  0.88207944773E+01  0.39293383536E+02  0.44516403992E+02  0.00000000000E+00 0.  1.
<mgrwt>
<rscale>  2 0.20922243E+02</rscale>
<asrwt>0</asrwt>
<pdfrwt beam="1">  1       21 0.97224192E-02 0.20922243E+02</pdfrwt>
<pdfrwt beam="2">  1       21 0.11925413E-02 0.20922243E+02</pdfrwt>
<totfact> 0.15585244E+08</totfact>
</mgrwt>
</event>
<event>
 4    1  0.3862688E+004  0.2378793E+02  0.7546771E-02  0.1679047E+00
         21   -1    0    0  501  502  0.00000000000E+00  0.00000000000E+00  0.40774191039E+03  0.40774191039E+03  0.00000000000E+00 0.  1.
         21   -1    0    0  502  503 -0.00000000000E+00 -0.00000000000E+00 -0.14390597631E+01  0.14390597631E+01  0.00000000000E+00 0.  1.
          2    1    1    2  501    0 -0.80151765446E+01 -0.22396937074E+02  0.16453985532E+03  0.16625050326E+03  0.00000000000E+00 0.  1.
         -2    1    1    2    0  503  0.80151765446E+01  0.22396937074E+02  0.24176299531E+03  0.24293046689E+03  0.00000000000E+00 0. -1.
<mgrwt>
<rscale>  2 0.23787935E+02</rscale>
<asrwt>0</asrwt>
<pdfrwt beam="1">  1       21 0.62729433E-01 0.23787935E+02</pdfrwt>
<pdfrwt beam="2">  1       21 0.22139413E-03 0.23787935E+02</pdfrwt>
<totfact> 0.68065070E+07</totfact>
</mgrwt>
</event>
<event>
 4    1  0.3862688E+004  0.2292710E+02  0.7546771E-02  0.1692694E+00
         21   -1    0    0  501  502  0.00000000000E+00  0.00000000000E+00  0.56627149012E+01  0.56627149012E+01  0.00000000000E+00 0. -1.
         21   -1    0    0  502  503 -0.00000000000E+00 -0.00000000000E+00 -0.95403867132E+02  0.95403867132E+02  0.00000000000E+00 0. -1.
          4    1    1    2  501    0 -0.13516554390E+01 -0.22887225730E+02 -0.53175811532E+02  0.57907849262E+02  0.00000000000E+00 0. -1.
         -4    1    1    2    0  503  0.13516554390E+01  0.22887225730E+02 -0.36565340699E+02  0.43158732772E+02  0.00000000000E+00 0.  1.
<mgrwt>
<rscale>  2 0.22927103E+02</rscale>
<asrwt>0</asrwt>
<pdfrwt beam="1">  1       21 0.87118689E-03 0.22927103E+02</pdfrwt>
<pdfrwt beam="2">  1       21 0.14677518E-01 0.22927103E+02</pdfrwt>
<totfact> 0.12889850E+08</totfact>
</mgrwt>
</event>
<event>
 4    1  0.3862688E+004  0.3223295E+02  0.7546771E-02  0.1574642E+00
         21   -1    0    0  501  502  0.00000000000E+00  0.00000000000E+00  0.12692316324E+01  0.12692316324E+01  0.00000000000E+00 0.  1.
         21   -1    0    0  502  503 -0.00000000000E+00 -0.00000000000E+00 -0.88289232201E+03  0.88289232201E+03  0.00000000000E+00 0.  1.
          4    1    1    2  501    0  0.14064820034E+02 -0.29002479260E+02 -0.32149318883E+03  0.32310498824E+03  0.00000000000E+00 0. -1.
         -4    1    1    2    0  503 -0.14064820034E+02  0.29002479260E+02 -0.56012990155E+03  0.56105656540E+03  0.00000000000E+00 0.  1.
<mgrwt>
<rscale>  2 0.32232948E+02</rscale>
<asrwt>0</asrwt>
<pdfrwt beam="1">  1       21 0.19526607E-03 0.32232948E+02</pdfrwt>
<pdfrwt beam="2">  1       21 0.13582982E+00 0.32232948E+02</pdfrwt>
<totfact> 0.16068335E+07</totfact>
</mgrwt>
</event>
<event>
 4    1  0.3862688E+004  0.2087249E+02  0.7546771E-02  0.1728514E+00
         21   -1    0    0  501  502  0.00000000000E+00  0.00000000000E+00  0.12397347570E+03  0.12397347570E+03  0.00000000000E+00 0. -1.
         21   -1    0    0  502  503 -0.00000000000E+00 -0.00000000000E+00 -0.68669515300E+01  0.68669515300E+01  0.00000000000E+00 0. -1.
          1    1    1    2  501    0  0.77986072391E+01  0.19360854978E+02  0.10426567055E+03  0.10633433611E+03  0.00000000000E+00 0. -1.
         -1    1    1    2    0  503 -0.77986072391E+01 -0.19360854978E+02  0.12840853620E+02  0.24506091121E+02  0.00000000000E+00 0.  1.
<mgrwt>
<rscale>  2 0.20872493E+02</rscale>
<asrwt>0</asrwt>
<pdfrwt beam="1">  1       21 0.19072841E-01 0.20872493E+02</pdfrwt>
<pdfrwt beam="2">  1       21 0.10564542E-02 0.20872493E+02</pdfrwt>
<totfact> 0.60051037E+07</totfact>
</mgrwt>
</event>
<event>
 4    1  0.3862688E+004  0.2289174E+02  0.7546771E-02  0.1693271E+00
         21   -1    0    0  503  502  0.00000000000E+00  0.00000000000E+00  0.58698095383E+02  0.58698095383E+02  0.00000000000E+00 0. -1.
         21   -1    0    0  501  503 -0.00000000000E+00 -0.00000000000E+00 -0.11596680195E+02  0.11596680195E+02  0.00000000000E+00 0. -1.
          3    1    1    2  501    0 -0.14570456583E+02  0.17655971498E+02  0.40412712699E+02  0.46445870455E+02  0.00000000000E+00 0.  1.
         -3    1    1    2    0  502  0.14570456583E+02 -0.17655971498E+02  0.66887024895E+01  0.23848905123E+02  0.00000000000E+00 0. -1.
<mgrwt>
<rscale>  2 0.22891735E+02</rscale>
<asrwt>0</asrwt>
<pdfrwt beam="1">  1       21 0.90304760E-02 0.22891735E+02</pdfrwt>
<pdfrwt beam="2">  1       21 0.17841047E-02 0.22891735E+02</pdfrwt>
<totfact> 0.98124049E+07</totfact>
</mgrwt>
</event>
<event>
 4    1  0.3862688E+004  0.5295639E+02  0.7546771E-02  0.1430018E+00
         21   -1    0    0  501  502  0.00000000000E+00  0.00000000000E+00  0.33265329671E+01  0.33265329671E+01  0.00000000000E+00 0. -1.
         21   -1    0    0  502  503 -0.00000000000E+00 -0.00000000000E+00 -0.84550830218E+03  0.84550830218E+03  0.00000000000E+00 0. -1.
          2    1    1    2  501    0 -0.22280000587E+02  0.48041447897E+02 -0.44405203463E+03  0.44719860085E+03  0.00000000000E+00 0. -1.
         -2    1    1    2    0  503  0.22280000587E+02 -0.48041447897E+02 -0.39812973458E+03  0.40163623429E+03  0.00000000000E+00 0.  1.
<mgrwt>
<rscale>  2 0.52956389E+02</rscale>
<asrwt>0</asrwt>
<pdfrwt beam="1">  1       21 0.51177360E-03 0.52956389E+02</pdfrwt>
<pdfrwt beam="2">  1       21 0.13007838E+00 0.52956389E+02</pdfrwt>
<totfact> 0.44628095E+06</totfact>
</mgrwt>
</event>
<event>
 4    1  0.3862688E+004  0.4162405E+02  0.7546771E-02  0.1496589E+00
         21   -1    0    0  501  502  0.00000000000E+00  0.00000000000E+00  0.25140604716E+03  0.25140604716E+03  0.00000000000E+00 0. -1.
         21   -1    0    0  502  503 -0.00000000000E+00 -0.00000000000E+00 -0.69093839334E+01  0.69093839334E+01  0.00000000000E+00 0. -1.
          2    1    1    2  501    0 -0.31457141826E+02 -0.27258203850E+02  0.11567489106E+03  0.12293592588E+03  0.00000000000E+00 0. -1.
         -2    1    1    2    0  503  0.31457141826E+02  0.27258203850E+02  0.12882177216E+03  0.13537950521E+03  0.00000000000E+00 0.  1.
<mgrwt>
<rscale>  2 0.41624049E+02</rscale>
<asrwt>0</asrwt>
<pdfrwt beam="1">  1       21 0.38677846E-01 0.41624049E+02</pdfrwt>
<pdfrwt beam="2">  1       21 0.10629823E-02 0.41624049E+02</pdfrwt>
<totfact> 0.18907358E+07</totfact>
</mgrwt>
</event>
<event>
 4    1  0.3862688E+004  0.3093740E+02  0.7546771E-02  0.1587952E+00
         21   -1    0    0  501  502  0.00000000000E+00  0.00000000000E+00  0.11562745151E+04  0.11562745151E+04  0.00000000000E+00 0.  1.
         21   -1    0    0  502  503 -0.00000000000E+00 -0.00000000000E+00 -0.84453791677E+00  0.84453791677E+00  0.00000000000E+00 0.  1.
          3    1    1    2  501    0  0.21412704490E+02 -0.22329772092E+02  0.65925171647E+03  0.65997723317E+03  0.00000000000E+00 0.  1.
         -3    1    1    2    0  503 -0.21412704490E+02  0.22329772092E+02  0.49617826070E+03  0.49714181983E+03  0.00000000000E+00 0. -1.
<mgrwt>
<rscale>  2 0.30937399E+02</rscale>
<asrwt>0</asrwt>
<pdfrwt beam="1">  1       21 0.17788712E+00 0.30937399E+02</pdfrwt>
<pdfrwt beam="2">  1       21 0.12992983E-03 0.30937399E+02</pdfrwt>
<totfact> 0.14940208E+07</totfact>
</mgrwt>
</event>
<event>
 4    1  0.3862688E+004  0.2185837E+02  0.7546771E-02  0.1710713E+00
         21   -1    0    0  501  502  0.00000000000E+00  0.00000000000E+00  0.98272053216E+00  0.98272053216E+00  0.00000000000E+00 0.  1.
         21   -1    0    0  502  503 -0.00000000000E+00 -0.00000000000E+00 -0.48621626990E+03  0.48621626990E+03  0.00000000000E+00 0.  1.
          3    1    1    2  501    0 -0.19121845837E+02  0.10589774801E+02 -0.24442724197E+03  0.24540265878E+03  0.00000000000E+00 0. -1.
         -3    1    1    2    0  503  0.19121845837E+02 -0.10589774801E+02 -0.24080630740E+03  0.24179633166E+03  0.00000000000E+00 0.  1.
<mgrwt>
<rscale>  2 0.21858370E+02</rscale>
<asrwt>0</asrwt>
<pdfrwt beam="1">  1       21 0.15118817E-03 0.21858370E+02</pdfrwt>
<pdfrwt beam="2">  1       21 0.74802306E-01 0.21858370E+02</pdfrwt>
<totfact> 0.80637027E+07</totfact>
</mgrwt>
</event>
<event>
 4    1  0.3862688E+004  0.2813414E+02  0.7546771E-02  0.1619679E+00
         21   -1    0    0  503  502  0.00000000000E+00  0.00000000000E+00  0.66748533246E+03  0.66748533246E+03  0.00000000000E+00 0. -1.
         21   -1    0    0  501  503 -0.00000000000E+00 -0.00000000000E+00 -0.11940788251E+01  0.11940788251E+01  0.00000000000E+00 0. -1.
          5    1    1    2  501    0  0.18331373871E+02  0.21342226570E+02  0.36091971300E+03  0.36201459796E+03  0.00000000000E+00 0.  1.
         -5    1    1    2    0  502 -0.18331373871E+02 -0.21342226570E+02  0.30537154064E+03  0.30666481333E+03  0.00000000000E+00 0. -1.
<mgrwt>
<rscale>  2 0.28134141E+02</rscale>
<asrwt>0</asrwt>
<pdfrwt beam="1">  1       21 0.10268975E+00 0.28134141E+02</pdfrwt>
<pdfrwt beam="2">  1       21 0.18370497E-03 0.28134141E+02</pdfrwt>
<totfact> 0.32609554E+07</totfact>
</mgrwt>
</event>
<event>
 4    1  0.3862688E+004  0.2515845E+02  0.7546771E-02  0.1658736E+00
         21   -1    0    0  501  502  0.00000000000E+00  0.00000000000E+00  0.22334146731E+02  0.22334146731E+02  0.00000000000E+00 0.  1.
         21   -1    0    0  502  503 -0.00000000000E+00 -0.00000000000E+00 -0.28460853488E+02  0.28460853488E+02  0.00000000000E+00 0.  1.
          4    1    1    2  501    0  0.25152388496E+02  0.55219016362E+00 -0.14076974295E+01  0.25197800957E+02  0.00000000000E+00 0. -1.
         -4    1    1    2    0  503 -0.25152388496E+02 -0.55219016362E+00 -0.47190093270E+01  0.25597199262E+02  0.00000000000E+00 0.  1.
<mgrwt>
<rscale>  2 0.25158449E+02</rscale>
<asrwt>0</asrwt>
<pdfrwt beam="1">  1       21 0.34360226E-02 0.25158449E+02</pdfrwt>
<pdfrwt beam="2">  1       21 0.43785928E-02 0.25158449E+02</pdfrwt>
<totfact> 0.11744791E+08</totfact>
</mgrwt>
</event>
<event>
 4    1  0.3862688E+004  0.2299420E+02  0.7546771E-02  0.1691604E+00
         21   -1    0    0  501  502  0.00000000000E+00  0.00000000000E+00  0.18207820597E+03  0.18207820597E+03  0.00000000000E+00 0. -1.
         21   -1    0    0  502  503 -0.00000000000E+00 -0.00000000000E+00 -0.31958648665E+01  0.31958648665E+01  0.00000000000E+00 0. -1.
          2    1    1    2  501    0 -0.21083739079E+02  0.91765610819E+01  0.11744196451E+03  0.11967183610E+03  0.00000000000E+00 0. -1.
         -2    1    1    2    0  503  0.21083739079E+02 -0.91765610819E+01  0.61440376591E+02  0.65602234737E+02  0.00000000000E+00 0.  1.
<mgrwt>
<rscale>  2 0.22994202E+02</rscale>
<asrwt>0</asrwt>
<pdfrwt beam="1">  1       21 0.28012024E-01 0.22994202E+02</pdfrwt>
<pdfrwt beam="2">  1       21 0.49167166E-03 0.22994202E+02</pdfrwt>
<totfact> 0.97435124E+07</totfact>
</mgrwt>
</event>
<event>
 4    1  0.3862688E+004  0.2668897E+02  0.7546771E-02  0.1637864E+00
         21   -1    0    0  503  502  0.00000000000E+00  0.00000000000E+00  0.26708950709E+02  0.26708950709E+02  0.00000000000E+00 0. -1.
         21   -1    0    0  501  503 -0.00000000000E+00 -0.00000000000E+00 -0.32114455616E+02  0.32114455616E+02  0.00000000000E+00 0. -1.
          1    1    1    2  501    0 -0.29725073836E+01 -0.26522924508E+02  0.94084294839E+01  0.28298760926E+02  0.00000000000E+00 0. -1.
         -1    1    1    2    0  502  0.29725073836E+01  0.26522924508E+02 -0.14813934391E+02  0.30524645399E+02  0.00000000000E+00 0.  1.
<mgrwt>
<rscale>  2 0.26688974E+02</rscale>
<asrwt>0</asrwt>
<pdfrwt beam="1">  1       21 0.41090693E-02 0.26688974E+02</pdfrwt>
<pdfrwt beam="2">  1       21 0.49406855E-02 0.26688974E+02</pdfrwt>
<totfact> 0.74182449E+07</totfact>
</mgrwt>
</event>
<event>
 4    1  0.3862688E+004  0.2038309E+02  0.7546771E-02  0.1737815E+00
         21   -1    0    0  503  502  0.00000000000E+00  0.00000000000E+00  0.86760948144E+00  0.86760948144E+00  0.00000000000E+00 0. -1.
         21   -1    0    0  501  503 -0.00000000000E+00 -0.00000000000E+00 -0.49098786157E+03  0.49098786157E+03  0.00000000000E+00 0. -1.
          2    1    1    2  501    0  0.18953792713E+02 -0.74982699901E+01 -0.20642136840E+03  0.20742529171E+03  0.00000000000E+00 0. -1.
         -2    1    1    2    0  502 -0.18953792713E+02  0.74982699901E+01 -0.28369888369E+03  0.28443017934E+03  0.00000000000E+00 0.  1.
<mgrwt>
<rscale>  2 0.20383089E+02</rscale>
<asrwt>0</asrwt>
<pdfrwt beam="1">  1       21 0.13347819E-03 0.20383089E+02</pdfrwt>
<pdfrwt beam="2">  1       21 0.75536705E-01 0.20383089E+02</pdfrwt>
<totfact> 0.92760118E+07</totfact>
</mgrwt>
</event>
<event>
 4    1  0.3862688E+004  0.2780782E+02  0.7546771E-02  0.1623666E+00
         21   -1    0    0  503  502  0.00000000000E+00  0.00000000000E+00  0.27886628041E+01  0.27886628041E+01  0.00000000000E+00 0.  1.
         21   -1    0    0  501  503 -0.00000000000E+00 -0.00000000000E+00 -0.32238377730E+03  0.32238377730E+03  0.00000000000E+00 0.  1.
          3    1    1    2  501    0 -0.20273774862E+02  0.19032839385E+02 -0.98991893666E+02  0.10282348921E+03  0.00000000000E+00 0. -1.
         -3    1    1    2    0  502  0.20273774862E+02 -0.19032839385E+02 -0.22060322083E+03  0.22234895089E+03  0.00000000000E+00 0.  1.
<mgrwt>
<rscale>  2 0.27807821E+02</rscale>
<asrwt>0</asrwt>
<pdfrwt beam="1">  1       21 0.42902534E-03 0.27807821E+02</pdfrwt>
<pdfrwt beam="2">  1       21 0.49597470E-01 0.27807821E+02</pdfrwt>
<totfact> 0.42653406E+07</totfact>
</mgrwt>
</event>
<event>
 4    1  0.3862688E+004  0.2366776E+02  0.7546771E-02  0.1680909E+00
         21   -1    0    0  503  502  0.00000000000E+00  0.00000000000E+00  0.97750882482E+02  0.97750882482E+02  0.00000000000E+00 0.  1.
         21   -1    0    0  501  503 -0.00000000000E+00 -0.00000000000E+00 -0.57641781485E+01  0.57641781485E+01  0.00000000000E+00 0.  1.
          4    1    1    2  501    0  0.18842376202E+02 -0.14322288661E+02  0.49948560270E+02  0.55272251324E+02  0.00000000000E+00 0.  1.
         -4    1    1    2    0  502 -0.18842376202E+02  0.14322288661E+02  0.42038144064E+02  0.48242809307E+02  0.00000000000E+00 0. -1.
<mgrwt>
<rscale>  2 0.23667765E+02</rscale>
<asrwt>0</asrwt>
<pdfrwt beam="1">  1       21 0.15038596E-01 0.23667765E+02</pdfrwt>
<pdfrwt beam="2">  1       21 0.88679671E-03 0.23667765E+02</pdfrwt>
<totfact> 0.12153619E+08</totfact>
</mgrwt>
</event>
<event>
 4    1  0.3862688E+004  0.3460204E+02  0.7546771E-02  0.1552163E+00
         21   -1    0    0  501  502  0.00000000000E+00  0.00000000000E+00  0.59691650717E+02  0.59691650717E+02  0.00000000000E+00 0. -1.
         21   -1    0    0  502  503 -0.00000000000E+00 -0.00000000000E+00 -0.23826341046E+02  0.23826341046E+02  0.00000000000E+00 0. -1.
          4    1    1    2  501    0  0.19174351034E+02 -0.28803561393E+02  0.13256652374E+01  0.34627420851E+02  0.00000000000E+00 0.  1.
         -4    1    1    2    0  503 -0.19174351034E+02  0.28803561393E+02  0.34539644433E+02  0.48890570911E+02  0.00000000000E+00 0. -1.
<mgrwt>
<rscale>  2 0.34602036E+02</rscale>
<asrwt>0</asrwt>
<pdfrwt beam="1">  1       21 0.91833308E-02 0.34602036E+02</pdfrwt>
<pdfrwt beam="2">  1       21 0.36655910E-02 0.34602036E+02</pdfrwt>
<totfact> 0.34220686E+07</totfact>
</mgrwt>
</event>
<event>
 4    1  0.3862688E+004  0.3060659E+02  0.7546771E-02  0.1591479E+00
         21   -1    0    0  503  502  0.00000000000E+00  0.00000000000E+00  0.14957167799E+03  0.14957167799E+03  0.00000000000E+00 0. -1.
         21   -1    0    0  501  503 -0.00000000000E+00 -0.00000000000E+00 -0.63286319595E+01  0.63286319595E+01  0.00000000000E+00 0. -1.
          4    1    1    2  501    0  0.19250552256E+02  0.23794532917E+02  0.63681804165E+02  0.70655047524E+02  0.00000000000E+00 0.  1.
         -4    1    1    2    0  502 -0.19250552256E+02 -0.23794532917E+02  0.79561241867E+02  0.85245262427E+02  0.00000000000E+00 0. -1.
<mgrwt>
<rscale>  2 0.30606593E+02</rscale>
<asrwt>0</asrwt>
<pdfrwt beam="1">  1       21 0.23011025E-01 0.30606593E+02</pdfrwt>
<pdfrwt beam="2">  1       21 0.97363580E-03 0.30606593E+02</pdfrwt>
<totfact> 0.53526732E+07</totfact>
</mgrwt>
</event>
<event>
 4    1  0.3862688E+004  0.2057809E+02  0.7546771E-02  0.1734071E+00
         21   -1    0    0  503  502  0.00000000000E+00  0.00000000000E+00  0.40469450647E+02  0.40469450647E+02  0.00000000000E+00 0. -1.
         21   -1    0    0  501  503 -0.00000000000E+00 -0.00000000000E+00 -0.10866526868E+02  0.10866526868E+02  0.00000000000E+00 0. -1.
          4    1    1    2  501    0  0.19763460966E+02  0.57326568925E+01  0.19743866075E+02  0.28518029245E+02  0.00000000000E+00 0. -1.
         -4    1    1    2    0  502 -0.19763460966E+02 -0.57326568925E+01  0.98590577035E+01  0.22817948269E+02  0.00000000000E+00 0.  1.
<mgrwt>
<rscale>  2 0.20578089E+02</rscale>
<asrwt>0</asrwt>
<pdfrwt beam="1">  1       21 0.62260692E-02 0.20578089E+02</pdfrwt>
<pdfrwt beam="2">  1       21 0.16717734E-02 0.20578089E+02</pdfrwt>
<totfact> 0.19176345E+08</totfact>
</mgrwt>
</event>
<event>
 4    1  0.3862688E+004  0.4341479E+02  0.7546771E-02  0.1484488E+00
         21   -1    0    0  503  502  0.00000000000E+00  0.00000000000E+00  0.83583179289E+01  0.83583179289E+01  0.00000000000E+00 0.  1.
         21   -1    0    0  501  503 -0.00000000000E+00 -0.00000000000E+00 -0.24772435516E+03  0.24772435516E+03  0.00000000000E+00 0.  1.
          5    1    1    2  501    0  0.22372237601E+02 -0.37206544606E+02 -0.15802988024E+03  0.16388498108E+03  0.00000000000E+00 0. -1.
         -5    1    1    2    0  502 -0.22372237601E+02  0.37206544606E+02 -0.81336156998E+02  0.92197692010E+02  0.00000000000E+00 0.  1.
<mgrwt>
<rscale>  2 0.43414790E+02</rscale>
<asrwt>0</asrwt>
<pdfrwt beam="1">  1       21 0.12858949E-02 0.43414790E+02</pdfrwt>
<pdfrwt beam="2">  1       21 0.38111444E-01 0.43414790E+02</pdfrwt>
<totfact> 0.14596610E+07</totfact>
</mgrwt>
</event>
<event>
 4    1  0.3862688E+004  0.5630315E+02  0.7546771E-02  0.1414035E+00
         21   -1    0    0  503  502  0.00000000000E+00  0.00000000000E+00  0.27654958938E+03  0.27654958938E+03  0.00000000000E+00 0.  1.
         21   -1    0    0  501  503 -0.00000000000E+00 -0.00000000000E+00 -0.12331731416E+02  0.12331731416E+02  0.00000000000E+00 0.  1.
          4    1    1    2  501    0 -0.17728438536E+02  0.53439189386E+02  0.93768279348E+02  0.10937337293E+03  0.00000000000E+00 0.  1.
         -4    1    1    2    0  502  0.17728438536E+02 -0.53439189386E+02  0.17044957862E+03  0.17950794786E+03  0.00000000000E+00 0. -1.
<mgrwt>
<rscale>  2 0.56303148E+02</rscale>
<asrwt>0</asrwt>
<pdfrwt beam="1">  1       21 0.42546086E-01 0.56303148E+02</pdfrwt>
<pdfrwt beam="2">  1       21 0.18971897E-02 0.56303148E+02</pdfrwt>
<totfact> 0.66131213E+06</totfact>
</mgrwt>
</event>
<event>
 4    1  0.3862688E+004  0.2628090E+02  0.7546771E-02  0.1643257E+00
         21   -1    0    0  501  502  0.00000000000E+00  0.00000000000E+00  0.18857432982E+03  0.18857432982E+03  0.00000000000E+00 0. -1.
         21   -1    0    0  502  503 -0.00000000000E+00 -0.00000000000E+00 -0.71311988484E+01  0.71311988484E+01  0.00000000000E+00 0. -1.
          2    1    1    2  501    0  0.40230581999E+01  0.25971149111E+02  0.15896556433E+03  0.16112335717E+03  0.00000000000E+00 0.  1.
         -2    1    1    2    0  503 -0.40230581999E+01 -0.25971149111E+02  0.22477566646E+02  0.34582171501E+02  0.00000000000E+00 0. -1.
<mgrwt>
<rscale>  2 0.26280898E+02</rscale>
<asrwt>0</asrwt>
<pdfrwt beam="1">  1       21 0.29011432E-01 0.26280898E+02</pdfrwt>
<pdfrwt beam="2">  1       21 0.10971077E-02 0.26280898E+02</pdfrwt>
<totfact> 0.28472173E+07</totfact>
</mgrwt>
</event>
<event>
 4    1  0.3862688E+004  0.2188003E+02  0.7546771E-02  0.1710335E+00
         21   -1    0    0  501  502  0.00000000000E+00  0.00000000000E+00  0.45056118666E+02  0.45056118666E+02  0.00000000000E+00 0. -1.
         21   -1    0    0  502  503 -0.00000000000E+00 -0.00000000000E+00 -0.10795696333E+02  0.10795696333E+02  0.00000000000E+00 0. -1.
          4    1    1    2  501    0  0.53216210444E+01 -0.21223009810E+02  0.13622019734E+02  0.25773925149E+02  0.00000000000E+00 0.  1.
         -4    1    1    2    0  503 -0.53216210444E+01  0.21223009810E+02  0.20638402599E+02  0.30077889849E+02  0.00000000000E+00 0. -1.
<mgrwt>
<rscale>  2 0.21880032E+02</rscale>
<asrwt>0</asrwt>
<pdfrwt beam="1">  1       21 0.69317105E-02 0.21880032E+02</pdfrwt>
<pdfrwt beam="2">  1       21 0.16608764E-02 0.21880032E+02</pdfrwt>
<totfact> 0.16613297E+08</totfact>
</mgrwt>
</event>
<event>
 4    1  0.3862688E+004  0.2191455E+02  0.7546771E-02  0.1709734E+00
         21   -1    0    0  503  502  0.00000000000E+00  0.00000000000E+00  0.16359622509E+01  0.16359622509E+01  0.00000000000E+00 0.  1.
         21   -1    0    0  501  503 -0.00000000000E+00 -0.00000000000E+00 -0.54116599624E+03  0.54116599624E+03  0.00000000000E+00 0.  1.
          1    1    1    2  501    0  0.17366533531E+02  0.13366047719E+02 -0.45334681216E+03  0.45387617233E+03  0.00000000000E+00 0.  1.
         -1    1    1    2    0  502 -0.17366533531E+02 -0.13366047719E+02 -0.86183221836E+02  0.88925786162E+02  0.00000000000E+00 0. -1.
<mgrwt>
<rscale>  2 0.21914555E+02</rscale>
<asrwt>0</asrwt>
<pdfrwt beam="1">  1       21 0.25168625E-03 0.21914555E+02</pdfrwt>
<pdfrwt beam="2">  1       21 0.83256389E-01 0.21914555E+02</pdfrwt>
<totfact> 0.30959258E+07</totfact>
</mgrwt>
</event>
<event>
 4    1  0.3862688E+004  0.2593237E+02  0.7546771E-02  0.1647960E+00
         21   -1    0    0  503  502  0.00000000000E+00  0.00000000000E+00  0.15722108422E+03  0.15722108422E+03  0.00000000000E+00 0.  1.
         21   -1    0    0  501  503 -0.00000000000E+00 -0.00000000000E+00 -0.60981108163E+01  0.60981108163E+01  0.00000000000E+00 0.  1.
          4    1    1    2  501    0 -0.94990087683E+01  0.24129999206E+02  0.30940699979E+02  0.40370966603E+02  0.00000000000E+00 0. -1.
         -4    1    1    2    0  502  0.94990087683E+01 -0.24129999206E+02  0.12018227343E+03  0.12294822843E+03  0.00000000000E+00 0.  1.
<mgrwt>
<rscale>  2 0.25932374E+02</rscale>
<asrwt>0</asrwt>
<pdfrwt beam="1">  1       21 0.24187856E-01 0.25932374E+02</pdfrwt>
<pdfrwt beam="2">  1       21 0.93817101E-03 0.25932374E+02</pdfrwt>
<totfact> 0.49909533E+07</totfact>
</mgrwt>
</event>
<event>
 4    1  0.3862688E+004  0.2101080E+02  0.7546771E-02  0.1725943E+00
         21   -1    0    0  503  502  0.00000000000E+00  0.00000000000E+00  0.82007946420E+02  0.82007946420E+02  0.00000000000E+00 0.  1.
         21   -1    0    0  501  503 -0.00000000000E+00 -0.00000000000E+00 -0.57503895507E+01  0.57503895507E+01  0.00000000000E+00 0.  1.
          4    1    1    2  501    0  0.42058273940E+01 -0.20585551682E+02  0.27038663293E+02  0.34242418647E+02  0.00000000000E+00 0. -1.
         -4    1    1    2    0  502 -0.42058273940E+01  0.20585551682E+02  0.49218893576E+02  0.53515917323E+02  0.00000000000E+00 0.  1.
<mgrwt>
<rscale>  2 0.21010805E+02</rscale>
<asrwt>0</asrwt>
<pdfrwt beam="1">  1       21 0.12616606E-01 0.21010805E+02</pdfrwt>
<pdfrwt beam="2">  1       21 0.88467538E-03 0.21010805E+02</pdfrwt>
<totfact> 0.15842760E+08</totfact>
</mgrwt>
</event>
<event>
 4    1  0.3862688E+004  0.2645543E+02  0.7546771E-02  0.1640936E+00
         21   -1    0    0  501  502  0.00000000000E+00  0.00000000000E+00  0.95869984738E+02  0.95869984738E+02  0.00000000000E+00 0.  1.
         21   -1    0    0  502  503 -0.00000000000E+00 -0.00000000000E+00 -0.10848553185E+02  0.10848553185E+02  0.00000000000E+00 0.  1.
          3    1    1    2  501    0  0.17609150895E+02 -0.19743543577E+02  0.11994910189E+02  0.29047677682E+02  0.00000000000E+00 0.  1.
         -3    1    1    2    0  503 -0.17609150895E+02  0.19743543577E+02  0.73026521364E+02  0.77670860242E+02  0.00000000000E+00 0. -1.
<mgrwt>
<rscale>  2 0.26455429E+02</rscale>
<asrwt>0</asrwt>
<pdfrwt beam="1">  1       21 0.14749228E-01 0.26455429E+02</pdfrwt>
<pdfrwt beam="2">  1       21 0.16690082E-02 0.26455429E+02</pdfrwt>
<totfact> 0.49584360E+07</totfact>
</mgrwt>
</event>
<event>
 4    1  0.3862688E+004  0.7129345E+02  0.7546771E-02  0.1355749E+00
         21   -1    0    0  501  502  0.00000000000E+00  0.00000000000E+00  0.15818728971E+03  0.15818728971E+03  0.00000000000E+00 0. -1.
         21   -1    0    0  502  503 -0.00000000000E+00 -0.00000000000E+00 -0.37328775620E+02  0.37328775620E+02  0.00000000000E+00 0. -1.
          1    1    1    2  501    0  0.69774679429E+02 -0.14637298567E+02  0.23951458262E+02  0.75209233154E+02  0.00000000000E+00 0.  1.
         -1    1    1    2    0  503 -0.69774679429E+02  0.14637298567E+02  0.96907055824E+02  0.12030683217E+03  0.00000000000E+00 0. -1.
<mgrwt>
<rscale>  2 0.71293453E+02</rscale>
<asrwt>0</asrwt>
<pdfrwt beam="1">  1       21 0.24336506E-01 0.71293453E+02</pdfrwt>
<pdfrwt beam="2">  1       21 0.57428886E-02 0.71293453E+02</pdfrwt>
<totfact> 0.32540935E+06</totfact>
</mgrwt>
</event>
<event>
 4    1  0.3862688E+004  0.2039649E+02  0.7546771E-02  0.1737556E+00
         21   -1    0    0  503  502  0.00000000000E+00  0.00000000000E+00  0.36855976259E+03  0.36855976259E+03  0.00000000000E+00 0. -1.
         21   -1    0    0  501  503 -0.00000000000E+00 -0.00000000000E+00 -0.17445908217E+01  0.17445908217E+01  0.00000000000E+00 0. -1.
          4    1    1    2  501    0  0.20385430657E+02 -0.67144441752E+00  0.73402773240E+02  0.76183881104E+02  0.00000000000E+00 0. -1.
         -4    1    1    2    0  502 -0.20385430657E+02  0.67144441752E+00  0.29341239853E+03  0.29412047231E+03  0.00000000000E+00 0.  1.
<mgrwt>
<rscale>  2 0.20396485E+02</rscale>
<asrwt>0</asrwt>
<pdfrwt beam="1">  1       21 0.56701440E-01 0.20396485E+02</pdfrwt>
<pdfrwt beam="2">  1       21 0.26839888E-03 0.20396485E+02</pdfrwt>
<totfact> 0.60667564E+07</totfact>
</mgrwt>
</event>
<event>
 4    1  0.3862688E+004  0.2549611E+02  0.7546771E-02  0.1653977E+00
         21   -1    0    0  501  502  0.00000000000E+00  0.00000000000E+00  0.66559645364E+00  0.66559645364E+00  0.00000000000E+00 0.  1.
         21   -1    0    0  502  503 -0.00000000000E+00 -0.00000000000E+00 -0.97771504120E+03  0.97771504120E+03  0.00000000000E+00 0.  1.
          2    1    1    2  501    0  0.21607341441E+02 -0.13534185516E+02 -0.47234048283E+03  0.47302809970E+03  0.00000000000E+00 0. -1.
         -2    1    1    2    0  503 -0.21607341441E+02  0.13534185516E+02 -0.50470896191E+03  0.50535253795E+03  0.00000000000E+00 0.  1.
<mgrwt>
<rscale>  2 0.25496105E+02</rscale>
<asrwt>0</asrwt>
<pdfrwt beam="1">  1       21 0.10239988E-03 0.25496105E+02</pdfrwt>
<pdfrwt beam="2">  1       21 0.15041708E+00 0.25496105E+02</pdfrwt>
<totfact> 0.30898633E+07</totfact>
</mgrwt>
</event>
<event>
 4    1  0.3862688E+004  0.2121586E+02  0.7546771E-02  0.1722177E+00
         21   -1    0    0  501  502  0.00000000000E+00  0.00000000000E+00  0.79478219377E+00  0.79478219377E+00  0.00000000000E+00 0.  1.
         21   -1    0    0  502  503 -0.00000000000E+00 -0.00000000000E+00 -0.63520919711E+03  0.63520919711E+03  0.00000000000E+00 0.  1.
          4    1    1    2  501    0  0.20811984960E+02 -0.41199289334E+01 -0.42192041760E+03  0.42245349013E+03  0.00000000000E+00 0.  1.
         -4    1    1    2    0  503 -0.20811984960E+02  0.41199289334E+01 -0.21249399732E+03  0.21355048918E+03  0.00000000000E+00 0. -1.
<mgrwt>
<rscale>  2 0.21215856E+02</rscale>
<asrwt>0</asrwt>
<pdfrwt beam="1">  1       21 0.12227352E-03 0.21215856E+02</pdfrwt>
<pdfrwt beam="2">  1       21 0.97725025E-01 0.21215856E+02</pdfrwt>
<totfact> 0.61579562E+07</totfact>
</mgrwt>
</event>
<event>
 4    1  0.3862688E+004  0.2309347E+02  0.7546771E-02  0.1689999E+00
         21   -1    0    0  501  502  0.00000000000E+00  0.00000000000E+00  0.53958804580E+03  0.53958804580E+03  0.00000000000E+00 0.  1.
         21   -1    0    0  502  503 -0.00000000000E+00 -0.00000000000E+00 -0.10171047282E+01  0.10171047282E+01  0.00000000000E+00 0.  1.
          1    1    1    2  501    0  0.15510236751E+00  0.23092948422E+02  0.22384620613E+03  0.22503429143E+03  0.00000000000E+00 0.  1.
         -1    1    1    2    0  503 -0.15510236751E+00 -0.23092948422E+02  0.31472473494E+03  0.31557085909E+03  0.00000000000E+00 0. -1.
<mgrwt>
<rscale>  2 0.23093469E+02</rscale>
<asrwt>0</asrwt>
<pdfrwt beam="1">  1       21 0.83013317E-01 0.23093469E+02</pdfrwt>
<pdfrwt beam="2">  1       21 0.15647808E-03 0.23093469E+02</pdfrwt>
<totfact> 0.62558899E+07</totfact>
</mgrwt>
</event>
<event>
 4    1  0.3862688E+004  0.2073781E+02  0.7546771E-02  0.1731042E+00
         21   -1    0    0  503  502  0.00000000000E+00  0.00000000000E+00  0.11263231394E+01  0.11263231394E+01  0.00000000000E+00 0. -1.
         21   -1    0    0  501  503 -0.00000000000E+00 -0.00000000000E+00 -0.41897405969E+03  0.41897405969E+03  0.00000000000E+00 0. -1.
          3    1    1    2  501    0 -0.92764606718E+01  0.18547350811E+02 -0.14637627114E+03  0.14783798462E+03  0.00000000000E+00 0.  1.
         -3    1    1    2    0  502  0.92764606718E+01 -0.18547350811E+02 -0.27147146541E+03  0.27226239820E+03  0.00000000000E+00 0. -1.
<mgrwt>
<rscale>  2 0.20737814E+02</rscale>
<asrwt>0</asrwt>
<pdfrwt beam="1">  1       21 0.17328049E-03 0.20737814E+02</pdfrwt>
<pdfrwt beam="2">  1       21 0.64457544E-01 0.20737814E+02</pdfrwt>
<totfact> 0.88654209E+07</totfact>
</mgrwt>
</event>
<event>
 4    1  0.3862688E+004  0.2122444E+02  0.7546771E-02  0.1722021E+00
         21   -1    0    0  503  502  0.00000000000E+00  0.00000000000E+00  0.56457428805E+01  0.56457428805E+01  0.00000000000E+00 0. -1.
         21   -1    0    0  501  503 -0.00000000000E+00 -0.00000000000E+00 -0.10552262899E+03  0.10552262899E+03  0.00000000000E+00 0. -1.
          4    1    1    2  501    0  0.64439211806E+01 -0.20222580095E+02 -0.22490109582E+02  0.30923807897E+02  0.00000000000E+00 0. -1.
         -4    1    1    2    0  502 -0.64439211806E+01  0.20222580095E+02 -0.77386776527E+02  0.80244563972E+02  0.00000000000E+00 0.  1.
<mgrwt>
<rscale>  2 0.21224440E+02</rscale>
<asrwt>0</asrwt>
<pdfrwt beam="1">  1       21 0.86857584E-03 0.21224440E+02</pdfrwt>
<pdfrwt beam="2">  1       21 0.16234250E-01 0.21224440E+02</pdfrwt>
<totfact> 0.10664770E+08</totfact>
</mgrwt>
</event>
<event>
 4    1  0.3862688E+004  0.5061082E+02  0.7546771E-02  0.1442075E+00
         21   -1    0    0  503  502  0.00000000000E+00  0.00000000000E+00  0.12742015344E+03  0.12742015344E+03  0.00000000000E+00 0.  1.
         21   -1    0    0  501  503 -0.00000000000E+00 -0.00000000000E+00 -0.21799966121E+02  0.21799966121E+02  0.00000000000E+00 0.  1.
          3    1    1    2  501    0 -0.49778603499E+02  0.91403244265E+01  0.31990185556E+02  0.59873423727E+02  0.00000000000E+00 0.  1.
         -3    1    1    2    0  502  0.49778603499E+02 -0.91403244265E+01  0.73630001762E+02  0.89346695833E+02  0.00000000000E+00 0. -1.
<mgrwt>
<rscale>  2 0.50610818E+02</rscale>
<asrwt>0</asrwt>
<pdfrwt beam="1">  1       21 0.19603100E-01 0.50610818E+02</pdfrwt>
<pdfrwt beam="2">  1       21 0.33538410E-02 0.50610818E+02</pdfrwt>
<totfact> 0.11278890E+07</totfact>
</mgrwt>
</event>
<event>
 4    1  0.3862688E+004  0.2064366E+02  0.7546771E-02  0.1732823E+00
         21   -1    0    0  503  502  0.00000000000E+00  0.00000000000E+00  0.43057206709E+02  0.43057206709E+02  0.00000000000E+00 0.  1.
         21   -1    0    0  501  503 -0.00000000000E+00 -0.00000000000E+00 -0.10132483779E+02  0.10132483779E+02  0.00000000000E+00 0.  1.
          1    1    1    2  501    0  0.18852669597E+02  0.84105670303E+01  0.12412746886E+02  0.24088110635E+02  0.00000000000E+00 0. -1.
         -1    1    1    2    0  502 -0.18852669597E+02 -0.84105670303E+01  0.20511976044E+02  0.29101579853E+02  0.00000000000E+00 0.  1.
<mgrwt>
<rscale>  2 0.20643662E+02</rscale>
<asrwt>0</asrwt>
<pdfrwt beam="1">  1       21 0.66241856E-02 0.20643662E+02</pdfrwt>
<pdfrwt beam="2">  1       21 0.15588437E-02 0.20643662E+02</pdfrwt>
<totfact> 0.19323965E+08</totfact>
</mgrwt>
</event>
<event>
 4    1  0.3862688E+004  0.2364394E+02  0.7546771E-02  0.1681280E+00
         21   -1    0    0  503  502  0.00000000000E+00  0.00000000000E+00  0.14114298933E+03  0.14114298933E+03  0.00000000000E+00 0. -1.
         21   -1    0    0  501  503 -0.00000000000E+00 -0.00000000000E+00 -0.44698809341E+01  0.44698809341E+01  0.00000000000E+00 0. -1.
          5    1    1    2  501    0 -0.21310795743E+02  0.10241373447E+02  0.92907705228E+02  0.95869064020E+02  0.00000000000E+00 0. -1.
         -5    1    1    2    0  502  0.21310795743E+02 -0.10241373447E+02  0.43765403172E+02  0.49743806249E+02  0.00000000000E+00 0.  1.
<mgrwt>
<rscale>  2 0.23643937E+02</rscale>
<asrwt>0</asrwt>
<pdfrwt beam="1">  1       21 0.21714303E-01 0.23643937E+02</pdfrwt>
<pdfrwt beam="2">  1       21 0.68767410E-03 0.23643937E+02</pdfrwt>
<totfact> 0.94025014E+07</totfact>
</mgrwt>
</event>
<event>
 4    1  0.3862688E+004  0.2827564E+02  0.7546771E-02  0.1617970E+00
         21   -1    0    0  501  502  0.00000000000E+00  0.00000000000E+00  0.12606670757E+04  0.12606670757E+04  0.00000000000E+00 0.  1.
         21   -1    0    0  502  503 -0.00000000000E+00 -0.00000000000E+00 -0.65148967881E+00  0.65148967881E+00  0.00000000000E+00 0.  1.
          1    1    1    2  501    0  0.27970398559E+02  0.41434992360E+01  0.73275431719E+03  0.73329966667E+03  0.00000000000E+00 0. -1.
         -1    1    1    2    0  503 -0.27970398559E+02 -0.41434992360E+01  0.52726126883E+03  0.52801889870E+03  0.00000000000E+00 0.  1.
<mgrwt>
<rscale>  2 0.28275639E+02</rscale>
<asrwt>0</asrwt>
<pdfrwt beam="1">  1       21 0.19394683E+00 0.28275639E+02</pdfrwt>
<pdfrwt beam="2">  1       21 0.10023019E-03 0.28275639E+02</pdfrwt>
<totfact> 0.17211499E+07</totfact>
</mgrwt>
</event>
<event>
 4    1  0.3862688E+004  0.2584876E+02  0.7546771E-02  0.1649102E+00
         21   -1    0    0  503  502  0.00000000000E+00  0.00000000000E+00  0.59265385267E+01  0.59265385267E+01  0.00000000000E+00 0.  1.
         21   -1    0    0  501  503 -0.00000000000E+00 -0.00000000000E+00 -0.19331232684E+03  0.19331232684E+03  0.00000000000E+00 0.  1.
          2    1    1    2  501    0  0.23806483757E+02  0.10070232688E+02 -0.29378659529E+02  0.39131367098E+02  0.00000000000E+00 0.  1.
         -2    1    1    2    0  502 -0.23806483757E+02 -0.10070232688E+02 -0.15800712878E+03  0.16010749826E+03  0.00000000000E+00 0. -1.
<mgrwt>
<rscale>  2 0.25848757E+02</rscale>
<asrwt>0</asrwt>
<pdfrwt beam="1">  1       21 0.91177514E-03 0.25848757E+02</pdfrwt>
<pdfrwt beam="2">  1       21 0.29740359E-01 0.25848757E+02</pdfrwt>
<totfact> 0.35848568E+07</totfact>
</mgrwt>
</event>
<event>
 4    1  0.3862688E+004  0.2099069E+02  0.7546771E-02  0.1726316E+00
         21   -1    0    0  501  502  0.00000000000E+00  0.00000000000E+00  0.62668461920E+01  0.62668461920E+01  0.00000000000E+00 0.  1.
         21   -1    0    0  502  503 -0.00000000000E+00 -0.00000000000E+00 -0.99168281534E+02  0.99168281534E+02  0.00000000000E+00 0.  1.
          2    1    1    2  501    0  0.64596091770E+01 -0.19972038127E+02 -0.74890082881E+02  0.77776174833E+02  0.00000000000E+00 0. -1.
         -2    1    1    2    0  503 -0.64596091770E+01  0.19972038127E+02 -0.18011352461E+02  0.27658952893E+02  0.00000000000E+00 0.  1.
<mgrwt>
<rscale>  2 0.20990685E+02</rscale>
<asrwt>0</asrwt>
<pdfrwt beam="1">  1       21 0.96413022E-03 0.20990685E+02</pdfrwt>
<pdfrwt beam="2">  1       21 0.15256658E-01 0.20990685E+02</pdfrwt>
<totfact> 0.10111097E+08</totfact>
</mgrwt>
</event>
<event>
 4    1  0.3862688E+004  0.3476757E+02  0.7546771E-02  0.1550674E+00
         21   -1    0    0  503  502  0.00000000000E+00  0.00000000000E+00  0.94224778025E+02  0.94224778025E+02  0.00000000000E+00 0. -1.
         21   -1    0    0  501  503 -0.00000000000E+00 -0.00000000000E+00 -0.16485283355E+02  0.16485283355E+02  0.00000000000E+00 0. -1.
          1    1    1    2  501    0  0.18977763428E+02  0.29131233095E+02  0.12799518754E+02  0.37048777668E+02  0.00000000000E+00 0.  1.
         -1    1    1    2    0  502 -0.18977763428E+02 -0.29131233095E+02  0.64939975915E+02  0.73661283713E+02  0.00000000000E+00 0. -1.
<mgrwt>
<rscale>  2 0.34767575E+02</rscale>
<asrwt>0</asrwt>
<pdfrwt beam="1">  1       21 0.14496119E-01 0.34767575E+02</pdfrwt>
<pdfrwt beam="2">  1       21 0.25361975E-02 0.34767575E+02</pdfrwt>
<totfact> 0.28255808E+07</totfact>
</mgrwt>
</event>
<event>
 4    1  0.3862688E+004  0.2128162E+02  0.7546771E-02  0.1720981E+00
         21   -1    0    0  501  502  0.00000000000E+00  0.00000000000E+00  0.10189070560E+02  0.10189070560E+02  0.00000000000E+00 0. -1.
         21   -1    0    0  502  503 -0.00000000000E+00 -0.00000000000E+00 -0.49946001123E+02  0.49946001123E+02  0.00000000000E+00 0. -1.
          5    1    1    2  501    0  0.20130431156E+02  0.69045580356E+01 -0.29852233538E+02  0.36661465156E+02  0.00000000000E+00 0.  1.
         -5    1    1    2    0  503 -0.20130431156E+02 -0.69045580356E+01 -0.99046970258E+01  0.23473606527E+02  0.00000000000E+00 0. -1.
<mgrwt>
<rscale>  2 0.21281616E+02</rscale>
<asrwt>0</asrwt>
<pdfrwt beam="1">  1       21 0.15675493E-02 0.21281616E+02</pdfrwt>
<pdfrwt beam="2">  1       21 0.76840003E-02 0.21281616E+02</pdfrwt>
<totfact> 0.15222048E+08</totfact>
</mgrwt>
</event>
<event>
 4    1  0.3862688E+004  0.2389940E+02  0.7546771E-02  0.1677333E+00
         21   -1    0    0  503  502  0.00000000000E+00  0.00000000000E+00  0.86489862044E+02  0.86489862044E+02  0.00000000000E+00 0. -1.
         21   -1    0    0  501  503 -0.00000000000E+00 -0.00000000000E+00 -0.67508476779E+01  0.67508476779E+01  0.00000000000E+00 0. -1.
          2    1    1    2  501    0  0.15387375457E+02 -0.18286880077E+02  0.32994211779E+02  0.40740634719E+02  0.00000000000E+00 0. -1.
         -2    1    1    2    0  502 -0.15387375457E+02  0.18286880077E+02  0.46744802588E+02  0.52500075003E+02  0.00000000000E+00 0.  1.
<mgrwt>
<rscale>  2 0.23899400E+02</rscale>
<asrwt>0</asrwt>
<pdfrwt beam="1">  1       21 0.13306132E-01 0.23899400E+02</pdfrwt>
<pdfrwt beam="2">  1       21 0.10385920E-02 0.23899400E+02</pdfrwt>
<totfact> 0.11832468E+08</totfact>
</mgrwt>
</event>
